Protein in INSANE! Membrane UpperLeaflet>POPC=1.0 LowerLeaflet>POPC=1.0
12914
    1AU     AUC    1   5.749   5.819   6.000
    1AU     AUC    2   6.045   5.818   5.833
    1AU     AUC    3   6.005   5.807   6.172
    1AU     AUC    4   5.476   5.808   5.836
    1AU     AUC    5   5.484   5.857   6.180
    1AU     AUC    6   5.582   6.092   5.997
    1AU     AUC    7   5.930   6.084   5.989
    1AU     AUC    8   5.557   5.551   6.000
    1AU     AUC    9   5.913   5.548   6.007
    1AU     AUC   10   5.750   5.643   6.265
    1AU     AUC   11   5.740   6.010   6.253
    1AU     AUC   12   5.750   5.656   5.732
    1AU     AUC   13   5.781   5.970   5.728
    1AU     AUC   14   6.382   5.814   5.686
    1AU     AUC   15   6.367   5.798   6.023
    1AU     AUC   16   6.297   5.783   6.376
    1AU     AUC   17   5.160   5.815   5.670
    1AU     AUC   18   5.140   5.856   6.032
    1AU     AUC   19   5.193   5.899   6.364
    1AU     AUC   20   5.430   6.414   5.965
    1AU     AUC   21   5.782   6.437   5.941
    1AU     AUC   22   6.105   6.375   5.976
    1AU     AUC   23   5.358   5.269   5.996
    1AU     AUC   24   5.687   5.209   5.967
    1AU     AUC   25   6.076   5.223   5.983
    1AU     AUC   26   5.729   5.467   6.561
    1AU     AUC   27   5.744   5.826   6.598
    1AU     AUC   28   5.772   6.186   6.545
    1AU     AUC   29   5.782   5.489   5.446
    1AU     AUC   30   5.773   5.798   5.390
    1AU     AUC   31   5.777   6.116   5.422
    1AU     AUC   32   6.016   5.582   6.493
    1AU     AUC   33   6.043   5.967   6.495
    1AU     AUC   34   6.101   5.641   5.524
    1AU     AUC   35   6.103   5.988   5.536
    1AU     AUC   36   5.447   5.707   6.515
    1AU     AUC   37   5.470   6.080   6.482
    1AU     AUC   38   5.451   5.641   5.542
    1AU     AUC   39   5.435   5.947   5.495
    1AU     AUC   40   6.293   6.098   5.834
    1AU     AUC   41   6.216   6.079   6.198
    1AU     AUC   42   5.260   6.120   5.834
    1AU     AUC   43   5.288   6.190   6.181
    1AU     AUC   44   6.255   5.501   5.853
    1AU     AUC   45   6.204   5.474   6.180
    1AU     AUC   46   5.215   5.528   5.867
    1AU     AUC   47   5.273   5.579   6.215
    1AU     AUC   48   5.608   6.361   6.249
    1AU     AUC   49   5.937   6.306   6.267
    1AU     AUC   50   5.548   5.356   6.289
    1AU     AUC   51   5.869   5.294   6.266
    1AU     AUC   52   5.581   6.245   5.683
    1AU     AUC   53   5.968   6.268   5.664
    1AU     AUC   54   5.538   5.340   5.708
    1AU     AUC   55   5.927   5.368   5.715
    1AU    AUSL   56   6.281   5.707   6.745
    1AU    AUSL   57   6.014   5.290   6.656
    1AU     AUL   58   6.317   5.303   6.839
    1AU       S   59   6.372   4.930   6.582
    1AU     LIG   60   6.255   4.780   6.951
    1AU     LIG   61   6.397   4.422   7.160
    1AU     LIG   62   6.631   4.122   7.399
    1AU     LIG   63   6.851   3.956   7.777
    1AU     LIG   64   6.909   3.663   8.134
    1AU       S   65   6.510   5.713   6.884
    1AU     LIG   66   6.391   5.733   7.333
    1AU     LIG   67   6.546   5.567   7.752
    1AU     LIG   68   6.843   5.430   8.113
    1AU     LIG   69   7.231   5.494   8.410
    1AU     LIG   70   7.502   5.608   8.787
    1AU    AUSL   71   5.869   5.616   6.911
    1AU    AUSL   72   5.616   6.015   6.937
    1AU     AUL   73   5.801   5.905   7.240
    1AU       S   74   6.004   5.529   7.082
    1AU     LIG   75   5.943   5.481   7.511
    1AU     LIG   76   6.151   5.246   7.855
    1AU     LIG   77   6.425   5.080   8.204
    1AU     LIG   78   6.449   4.854   8.627
    1AU     LIG   79   6.467   4.879   9.097
    1AU       S   80   5.387   5.747   7.131
    1AU     LIG   81   5.463   5.730   7.603
    1AU     LIG   82   5.206   5.653   7.986
    1AU     LIG   83   5.030   5.688   8.422
    1AU     LIG   84   5.086   5.963   8.823
    1AU     LIG   85   5.047   6.070   9.286
    1AU    AUSL   86   5.937   5.992   6.658
    1AU    AUSL   87   6.379   6.118   6.624
    1AU     AUL   88   6.166   6.010   6.953
    1AU       S   89   5.848   6.368   7.118
    1AU     LIG   90   6.189   6.234   7.408
    1AU     LIG   91   6.404   6.381   7.813
    1AU     LIG   92   6.370   6.482   8.298
    1AU     LIG   93   6.392   6.675   8.737
    1AU     LIG   94   6.658   6.761   9.110
    1AU       S   95   6.526   6.263   6.791
    1AU     LIG   96   6.953   6.273   6.845
    1AU     LIG   97   7.243   6.465   7.159
    1AU     LIG   98   7.460   6.669   7.530
    1AU     LIG   99   7.785   6.724   7.880
    1AU     LIG  100   8.223   6.848   8.035
    1AU    AUSL  101   6.292   5.854   5.392
    1AU    AUSL  102   6.185   6.290   5.325
    1AU     AUL  103   6.473   6.098   5.135
    1AU       S  104   6.131   6.030   4.850
    1AU     LIG  105   6.509   6.040   4.514
    1AU     LIG  106   6.686   5.758   4.187
    1AU     LIG  107   6.837   5.512   3.814
    1AU     LIG  108   7.203   5.412   3.522
    1AU     LIG  109   7.634   5.456   3.308
    1AU       S  110   6.507   6.540   5.313
    1AU     LIG  111   6.700   6.660   4.914
    1AU     LIG  112   6.937   6.824   4.532
    1AU     LIG  113   7.207   6.955   4.178
    1AU     LIG  114   7.450   7.083   3.800
    1AU     LIG  115   7.655   7.406   3.518
    1AU    AUSL  116   6.085   5.605   5.086
    1AU    AUSL  117   6.497   5.474   5.430
    1AU     AUL  118   6.459   5.629   5.155
    1AU       S  119   6.571   5.165   5.202
    1AU     LIG  120   6.682   4.789   4.905
    1AU     LIG  121   6.929   4.406   4.844
    1AU     LIG  122   7.228   4.194   4.557
    1AU     LIG  123   7.566   4.295   4.226
    1AU     LIG  124   8.016   4.408   4.082
    1AU       S  125   6.204   5.833   4.825
    1AU     LIG  126   6.306   5.531   4.510
    1AU     LIG  127   6.396   5.349   4.066
    1AU     LIG  128   6.425   5.251   3.596
    1AU     LIG  129   6.483   5.011   3.183
    1AU     LIG  130   6.716   4.887   2.778
    1AU    AUSL  131   5.890   5.972   5.260
    1AU    AUSL  132   5.659   5.589   5.197
    1AU     AUL  133   5.812   5.628   4.938
    1AU       S  134   5.367   5.649   4.779
    1AU     LIG  135   5.407   5.462   4.389
    1AU     LIG  136   5.157   5.193   4.102
    1AU     LIG  137   4.937   5.157   3.693
    1AU     LIG  138   4.952   4.963   3.253
    1AU     LIG  139   4.935   4.962   2.775
    1AU       S  140   5.975   6.082   4.951
    1AU     LIG  141   5.861   5.869   4.470
    1AU     LIG  142   6.169   5.816   4.099
    1AU     LIG  143   6.396   5.767   3.672
    1AU     LIG  144   6.459   5.864   3.191
    1AU     LIG  145   6.459   6.151   2.800
    1AU    AUSL  146   5.214   5.971   6.750
    1AU    AUSL  147   5.529   6.309   6.627
    1AU     AUL  148   5.379   6.250   6.957
    1AU       S  149   5.207   5.866   7.188
    1AU     LIG  150   5.011   5.524   7.431
    1AU     LIG  151   4.769   5.420   7.837
    1AU     LIG  152   4.568   5.370   8.276
    1AU     LIG  153   4.161   5.372   8.545
    1AU     LIG  154   3.847   5.565   8.855
    1AU       S  155   5.124   6.569   6.718
    1AU     LIG  156   5.085   6.726   7.152
    1AU     LIG  157   4.922   6.946   7.542
    1AU     LIG  158   4.815   7.317   7.817
    1AU     LIG  159   4.657   7.438   8.256
    1AU     LIG  160   4.554   7.605   8.700
    1AU    AUSL  161   5.524   5.677   6.658
    1AU    AUSL  162   5.096   5.547   6.646
    1AU     AUL  163   5.016   5.773   6.778
    1AU       S  164   4.995   5.315   6.909
    1AU     LIG  165   4.567   5.017   6.914
    1AU     LIG  166   4.195   4.757   6.980
    1AU     LIG  167   3.892   4.530   7.242
    1AU     LIG  168   3.716   4.319   7.621
    1AU     LIG  169   3.345   4.308   7.933
    1AU       S  170   5.398   5.612   7.048
    1AU     LIG  171   5.472   5.287   7.370
    1AU     LIG  172   5.245   5.188   7.768
    1AU     LIG  173   5.049   5.182   8.203
    1AU     LIG  174   4.874   4.985   8.595
    1AU     LIG  175   4.910   4.914   9.062
    1AU    AUSL  176   5.252   5.735   5.275
    1AU    AUSL  177   5.442   5.362   5.490
    1AU     AUL  178   5.419   5.363   5.137
    1AU       S  179   5.132   5.642   4.900
    1AU     LIG  180   4.909   5.536   4.506
    1AU     LIG  181   4.696   5.428   4.113
    1AU     LIG  182   4.587   5.576   3.697
    1AU     LIG  183   4.265   5.618   3.343
    1AU     LIG  184   3.914   5.643   3.003
    1AU       S  185   5.008   5.214   5.284
    1AU     LIG  186   4.746   4.859   5.124
    1AU     LIG  187   4.504   4.524   4.906
    1AU     LIG  188   4.304   4.247   4.581
    1AU     LIG  189   4.237   4.063   4.150
    1AU     LIG  190   4.278   3.867   3.720
    1AU    AUSL  191   5.521   6.015   5.047
    1AU    AUSL  192   5.021   6.083   5.415
    1AU     AUL  193   5.153   6.058   5.092
    1AU       S  194   4.753   6.256   5.256
    1AU     LIG  195   4.550   6.495   4.906
    1AU     LIG  196   4.575   6.647   4.466
    1AU     LIG  197   4.365   6.784   4.063
    1AU     LIG  198   3.954   6.875   3.823
    1AU     LIG  199   3.590   7.160   3.736
    1AU       S  200   5.450   5.893   4.773
    1AU     LIG  201   5.201   5.946   4.392
    1AU     LIG  202   5.122   5.698   4.005
    1AU     LIG  203   5.078   5.649   3.547
    1AU     LIG  204   5.103   5.813   3.103
    1AU     LIG  205   4.888   5.946   2.701
    1AU    AUSL  206   6.533   6.331   6.029
    1AU    AUSL  207   6.535   6.145   5.604
    1AU     AUL  208   6.813   6.449   5.859
    1AU       S  209   6.620   6.377   5.466
    1AU     LIG  210   6.956   6.301   5.183
    1AU     LIG  211   7.157   6.423   4.780
    1AU     LIG  212   7.453   6.705   4.552
    1AU     LIG  213   7.726   6.894   4.204
    1AU     LIG  214   7.953   7.185   3.898
    1AU       S  215   6.929   6.206   6.247
    1AU     LIG  216   7.368   6.355   6.114
    1AU     LIG  217   7.843   6.448   6.033
    1AU     LIG  218   8.282   6.621   6.039
    1AU     LIG  219   8.599   6.921   6.199
    1AU     LIG  220   8.787   7.298   6.428
    1AU    AUSL  221   6.744   5.924   5.914
    1AU    AUSL  222   6.679   5.591   6.231
    1AU     AUL  223   7.037   5.694   6.250
    1AU       S  224   6.878   6.007   5.970
    1AU     LIG  225   7.348   5.891   5.908
    1AU     LIG  226   7.839   5.975   5.835
    1AU     LIG  227   8.287   6.171   5.746
    1AU     LIG  228   8.736   6.276   5.541
    1AU     LIG  229   9.114   6.367   5.277
    1AU       S  230   6.941   5.290   6.053
    1AU     LIG  231   7.337   5.048   6.185
    1AU     LIG  232   7.768   4.831   6.258
    1AU     LIG  233   8.237   4.679   6.264
    1AU     LIG  234   8.704   4.833   6.296
    1AU     LIG  235   9.153   4.752   6.481
    1AU    AUSL  236   6.440   5.950   6.238
    1AU    AUSL  237   6.184   6.337   6.289
    1AU     AUL  238   6.513   6.396   6.336
    1AU       S  239   6.504   6.565   6.763
    1AU     LIG  240   6.881   6.778   6.952
    1AU     LIG  241   7.229   7.005   7.183
    1AU     LIG  242   7.387   7.423   7.369
    1AU     LIG  243   7.539   7.891   7.407
    1AU     LIG  244   7.897   8.155   7.580
    1AU       S  245   6.779   6.034   6.392
    1AU     LIG  246   7.293   6.026   6.515
    1AU     LIG  247   7.749   6.044   6.340
    1AU     LIG  248   8.233   6.170   6.288
    1AU     LIG  249   8.571   6.479   6.494
    1AU     LIG  250   9.003   6.608   6.663
    1AU    AUSL  251   5.111   6.414   6.000
    1AU    AUSL  252   5.169   6.199   6.391
    1AU     AUL  253   4.877   6.533   6.229
    1AU       S  254   5.016   6.365   6.635
    1AU     LIG  255   4.876   6.253   7.058
    1AU     LIG  256   4.694   6.487   7.436
    1AU     LIG  257   4.427   6.694   7.785
    1AU     LIG  258   4.075   6.768   8.117
    1AU     LIG  259   3.721   6.960   8.375
    1AU       S  260   5.127   6.795   5.922
    1AU     LIG  261   4.671   6.812   5.833
    1AU     LIG  262   4.245   7.047   5.908
    1AU     LIG  263   3.824   7.306   5.946
    1AU     LIG  264   3.381   7.526   5.937
    1AU     LIG  265   2.972   7.791   5.962
    1AU    AUSL  266   5.064   6.006   5.828
    1AU    AUSL  267   5.185   6.466   5.579
    1AU     AUL  268   4.889   6.360   5.698
    1AU       S  269   4.672   5.791   5.460
    1AU     LIG  270   4.255   6.021   5.487
    1AU     LIG  271   3.836   6.180   5.302
    1AU     LIG  272   3.361   6.203   5.423
    1AU     LIG  273   2.969   6.498   5.387
    1AU     LIG  274   2.605   6.693   5.139
    1AU       S  275   5.026   6.714   5.398
    1AU     LIG  276   5.018   7.008   5.001
    1AU     LIG  277   4.923   7.461   4.781
    1AU     LIG  278   4.760   7.933   4.678
    1AU     LIG  279   4.454   8.310   4.563
    1AU     LIG  280   4.045   8.578   4.537
    1AU    AUSL  281   4.814   6.077   6.189
    1AU    AUSL  282   4.775   5.698   5.908
    1AU     AUL  283   4.657   6.007   5.888
    1AU       S  284   4.576   5.628   6.173
    1AU     LIG  285   4.280   5.592   5.779
    1AU     LIG  286   3.916   5.337   5.613
    1AU     LIG  287   3.458   5.175   5.591
    1AU     LIG  288   2.973   5.123   5.710
    1AU     LIG  289   2.524   5.054   5.562
    1AU       S  290   4.667   6.115   6.389
    1AU     LIG  291   4.183   6.127   6.485
    1AU     LIG  292   3.736   6.185   6.698
    1AU     LIG  293   3.348   6.455   6.786
    1AU     LIG  294   2.870   6.411   6.748
    1AU     LIG  295   2.408   6.540   6.652
    1AU    AUSL  296   6.471   5.234   6.056
    1AU    AUSL  297   6.281   5.498   6.374
    1AU     AUL  298   6.611   5.397   6.450
    1AU       S  299   6.768   5.129   6.081
    1AU     LIG  300   6.987   4.781   5.909
    1AU     LIG  301   7.379   4.545   6.017
    1AU     LIG  302   7.826   4.374   6.030
    1AU     LIG  303   8.214   4.139   6.188
    1AU     LIG  304   8.453   3.777   6.397
    1AU       S  305   6.490   4.959   6.466
    1AU     LIG  306   6.727   4.639   6.753
    1AU     LIG  307   6.927   4.403   7.088
    1AU     LIG  308   7.158   4.159   7.410
    1AU     LIG  309   7.453   4.137   7.778
    1AU     LIG  310   7.861   4.146   8.028
    1AU    AUSL  311   6.459   5.614   5.832
    1AU    AUSL  312   6.332   5.123   5.656
    1AU     AUL  313   6.604   5.265   5.673
    1AU       S  314   6.949   5.489   5.840
    1AU     LIG  315   7.273   5.160   5.688
    1AU     LIG  316   7.670   4.878   5.754
    1AU     LIG  317   8.133   4.698   5.767
    1AU     LIG  318   8.629   4.674   5.778
    1AU     LIG  319   8.994   4.720   5.461
    1AU       S  320   6.524   4.924   5.354
    1AU     LIG  321   6.457   4.445   5.349
    1AU     LIG  322   6.703   4.071   5.163
    1AU     LIG  323   6.949   3.826   4.855
    1AU     LIG  324   7.302   3.503   4.782
    1AU     LIG  325   7.665   3.184   4.683
    1AU    AUSL  326   4.965   5.327   6.069
    1AU    AUSL  327   5.080   5.566   5.635
    1AU     AUL  328   4.737   5.402   5.781
    1AU       S  329   4.951   5.389   5.369
    1AU     LIG  330   4.487   5.247   5.374
    1AU     LIG  331   4.220   4.919   5.132
    1AU     LIG  332   4.006   4.631   4.790
    1AU     LIG  333   3.803   4.327   4.463
    1AU     LIG  334   3.484   4.135   4.152
    1AU       S  335   4.539   5.387   6.214
    1AU     LIG  336   4.289   5.102   5.923
    1AU     LIG  337   3.840   4.900   5.880
    1AU     LIG  338   3.366   4.814   5.990
    1AU     LIG  339   3.040   4.593   6.274
    1AU     LIG  340   2.615   4.380   6.382
    1AU    AUSL  341   5.050   5.723   6.258
    1AU    AUSL  342   5.307   5.332   6.332
    1AU     AUL  343   4.956   5.317   6.412
    1AU       S  344   5.029   5.113   6.821
    1AU     LIG  345   4.857   4.806   6.536
    1AU     LIG  346   4.503   4.505   6.629
    1AU     LIG  347   4.188   4.245   6.907
    1AU     LIG  348   3.872   4.008   7.201
    1AU     LIG  349   3.531   3.655   7.261
    1AU       S  350   4.626   5.642   6.362
    1AU     LIG  351   4.096   5.691   6.240
    1AU     LIG  352   3.692   5.587   6.011
    1AU     LIG  353   3.334   5.322   6.053
    1AU     LIG  354   2.963   5.102   6.220
    1AU     LIG  355   2.641   4.899   6.459
    1AU    AUSL  356   5.795   6.559   6.392
    1AU    AUSL  357   5.360   6.586   6.315
    1AU     AUL  358   5.593   6.632   6.684
    1AU       S  359   5.230   6.781   6.427
    1AU     LIG  360   5.082   7.079   6.762
    1AU     LIG  361   4.939   7.303   7.162
    1AU     LIG  362   4.741   7.667   7.399
    1AU     LIG  363   4.451   8.059   7.431
    1AU     LIG  364   4.095   8.390   7.494
    1AU       S  365   5.790   6.972   6.439
    1AU     LIG  366   5.874   7.108   6.835
    1AU     LIG  367   5.938   7.555   6.980
    1AU     LIG  368   5.926   7.867   7.347
    1AU     LIG  369   6.011   8.110   7.765
    1AU     LIG  370   5.985   8.505   8.036
    1AU    AUSL  371   5.632   6.780   6.037
    1AU    AUSL  372   5.927   6.707   5.677
    1AU     AUL  373   5.860   7.046   5.820
    1AU       S  374   5.634   7.009   6.241
    1AU     LIG  375   5.647   7.446   6.502
    1AU     LIG  376   5.552   7.858   6.743
    1AU     LIG  377   5.435   8.314   6.847
    1AU     LIG  378   5.386   8.787   6.918
    1AU     LIG  379   5.375   9.239   6.796
    1AU       S  380   5.649   6.879   5.449
    1AU     LIG  381   6.003   7.202   5.360
    1AU     LIG  382   6.188   7.652   5.315
    1AU     LIG  383   6.484   8.044   5.265
    1AU     LIG  384   6.712   8.474   5.230
    1AU     LIG  385   6.661   8.932   5.136
    1AU    AUSL  386   6.087   6.701   6.089
    1AU    AUSL  387   6.040   6.404   6.708
    1AU     AUL  388   6.145   6.669   6.475
    1AU       S  389   6.280   6.491   6.916
    1AU     LIG  390   6.631   6.447   7.254
    1AU     LIG  391   6.931   6.710   7.496
    1AU     LIG  392   7.170   7.070   7.700
    1AU     LIG  393   7.230   7.426   8.010
    1AU     LIG  394   7.215   7.634   8.442
    1AU       S  395   5.992   7.054   6.267
    1AU     LIG  396   6.172   7.395   6.529
    1AU     LIG  397   6.381   7.790   6.698
    1AU     LIG  398   6.733   8.132   6.690
    1AU     LIG  399   6.883   8.581   6.744
    1AU     LIG  400   6.851   8.988   6.940
    1AU    AUSL  401   5.688   5.116   6.419
    1AU    AUSL  402   6.103   5.116   6.252
    1AU     AUL  403   5.915   4.987   6.637
    1AU       S  404   5.647   4.644   6.486
    1AU     LIG  405   5.527   4.488   6.862
    1AU     LIG  406   5.431   4.046   6.903
    1AU     LIG  407   5.507   3.589   6.957
    1AU     LIG  408   5.533   3.316   7.358
    1AU     LIG  409   5.537   3.257   7.849
    1AU       S  410   6.257   4.881   6.309
    1AU     LIG  411   6.276   4.443   6.541
    1AU     LIG  412   6.585   4.136   6.785
    1AU     LIG  413   6.917   3.877   7.028
    1AU     LIG  414   7.041   3.423   7.151
    1AU     LIG  415   7.362   3.091   7.336
    1AU    AUSL  416   5.367   4.961   6.135
    1AU    AUSL  417   5.472   5.268   6.753
    1AU     AUL  418   5.338   5.003   6.497
    1AU       S  419   5.471   4.583   6.345
    1AU     LIG  420   5.150   4.346   6.544
    1AU     LIG  421   5.117   3.880   6.536
    1AU     LIG  422   5.140   3.417   6.591
    1AU     LIG  423   4.932   2.985   6.616
    1AU     LIG  424   4.891   2.672   6.951
    1AU       S  425   5.266   5.143   6.947
    1AU     LIG  426   5.044   4.666   6.999
    1AU     LIG  427   4.616   4.483   7.130
    1AU     LIG  428   4.294   4.263   7.417
    1AU     LIG  429   4.137   4.079   7.828
    1AU     LIG  430   4.199   3.901   8.273
    1AU    AUSL  431   5.805   4.849   6.090
    1AU    AUSL  432   5.552   4.981   5.737
    1AU     AUL  433   5.436   4.719   5.903
    1AU       S  434   5.805   4.700   5.622
    1AU     LIG  435   5.545   4.309   5.583
    1AU     LIG  436   5.340   3.876   5.462
    1AU     LIG  437   5.138   3.429   5.428
    1AU     LIG  438   4.912   2.986   5.386
    1AU     LIG  439   4.770   2.611   5.106
    1AU       S  440   5.800   4.667   6.236
    1AU     LIG  441   5.821   4.207   6.250
    1AU     LIG  442   5.771   3.822   6.541
    1AU     LIG  443   6.032   3.446   6.728
    1AU     LIG  444   6.172   2.978   6.793
    1AU     LIG  445   6.135   2.476   6.748
    1AU    AUSL  446   5.770   6.431   5.351
    1AU    AUSL  447   6.204   6.391   5.753
    1AU     AUL  448   6.062   6.623   5.380
    1AU       S  449   5.664   6.831   5.225
    1AU     LIG  450   5.632   7.223   4.995
    1AU     LIG  451   5.885   7.590   4.889
    1AU     LIG  452   6.104   7.801   4.526
    1AU     LIG  453   6.104   8.074   4.151
    1AU     LIG  454   5.990   8.512   4.098
    1AU       S  455   6.442   6.632   5.641
    1AU     LIG  456   6.912   6.786   5.420
    1AU     LIG  457   7.158   6.898   5.001
    1AU     LIG  458   7.302   7.217   4.650
    1AU     LIG  459   7.500   7.682   4.606
    1AU     LIG  460   7.676   8.154   4.595
    1AU    AUSL  461   5.569   6.469   5.753
    1AU    AUSL  462   5.463   6.143   5.450
    1AU     AUL  463   5.421   6.448   5.308
    1AU       S  464   5.479   6.846   5.576
    1AU     LIG  465   5.518   7.361   5.474
    1AU     LIG  466   5.679   7.813   5.335
    1AU     LIG  467   5.458   8.258   5.262
    1AU     LIG  468   5.374   8.756   5.334
    1AU     LIG  469   5.373   9.266   5.291
    1AU       S  470   4.983   6.490   5.162
    1AU     LIG  471   5.044   6.529   4.723
    1AU     LIG  472   5.050   6.833   4.364
    1AU     LIG  473   4.956   7.080   3.970
    1AU     LIG  474   4.885   7.338   3.572
    1AU     LIG  475   4.601   7.703   3.456
    1AU    AUSL  476   5.773   5.111   5.372
    1AU    AUSL  477   5.154   5.133   5.733
    1AU     AUL  478   5.412   4.974   5.432
    1AU       S  479   4.972   5.086   5.534
    1AU     LIG  480   4.617   4.813   5.620
    1AU     LIG  481   4.337   4.498   5.401
    1AU     LIG  482   4.114   4.217   5.077
    1AU     LIG  483   3.793   3.955   4.835
    1AU     LIG  484   3.425   3.631   4.808
    1AU       S  485   5.819   4.709   5.401
    1AU     LIG  486   5.945   4.325   5.236
    1AU     LIG  487   5.727   3.953   5.108
    1AU     LIG  488   5.492   3.558   5.050
    1AU     LIG  489   5.480   3.220   4.720
    1AU     LIG  490   5.639   2.992   4.333
    1AU    AUSL  491   5.942   5.143   5.807
    1AU    AUSL  492   6.051   5.426   5.470
    1AU     AUL  493   6.094   5.078   5.415
    1AU       S  494   6.037   4.727   5.708
    1AU     LIG  495   6.059   4.263   5.736
    1AU     LIG  496   5.836   3.888   5.599
    1AU     LIG  497   5.943   3.519   5.316
    1AU     LIG  498   6.216   3.178   5.123
    1AU     LIG  499   6.540   2.826   5.202
    1AU       S  500   6.340   5.180   5.056
    1AU     LIG  501   6.184   4.738   5.020
    1AU     LIG  502   6.390   4.332   4.843
    1AU     LIG  503   6.683   4.119   4.505
    1AU     LIG  504   6.978   4.135   4.115
    1AU     LIG  505   7.136   3.945   3.710
    2POPC   NC3  506   1.986   8.077   8.278
    2POPC   PO4  507   2.480   8.395   8.229
    2POPC   GL1  508   2.337   8.267   7.781
    2POPC   GL2  509   2.172   7.924   7.749
    2POPC   C1A  510   2.257   8.218   7.307
    2POPC   D2A  511   2.172   8.411   6.883
    2POPC   C3A  512   2.218   8.290   6.428
    2POPC   C4A  513   2.390   8.452   6.011
    2POPC   C1B  514   1.826   7.897   7.403
    2POPC   C2B  515   1.681   7.763   6.988
    2POPC   C3B  516   1.731   7.839   6.559
    2POPC   C4B  517   1.700   8.173   6.262
    3POPC   NC3  518   1.921   2.708   8.270
    3POPC   PO4  519   1.589   3.264   8.020
    3POPC   GL1  520   1.795   2.996   7.689
    3POPC   GL2  521   2.113   2.973   7.837
    3POPC   C1A  522   1.733   2.763   7.254
    3POPC   D2A  523   1.804   2.571   6.813
    3POPC   C3A  524   1.650   2.867   6.495
    3POPC   C4A  525   1.749   3.005   6.086
    3POPC   C1B  526   2.246   2.813   7.399
    3POPC   C2B  527   2.401   2.797   6.998
    3POPC   C3B  528   2.317   2.641   6.636
    3POPC   C4B  529   2.140   2.818   6.342
    4POPC   NC3  530   8.090   9.772   8.006
    4POPC   PO4  531   8.259   9.156   8.169
    4POPC   GL1  532   8.400   9.351   7.785
    4POPC   GL2  533   8.106   9.520   7.568
    4POPC   C1A  534   8.513   9.297   7.351
    4POPC   D2A  535   8.249   9.503   7.033
    4POPC   C3A  536   8.375   9.622   6.628
    4POPC   C4A  537   8.395   9.398   6.198
    4POPC   C1B  538   7.844   9.794   7.291
    4POPC   C2B  539   7.689   9.909   6.864
    4POPC   C3B  540   7.645   9.778   6.465
    4POPC   C4B  541   8.012   9.713   6.284
    5POPC   NC3  542   1.947   0.543   7.956
    5POPC   PO4  543   1.552   0.018   8.071
    5POPC   GL1  544   1.639   0.116   7.632
    5POPC   GL2  545   1.950   0.306   7.524
    5POPC   C1A  546   1.730   0.047   7.182
    5POPC   D2A  547   1.913   0.345   6.897
    5POPC   C3A  548   1.898   0.180   6.496
    5POPC   C4A  549   1.717   0.198   6.102
    5POPC   C1B  550   1.918   0.703   7.274
    5POPC   C2B  551   1.818   0.847   6.821
    5POPC   C3B  552   1.993   0.693   6.387
    5POPC   C4B  553   1.922   0.598   5.907
    6POPC   NC3  554   7.280   9.276   8.111
    6POPC   PO4  555   7.584   9.886   8.065
    6POPC   GL1  556   7.572   9.569   7.735
    6POPC   GL2  557   7.221   9.605   7.682
    6POPC   C1A  558   7.623   9.327   7.347
    6POPC   D2A  559   7.766   9.403   6.893
    6POPC   C3A  560   7.606   9.285   6.456
    6POPC   C4A  561   7.747   9.389   5.994
    6POPC   C1B  562   7.338   9.725   7.266
    6POPC   C2B  563   7.217   9.692   6.885
    6POPC   C3B  564   7.169   9.532   6.490
    6POPC   C4B  565   7.279   9.662   6.090
    7POPC   NC3  566  10.911   0.395   8.029
    7POPC   PO4  567   0.098   0.686   8.115
    7POPC   GL1  568   0.134   0.515   7.719
    7POPC   GL2  569  11.296   0.458   7.642
    7POPC   C1A  570   0.140   0.651   7.304
    7POPC   D2A  571  11.295   0.635   7.029
    7POPC   C3A  572  11.437   0.512   6.634
    7POPC   C4A  573  11.252   0.533   6.240
    7POPC   C1B  574  10.931   0.387   7.363
    7POPC   C2B  575  10.816   0.482   6.943
    7POPC   C3B  576  10.903   0.304   6.542
    7POPC   C4B  577  10.644   0.109   6.203
    8POPC   NC3  578  10.586   7.275   8.108
    8POPC   PO4  579  10.599   7.945   8.113
    8POPC   GL1  580  10.664   7.647   7.741
    8POPC   GL2  581  10.363   7.434   7.690
    8POPC   C1A  582  10.693   7.520   7.276
    8POPC   D2A  583  10.675   7.699   6.849
    8POPC   C3A  584  10.455   7.472   6.509
    8POPC   C4A  585  10.616   7.456   6.102
    8POPC   C1B  586  10.203   7.301   7.313
    8POPC   C2B  587  10.298   7.185   6.902
    8POPC   C3B  588  10.098   7.046   6.557
    8POPC   C4B  589   9.964   7.373   6.290
    9POPC   NC3  590   1.954   8.927   7.979
    9POPC   PO4  591   1.838   8.308   7.913
    9POPC   GL1  592   1.964   8.567   7.581
    9POPC   GL2  593   2.298   8.766   7.624
    9POPC   C1A  594   1.772   8.388   7.206
    9POPC   D2A  595   1.701   8.295   6.778
    9POPC   C3A  596   1.818   8.617   6.462
    9POPC   C4A  597   1.837   8.663   6.016
    9POPC   C1B  598   2.162   8.833   7.173
    9POPC   C2B  599   2.200   8.887   6.708
    9POPC   C3B  600   2.156   8.968   6.266
    9POPC   C4B  601   1.940   9.290   6.013
   10POPC   NC3  602   9.400   1.766   7.988
   10POPC   PO4  603   8.720   1.936   8.028
   10POPC   GL1  604   8.834   1.908   7.617
   10POPC   GL2  605   9.013   2.243   7.656
   10POPC   C1A  606   8.920   1.743   7.191
   10POPC   D2A  607   9.207   1.972   6.908
   10POPC   C3A  608   9.294   1.947   6.474
   10POPC   C4A  609   9.025   2.022   6.111
   10POPC   C1B  610   8.941   2.261   7.227
   10POPC   C2B  611   8.723   2.093   6.870
   10POPC   C3B  612   8.653   1.949   6.469
   10POPC   C4B  613   8.555   2.207   6.082
   11POPC   NC3  614  11.269   5.951   8.073
   11POPC   PO4  615  10.678   6.318   8.069
   11POPC   GL1  616  10.942   6.154   7.701
   11POPC   GL2  617  11.028   5.775   7.675
   11POPC   C1A  618  11.056   6.033   7.250
   11POPC   D2A  619  11.338   5.812   6.929
   11POPC   C3A  620  11.168   5.830   6.504
   11POPC   C4A  621  11.059   6.248   6.322
   11POPC   C1B  622  11.259   5.543   7.371
   11POPC   C2B  623  11.452   5.317   7.032
   11POPC   C3B  624  11.464   5.404   6.590
   11POPC   C4B  625  11.240   5.408   6.172
   12POPC   NC3  626   0.408   0.262   8.085
   12POPC   PO4  627   0.851   0.772   7.955
   12POPC   GL1  628   0.642   0.562   7.678
   12POPC   GL2  629   0.778   0.264   7.619
   12POPC   C1A  630   0.667   0.686   7.266
   12POPC   D2A  631   0.467   0.565   6.881
   12POPC   C3A  632   0.617   0.750   6.510
   12POPC   C4A  633   0.778   0.682   6.080
   12POPC   C1B  634   0.454   0.218   7.298
   12POPC   C2B  635   0.258   0.090   6.888
   12POPC   C3B  636   0.391   0.229   6.473
   12POPC   C4B  637   0.259   0.567   6.210
   13POPC   NC3  638   2.949   2.888   8.141
   13POPC   PO4  639   2.380   2.738   8.242
   13POPC   GL1  640   2.587   2.805   7.787
   13POPC   GL2  641   2.808   2.573   7.681
   13POPC   C1A  642   2.736   2.955   7.344
   13POPC   D2A  643   2.728   3.205   6.955
   13POPC   C3A  644   2.718   2.980   6.593
   13POPC   C4A  645   2.893   2.659   6.372
   13POPC   C1B  646   2.635   2.436   7.293
   13POPC   C2B  647   2.751   2.443   6.853
   13POPC   C3B  648   2.597   2.254   6.480
   13POPC   C4B  649   2.476   2.464   6.129
   14POPC   NC3  650  11.290   8.733   8.028
   14POPC   PO4  651  10.676   8.925   7.926
   14POPC   GL1  652  10.927   8.682   7.622
   14POPC   GL2  653  11.246   8.806   7.533
   14POPC   C1A  654  10.896   8.714   7.171
   14POPC   D2A  655  11.204   8.710   6.835
   14POPC   C3A  656  10.981   8.840   6.489
   14POPC   C4A  657  10.888   8.754   6.072
   14POPC   C1B  658  11.427   9.040   7.208
   14POPC   C2B  659  11.263   9.243   6.826
   14POPC   C3B  660  11.468   9.089   6.509
   14POPC   C4B  661  11.369   8.834   6.149
   15POPC   NC3  662   8.579  11.387   8.041
   15POPC   PO4  663   9.073  10.949   8.256
   15POPC   GL1  664   8.903  11.032   7.771
   15POPC   GL2  665   9.014  11.243   7.493
   15POPC   C1A  666   8.726  10.870   7.327
   15POPC   D2A  667   8.841  11.106   6.904
   15POPC   C3A  668   8.937  10.911   6.457
   15POPC   C4A  669   8.938  10.924   5.986
   15POPC   C1B  670   8.574  11.362   7.301
   15POPC   C2B  671   8.497   0.001   6.864
   15POPC   C3B  672   8.732  11.442   6.483
   15POPC   C4B  673   9.168  11.382   6.373
   16POPC   NC3  674   7.004  11.230   7.847
   16POPC   PO4  675   6.837  10.657   8.117
   16POPC   GL1  676   6.685  10.845   7.701
   16POPC   GL2  677   6.680  11.154   7.483
   16POPC   C1A  678   6.839  10.730   7.271
   16POPC   D2A  679   6.778  11.016   6.898
   16POPC   C3A  680   6.735  10.836   6.462
   16POPC   C4A  681   6.503  11.052   6.094
   16POPC   C1B  682   6.402  11.331   7.196
   16POPC   C2B  683   6.295  11.197   6.782
   16POPC   C3B  684   6.622  11.339   6.520
   16POPC   C4B  685   6.519   0.076   6.208
   17POPC   NC3  686   0.532   8.071   8.130
   17POPC   PO4  687   0.033   7.673   7.880
   17POPC   GL1  688   0.214   8.012   7.667
   17POPC   GL2  689   0.560   8.112   7.630
   17POPC   C1A  690   0.194   8.092   7.235
   17POPC   D2A  691   0.439   8.082   6.884
   17POPC   C3A  692   0.196   8.047   6.514
   17POPC   C4A  693   0.176   8.203   6.106
   17POPC   C1B  694   0.719   8.412   7.341
   17POPC   C2B  695   0.748   8.510   6.903
   17POPC   C3B  696   0.865   8.196   6.614
   17POPC   C4B  697   0.676   7.983   6.293
   18POPC   NC3  698   4.097  11.077   8.151
   18POPC   PO4  699   4.652   0.071   8.077
   18POPC   GL1  700   4.390  11.452   7.735
   18POPC   GL2  701   4.385  11.100   7.707
   18POPC   C1A  702   4.322  11.409   7.265
   18POPC   D2A  703   4.281   0.054   6.820
   18POPC   C3A  704   4.208  11.304   6.435
   18POPC   C4A  705   4.210  11.379   5.967
   18POPC   C1B  706   4.423  10.918   7.304
   18POPC   C2B  707   4.344  11.030   6.876
   18POPC   C3B  708   4.555  10.874   6.501
   18POPC   C4B  709   4.424  10.924   6.099
   19POPC   NC3  710   5.817  11.136   7.994
   19POPC   PO4  711   6.512  11.198   8.018
   19POPC   GL1  712   6.218  11.064   7.674
   19POPC   GL2  713   6.084  11.398   7.619
   19POPC   C1A  714   6.078  10.943   7.220
   19POPC   D2A  715   5.786  10.756   6.942
   19POPC   C3A  716   5.790  10.859   6.503
   19POPC   C4A  717   6.000  11.092   6.184
   19POPC   C1B  718   5.759  11.336   7.313
   19POPC   C2B  719   5.743  11.248   6.885
   19POPC   C3B  720   5.662  11.351   6.488
   19POPC   C4B  721   5.469   0.129   6.259
   20POPC   NC3  722   6.382   1.010   8.156
   20POPC   PO4  723   6.193   1.616   7.987
   20POPC   GL1  724   6.422   1.337   7.689
   20POPC   GL2  725   6.550   1.008   7.685
   20POPC   C1A  726   6.542   1.372   7.256
   20POPC   D2A  727   6.525   1.621   6.880
   20POPC   C3A  728   6.429   1.409   6.501
   20POPC   C4A  729   6.329   1.383   6.060
   20POPC   C1B  730   6.768   0.907   7.332
   20POPC   C2B  731   6.672   0.998   6.915
   20POPC   C3B  732   6.867   0.961   6.545
   20POPC   C4B  733   6.781   1.154   6.187
   21POPC   NC3  734   0.387   6.303   8.152
   21POPC   PO4  735   0.596   7.002   8.049
   21POPC   GL1  736   0.288   6.812   7.733
   21POPC   GL2  737   0.429   6.482   7.666
   21POPC   C1A  738   0.116   6.737   7.289
   21POPC   D2A  739   0.236   6.543   6.898
   21POPC   C3A  740   0.058   6.745   6.561
   21POPC   C4A  741   0.218   6.886   6.164
   21POPC   C1B  742   0.605   6.615   7.265
   21POPC   C2B  743   0.736   6.421   6.849
   21POPC   C3B  744   0.553   6.555   6.439
   21POPC   C4B  745   0.527   6.453   5.988
   22POPC   NC3  746   2.383   6.224   8.169
   22POPC   PO4  747   2.228   6.832   8.098
   22POPC   GL1  748   1.894   6.830   7.810
   22POPC   GL2  749   1.866   6.489   7.721
   22POPC   C1A  750   1.876   6.947   7.394
   22POPC   D2A  751   1.905   6.759   6.974
   22POPC   C3A  752   2.077   6.951   6.601
   22POPC   C4A  753   2.216   6.748   6.200
   22POPC   C1B  754   2.047   6.276   7.331
   22POPC   C2B  755   1.900   6.251   6.887
   22POPC   C3B  756   1.898   6.458   6.483
   22POPC   C4B  757   1.788   6.349   6.053
   23POPC   NC3  758  11.101   7.716   8.042
   23POPC   PO4  759  10.918   8.425   8.115
   23POPC   GL1  760  10.956   8.156   7.745
   23POPC   GL2  761  11.283   8.295   7.690
   23POPC   C1A  762  11.108   7.884   7.365
   23POPC   D2A  763  11.172   7.612   6.980
   23POPC   C3A  764  11.092   7.822   6.555
   23POPC   C4A  765  11.060   7.958   6.127
   23POPC   C1B  766  11.256   8.365   7.249
   23POPC   C2B  767  11.309   8.200   6.831
   23POPC   C3B  768  11.260   8.364   6.395
   23POPC   C4B  769  11.240   8.375   5.928
   24POPC   NC3  770   0.119   4.262   8.283
   24POPC   PO4  771   0.745   4.439   8.249
   24POPC   GL1  772   0.436   4.287   7.867
   24POPC   GL2  773   0.299   4.547   7.664
   24POPC   C1A  774   0.351   4.107   7.401
   24POPC   D2A  775   0.473   4.180   6.940
   24POPC   C3A  776   0.302   4.009   6.545
   24POPC   C4A  777   0.377   4.078   6.082
   24POPC   C1B  778   0.549   4.563   7.279
   24POPC   C2B  779   0.607   4.654   6.819
   24POPC   C3B  780   0.414   4.515   6.426
   24POPC   C4B  781   0.081   4.509   6.111
   25POPC   NC3  782   1.146   1.130   8.071
   25POPC   PO4  783   1.522   1.629   8.068
   25POPC   GL1  784   1.234   1.519   7.712
   25POPC   GL2  785   1.218   1.158   7.586
   25POPC   C1A  786   1.248   1.551   7.248
   25POPC   D2A  787   1.019   1.445   6.854
   25POPC   C3A  788   1.220   1.568   6.495
   25POPC   C4A  789   1.361   1.445   6.112
   25POPC   C1B  790   1.138   1.011   7.183
   25POPC   C2B  791   1.176   0.952   6.767
   25POPC   C3B  792   1.071   1.056   6.373
   25POPC   C4B  793   1.190   0.991   5.960
   26POPC   NC3  794   1.235   9.616   8.074
   26POPC   PO4  795   1.732   9.297   7.810
   26POPC   GL1  796   1.585   9.686   7.556
   26POPC   GL2  797   1.278   9.837   7.638
   26POPC   C1A  798   1.406   9.763   7.148
   26POPC   D2A  799   1.215   9.427   6.954
   26POPC   C3A  800   1.309   9.382   6.542
   26POPC   C4A  801   1.235   9.534   6.168
   26POPC   C1B  802   0.949   9.712   7.386
   26POPC   C2B  803   0.920   9.858   6.979
   26POPC   C3B  804   1.111   9.844   6.601
   26POPC   C4B  805   0.861   9.851   6.236
   27POPC   NC3  806   5.284   2.572   8.225
   27POPC   PO4  807   5.462   1.981   8.074
   27POPC   GL1  808   5.365   1.741   7.679
   27POPC   GL2  809   5.734   1.707   7.550
   27POPC   C1A  810   5.294   1.878   7.230
   27POPC   D2A  811   5.599   2.038   6.917
   27POPC   C3A  812   5.483   2.096   6.475
   27POPC   C4A  813   5.723   2.148   6.085
   27POPC   C1B  814   5.648   1.529   7.157
   27POPC   C2B  815   5.525   1.574   6.713
   27POPC   C3B  816   5.848   1.740   6.432
   27POPC   C4B  817   6.136   1.833   6.106
   28POPC   NC3  818   7.661   0.271   7.943
   28POPC   PO4  819   7.142  11.436   8.245
   28POPC   GL1  820   7.099   0.225   7.801
   28POPC   GL2  821   7.237   0.579   7.814
   28POPC   C1A  822   7.184   0.136   7.302
   28POPC   D2A  823   6.951   0.009   6.925
   28POPC   C3A  824   7.132  11.499   6.507
   28POPC   C4A  825   7.012   0.159   6.082
   28POPC   C1B  826   7.243   0.641   7.363
   28POPC   C2B  827   7.408   0.481   6.966
   28POPC   C3B  828   7.462   0.389   6.524
   28POPC   C4B  829   7.288   0.590   6.143
   29POPC   NC3  830   7.991   8.786   8.155
   29POPC   PO4  831   8.550   8.590   8.145
   29POPC   GL1  832   8.330   8.813   7.752
   29POPC   GL2  833   7.993   9.038   7.723
   29POPC   C1A  834   8.019   8.630   7.408
   29POPC   D2A  835   7.874   8.776   6.966
   29POPC   C3A  836   8.130   8.653   6.609
   29POPC   C4A  837   8.003   8.548   6.200
   29POPC   C1B  838   8.062   9.105   7.295
   29POPC   C2B  839   8.354   8.972   6.995
   29POPC   C3B  840   8.364   9.104   6.606
   29POPC   C4B  841   8.018   9.065   6.303
   30POPC   NC3  842   6.323   9.573   8.172
   30POPC   PO4  843   6.833   9.179   8.093
   30POPC   GL1  844   6.710   9.548   7.768
   30POPC   GL2  845   6.409   9.800   7.711
   30POPC   C1A  846   6.809   9.673   7.312
   30POPC   D2A  847   6.748   9.517   6.875
   30POPC   C3A  848   6.723   9.772   6.483
   30POPC   C4A  849   6.787   9.449   6.146
   30POPC   C1B  850   6.267   9.709   7.323
   30POPC   C2B  851   6.348   9.826   6.939
   30POPC   C3B  852   6.200   9.691   6.561
   30POPC   C4B  853   6.138   9.835   6.183
   31POPC   NC3  854   2.325   5.382   8.239
   31POPC   PO4  855   3.036   5.321   8.175
   31POPC   GL1  856   2.701   5.499   7.850
   31POPC   GL2  857   2.574   5.846   7.842
   31POPC   C1A  858   2.655   5.534   7.357
   31POPC   D2A  859   2.823   5.411   6.912
   31POPC   C3A  860   2.669   5.474   6.472
   31POPC   C4A  861   2.907   5.589   6.082
   31POPC   C1B  862   2.615   6.033   7.406
   31POPC   C2B  863   2.733   5.922   6.956
   31POPC   C3B  864   2.683   5.992   6.483
   31POPC   C4B  865   2.289   6.165   6.284
   32POPC   NC3  866   8.068   2.037   8.199
   32POPC   PO4  867   7.811   1.578   7.810
   32POPC   GL1  868   8.086   1.803   7.561
   32POPC   GL2  869   8.318   2.016   7.750
   32POPC   C1A  870   8.433   1.629   7.317
   32POPC   D2A  871   8.500   1.551   6.858
   32POPC   C3A  872   8.066   1.614   6.657
   32POPC   C4A  873   7.792   1.587   6.273
   32POPC   C1B  874   8.439   2.140   7.353
   32POPC   C2B  875   8.243   1.979   6.985
   32POPC   C3B  876   8.150   2.135   6.590
   32POPC   C4B  877   8.204   1.877   6.233
   33POPC   NC3  878   4.674  10.700   7.924
   33POPC   PO4  879   4.288  10.215   8.278
   33POPC   GL1  880   4.459  10.242   7.770
   33POPC   GL2  881   4.267  10.467   7.499
   33POPC   C1A  882   4.697  10.314   7.340
   33POPC   D2A  883   4.600  10.575   6.961
   33POPC   C3A  884   4.710  10.373   6.555
   33POPC   C4A  885   4.734  10.517   6.136
   33POPC   C1B  886   4.112  10.113   7.277
   33POPC   C2B  887   3.936   9.958   6.878
   33POPC   C3B  888   3.918  10.140   6.439
   33POPC   C4B  889   4.256  10.420   6.302
   34POPC   NC3  890   7.370   8.221   8.040
   34POPC   PO4  891   6.788   8.276   7.950
   34POPC   GL1  892   7.114   8.489   7.658
   34POPC   GL2  893   7.469   8.436   7.590
   34POPC   C1A  894   7.117   8.457   7.203
   34POPC   D2A  895   7.253   8.205   6.826
   34POPC   C3A  896   7.132   8.317   6.395
   34POPC   C4A  897   6.785   8.152   6.152
   34POPC   C1B  898   7.629   8.363   7.174
   34POPC   C2B  899   7.744   8.328   6.737
   34POPC   C3B  900   7.627   8.222   6.324
   34POPC   C4B  901   7.689   8.297   5.876
   35POPC   NC3  902   0.959   6.772   7.874
   35POPC   PO4  903   0.933   6.140   8.108
   35POPC   GL1  904   0.986   6.310   7.670
   35POPC   GL2  905   1.340   6.442   7.697
   35POPC   C1A  906   1.087   6.531   7.247
   35POPC   D2A  907   0.985   6.861   6.918
   35POPC   C3A  908   1.069   6.658   6.490
   35POPC   C4A  909   1.033   6.508   6.055
   35POPC   C1B  910   1.579   6.472   7.288
   35POPC   C2B  911   1.446   6.584   6.865
   35POPC   C3B  912   1.564   6.842   6.558
   35POPC   C4B  913   1.484   6.757   6.145
   36POPC   NC3  914   3.250   5.728   8.128
   36POPC   PO4  915   3.035   6.294   8.300
   36POPC   GL1  916   3.019   6.158   7.780
   36POPC   GL2  917   3.048   5.818   7.640
   36POPC   C1A  918   3.104   6.171   7.249
   36POPC   D2A  919   3.212   5.974   6.786
   36POPC   C3A  920   3.166   6.220   6.353
   36POPC   C4A  921   3.313   6.402   5.929
   36POPC   C1B  922   3.157   5.665   7.221
   36POPC   C2B  923   3.543   5.607   6.965
   36POPC   C3B  924   3.662   5.689   6.548
   36POPC   C4B  925   3.305   5.738   6.340
   37POPC   NC3  926   8.338   0.616   8.027
   37POPC   PO4  927   8.113   0.022   8.023
   37POPC   GL1  928   8.338   0.220   7.667
   37POPC   GL2  929   8.059   0.474   7.605
   37POPC   C1A  930   8.382   0.378   7.210
   37POPC   D2A  931   8.069   0.318   6.833
   37POPC   C3A  932   8.222   0.374   6.401
   37POPC   C4A  933   8.299   0.064   6.010
   37POPC   C1B  934   7.836   0.661   7.229
   37POPC   C2B  935   7.794   0.752   6.771
   37POPC   C3B  936   7.817   0.680   6.292
   37POPC   C4B  937   7.703   0.684   5.838
   38POPC   NC3  938   1.529   2.597   7.912
   38POPC   PO4  939   0.979   2.919   8.075
   38POPC   GL1  940   1.018   2.713   7.713
   38POPC   GL2  941   1.282   2.955   7.650
   38POPC   C1A  942   1.179   2.543   7.310
   38POPC   D2A  943   1.302   2.671   6.901
   38POPC   C3A  944   1.370   2.458   6.507
   38POPC   C4A  945   1.373   2.637   6.092
   38POPC   C1B  946   1.010   3.103   7.347
   38POPC   C2B  947   0.881   2.974   6.964
   38POPC   C3B  948   1.069   3.026   6.592
   38POPC   C4B  949   0.885   2.906   6.214
   39POPC   NC3  950   0.557   2.709   8.119
   39POPC   PO4  951   0.733   2.110   7.971
   39POPC   GL1  952   0.544   2.435   7.693
   39POPC   GL2  953   0.258   2.681   7.694
   39POPC   C1A  954   0.660   2.669   7.338
   39POPC   D2A  955   0.785   2.430   6.990
   39POPC   C3A  956   0.890   2.559   6.595
   39POPC   C4A  957   0.897   2.401   6.150
   39POPC   C1B  958   0.148   2.753   7.248
   39POPC   C2B  959   0.389   2.747   6.869
   39POPC   C3B  960   0.441   2.744   6.431
   39POPC   C4B  961   0.116   2.753   6.125
   40POPC   NC3  962   5.013   1.836   8.098
   40POPC   PO4  963   4.757   2.505   8.163
   40POPC   GL1  964   4.880   2.262   7.767
   40POPC   GL2  965   4.760   1.948   7.673
   40POPC   C1A  966   4.882   2.218   7.269
   40POPC   D2A  967   5.120   2.226   6.847
   40POPC   C3A  968   5.010   2.310   6.393
   40POPC   C4A  969   5.276   2.426   6.028
   40POPC   C1B  970   4.860   1.639   7.355
   40POPC   C2B  971   4.834   1.821   6.927
   40POPC   C3B  972   5.039   1.817   6.533
   40POPC   C4B  973   4.847   1.700   6.151
   41POPC   NC3  974   8.827  10.603   8.032
   41POPC   PO4  975   8.309  10.155   8.181
   41POPC   GL1  976   8.441  10.431   7.771
   41POPC   GL2  977   8.751  10.340   7.602
   41POPC   C1A  978   8.376  10.464   7.280
   41POPC   D2A  979   8.538  10.244   6.865
   41POPC   C3A  980   8.580  10.524   6.472
   41POPC   C4A  981   8.492  10.650   6.001
   41POPC   C1B  982   8.905  10.187   7.229
   41POPC   C2B  983   9.041  10.307   6.804
   41POPC   C3B  984   8.915  10.160   6.404
   41POPC   C4B  985   8.952  10.429   6.096
   42POPC   NC3  986   7.486   2.217   8.026
   42POPC   PO4  987   7.777   1.703   8.327
   42POPC   GL1  988   7.368   1.737   7.863
   42POPC   GL2  989   7.554   1.969   7.601
   42POPC   C1A  990   7.419   1.614   7.304
   42POPC   D2A  991   7.732   1.863   6.974
   42POPC   C3A  992   7.660   2.009   6.493
   42POPC   C4A  993   7.357   1.856   6.159
   42POPC   C1B  994   7.333   2.104   7.221
   42POPC   C2B  995   7.256   1.955   6.800
   42POPC   C3B  996   7.174   2.231   6.449
   42POPC   C4B  997   6.949   2.143   6.052
   43POPC   NC3  998   7.546   1.222   7.949
   43POPC   PO4  999   6.850   1.251   8.057
   43POPC   GL1 1000   6.950   1.373   7.639
   43POPC   GL2 1001   7.173   1.092   7.628
   43POPC   C1A 1002   7.034   1.314   7.187
   43POPC   D2A 1003   6.973   1.420   6.770
   43POPC   C3A 1004   7.246   1.423   6.426
   43POPC   C4A 1005   7.169   1.428   5.974
   43POPC   C1B 1006   7.477   1.081   7.285
   43POPC   C2B 1007   7.272   0.966   6.906
   43POPC   C3B 1008   7.383   0.922   6.510
   43POPC   C4B 1009   7.494   1.070   6.121
   44POPC   NC3 1010   1.982   9.688   7.865
   44POPC   PO4 1011   2.380   9.139   8.035
   44POPC   GL1 1012   2.349   9.382   7.668
   44POPC   GL2 1013   2.106   9.225   7.484
   44POPC   C1A 1014   2.352   9.609   7.241
   44POPC   D2A 1015   2.333   9.358   6.863
   44POPC   C3A 1016   2.126   9.447   6.481
   44POPC   C4A 1017   2.138   9.759   6.163
   44POPC   C1B 1018   1.870   9.280   7.093
   44POPC   C2B 1019   1.725   9.590   6.787
   44POPC   C3B 1020   1.673   9.701   6.368
   44POPC   C4B 1021   1.690   9.911   5.995
   45POPC   NC3 1022  11.053   3.481   8.019
   45POPC   PO4 1023   0.085   3.217   7.741
   45POPC   GL1 1024  11.178   3.444   7.539
   45POPC   GL2 1025  11.077   3.830   7.666
   45POPC   C1A 1026  10.866   3.671   7.239
   45POPC   D2A 1027  10.761   3.516   6.849
   45POPC   C3A 1028  11.064   3.227   6.679
   45POPC   C4A 1029  11.056   3.187   6.235
   45POPC   C1B 1030  11.381   3.861   7.337
   45POPC   C2B 1031  11.285   3.694   6.929
   45POPC   C3B 1032  11.131   3.715   6.509
   45POPC   C4B 1033  11.475   3.523   6.281
   46POPC   NC3 1034   8.811   8.225   8.045
   46POPC   PO4 1035   8.464   7.761   7.808
   46POPC   GL1 1036   8.844   7.916   7.600
   46POPC   GL2 1037   8.883   8.278   7.542
   46POPC   C1A 1038   9.017   7.841   7.183
   46POPC   D2A 1039   9.057   7.984   6.739
   46POPC   C3A 1040   8.946   7.793   6.329
   46POPC   C4A 1041   8.666   7.763   5.932
   46POPC   C1B 1042   8.845   8.364   7.099
   46POPC   C2B 1043   9.162   8.482   6.794
   46POPC   C3B 1044   9.113   8.342   6.368
   46POPC   C4B 1045   8.949   8.174   5.987
   47POPC   NC3 1046   1.400   8.264   8.039
   47POPC   PO4 1047   0.953   7.863   8.053
   47POPC   GL1 1048   1.069   8.024   7.665
   47POPC   GL2 1049   0.947   7.724   7.536
   47POPC   C1A 1050   1.261   8.241   7.296
   47POPC   D2A 1051   1.273   8.541   6.951
   47POPC   C3A 1052   1.310   8.437   6.492
   47POPC   C4A 1053   1.069   8.332   6.109
   47POPC   C1B 1054   1.198   7.722   7.172
   47POPC   C2B 1055   1.281   8.010   6.819
   47POPC   C3B 1056   1.251   7.941   6.373
   47POPC   C4B 1057   1.493   7.730   6.096
   48POPC   NC3 1058   0.638  10.418   8.026
   48POPC   PO4 1059   0.109  10.057   8.192
   48POPC   GL1 1060   0.275  10.144   7.747
   48POPC   GL2 1061   0.331  10.508   7.642
   48POPC   C1A 1062   0.608  10.131   7.387
   48POPC   D2A 1063   0.459  10.052   6.957
   48POPC   C3A 1064   0.720  10.195   6.621
   48POPC   C4A 1065   0.724  10.382   6.223
   48POPC   C1B 1066   0.197  10.408   7.245
   48POPC   C2B 1067   0.348  10.537   6.860
   48POPC   C3B 1068   0.280  10.448   6.449
   48POPC   C4B 1069   0.235  10.778   6.178
   49POPC   NC3 1070   1.143   3.341   8.109
   49POPC   PO4 1071   0.754   3.880   7.915
   49POPC   GL1 1072   1.143   3.805   7.664
   49POPC   GL2 1073   1.309   3.487   7.654
   49POPC   C1A 1074   1.267   3.727   7.214
   49POPC   D2A 1075   1.092   3.473   6.873
   49POPC   C3A 1076   1.109   3.702   6.459
   49POPC   C4A 1077   1.131   3.621   6.011
   49POPC   C1B 1078   1.514   3.272   7.328
   49POPC   C2B 1079   1.482   3.136   6.929
   49POPC   C3B 1080   1.471   3.342   6.544
   49POPC   C4B 1081   1.300   3.187   6.177
   50POPC   NC3 1082   1.879   7.087   8.244
   50POPC   PO4 1083   1.270   7.015   8.095
   50POPC   GL1 1084   1.393   6.982   7.671
   50POPC   GL2 1085   1.251   7.332   7.684
   50POPC   C1A 1086   1.404   6.957   7.215
   50POPC   D2A 1087   1.323   7.279   6.918
   50POPC   C3A 1088   1.167   7.161   6.527
   50POPC   C4A 1089   1.381   7.253   6.171
   50POPC   C1B 1090   1.000   7.231   7.353
   50POPC   C2B 1091   0.808   7.385   6.995
   50POPC   C3B 1092   0.991   7.617   6.666
   50POPC   C4B 1093   0.966   7.533   6.228
   51POPC   NC3 1094   3.535   9.492   8.309
   51POPC   PO4 1095   3.318  10.116   8.138
   51POPC   GL1 1096   3.604   9.966   7.805
   51POPC   GL2 1097   3.559   9.592   7.768
   51POPC   C1A 1098   3.607   9.956   7.351
   51POPC   D2A 1099   3.279   9.837   7.056
   51POPC   C3A 1100   3.477   9.806   6.678
   51POPC   C4A 1101   3.463   9.956   6.289
   51POPC   C1B 1102   3.522   9.449   7.328
   51POPC   C2B 1103   3.346   9.350   6.902
   51POPC   C3B 1104   3.504   9.352   6.450
   51POPC   C4B 1105   3.797   9.296   6.094
   52POPC   NC3 1106   8.960   3.304   8.231
   52POPC   PO4 1107   9.137   3.872   8.116
   52POPC   GL1 1108   9.225   3.597   7.737
   52POPC   GL2 1109   8.999   3.290   7.723
   52POPC   C1A 1110   9.098   3.615   7.283
   52POPC   D2A 1111   8.834   3.557   6.901
   52POPC   C3A 1112   8.967   3.639   6.467
   52POPC   C4A 1113   8.849   3.836   6.073
   52POPC   C1B 1114   8.856   3.152   7.316
   52POPC   C2B 1115   9.042   3.097   6.918
   52POPC   C3B 1116   8.776   3.143   6.575
   52POPC   C4B 1117   8.649   3.347   6.168
   53POPC   NC3 1118   1.709   5.297   7.983
   53POPC   PO4 1119   2.166   5.813   8.177
   53POPC   GL1 1120   2.121   5.587   7.762
   53POPC   GL2 1121   1.768   5.684   7.649
   53POPC   C1A 1122   2.131   5.721   7.293
   53POPC   D2A 1123   1.903   5.732   6.882
   53POPC   C3A 1124   2.154   5.696   6.491
   53POPC   C4A 1125   2.010   5.481   6.099
   53POPC   C1B 1126   1.631   5.950   7.287
   53POPC   C2B 1127   1.406   6.085   6.910
   53POPC   C3B 1128   1.462   6.193   6.489
   53POPC   C4B 1129   1.732   5.893   6.276
   54POPC   NC3 1130  10.932   9.666   8.047
   54POPC   PO4 1131   0.005   9.227   8.099
   54POPC   GL1 1132  11.469   9.391   7.662
   54POPC   GL2 1133  11.327   9.713   7.699
   54POPC   C1A 1134  11.299   9.548   7.226
   54POPC   D2A 1135  11.290   9.830   6.846
   54POPC   C3A 1136  11.442   9.620   6.482
   54POPC   C4A 1137  11.471   9.643   6.054
   54POPC   C1B 1138  10.904   9.805   7.411
   54POPC   C2B 1139  10.823   9.649   6.963
   54POPC   C3B 1140  10.920   9.587   6.510
   54POPC   C4B 1141  11.110   9.289   6.231
   55POPC   NC3 1142  10.771   5.083   8.066
   55POPC   PO4 1143  10.170   5.444   8.131
   55POPC   GL1 1144  10.234   5.275   7.712
   55POPC   GL2 1145  10.438   4.976   7.678
   55POPC   C1A 1146  10.376   5.386   7.294
   55POPC   D2A 1147  10.487   5.252   6.873
   55POPC   C3A 1148  10.187   5.261   6.548
   55POPC   C4A 1149  10.194   4.927   6.251
   55POPC   C1B 1150  10.610   4.858   7.276
   55POPC   C2B 1151  10.633   4.763   6.845
   55POPC   C3B 1152  10.676   4.878   6.415
   55POPC   C4B 1153  10.567   4.683   6.005
   56POPC   NC3 1154   5.909   0.471   8.149
   56POPC   PO4 1155   5.268   0.301   8.306
   56POPC   GL1 1156   5.437   0.485   7.818
   56POPC   GL2 1157   5.682   0.731   7.756
   56POPC   C1A 1158   5.747   0.386   7.400
   56POPC   D2A 1159   5.699   0.255   6.941
   56POPC   C3A 1160   6.027   0.204   6.606
   56POPC   C4A 1161   5.980   0.111   6.158
   56POPC   C1B 1162   6.094   0.779   7.511
   56POPC   C2B 1163   6.149   0.842   7.048
   56POPC   C3B 1164   5.871   0.722   6.693
   56POPC   C4B 1165   5.779   0.560   6.292
   57POPC   NC3 1166   9.535  10.914   8.204
   57POPC   PO4 1167   9.191  10.583   7.723
   57POPC   GL1 1168   9.451  10.989   7.656
   57POPC   GL2 1169   9.498  11.375   7.685
   57POPC   C1A 1170   9.471  11.130   7.215
   57POPC   D2A 1171   9.722  10.990   6.851
   57POPC   C3A 1172   9.522  10.975   6.434
   57POPC   C4A 1173   9.764  11.024   6.043
   57POPC   C1B 1174   9.772   0.018   7.339
   57POPC   C2B 1175   9.669   0.007   6.862
   57POPC   C3B 1176   9.695  11.450   6.401
   57POPC   C4B 1177   9.767   0.017   5.959
   58POPC   NC3 1178  10.497   8.336   8.344
   58POPC   PO4 1179   9.938   8.483   7.924
   58POPC   GL1 1180  10.118   8.327   7.597
   58POPC   GL2 1181  10.272   8.006   7.687
   58POPC   C1A 1182  10.208   8.246   7.181
   58POPC   D2A 1183  10.349   8.085   6.810
   58POPC   C3A 1184  10.273   8.316   6.470
   58POPC   C4A 1185  10.280   8.181   6.046
   58POPC   C1B 1186  10.614   8.020   7.376
   58POPC   C2B 1187  10.814   8.217   7.023
   58POPC   C3B 1188  10.789   8.263   6.580
   58POPC   C4B 1189  10.599   7.926   6.338
   59POPC   NC3 1190   4.668   1.267   8.002
   59POPC   PO4 1191   4.137   0.804   8.076
   59POPC   GL1 1192   4.010   1.070   7.738
   59POPC   GL2 1193   4.352   1.046   7.645
   59POPC   C1A 1194   3.894   0.950   7.314
   59POPC   D2A 1195   4.136   0.955   6.937
   59POPC   C3A 1196   3.986   0.939   6.552
   59POPC   C4A 1197   4.274   1.169   6.391
   59POPC   C1B 1198   4.284   1.300   7.290
   59POPC   C2B 1199   4.523   1.429   6.952
   59POPC   C3B 1200   4.568   1.539   6.546
   59POPC   C4B 1201   4.166   1.675   6.357
   60POPC   NC3 1202   1.349   4.844   8.198
   60POPC   PO4 1203   2.042   5.023   8.156
   60POPC   GL1 1204   2.031   4.939   7.716
   60POPC   GL2 1205   1.875   5.190   7.526
   60POPC   C1A 1206   1.997   4.748   7.306
   60POPC   D2A 1207   1.897   5.039   6.966
   60POPC   C3A 1208   1.852   4.818   6.578
   60POPC   C4A 1209   1.820   5.014   6.185
   60POPC   C1B 1210   2.246   5.224   7.314
   60POPC   C2B 1211   2.304   5.373   6.885
   60POPC   C3B 1212   2.226   5.190   6.463
   60POPC   C4B 1213   2.464   5.204   6.056
   61POPC   NC3 1214   9.799   5.155   8.228
   61POPC   PO4 1215   9.754   4.490   8.033
   61POPC   GL1 1216   9.934   4.835   7.751
   61POPC   GL2 1217   9.732   5.151   7.724
   61POPC   C1A 1218  10.049   4.987   7.309
   61POPC   D2A 1219  10.119   4.860   6.863
   61POPC   C3A 1220   9.784   4.941   6.524
   61POPC   C4A 1221   9.624   4.784   6.137
   61POPC   C1B 1222   9.547   5.088   7.316
   61POPC   C2B 1223   9.541   5.213   6.868
   61POPC   C3B 1224   9.353   5.223   6.442
   61POPC   C4B 1225   9.397   5.217   5.998
   62POPC   NC3 1226  11.347  11.085   7.929
   62POPC   PO4 1227  10.812  11.449   8.109
   62POPC   GL1 1228  11.093  11.499   7.757
   62POPC   GL2 1229  10.839  11.397   7.550
   62POPC   C1A 1230  11.311   0.034   7.352
   62POPC   D2A 1231  11.057   0.031   6.978
   62POPC   C3A 1232  11.306  11.490   6.617
   62POPC   C4A 1233  11.206   0.025   6.194
   62POPC   C1B 1234  11.024  11.103   7.291
   62POPC   C2B 1235  11.137  11.029   6.871
   62POPC   C3B 1236  11.228  10.994   6.442
   62POPC   C4B 1237  10.976  10.763   6.117
   63POPC   NC3 1238  10.203   3.379   8.237
   63POPC   PO4 1239  10.678   3.309   7.774
   63POPC   GL1 1240  10.299   3.299   7.581
   63POPC   GL2 1241  10.206   3.607   7.763
   63POPC   C1A 1242  10.328   3.307   7.118
   63POPC   D2A 1243  10.268   3.381   6.664
   63POPC   C3A 1244  10.626   3.500   6.356
   63POPC   C4A 1245  10.637   3.335   5.929
   63POPC   C1B 1246  10.160   3.772   7.353
   63POPC   C2B 1247  10.337   3.793   6.941
   63POPC   C3B 1248  10.183   3.896   6.547
   63POPC   C4B 1249  10.233   3.720   6.130
   64POPC   NC3 1250   6.713   0.068   8.217
   64POPC   PO4 1251   6.356   0.554   8.236
   64POPC   GL1 1252   6.306   0.371   7.782
   64POPC   GL2 1253   6.566   0.108   7.703
   64POPC   C1A 1254   6.261   0.324   7.298
   64POPC   D2A 1255   6.480   0.257   6.878
   64POPC   C3A 1256   6.405   0.591   6.561
   64POPC   C4A 1257   6.273   0.519   6.140
   64POPC   C1B 1258   6.762   0.398   7.406
   64POPC   C2B 1259   6.904   0.537   6.977
   64POPC   C3B 1260   6.910   0.450   6.527
   64POPC   C4B 1261   6.775   0.642   6.129
   65POPC   NC3 1262   4.720  10.330   8.446
   65POPC   PO4 1263   4.943  10.966   8.199
   65POPC   GL1 1264   5.148  10.741   7.761
   65POPC   GL2 1265   4.903  10.795   7.454
   65POPC   C1A 1266   5.201  10.411   7.406
   65POPC   D2A 1267   5.086  10.460   6.936
   65POPC   C3A 1268   5.158  10.127   6.613
   65POPC   C4A 1269   5.047  10.117   6.161
   65POPC   C1B 1270   5.306  10.869   7.207
   65POPC   C2B 1271   5.329  10.906   6.752
   65POPC   C3B 1272   5.159  10.655   6.399
   65POPC   C4B 1273   5.220  10.571   5.928
   66POPC   NC3 1274  11.496   5.437   8.119
   66POPC   PO4 1275   0.016   4.701   8.110
   66POPC   GL1 1276  11.191   4.838   7.854
   66POPC   GL2 1277  11.175   5.207   7.772
   66POPC   C1A 1278  11.111   4.816   7.420
   66POPC   D2A 1279  11.098   4.613   7.021
   66POPC   C3A 1280  11.146   4.864   6.662
   66POPC   C4A 1281  11.152   4.749   6.253
   66POPC   C1B 1282  10.850   5.273   7.452
   66POPC   C2B 1283  10.962   5.157   7.034
   66POPC   C3B 1284  10.938   5.345   6.616
   66POPC   C4B 1285  10.617   5.382   6.305
   67POPC   NC3 1286   7.877  10.290   8.062
   67POPC   PO4 1287   8.354   9.959   7.677
   67POPC   GL1 1288   7.999  10.263   7.572
   67POPC   GL2 1289   7.996  10.662   7.738
   67POPC   C1A 1290   7.813  10.298   7.161
   67POPC   D2A 1291   8.071  10.432   6.809
   67POPC   C3A 1292   8.190  10.159   6.482
   67POPC   C4A 1293   7.802  10.238   6.333
   67POPC   C1B 1294   7.824  10.740   7.368
   67POPC   C2B 1295   7.704  10.776   6.922
   67POPC   C3B 1296   7.944  10.899   6.612
   67POPC   C4B 1297   8.121  10.663   6.330
   68POPC   NC3 1298   4.551   2.851   8.463
   68POPC   PO4 1299   3.995   2.613   8.101
   68POPC   GL1 1300   4.187   2.667   7.688
   68POPC   GL2 1301   3.994   2.965   7.627
   68POPC   C1A 1302   4.494   2.607   7.307
   68POPC   D2A 1303   4.523   2.330   6.921
   68POPC   C3A 1304   4.585   2.560   6.530
   68POPC   C4A 1305   4.474   2.447   6.105
   68POPC   C1B 1306   3.989   2.755   7.215
   68POPC   C2B 1307   4.179   2.773   6.785
   68POPC   C3B 1308   4.157   2.798   6.316
   68POPC   C4B 1309   4.426   2.953   5.975
   69POPC   NC3 1310   1.383   6.219   8.188
   69POPC   PO4 1311   1.226   5.575   7.983
   69POPC   GL1 1312   1.255   5.875   7.666
   69POPC   GL2 1313   1.298   5.599   7.458
   69POPC   C1A 1314   1.050   6.004   7.249
   69POPC   D2A 1315   0.900   5.878   6.802
   69POPC   C3A 1316   0.946   6.135   6.413
   69POPC   C4A 1317   0.826   6.051   5.961
   69POPC   C1B 1318   1.587   5.433   7.184
   69POPC   C2B 1319   1.385   5.575   6.820
   69POPC   C3B 1320   1.260   5.707   6.418
   69POPC   C4B 1321   1.509   5.421   6.211
   70POPC   NC3 1322   3.550   0.166   8.196
   70POPC   PO4 1323   3.612  10.949   8.219
   70POPC   GL1 1324   3.681  11.007   7.791
   70POPC   GL2 1325   3.550  11.365   7.753
   70POPC   C1A 1326   3.919  11.075   7.409
   70POPC   D2A 1327   3.865  11.306   7.008
   70POPC   C3A 1328   3.754  11.104   6.605
   70POPC   C4A 1329   3.752  11.218   6.152
   70POPC   C1B 1330   3.382  11.236   7.343
   70POPC   C2B 1331   3.204  11.288   6.914
   70POPC   C3B 1332   3.309  11.323   6.455
   70POPC   C4B 1333   3.345  10.897   6.271
   71POPC   NC3 1334  11.128   4.453   8.245
   71POPC   PO4 1335  11.430   3.904   8.028
   71POPC   GL1 1336  11.375   4.286   7.791
   71POPC   GL2 1337  11.032   4.361   7.733
   71POPC   C1A 1338  11.443   4.419   7.353
   71POPC   D2A 1339  11.473   4.208   6.968
   71POPC   C3A 1340  11.388   4.329   6.550
   71POPC   C4A 1341  11.384   4.033   6.191
   71POPC   C1B 1342  11.002   4.197   7.327
   71POPC   C2B 1343  10.982   4.111   6.901
   71POPC   C3B 1344  10.896   4.419   6.566
   71POPC   C4B 1345  10.952   4.289   6.158
   72POPC   NC3 1346   9.363   4.266   8.092
   72POPC   PO4 1347   9.996   3.877   8.172
   72POPC   GL1 1348   9.824   3.953   7.747
   72POPC   GL2 1349   9.979   4.207   7.561
   72POPC   C1A 1350   9.596   3.821   7.360
   72POPC   D2A 1351   9.343   3.920   6.956
   72POPC   C3A 1352   9.432   3.886   6.508
   72POPC   C4A 1353   9.780   4.043   6.280
   72POPC   C1B 1354   9.740   4.555   7.359
   72POPC   C2B 1355   9.643   4.687   6.947
   72POPC   C3B 1356   9.614   4.457   6.552
   72POPC   C4B 1357   9.331   4.340   6.231
   73POPC   NC3 1358   2.664   7.999   8.063
   73POPC   PO4 1359   2.129   7.492   8.280
   73POPC   GL1 1360   2.066   7.412   7.850
   73POPC   GL2 1361   1.755   7.330   7.786
   73POPC   C1A 1362   2.112   7.471   7.394
   73POPC   D2A 1363   2.177   7.747   7.034
   73POPC   C3A 1364   2.168   7.542   6.624
   73POPC   C4A 1365   2.006   7.625   6.177
   73POPC   C1B 1366   1.619   7.398   7.350
   73POPC   C2B 1367   1.837   7.278   6.970
   73POPC   C3B 1368   1.714   7.328   6.546
   73POPC   C4B 1369   1.855   7.120   6.168
   74POPC   NC3 1370  10.632   1.291   8.353
   74POPC   PO4 1371  10.188   0.848   8.017
   74POPC   GL1 1372  10.365   1.095   7.699
   74POPC   GL2 1373  10.270   1.414   7.705
   74POPC   C1A 1374  10.354   1.086   7.285
   74POPC   D2A 1375  10.002   0.969   7.043
   74POPC   C3A 1376  10.106   1.026   6.617
   74POPC   C4A 1377  10.518   1.070   6.375
   74POPC   C1B 1378  10.134   1.538   7.278
   74POPC   C2B 1379  10.320   1.405   6.884
   74POPC   C3B 1380  10.252   1.504   6.457
   74POPC   C4B 1381  10.387   1.451   5.998
   75POPC   NC3 1382   0.543   4.780   8.022
   75POPC   PO4 1383   0.451   5.486   7.929
   75POPC   GL1 1384   0.512   5.139   7.660
   75POPC   GL2 1385   0.167   5.037   7.718
   75POPC   C1A 1386   0.621   5.066   7.232
   75POPC   D2A 1387   0.389   5.127   6.844
   75POPC   C3A 1388   0.589   5.059   6.474
   75POPC   C4A 1389   0.865   4.769   6.355
   75POPC   C1B 1390   0.131   4.887   7.278
   75POPC   C2B 1391   0.098   4.706   6.848
   75POPC   C3B 1392   0.103   4.935   6.424
   75POPC   C4B 1393   0.266   5.330   6.180
   76POPC   NC3 1394   0.933   7.382   8.106
   76POPC   PO4 1395   0.421   7.694   8.371
   76POPC   GL1 1396   0.540   7.632   7.860
   76POPC   GL2 1397   0.417   7.335   7.703
   76POPC   C1A 1398   0.487   7.678   7.363
   76POPC   D2A 1399   0.293   7.515   7.019
   76POPC   C3A 1400   0.494   7.633   6.647
   76POPC   C4A 1401   0.456   7.510   6.249
   76POPC   C1B 1402   0.510   7.115   7.358
   76POPC   C2B 1403   0.441   7.004   6.964
   76POPC   C3B 1404   0.393   7.132   6.586
   76POPC   C4B 1405   0.696   7.055   6.288
   77POPC   NC3 1406   2.056   4.452   7.990
   77POPC   PO4 1407   1.513   4.015   8.065
   77POPC   GL1 1408   1.660   4.218   7.676
   77POPC   GL2 1409   1.995   4.240   7.524
   77POPC   C1A 1410   1.591   4.368   7.237
   77POPC   D2A 1411   1.760   4.100   6.898
   77POPC   C3A 1412   1.597   4.154   6.465
   77POPC   C4A 1413   1.694   4.507   6.190
   77POPC   C1B 1414   2.206   3.979   7.179
   77POPC   C2B 1415   2.316   4.059   6.747
   77POPC   C3B 1416   2.104   4.319   6.431
   77POPC   C4B 1417   2.219   4.712   6.198
   78POPC   NC3 1418   7.051  10.247   8.044
   78POPC   PO4 1419   7.527  10.713   8.071
   78POPC   GL1 1420   7.520  10.455   7.661
   78POPC   GL2 1421   7.498  10.098   7.620
   78POPC   C1A 1422   7.346  10.617   7.236
   78POPC   D2A 1423   7.104  10.636   6.836
   78POPC   C3A 1424   7.406  10.528   6.530
   78POPC   C4A 1425   7.624  10.786   6.255
   78POPC   C1B 1426   7.146  10.171   7.352
   78POPC   C2B 1427   7.290  10.194   6.946
   78POPC   C3B 1428   7.230  10.049   6.535
   78POPC   C4B 1429   7.096  10.157   6.163
   79POPC   NC3 1430   1.997   1.119   8.078
   79POPC   PO4 1431   2.268   1.601   7.823
   79POPC   GL1 1432   2.046   1.335   7.568
   79POPC   GL2 1433   1.718   1.330   7.696
   79POPC   C1A 1434   2.142   1.151   7.151
   79POPC   D2A 1435   2.310   0.956   6.753
   79POPC   C3A 1436   2.112   1.188   6.396
   79POPC   C4A 1437   2.239   1.483   6.083
   79POPC   C1B 1438   1.634   1.135   7.298
   79POPC   C2B 1439   1.522   1.286   6.904
   79POPC   C3B 1440   1.574   1.166   6.494
   79POPC   C4B 1441   1.675   1.003   6.120
   80POPC   NC3 1442  10.379   9.088   8.238
   80POPC   PO4 1443  10.528   9.677   8.263
   80POPC   GL1 1444  10.488   9.704   7.787
   80POPC   GL2 1445  10.151   9.784   7.694
   80POPC   C1A 1446  10.459   9.550   7.335
   80POPC   D2A 1447  10.310   9.644   6.897
   80POPC   C3A 1448  10.376   9.584   6.454
   80POPC   C4A 1449  10.597   9.891   6.216
   80POPC   C1B 1450  10.146   9.982   7.276
   80POPC   C2B 1451   9.967  10.028   6.840
   80POPC   C3B 1452  10.143  10.098   6.393
   80POPC   C4B 1453  10.169   9.906   5.937
   81POPC   NC3 1454   1.813   3.667   8.008
   81POPC   PO4 1455   2.396   4.007   8.000
   81POPC   GL1 1456   2.171   3.781   7.654
   81POPC   GL2 1457   2.103   3.440   7.659
   81POPC   C1A 1458   1.796   3.729   7.346
   81POPC   D2A 1459   1.761   3.564   6.916
   81POPC   C3A 1460   1.953   3.779   6.546
   81POPC   C4A 1461   2.295   3.861   6.258
   81POPC   C1B 1462   2.014   3.242   7.263
   81POPC   C2B 1463   1.985   3.057   6.862
   81POPC   C3B 1464   1.975   3.276   6.492
   81POPC   C4B 1465   1.758   3.520   6.162
   82POPC   NC3 1466  10.323   2.149   8.013
   82POPC   PO4 1467   9.844   1.674   7.911
   82POPC   GL1 1468   9.722   1.986   7.603
   82POPC   GL2 1469   9.355   1.861   7.486
   82POPC   C1A 1470   9.972   2.140   7.230
   82POPC   D2A 1471  10.084   1.864   6.876
   82POPC   C3A 1472   9.838   1.836   6.469
   82POPC   C4A 1473   9.942   1.688   6.082
   82POPC   C1B 1474   9.620   1.816   7.135
   82POPC   C2B 1475   9.673   2.136   6.819
   82POPC   C3B 1476   9.601   2.371   6.448
   82POPC   C4B 1477   9.400   2.388   6.031
   83POPC   NC3 1478   0.811   5.687   8.186
   83POPC   PO4 1479   0.183   5.858   8.249
   83POPC   GL1 1480   0.214   5.946   7.784
   83POPC   GL2 1481   0.575   5.983   7.752
   83POPC   C1A 1482   0.220   5.748   7.348
   83POPC   D2A 1483   0.545   5.570   7.067
   83POPC   C3A 1484   0.468   5.579   6.615
   83POPC   C4A 1485   0.742   5.662   6.277
   83POPC   C1B 1486   0.554   6.118   7.306
   83POPC   C2B 1487   0.391   6.041   6.882
   83POPC   C3B 1488   0.440   6.051   6.416
   83POPC   C4B 1489   0.105   5.820   6.235
   84POPC   NC3 1490  10.305  10.078   8.118
   84POPC   PO4 1491  10.006  10.725   8.092
   84POPC   GL1 1492  10.153  10.452   7.714
   84POPC   GL2 1493  10.445  10.205   7.647
   84POPC   C1A 1494  10.299  10.528   7.283
   84POPC   D2A 1495  10.260  10.805   6.939
   84POPC   C3A 1496  10.246  10.629   6.549
   84POPC   C4A 1497  10.200  10.767   6.120
   84POPC   C1B 1498  10.791  10.380   7.409
   84POPC   C2B 1499  10.792  10.682   7.065
   84POPC   C3B 1500  10.802  10.683   6.611
   84POPC   C4B 1501  10.603  10.440   6.248
   85POPC   NC3 1502   4.419   0.477   7.898
   85POPC   PO4 1503   4.023   0.058   8.240
   85POPC   GL1 1504   3.939   0.227   7.756
   85POPC   GL2 1505   4.001   0.572   7.637
   85POPC   C1A 1506   3.984   0.270   7.238
   85POPC   D2A 1507   3.898   0.508   6.840
   85POPC   C3A 1508   4.047   0.328   6.421
   85POPC   C4A 1509   4.133   0.378   5.971
   85POPC   C1B 1510   4.324   0.663   7.304
   85POPC   C2B 1511   4.412   0.523   6.923
   85POPC   C3B 1512   4.410   0.676   6.528
   85POPC   C4B 1513   4.583   0.538   6.198
   86POPC   NC3 1514   1.942   1.822   8.073
   86POPC   PO4 1515   1.977   2.494   7.860
   86POPC   GL1 1516   2.073   2.224   7.584
   86POPC   GL2 1517   1.942   1.876   7.553
   86POPC   C1A 1518   2.114   2.326   7.159
   86POPC   D2A 1519   1.989   2.054   6.829
   86POPC   C3A 1520   2.062   2.223   6.416
   86POPC   C4A 1521   1.853   2.467   6.120
   86POPC   C1B 1522   1.817   1.627   7.194
   86POPC   C2B 1523   1.948   1.519   6.763
   86POPC   C3B 1524   1.808   1.609   6.336
   86POPC   C4B 1525   1.917   1.893   6.003
   87POPC   NC3 1526   9.569   3.716   8.123
   87POPC   PO4 1527   9.804   3.145   8.233
   87POPC   GL1 1528   9.774   3.329   7.793
   87POPC   GL2 1529   9.482   3.150   7.798
   87POPC   C1A 1530   9.847   3.379   7.298
   87POPC   D2A 1531   9.839   3.722   6.908
   87POPC   C3A 1532   9.809   3.550   6.472
   87POPC   C4A 1533   9.823   3.138   6.487
   87POPC   C1B 1534   9.371   3.204   7.368
   87POPC   C2B 1535   9.449   3.394   6.949
   87POPC   C3B 1536   9.332   3.292   6.532
   87POPC   C4B 1537   9.354   3.450   6.142
   88POPC   NC3 1538   8.736   9.029   8.179
   88POPC   PO4 1539   9.202   8.490   8.079
   88POPC   GL1 1540   8.899   8.736   7.783
   88POPC   GL2 1541   8.895   9.122   7.697
   88POPC   C1A 1542   8.702   8.794   7.363
   88POPC   D2A 1543   8.846   8.849   6.931
   88POPC   C3A 1544   8.690   8.681   6.542
   88POPC   C4A 1545   8.441   8.828   6.181
   88POPC   C1B 1546   9.001   9.241   7.244
   88POPC   C2B 1547   8.787   9.323   6.806
   88POPC   C3B 1548   8.832   9.159   6.341
   88POPC   C4B 1549   9.160   9.106   5.970
   89POPC   NC3 1550   2.654   1.380   8.021
   89POPC   PO4 1551   2.300   0.773   8.139
   89POPC   GL1 1552   2.410   0.988   7.708
   89POPC   GL2 1553   2.577   1.302   7.539
   89POPC   C1A 1554   2.611   0.879   7.282
   89POPC   D2A 1555   2.882   0.939   6.915
   89POPC   C3A 1556   2.750   0.870   6.486
   89POPC   C4A 1557   2.446   0.872   6.182
   89POPC   C1B 1558   3.007   1.407   7.391
   89POPC   C2B 1559   3.110   1.394   6.951
   89POPC   C3B 1560   3.065   1.267   6.520
   89POPC   C4B 1561   2.698   1.391   6.266
   90POPC   NC3 1562   9.588   8.231   8.088
   90POPC   PO4 1563   9.430   7.668   8.049
   90POPC   GL1 1564   9.339   8.045   7.684
   90POPC   GL2 1565   9.516   8.396   7.639
   90POPC   C1A 1566   9.303   8.244   7.245
   90POPC   D2A 1567   9.506   8.115   6.940
   90POPC   C3A 1568   9.542   8.198   6.573
   90POPC   C4A 1569   9.453   7.980   6.207
   90POPC   C1B 1570   9.770   8.050   7.359
   90POPC   C2B 1571   9.912   7.830   6.907
   90POPC   C3B 1572   9.949   7.926   6.417
   90POPC   C4B 1573   9.833   8.356   6.199
   91POPC   NC3 1574   6.652   1.666   8.002
   91POPC   PO4 1575   7.020   2.222   7.930
   91POPC   GL1 1576   6.956   1.895   7.602
   91POPC   GL2 1577   6.588   1.806   7.531
   91POPC   C1A 1578   6.918   1.810   7.162
   91POPC   D2A 1579   6.763   2.070   6.834
   91POPC   C3A 1580   6.854   1.836   6.490
   91POPC   C4A 1581   6.757   1.659   6.158
   91POPC   C1B 1582   6.198   1.760   7.287
   91POPC   C2B 1583   6.096   1.908   6.878
   91POPC   C3B 1584   6.341   2.002   6.531
   91POPC   C4B 1585   6.198   2.326   6.241
   92POPC   NC3 1586   6.296   3.418   8.321
   92POPC   PO4 1587   6.609   3.005   8.162
   92POPC   GL1 1588   6.475   3.232   7.763
   92POPC   GL2 1589   6.487   3.582   7.849
   92POPC   C1A 1590   6.448   3.185   7.260
   92POPC   D2A 1591   6.661   3.194   6.829
   92POPC   C3A 1592   6.431   3.239   6.414
   92POPC   C4A 1593   6.498   3.198   5.946
   92POPC   C1B 1594   6.648   3.619   7.429
   92POPC   C2B 1595   6.471   3.648   7.004
   92POPC   C3B 1596   6.658   3.663   6.593
   92POPC   C4B 1597   6.537   3.693   6.155
   93POPC   NC3 1598   8.054   1.371   8.146
   93POPC   PO4 1599   7.725   0.776   7.955
   93POPC   GL1 1600   7.916   1.067   7.619
   93POPC   GL2 1601   8.231   1.257   7.650
   93POPC   C1A 1602   7.928   1.321   7.206
   93POPC   D2A 1603   7.640   1.345   6.826
   93POPC   C3A 1604   7.865   1.149   6.472
   93POPC   C4A 1605   7.986   1.096   6.007
   93POPC   C1B 1606   8.297   0.895   7.313
   93POPC   C2B 1607   8.310   0.765   6.842
   93POPC   C3B 1608   8.310   0.901   6.399
   93POPC   C4B 1609   8.314   1.362   6.298
   94POPC   NC3 1610   6.374  10.736   8.114
   94POPC   PO4 1611   6.598  10.051   8.094
   94POPC   GL1 1612   6.497  10.355   7.782
   94POPC   GL2 1613   6.790  10.367   7.635
   94POPC   C1A 1614   6.379  10.587   7.395
   94POPC   D2A 1615   6.522  10.562   6.916
   94POPC   C3A 1616   6.264  10.676   6.537
   94POPC   C4A 1617   6.250  10.630   6.051
   94POPC   C1B 1618   6.599  10.135   7.308
   94POPC   C2B 1619   6.805  10.059   6.925
   94POPC   C3B 1620   6.796  10.309   6.562
   94POPC   C4B 1621   6.476  10.214   6.315
   95POPC   NC3 1622   6.863   2.643   8.043
   95POPC   PO4 1623   7.550   2.669   8.185
   95POPC   GL1 1624   7.327   2.718   7.764
   95POPC   GL2 1625   7.356   2.436   7.597
   95POPC   C1A 1626   7.023   2.704   7.354
   95POPC   D2A 1627   7.067   2.480   6.923
   95POPC   C3A 1628   7.080   2.735   6.521
   95POPC   C4A 1629   6.915   3.097   6.254
   95POPC   C1B 1630   7.500   2.591   7.201
   95POPC   C2B 1631   7.557   2.370   6.829
   95POPC   C3B 1632   7.595   2.545   6.440
   95POPC   C4B 1633   7.437   2.873   6.158
   96POPC   NC3 1634  11.131   2.119   8.098
   96POPC   PO4 1635  11.337   1.449   8.043
   96POPC   GL1 1636  11.252   1.772   7.738
   96POPC   GL2 1637  11.378   1.547   7.511
   96POPC   C1A 1638  11.055   1.950   7.355
   96POPC   D2A 1639  11.056   1.768   6.937
   96POPC   C3A 1640  11.146   2.024   6.561
   96POPC   C4A 1641  11.167   1.843   6.153
   96POPC   C1B 1642   0.032   1.816   7.194
   96POPC   C2B 1643   0.033   1.772   6.772
   96POPC   C3B 1644   0.142   1.905   6.403
   96POPC   C4B 1645   0.264   1.519   6.287
   97POPC   NC3 1646   5.214   0.747   8.198
   97POPC   PO4 1647   5.130   1.393   8.042
   97POPC   GL1 1648   5.028   1.123   7.689
   97POPC   GL2 1649   5.223   0.865   7.539
   97POPC   C1A 1650   4.761   1.111   7.295
   97POPC   D2A 1651   4.663   0.964   6.864
   97POPC   C3A 1652   4.915   0.832   6.518
   97POPC   C4A 1653   4.738   1.044   6.154
   97POPC   C1B 1654   5.239   1.262   7.266
   97POPC   C2B 1655   5.047   1.357   6.885
   97POPC   C3B 1656   5.038   1.324   6.454
   97POPC   C4B 1657   5.298   1.404   6.112
   98POPC   NC3 1658   0.304   3.641   7.861
   98POPC   PO4 1659   0.299   3.056   8.251
   98POPC   GL1 1660   0.575   3.085   7.768
   98POPC   GL2 1661   0.787   3.386   7.708
   98POPC   C1A 1662   0.486   3.146   7.259
   98POPC   D2A 1663   0.066   3.195   6.981
   98POPC   C3A 1664   0.057   3.075   6.526
   98POPC   C4A 1665   0.390   3.193   6.178
   98POPC   C1B 1666   0.758   3.586   7.265
   98POPC   C2B 1667   0.573   3.577   6.804
   98POPC   C3B 1668   0.609   3.648   6.319
   98POPC   C4B 1669   0.625   3.661   5.831
   99POPC   NC3 1670  10.279   6.578   7.986
   99POPC   PO4 1671  10.767   7.037   7.763
   99POPC   GL1 1672  10.431   6.884   7.600
   99POPC   GL2 1673  10.609   6.555   7.605
   99POPC   C1A 1674  10.443   6.796   7.175
   99POPC   D2A 1675  10.447   6.690   6.725
   99POPC   C3A 1676  10.579   6.979   6.426
   99POPC   C4A 1677  10.331   7.044   6.096
   99POPC   C1B 1678  10.529   6.298   7.256
   99POPC   C2B 1679  10.319   6.213   6.873
   99POPC   C3B 1680  10.399   6.261   6.427
   99POPC   C4B 1681  10.209   6.155   6.036
  100POPC   NC3 1682  10.541   5.815   8.107
  100POPC   PO4 1683   9.947   6.178   7.988
  100POPC   GL1 1684  10.322   6.111   7.715
  100POPC   GL2 1685  10.210   5.782   7.702
  100POPC   C1A 1686  10.614   5.827   7.423
  100POPC   D2A 1687  10.792   5.640   7.053
  100POPC   C3A 1688  10.701   5.885   6.690
  100POPC   C4A 1689  10.706   5.886   6.250
  100POPC   C1B 1690  10.142   5.904   7.270
  100POPC   C2B 1691  10.266   5.705   6.887
  100POPC   C3B 1692  10.243   5.761   6.437
  100POPC   C4B 1693  10.305   5.657   5.981
  101POPC   NC3 1694  11.430   2.869   8.046
  101POPC   PO4 1695  10.804   3.159   8.258
  101POPC   GL1 1696  10.995   2.946   7.777
  101POPC   GL2 1697  11.270   2.831   7.576
  101POPC   C1A 1698  10.950   3.043   7.270
  101POPC   D2A 1699  11.192   2.810   6.993
  101POPC   C3A 1700  10.974   2.671   6.678
  101POPC   C4A 1701  11.150   2.705   6.335
  101POPC   C1B 1702  11.235   2.441   7.352
  101POPC   C2B 1703  11.393   2.276   6.964
  101POPC   C3B 1704   0.035   2.417   6.568
  101POPC   C4B 1705  11.388   2.292   6.165
  102POPC   NC3 1706   3.629   2.968   8.049
  102POPC   PO4 1707   3.137   2.477   8.051
  102POPC   GL1 1708   3.310   2.721   7.722
  102POPC   GL2 1709   3.655   2.579   7.662
  102POPC   C1A 1710   3.259   2.896   7.306
  102POPC   D2A 1711   3.116   2.795   6.873
  102POPC   C3A 1712   3.300   2.951   6.473
  102POPC   C4A 1713   3.281   2.873   6.004
  102POPC   C1B 1714   3.566   2.455   7.217
  102POPC   C2B 1715   3.624   2.619   6.775
  102POPC   C3B 1716   3.678   2.600   6.320
  102POPC   C4B 1717   3.605   2.475   5.900
  103POPC   NC3 1718   9.536   7.233   8.126
  103POPC   PO4 1719  10.197   7.029   8.111
  103POPC   GL1 1720   9.944   7.069   7.745
  103POPC   GL2 1721   9.826   7.412   7.710
  103POPC   C1A 1722   9.798   6.984   7.306
  103POPC   D2A 1723   9.760   7.227   6.887
  103POPC   C3A 1724   9.600   7.050   6.449
  103POPC   C4A 1725   9.780   6.958   6.020
  103POPC   C1B 1726   9.542   7.594   7.387
  103POPC   C2B 1727   9.425   7.616   6.961
  103POPC   C3B 1728   9.549   7.603   6.547
  103POPC   C4B 1729   9.283   7.409   6.255
  104POPC   NC3 1730   5.406  10.342   8.348
  104POPC   PO4 1731   5.874   9.748   8.168
  104POPC   GL1 1732   5.639   9.935   7.848
  104POPC   GL2 1733   5.877   9.738   7.648
  104POPC   C1A 1734   5.540   9.997   7.399
  104POPC   D2A 1735   5.850   9.920   7.037
  104POPC   C3A 1736   5.694   9.917   6.573
  104POPC   C4A 1737   5.517   9.799   6.132
  104POPC   C1B 1738   5.674   9.512   7.285
  104POPC   C2B 1739   5.818   9.466   6.845
  104POPC   C3B 1740   5.753   9.430   6.403
  104POPC   C4B 1741   6.057   9.306   6.098
  105POPC   NC3 1742   2.009  11.399   8.161
  105POPC   PO4 1743   1.778  10.800   8.098
  105POPC   GL1 1744   1.788  11.104   7.737
  105POPC   GL2 1745   2.078  11.312   7.671
  105POPC   C1A 1746   1.876  11.056   7.300
  105POPC   D2A 1747   1.718  11.088   6.913
  105POPC   C3A 1748   1.970  11.093   6.545
  105POPC   C4A 1749   1.948  10.903   6.147
  105POPC   C1B 1750   2.270  11.443   7.297
  105POPC   C2B 1751   2.148  11.397   6.894
  105POPC   C3B 1752   2.361  11.433   6.489
  105POPC   C4B 1753   2.113  11.385   6.135
  106POPC   NC3 1754   4.333   9.828   8.046
  106POPC   PO4 1755   4.873   9.427   8.088
  106POPC   GL1 1756   4.658   9.614   7.733
  106POPC   GL2 1757   4.330   9.472   7.666
  106POPC   C1A 1758   4.551   9.790   7.318
  106POPC   D2A 1759   4.338   9.631   6.926
  106POPC   C3A 1760   4.367   9.911   6.558
  106POPC   C4A 1761   4.610   9.902   6.196
  106POPC   C1B 1762   4.011   9.617   7.332
  106POPC   C2B 1763   3.843   9.458   6.903
  106POPC   C3B 1764   3.936   9.620   6.473
  106POPC   C4B 1765   4.215   9.601   6.107
  107POPC   NC3 1766   2.709   9.472   8.110
  107POPC   PO4 1767   2.398  10.031   7.943
  107POPC   GL1 1768   2.680   9.774   7.672
  107POPC   GL2 1769   3.040   9.683   7.731
  107POPC   C1A 1770   2.817   9.861   7.271
  107POPC   D2A 1771   2.756   9.965   6.858
  107POPC   C3A 1772   2.445   9.825   6.660
  107POPC   C4A 1773   2.585   9.644   6.323
  107POPC   C1B 1774   3.022   9.404   7.336
  107POPC   C2B 1775   2.846   9.458   6.919
  107POPC   C3B 1776   3.033   9.583   6.533
  107POPC   C4B 1777   2.936   9.342   6.116
  108POPC   NC3 1778   6.828   8.724   8.012
  108POPC   PO4 1779   7.545   8.646   8.080
  108POPC   GL1 1780   7.482   8.932   7.728
  108POPC   GL2 1781   7.141   9.016   7.689
  108POPC   C1A 1782   7.463   8.852   7.274
  108POPC   D2A 1783   7.378   8.701   6.847
  108POPC   C3A 1784   7.623   8.767   6.496
  108POPC   C4A 1785   7.422   8.657   6.144
  108POPC   C1B 1786   7.120   9.251   7.304
  108POPC   C2B 1787   7.302   9.198   6.886
  108POPC   C3B 1788   7.165   9.012   6.471
  108POPC   C4B 1789   7.305   9.148   6.045
  109POPC   NC3 1790  10.513   2.905   7.952
  109POPC   PO4 1791  10.759   2.254   7.875
  109POPC   GL1 1792  10.533   2.513   7.618
  109POPC   GL2 1793  10.186   2.438   7.553
  109POPC   C1A 1794  10.745   2.566   7.237
  109POPC   D2A 1795  10.881   2.253   6.950
  109POPC   C3A 1796  10.689   2.258   6.529
  109POPC   C4A 1797  10.459   2.580   6.376
  109POPC   C1B 1798  10.262   2.785   7.252
  109POPC   C2B 1799  10.568   2.900   6.909
  109POPC   C3B 1800  10.622   3.029   6.508
  109POPC   C4B 1801  10.274   3.127   6.228
  110POPC   NC3 1802   9.635   8.788   8.114
  110POPC   PO4 1803   9.347   9.307   7.913
  110POPC   GL1 1804   9.380   8.910   7.679
  110POPC   GL2 1805   9.731   8.860   7.602
  110POPC   C1A 1806   9.276   8.770   7.250
  110POPC   D2A 1807   9.315   9.020   6.852
  110POPC   C3A 1808   9.214   8.856   6.455
  110POPC   C4A 1809   9.419   8.676   6.107
  110POPC   C1B 1810   9.792   8.562   7.258
  110POPC   C2B 1811   9.901   8.470   6.840
  110POPC   C3B 1812   9.706   8.706   6.539
  110POPC   C4B 1813   9.908   8.851   6.176
  111POPC   NC3 1814   2.870  10.127   8.004
  111POPC   PO4 1815   2.598  10.769   8.053
  111POPC   GL1 1816   2.901  10.609   7.785
  111POPC   GL2 1817   2.648  10.409   7.656
  111POPC   C1A 1818   2.995  10.688   7.361
  111POPC   D2A 1819   2.745  10.758   6.991
  111POPC   C3A 1820   2.962  10.721   6.603
  111POPC   C4A 1821   2.793  10.613   6.220
  111POPC   C1B 1822   2.596  10.326   7.259
  111POPC   C2B 1823   2.357  10.389   6.925
  111POPC   C3B 1824   2.550  10.365   6.590
  111POPC   C4B 1825   2.566  10.132   6.235
  112POPC   NC3 1826   7.823  11.129   7.983
  112POPC   PO4 1827   8.445  10.909   7.977
  112POPC   GL1 1828   8.231  11.157   7.642
  112POPC   GL2 1829   7.921  11.400   7.583
  112POPC   C1A 1830   8.221  10.998   7.228
  112POPC   D2A 1831   8.417  10.790   6.901
  112POPC   C3A 1832   8.447  11.016   6.586
  112POPC   C4A 1833   8.483  11.105   6.194
  112POPC   C1B 1834   8.067  11.495   7.236
  112POPC   C2B 1835   8.046  11.304   6.868
  112POPC   C3B 1836   8.136  11.385   6.468
  112POPC   C4B 1837   7.978  11.144   6.138
  113POPC   NC3 1838   2.405   2.347   7.989
  113POPC   PO4 1839   2.494   1.745   8.274
  113POPC   GL1 1840   2.628   1.919   7.810
  113POPC   GL2 1841   2.887   2.088   7.836
  113POPC   C1A 1842   2.433   1.962   7.350
  113POPC   D2A 1843   2.498   2.012   6.918
  113POPC   C3A 1844   2.343   1.789   6.526
  113POPC   C4A 1845   2.415   1.948   6.108
  113POPC   C1B 1846   2.928   1.977   7.381
  113POPC   C2B 1847   3.043   2.002   6.939
  113POPC   C3B 1848   3.101   2.196   6.544
  113POPC   C4B 1849   2.916   1.962   6.206
  114POPC   NC3 1850   4.517   9.135   8.058
  114POPC   PO4 1851   3.896   9.320   8.064
  114POPC   GL1 1852   3.909   9.206   7.605
  114POPC   GL2 1853   4.135   8.959   7.692
  114POPC   C1A 1854   4.158   9.153   7.200
  114POPC   D2A 1855   4.078   8.982   6.778
  114POPC   C3A 1856   4.204   9.168   6.375
  114POPC   C4A 1857   4.270   9.130   5.909
  114POPC   C1B 1858   4.438   8.768   7.407
  114POPC   C2B 1859   4.551   8.774   6.969
  114POPC   C3B 1860   4.565   8.841   6.513
  114POPC   C4B 1861   4.301   8.687   6.156
  115POPC   NC3 1862  10.923   1.373   7.821
  115POPC   PO4 1863  10.567   1.750   8.223
  115POPC   GL1 1864  10.612   1.790   7.722
  115POPC   GL2 1865  10.279   1.909   7.580
  115POPC   C1A 1866  10.637   1.642   7.255
  115POPC   D2A 1867  10.572   1.855   6.827
  115POPC   C3A 1868  10.737   1.721   6.436
  115POPC   C4A 1869  10.676   1.858   5.988
  115POPC   C1B 1870  10.486   2.127   7.263
  115POPC   C2B 1871  10.349   2.378   6.925
  115POPC   C3B 1872  10.112   2.273   6.570
  115POPC   C4B 1873  10.305   1.982   6.303
  116POPC   NC3 1874  10.941   6.729   8.045
  116POPC   PO4 1875  11.462   6.355   8.001
  116POPC   GL1 1876  11.422   6.389   7.632
  116POPC   GL2 1877  11.270   6.723   7.655
  116POPC   C1A 1878   0.023   6.230   7.249
  116POPC   D2A 1879  11.268   6.329   6.888
  116POPC   C3A 1880  11.495   6.213   6.580
  116POPC   C4A 1881   0.076   6.374   6.211
  116POPC   C1B 1882  11.043   6.547   7.328
  116POPC   C2B 1883  10.902   6.689   6.951
  116POPC   C3B 1884  11.039   6.796   6.545
  116POPC   C4B 1885  11.220   6.728   6.160
  117POPC   NC3 1886   2.190  10.474   7.992
  117POPC   PO4 1887   1.601   9.961   8.036
  117POPC   GL1 1888   1.598  10.230   7.658
  117POPC   GL2 1889   1.738  10.556   7.662
  117POPC   C1A 1890   1.700  10.167   7.226
  117POPC   D2A 1891   2.024   9.988   6.935
  117POPC   C3A 1892   2.055  10.114   6.498
  117POPC   C4A 1893   1.816  10.352   6.175
  117POPC   C1B 1894   2.025  10.556   7.315
  117POPC   C2B 1895   1.847  10.544   6.901
  117POPC   C3B 1896   2.037  10.603   6.556
  117POPC   C4B 1897   2.279  10.535   6.196
  118POPC   NC3 1898   2.783   0.537   8.065
  118POPC   PO4 1899   2.257   0.202   7.942
  118POPC   GL1 1900   2.417   0.475   7.673
  118POPC   GL2 1901   2.726   0.340   7.591
  118POPC   C1A 1902   2.360   0.447   7.231
  118POPC   D2A 1903   2.491   0.261   6.881
  118POPC   C3A 1904   2.442   0.464   6.525
  118POPC   C4A 1905   2.310   0.364   6.141
  118POPC   C1B 1906   2.879   0.155   7.202
  118POPC   C2B 1907   2.986   0.221   6.761
  118POPC   C3B 1908   2.852   0.173   6.352
  118POPC   C4B 1909   3.096   0.144   5.977
  119POPC   NC3 1910   2.947  11.068   8.056
  119POPC   PO4 1911   3.077   0.147   8.085
  119POPC   GL1 1912   2.981  11.403   7.680
  119POPC   GL2 1913   2.602  11.307   7.708
  119POPC   C1A 1914   2.858  11.168   7.299
  119POPC   D2A 1915   2.629  11.260   6.936
  119POPC   C3A 1916   2.825  11.215   6.562
  119POPC   C4A 1917   2.933  11.158   6.145
  119POPC   C1B 1918   2.398  10.955   7.415
  119POPC   C2B 1919   2.245  10.895   6.975
  119POPC   C3B 1920   2.451  10.881   6.580
  119POPC   C4B 1921   2.462  11.012   6.172
  120POPC   NC3 1922   1.553  10.405   8.158
  120POPC   PO4 1923   0.961  10.723   8.133
  120POPC   GL1 1924   1.231  10.631   7.798
  120POPC   GL2 1925   1.090  10.313   7.753
  120POPC   C1A 1926   1.114  10.709   7.361
  120POPC   D2A 1927   0.867  10.537   6.990
  120POPC   C3A 1928   1.092  10.596   6.573
  120POPC   C4A 1929   1.523  10.683   6.405
  120POPC   C1B 1930   1.135  10.199   7.322
  120POPC   C2B 1931   1.289  10.242   6.924
  120POPC   C3B 1932   1.555  10.157   6.611
  120POPC   C4B 1933   1.319  10.163   6.247
  121POPC   NC3 1934   9.922   1.229   8.022
  121POPC   PO4 1935   9.246   1.330   8.086
  121POPC   GL1 1936   9.506   1.114   7.737
  121POPC   GL2 1937   9.867   1.072   7.555
  121POPC   C1A 1938   9.434   0.886   7.340
  121POPC   D2A 1939   9.508   0.984   6.902
  121POPC   C3A 1940   9.270   1.130   6.553
  121POPC   C4A 1941   9.494   0.947   6.216
  121POPC   C1B 1942   9.684   1.327   7.272
  121POPC   C2B 1943   9.800   1.430   6.849
  121POPC   C3B 1944   9.733   1.341   6.441
  121POPC   C4B 1945  10.001   1.174   6.138
  122POPC   NC3 1946   9.924   0.235   8.008
  122POPC   PO4 1947   9.610   0.767   8.261
  122POPC   GL1 1948   9.727   0.673   7.839
  122POPC   GL2 1949   9.505   0.442   7.807
  122POPC   C1A 1950   9.878   0.568   7.402
  122POPC   D2A 1951  10.023   0.329   7.031
  122POPC   C3A 1952   9.851   0.528   6.665
  122POPC   C4A 1953   9.958   0.688   6.270
  122POPC   C1B 1954   9.387   0.371   7.407
  122POPC   C2B 1955   9.452   0.464   6.999
  122POPC   C3B 1956   9.358   0.326   6.578
  122POPC   C4B 1957   9.551   0.418   6.208
  123POPC   NC3 1958   5.025  11.394   8.375
  123POPC   PO4 1959   5.567   0.023   7.925
  123POPC   GL1 1960   5.280  11.249   7.617
  123POPC   GL2 1961   4.891  11.195   7.760
  123POPC   C1A 1962   5.263  11.376   7.157
  123POPC   D2A 1963   5.227   0.035   6.738
  123POPC   C3A 1964   5.157  11.248   6.405
  123POPC   C4A 1965   5.433  11.020   6.145
  123POPC   C1B 1966   4.802  11.291   7.372
  123POPC   C2B 1967   4.852  11.098   6.980
  123POPC   C3B 1968   4.718  11.332   6.645
  123POPC   C4B 1969   4.665  11.355   6.214
  124POPC   NC3 1970   0.417   9.065   8.241
  124POPC   PO4 1971   0.612   8.526   8.013
  124POPC   GL1 1972   0.556   8.820   7.686
  124POPC   GL2 1973   0.213   8.921   7.722
  124POPC   C1A 1974   0.546   8.881   7.235
  124POPC   D2A 1975   0.354   9.055   6.874
  124POPC   C3A 1976   0.632   8.901   6.574
  124POPC   C4A 1977   0.656   8.544   6.327
  124POPC   C1B 1978   0.191   8.575   7.412
  124POPC   C2B 1979   0.198   8.545   6.943
  124POPC   C3B 1980   0.192   8.632   6.486
  124POPC   C4B 1981   0.342   9.008   6.177
  125POPC   NC3 1982   4.229   0.453   8.374
  125POPC   PO4 1983   3.605   0.624   8.263
  125POPC   GL1 1984   3.516   0.580   7.797
  125POPC   GL2 1985   3.257   0.350   7.653
  125POPC   C1A 1986   3.577   0.552   7.313
  125POPC   D2A 1987   3.505   0.198   7.003
  125POPC   C3A 1988   3.538   0.280   6.538
  125POPC   C4A 1989   3.613   0.227   6.078
  125POPC   C1B 1990   3.078   0.606   7.293
  125POPC   C2B 1991   3.279   0.635   6.854
  125POPC   C3B 1992   3.164   0.589   6.384
  125POPC   C4B 1993   3.299   0.641   5.948
  126POPC   NC3 1994   0.959   8.843   8.020
  126POPC   PO4 1995   1.513   8.586   8.398
  126POPC   GL1 1996   1.489   8.745   7.865
  126POPC   GL2 1997   1.296   9.055   7.719
  126POPC   C1A 1998   1.590   8.840   7.366
  126POPC   D2A 1999   1.714   8.809   6.919
  126POPC   C3A 2000   1.738   9.110   6.578
  126POPC   C4A 2001   1.524   9.070   6.181
  126POPC   C1B 2002   1.063   8.825   7.372
  126POPC   C2B 2003   0.969   8.973   6.969
  126POPC   C3B 2004   1.160   8.917   6.614
  126POPC   C4B 2005   1.086   8.815   6.242
  127POPC   NC3 2006   9.638  10.531   7.863
  127POPC   PO4 2007   9.120  10.183   8.109
  127POPC   GL1 2008   9.347  10.126   7.638
  127POPC   GL2 2009   9.745  10.195   7.513
  127POPC   C1A 2010   9.406  10.169   7.160
  127POPC   D2A 2011   9.446   9.985   6.770
  127POPC   C3A 2012   9.410  10.260   6.409
  127POPC   C4A 2013   9.386  10.191   5.970
  127POPC   C1B 2014   9.790  10.529   7.194
  127POPC   C2B 2015   9.745  10.489   6.750
  127POPC   C3B 2016   9.795  10.561   6.322
  127POPC   C4B 2017   9.878  10.317   5.994
  128POPC   NC3 2018   3.531   9.072   7.903
  128POPC   PO4 2019   3.104   8.563   7.873
  128POPC   GL1 2020   3.310   8.823   7.519
  128POPC   GL2 2021   3.677   8.748   7.525
  128POPC   C1A 2022   3.148   8.889   7.093
  128POPC   D2A 2023   3.167   8.547   6.766
  128POPC   C3A 2024   3.107   8.705   6.380
  128POPC   C4A 2025   3.076   9.085   6.534
  128POPC   C1B 2026   3.665   8.996   7.149
  128POPC   C2B 2027   3.542   8.917   6.729
  128POPC   C3B 2028   3.763   8.863   6.371
  128POPC   C4B 2029   3.832   8.801   5.961
  129POPC   NC3 2030  10.492   0.676   8.304
  129POPC   PO4 2031  10.364   0.156   8.021
  129POPC   GL1 2032  10.526   0.275   7.662
  129POPC   GL2 2033  10.564   0.615   7.704
  129POPC   C1A 2034  10.499   0.096   7.222
  129POPC   D2A 2035  10.484   0.129   6.769
  129POPC   C3A 2036  10.154   0.150   6.484
  129POPC   C4A 2037  10.187   0.293   6.039
  129POPC   C1B 2038  10.405   0.589   7.278
  129POPC   C2B 2039  10.351   0.648   6.840
  129POPC   C3B 2040  10.439   0.563   6.439
  129POPC   C4B 2041  10.757   0.629   6.184
  130POPC   NC3 2042   2.469   7.217   8.112
  130POPC   PO4 2043   2.852   7.598   7.941
  130POPC   GL1 2044   2.553   7.410   7.628
  130POPC   GL2 2045   2.349   7.065   7.611
  130POPC   C1A 2046   2.590   7.480   7.169
  130POPC   D2A 2047   2.635   7.763   6.792
  130POPC   C3A 2048   2.629   7.547   6.393
  130POPC   C4A 2049   2.346   7.247   6.225
  130POPC   C1B 2050   2.298   7.069   7.121
  130POPC   C2B 2051   2.533   7.142   6.722
  130POPC   C3B 2052   2.685   6.893   6.348
  130POPC   C4B 2053   2.590   6.944   5.871
  131POPC   NC3 2054   1.112   1.863   8.088
  131POPC   PO4 2055   1.678   2.293   8.240
  131POPC   GL1 2056   1.564   2.099   7.820
  131POPC   GL2 2057   1.223   2.217   7.724
  131POPC   C1A 2058   1.590   2.187   7.346
  131POPC   D2A 2059   1.369   2.162   6.947
  131POPC   C3A 2060   1.553   1.983   6.572
  131POPC   C4A 2061   1.482   2.111   6.153
  131POPC   C1B 2062   1.034   2.023   7.352
  131POPC   C2B 2063   0.905   1.942   6.921
  131POPC   C3B 2064   1.042   2.054   6.492
  131POPC   C4B 2065   1.054   1.865   6.055
  132POPC   NC3 2066   5.307   9.611   8.117
  132POPC   PO4 2067   5.014  10.252   8.084
  132POPC   GL1 2068   4.973  10.024   7.668
  132POPC   GL2 2069   5.158   9.695   7.613
  132POPC   C1A 2070   5.060   9.979   7.198
  132POPC   D2A 2071   5.355   9.778   6.953
  132POPC   C3A 2072   5.065   9.620   6.683
  132POPC   C4A 2073   5.066   9.620   6.279
  132POPC   C1B 2074   5.017   9.458   7.204
  132POPC   C2B 2075   4.874   9.159   6.842
  132POPC   C3B 2076   5.015   9.111   6.394
  132POPC   C4B 2077   5.159   9.239   5.937
  133POPC   NC3 2078   5.717   1.597   8.046
  133POPC   PO4 2079   5.906   0.936   8.155
  133POPC   GL1 2080   5.924   1.197   7.783
  133POPC   GL2 2081   5.571   1.235   7.680
  133POPC   C1A 2082   6.049   1.273   7.350
  133POPC   D2A 2083   6.066   1.400   6.905
  133POPC   C3A 2084   5.910   1.234   6.528
  133POPC   C4A 2085   6.101   0.971   6.256
  133POPC   C1B 2086   5.658   0.969   7.300
  133POPC   C2B 2087   5.565   1.090   6.893
  133POPC   C3B 2088   5.444   1.017   6.485
  133POPC   C4B 2089   5.617   1.003   6.077
  134POPC   NC3 2090   9.319   9.737   8.118
  134POPC   PO4 2091   9.852  10.139   8.004
  134POPC   GL1 2092   9.653   9.752   7.741
  134POPC   GL2 2093   9.764   9.416   7.672
  134POPC   C1A 2094   9.687   9.738   7.285
  134POPC   D2A 2095   9.841   9.499   6.960
  134POPC   C3A 2096   9.738   9.635   6.551
  134POPC   C4A 2097   9.730   9.880   6.195
  134POPC   C1B 2098   9.566   9.210   7.291
  134POPC   C2B 2099   9.808   8.984   6.969
  134POPC   C3B 2100   9.929   9.165   6.577
  134POPC   C4B 2101   9.564   9.207   6.298
  135POPC   NC3 2102   8.828   1.486   7.975
  135POPC   PO4 2103   8.399   1.052   8.147
  135POPC   GL1 2104   8.644   0.962   7.770
  135POPC   GL2 2105   8.996   1.053   7.759
  135POPC   C1A 2106   8.705   1.192   7.370
  135POPC   D2A 2107   8.945   1.138   7.022
  135POPC   C3A 2108   8.713   1.081   6.676
  135POPC   C4A 2109   8.765   1.132   6.263
  135POPC   C1B 2110   9.194   1.355   7.419
  135POPC   C2B 2111   9.296   1.472   6.972
  135POPC   C3B 2112   8.988   1.556   6.661
  135POPC   C4B 2113   9.113   1.520   6.245
  136POPC   NC3 2114   9.158   0.843   8.216
  136POPC   PO4 2115   8.719   0.362   8.056
  136POPC   GL1 2116   8.995   0.523   7.797
  136POPC   GL2 2117   9.081   0.165   7.762
  136POPC   C1A 2118   8.956   0.726   7.403
  136POPC   D2A 2119   8.763   0.676   7.053
  136POPC   C3A 2120   9.072   0.713   6.746
  136POPC   C4A 2121   9.069   0.683   6.293
  136POPC   C1B 2122   8.895   0.234   7.356
  136POPC   C2B 2123   8.956   0.223   6.913
  136POPC   C3B 2124   8.683   0.433   6.603
  136POPC   C4B 2125   8.673   0.367   6.161
  137POPC   NC3 2126   3.606   1.080   8.086
  137POPC   PO4 2127   2.888   0.978   7.940
  137POPC   GL1 2128   3.241   0.993   7.642
  137POPC   GL2 2129   3.501   1.271   7.614
  137POPC   C1A 2130   3.357   1.024   7.208
  137POPC   D2A 2131   3.625   1.096   6.896
  137POPC   C3A 2132   3.484   0.959   6.520
  137POPC   C4A 2133   3.458   1.159   6.166
  137POPC   C1B 2134   3.783   1.435   7.291
  137POPC   C2B 2135   4.011   1.444   6.860
  137POPC   C3B 2136   3.774   1.399   6.484
  137POPC   C4B 2137   3.687   1.666   6.143
  138POPC   NC3 2138   3.730  10.469   8.222
  138POPC   PO4 2139   4.217  10.681   7.940
  138POPC   GL1 2140   3.806  10.492   7.713
  138POPC   GL2 2141   3.420  10.469   7.769
  138POPC   C1A 2142   3.611  10.483   7.294
  138POPC   D2A 2143   3.536  10.260   6.909
  138POPC   C3A 2144   3.538  10.490   6.532
  138POPC   C4A 2145   3.840  10.715   6.253
  138POPC   C1B 2146   3.172  10.222   7.418
  138POPC   C2B 2147   3.047  10.340   6.973
  138POPC   C3B 2148   3.065  10.220   6.507
  138POPC   C4B 2149   3.272  10.396   6.115
  139POPC   NC3 2150  11.244  10.225   8.428
  139POPC   PO4 2151  10.785  10.101   8.028
  139POPC   GL1 2152  11.139  10.170   7.740
  139POPC   GL2 2153  11.336  10.450   7.761
  139POPC   C1A 2154  11.262  10.129   7.284
  139POPC   D2A 2155  10.919  10.177   6.952
  139POPC   C3A 2156  10.951  10.108   6.500
  139POPC   C4A 2157  10.986  10.204   6.021
  139POPC   C1B 2158  11.247  10.641   7.341
  139POPC   C2B 2159  11.296  10.547   6.895
  139POPC   C3B 2160  11.276  10.490   6.451
  139POPC   C4B 2161  11.410  10.108   6.269
  140POPC   NC3 2162   3.362   2.081   8.102
  140POPC   PO4 2163   3.445   1.526   8.057
  140POPC   GL1 2164   3.300   1.782   7.681
  140POPC   GL2 2165   3.324   2.187   7.607
  140POPC   C1A 2166   3.378   1.761   7.245
  140POPC   D2A 2167   3.531   1.619   6.864
  140POPC   C3A 2168   3.304   1.710   6.489
  140POPC   C4A 2169   3.159   1.541   6.074
  140POPC   C1B 2170   3.725   2.032   7.504
  140POPC   C2B 2171   3.885   1.885   7.100
  140POPC   C3B 2172   3.801   1.950   6.606
  140POPC   C4B 2173   3.512   2.117   6.254
  141POPC   NC3 2174   2.805   3.792   7.991
  141POPC   PO4 2175   3.223   3.248   8.068
  141POPC   GL1 2176   2.978   3.179   7.716
  141POPC   GL2 2177   2.627   3.326   7.708
  141POPC   C1A 2178   3.033   3.381   7.328
  141POPC   D2A 2179   3.254   3.291   6.941
  141POPC   C3A 2180   3.030   3.398   6.567
  141POPC   C4A 2181   2.966   3.245   6.164
  141POPC   C1B 2182   2.466   3.496   7.300
  141POPC   C2B 2183   2.291   3.483   6.859
  141POPC   C3B 2184   2.505   3.433   6.440
  141POPC   C4B 2185   2.802   3.782   6.282
  142POPC   NC3 2186   8.711  10.007   7.973
  142POPC   PO4 2187   8.972   9.446   8.272
  142POPC   GL1 2188   8.985   9.625   7.775
  142POPC   GL2 2189   8.744   9.666   7.581
  142POPC   C1A 2190   9.178   9.732   7.348
  142POPC   D2A 2191   9.332   9.523   6.972
  142POPC   C3A 2192   9.223   9.450   6.570
  142POPC   C4A 2193   9.268   9.783   6.329
  142POPC   C1B 2194   8.707   9.725   7.136
  142POPC   C2B 2195   8.928   9.810   6.778
  142POPC   C3B 2196   8.792   9.671   6.367
  142POPC   C4B 2197   8.489   9.894   6.122
  143POPC   NC3 2198   7.181  10.961   8.280
  143POPC   PO4 2199   7.457  11.368   7.815
  143POPC   GL1 2200   7.489  11.014   7.608
  143POPC   GL2 2201   7.184  10.819   7.656
  143POPC   C1A 2202   7.659  11.184   7.211
  143POPC   D2A 2203   7.596   0.021   6.926
  143POPC   C3A 2204   7.636  11.346   6.526
  143POPC   C4A 2205   7.474  11.299   6.135
  143POPC   C1B 2206   7.157  11.110   7.244
  143POPC   C2B 2207   7.302  11.111   6.851
  143POPC   C3B 2208   7.220  11.005   6.477
  143POPC   C4B 2209   6.986  11.159   6.142
  144POPC   NC3 2210   8.623   2.395   8.018
  144POPC   PO4 2211   9.089   2.874   8.144
  144POPC   GL1 2212   9.167   2.756   7.730
  144POPC   GL2 2213   8.826   2.773   7.687
  144POPC   C1A 2214   9.142   2.735   7.278
  144POPC   D2A 2215   8.857   2.640   6.888
  144POPC   C3A 2216   9.026   2.677   6.464
  144POPC   C4A 2217   9.030   3.030   6.173
  144POPC   C1B 2218   8.608   2.636   7.332
  144POPC   C2B 2219   8.391   2.464   6.957
  144POPC   C3B 2220   8.545   2.462   6.531
  144POPC   C4B 2221   8.577   2.770   6.207
  145POPC   NC3 2222  11.319   1.033   8.324
  145POPC   PO4 2223  10.736   0.994   8.013
  145POPC   GL1 2224  11.012   0.877   7.702
  145POPC   GL2 2225  11.365   0.997   7.757
  145POPC   C1A 2226  10.839   0.881   7.290
  145POPC   D2A 2227  10.708   1.011   6.888
  145POPC   C3A 2228  10.996   0.839   6.601
  145POPC   C4A 2229  11.090   1.006   6.217
  145POPC   C1B 2230  11.310   1.076   7.303
  145POPC   C2B 2231  11.205   1.251   6.878
  145POPC   C3B 2232  11.262   1.442   6.454
  145POPC   C4B 2233  11.392   1.393   5.993
  146POPC   NC3 2234   5.094   0.108   7.925
  146POPC   PO4 2235   4.782   0.738   8.024
  146POPC   GL1 2236   4.744   0.710   7.598
  146POPC   GL2 2237   4.871   0.402   7.609
  146POPC   C1A 2238   4.850   0.617   7.173
  146POPC   D2A 2239   4.821   0.203   7.028
  146POPC   C3A 2240   4.802   0.328   6.622
  146POPC   C4A 2241   4.983   0.232   6.258
  146POPC   C1B 2242   5.246   0.366   7.347
  146POPC   C2B 2243   5.363   0.631   7.021
  146POPC   C3B 2244   5.356   0.515   6.604
  146POPC   C4B 2245   5.285   0.625   6.200
  147POPC   NC3 2246   5.224   7.678   8.537
  147POPC   PO4 2247   5.290   7.776   8.083
  147POPC   GL1 2248   5.180   7.835   7.620
  147POPC   GL2 2249   4.959   8.128   7.529
  147POPC   C1A 2250   5.217   7.898   7.153
  147POPC   D2A 2251   5.000   8.052   6.784
  147POPC   C3A 2252   5.219   8.115   6.393
  147POPC   C4A 2253   5.011   8.060   5.987
  147POPC   C1B 2254   5.016   8.419   7.158
  147POPC   C2B 2255   4.967   8.577   6.726
  147POPC   C3B 2256   4.906   8.512   6.295
  147POPC   C4B 2257   5.134   8.582   5.906
  148POPC   NC3 2258   0.798  11.141   8.231
  148POPC   PO4 2259   0.181  11.348   8.086
  148POPC   GL1 2260   0.237  11.466   7.682
  148POPC   GL2 2261   0.556  11.307   7.727
  148POPC   C1A 2262   0.250  11.244   7.272
  148POPC   D2A 2263   0.135  11.011   6.887
  148POPC   C3A 2264   0.220  11.212   6.505
  148POPC   C4A 2265   0.193  11.433   6.101
  148POPC   C1B 2266   0.613  10.920   7.434
  148POPC   C2B 2267   0.637  10.991   6.972
  148POPC   C3B 2268   0.625  10.845   6.535
  148POPC   C4B 2269   0.594  11.137   6.183
  149POPC   NC3 2270   0.847   5.544   7.691
  149POPC   PO4 2271   0.969   4.967   7.990
  149POPC   GL1 2272   1.064   5.102   7.610
  149POPC   GL2 2273   1.374   5.136   7.662
  149POPC   C1A 2274   1.130   5.195   7.182
  149POPC   D2A 2275   0.964   5.011   6.852
  149POPC   C3A 2276   0.945   5.359   6.647
  149POPC   C4A 2277   1.030   5.255   6.250
  149POPC   C1B 2278   1.513   4.895   7.338
  149POPC   C2B 2279   1.439   4.820   6.949
  149POPC   C3B 2280   1.401   5.071   6.588
  149POPC   C4B 2281   1.350   4.887   6.198
  150POPC   NC3 2282   1.083   4.223   8.021
  150POPC   PO4 2283   1.657   4.675   7.917
  150POPC   GL1 2284   1.257   4.622   7.703
  150POPC   GL2 2285   1.179   4.305   7.538
  150POPC   C1A 2286   1.038   4.706   7.290
  150POPC   D2A 2287   1.055   4.445   6.941
  150POPC   C3A 2288   1.268   4.536   6.569
  150POPC   C4A 2289   1.174   4.423   6.164
  150POPC   C1B 2290   0.876   4.101   7.291
  150POPC   C2B 2291   0.915   3.956   6.876
  150POPC   C3B 2292   0.818   4.183   6.499
  150POPC   C4B 2293   0.875   4.028   6.094
  151POPC   NC3 2294   0.407   0.970   7.912
  151POPC   PO4 2295   0.800   1.499   8.105
  151POPC   GL1 2296   0.727   1.342   7.726
  151POPC   GL2 2297   0.371   1.432   7.658
  151POPC   C1A 2298   0.779   1.338   7.300
  151POPC   D2A 2299   0.683   1.062   6.928
  151POPC   C3A 2300   0.623   1.251   6.544
  151POPC   C4A 2301   0.803   1.423   6.145
  151POPC   C1B 2302   0.309   1.160   7.278
  151POPC   C2B 2303   0.156   0.982   6.880
  151POPC   C3B 2304   0.079   1.009   6.438
  151POPC   C4B 2305   0.401   1.063   6.127
  152POPC   NC3 2306   0.406   1.802   8.072
  152POPC   PO4 2307   0.010   2.396   8.098
  152POPC   GL1 2308   0.044   2.216   7.677
  152POPC   GL2 2309   0.242   1.947   7.634
  152POPC   C1A 2310   0.302   2.280   7.272
  152POPC   D2A 2311   0.400   2.084   6.899
  152POPC   C3A 2312   0.524   2.237   6.534
  152POPC   C4A 2313   0.385   2.327   6.149
  152POPC   C1B 2314   0.543   1.803   7.328
  152POPC   C2B 2315   0.508   1.583   6.929
  152POPC   C3B 2316   0.645   1.747   6.524
  152POPC   C4B 2317   0.563   1.873   6.084
  153POPC   NC3 2318   9.463   6.255   8.050
  153POPC   PO4 2319   9.268   6.869   8.190
  153POPC   GL1 2320   9.477   6.726   7.769
  153POPC   GL2 2321   9.800   6.578   7.728
  153POPC   C1A 2322   9.507   6.548   7.303
  153POPC   D2A 2323   9.533   6.754   6.866
  153POPC   C3A 2324   9.472   6.549   6.449
  153POPC   C4A 2325   9.156   6.297   6.270
  153POPC   C1B 2326  10.027   6.438   7.374
  153POPC   C2B 2327  10.004   6.616   6.999
  153POPC   C3B 2328   9.943   6.476   6.624
  153POPC   C4B 2329  10.068   6.624   6.268
  154POPC   NC3 2330   2.706   8.752   8.049
  154POPC   PO4 2331   3.151   9.320   8.091
  154POPC   GL1 2332   2.820   9.166   7.722
  154POPC   GL2 2333   2.810   8.845   7.566
  154POPC   C1A 2334   2.581   9.148   7.268
  154POPC   D2A 2335   2.687   8.963   6.854
  154POPC   C3A 2336   2.579   9.171   6.451
  154POPC   C4A 2337   2.437   9.319   5.972
  154POPC   C1B 2338   2.624   8.602   7.233
  154POPC   C2B 2339   2.665   8.448   6.804
  154POPC   C3B 2340   2.595   8.658   6.427
  154POPC   C4B 2341   2.671   8.880   6.043
  155POPC   NC3 2342   0.221   7.346   8.155
  155POPC   PO4 2343  11.044   7.235   8.229
  155POPC   GL1 2344  11.296   7.215   7.818
  155POPC   GL2 2345  11.102   7.411   7.595
  155POPC   C1A 2346   0.012   7.231   7.365
  155POPC   D2A 2347  11.442   7.147   6.884
  155POPC   C3A 2348   0.006   7.516   6.590
  155POPC   C4A 2349  11.497   7.713   6.170
  155POPC   C1B 2350  11.036   7.137   7.204
  155POPC   C2B 2351  10.819   7.197   6.830
  155POPC   C3B 2352  10.979   7.325   6.441
  155POPC   C4B 2353  11.342   7.217   6.227
  156POPC   NC3 2354  10.167   4.288   8.025
  156POPC   PO4 2355  10.733   4.620   8.068
  156POPC   GL1 2356  10.512   4.453   7.666
  156POPC   GL2 2357  10.500   4.065   7.700
  156POPC   C1A 2358  10.242   4.519   7.272
  156POPC   D2A 2359  10.002   4.273   6.967
  156POPC   C3A 2360  10.130   4.429   6.561
  156POPC   C4A 2361  10.024   4.465   6.158
  156POPC   C1B 2362  10.524   4.114   7.271
  156POPC   C2B 2363  10.509   4.253   6.859
  156POPC   C3B 2364  10.665   3.986   6.508
  156POPC   C4B 2365  10.452   4.202   6.196
  157POPC   NC3 2366  10.396  11.202   8.096
  157POPC   PO4 2367   9.771  11.303   8.105
  157POPC   GL1 2368   9.965  11.125   7.756
  157POPC   GL2 2369  10.221  11.353   7.620
  157POPC   C1A 2370   9.968  11.026   7.315
  157POPC   D2A 2371  10.131  11.301   6.969
  157POPC   C3A 2372  10.109  11.132   6.529
  157POPC   C4A 2373  10.198  11.286   6.112
  157POPC   C1B 2374  10.479  11.079   7.341
  157POPC   C2B 2375  10.651  11.172   6.943
  157POPC   C3B 2376  10.814  11.277   6.558
  157POPC   C4B 2377  10.597  11.042   6.287
  158POPC   NC3 2378   1.392  11.074   8.057
  158POPC   PO4 2379   0.870   0.062   8.085
  158POPC   GL1 2380   1.151  11.416   7.751
  158POPC   GL2 2381   1.015  11.092   7.709
  158POPC   C1A 2382   1.365  11.218   7.364
  158POPC   D2A 2383   1.146  11.060   6.982
  158POPC   C3A 2384   1.337  11.107   6.597
  158POPC   C4A 2385   1.586  11.235   6.257
  158POPC   C1B 2386   0.859  11.349   7.327
  158POPC   C2B 2387   0.786   0.015   6.929
  158POPC   C3B 2388   0.873  11.297   6.562
  158POPC   C4B 2389   1.087  11.083   6.161
  159POPC   NC3 2390   0.235   9.628   8.069
  159POPC   PO4 2391   0.825   9.293   8.131
  159POPC   GL1 2392   0.515   9.331   7.782
  159POPC   GL2 2393   0.519   9.690   7.663
  159POPC   C1A 2394   0.359   9.319   7.353
  159POPC   D2A 2395   0.694   9.402   7.066
  159POPC   C3A 2396   0.802   9.387   6.637
  159POPC   C4A 2397   0.826   9.236   6.228
  159POPC   C1B 2398   0.212   9.806   7.343
  159POPC   C2B 2399   0.231   9.584   6.922
  159POPC   C3B 2400   0.444   9.738   6.543
  159POPC   C4B 2401   0.380   9.998   6.170
  160POPC   NC3 2402   9.810   5.725   8.007
  160POPC   PO4 2403   9.143   5.944   7.965
  160POPC   GL1 2404   9.507   5.922   7.643
  160POPC   GL2 2405   9.743   5.630   7.537
  160POPC   C1A 2406   9.657   6.038   7.236
  160POPC   D2A 2407   9.528   6.237   6.866
  160POPC   C3A 2408   9.549   6.024   6.480
  160POPC   C4A 2409   9.330   5.718   6.218
  160POPC   C1B 2410   9.881   5.470   7.183
  160POPC   C2B 2411   9.766   5.685   6.842
  160POPC   C3B 2412   9.754   5.533   6.454
  160POPC   C4B 2413   9.840   5.789   6.127
  161POPC   NC3 2414   6.146  10.117   8.070
  161POPC   PO4 2415   5.906  10.700   8.148
  161POPC   GL1 2416   6.008  10.551   7.756
  161POPC   GL2 2417   5.765  10.823   7.601
  161POPC   C1A 2418   6.079  10.181   7.443
  161POPC   D2A 2419   6.083  10.363   7.049
  161POPC   C3A 2420   6.120  10.194   6.685
  161POPC   C4A 2421   5.981  10.302   6.327
  161POPC   C1B 2422   5.690  10.490   7.364
  161POPC   C2B 2423   5.548  10.307   7.004
  161POPC   C3B 2424   5.574  10.420   6.623
  161POPC   C4B 2425   5.490  10.287   6.251
  162POPC   NC3 2426   4.338   2.308   8.033
  162POPC   PO4 2427   4.558   1.711   8.071
  162POPC   GL1 2428   4.383   1.615   7.671
  162POPC   GL2 2429   4.208   1.934   7.684
  162POPC   C1A 2430   4.406   1.832   7.237
  162POPC   D2A 2431   4.297   1.894   6.805
  162POPC   C3A 2432   4.560   2.041   6.461
  162POPC   C4A 2433   4.424   1.939   6.042
  162POPC   C1B 2434   4.147   2.257   7.356
  162POPC   C2B 2435   4.014   2.327   6.937
  162POPC   C3B 2436   4.131   2.325   6.519
  162POPC   C4B 2437   4.005   2.205   6.130
  163POPC   NC3 2438   8.906   5.568   8.049
  163POPC   PO4 2439   9.471   5.436   8.101
  163POPC   GL1 2440   9.287   5.448   7.672
  163POPC   GL2 2441   9.037   5.693   7.545
  163POPC   C1A 2442   9.370   5.569   7.196
  163POPC   D2A 2443   9.273   5.656   6.737
  163POPC   C3A 2444   8.924   5.515   6.434
  163POPC   C4A 2445   8.937   5.458   5.963
  163POPC   C1B 2446   9.141   6.024   7.208
  163POPC   C2B 2447   9.034   6.101   6.753
  163POPC   C3B 2448   8.767   6.014   6.389
  163POPC   C4B 2449   8.691   6.315   6.038
  164POPC   NC3 2450   7.804   2.958   7.914
  164POPC   PO4 2451   8.169   2.471   8.083
  164POPC   GL1 2452   7.918   2.321   7.697
  164POPC   GL2 2453   7.834   2.608   7.571
  164POPC   C1A 2454   7.938   2.322   7.186
  164POPC   D2A 2455   7.951   2.678   6.826
  164POPC   C3A 2456   8.093   2.629   6.389
  164POPC   C4A 2457   8.019   2.316   6.094
  164POPC   C1B 2458   8.138   2.810   7.281
  164POPC   C2B 2459   8.398   2.963   6.889
  164POPC   C3B 2460   8.276   3.111   6.442
  164POPC   C4B 2461   8.261   3.089   5.951
  165POPC   NC3 2462   1.165   0.400   7.971
  165POPC   PO4 2463   1.593   0.900   7.993
  165POPC   GL1 2464   1.508   0.666   7.588
  165POPC   GL2 2465   1.141   0.633   7.522
  165POPC   C1A 2466   1.439   0.607   7.108
  165POPC   D2A 2467   1.009   0.495   6.918
  165POPC   C3A 2468   1.076   0.546   6.484
  165POPC   C4A 2469   1.502   0.603   6.405
  165POPC   C1B 2470   1.215   0.214   7.319
  165POPC   C2B 2471   1.316   0.050   6.889
  165POPC   C3B 2472   1.280   0.097   6.433
  165POPC   C4B 2473   0.876   0.157   6.201
  166POPC   NC3 2474   9.543   2.762   8.151
  166POPC   PO4 2475  10.152   2.611   8.022
  166POPC   GL1 2476   9.867   2.809   7.740
  166POPC   GL2 2477   9.638   2.511   7.686
  166POPC   C1A 2478   9.718   2.837   7.310
  166POPC   D2A 2479   9.846   2.582   6.984
  166POPC   C3A 2480  10.104   2.777   6.696
  166POPC   C4A 2481   9.980   2.698   6.274
  166POPC   C1B 2482   9.470   2.324   7.287
  166POPC   C2B 2483   9.327   2.476   6.894
  166POPC   C3B 2484   9.464   2.824   6.700
  166POPC   C4B 2485   9.482   2.840   6.260
  167POPC   NC3 2486  10.525   8.488   7.852
  167POPC   PO4 2487  10.076   8.768   8.334
  167POPC   GL1 2488  10.185   8.890   7.811
  167POPC   GL2 2489  10.243   9.243   7.761
  167POPC   C1A 2490  10.276   8.752   7.326
  167POPC   D2A 2491  10.448   8.610   6.903
  167POPC   C3A 2492  10.303   8.816   6.529
  167POPC   C4A 2493  10.387   8.670   6.112
  167POPC   C1B 2494  10.078   9.214   7.343
  167POPC   C2B 2495  10.296   9.133   6.961
  167POPC   C3B 2496  10.638   9.189   6.682
  167POPC   C4B 2497  10.608   9.154   6.229
  168POPC   NC3 2498   1.619   1.178   3.918
  168POPC   PO4 2499   0.970   0.952   3.942
  168POPC   GL1 2500   1.225   1.126   4.220
  168POPC   GL2 2501   1.045   1.372   4.392
  168POPC   C1A 2502   1.477   1.101   4.575
  168POPC   D2A 2503   1.350   1.082   5.006
  168POPC   C3A 2504   1.529   1.332   5.356
  168POPC   C4A 2505   1.659   0.959   5.612
  168POPC   C1B 2506   0.933   0.990   4.635
  168POPC   C2B 2507   0.867   0.882   5.078
  168POPC   C3B 2508   1.118   0.984   5.450
  168POPC   C4B 2509   1.118   1.420   5.660
  169POPC   NC3 2510  10.848   3.397   3.856
  169POPC   PO4 2511  10.161   3.455   3.862
  169POPC   GL1 2512  10.226   3.692   4.236
  169POPC   GL2 2513  10.599   3.709   4.237
  169POPC   C1A 2514  10.111   3.467   4.620
  169POPC   D2A 2515  10.198   3.198   4.982
  169POPC   C3A 2516   9.983   3.234   5.383
  169POPC   C4A 2517  10.151   3.338   5.773
  169POPC   C1B 2518  10.572   3.602   4.708
  169POPC   C2B 2519  10.358   3.684   5.134
  169POPC   C3B 2520  10.420   3.736   5.607
  169POPC   C4B 2521  10.712   3.837   5.966
  170POPC   NC3 2522   9.699   5.700   3.699
  170POPC   PO4 2523   9.301   5.354   3.936
  170POPC   GL1 2524   9.628   5.461   4.193
  170POPC   GL2 2525   9.646   5.809   4.240
  170POPC   C1A 2526   9.678   5.456   4.624
  170POPC   D2A 2527   9.445   5.448   4.986
  170POPC   C3A 2528   9.648   5.625   5.336
  170POPC   C4A 2529   9.539   5.636   5.756
  170POPC   C1B 2530   9.834   5.947   4.690
  170POPC   C2B 2531   9.864   6.049   5.150
  170POPC   C3B 2532   9.582   6.199   5.493
  170POPC   C4B 2533   9.503   6.116   5.936
  171POPC   NC3 2534   3.712  10.270   3.959
  171POPC   PO4 2535   3.963  10.828   4.001
  171POPC   GL1 2536   3.746  10.648   4.332
  171POPC   GL2 2537   3.381  10.638   4.285
  171POPC   C1A 2538   3.894  10.651   4.752
  171POPC   D2A 2539   3.911  10.814   5.151
  171POPC   C3A 2540   3.856  10.505   5.502
  171POPC   C4A 2541   3.771  10.316   5.930
  171POPC   C1B 2542   3.457  10.384   4.682
  171POPC   C2B 2543   3.464  10.526   5.123
  171POPC   C3B 2544   3.351  10.373   5.542
  171POPC   C4B 2545   3.365  10.024   5.781
  172POPC   NC3 2546  10.450   2.106   3.946
  172POPC   PO4 2547   9.854   1.992   4.163
  172POPC   GL1 2548  10.124   2.229   4.397
  172POPC   GL2 2549  10.393   1.965   4.427
  172POPC   C1A 2550  10.332   2.272   4.811
  172POPC   D2A 2551  10.385   2.041   5.186
  172POPC   C3A 2552  10.317   2.351   5.515
  172POPC   C4A 2553  10.446   2.322   5.945
  172POPC   C1B 2554  10.563   1.598   4.662
  172POPC   C2B 2555  10.545   1.464   5.088
  172POPC   C3B 2556  10.540   1.609   5.518
  172POPC   C4B 2557  10.233   1.892   5.721
  173POPC   NC3 2558  10.122  11.167   3.904
  173POPC   PO4 2559  10.694  10.655   3.841
  173POPC   GL1 2560  10.478  10.919   4.226
  173POPC   GL2 2561  10.350  11.274   4.340
  173POPC   C1A 2562  10.326  10.925   4.696
  173POPC   D2A 2563  10.103  10.844   5.096
  173POPC   C3A 2564  10.382  10.755   5.421
  173POPC   C4A 2565  10.554  10.915   5.790
  173POPC   C1B 2566  10.118  11.460   4.677
  173POPC   C2B 2567  10.019  11.360   5.109
  173POPC   C3B 2568  10.152   0.122   5.465
  173POPC   C4B 2569  10.476  11.457   5.725
  174POPC   NC3 2570   6.428  11.381   3.891
  174POPC   PO4 2571   7.095  11.443   4.010
  174POPC   GL1 2572   6.773  11.302   4.259
  174POPC   GL2 2573   6.767  10.946   4.312
  174POPC   C1A 2574   6.500  11.337   4.597
  174POPC   D2A 2575   6.618  11.313   5.046
  174POPC   C3A 2576   6.368  11.496   5.373
  174POPC   C4A 2577   6.219  11.383   5.785
  174POPC   C1B 2578   6.607  10.866   4.746
  174POPC   C2B 2579   6.298  10.885   5.106
  174POPC   C3B 2580   6.464  10.962   5.518
  174POPC   C4B 2581   6.850  10.880   5.733
  175POPC   NC3 2582   2.993   9.850   3.987
  175POPC   PO4 2583   3.598   9.892   3.724
  175POPC   GL1 2584   3.667   9.794   4.184
  175POPC   GL2 2585   3.392   9.553   4.204
  175POPC   C1A 2586   3.758   9.963   4.639
  175POPC   D2A 2587   3.559   9.979   5.086
  175POPC   C3A 2588   3.804   9.965   5.502
  175POPC   C4A 2589   3.790   9.805   5.949
  175POPC   C1B 2590   3.428   9.564   4.664
  175POPC   C2B 2591   3.318   9.496   5.106
  175POPC   C3B 2592   3.460   9.578   5.520
  175POPC   C4B 2593   3.370   9.532   5.964
  176POPC   NC3 2594  10.529   7.914   3.845
  176POPC   PO4 2595  10.694   8.550   3.951
  176POPC   GL1 2596  10.470   8.394   4.315
  176POPC   GL2 2597  10.453   8.031   4.359
  176POPC   C1A 2598  10.435   8.299   4.776
  176POPC   D2A 2599  10.671   8.089   5.105
  176POPC   C3A 2600  10.495   8.363   5.376
  176POPC   C4A 2601  10.207   8.480   5.655
  176POPC   C1B 2602  10.371   7.788   4.766
  176POPC   C2B 2603  10.194   7.908   5.156
  176POPC   C3B 2604  10.247   7.959   5.583
  176POPC   C4B 2605  10.190   7.700   5.978
  177POPC   NC3 2606   9.537   2.290   4.309
  177POPC   PO4 2607   9.589   2.915   3.928
  177POPC   GL1 2608   9.477   2.808   4.301
  177POPC   GL2 2609   9.843   2.714   4.343
  177POPC   C1A 2610   9.436   2.750   4.743
  177POPC   D2A 2611   9.357   2.997   5.066
  177POPC   C3A 2612   9.483   2.907   5.430
  177POPC   C4A 2613   9.297   2.936   5.784
  177POPC   C1B 2614   9.922   2.579   4.748
  177POPC   C2B 2615   9.851   2.818   5.076
  177POPC   C3B 2616   9.956   2.716   5.462
  177POPC   C4B 2617   9.753   2.684   5.831
  178POPC   NC3 2618  10.775   0.407   3.742
  178POPC   PO4 2619  11.264   0.182   4.149
  178POPC   GL1 2620  11.276   0.558   4.383
  178POPC   GL2 2621   0.124   0.615   4.303
  178POPC   C1A 2622  11.036   0.553   4.805
  178POPC   D2A 2623  10.943   0.183   5.101
  178POPC   C3A 2624  11.066   0.267   5.541
  178POPC   C4A 2625  11.054   0.672   5.749
  178POPC   C1B 2626   0.128   0.391   4.708
  178POPC   C2B 2627  11.442   0.455   5.090
  178POPC   C3B 2628   0.048   0.471   5.479
  178POPC   C4B 2629  11.485   0.325   5.853
  179POPC   NC3 2630   6.646   9.562   3.846
  179POPC   PO4 2631   6.174   9.934   3.797
  179POPC   GL1 2632   6.386   9.895   4.202
  179POPC   GL2 2633   6.644   9.664   4.351
  179POPC   C1A 2634   6.371  10.013   4.651
  179POPC   D2A 2635   6.412   9.805   5.041
  179POPC   C3A 2636   6.247   9.849   5.456
  179POPC   C4A 2637   6.384   9.567   5.798
  179POPC   C1B 2638   6.853   9.849   4.732
  179POPC   C2B 2639   6.862  10.031   5.140
  179POPC   C3B 2640   6.750   9.834   5.522
  179POPC   C4B 2641   6.718   9.912   5.958
  180POPC   NC3 2642   9.330   8.986   3.813
  180POPC   PO4 2643  10.040   9.064   3.750
  180POPC   GL1 2644   9.724   9.196   4.113
  180POPC   GL2 2645   9.541   8.891   4.270
  180POPC   C1A 2646   9.592   9.302   4.573
  180POPC   D2A 2647   9.778   9.176   4.986
  180POPC   C3A 2648   9.610   9.219   5.401
  180POPC   C4A 2649   9.682   9.121   5.818
  180POPC   C1B 2650   9.469   8.825   4.719
  180POPC   C2B 2651   9.306   8.861   5.136
  180POPC   C3B 2652   9.369   8.788   5.583
  180POPC   C4B 2653   9.747   8.614   5.736
  181POPC   NC3 2654  11.197   8.379   4.074
  181POPC   PO4 2655  10.955   7.830   3.723
  181POPC   GL1 2656  10.945   7.929   4.176
  181POPC   GL2 2657  11.276   7.875   4.202
  181POPC   C1A 2658  10.916   8.097   4.638
  181POPC   D2A 2659  11.183   8.187   5.044
  181POPC   C3A 2660  10.988   8.333   5.460
  181POPC   C4A 2661  10.722   8.345   5.843
  181POPC   C1B 2662  11.323   7.766   4.635
  181POPC   C2B 2663  11.105   7.644   5.015
  181POPC   C3B 2664  11.041   7.826   5.432
  181POPC   C4B 2665  11.414   7.933   5.703
  182POPC   NC3 2666   5.727  10.929   3.933
  182POPC   PO4 2667   6.424  10.937   3.672
  182POPC   GL1 2668   6.232  10.943   4.134
  182POPC   GL2 2669   6.037  11.280   4.214
  182POPC   C1A 2670   6.132  10.979   4.602
  182POPC   D2A 2671   6.095  11.335   4.932
  182POPC   C3A 2672   5.942  11.219   5.356
  182POPC   C4A 2673   5.989  10.931   5.692
  182POPC   C1B 2674   5.723  11.282   4.580
  182POPC   C2B 2675   5.561  11.316   5.018
  182POPC   C3B 2676   5.469  11.428   5.454
  182POPC   C4B 2677   5.677  11.340   5.845
  183POPC   NC3 2678   1.118   8.123   3.786
  183POPC   PO4 2679   1.681   8.373   3.978
  183POPC   GL1 2680   1.382   8.206   4.241
  183POPC   GL2 2681   1.062   8.155   4.305
  183POPC   C1A 2682   1.443   8.063   4.661
  183POPC   D2A 2683   1.286   8.179   5.079
  183POPC   C3A 2684   1.351   7.910   5.444
  183POPC   C4A 2685   1.456   8.144   5.806
  183POPC   C1B 2686   0.946   8.022   4.722
  183POPC   C2B 2687   0.782   8.173   5.133
  183POPC   C3B 2688   0.927   8.164   5.540
  183POPC   C4B 2689   0.975   7.900   5.885
  184POPC   NC3 2690  10.989  10.978   4.044
  184POPC   PO4 2691  10.595   0.033   3.981
  184POPC   GL1 2692  10.863  11.359   4.350
  184POPC   GL2 2693  11.228  11.236   4.404
  184POPC   C1A 2694  10.786  11.210   4.753
  184POPC   D2A 2695  10.550  11.286   5.145
  184POPC   C3A 2696  10.878  11.293   5.459
  184POPC   C4A 2697  10.906  11.252   5.916
  184POPC   C1B 2698  11.297  11.457   4.804
  184POPC   C2B 2699  11.400  11.471   5.248
  184POPC   C3B 2700  11.370  11.357   5.670
  184POPC   C4B 2701  11.375  11.050   5.966
  185POPC   NC3 2702   2.033  11.056   3.827
  185POPC   PO4 2703   2.581  10.553   3.829
  185POPC   GL1 2704   2.317  10.660   4.232
  185POPC   GL2 2705   2.083  10.934   4.309
  185POPC   C1A 2706   2.368  10.780   4.691
  185POPC   D2A 2707   2.298  11.076   5.021
  185POPC   C3A 2708   2.095  10.980   5.376
  185POPC   C4A 2709   2.213  11.082   5.744
  185POPC   C1B 2710   1.920  11.135   4.685
  185POPC   C2B 2711   1.686  11.142   5.047
  185POPC   C3B 2712   1.603  11.064   5.442
  185POPC   C4B 2713   1.753  11.310   5.770
  186POPC   NC3 2714   3.635   2.892   3.798
  186POPC   PO4 2715   2.995   3.147   4.013
  186POPC   GL1 2716   3.357   2.948   4.253
  186POPC   GL2 2717   3.345   2.577   4.219
  186POPC   C1A 2718   3.374   2.778   4.718
  186POPC   D2A 2719   3.238   2.820   5.183
  186POPC   C3A 2720   3.570   2.834   5.539
  186POPC   C4A 2721   3.778   2.980   5.962
  186POPC   C1B 2722   3.104   2.363   4.599
  186POPC   C2B 2723   3.231   2.300   5.054
  186POPC   C3B 2724   3.233   2.422   5.543
  186POPC   C4B 2725   3.133   2.388   6.032
  187POPC   NC3 2726   9.691   1.559   4.215
  187POPC   PO4 2727   9.262   2.159   3.970
  187POPC   GL1 2728   9.135   1.984   4.395
  187POPC   GL2 2729   9.473   1.856   4.558
  187POPC   C1A 2730   9.065   1.814   4.843
  187POPC   D2A 2731   9.463   1.840   5.112
  187POPC   C3A 2732   9.570   1.754   5.555
  187POPC   C4A 2733   9.502   1.899   5.988
  187POPC   C1B 2734   9.868   1.998   4.822
  187POPC   C2B 2735   9.920   2.269   5.184
  187POPC   C3B 2736   9.812   2.212   5.632
  187POPC   C4B 2737   9.922   2.222   6.068
  188POPC   NC3 2738   2.738   7.362   3.915
  188POPC   PO4 2739   2.987   6.878   3.978
  188POPC   GL1 2740   2.888   7.176   4.381
  188POPC   GL2 2741   2.659   7.488   4.411
  188POPC   C1A 2742   2.852   7.254   4.868
  188POPC   D2A 2743   2.963   7.035   5.271
  188POPC   C3A 2744   3.004   7.262   5.666
  188POPC   C4A 2745   2.956   7.270   6.119
  188POPC   C1B 2746   2.432   7.138   4.612
  188POPC   C2B 2747   2.287   7.111   5.054
  188POPC   C3B 2748   2.511   7.230   5.438
  188POPC   C4B 2749   2.581   7.480   5.838
  189POPC   NC3 2750   8.497  11.306   4.132
  189POPC   PO4 2751   8.362  10.703   3.771
  189POPC   GL1 2752   8.340  10.789   4.207
  189POPC   GL2 2753   8.085  11.017   4.263
  189POPC   C1A 2754   8.384  10.939   4.657
  189POPC   D2A 2755   8.174  11.255   4.919
  189POPC   C3A 2756   8.089  11.144   5.344
  189POPC   C4A 2757   8.302  11.060   5.725
  189POPC   C1B 2758   7.844  11.297   4.520
  189POPC   C2B 2759   7.650  11.304   4.907
  189POPC   C3B 2760   7.572  11.283   5.323
  189POPC   C4B 2761   7.759  11.293   5.713
  190POPC   NC3 2762   5.742   0.193   3.593
  190POPC   PO4 2763   5.284   0.482   3.939
  190POPC   GL1 2764   5.011   0.458   4.325
  190POPC   GL2 2765   4.951   0.107   4.490
  190POPC   C1A 2766   5.141   0.508   4.757
  190POPC   D2A 2767   5.259   0.235   5.057
  190POPC   C3A 2768   5.303   0.429   5.424
  190POPC   C4A 2769   5.084   0.429   5.788
  190POPC   C1B 2770   4.666   0.293   4.718
  190POPC   C2B 2771   4.693   0.514   5.042
  190POPC   C3B 2772   4.718   0.494   5.427
  190POPC   C4B 2773   4.698   0.743   5.757
  191POPC   NC3 2774   4.778   1.744   3.898
  191POPC   PO4 2775   4.812   2.415   3.933
  191POPC   GL1 2776   4.891   2.198   4.317
  191POPC   GL2 2777   5.057   1.878   4.305
  191POPC   C1A 2778   4.704   2.180   4.748
  191POPC   D2A 2779   4.504   2.160   5.159
  191POPC   C3A 2780   4.809   2.249   5.483
  191POPC   C4A 2781   4.850   2.162   5.915
  191POPC   C1B 2782   4.856   1.702   4.682
  191POPC   C2B 2783   4.876   1.817   5.141
  191POPC   C3B 2784   5.071   1.814   5.602
  191POPC   C4B 2785   5.278   1.910   6.026
  192POPC   NC3 2786   4.176   0.227   3.837
  192POPC   PO4 2787   4.698  11.478   4.056
  192POPC   GL1 2788   4.364   0.205   4.332
  192POPC   GL2 2789   4.180   0.527   4.311
  192POPC   C1A 2790   4.163   0.158   4.757
  192POPC   D2A 2791   4.421   0.063   5.125
  192POPC   C3A 2792   4.328   0.169   5.531
  192POPC   C4A 2793   4.635   0.194   5.842
  192POPC   C1B 2794   4.289   0.658   4.746
  192POPC   C2B 2795   4.183   0.536   5.163
  192POPC   C3B 2796   4.230   0.690   5.567
  192POPC   C4B 2797   4.261   0.875   5.982
  193POPC   NC3 2798   1.216   2.090   4.002
  193POPC   PO4 2799   1.692   1.644   3.934
  193POPC   GL1 2800   1.508   1.600   4.354
  193POPC   GL2 2801   1.265   1.867   4.442
  193POPC   C1A 2802   1.349   1.539   4.796
  193POPC   D2A 2803   1.056   1.564   5.138
  193POPC   C3A 2804   1.212   1.880   5.398
  193POPC   C4A 2805   1.458   1.799   5.749
  193POPC   C1B 2806   0.896   1.874   4.724
  193POPC   C2B 2807   0.768   2.073   5.116
  193POPC   C3B 2808   0.963   2.379   5.353
  193POPC   C4B 2809   1.186   2.263   5.747
  194POPC   NC3 2810   5.852   0.517   4.072
  194POPC   PO4 2811   5.609  11.416   3.942
  194POPC   GL1 2812   5.528   0.201   4.353
  194POPC   GL2 2813   5.503   0.580   4.419
  194POPC   C1A 2814   5.707   0.272   4.793
  194POPC   D2A 2815   5.998   0.297   5.159
  194POPC   C3A 2816   5.892   0.226   5.571
  194POPC   C4A 2817   5.586   0.366   5.844
  194POPC   C1B 2818   5.889   0.740   4.656
  194POPC   C2B 2819   6.162   0.742   4.969
  194POPC   C3B 2820   6.081   0.885   5.400
  194POPC   C4B 2821   5.947   0.716   5.806
  195POPC   NC3 2822   4.005   9.695   3.791
  195POPC   PO4 2823   4.670   9.485   4.093
  195POPC   GL1 2824   4.241   9.522   4.191
  195POPC   GL2 2825   4.196   9.855   4.294
  195POPC   C1A 2826   3.943   9.490   4.544
  195POPC   D2A 2827   3.976   9.622   4.987
  195POPC   C3A 2828   4.207   9.365   5.310
  195POPC   C4A 2829   3.966   9.448   5.646
  195POPC   C1B 2830   4.426   9.728   4.702
  195POPC   C2B 2831   4.455   9.767   5.176
  195POPC   C3B 2832   4.496   9.763   5.639
  195POPC   C4B 2833   4.702  10.169   5.776
  196POPC   NC3 2834   2.990   1.808   4.006
  196POPC   PO4 2835   2.458   1.480   3.706
  196POPC   GL1 2836   2.378   1.694   4.220
  196POPC   GL2 2837   2.495   2.022   4.180
  196POPC   C1A 2838   2.274   1.766   4.657
  196POPC   D2A 2839   2.586   1.628   4.964
  196POPC   C3A 2840   2.546   1.776   5.400
  196POPC   C4A 2841   2.724   1.665   5.812
  196POPC   C1B 2842   2.725   1.986   4.576
  196POPC   C2B 2843   2.616   2.133   4.972
  196POPC   C3B 2844   2.834   2.178   5.343
  196POPC   C4B 2845   2.733   2.192   5.766
  197POPC   NC3 2846   7.585  11.425   3.875
  197POPC   PO4 2847   7.252   0.540   3.707
  197POPC   GL1 2848   7.422   0.496   4.185
  197POPC   GL2 2849   7.666   0.234   4.250
  197POPC   C1A 2850   7.232   0.601   4.632
  197POPC   D2A 2851   7.385   0.849   4.995
  197POPC   C3A 2852   7.286   0.730   5.417
  197POPC   C4A 2853   7.030   0.490   5.690
  197POPC   C1B 2854   7.412   0.124   4.586
  197POPC   C2B 2855   7.476   0.283   4.995
  197POPC   C3B 2856   7.371   0.228   5.406
  197POPC   C4B 2857   7.457   0.231   5.829
  198POPC   NC3 2858   1.145   7.615   3.713
  198POPC   PO4 2859   1.540   7.034   3.893
  198POPC   GL1 2860   1.370   7.341   4.194
  198POPC   GL2 2861   1.155   7.154   4.427
  198POPC   C1A 2862   1.475   7.548   4.597
  198POPC   D2A 2863   1.285   7.654   4.999
  198POPC   C3A 2864   1.398   7.331   5.319
  198POPC   C4A 2865   1.488   7.057   5.703
  198POPC   C1B 2866   0.918   7.512   4.620
  198POPC   C2B 2867   0.721   7.658   5.018
  198POPC   C3B 2868   0.896   7.669   5.426
  198POPC   C4B 2869   1.199   7.480   5.748
  199POPC   NC3 2870   0.883   3.635   3.886
  199POPC   PO4 2871   0.528   3.014   3.905
  199POPC   GL1 2872   0.576   3.322   4.225
  199POPC   GL2 2873   0.690   3.660   4.391
  199POPC   C1A 2874   0.478   3.270   4.650
  199POPC   D2A 2875   0.666   3.527   4.948
  199POPC   C3A 2876   0.656   3.349   5.350
  199POPC   C4A 2877   0.396   3.197   5.664
  199POPC   C1B 2878   0.274   3.729   4.626
  199POPC   C2B 2879   0.158   3.519   5.035
  199POPC   C3B 2880   0.264   3.646   5.454
  199POPC   C4B 2881   0.099   3.721   5.830
  200POPC   NC3 2882  10.459   5.770   3.956
  200POPC   PO4 2883   9.985   5.274   3.878
  200POPC   GL1 2884  10.142   5.526   4.270
  200POPC   GL2 2885  10.538   5.541   4.392
  200POPC   C1A 2886  10.174   5.403   4.703
  200POPC   D2A 2887  10.146   5.631   5.070
  200POPC   C3A 2888  10.142   5.512   5.498
  200POPC   C4A 2889   9.967   5.909   5.657
  200POPC   C1B 2890  10.467   5.858   4.701
  200POPC   C2B 2891  10.421   6.043   5.126
  200POPC   C3B 2892  10.470   5.910   5.545
  200POPC   C4B 2893  10.691   6.160   5.834
  201POPC   NC3 2894   8.938   5.621   3.795
  201POPC   PO4 2895   8.453   5.858   4.099
  201POPC   GL1 2896   8.793   5.582   4.314
  201POPC   GL2 2897   9.153   5.587   4.346
  201POPC   C1A 2898   8.921   5.619   4.790
  201POPC   D2A 2899   8.823   5.929   5.135
  201POPC   C3A 2900   8.669   5.768   5.561
  201POPC   C4A 2901   8.526   5.795   6.002
  201POPC   C1B 2902   9.314   5.908   4.618
  201POPC   C2B 2903   9.362   5.970   5.060
  201POPC   C3B 2904   9.186   5.879   5.483
  201POPC   C4B 2905   9.018   5.963   5.892
  202POPC   NC3 2906   6.013   1.497   3.957
  202POPC   PO4 2907   5.701   0.938   4.010
  202POPC   GL1 2908   5.524   1.090   4.379
  202POPC   GL2 2909   5.573   1.414   4.298
  202POPC   C1A 2910   5.460   0.958   4.810
  202POPC   D2A 2911   5.650   0.708   5.147
  202POPC   C3A 2912   5.571   0.946   5.533
  202POPC   C4A 2913   5.385   1.381   5.589
  202POPC   C1B 2914   5.971   1.253   4.549
  202POPC   C2B 2915   5.937   1.189   4.977
  202POPC   C3B 2916   5.852   1.369   5.358
  202POPC   C4B 2917   5.944   1.232   5.775
  203POPC   NC3 2918   7.010   1.417   3.979
  203POPC   PO4 2919   6.933   2.121   3.907
  203POPC   GL1 2920   7.290   1.965   4.206
  203POPC   GL2 2921   7.557   2.197   4.323
  203POPC   C1A 2922   7.476   1.807   4.622
  203POPC   D2A 2923   7.343   1.689   5.043
  203POPC   C3A 2924   7.352   1.714   5.474
  203POPC   C4A 2925   7.007   1.799   5.689
  203POPC   C1B 2926   7.653   2.284   4.779
  203POPC   C2B 2927   7.527   2.151   5.209
  203POPC   C3B 2928   7.312   2.222   5.610
  203POPC   C4B 2929   7.451   2.353   6.006
  204POPC   NC3 2930   7.994   1.474   3.810
  204POPC   PO4 2931   7.940   0.814   3.889
  204POPC   GL1 2932   8.270   0.966   4.147
  204POPC   GL2 2933   8.037   1.203   4.249
  204POPC   C1A 2934   8.462   1.124   4.550
  204POPC   D2A 2935   8.488   0.964   4.992
  204POPC   C3A 2936   8.512   1.205   5.373
  204POPC   C4A 2937   8.478   1.190   5.826
  204POPC   C1B 2938   7.975   1.170   4.681
  204POPC   C2B 2939   8.126   1.363   5.067
  204POPC   C3B 2940   8.044   1.318   5.518
  204POPC   C4B 2941   8.135   1.567   5.855
  205POPC   NC3 2942   8.681   9.208   3.913
  205POPC   PO4 2943   8.999   8.633   3.871
  205POPC   GL1 2944   9.015   8.910   4.240
  205POPC   GL2 2945   8.702   8.996   4.405
  205POPC   C1A 2946   9.094   9.162   4.645
  205POPC   D2A 2947   8.834   9.042   5.003
  205POPC   C3A 2948   8.953   9.071   5.449
  205POPC   C4A 2949   8.663   8.972   5.751
  205POPC   C1B 2950   8.953   8.666   4.684
  205POPC   C2B 2951   8.903   8.536   5.140
  205POPC   C3B 2952   8.925   8.538   5.613
  205POPC   C4B 2953   8.908   8.674   6.061
  206POPC   NC3 2954   4.911  11.170   3.779
  206POPC   PO4 2955   4.262  11.284   3.731
  206POPC   GL1 2956   4.290  11.219   4.213
  206POPC   GL2 2957   4.051  11.065   4.429
  206POPC   C1A 2958   4.475  11.270   4.630
  206POPC   D2A 2959   4.314  11.093   4.979
  206POPC   C3A 2960   4.624  11.089   5.295
  206POPC   C4A 2961   4.628  11.198   5.710
  206POPC   C1B 2962   3.830  11.227   4.764
  206POPC   C2B 2963   3.905  11.400   5.162
  206POPC   C3B 2964   4.135  11.198   5.477
  206POPC   C4B 2965   4.018  10.929   5.804
  207POPC   NC3 2966   0.500  10.818   3.934
  207POPC   PO4 2967   0.735  11.483   4.016
  207POPC   GL1 2968   0.567  11.190   4.273
  207POPC   GL2 2969   0.209  11.143   4.194
  207POPC   C1A 2970   0.681  11.049   4.698
  207POPC   D2A 2971   0.910  11.301   4.990
  207POPC   C3A 2972   0.729  11.187   5.394
  207POPC   C4A 2973   0.805  11.349   5.782
  207POPC   C1B 2974   0.203  11.202   4.631
  207POPC   C2B 2975   0.279  10.976   5.006
  207POPC   C3B 2976   0.221  11.090   5.388
  207POPC   C4B 2977   0.336  11.086   5.757
  208POPC   NC3 2978   8.730  10.464   3.955
  208POPC   PO4 2979   9.339  10.494   3.732
  208POPC   GL1 2980   9.150  10.619   4.265
  208POPC   GL2 2981   8.897  10.396   4.424
  208POPC   C1A 2982   8.871  10.776   4.720
  208POPC   D2A 2983   8.543  10.716   5.082
  208POPC   C3A 2984   8.701  10.767   5.520
  208POPC   C4A 2985   9.089  10.533   5.621
  208POPC   C1B 2986   9.184  10.381   4.758
  208POPC   C2B 2987   9.002  10.437   5.129
  208POPC   C3B 2988   8.658  10.294   5.347
  208POPC   C4B 2989   8.606  10.239   5.765
  209POPC   NC3 2990   5.146   0.043   4.042
  209POPC   PO4 2991   5.325  10.998   3.701
  209POPC   GL1 2992   5.225  11.051   4.185
  209POPC   GL2 2993   4.844  11.059   4.322
  209POPC   C1A 2994   5.208  11.206   4.653
  209POPC   D2A 2995   4.887  11.387   4.969
  209POPC   C3A 2996   4.948   0.011   5.435
  209POPC   C4A 2997   5.136  11.426   5.877
  209POPC   C1B 2998   4.811  10.897   4.791
  209POPC   C2B 2999   5.049  10.811   5.188
  209POPC   C3B 3000   5.188  10.986   5.610
  209POPC   C4B 3001   4.942  10.973   6.037
  210POPC   NC3 3002   0.516  10.156   3.670
  210POPC   PO4 3003  11.413   9.896   3.911
  210POPC   GL1 3004   0.261  10.147   4.173
  210POPC   GL2 3005   0.394  10.439   4.228
  210POPC   C1A 3006   0.278  10.125   4.652
  210POPC   D2A 3007   0.079  10.075   5.079
  210POPC   C3A 3008   0.355  10.187   5.441
  210POPC   C4A 3009   0.349  10.400   5.850
  210POPC   C1B 3010   0.332  10.645   4.611
  210POPC   C2B 3011   0.472  10.499   5.034
  210POPC   C3B 3012   0.553  10.685   5.442
  210POPC   C4B 3013   0.706  10.767   5.857
  211POPC   NC3 3014   2.134   1.783   3.817
  211POPC   PO4 3015   2.325   2.416   3.880
  211POPC   GL1 3016   2.038   2.278   4.199
  211POPC   GL2 3017   1.929   1.940   4.279
  211POPC   C1A 3018   2.129   2.272   4.638
  211POPC   D2A 3019   1.975   2.243   5.051
  211POPC   C3A 3020   2.290   2.241   5.359
  211POPC   C4A 3021   2.201   2.250   5.767
  211POPC   C1B 3022   1.723   1.946   4.683
  211POPC   C2B 3023   1.652   1.809   5.107
  211POPC   C3B 3024   1.867   1.926   5.469
  211POPC   C4B 3025   1.694   2.241   5.693
  212POPC   NC3 3026  10.910   8.883   3.720
  212POPC   PO4 3027  11.473   8.627   3.809
  212POPC   GL1 3028  11.404   8.803   4.243
  212POPC   GL2 3029  11.163   9.018   4.159
  212POPC   C1A 3030  11.278   8.665   4.696
  212POPC   D2A 3031  11.308   8.712   5.127
  212POPC   C3A 3032  11.476   8.432   5.438
  212POPC   C4A 3033  11.219   8.778   5.656
  212POPC   C1B 3034  11.216   9.146   4.607
  212POPC   C2B 3035  11.024   9.124   4.977
  212POPC   C3B 3036  11.095   9.190   5.392
  212POPC   C4B 3037  10.909   9.187   5.788
  213POPC   NC3 3038   7.125  10.942   3.903
  213POPC   PO4 3039   7.844  11.017   3.830
  213POPC   GL1 3040   7.592  10.868   4.169
  213POPC   GL2 3041   7.414  11.156   4.274
  213POPC   C1A 3042   7.570  10.865   4.638
  213POPC   D2A 3043   7.478  10.845   5.073
  213POPC   C3A 3044   7.673  10.799   5.436
  213POPC   C4A 3045   7.454  10.887   5.800
  213POPC   C1B 3046   7.136  11.183   4.617
  213POPC   C2B 3047   7.135  11.362   4.995
  213POPC   C3B 3048   7.070  11.134   5.346
  213POPC   C4B 3049   7.211  11.316   5.704
  214POPC   NC3 3050   4.033   1.405   4.090
  214POPC   PO4 3051   3.387   1.540   3.840
  214POPC   GL1 3052   3.298   1.418   4.257
  214POPC   GL2 3053   3.551   1.166   4.223
  214POPC   C1A 3054   3.555   1.440   4.665
  214POPC   D2A 3055   3.932   1.513   4.937
  214POPC   C3A 3056   3.738   1.519   5.328
  214POPC   C4A 3057   3.510   1.536   5.690
  214POPC   C1B 3058   3.286   0.979   4.548
  214POPC   C2B 3059   3.352   0.864   4.968
  214POPC   C3B 3060   3.338   0.835   5.396
  214POPC   C4B 3061   3.536   1.027   5.701
  215POPC   NC3 3062   9.717   6.643   4.013
  215POPC   PO4 3063  10.066   6.060   3.859
  215POPC   GL1 3064   9.882   6.253   4.279
  215POPC   GL2 3065   9.487   6.335   4.356
  215POPC   C1A 3066   9.829   6.496   4.683
  215POPC   D2A 3067   9.626   6.504   5.088
  215POPC   C3A 3068   9.869   6.716   5.452
  215POPC   C4A 3069   9.847   6.473   5.834
  215POPC   C1B 3070   9.376   6.740   4.658
  215POPC   C2B 3071   9.400   6.945   5.103
  215POPC   C3B 3072   9.375   6.724   5.520
  215POPC   C4B 3073   9.382   6.612   5.944
  216POPC   NC3 3074   4.501   9.048   4.051
  216POPC   PO4 3075   3.925   9.195   3.896
  216POPC   GL1 3076   4.050   9.040   4.317
  216POPC   GL2 3077   4.363   9.169   4.520
  216POPC   C1A 3078   3.940   9.032   4.781
  216POPC   D2A 3079   3.760   9.168   5.182
  216POPC   C3A 3080   4.005   8.951   5.519
  216POPC   C4A 3081   4.139   8.530   5.655
  216POPC   C1B 3082   4.463   8.827   4.770
  216POPC   C2B 3083   4.393   8.834   5.210
  216POPC   C3B 3084   4.561   8.815   5.620
  216POPC   C4B 3085   4.743   8.907   6.010
  217POPC   NC3 3086   1.156   4.406   3.966
  217POPC   PO4 3087   1.695   4.797   4.127
  217POPC   GL1 3088   1.442   4.389   4.363
  217POPC   GL2 3089   1.172   4.032   4.299
  217POPC   C1A 3090   1.135   4.318   4.701
  217POPC   D2A 3091   1.273   4.492   5.039
  217POPC   C3A 3092   1.283   4.361   5.434
  217POPC   C4A 3093   1.438   4.600   5.768
  217POPC   C1B 3094   1.090   3.793   4.698
  217POPC   C2B 3095   0.973   3.905   5.136
  217POPC   C3B 3096   0.982   3.983   5.589
  217POPC   C4B 3097   1.346   4.070   5.870
  218POPC   NC3 3098   1.681   3.661   3.785
  218POPC   PO4 3099   2.188   3.738   4.051
  218POPC   GL1 3100   2.045   3.586   4.378
  218POPC   GL2 3101   2.210   3.288   4.335
  218POPC   C1A 3102   1.969   3.755   4.753
  218POPC   D2A 3103   1.894   3.931   5.137
  218POPC   C3A 3104   1.950   3.676   5.442
  218POPC   C4A 3105   2.119   3.685   5.818
  218POPC   C1B 3106   1.976   3.226   4.741
  218POPC   C2B 3107   2.074   3.237   5.186
  218POPC   C3B 3108   1.968   3.201   5.639
  218POPC   C4B 3109   2.176   3.248   6.036
  219POPC   NC3 3110  10.563   1.121   3.814
  219POPC   PO4 3111   9.988   1.479   3.865
  219POPC   GL1 3112  10.222   1.182   4.212
  219POPC   GL2 3113  10.626   1.176   4.306
  219POPC   C1A 3114  10.293   1.125   4.681
  219POPC   D2A 3115  10.066   1.253   5.056
  219POPC   C3A 3116  10.041   1.627   5.288
  219POPC   C4A 3117   9.974   1.409   5.664
  219POPC   C1B 3118  10.810   1.045   4.700
  219POPC   C2B 3119  10.637   0.959   5.094
  219POPC   C3B 3120  10.432   1.090   5.476
  219POPC   C4B 3121  10.643   1.011   5.876
  220POPC   NC3 3122   8.662   3.586   3.899
  220POPC   PO4 3123   9.227   3.342   3.733
  220POPC   GL1 3124   9.242   3.306   4.196
  220POPC   GL2 3125   8.905   3.401   4.307
  220POPC   C1A 3126   9.294   3.528   4.619
  220POPC   D2A 3127   9.262   3.815   5.018
  220POPC   C3A 3128   9.143   3.585   5.394
  220POPC   C4A 3129   8.996   3.416   5.788
  220POPC   C1B 3130   8.600   3.326   4.660
  220POPC   C2B 3131   8.506   3.219   5.115
  220POPC   C3B 3132   8.523   3.380   5.551
  220POPC   C4B 3133   8.379   3.673   5.887
  221POPC   NC3 3134   0.857   0.515   3.852
  221POPC   PO4 3135   1.419   0.181   3.788
  221POPC   GL1 3136   1.156   0.286   4.179
  221POPC   GL2 3137   1.134   0.617   4.319
  221POPC   C1A 3138   1.040   0.199   4.607
  221POPC   D2A 3139   0.970   0.376   5.003
  221POPC   C3A 3140   0.829   0.180   5.350
  221POPC   C4A 3141   0.979   0.347   5.727
  221POPC   C1B 3142   1.350   0.619   4.734
  221POPC   C2B 3143   1.611   0.562   5.125
  221POPC   C3B 3144   1.609   0.336   5.548
  221POPC   C4B 3145   1.407   0.540   5.908
  222POPC   NC3 3146   1.518   8.809   4.115
  222POPC   PO4 3147   0.859   8.826   3.925
  222POPC   GL1 3148   1.050   8.671   4.279
  222POPC   GL2 3149   1.099   9.010   4.394
  222POPC   C1A 3150   1.237   8.534   4.674
  222POPC   D2A 3151   1.030   8.638   5.075
  222POPC   C3A 3152   1.243   8.542   5.452
  222POPC   C4A 3153   1.358   8.660   5.851
  222POPC   C1B 3154   1.288   9.028   4.800
  222POPC   C2B 3155   1.323   9.041   5.225
  222POPC   C3B 3156   0.996   8.995   5.485
  222POPC   C4B 3157   1.147   9.137   5.846
  223POPC   NC3 3158   9.928   0.578   3.877
  223POPC   PO4 3159   9.688  11.421   3.867
  223POPC   GL1 3160   9.755   0.172   4.233
  223POPC   GL2 3161   9.478   0.393   4.211
  223POPC   C1A 3162   9.683   0.281   4.672
  223POPC   D2A 3163   9.911   0.337   5.013
  223POPC   C3A 3164   9.710   0.382   5.359
  223POPC   C4A 3165   9.792   0.469   5.760
  223POPC   C1B 3166   9.330   0.628   4.571
  223POPC   C2B 3167   9.292   0.466   4.997
  223POPC   C3B 3168   9.308   0.671   5.397
  223POPC   C4B 3169   9.307   0.683   5.815
  224POPC   NC3 3170   8.085   2.932   4.007
  224POPC   PO4 3171   7.870   2.343   3.637
  224POPC   GL1 3172   8.123   2.432   4.054
  224POPC   GL2 3173   7.959   2.495   4.354
  224POPC   C1A 3174   8.454   2.523   4.423
  224POPC   D2A 3175   8.496   2.788   4.827
  224POPC   C3A 3176   8.513   2.738   5.325
  224POPC   C4A 3177   8.384   2.569   5.758
  224POPC   C1B 3178   7.953   2.729   4.715
  224POPC   C2B 3179   8.044   2.958   5.077
  224POPC   C3B 3180   8.050   2.876   5.513
  224POPC   C4B 3181   7.864   2.744   5.902
  225POPC   NC3 3182   7.471   0.905   3.886
  225POPC   PO4 3183   7.561   1.612   3.910
  225POPC   GL1 3184   7.541   1.361   4.315
  225POPC   GL2 3185   7.434   0.999   4.386
  225POPC   C1A 3186   7.495   1.303   4.775
  225POPC   D2A 3187   7.626   1.299   5.206
  225POPC   C3A 3188   7.561   1.129   5.603
  225POPC   C4A 3189   7.639   1.463   5.823
  225POPC   C1B 3190   7.033   1.106   4.676
  225POPC   C2B 3191   6.918   1.370   5.045
  225POPC   C3B 3192   7.097   1.250   5.444
  225POPC   C4B 3193   7.086   0.966   5.825
  226POPC   NC3 3194  10.276   4.890   3.822
  226POPC   PO4 3195  10.807   5.395   3.953
  226POPC   GL1 3196  10.578   5.068   4.220
  226POPC   GL2 3197  10.179   5.026   4.299
  226POPC   C1A 3198  10.625   5.118   4.684
  226POPC   D2A 3199  10.442   5.222   5.090
  226POPC   C3A 3200  10.632   5.270   5.487
  226POPC   C4A 3201  10.407   5.174   5.866
  226POPC   C1B 3202  10.326   4.712   4.569
  226POPC   C2B 3203  10.329   4.732   5.023
  226POPC   C3B 3204  10.226   4.920   5.440
  226POPC   C4B 3205  10.000   4.777   5.774
  227POPC   NC3 3206   2.133   4.198   3.993
  227POPC   PO4 3207   1.463   4.074   3.864
  227POPC   GL1 3208   1.665   3.934   4.293
  227POPC   GL2 3209   1.904   4.113   4.412
  227POPC   C1A 3210   1.578   4.101   4.785
  227POPC   D2A 3211   1.746   4.395   5.179
  227POPC   C3A 3212   1.750   4.159   5.583
  227POPC   C4A 3213   1.853   4.052   6.025
  227POPC   C1B 3214   2.091   4.257   4.767
  227POPC   C2B 3215   2.277   4.244   5.164
  227POPC   C3B 3216   2.254   4.093   5.553
  227POPC   C4B 3217   2.333   4.266   5.958
  228POPC   NC3 3218  10.994   4.224   3.840
  228POPC   PO4 3219  11.457   4.689   3.878
  228POPC   GL1 3220  11.492   4.529   4.275
  228POPC   GL2 3221  11.122   4.498   4.300
  228POPC   C1A 3222   0.212   4.392   4.668
  228POPC   D2A 3223   0.222   4.405   5.131
  228POPC   C3A 3224  11.339   4.361   5.382
  228POPC   C4A 3225  11.161   4.558   5.774
  228POPC   C1B 3226  11.281   4.110   4.527
  228POPC   C2B 3227  11.451   3.983   4.943
  228POPC   C3B 3228  11.302   3.838   5.349
  228POPC   C4B 3229  11.146   4.030   5.734
  229POPC   NC3 3230   3.444   5.738   4.012
  229POPC   PO4 3231   3.851   5.498   4.284
  229POPC   GL1 3232   3.599   5.784   4.551
  229POPC   GL2 3233   3.344   6.016   4.433
  229POPC   C1A 3234   3.515   5.893   5.007
  229POPC   D2A 3235   3.608   5.735   5.453
  229POPC   C3A 3236   3.758   6.030   5.774
  229POPC   C4A 3237   3.668   6.086   6.203
  229POPC   C1B 3238   3.113   5.711   4.722
  229POPC   C2B 3239   3.123   5.603   5.180
  229POPC   C3B 3240   3.152   5.593   5.621
  229POPC   C4B 3241   3.270   5.906   5.871
  230POPC   NC3 3242   9.111   2.925   3.856
  230POPC   PO4 3243   8.501   3.141   3.989
  230POPC   GL1 3244   8.801   2.891   4.265
  230POPC   GL2 3245   8.931   2.531   4.156
  230POPC   C1A 3246   9.034   3.036   4.631
  230POPC   D2A 3247   8.999   3.323   4.979
  230POPC   C3A 3248   8.947   3.105   5.376
  230POPC   C4A 3249   8.734   2.964   5.753
  230POPC   C1B 3250   8.955   2.523   4.614
  230POPC   C2B 3251   8.954   2.689   5.041
  230POPC   C3B 3252   9.030   2.613   5.486
  230POPC   C4B 3253   8.928   2.525   5.927
  231POPC   NC3 3254  10.048   3.022   3.947
  231POPC   PO4 3255  10.480   2.537   3.785
  231POPC   GL1 3256  10.356   2.640   4.195
  231POPC   GL2 3257  10.609   2.448   4.361
  231POPC   C1A 3258  10.340   2.836   4.628
  231POPC   D2A 3259  10.350   2.711   5.088
  231POPC   C3A 3260  10.408   2.966   5.462
  231POPC   C4A 3261  10.268   2.796   5.855
  231POPC   C1B 3262  10.751   2.565   4.779
  231POPC   C2B 3263  10.763   2.435   5.191
  231POPC   C3B 3264  10.736   2.612   5.628
  231POPC   C4B 3265  10.743   2.821   6.038
  232POPC   NC3 3266   1.799   7.459   3.948
  232POPC   PO4 3267   2.424   7.704   3.969
  232POPC   GL1 3268   2.159   7.511   4.303
  232POPC   GL2 3269   2.058   7.152   4.247
  232POPC   C1A 3270   1.997   7.359   4.696
  232POPC   D2A 3271   1.794   7.447   5.026
  232POPC   C3A 3272   2.102   7.539   5.322
  232POPC   C4A 3273   2.192   7.752   5.720
  232POPC   C1B 3274   1.650   7.045   4.535
  232POPC   C2B 3275   1.647   6.937   4.988
  232POPC   C3B 3276   1.867   7.081   5.374
  232POPC   C4B 3277   2.115   7.235   5.752
  233POPC   NC3 3278   0.376   8.813   3.967
  233POPC   PO4 3279   0.097   8.298   4.299
  233POPC   GL1 3280   0.294   8.673   4.532
  233POPC   GL2 3281   0.585   8.890   4.414
  233POPC   C1A 3282   0.211   9.061   4.751
  233POPC   D2A 3283   0.034   9.197   5.131
  233POPC   C3A 3284   0.184   8.897   5.438
  233POPC   C4A 3285   0.219   8.653   5.832
  233POPC   C1B 3286   0.754   9.039   4.809
  233POPC   C2B 3287   0.566   9.174   5.212
  233POPC   C3B 3288   0.541   9.169   5.679
  233POPC   C4B 3289   0.724   8.827   5.901
  234POPC   NC3 3290   3.513   8.999   3.908
  234POPC   PO4 3291   3.285   8.456   4.104
  234POPC   GL1 3292   3.472   8.746   4.399
  234POPC   GL2 3293   3.538   9.101   4.415
  234POPC   C1A 3294   3.562   8.687   4.830
  234POPC   D2A 3295   3.771   8.637   5.215
  234POPC   C3A 3296   3.523   8.581   5.600
  234POPC   C4A 3297   3.435   8.474   6.051
  234POPC   C1B 3298   3.258   9.082   4.792
  234POPC   C2B 3299   3.300   8.961   5.253
  234POPC   C3B 3300   3.528   9.089   5.658
  234POPC   C4B 3301   3.364   9.029   6.081
  235POPC   NC3 3302   2.787   2.767   3.809
  235POPC   PO4 3303   3.221   2.192   3.880
  235POPC   GL1 3304   2.844   2.412   4.164
  235POPC   GL2 3305   2.896   2.782   4.355
  235POPC   C1A 3306   2.592   2.475   4.574
  235POPC   D2A 3307   2.817   2.596   4.978
  235POPC   C3A 3308   2.642   2.635   5.399
  235POPC   C4A 3309   2.841   2.710   5.783
  235POPC   C1B 3310   2.913   3.041   4.770
  235POPC   C2B 3311   2.591   3.097   5.153
  235POPC   C3B 3312   2.494   3.067   5.632
  235POPC   C4B 3313   2.565   2.966   6.106
  236POPC   NC3 3314   1.843   0.348   3.857
  236POPC   PO4 3315   1.703  11.242   4.088
  236POPC   GL1 3316   1.621   0.153   4.311
  236POPC   GL2 3317   1.674   0.542   4.309
  236POPC   C1A 3318   1.738   0.236   4.736
  236POPC   D2A 3319   2.107   0.065   4.933
  236POPC   C3A 3320   2.009  11.486   5.340
  236POPC   C4A 3321   2.167   0.146   5.704
  236POPC   C1B 3322   2.104   0.514   4.517
  236POPC   C2B 3323   2.155   0.586   4.971
  236POPC   C3B 3324   2.065   0.543   5.395
  236POPC   C4B 3325   2.388   0.635   5.702
  237POPC   NC3 3326   1.980   2.711   3.877
  237POPC   PO4 3327   2.433   3.071   3.777
  237POPC   GL1 3328   2.423   2.850   4.193
  237POPC   GL2 3329   2.100   2.762   4.365
  237POPC   C1A 3330   2.428   2.954   4.671
  237POPC   D2A 3331   2.315   2.642   4.995
  237POPC   C3A 3332   2.124   2.752   5.385
  237POPC   C4A 3333   2.170   2.755   5.839
  237POPC   C1B 3334   1.868   2.709   4.755
  237POPC   C2B 3335   1.530   2.530   4.991
  237POPC   C3B 3336   1.418   2.592   5.400
  237POPC   C4B 3337   1.696   2.731   5.680
  238POPC   NC3 3338   0.250   0.126   4.070
  238POPC   PO4 3339   0.421   0.755   3.828
  238POPC   GL1 3340   0.624   0.703   4.262
  238POPC   GL2 3341   0.639   0.369   4.308
  238POPC   C1A 3342   0.609   0.600   4.732
  238POPC   D2A 3343   0.460   0.462   5.117
  238POPC   C3A 3344   0.633   0.634   5.464
  238POPC   C4A 3345   0.390   0.737   5.744
  238POPC   C1B 3346   0.554   0.082   4.678
  238POPC   C2B 3347   0.400  11.464   5.076
  238POPC   C3B 3348   0.353   0.062   5.523
  238POPC   C4B 3349   0.502   0.265   5.875
  239POPC   NC3 3350   1.953   9.570   3.858
  239POPC   PO4 3351   2.587   9.474   4.111
  239POPC   GL1 3352   2.186   9.647   4.321
  239POPC   GL2 3353   1.799   9.612   4.316
  239POPC   C1A 3354   2.026   9.683   4.747
  239POPC   D2A 3355   2.191   9.562   5.108
  239POPC   C3A 3356   2.246   9.916   5.357
  239POPC   C4A 3357   2.059   9.670   5.686
  239POPC   C1B 3358   1.648   9.345   4.624
  239POPC   C2B 3359   1.519   9.462   5.010
  239POPC   C3B 3360   1.675   9.503   5.392
  239POPC   C4B 3361   1.531   9.496   5.780
  240POPC   NC3 3362   0.322   1.909   4.187
  240POPC   PO4 3363  11.444   2.334   3.853
  240POPC   GL1 3364   0.166   2.380   4.323
  240POPC   GL2 3365   0.522   2.223   4.518
  240POPC   C1A 3366   0.179   2.413   4.809
  240POPC   D2A 3367   0.335   2.368   5.235
  240POPC   C3A 3368   0.269   1.970   5.453
  240POPC   C4A 3369   0.093   1.876   5.879
  240POPC   C1B 3370   0.346   1.915   4.871
  240POPC   C2B 3371   0.520   1.613   5.200
  240POPC   C3B 3372   0.740   1.794   5.582
  240POPC   C4B 3373   0.647   2.236   5.718
  241POPC   NC3 3374   9.134   7.452   3.936
  241POPC   PO4 3375   8.655   7.809   4.039
  241POPC   GL1 3376   8.855   7.537   4.360
  241POPC   GL2 3377   9.025   7.190   4.408
  241POPC   C1A 3378   8.943   7.608   4.763
  241POPC   D2A 3379   8.819   7.539   5.184
  241POPC   C3A 3380   9.080   7.393   5.505
  241POPC   C4A 3381   8.885   7.297   5.927
  241POPC   C1B 3382   8.968   7.105   4.887
  241POPC   C2B 3383   8.935   6.923   5.343
  241POPC   C3B 3384   8.923   6.787   5.809
  241POPC   C4B 3385   9.106   6.905   6.253
  242POPC   NC3 3386   2.921  10.882   3.933
  242POPC   PO4 3387   2.389  11.381   3.827
  242POPC   GL1 3388   2.547  11.148   4.187
  242POPC   GL2 3389   2.896  11.224   4.314
  242POPC   C1A 3390   2.493  11.301   4.615
  242POPC   D2A 3391   2.743  11.399   5.000
  242POPC   C3A 3392   2.531  11.315   5.397
  242POPC   C4A 3393   2.726  11.084   5.683
  242POPC   C1B 3394   2.876  10.933   4.627
  242POPC   C2B 3395   2.957  10.928   5.062
  242POPC   C3B 3396   3.153  10.846   5.444
  242POPC   C4B 3397   3.053  10.741   5.826
  243POPC   NC3 3398   6.438   2.066   3.925
  243POPC   PO4 3399   6.460   1.363   3.850
  243POPC   GL1 3400   6.457   1.619   4.206
  243POPC   GL2 3401   6.773   1.799   4.288
  243POPC   C1A 3402   6.330   1.672   4.627
  243POPC   D2A 3403   6.276   1.581   5.063
  243POPC   C3A 3404   6.593   1.738   5.357
  243POPC   C4A 3405   6.519   1.878   5.784
  243POPC   C1B 3406   6.966   1.872   4.723
  243POPC   C2B 3407   7.000   2.026   5.184
  243POPC   C3B 3408   6.785   2.226   5.528
  243POPC   C4B 3409   6.554   2.415   5.877
  244POPC   NC3 3410   9.529   1.454   3.736
  244POPC   PO4 3411   9.511   0.783   3.879
  244POPC   GL1 3412   9.676   1.037   4.207
  244POPC   GL2 3413   9.363   1.142   4.389
  244POPC   C1A 3414   9.775   1.060   4.662
  244POPC   D2A 3415   9.657   0.803   4.982
  244POPC   C3A 3416   9.781   0.919   5.369
  244POPC   C4A 3417   9.741   0.956   5.781
  244POPC   C1B 3418   9.393   1.394   4.784
  244POPC   C2B 3419   9.565   1.339   5.163
  244POPC   C3B 3420   9.434   1.266   5.545
  244POPC   C4B 3421   9.539   1.395   5.966
  245POPC   NC3 3422   8.024   8.660   3.914
  245POPC   PO4 3423   8.196   9.219   3.766
  245POPC   GL1 3424   8.190   8.981   4.240
  245POPC   GL2 3425   7.940   9.164   4.387
  245POPC   C1A 3426   8.288   9.017   4.719
  245POPC   D2A 3427   7.991   9.008   5.031
  245POPC   C3A 3428   8.257   8.989   5.401
  245POPC   C4A 3429   8.192   9.134   5.828
  245POPC   C1B 3430   7.886   8.712   4.598
  245POPC   C2B 3431   7.766   8.529   5.010
  245POPC   C3B 3432   7.913   8.466   5.438
  245POPC   C4B 3433   8.224   8.618   5.744
  246POPC   NC3 3434   7.416   8.073   3.915
  246POPC   PO4 3435   7.084   7.643   4.047
  246POPC   GL1 3436   7.166   7.995   4.377
  246POPC   GL2 3437   7.280   8.353   4.326
  246POPC   C1A 3438   7.233   8.091   4.835
  246POPC   D2A 3439   7.526   8.120   5.209
  246POPC   C3A 3440   7.388   7.956   5.626
  246POPC   C4A 3441   7.278   7.912   6.090
  246POPC   C1B 3442   7.369   8.582   4.692
  246POPC   C2B 3443   7.219   8.531   5.111
  246POPC   C3B 3444   7.398   8.522   5.519
  246POPC   C4B 3445   7.157   8.350   5.856
  247POPC   NC3 3446   4.340   2.328   3.921
  247POPC   PO4 3447   4.143   1.702   3.723
  247POPC   GL1 3448   4.138   1.904   4.135
  247POPC   GL2 3449   4.449   1.920   4.359
  247POPC   C1A 3450   3.961   1.900   4.553
  247POPC   D2A 3451   4.038   2.167   4.923
  247POPC   C3A 3452   4.047   1.929   5.313
  247POPC   C4A 3453   4.084   1.653   5.699
  247POPC   C1B 3454   4.375   1.773   4.829
  247POPC   C2B 3455   4.413   1.563   5.241
  247POPC   C3B 3456   4.557   1.796   5.575
  247POPC   C4B 3457   4.324   2.204   5.643
  248POPC   NC3 3458  10.834   0.350   4.233
  248POPC   PO4 3459  10.392   0.671   3.796
  248POPC   GL1 3460  10.431   0.683   4.237
  248POPC   GL2 3461  10.272   0.343   4.294
  248POPC   C1A 3462  10.519   0.616   4.703
  248POPC   D2A 3463  10.436   0.324   5.037
  248POPC   C3A 3464  10.660   0.519   5.361
  248POPC   C4A 3465  10.590   0.444   5.761
  248POPC   C1B 3466  10.036   0.632   4.587
  248POPC   C2B 3467  10.160   0.765   5.028
  248POPC   C3B 3468  10.179   0.626   5.444
  248POPC   C4B 3469  10.210   0.780   5.853
  249POPC   NC3 3470   9.143   0.507   3.831
  249POPC   PO4 3471   8.698   0.036   3.791
  249POPC   GL1 3472   9.045   0.078   4.126
  249POPC   GL2 3473   8.837   0.283   4.313
  249POPC   C1A 3474   9.189   0.107   4.631
  249POPC   D2A 3475   9.002   0.066   5.131
  249POPC   C3A 3476   9.245   0.170   5.529
  249POPC   C4A 3477   9.147   0.247   5.986
  249POPC   C1B 3478   8.777   0.368   4.771
  249POPC   C2B 3479   8.831   0.592   5.170
  249POPC   C3B 3480   8.840   0.476   5.599
  249POPC   C4B 3481   8.755   0.774   5.887
  250POPC   NC3 3482   7.818   2.005   3.944
  250POPC   PO4 3483   8.420   1.689   3.830
  250POPC   GL1 3484   8.198   1.698   4.249
  250POPC   GL2 3485   8.130   2.019   4.351
  250POPC   C1A 3486   7.986   1.702   4.698
  250POPC   D2A 3487   8.103   1.898   5.115
  250POPC   C3A 3488   7.854   1.797   5.456
  250POPC   C4A 3489   7.751   1.954   5.861
  250POPC   C1B 3490   8.166   2.241   4.743
  250POPC   C2B 3491   8.080   2.446   5.136
  250POPC   C3B 3492   7.956   2.331   5.548
  250POPC   C4B 3493   8.249   2.039   5.714
  251POPC   NC3 3494   2.936   8.340   3.846
  251POPC   PO4 3495   2.295   8.527   3.984
  251POPC   GL1 3496   2.360   8.356   4.433
  251POPC   GL2 3497   2.354   7.972   4.446
  251POPC   C1A 3498   2.505   8.321   4.908
  251POPC   D2A 3499   2.864   8.190   5.231
  251POPC   C3A 3500   3.079   8.232   5.669
  251POPC   C4A 3501   2.887   8.326   6.086
  251POPC   C1B 3502   2.389   7.740   4.861
  251POPC   C2B 3503   2.391   7.962   5.281
  251POPC   C3B 3504   2.587   8.068   5.694
  251POPC   C4B 3505   2.471   7.947   6.119
  252POPC   NC3 3506   6.536   3.614   4.030
  252POPC   PO4 3507   6.921   3.443   4.229
  252POPC   GL1 3508   6.610   3.604   4.536
  252POPC   GL2 3509   6.329   3.388   4.488
  252POPC   C1A 3510   6.413   3.658   4.968
  252POPC   D2A 3511   6.253   3.928   5.321
  252POPC   C3A 3512   6.550   3.918   5.664
  252POPC   C4A 3513   6.850   3.548   5.774
  252POPC   C1B 3514   6.623   3.176   4.796
  252POPC   C2B 3515   6.735   3.308   5.212
  252POPC   C3B 3516   6.433   3.456   5.490
  252POPC   C4B 3517   6.167   3.587   5.820
  253POPC   NC3 3518   8.154   9.651   3.963
  253POPC   PO4 3519   7.652  10.045   4.024
  253POPC   GL1 3520   7.905   9.872   4.347
  253POPC   GL2 3521   8.258   9.831   4.433
  253POPC   C1A 3522   7.967  10.061   4.771
  253POPC   D2A 3523   7.918   9.815   5.136
  253POPC   C3A 3524   7.692   9.829   5.506
  253POPC   C4A 3525   7.691   9.911   5.941
  253POPC   C1B 3526   8.126   9.545   4.754
  253POPC   C2B 3527   8.255   9.424   5.115
  253POPC   C3B 3528   7.996   9.424   5.468
  253POPC   C4B 3529   8.138   9.676   5.802
  254POPC   NC3 3530   9.276   9.974   3.670
  254POPC   PO4 3531   9.129   9.349   4.016
  254POPC   GL1 3532   9.285   9.677   4.279
  254POPC   GL2 3533   9.681   9.743   4.343
  254POPC   C1A 3534   9.215   9.668   4.711
  254POPC   D2A 3535   9.242   9.382   5.077
  254POPC   C3A 3536   9.210   9.526   5.513
  254POPC   C4A 3537   9.420   9.553   5.912
  254POPC   C1B 3538   9.896   9.663   4.789
  254POPC   C2B 3539   9.890   9.637   5.259
  254POPC   C3B 3540  10.009   9.488   5.658
  254POPC   C4B 3541   9.989   9.446   6.124
  255POPC   NC3 3542   5.231   0.953   3.985
  255POPC   PO4 3543   5.128   1.557   3.633
  255POPC   GL1 3544   5.045   1.390   4.138
  255POPC   GL2 3545   4.799   1.088   4.239
  255POPC   C1A 3546   5.100   1.272   4.596
  255POPC   D2A 3547   5.205   1.397   5.013
  255POPC   C3A 3548   4.894   1.356   5.339
  255POPC   C4A 3549   4.902   1.375   5.780
  255POPC   C1B 3550   4.771   0.849   4.624
  255POPC   C2B 3551   4.984   0.931   5.016
  255POPC   C3B 3552   5.065   0.888   5.437
  255POPC   C4B 3553   5.162   0.960   5.858
  256POPC   NC3 3554   0.197   8.022   3.946
  256POPC   PO4 3555   0.839   7.804   3.990
  256POPC   GL1 3556   0.567   8.012   4.314
  256POPC   GL2 3557   0.604   8.380   4.241
  256POPC   C1A 3558   0.443   8.058   4.768
  256POPC   D2A 3559   0.183   7.912   5.107
  256POPC   C3A 3560   0.385   8.063   5.483
  256POPC   C4A 3561   0.444   7.835   5.860
  256POPC   C1B 3562   0.732   8.480   4.671
  256POPC   C2B 3563   0.507   8.634   5.042
  256POPC   C3B 3564   0.608   8.572   5.475
  256POPC   C4B 3565   0.608   8.323   5.879
  257POPC   NC3 3566  10.190   7.326   4.227
  257POPC   PO4 3567   9.600   7.506   3.917
  257POPC   GL1 3568   9.713   7.528   4.355
  257POPC   GL2 3569   9.382   7.548   4.375
  257POPC   C1A 3570   9.920   7.459   4.805
  257POPC   D2A 3571  10.092   7.408   5.233
  257POPC   C3A 3572   9.842   7.653   5.507
  257POPC   C4A 3573   9.657   7.544   5.924
  257POPC   C1B 3574   9.400   7.373   4.761
  257POPC   C2B 3575   9.507   7.450   5.173
  257POPC   C3B 3576   9.603   7.195   5.523
  257POPC   C4B 3577   9.341   7.115   5.849
  258POPC   NC3 3578   8.283  11.153   3.692
  258POPC   PO4 3579   8.812  10.954   4.071
  258POPC   GL1 3580   8.900  11.180   4.415
  258POPC   GL2 3581   9.239  11.163   4.377
  258POPC   C1A 3582   8.691  11.347   4.782
  258POPC   D2A 3583   8.610  11.202   5.208
  258POPC   C3A 3584   8.593  11.476   5.558
  258POPC   C4A 3585   8.792  11.411   5.954
  258POPC   C1B 3586   9.162  11.160   4.854
  258POPC   C2B 3587   9.071  10.947   5.201
  258POPC   C3B 3588   9.036  11.187   5.555
  258POPC   C4B 3589   9.323  11.269   5.902
  259POPC   NC3 3590   1.713   6.615   3.749
  259POPC   PO4 3591   2.216   6.252   3.766
  259POPC   GL1 3592   1.914   6.359   4.144
  259POPC   GL2 3593   1.872   6.687   4.231
  259POPC   C1A 3594   1.811   6.323   4.630
  259POPC   D2A 3595   1.715   6.191   5.089
  259POPC   C3A 3596   1.924   6.312   5.510
  259POPC   C4A 3597   2.284   6.396   5.831
  259POPC   C1B 3598   2.059   6.779   4.664
  259POPC   C2B 3599   2.089   6.621   5.093
  259POPC   C3B 3600   2.236   6.768   5.497
  259POPC   C4B 3601   1.901   6.767   5.799
  260POPC   NC3 3602  11.179   5.680   3.940
  260POPC   PO4 3603  10.753   6.199   3.981
  260POPC   GL1 3604  10.900   5.921   4.298
  260POPC   GL2 3605  11.280   5.931   4.360
  260POPC   C1A 3606  10.961   5.715   4.705
  260POPC   D2A 3607  10.734   5.634   5.093
  260POPC   C3A 3608  10.927   5.732   5.479
  260POPC   C4A 3609  10.793   5.573   5.866
  260POPC   C1B 3610  11.459   5.922   4.775
  260POPC   C2B 3611  11.368   5.926   5.213
  260POPC   C3B 3612  11.423   5.725   5.608
  260POPC   C4B 3613  11.175   5.882   5.967
  261POPC   NC3 3614   5.115   9.289   4.005
  261POPC   PO4 3615   5.178  10.017   3.828
  261POPC   GL1 3616   5.137   9.815   4.215
  261POPC   GL2 3617   5.256   9.529   4.427
  261POPC   C1A 3618   4.969   9.905   4.623
  261POPC   D2A 3619   4.953   9.734   5.019
  261POPC   C3A 3620   4.919   9.928   5.392
  261POPC   C4A 3621   4.995   9.732   5.792
  261POPC   C1B 3622   4.881   9.358   4.687
  261POPC   C2B 3623   4.678   9.288   5.111
  261POPC   C3B 3624   4.705   9.303   5.590
  261POPC   C4B 3625   4.675   9.407   6.046
  262POPC   NC3 3626  10.877   6.652   3.955
  262POPC   PO4 3627  11.356   6.997   3.984
  262POPC   GL1 3628  11.215   6.791   4.328
  262POPC   GL2 3629  11.208   6.435   4.272
  262POPC   C1A 3630  11.323   6.721   4.729
  262POPC   D2A 3631  11.158   6.558   5.077
  262POPC   C3A 3632  11.211   6.767   5.441
  262POPC   C4A 3633  11.321   7.026   5.763
  262POPC   C1B 3634  11.043   6.270   4.653
  262POPC   C2B 3635  10.918   6.111   5.040
  262POPC   C3B 3636  11.034   6.229   5.457
  262POPC   C4B 3637  11.187   6.366   5.824
  263POPC   NC3 3638  11.116   7.405   3.859
  263POPC   PO4 3639  10.534   6.940   3.772
  263POPC   GL1 3640  10.848   7.113   4.170
  263POPC   GL2 3641  11.064   7.408   4.344
  263POPC   C1A 3642  10.938   7.057   4.682
  263POPC   D2A 3643  10.839   6.986   5.138
  263POPC   C3A 3644  10.886   7.181   5.532
  263POPC   C4A 3645  10.863   7.048   5.984
  263POPC   C1B 3646  11.407   7.245   4.625
  263POPC   C2B 3647  11.335   7.144   5.075
  263POPC   C3B 3648  11.344   7.421   5.451
  263POPC   C4B 3649  11.110   7.512   5.863
  264POPC   NC3 3650   5.261  10.531   3.750
  264POPC   PO4 3651   5.850  10.446   3.949
  264POPC   GL1 3652   5.904  10.538   4.358
  264POPC   GL2 3653   6.022  10.207   4.359
  264POPC   C1A 3654   5.740  10.684   4.789
  264POPC   D2A 3655   5.577  10.821   5.220
  264POPC   C3A 3656   5.638  10.573   5.602
  264POPC   C4A 3657   5.745  10.649   6.031
  264POPC   C1B 3658   5.848  10.174   4.757
  264POPC   C2B 3659   5.671  10.285   5.131
  264POPC   C3B 3660   5.792  10.095   5.492
  264POPC   C4B 3661   5.808  10.159   5.889
  265POPC   NC3 3662   0.140   3.433   3.968
  265POPC   PO4 3663  11.103   3.782   3.848
  265POPC   GL1 3664  11.215   3.534   4.224
  265POPC   GL2 3665  10.957   3.357   4.368
  265POPC   C1A 3666  11.428   3.342   4.598
  265POPC   D2A 3667  11.233   3.225   5.015
  265POPC   C3A 3668  11.382   3.315   5.456
  265POPC   C4A 3669  11.447   3.169   5.895
  265POPC   C1B 3670  11.068   3.664   4.712
  265POPC   C2B 3671  10.892   3.605   5.113
  265POPC   C3B 3672  10.900   3.569   5.538
  265POPC   C4B 3673  11.124   3.557   5.907
  266POPC   NC3 3674   1.245  11.318   4.005
  266POPC   PO4 3675   1.293  10.689   3.776
  266POPC   GL1 3676   1.305  10.867   4.268
  266POPC   GL2 3677   1.073  11.142   4.423
  266POPC   C1A 3678   1.282  10.826   4.772
  266POPC   D2A 3679   1.001  10.816   5.169
  266POPC   C3A 3680   1.137  10.934   5.619
  266POPC   C4A 3681   1.506  10.874   5.902
  266POPC   C1B 3682   1.389  11.345   4.686
  266POPC   C2B 3683   1.383   0.069   5.087
  266POPC   C3B 3684   1.250  11.434   5.492
  266POPC   C4B 3685   1.289  11.488   5.923
  267POPC   NC3 3686   1.554   5.017   3.765
  267POPC   PO4 3687   0.945   5.372   3.744
  267POPC   GL1 3688   1.088   5.349   4.176
  267POPC   GL2 3689   1.238   5.029   4.179
  267POPC   C1A 3690   1.299   5.379   4.599
  267POPC   D2A 3691   1.144   5.381   5.044
  267POPC   C3A 3692   1.351   5.424   5.436
  267POPC   C4A 3693   1.472   5.153   5.781
  267POPC   C1B 3694   1.194   4.836   4.605
  267POPC   C2B 3695   0.990   4.898   5.004
  267POPC   C3B 3696   1.171   4.888   5.417
  267POPC   C4B 3697   0.992   4.891   5.847
  268POPC   NC3 3698   1.148   6.760   4.040
  268POPC   PO4 3699   1.493   6.204   3.827
  268POPC   GL1 3700   1.418   6.258   4.285
  268POPC   GL2 3701   1.418   6.588   4.430
  268POPC   C1A 3702   1.158   6.232   4.703
  268POPC   D2A 3703   1.231   6.391   5.136
  268POPC   C3A 3704   1.011   6.322   5.537
  268POPC   C4A 3705   1.417   6.512   5.713
  268POPC   C1B 3706   1.145   6.756   4.751
  268POPC   C2B 3707   1.135   6.914   5.160
  268POPC   C3B 3708   1.031   6.824   5.565
  268POPC   C4B 3709   1.033   7.001   5.937
  269POPC   NC3 3710   0.585   5.291   4.055
  269POPC   PO4 3711   0.738   4.600   3.929
  269POPC   GL1 3712   0.462   4.787   4.245
  269POPC   GL2 3713   0.768   4.921   4.349
  269POPC   C1A 3714   0.404   4.967   4.704
  269POPC   D2A 3715   0.512   4.816   5.155
  269POPC   C3A 3716   0.434   5.005   5.562
  269POPC   C4A 3717   0.446   4.883   6.016
  269POPC   C1B 3718   0.816   5.249   4.658
  269POPC   C2B 3719   0.646   5.295   5.072
  269POPC   C3B 3720   0.853   5.283   5.471
  269POPC   C4B 3721   0.702   5.307   5.884
  270POPC   NC3 3722   6.451   0.874   3.781
  270POPC   PO4 3723   7.030   0.940   4.058
  270POPC   GL1 3724   6.671   0.798   4.299
  270POPC   GL2 3725   6.389   1.057   4.272
  270POPC   C1A 3726   6.674   0.700   4.749
  270POPC   D2A 3727   6.887   0.858   5.120
  270POPC   C3A 3728   6.693   0.865   5.516
  270POPC   C4A 3729   6.423   0.923   5.853
  270POPC   C1B 3730   6.491   1.184   4.699
  270POPC   C2B 3731   6.451   1.118   5.131
  270POPC   C3B 3732   6.367   1.308   5.507
  270POPC   C4B 3733   6.712   1.376   5.736
  271POPC   NC3 3734  10.253   7.350   3.670
  271POPC   PO4 3735  10.566   7.582   4.167
  271POPC   GL1 3736  10.579   7.363   4.530
  271POPC   GL2 3737  10.475   7.001   4.480
  271POPC   C1A 3738  10.486   7.295   4.916
  271POPC   D2A 3739  10.626   7.558   5.204
  271POPC   C3A 3740  10.512   7.532   5.595
  271POPC   C4A 3741  10.682   7.855   5.816
  271POPC   C1B 3742  10.219   6.864   4.794
  271POPC   C2B 3743  10.330   6.903   5.216
  271POPC   C3B 3744  10.394   7.040   5.583
  271POPC   C4B 3745  10.066   7.272   5.743
  272POPC   NC3 3746   9.539   7.985   3.964
  272POPC   PO4 3747  10.096   7.803   3.658
  272POPC   GL1 3748  10.032   7.859   4.121
  272POPC   GL2 3749   9.968   8.230   4.191
  272POPC   C1A 3750   9.901   7.934   4.595
  272POPC   D2A 3751   9.695   7.916   5.017
  272POPC   C3A 3752   9.804   8.165   5.410
  272POPC   C4A 3753   9.819   8.027   5.842
  272POPC   C1B 3754   9.602   8.364   4.505
  272POPC   C2B 3755   9.344   8.367   4.909
  272POPC   C3B 3756   9.322   8.328   5.348
  272POPC   C4B 3757   9.382   8.270   5.781
  273POPC   NC3 3758   0.977   9.354   3.823
  273POPC   PO4 3759   1.610   9.241   3.980
  273POPC   GL1 3760   1.300   9.469   4.240
  273POPC   GL2 3761   1.330   9.851   4.288
  273POPC   C1A 3762   1.145   9.500   4.646
  273POPC   D2A 3763   0.939   9.490   5.035
  273POPC   C3A 3764   1.139   9.511   5.434
  273POPC   C4A 3765   0.866   9.556   5.799
  273POPC   C1B 3766   1.534   9.863   4.675
  273POPC   C2B 3767   1.260   9.898   5.012
  273POPC   C3B 3768   1.311  10.032   5.410
  273POPC   C4B 3769   1.213   9.919   5.816
  274POPC   NC3 3770   0.572   6.100   3.782
  274POPC   PO4 3771   0.680   6.764   3.978
  274POPC   GL1 3772   0.428   6.432   4.161
  274POPC   GL2 3773   0.666   6.204   4.306
  274POPC   C1A 3774   0.168   6.359   4.541
  274POPC   D2A 3775   0.241   6.531   4.969
  274POPC   C3A 3776   0.062   6.392   5.367
  274POPC   C4A 3777   0.115   6.622   5.744
  274POPC   C1B 3778   0.690   6.485   4.655
  274POPC   C2B 3779   0.729   6.408   5.095
  274POPC   C3B 3780   0.559   6.606   5.459
  274POPC   C4B 3781   0.543   6.920   5.782
  275POPC   NC3 3782   4.725  10.020   3.980
  275POPC   PO4 3783   4.887  10.724   3.933
  275POPC   GL1 3784   5.041  10.391   4.208
  275POPC   GL2 3785   5.413  10.309   4.183
  275POPC   C1A 3786   4.832  10.394   4.613
  275POPC   D2A 3787   4.646  10.169   4.947
  275POPC   C3A 3788   4.717  10.396   5.314
  275POPC   C4A 3789   4.786  10.682   5.645
  275POPC   C1B 3790   5.362  10.302   4.622
  275POPC   C2B 3791   5.151  10.257   5.010
  275POPC   C3B 3792   5.211  10.366   5.425
  275POPC   C4B 3793   5.329  10.118   5.743
  276POPC   NC3 3794   4.623   2.851   3.948
  276POPC   PO4 3795   4.039   3.046   3.979
  276POPC   GL1 3796   4.240   2.705   4.279
  276POPC   GL2 3797   4.129   2.363   4.382
  276POPC   C1A 3798   4.393   2.590   4.737
  276POPC   D2A 3799   4.229   2.591   5.173
  276POPC   C3A 3800   4.505   2.672   5.540
  276POPC   C4A 3801   4.855   2.674   5.831
  276POPC   C1B 3802   3.881   2.616   4.672
  276POPC   C2B 3803   3.689   2.522   5.083
  276POPC   C3B 3804   3.865   2.400   5.470
  276POPC   C4B 3805   4.080   2.607   5.817
  277POPC   NC3 3806   8.681   4.657   3.853
  277POPC   PO4 3807   8.713   4.039   3.854
  277POPC   GL1 3808   8.942   3.920   4.249
  277POPC   GL2 3809   9.080   4.212   4.435
  277POPC   C1A 3810   8.867   3.810   4.703
  277POPC   D2A 3811   8.707   3.700   5.139
  277POPC   C3A 3812   8.756   3.851   5.573
  277POPC   C4A 3813   8.541   4.168   5.798
  277POPC   C1B 3814   9.024   4.321   4.870
  277POPC   C2B 3815   8.975   4.215   5.311
  277POPC   C3B 3816   9.052   4.294   5.760
  277POPC   C4B 3817   8.831   4.358   6.169
  278POPC   NC3 3818   1.015   2.913   4.041
  278POPC   PO4 3819   1.278   3.467   3.738
  278POPC   GL1 3820   1.328   3.563   4.165
  278POPC   GL2 3821   1.093   3.363   4.288
  278POPC   C1A 3822   1.520   3.527   4.592
  278POPC   D2A 3823   1.630   3.523   5.039
  278POPC   C3A 3824   1.444   3.809   5.337
  278POPC   C4A 3825   1.551   3.637   5.730
  278POPC   C1B 3826   1.013   3.239   4.701
  278POPC   C2B 3827   1.144   3.403   5.095
  278POPC   C3B 3828   1.097   3.485   5.522
  278POPC   C4B 3829   0.884   3.219   5.820
  279POPC   NC3 3830   3.131   1.149   3.742
  279POPC   PO4 3831   2.770   1.421   4.159
  279POPC   GL1 3832   2.803   1.119   4.441
  279POPC   GL2 3833   2.502   0.890   4.381
  279POPC   C1A 3834   2.918   1.207   4.895
  279POPC   D2A 3835   3.244   1.319   5.217
  279POPC   C3A 3836   3.076   1.251   5.649
  279POPC   C4A 3837   2.987   1.027   6.049
  279POPC   C1B 3838   2.340   1.247   4.605
  279POPC   C2B 3839   2.359   1.179   4.998
  279POPC   C3B 3840   2.633   1.272   5.358
  279POPC   C4B 3841   2.582   1.176   5.784
  280POPC   NC3 3842   3.844  11.266   3.951
  280POPC   PO4 3843   3.119  11.340   3.859
  280POPC   GL1 3844   3.364  11.406   4.218
  280POPC   GL2 3845   3.534  11.124   4.335
  280POPC   C1A 3846   3.241  11.389   4.684
  280POPC   D2A 3847   3.328   0.051   5.113
  280POPC   C3A 3848   3.125  11.358   5.476
  280POPC   C4A 3849   3.331  11.217   5.858
  280POPC   C1B 3850   3.415  10.901   4.716
  280POPC   C2B 3851   3.464  11.068   5.103
  280POPC   C3B 3852   3.627  11.044   5.494
  280POPC   C4B 3853   3.549  10.757   5.828
  281POPC   NC3 3854   5.139   8.299   3.870
  281POPC   PO4 3855   4.821   8.752   3.922
  281POPC   GL1 3856   4.873   8.505   4.312
  281POPC   GL2 3857   5.131   8.232   4.380
  281POPC   C1A 3858   4.900   8.440   4.784
  281POPC   D2A 3859   4.981   8.131   5.115
  281POPC   C3A 3860   4.935   8.303   5.531
  281POPC   C4A 3861   4.625   8.385   5.881
  281POPC   C1B 3862   5.275   7.924   4.721
  281POPC   C2B 3863   5.247   7.681   5.112
  281POPC   C3B 3864   5.212   7.856   5.533
  281POPC   C4B 3865   5.450   8.181   5.769
  282POPC   NC3 3866   6.954   0.420   4.027
  282POPC   PO4 3867   6.275   0.380   3.849
  282POPC   GL1 3868   6.479   0.265   4.282
  282POPC   GL2 3869   6.134   0.238   4.457
  282POPC   C1A 3870   6.855   0.204   4.631
  282POPC   D2A 3871   6.985   0.362   5.045
  282POPC   C3A 3872   6.867   0.111   5.398
  282POPC   C4A 3873   6.719  11.361   5.744
  282POPC   C1B 3874   6.389   0.273   4.833
  282POPC   C2B 3875   6.515   0.475   5.199
  282POPC   C3B 3876   6.337   0.485   5.556
  282POPC   C4B 3877   6.569   0.327   5.787
  283POPC   NC3 3878   7.952  10.526   3.892
  283POPC   PO4 3879   8.476  10.024   3.919
  283POPC   GL1 3880   8.411  10.284   4.289
  283POPC   GL2 3881   8.098  10.328   4.323
  283POPC   C1A 3882   8.428  10.306   4.747
  283POPC   D2A 3883   8.415   9.939   5.066
  283POPC   C3A 3884   8.195  10.073   5.478
  283POPC   C4A 3885   8.119  10.212   5.927
  283POPC   C1B 3886   8.003  10.607   4.609
  283POPC   C2B 3887   8.014  10.747   5.025
  283POPC   C3B 3888   8.159  10.609   5.456
  283POPC   C4B 3889   7.950  10.698   5.859
  284POPC   NC3 3890   2.516   5.903   3.779
  284POPC   PO4 3891   3.191   5.946   3.680
  284POPC   GL1 3892   2.940   5.924   4.122
  284POPC   GL2 3893   2.595   5.825   4.282
  284POPC   C1A 3894   2.866   6.131   4.578
  284POPC   D2A 3895   2.726   6.150   5.052
  284POPC   C3A 3896   2.876   6.004   5.487
  284POPC   C4A 3897   2.779   6.089   5.941
  284POPC   C1B 3898   2.547   5.743   4.755
  284POPC   C2B 3899   2.620   5.658   5.213
  284POPC   C3B 3900   2.638   5.558   5.661
  284POPC   C4B 3901   2.440   5.723   6.054
  285POPC   NC3 3902   1.874   5.934   3.842
  285POPC   PO4 3903   2.331   5.526   3.969
  285POPC   GL1 3904   2.071   5.616   4.295
  285POPC   GL2 3905   1.993   5.915   4.352
  285POPC   C1A 3906   1.801   5.456   4.605
  285POPC   D2A 3907   1.645   5.474   5.012
  285POPC   C3A 3908   1.780   5.748   5.349
  285POPC   C4A 3909   1.644   5.659   5.786
  285POPC   C1B 3910   2.035   5.873   4.790
  285POPC   C2B 3911   2.228   6.029   5.151
  285POPC   C3B 3912   2.345   5.966   5.559
  285POPC   C4B 3913   2.039   5.948   5.869
  286POPC   NC3 3914   7.245   9.955   4.246
  286POPC   PO4 3915   7.310  10.520   3.876
  286POPC   GL1 3916   7.160  10.581   4.350
  286POPC   GL2 3917   7.176  10.271   4.612
  286POPC   C1A 3918   7.087  10.703   4.811
  286POPC   D2A 3919   7.219  10.404   5.179
  286POPC   C3A 3920   7.160  10.502   5.630
  286POPC   C4A 3921   7.119  10.665   6.116
  286POPC   C1B 3922   7.562  10.380   4.784
  286POPC   C2B 3923   7.765  10.318   5.179
  286POPC   C3B 3924   7.710  10.319   5.604
  286POPC   C4B 3925   7.508  10.385   5.969
  287POPC   NC3 3926   2.031   5.162   4.077
  287POPC   PO4 3927   2.300   4.619   3.914
  287POPC   GL1 3928   2.096   4.588   4.354
  287POPC   GL2 3929   2.169   4.886   4.506
  287POPC   C1A 3930   1.735   4.630   4.724
  287POPC   D2A 3931   1.523   4.945   5.015
  287POPC   C3A 3932   1.711   4.862   5.428
  287POPC   C4A 3933   1.972   4.589   5.744
  287POPC   C1B 3934   2.268   5.298   4.719
  287POPC   C2B 3935   2.157   5.502   5.118
  287POPC   C3B 3936   2.142   5.483   5.582
  287POPC   C4B 3937   2.045   5.098   5.756
  288POPC   NC3 3938   0.322   4.412   3.873
  288POPC   PO4 3939   0.470   3.810   3.962
  288POPC   GL1 3940   0.480   4.127   4.299
  288POPC   GL2 3941   0.759   4.337   4.338
  288POPC   C1A 3942   0.642   4.062   4.740
  288POPC   D2A 3943   0.452   3.952   5.112
  288POPC   C3A 3944   0.474   4.132   5.531
  288POPC   C4A 3945   0.276   4.521   5.650
  288POPC   C1B 3946   0.701   4.565   4.717
  288POPC   C2B 3947   0.776   4.387   5.125
  288POPC   C3B 3948   0.792   4.544   5.528
  288POPC   C4B 3949   0.697   4.464   5.957
  289POPC   NC3 3950   1.949   8.590   3.681
  289POPC   PO4 3951   2.216   9.161   3.763
  289POPC   GL1 3952   2.027   9.143   4.229
  289POPC   GL2 3953   1.998   8.776   4.322
  289POPC   C1A 3954   2.125   9.175   4.691
  289POPC   D2A 3955   1.889   9.117   5.105
  289POPC   C3A 3956   2.116   9.195   5.494
  289POPC   C4A 3957   2.230   8.873   5.763
  289POPC   C1B 3958   1.749   8.815   4.709
  289POPC   C2B 3959   1.591   8.615   5.072
  289POPC   C3B 3960   1.747   8.639   5.490
  289POPC   C4B 3961   1.659   9.027   5.666
  290POPC   NC3 3962   0.641   1.142   3.706
  290POPC   PO4 3963   0.143   1.512   3.957
  290POPC   GL1 3964   0.278   1.406   4.331
  290POPC   GL2 3965   0.565   1.203   4.228
  290POPC   C1A 3966   0.114   1.441   4.766
  290POPC   D2A 3967  11.444   1.658   5.133
  290POPC   C3A 3968   0.047   1.490   5.514
  290POPC   C4A 3969   0.396   1.469   5.794
  290POPC   C1B 3970   0.338   0.991   4.591
  290POPC   C2B 3971   0.266   0.939   5.040
  290POPC   C3B 3972   0.471   1.130   5.402
  290POPC   C4B 3973   0.740   1.095   5.757
  291POPC   NC3 3974   8.335   0.580   3.783
  291POPC   PO4 3975   8.091   0.015   3.955
  291POPC   GL1 3976   8.140   0.437   4.228
  291POPC   GL2 3977   7.880   0.679   4.394
  291POPC   C1A 3978   8.350   0.619   4.609
  291POPC   D2A 3979   8.345   0.455   5.065
  291POPC   C3A 3980   8.381   0.706   5.484
  291POPC   C4A 3981   8.245   0.637   5.943
  291POPC   C1B 3982   7.922   0.294   4.721
  291POPC   C2B 3983   7.935   0.144   5.202
  291POPC   C3B 3984   7.957   0.260   5.676
  291POPC   C4B 3985   7.826   0.178   6.153
  292POPC   NC3 3986   8.868   1.956   3.810
  292POPC   PO4 3987   9.245   1.551   4.103
  292POPC   GL1 3988   8.749   1.674   4.274
  292POPC   GL2 3989   8.621   2.039   4.229
  292POPC   C1A 3990   8.501   1.629   4.705
  292POPC   D2A 3991   8.615   1.810   5.138
  292POPC   C3A 3992   8.593   1.666   5.580
  292POPC   C4A 3993   8.647   1.655   6.036
  292POPC   C1B 3994   8.661   2.106   4.664
  292POPC   C2B 3995   8.576   2.310   5.063
  292POPC   C3B 3996   8.705   2.213   5.508
  292POPC   C4B 3997   9.161   2.120   5.626
  293POPC   NC3 3998   9.716  10.300   3.930
  293POPC   PO4 3999   9.089  10.146   4.051
  293POPC   GL1 4000   9.404  10.176   4.353
  293POPC   GL2 4001   9.675  10.395   4.413
  293POPC   C1A 4002   9.562  10.050   4.758
  293POPC   D2A 4003   9.454   9.853   5.123
  293POPC   C3A 4004   9.313  10.035   5.484
  293POPC   C4A 4005   9.700   9.912   5.683
  293POPC   C1B 4006   9.810  10.515   4.819
  293POPC   C2B 4007   9.522  10.424   5.156
  293POPC   C3B 4008   9.614  10.427   5.566
  293POPC   C4B 4009   9.934  10.690   5.677
  294POPC   NC3 4010   2.587   1.073   3.907
  294POPC   PO4 4011   1.950   0.794   3.908
  294POPC   GL1 4012   1.958   1.021   4.290
  294POPC   GL2 4013   1.967   1.385   4.287
  294POPC   C1A 4014   1.938   0.953   4.712
  294POPC   D2A 4015   1.866   1.034   5.122
  294POPC   C3A 4016   2.172   1.032   5.442
  294POPC   C4A 4017   2.109   1.051   5.865
  294POPC   C1B 4018   1.873   1.455   4.750
  294POPC   C2B 4019   2.107   1.590   5.140
  294POPC   C3B 4020   2.147   1.515   5.584
  294POPC   C4B 4021   1.782   1.424   5.832
  295POPC   NC3 4022   3.596   1.950   3.727
  295POPC   PO4 4023   3.910   2.490   3.912
  295POPC   GL1 4024   3.687   2.204   4.196
  295POPC   GL2 4025   3.501   1.895   4.230
  295POPC   C1A 4026   3.580   2.215   4.646
  295POPC   D2A 4027   3.590   1.898   4.969
  295POPC   C3A 4028   3.526   2.013   5.377
  295POPC   C4A 4029   3.734   2.004   5.761
  295POPC   C1B 4030   3.227   1.843   4.604
  295POPC   C2B 4031   3.061   1.806   5.019
  295POPC   C3B 4032   3.082   1.743   5.454
  295POPC   C4B 4033   3.227   1.961   5.800
  296POPC   NC3 4034   1.177   5.777   3.856
  296POPC   PO4 4035   1.741   5.445   3.844
  296POPC   GL1 4036   1.529   5.719   4.233
  296POPC   GL2 4037   1.158   5.828   4.355
  296POPC   C1A 4038   1.525   5.876   4.697
  296POPC   D2A 4039   1.297   5.868   5.117
  296POPC   C3A 4040   1.418   6.034   5.532
  296POPC   C4A 4041   1.337   6.071   5.994
  296POPC   C1B 4042   0.947   5.751   4.739
  296POPC   C2B 4043   0.784   5.783   5.145
  296POPC   C3B 4044   0.940   5.786   5.544
  296POPC   C4B 4045   1.135   5.602   5.897
  297POPC   NC3 4046   0.238   9.663   4.144
  297POPC   PO4 4047   0.818   9.809   3.757
  297POPC   GL1 4048   0.828   9.718   4.214
  297POPC   GL2 4049   0.716   9.398   4.359
  297POPC   C1A 4050   0.846   9.911   4.646
  297POPC   D2A 4051   0.613   9.976   5.015
  297POPC   C3A 4052   0.806   9.911   5.400
  297POPC   C4A 4053   0.731  10.073   5.802
  297POPC   C1B 4054   0.484   9.514   4.777
  297POPC   C2B 4055   0.303   9.626   5.214
  297POPC   C3B 4056   0.375   9.703   5.671
  297POPC   C4B 4057   0.442   9.505   6.078
  298POPC   NC3 4058   0.104   2.769   3.928
  298POPC   PO4 4059   0.609   2.244   3.986
  298POPC   GL1 4060   0.618   2.641   4.244
  298POPC   GL2 4061   0.327   2.873   4.358
  298POPC   C1A 4062   0.651   2.705   4.695
  298POPC   D2A 4063   0.599   2.963   5.039
  298POPC   C3A 4064   0.606   2.760   5.437
  298POPC   C4A 4065   0.550   2.734   5.879
  298POPC   C1B 4066   0.100   2.899   4.742
  298POPC   C2B 4067   0.116   2.934   5.190
  298POPC   C3B 4068   0.123   2.784   5.583
  298POPC   C4B 4069   0.123   2.377   5.721
  299POPC   NC3 4070   7.322   2.358   3.849
  299POPC   PO4 4071   7.660   2.782   4.093
  299POPC   GL1 4072   7.428   2.677   4.444
  299POPC   GL2 4073   7.132   2.474   4.324
  299POPC   C1A 4074   7.459   2.759   4.890
  299POPC   D2A 4075   7.639   2.646   5.280
  299POPC   C3A 4076   7.410   2.739   5.648
  299POPC   C4A 4077   7.146   3.106   5.787
  299POPC   C1B 4078   7.143   2.364   4.780
  299POPC   C2B 4079   7.125   2.527   5.220
  299POPC   C3B 4080   6.904   2.711   5.572
  299POPC   C4B 4081   7.007   2.644   6.005
  300POPC   NC3 4082   1.367  10.283   3.975
  300POPC   PO4 4083   0.771  10.536   3.695
  300POPC   GL1 4084   0.897  10.570   4.154
  300POPC   GL2 4085   0.928  10.229   4.252
  300POPC   C1A 4086   0.837  10.551   4.659
  300POPC   D2A 4087   0.985  10.319   5.082
  300POPC   C3A 4088   1.011  10.435   5.564
  300POPC   C4A 4089   1.128  10.584   6.035
  300POPC   C1B 4090   1.253  10.278   4.612
  300POPC   C2B 4091   1.512  10.370   4.974
  300POPC   C3B 4092   1.520  10.539   5.390
  300POPC   C4B 4093   1.488  10.361   5.792
  301POPC   NC3 4094   8.863   1.428   3.840
  301POPC   PO4 4095   8.757   0.750   3.755
  301POPC   GL1 4096   8.762   0.791   4.228
  301POPC   GL2 4097   8.870   1.124   4.242
  301POPC   C1A 4098   8.889   0.851   4.690
  301POPC   D2A 4099   9.171   0.989   5.029
  301POPC   C3A 4100   8.978   1.045   5.465
  301POPC   C4A 4101   9.105   1.134   5.903
  301POPC   C1B 4102   8.919   1.348   4.620
  301POPC   C2B 4103   8.842   1.368   5.023
  301POPC   C3B 4104   9.069   1.566   5.330
  301POPC   C4B 4105   9.100   1.629   5.758
  302POPC   NC3 4106   0.044   1.004   3.970
  302POPC   PO4 4107  10.917   0.825   3.942
  302POPC   GL1 4108  11.148   1.051   4.301
  302POPC   GL2 4109  11.255   1.416   4.353
  302POPC   C1A 4110  11.330   0.987   4.721
  302POPC   D2A 4111  11.184   0.901   5.156
  302POPC   C3A 4112  11.479   0.973   5.488
  302POPC   C4A 4113  11.467   0.893   5.925
  302POPC   C1B 4114  11.076   1.483   4.795
  302POPC   C2B 4115  11.025   1.376   5.249
  302POPC   C3B 4116  11.054   1.197   5.664
  302POPC   C4B 4117  10.888   1.415   6.055
  303POPC   NC3 4118   2.092   8.095   4.011
  303POPC   PO4 4119   1.533   7.818   3.849
  303POPC   GL1 4120   1.755   7.860   4.286
  303POPC   GL2 4121   1.856   8.242   4.422
  303POPC   C1A 4122   1.919   7.844   4.699
  303POPC   D2A 4123   1.735   7.958   5.060
  303POPC   C3A 4124   1.847   7.967   5.436
  303POPC   C4A 4125   1.715   7.570   5.673
  303POPC   C1B 4126   1.962   8.358   4.813
  303POPC   C2B 4127   2.131   8.623   5.134
  303POPC   C3B 4128   2.220   8.407   5.519
  303POPC   C4B 4129   1.990   8.197   5.858
  304POPC   NC3 4130   0.593   5.527   3.490
  304POPC   PO4 4131   0.751   5.768   4.047
  304POPC   GL1 4132   0.598   5.671   4.385
  304POPC   GL2 4133   0.290   5.853   4.330
  304POPC   C1A 4134   0.351   5.493   4.699
  304POPC   D2A 4135   0.193   5.556   5.095
  304POPC   C3A 4136   0.422   5.565   5.468
  304POPC   C4A 4137   0.442   5.725   5.873
  304POPC   C1B 4138   0.483   6.004   4.738
  304POPC   C2B 4139   0.359   6.049   5.126
  304POPC   C3B 4140   0.497   6.099   5.524
  304POPC   C4B 4141   0.156   6.122   5.801
  305POPC   NC3 4142  10.374   6.424   3.837
  305POPC   PO4 4143  10.060   6.903   4.135
  305POPC   GL1 4144  10.296   6.550   4.325
  305POPC   GL2 4145  10.663   6.522   4.385
  305POPC   C1A 4146  10.299   6.329   4.707
  305POPC   D2A 4147  10.138   6.460   5.096
  305POPC   C3A 4148  10.233   6.351   5.508
  305POPC   C4A 4149  10.321   6.609   5.837
  305POPC   C1B 4150  10.695   6.621   4.818
  305POPC   C2B 4151  10.656   6.512   5.254
  305POPC   C3B 4152  10.781   6.652   5.669
  305POPC   C4B 4153  10.719   6.577   6.144
  306POPC   NC3 4154   9.249  10.950   3.885
  306POPC   PO4 4155   9.964  10.697   3.983
  306POPC   GL1 4156   9.629  10.852   4.217
  306POPC   GL2 4157   9.779  11.147   4.305
  306POPC   C1A 4158   9.445  10.803   4.660
  306POPC   D2A 4159   9.596  10.964   5.110
  306POPC   C3A 4160   9.465  10.904   5.566
  306POPC   C4A 4161   9.403  10.692   5.993
  306POPC   C1B 4162   9.631  11.284   4.696
  306POPC   C2B 4163   9.507  11.487   5.082
  306POPC   C3B 4164   9.666  11.371   5.486
  306POPC   C4B 4165  10.060  11.161   5.627
  307POPC   NC3 4166   7.360   9.065   3.804
  307POPC   PO4 4167   7.600   8.491   3.925
  307POPC   GL1 4168   7.534   8.847   4.255
  307POPC   GL2 4169   7.198   8.942   4.333
  307POPC   C1A 4170   7.556   9.079   4.703
  307POPC   D2A 4171   7.486   8.938   5.129
  307POPC   C3A 4172   7.745   8.949   5.472
  307POPC   C4A 4173   7.769   8.875   5.880
  307POPC   C1B 4174   7.062   8.984   4.798
  307POPC   C2B 4175   7.081   9.208   5.228
  307POPC   C3B 4176   7.135   8.944   5.603
  307POPC   C4B 4177   6.941   8.788   6.017
  308POPC   NC3 4178   9.618   4.990   3.955
  308POPC   PO4 4179   9.092   4.580   4.053
  308POPC   GL1 4180   9.389   4.649   4.397
  308POPC   GL2 4181   9.571   4.980   4.447
  308POPC   C1A 4182   9.459   4.695   4.853
  308POPC   D2A 4183   9.453   4.949   5.234
  308POPC   C3A 4184   9.471   4.740   5.643
  308POPC   C4A 4185   9.131   4.762   5.970
  308POPC   C1B 4186   9.895   4.972   4.759
  308POPC   C2B 4187   9.903   5.187   5.147
  308POPC   C3B 4188   9.757   5.184   5.593
  308POPC   C4B 4189   9.912   5.284   6.019
  309POPC   NC3 4190  11.158   9.493   3.820
  309POPC   PO4 4191   0.138   9.224   4.055
  309POPC   GL1 4192  11.303   9.515   4.309
  309POPC   GL2 4193  10.926   9.450   4.287
  309POPC   C1A 4194  11.443   9.608   4.757
  309POPC   D2A 4195  11.244   9.654   5.149
  309POPC   C3A 4196  11.393   9.565   5.551
  309POPC   C4A 4197  11.497   9.199   5.809
  309POPC   C1B 4198  10.918   9.581   4.714
  309POPC   C2B 4199  10.741   9.536   5.107
  309POPC   C3B 4200  10.865   9.618   5.511
  309POPC   C4B 4201  10.989   9.694   5.936
  310POPC   NC3 4202   9.680   3.350   3.770
  310POPC   PO4 4203   9.693   3.907   4.005
  310POPC   GL1 4204   9.707   3.636   4.339
  310POPC   GL2 4205   9.754   3.271   4.290
  310POPC   C1A 4206   9.731   3.752   4.778
  310POPC   D2A 4207   9.870   3.997   5.122
  310POPC   C3A 4208   9.902   3.758   5.499
  310POPC   C4A 4209   9.781   3.689   5.928
  310POPC   C1B 4210   9.691   3.216   4.750
  310POPC   C2B 4211   9.583   3.440   5.161
  310POPC   C3B 4212   9.538   3.375   5.625
  310POPC   C4B 4213   9.741   3.167   5.984
  311POPC   NC3 4214   3.187   0.299   3.704
  311POPC   PO4 4215   3.735   0.224   3.947
  311POPC   GL1 4216   3.464   0.408   4.301
  311POPC   GL2 4217   3.676   0.684   4.401
  311POPC   C1A 4218   3.286   0.416   4.746
  311POPC   D2A 4219   3.029   0.463   5.161
  311POPC   C3A 4220   3.256   0.347   5.535
  311POPC   C4A 4221   3.627   0.056   5.584
  311POPC   C1B 4222   3.784   0.529   4.811
  311POPC   C2B 4223   3.660   0.456   5.230
  311POPC   C3B 4224   3.740   0.561   5.675
  311POPC   C4B 4225   3.777   0.737   6.120
  312POPC   NC3 4226   4.416  10.851   3.897
  312POPC   PO4 4227   4.186  10.140   3.863
  312POPC   GL1 4228   4.178  10.376   4.219
  312POPC   GL2 4229   4.518  10.456   4.209
  312POPC   C1A 4230   4.213  10.232   4.656
  312POPC   D2A 4231   4.015  10.221   5.071
  312POPC   C3A 4232   4.268  10.178   5.450
  312POPC   C4A 4233   4.212  10.068   5.920
  312POPC   C1B 4234   4.395  10.709   4.567
  312POPC   C2B 4235   4.369  10.598   5.000
  312POPC   C3B 4236   4.321  10.709   5.425
  312POPC   C4B 4237   4.321  10.532   5.810
  313POPC   NC3 4238  11.462   1.876   3.719
  313POPC   PO4 4239  10.845   1.984   3.766
  313POPC   GL1 4240  10.964   2.107   4.208
  313POPC   GL2 4241  11.307   1.991   4.237
  313POPC   C1A 4242  10.846   2.063   4.689
  313POPC   D2A 4243  10.895   1.873   5.131
  313POPC   C3A 4244  10.758   2.079   5.538
  313POPC   C4A 4245  10.969   2.247   5.895
  313POPC   C1B 4246  11.355   1.936   4.689
  313POPC   C2B 4247  11.349   2.152   5.094
  313POPC   C3B 4248  11.269   2.038   5.504
  313POPC   C4B 4249  11.078   1.699   5.671
  314POPC   NC3 4250  11.131   5.031   3.908
  314POPC   PO4 4251   0.116   5.496   3.946
  314POPC   GL1 4252  11.498   5.104   4.256
  314POPC   GL2 4253  11.118   5.156   4.391
  314POPC   C1A 4254  11.421   4.856   4.670
  314POPC   D2A 4255   0.065   5.047   5.082
  314POPC   C3A 4256  11.443   4.879   5.474
  314POPC   C4A 4257  11.456   4.986   5.919
  314POPC   C1B 4258  11.341   5.373   4.733
  314POPC   C2B 4259  11.210   5.425   5.183
  314POPC   C3B 4260  11.152   5.287   5.628
  314POPC   C4B 4261  10.906   5.075   5.957
  315POPC   NC3 4262  11.090  10.403   3.956
  315POPC   PO4 4263   0.076  10.854   3.737
  315POPC   GL1 4264  11.426  10.731   4.220
  315POPC   GL2 4265  11.382  10.403   4.394
  315POPC   C1A 4266  11.362  10.837   4.708
  315POPC   D2A 4267  11.288  10.949   5.167
  315POPC   C3A 4268   0.012  10.645   5.501
  315POPC   C4A 4269  11.369  10.523   5.923
  315POPC   C1B 4270  11.161  10.051   4.638
  315POPC   C2B 4271  10.909  10.022   5.041
  315POPC   C3B 4272  11.092  10.066   5.481
  315POPC   C4B 4273  11.463  10.049   5.750
  316POPC   NC3 4274   6.316  10.353   3.929
  316POPC   PO4 4275   6.863   9.957   3.988
  316POPC   GL1 4276   6.735  10.241   4.343
  316POPC   GL2 4277   6.471  10.518   4.372
  316POPC   C1A 4278   6.714  10.357   4.790
  316POPC   D2A 4279   6.712  10.580   5.174
  316POPC   C3A 4280   6.677  10.339   5.524
  316POPC   C4A 4281   6.718  10.436   5.941
  316POPC   C1B 4282   6.234  10.502   4.748
  316POPC   C2B 4283   6.218  10.302   5.129
  316POPC   C3B 4284   6.170  10.453   5.540
  316POPC   C4B 4285   6.298  10.168   5.841
  317POPC   NC3 4286   5.718   9.932   3.902
  317POPC   PO4 4287   5.571   9.277   4.078
  317POPC   GL1 4288   5.783   9.614   4.295
  317POPC   GL2 4289   5.612   9.898   4.400
  317POPC   C1A 4290   5.986   9.686   4.682
  317POPC   D2A 4291   5.887   9.782   5.103
  317POPC   C3A 4292   5.883   9.409   5.371
  317POPC   C4A 4293   5.662   9.195   5.743
  317POPC   C1B 4294   5.451   9.831   4.816
  317POPC   C2B 4295   5.396   9.861   5.255
  317POPC   C3B 4296   5.492   9.663   5.617
  317POPC   C4B 4297   5.881   9.671   5.794
  318POPC   NC3 4298   2.642   3.457   3.940
  318POPC   PO4 4299   2.579   4.052   3.910
  318POPC   GL1 4300   2.568   3.726   4.366
  318POPC   GL2 4301   2.734   3.360   4.410
  318POPC   C1A 4302   2.409   3.501   4.757
  318POPC   D2A 4303   2.326   3.690   5.113
  318POPC   C3A 4304   2.473   3.535   5.470
  318POPC   C4A 4305   2.591   3.504   5.914
  318POPC   C1B 4306   2.907   3.568   4.768
  318POPC   C2B 4307   3.019   3.377   5.162
  318POPC   C3B 4308   2.958   3.303   5.604
  318POPC   C4B 4309   3.093   3.649   5.881
  319POPC   NC3 4310  10.944   2.444   3.791
  319POPC   PO4 4311  11.261   3.107   3.903
  319POPC   GL1 4312  11.301   2.943   4.289
  319POPC   GL2 4313  11.181   2.610   4.212
  319POPC   C1A 4314  11.059   2.939   4.626
  319POPC   D2A 4315  10.731   3.092   4.890
  319POPC   C3A 4316  10.881   2.950   5.270
  319POPC   C4A 4317  10.986   3.084   5.672
  319POPC   C1B 4318  11.216   2.435   4.599
  319POPC   C2B 4319  11.223   2.638   5.006
  319POPC   C3B 4320  11.206   2.542   5.429
  319POPC   C4B 4321  11.209   2.679   5.844
  320POPC   NC3 4322   9.321   4.182   3.991
  320POPC   PO4 4323   9.924   4.573   3.888
  320POPC   GL1 4324   9.891   4.575   4.329
  320POPC   GL2 4325   9.742   4.258   4.358
  320POPC   C1A 4326   9.940   4.451   4.791
  320POPC   D2A 4327   9.859   4.639   5.195
  320POPC   C3A 4328   9.802   4.357   5.501
  320POPC   C4A 4329   9.651   4.300   5.860
  320POPC   C1B 4330   9.501   4.199   4.722
  320POPC   C2B 4331   9.450   4.285   5.158
  320POPC   C3B 4332   9.424   3.993   5.509
  320POPC   C4B 4333   9.329   3.910   5.949
  321POPC   NC3 4334   7.266  10.060   3.755
  321POPC   PO4 4335   7.080   9.413   3.871
  321POPC   GL1 4336   7.131   9.456   4.327
  321POPC   GL2 4337   7.494   9.432   4.327
  321POPC   C1A 4338   7.211   9.468   4.807
  321POPC   D2A 4339   7.590   9.423   5.131
  321POPC   C3A 4340   7.460   9.360   5.565
  321POPC   C4A 4341   7.032   9.442   5.702
  321POPC   C1B 4342   7.639   9.673   4.694
  321POPC   C2B 4343   7.423   9.919   4.989
  321POPC   C3B 4344   7.227   9.748   5.328
  321POPC   C4B 4345   7.215   9.991   5.699
  322POPC   NC3 4346  10.333  10.383   3.949
  322POPC   PO4 4347  10.902  10.621   4.319
  322POPC   GL1 4348  10.512  10.462   4.482
  322POPC   GL2 4349  10.172  10.525   4.416
  322POPC   C1A 4350  10.368  10.420   4.919
  322POPC   D2A 4351  10.535  10.262   5.311
  322POPC   C3A 4352  10.811  10.486   5.613
  322POPC   C4A 4353  11.060  10.850   5.622
  322POPC   C1B 4354  10.072  10.122   4.630
  322POPC   C2B 4355   9.944  10.113   5.097
  322POPC   C3B 4356  10.075  10.205   5.512
  322POPC   C4B 4357  10.347  10.402   5.807
  323POPC   NC3 4358   2.362  10.184   4.016
  323POPC   PO4 4359   1.754  10.016   3.998
  323POPC   GL1 4360   1.890  10.358   4.186
  323POPC   GL2 4361   2.070  10.151   4.425
  323POPC   C1A 4362   1.802  10.585   4.570
  323POPC   D2A 4363   1.936  10.695   4.980
  323POPC   C3A 4364   2.051  10.460   5.337
  323POPC   C4A 4365   1.941  10.619   5.734
  323POPC   C1B 4366   2.004  10.184   4.855
  323POPC   C2B 4367   1.771   9.947   5.140
  323POPC   C3B 4368   1.801  10.074   5.540
  323POPC   C4B 4369   2.161  10.173   5.830
  324POPC   NC3 4370   2.664   9.289   3.688
  324POPC   PO4 4371   2.598   9.925   3.731
  324POPC   GL1 4372   2.635   9.920   4.319
  324POPC   GL2 4373   2.931   9.703   4.465
  324POPC   C1A 4374   2.545   9.798   4.780
  324POPC   D2A 4375   2.746   9.511   5.101
  324POPC   C3A 4376   2.543   9.538   5.503
  324POPC   C4A 4377   2.526   9.826   5.837
  324POPC   C1B 4378   3.081   9.938   4.837
  324POPC   C2B 4379   3.087   9.934   5.299
  324POPC   C3B 4380   2.983   9.731   5.674
  324POPC   C4B 4381   2.995   9.859   6.115
  325POPC   NC3 4382  10.263   8.667   3.862
  325POPC   PO4 4383  10.675   9.275   3.789
  325POPC   GL1 4384  10.650   9.020   4.165
  325POPC   GL2 4385  10.345   8.908   4.288
  325POPC   C1A 4386  10.791   8.848   4.570
  325POPC   D2A 4387  10.832   8.574   4.943
  325POPC   C3A 4388  10.806   8.787   5.311
  325POPC   C4A 4389  10.592   8.808   5.660
  325POPC   C1B 4390  10.297   8.982   4.715
  325POPC   C2B 4391  10.314   8.826   5.143
  325POPC   C3B 4392  10.072   8.964   5.489
  325POPC   C4B 4393  10.226   9.082   5.874
  326POPC   NC3 4394  10.087   4.108   3.902
  326POPC   PO4 4395  10.623   4.507   3.830
  326POPC   GL1 4396  10.571   4.216   4.166
  326POPC   GL2 4397  10.269   4.221   4.352
  326POPC   C1A 4398  10.726   4.080   4.584
  326POPC   D2A 4399  10.958   4.105   4.979
  326POPC   C3A 4400  10.756   4.043   5.368
  326POPC   C4A 4401  10.690   4.279   5.728
  326POPC   C1B 4402  10.204   3.991   4.706
  326POPC   C2B 4403  10.351   4.207   5.063
  326POPC   C3B 4404  10.291   4.396   5.454
  326POPC   C4B 4405  10.144   4.121   5.803
  327POPC   NC3 4406   2.488   9.007   4.125
  327POPC   PO4 4407   3.066   9.047   3.781
  327POPC   GL1 4408   2.995   8.969   4.269
  327POPC   GL2 4409   2.816   8.637   4.275
  327POPC   C1A 4410   2.741   9.084   4.719
  327POPC   D2A 4411   2.434   9.072   5.103
  327POPC   C3A 4412   2.650   9.058   5.515
  327POPC   C4A 4413   3.046   9.228   5.633
  327POPC   C1B 4414   2.980   8.627   4.718
  327POPC   C2B 4415   2.796   8.702   5.145
  327POPC   C3B 4416   2.713   8.571   5.586
  327POPC   C4B 4417   3.074   8.732   5.801
  328POPC   NC3 4418   0.642   2.609   3.704
  328POPC   PO4 4419   1.295   2.547   3.962
  328POPC   GL1 4420   1.097   2.417   4.359
  328POPC   GL2 4421   1.459   2.346   4.468
  328POPC   C1A 4422   1.056   2.401   4.808
  328POPC   D2A 4423   1.081   2.810   4.994
  328POPC   C3A 4424   1.057   2.974   5.374
  328POPC   C4A 4425   1.039   2.745   5.739
  328POPC   C1B 4426   1.384   2.792   4.571
  328POPC   C2B 4427   1.496   3.070   4.869
  328POPC   C3B 4428   1.583   3.075   5.295
  328POPC   C4B 4429   1.416   3.139   5.700
  329POPC   NC3 4430   5.334   2.230   3.969
  329POPC   PO4 4431   5.980   1.964   3.964
  329POPC   GL1 4432   5.909   1.797   4.357
  329POPC   GL2 4433   5.573   1.928   4.358
  329POPC   C1A 4434   5.818   1.669   4.788
  329POPC   D2A 4435   5.883   1.890   5.161
  329POPC   C3A 4436   6.082   1.783   5.542
  329POPC   C4A 4437   6.106   2.186   5.744
  329POPC   C1B 4438   5.338   1.850   4.753
  329POPC   C2B 4439   5.388   1.830   5.205
  329POPC   C3B 4440   5.585   1.920   5.603
  329POPC   C4B 4441   5.708   1.647   5.925
  330POPC   NC3 4442  10.267   9.347   4.036
  330POPC   PO4 4443  10.021   9.917   3.786
  330POPC   GL1 4444  10.214   9.815   4.238
  330POPC   GL2 4445  10.570   9.794   4.150
  330POPC   C1A 4446  10.383   9.516   4.638
  330POPC   D2A 4447  10.261   9.350   5.076
  330POPC   C3A 4448  10.489   9.273   5.466
  330POPC   C4A 4449  10.499   9.510   5.874
  330POPC   C1B 4450  10.593   9.976   4.593
  330POPC   C2B 4451  10.376   9.879   4.991
  330POPC   C3B 4452  10.372   9.781   5.424
  330POPC   C4B 4453  10.626   9.996   5.727
  331POPC   NC3 4454   2.807  10.268   3.532
  331POPC   PO4 4455   3.206  10.256   4.028
  331POPC   GL1 4456   3.026  10.244   4.404
  331POPC   GL2 4457   2.784  10.469   4.301
  331POPC   C1A 4458   2.967  10.458   4.802
  331POPC   D2A 4459   2.948  10.431   5.225
  331POPC   C3A 4460   2.666  10.206   5.477
  331POPC   C4A 4461   2.866  10.252   5.839
  331POPC   C1B 4462   2.517  10.297   4.631
  331POPC   C2B 4463   2.456  10.397   5.036
  331POPC   C3B 4464   2.534  10.720   5.338
  331POPC   C4B 4465   2.508  10.632   5.767
  332POPC   NC3 4466   8.790   8.215   3.886
  332POPC   PO4 4467   9.230   7.822   3.676
  332POPC   GL1 4468   9.114   7.949   4.192
  332POPC   GL2 4469   9.086   8.311   4.309
  332POPC   C1A 4470   9.315   7.946   4.639
  332POPC   D2A 4471   9.198   7.886   5.099
  332POPC   C3A 4472   9.032   7.935   5.524
  332POPC   C4A 4473   9.184   7.729   5.871
  332POPC   C1B 4474   8.865   8.153   4.718
  332POPC   C2B 4475   8.701   8.061   5.158
  332POPC   C3B 4476   8.559   8.180   5.615
  332POPC   C4B 4477   8.478   8.323   6.075
  333POPC   NC3 4478   2.739   4.469   3.942
  333POPC   PO4 4479   3.176   4.760   4.286
  333POPC   GL1 4480   2.668   4.656   4.399
  333POPC   GL2 4481   2.503   4.276   4.375
  333POPC   C1A 4482   2.504   4.557   4.804
  333POPC   D2A 4483   2.756   4.384   5.158
  333POPC   C3A 4484   2.597   4.486   5.572
  333POPC   C4A 4485   2.669   4.731   5.954
  333POPC   C1B 4486   2.564   4.020   4.784
  333POPC   C2B 4487   2.780   3.869   5.189
  333POPC   C3B 4488   2.731   3.942   5.643
  333POPC   C4B 4489   2.856   4.217   5.963
  334POPC   NC3 4490   8.882   9.749   3.938
  334POPC   PO4 4491   8.419   9.399   4.231
  334POPC   GL1 4492   8.775   9.527   4.393
  334POPC   GL2 4493   8.761   9.892   4.387
  334POPC   C1A 4494   8.714   9.524   4.817
  334POPC   D2A 4495   8.755   9.479   5.221
  334POPC   C3A 4496   8.524   9.429   5.561
  334POPC   C4A 4497   8.796   9.448   5.899
  334POPC   C1B 4498   8.839  10.016   4.760
  334POPC   C2B 4499   8.955   9.922   5.133
  334POPC   C3B 4500   8.821   9.850   5.547
  334POPC   C4B 4501   8.978   9.916   5.938
  335POPC   NC3 4502   0.311   7.045   3.980
  335POPC   PO4 4503   0.023   7.623   3.811
  335POPC   GL1 4504   0.185   7.554   4.228
  335POPC   GL2 4505   0.531   7.472   4.260
  335POPC   C1A 4506   0.304   7.581   4.685
  335POPC   D2A 4507   0.316   7.339   5.050
  335POPC   C3A 4508   0.350   7.536   5.451
  335POPC   C4A 4509   0.193   7.355   5.848
  335POPC   C1B 4510   0.569   7.120   4.588
  335POPC   C2B 4511   0.640   6.926   5.005
  335POPC   C3B 4512   0.725   7.185   5.381
  335POPC   C4B 4513   0.707   7.393   5.812
  336POPC   NC3 4514   4.416   1.439   3.469
  336POPC   PO4 4515   4.488   1.464   4.097
  336POPC   GL1 4516   4.445   1.403   4.488
  336POPC   GL2 4517   4.292   1.086   4.464
  336POPC   C1A 4518   4.621   1.274   4.874
  336POPC   D2A 4519   4.500   0.977   5.208
  336POPC   C3A 4520   4.485   1.176   5.608
  336POPC   C4A 4521   4.435   1.426   5.985
  336POPC   C1B 4522   3.907   1.029   4.736
  336POPC   C2B 4523   3.826   0.967   5.194
  336POPC   C3B 4524   3.996   1.149   5.574
  336POPC   C4B 4525   3.934   1.253   6.007
  337POPC   NC3 4526   2.767   0.093   3.993
  337POPC   PO4 4527   2.940   0.714   3.788
  337POPC   GL1 4528   2.966   0.621   4.281
  337POPC   GL2 4529   2.917   0.267   4.443
  337POPC   C1A 4530   2.864   0.719   4.745
  337POPC   D2A 4531   2.636   0.791   5.171
  337POPC   C3A 4532   2.869   0.757   5.590
  337POPC   C4A 4533   2.792   0.552   6.013
  337POPC   C1B 4534   2.556   0.314   4.762
  337POPC   C2B 4535   2.497   0.302   5.229
  337POPC   C3B 4536   2.727   0.238   5.607
  337POPC   C4B 4537   2.589  11.484   5.958
  338W        W 4538   4.575   7.118   1.910
  339W        W 4539   5.151   6.011   0.005
  340W        W 4540   7.843   4.663  10.372
  341W        W 4541  10.026   0.225  10.589
  342W        W 4542   0.220   4.691   3.435
  343W        W 4543   7.483   3.854  10.483
  344W        W 4544  10.865   8.800  11.756
  345W        W 4545   8.568   3.209   8.923
  346W        W 4546   1.420   0.908   0.897
  347W        W 4547   1.261   6.501  10.842
  348W        W 4548   4.320   9.036   2.245
  349W        W 4549   7.712   6.473   2.732
  350W        W 4550  11.377   0.998   2.126
  351W        W 4551   9.941   2.514   3.868
  352W        W 4552   0.476  11.384   3.246
  353W        W 4553   2.249  10.422  10.442
  354W        W 4554  10.709   5.802  11.463
  355W        W 4555   3.823   7.629   0.896
  356W        W 4556  11.497   8.165  11.803
  357W        W 4557  11.105   7.992   2.199
  358W        W 4558   5.981   3.621   7.957
  359W        W 4559   5.977   4.085   3.955
  360W        W 4560   2.540   3.025   0.098
  361W        W 4561   9.182   5.290   2.907
  362W        W 4562   2.424  10.308   0.444
  363W        W 4563   2.626  10.978   3.535
  364W        W 4564   4.642   0.369   0.458
  365W        W 4565   6.219   0.387   2.756
  366W        W 4566   2.349   5.763   0.952
  367W        W 4567   9.317  11.132  10.315
  368W        W 4568   7.262   6.155  10.507
  369W        W 4569   5.808   6.833  11.513
  370W        W 4570  11.282  10.565  11.310
  371W        W 4571   2.211  10.884   3.266
  372W        W 4572   7.959   8.400   1.867
  373W        W 4573   7.007   4.742   1.424
  374W        W 4574   0.897   1.404  10.454
  375W        W 4575   5.652   0.500   0.015
  376W        W 4576  10.382   2.783   3.122
  377W        W 4577   2.656   8.766   3.715
  378W        W 4578   3.276   8.570   0.826
  379W        W 4579   5.245   2.425  10.768
  380W        W 4580   2.709   2.565   9.894
  381W        W 4581   2.649   4.732   3.393
  382W        W 4582   3.809   8.990   3.038
  383W        W 4583   6.098   0.485   9.268
  384W        W 4584   6.764   6.485   1.980
  385W        W 4585   5.834   4.136   8.156
  386W        W 4586   0.608   2.473  11.826
  387W        W 4587   1.758   5.375  10.381
  388W        W 4588   0.572   2.811   0.691
  389W        W 4589   3.239   1.513   0.037
  390W        W 4590   6.606   1.008   0.876
  391W        W 4591   6.062   7.406  10.283
  392W        W 4592   4.422   8.919   0.746
  393W        W 4593   2.654   4.133   9.785
  394W        W 4594   3.702   4.742  11.658
  395W        W 4595  10.782   6.742  11.086
  396W        W 4596   0.978  10.490   2.787
  397W        W 4597   9.564   0.303   1.939
  398W        W 4598   8.920   2.464  10.963
  399W        W 4599   9.184   8.944   3.021
  400W        W 4600   9.153  10.825   9.955
  401W        W 4601   8.990  11.297   1.681
  402W        W 4602   9.043   9.542   9.906
  403W        W 4603   5.233   9.253   1.314
  404W        W 4604   9.354  10.408  11.442
  405W        W 4605   7.680   5.226   0.734
  406W        W 4606   1.494   2.800   1.476
  407W        W 4607   3.864   4.652   2.733
  408W        W 4608   5.666  10.349  11.310
  409W        W 4609  10.475   3.270   9.045
  410W        W 4610   9.829  10.565  11.439
  411W        W 4611   4.250   1.765  10.589
  412W        W 4612   3.212   8.194   9.583
  413W        W 4613  10.512   4.635   1.470
  414W        W 4614   1.129   8.352   8.855
  415W        W 4615  11.361   4.364   0.557
  416W        W 4616  10.452   7.398   1.666
  417W        W 4617   6.570   7.581  11.460
  418W        W 4618   5.531   6.164   0.311
  419W        W 4619   4.202   2.819   0.448
  420W        W 4620   4.716   6.226   0.157
  421W        W 4621   8.041   9.987  10.878
  422W        W 4622   9.463  11.297   1.903
  423W        W 4623   4.328   0.186   9.754
  424W        W 4624   7.094   4.294   0.082
  425W        W 4625   9.160   7.325   3.438
  426W        W 4626   9.459   4.232  11.527
  427W        W 4627   5.419   3.557   9.129
  428W        W 4628  10.604   8.847   0.345
  429W        W 4629   5.637  11.214   2.203
  430W        W 4630   5.704   4.507   2.961
  431W        W 4631   5.091  11.450  10.600
  432W        W 4632   5.764   3.270  10.303
  433W        W 4633  10.937   8.061  11.102
  434W        W 4634   1.797   3.260   3.124
  435W        W 4635  11.224   0.390  10.809
  436W        W 4636   6.006  10.078  11.664
  437W        W 4637   3.611   5.177   8.111
  438W        W 4638   4.833   8.740   8.141
  439W        W 4639   2.263  10.247   9.900
  440W        W 4640   1.748   9.817   0.032
  441W        W 4641   6.976   2.676   1.612
  442W        W 4642  10.039   2.376  10.858
  443W        W 4643   0.350   0.401   9.014
  444W        W 4644   6.463   0.171  11.023
  445W        W 4645   6.484   3.823   9.848
  446W        W 4646   1.008   6.277   3.943
  447W        W 4647   9.297   9.389   8.952
  448W        W 4648   5.284   7.366   1.712
  449W        W 4649  10.238   7.667   0.841
  450W        W 4650   9.125   5.044  11.946
  451W        W 4651   4.992  10.514  10.646
  452W        W 4652   1.350   3.408  10.640
  453W        W 4653   2.694   4.034  11.961
  454W        W 4654   4.473   0.392   8.850
  455W        W 4655   4.744   3.125   2.765
  456W        W 4656   4.047   4.279  11.424
  457W        W 4657   2.615  10.316   0.933
  458W        W 4658  10.797   1.770  10.939
  459W        W 4659   6.955   9.746   3.492
  460W        W 4660  10.898   0.921   0.248
  461W        W 4661   9.848   1.243   9.803
  462W        W 4662   8.461   9.150   9.002
  463W        W 4663   2.467   5.361   1.669
  464W        W 4664   7.676   3.857   4.009
  465W        W 4665   1.068   6.604   8.372
  466W        W 4666   7.396   7.499  10.724
  467W        W 4667   2.151   6.530   3.291
  468W        W 4668   8.788   9.458   1.808
  469W        W 4669   9.514   0.584   9.807
  470W        W 4670   8.134   4.639  10.783
  471W        W 4671   2.114   2.302   0.235
  472W        W 4672  11.164   4.959  11.123
  473W        W 4673   8.377   5.590   0.334
  474W        W 4674   1.355   3.391  11.632
  475W        W 4675   2.347   3.744  10.012
  476W        W 4676   6.225   1.045   9.898
  477W        W 4677   6.596   6.948   2.194
  478W        W 4678  11.051  11.270   2.220
  479W        W 4679   3.509   6.187   1.734
  480W        W 4680   4.672   2.214  11.291
  481W        W 4681   9.548   0.297  11.371
  482W        W 4682   9.433   9.116  10.278
  483W        W 4683  10.440   8.678  11.451
  484W        W 4684   6.002   6.927   0.786
  485W        W 4685   2.522   8.188   9.120
  486W        W 4686   2.913  10.641   3.215
  487W        W 4687   5.753   3.657  11.374
  488W        W 4688   9.639   7.200   9.503
  489W        W 4689  10.569   7.024  11.898
  490W        W 4690   3.310   6.949  11.449
  491W        W 4691  11.305  11.133   0.068
  492W        W 4692   2.743   4.543   0.065
  493W        W 4693   6.560   4.072   9.386
  494W        W 4694   4.041   8.335   3.502
  495W        W 4695   1.252   9.936  10.752
  496W        W 4696   7.618  11.075   1.690
  497W        W 4697  10.005   3.755  11.622
  498W        W 4698  11.117   5.466  10.864
  499W        W 4699   7.215   3.985   2.463
  500W        W 4700   1.859   6.119  11.343
  501W        W 4701   9.755   9.035   0.891
  502W        W 4702   8.445   1.631  10.846
  503W        W 4703   9.611  11.218   2.764
  504W        W 4704   1.362   1.750   0.691
  505W        W 4705   4.328   9.161   1.208
  506W        W 4706   0.334   4.742  11.703
  507W        W 4707   0.590   4.216   0.722
  508W        W 4708  10.496  10.227   0.683
  509W        W 4709   0.804   0.337  11.823
  510W        W 4710   8.455   5.476   3.740
  511W        W 4711   0.833  10.774   9.869
  512W        W 4712   4.686   0.908   2.146
  513W        W 4713   3.603   8.563  11.736
  514W        W 4714   3.423   8.066   3.136
  515W        W 4715   4.279   3.346   2.818
  516W        W 4716   1.173   7.827   1.073
  517W        W 4717   8.756   1.496   2.991
  518W        W 4718   5.267   8.734   8.609
  519W        W 4719   8.084   1.178   9.314
  520W        W 4720   0.923  11.268   0.945
  521W        W 4721   6.653   5.573   2.488
  522W        W 4722   4.363   1.334   9.475
  523W        W 4723   2.168   6.585   1.303
  524W        W 4724   0.903   7.955   9.103
  525W        W 4725   3.533   0.438   2.329
  526W        W 4726   1.990   3.732   8.489
  527W        W 4727   7.157   1.402  11.426
  528W        W 4728   3.688   6.576   3.100
  529W        W 4729   0.823   6.594  10.025
  530W        W 4730   1.593   5.322   0.830
  531W        W 4731   1.605   2.700  11.674
  532W        W 4732   6.412   8.877  10.254
  533W        W 4733   3.127  11.068   3.426
  534W        W 4734  10.616   0.317   1.751
  535W        W 4735  10.025   8.619   9.681
  536W        W 4736   5.252   3.561  11.336
  537W        W 4737  10.574   3.095  11.572
  538W        W 4738   1.751   0.509   2.612
  539W        W 4739   5.519   3.503   4.266
  540W        W 4740   2.474   8.575  10.771
  541W        W 4741   1.738   7.956   3.016
  542W        W 4742   7.991   3.454   2.111
  543W        W 4743   9.670   9.631   0.083
  544W        W 4744   7.984  11.283   2.962
  545W        W 4745  10.009   7.425   0.466
  546W        W 4746   5.547   8.606  10.655
  547W        W 4747   2.119   0.963   9.384
  548W        W 4748   7.257   1.290   2.284
  549W        W 4749   7.140  10.393  10.863
  550W        W 4750   0.713   6.483   2.773
  551W        W 4751   2.312   1.715   2.467
  552W        W 4752   5.698   4.214   0.118
  553W        W 4753   2.034   5.230  11.730
  554W        W 4754   0.555   5.101   2.767
  555W        W 4755   4.160   8.517  10.511
  556W        W 4756   3.351   9.391   1.921
  557W        W 4757   5.260   8.259   2.968
  558W        W 4758  10.035   3.521   0.062
  559W        W 4759   0.673   3.596   2.789
  560W        W 4760   9.611   1.435  10.596
  561W        W 4761   4.327   6.566   1.713
  562W        W 4762  11.139   9.524   9.533
  563W        W 4763   9.268   9.430   3.103
  564W        W 4764   3.953  10.984   3.166
  565W        W 4765   7.041  11.063   1.542
  566W        W 4766   2.181   9.751  10.805
  567W        W 4767   4.100   2.640   2.322
  568W        W 4768   6.209   4.116   8.650
  569W        W 4769   3.239   0.013   2.193
  570W        W 4770   6.045   7.169   3.957
  571W        W 4771  10.491   6.484   2.835
  572W        W 4772   3.424   8.950   3.395
  573W        W 4773   6.733  11.066   0.546
  574W        W 4774   6.145   3.005   8.612
  575W        W 4775   5.569   5.556  10.009
  576W        W 4776   1.348   4.200   2.924
  577W        W 4777   7.622   0.502  11.582
  578W        W 4778   6.925   6.524   0.703
  579W        W 4779   2.318   4.818  10.958
  580W        W 4780   0.501   1.299   9.887
  581W        W 4781   5.947   0.598   9.858
  582W        W 4782   7.598   2.472   1.210
  583W        W 4783   3.802   2.323  11.764
  584W        W 4784   8.237   1.313   1.753
  585W        W 4785   0.727   9.070   3.030
  586W        W 4786   9.960  11.405   9.863
  587W        W 4787   4.905   1.831   3.273
  588W        W 4788   3.620   1.642   9.051
  589W        W 4789   7.379   7.134  11.490
  590W        W 4790   3.152   4.231   2.766
  591W        W 4791   5.619   7.548  10.480
  592W        W 4792  10.463   4.708   1.960
  593W        W 4793   5.159   5.596   0.314
  594W        W 4794   9.437   7.688   9.406
  595W        W 4795   4.960   1.416  11.549
  596W        W 4796   4.948   3.080   8.686
  597W        W 4797   0.314   9.046   9.256
  598W        W 4798   3.760   5.172   2.659
  599W        W 4799  10.334   4.744   2.432
  600W        W 4800   4.353   1.708  11.507
  601W        W 4801   2.229   3.608   1.747
  602W        W 4802  10.906   8.464  11.395
  603W        W 4803   3.743  11.337  10.874
  604W        W 4804   5.718   0.119   1.869
  605W        W 4805   1.668   1.877   1.773
  606W        W 4806   6.213   3.406   0.023
  607W        W 4807   5.060   8.110  11.277
  608W        W 4808   2.858   7.393   0.676
  609W        W 4809   3.529   2.867  11.261
  610W        W 4810   4.276   9.612   8.986
  611W        W 4811   5.636   6.620   1.106
  612W        W 4812  10.715   9.456  11.121
  613W        W 4813   3.718   7.510   3.081
  614W        W 4814   1.312   8.670  11.907
  615W        W 4815   0.198   3.014   9.290
  616W        W 4816   2.710   3.603   1.528
  617W        W 4817   3.155   2.974   2.349
  618W        W 4818   1.920   8.545   9.919
  619W        W 4819   4.655   2.906  11.831
  620W        W 4820   1.932   9.445   2.566
  621W        W 4821   4.067  10.279  11.832
  622W        W 4822   3.635   6.268  11.890
  623W        W 4823   1.268   9.046   0.721
  624W        W 4824   5.165   1.039   9.973
  625W        W 4825   9.074   8.071   2.930
  626W        W 4826   2.751   8.347   1.506
  627W        W 4827   0.868   3.028  11.034
  628W        W 4828   9.138   1.000   8.714
  629W        W 4829   4.298   8.045  11.986
  630W        W 4830   6.100   8.692   3.637
  631W        W 4831   7.787   2.061  11.867
  632W        W 4832   1.281   9.895   3.004
  633W        W 4833   3.276   0.400   1.862
  634W        W 4834   4.159   6.056   8.307
  635W        W 4835   3.161   6.169   0.721
  636W        W 4836   7.600   6.873   9.969
  637W        W 4837  11.216   5.679   2.758
  638W        W 4838   1.429   9.511  10.497
  639W        W 4839   7.427  11.167  11.863
  640W        W 4840   2.039   2.299  10.478
  641W        W 4841   9.291   9.909  11.377
  642W        W 4842   2.344  11.036   9.130
  643W        W 4843   8.375   6.150   3.151
  644W        W 4844   3.339   3.484   4.195
  645W        W 4845   6.526   1.827   0.444
  646W        W 4846   5.301   7.619   0.827
  647W        W 4847  10.847   6.389   3.518
  648W        W 4848   9.408   0.824   9.123
  649W        W 4849   3.601   4.985  10.784
  650W        W 4850   6.020   9.916  11.145
  651W        W 4851   1.695   4.107   9.426
  652W        W 4852   1.645   7.111   0.995
  653W        W 4853   8.145   3.387   2.610
  654W        W 4854   7.354   0.931  11.406
  655W        W 4855   7.032   1.881   1.646
  656W        W 4856   5.226   2.665  11.800
  657W        W 4857   7.932   8.978   0.837
  658W        W 4858  10.073   4.331   9.389
  659W        W 4859   9.878   3.857   3.075
  660W        W 4860   7.430   5.986   9.868
  661W        W 4861   8.516   1.400  11.456
  662W        W 4862   1.445   8.180   1.322
  663W        W 4863   8.017  10.789   0.559
  664W        W 4864   5.226   0.643   0.925
  665W        W 4865   8.231   6.101   0.376
  666W        W 4866   9.077   8.072  10.737
  667W        W 4867   5.470   6.536   9.169
  668W        W 4868   6.068   9.813   8.654
  669W        W 4869   9.948   5.672   9.006
  670W        W 4870  11.190   3.822   2.683
  671W        W 4871   7.526   4.709   1.645
  672W        W 4872   8.527   8.970  11.977
  673W        W 4873   2.709   6.156   1.999
  674W        W 4874   1.238   6.567  10.329
  675W        W 4875   4.772   9.447   1.180
  676W        W 4876   5.222   9.395  10.055
  677W        W 4877   5.171   8.548   2.063
  678W        W 4878  11.400   2.952   8.876
  679W        W 4879   0.806   9.086   0.502
  680W        W 4880   6.054   2.052   2.759
  681W        W 4881   4.080   2.887  11.093
  682W        W 4882   7.045   0.088   9.241
  683W        W 4883   1.747   7.945   0.389
  684W        W 4884  10.874   6.371   9.297
  685W        W 4885   1.287   6.487   9.790
  686W        W 4886   9.001  10.845   2.038
  687W        W 4887   8.061   7.172   0.674
  688W        W 4888   1.206  10.877   9.520
  689W        W 4889   1.394   6.960  10.998
  690W        W 4890   8.594   9.802   9.807
  691W        W 4891   8.845   4.065  11.760
  692W        W 4892   6.269   2.159   3.218
  693W        W 4893   6.036   9.487   0.806
  694W        W 4894   1.122   0.290  10.878
  695W        W 4895   4.743   5.656   0.633
  696W        W 4896   4.214   7.545  10.512
  697W        W 4897   8.954   8.687   8.492
  698W        W 4898   2.959   5.290   1.591
  699W        W 4899   6.326   3.307   1.336
  700W        W 4900   6.484   8.333  10.997
  701W        W 4901   4.057   7.255   2.778
  702W        W 4902  10.763   4.163  10.064
  703W        W 4903   2.676   1.210  10.829
  704W        W 4904   9.197   5.896  10.782
  705W        W 4905   6.993   0.611  11.217
  706W        W 4906   7.142   6.197   2.252
  707W        W 4907   3.080   3.104   9.527
  708W        W 4908   4.946   5.223  11.485
  709W        W 4909   4.119   0.268   1.519
  710W        W 4910   0.864   1.262   1.534
  711W        W 4911   4.669   2.823   3.440
  712W        W 4912  10.413   6.473   9.028
  713W        W 4913   2.622   6.155   2.847
  714W        W 4914   9.977   8.877  11.577
  715W        W 4915   8.265   0.305  10.490
  716W        W 4916   8.839   0.254   1.823
  717W        W 4917   6.501   8.217   1.995
  718W        W 4918   4.150   6.063   0.843
  719W        W 4919   6.297   1.446  11.620
  720W        W 4920   8.016   6.465   0.015
  721W        W 4921   2.653   3.286   0.544
  722W        W 4922   1.254   0.776   9.954
  723W        W 4923   4.695   5.683  11.516
  724W        W 4924   2.998   3.742   2.833
  725W        W 4925  11.035   1.609   2.822
  726W        W 4926   6.918   7.512  11.854
  727W        W 4927   3.780  10.828   8.964
  728W        W 4928   4.920  10.781   3.438
  729W        W 4929   4.400   0.718  11.655
  730W        W 4930  10.473   6.906  10.697
  731W        W 4931   6.639   1.564   0.864
  732W        W 4932   0.218   3.495   9.909
  733W        W 4933   5.001  10.359  11.970
  734W        W 4934   0.823   7.166   0.508
  735W        W 4935   6.107   2.689   1.209
  736W        W 4936   8.902   1.456   1.726
  737W        W 4937   1.192  10.096   3.511
  738W        W 4938  10.932   1.300  10.670
  739W        W 4939   1.648  11.444  10.123
  740W        W 4940   1.139   7.312   1.037
  741W        W 4941   2.106   6.211   0.914
  742W        W 4942   4.500   3.189   2.277
  743W        W 4943  10.025  10.829  10.901
  744W        W 4944  10.355   8.830  10.947
  745W        W 4945   8.103  10.160  10.416
  746W        W 4946  10.003   7.198   1.883
  747W        W 4947   5.521   8.473   9.023
  748W        W 4948   3.817  10.438   1.431
  749W        W 4949   4.807   1.000  11.789
  750W        W 4950   1.275  10.674   1.927
  751W        W 4951   1.768   2.432   2.828
  752W        W 4952   6.679   5.226   1.384
  753W        W 4953  10.030   8.404   9.217
  754W        W 4954   3.365   4.670   2.606
  755W        W 4955   4.587   3.720   1.995
  756W        W 4956   4.300   2.439  10.975
  757W        W 4957   8.566   1.933   9.360
  758W        W 4958  11.297   4.250   9.395
  759W        W 4959   9.439   5.533  10.007
  760W        W 4960   8.382   8.075  10.007
  761W        W 4961   6.941   4.183   0.579
  762W        W 4962   1.261   5.339   1.259
  763W        W 4963   3.448   3.220  10.388
  764W        W 4964   4.729   0.357   9.370
  765W        W 4965   9.770   6.720   8.219
  766W        W 4966   8.184   0.441   9.972
  767W        W 4967   6.321   6.120  11.482
  768W        W 4968   5.181   4.835  11.738
  769W        W 4969   2.244   3.840   8.938
  770W        W 4970  11.495  11.221   0.985
  771W        W 4971   9.955   6.193   8.929
  772W        W 4972   1.134   9.528   9.022
  773W        W 4973   6.284   5.299   1.750
  774W        W 4974   7.929   9.799  11.793
  775W        W 4975   4.550   2.300  10.024
  776W        W 4976   0.424   0.335   1.934
  777W        W 4977   7.448   0.982   2.999
  778W        W 4978   7.465   1.472  10.488
  779W        W 4979   0.070   7.296   0.340
  780W        W 4980  10.695   2.952   9.424
  781W        W 4981   8.486   2.385  11.237
  782W        W 4982   5.754   3.681   2.290
  783W        W 4983   7.223   8.449  11.939
  784W        W 4984   7.804   4.234   1.583
  785W        W 4985   0.142   6.142   9.868
  786W        W 4986   4.774   4.116   9.611
  787W        W 4987   7.671   9.549   9.774
  788W        W 4988   5.569   0.283  11.544
  789W        W 4989   5.529   9.867   8.526
  790W        W 4990  11.244   2.221  10.613
  791W        W 4991   7.816   7.947   0.595
  792W        W 4992  11.059   7.010  11.942
  793W        W 4993   7.961   4.283   2.816
  794W        W 4994   6.754   8.077   0.243
  795W        W 4995  11.269   0.345   9.916
  796W        W 4996   7.546  10.594   2.610
  797W        W 4997   4.548   0.837  10.329
  798W        W 4998   7.453   5.213  11.763
  799W        W 4999   7.219   0.876   9.801
  800W        W 5000   6.638  11.369   9.028
  801W        W 5001   7.955   6.161   8.739
  802W        W 5002   4.609   3.084   0.302
  803W        W 5003   3.047   9.056  11.477
  804W        W 5004   7.550   1.708  11.083
  805W        W 5005   8.846   7.987   2.006
  806W        W 5006  11.307  10.791   0.752
  807W        W 5007   0.794   7.506  11.758
  808W        W 5008   4.715   7.488  11.328
  809W        W 5009   1.030   7.963   9.605
  810W        W 5010   9.845   6.548  11.776
  811W        W 5011   0.094  11.454  11.768
  812W        W 5012  10.537   0.340   9.266
  813W        W 5013   5.331   6.610   2.097
  814W        W 5014   2.900  10.129   1.770
  815W        W 5015   5.324   6.752  11.616
  816W        W 5016  10.222   5.680   9.440
  817W        W 5017  11.071   4.479  10.367
  818W        W 5018   6.449   3.762   8.959
  819W        W 5019   4.197   6.540   2.211
  820W        W 5020   4.032   6.710  10.027
  821W        W 5021   8.856   9.914  11.148
  822W        W 5022   8.947   1.092  11.432
  823W        W 5023   9.718   8.152   1.750
  824W        W 5024   3.748   9.500   2.288
  825W        W 5025   0.269   7.507   1.923
  826W        W 5026   4.715   9.881   8.852
  827W        W 5027   7.077   9.367  11.692
  828W        W 5028   5.453  10.365  10.344
  829W        W 5029   5.469   3.777   8.655
  830W        W 5030  10.460  11.351   9.852
  831W        W 5031  11.465   8.471  10.814
  832W        W 5032   1.328  10.894   3.050
  833W        W 5033   8.889   1.445  10.682
  834W        W 5034   7.258   0.077   9.706
  835W        W 5035  10.329   5.656   0.401
  836W        W 5036   8.629   3.713   8.174
  837W        W 5037  10.311   7.302  10.357
  838W        W 5038  10.324   2.921   9.768
  839W        W 5039   0.455   2.209  10.781
  840W        W 5040  10.938   0.069   0.798
  841W        W 5041   7.875   5.729   0.323
  842W        W 5042  10.873   0.712   9.895
  843W        W 5043   4.065   5.536  11.791
  844W        W 5044   3.743   8.938  10.093
  845W        W 5045   9.545  10.556  11.889
  846W        W 5046   4.684   0.486   0.960
  847W        W 5047   0.999   2.698   2.128
  848W        W 5048   1.970   0.441  11.050
  849W        W 5049  10.906   6.172  11.796
  850W        W 5050   9.355   5.666   0.668
  851W        W 5051   5.918   3.644   8.958
  852W        W 5052   1.636   9.355   2.144
  853W        W 5053   0.021   7.164   3.524
  854W        W 5054   8.026   7.206   2.547
  855W        W 5055   0.866   3.286  11.468
  856W        W 5056   6.573   0.284   1.984
  857W        W 5057   8.072   0.518   3.336
  858W        W 5058  10.699   9.782  11.520
  859W        W 5059   7.712   2.229   2.173
  860W        W 5060   5.114   7.001  10.460
  861W        W 5061   9.643   2.057   1.822
  862W        W 5062   6.653  11.278  10.759
  863W        W 5063   4.424   9.762   0.925
  864W        W 5064   5.933   6.621  10.407
  865W        W 5065   1.224   7.571   9.234
  866W        W 5066   1.898  10.609   9.856
  867W        W 5067  10.747   8.349   0.364
  868W        W 5068   8.866   9.965   1.051
  869W        W 5069   0.671   5.983   2.829
  870W        W 5070  10.836   9.597  10.074
  871W        W 5071   9.988  10.081   1.684
  872W        W 5072   2.768   2.269   3.633
  873W        W 5073   5.615  11.495   3.137
  874W        W 5074  11.021  11.172   9.033
  875W        W 5075   7.987   1.855   1.939
  876W        W 5076   2.972   0.660   9.541
  877W        W 5077  10.854   9.164   9.759
  878W        W 5078   4.645   1.941   2.482
  879W        W 5079   5.446   7.160  11.919
  880W        W 5080   8.574   3.226  11.293
  881W        W 5081   9.981  10.014   9.243
  882W        W 5082   0.342   6.091   9.406
  883W        W 5083   4.121   1.610  11.947
  884W        W 5084   8.487   1.738   8.876
  885W        W 5085  10.504   9.799   0.413
  886W        W 5086   4.198   7.228  10.904
  887W        W 5087   5.480   9.893   2.442
  888W        W 5088   4.981   6.907  11.950
  889W        W 5089   5.044   4.534   1.230
  890W        W 5090   4.340  11.270   2.987
  891W        W 5091   7.162   7.384   2.611
  892W        W 5092  11.147  10.274   2.329
  893W        W 5093   0.511   9.997   1.874
  894W        W 5094   0.813   0.674   9.104
  895W        W 5095   5.654   0.892  11.672
  896W        W 5096   7.851  10.397   0.276
  897W        W 5097   6.699   7.302   1.795
  898W        W 5098   9.418   7.340   1.851
  899W        W 5099   6.444   3.200   9.555
  900W        W 5100   6.181   7.006   3.097
  901W        W 5101   6.187   3.556  10.294
  902W        W 5102   3.400   9.334   0.278
  903W        W 5103   3.871   1.658  10.929
  904W        W 5104   2.008   0.462   9.527
  905W        W 5105   1.921   1.562   2.752
  906W        W 5106   5.161   6.950   9.256
  907W        W 5107  10.626   5.034  10.361
  908W        W 5108   8.943   9.305   9.334
  909W        W 5109   1.356   3.154   9.789
  910W        W 5110   3.806   3.734   2.180
  911W        W 5111   5.883   7.455   9.318
  912W        W 5112   6.778   7.826   3.258
  913W        W 5113   6.379  10.034   2.902
  914W        W 5114   0.902   3.632   9.316
  915W        W 5115   5.831  10.321  10.818
  916W        W 5116   3.531   0.791  10.463
  917W        W 5117   7.113   6.927   9.802
  918W        W 5118   9.726  11.424  10.324
  919W        W 5119   4.952   8.368   0.258
  920W        W 5120   7.051   0.506   2.710
  921W        W 5121   0.308   7.343  10.345
  922W        W 5122   3.571  10.372   2.481
  923W        W 5123   6.969   7.424   9.823
  924W        W 5124   9.054   6.438   8.399
  925W        W 5125   3.955   9.839  11.573
  926W        W 5126  10.426   7.653  11.529
  927W        W 5127   9.894   6.672  10.765
  928W        W 5128   2.832   1.411   3.348
  929W        W 5129   2.986   9.855   9.480
  930W        W 5130   7.640   6.680   0.317
  931W        W 5131   9.364  10.588   0.362
  932W        W 5132   0.245   4.605   0.812
  933W        W 5133  11.069   2.666  10.794
  934W        W 5134   1.833  10.412   2.637
  935W        W 5135   2.446   0.704   1.629
  936W        W 5136   9.818   4.158  11.908
  937W        W 5137  10.025   3.697  11.130
  938W        W 5138   1.354   7.546   3.273
  939W        W 5139   5.035   3.644  10.070
  940W        W 5140   8.660  10.530   0.896
  941W        W 5141   1.884   8.373   1.533
  942W        W 5142   9.336   2.896   1.580
  943W        W 5143   9.252   5.747   8.448
  944W        W 5144   6.780   7.588   0.772
  945W        W 5145   3.132   7.453   0.212
  946W        W 5146   4.766   9.507   3.225
  947W        W 5147   4.489   1.206  11.452
  948W        W 5148   7.616   3.336   2.453
  949W        W 5149   3.145  10.366  11.767
  950W        W 5150   6.668   9.010   9.811
  951W        W 5151   0.315   2.611   9.996
  952W        W 5152   2.325   7.200   9.057
  953W        W 5153   6.253   3.767  11.445
  954W        W 5154   0.679   7.309   2.653
  955W        W 5155   3.641   9.405   0.748
  956W        W 5156   0.512   1.688   9.083
  957W        W 5157  11.457   0.011   8.890
  958W        W 5158   6.752   9.797   0.374
  959W        W 5159   5.883   7.291  11.701
  960W        W 5160   4.953   7.988  10.666
  961W        W 5161   3.278   2.145   9.208
  962W        W 5162   3.705   1.978  11.317
  963W        W 5163   7.241   3.109  10.153
  964W        W 5164   7.724   9.554   0.240
  965W        W 5165   9.937   5.011   9.244
  966W        W 5166   4.459  11.005   0.880
  967W        W 5167   9.773   2.398  11.298
  968W        W 5168  10.798   9.394   9.157
  969W        W 5169   5.291   5.104   0.350
  970W        W 5170   9.145   5.939  10.250
  971W        W 5171   6.069   9.470   2.972
  972W        W 5172  11.286   6.523  11.886
  973W        W 5173   1.006   0.274   9.586
  974W        W 5174   1.016   0.512  10.421
  975W        W 5175   7.340   7.948  10.452
  976W        W 5176   0.225   0.779   2.858
  977W        W 5177   6.080   7.562  11.280
  978W        W 5178   4.549   4.539   1.333
  979W        W 5179  10.362  10.829   1.963
  980W        W 5180   3.072   0.831   1.222
  981W        W 5181   8.622   4.711   1.742
  982W        W 5182   4.708   7.589  10.319
  983W        W 5183   8.606   4.812  11.993
  984W        W 5184   3.218   7.385  11.712
  985W        W 5185   7.265   2.318   1.841
  986W        W 5186   8.449   2.736   3.569
  987W        W 5187   5.688  10.857   9.478
  988W        W 5188  11.380   8.652  11.631
  989W        W 5189   9.003   4.545   8.353
  990W        W 5190   9.324   0.358   1.072
  991W        W 5191   7.059   5.513  11.992
  992W        W 5192   3.920   2.128   2.911
  993W        W 5193   8.125   6.549   1.368
  994W        W 5194   3.909   6.647   8.985
  995W        W 5195   5.289  11.469   9.711
  996W        W 5196   6.915   8.579   1.328
  997W        W 5197  10.927  10.094  11.880
  998W        W 5198   1.889   5.022  10.736
  999W        W 5199   4.284   8.164   1.389
 1000W        W 5200   1.014   4.985   2.590
 1001W        W 5201  10.389   8.958  11.877
 1002W        W 5202   2.688   1.185  10.320
 1003W        W 5203   8.886   2.798   1.831
 1004W        W 5204   7.988   9.030   2.641
 1005W        W 5205   7.137   3.087  10.677
 1006W        W 5206  11.020   5.669  11.841
 1007W        W 5207   2.706   3.104   9.880
 1008W        W 5208   3.935   0.743   1.596
 1009W        W 5209   7.185   9.038  11.257
 1010W        W 5210   7.601   3.624  10.949
 1011W        W 5211   2.676   4.119   1.509
 1012W        W 5212   1.379   3.876   3.382
 1013W        W 5213  10.914  10.632   1.696
 1014W        W 5214   0.781   6.057   2.335
 1015W        W 5215  10.181   8.067   8.833
 1016W        W 5216   3.764  10.449   1.962
 1017W        W 5217  10.765   2.325   9.276
 1018W        W 5218   0.547   0.480   9.500
 1019W        W 5219   6.154  11.456   3.319
 1020W        W 5220   5.261   7.266   2.788
 1021W        W 5221   9.522  10.675   3.252
 1022W        W 5222   0.074   5.861   3.602
 1023W        W 5223   5.972   9.937   3.217
 1024W        W 5224   5.179   6.548   9.603
 1025W        W 5225   6.725  10.930  10.305
 1026W        W 5226   7.868   2.210  10.222
 1027W        W 5227   0.193  10.917   1.760
 1028W        W 5228   9.095   5.071   8.131
 1029W        W 5229   5.639   3.727   0.262
 1030W        W 5230   0.880   2.821   3.138
 1031W        W 5231   1.278   2.557  10.408
 1032W        W 5232   9.071   2.089   9.476
 1033W        W 5233   6.881   8.107  10.708
 1034W        W 5234   2.912   8.053   0.010
 1035W        W 5235   4.038   0.235   2.328
 1036W        W 5236   9.436   3.722   8.975
 1037W        W 5237  10.798   6.586   0.093
 1038W        W 5238   8.228   4.888   0.539
 1039W        W 5239   0.903  11.146   8.997
 1040W        W 5240  11.055   9.650   8.797
 1041W        W 5241   8.878   7.641   3.146
 1042W        W 5242   1.011   2.040   8.607
 1043W        W 5243   5.928   1.280   1.216
 1044W        W 5244   5.741   5.786   2.502
 1045W        W 5245   7.449   8.571   9.647
 1046W        W 5246  11.214   0.725   2.530
 1047W        W 5247   9.012   9.009  10.725
 1048W        W 5248   5.576   4.542  11.201
 1049W        W 5249   2.870   0.438   0.749
 1050W        W 5250   4.215  10.080   8.773
 1051W        W 5251   3.184   6.736  10.779
 1052W        W 5252   0.476  11.471   8.730
 1053W        W 5253   7.111   0.725   1.830
 1054W        W 5254   5.254   0.002   3.528
 1055W        W 5255   1.577   7.215  10.218
 1056W        W 5256   4.754   8.609   8.626
 1057W        W 5257   3.480   0.276   3.242
 1058W        W 5258   3.188   5.744   1.537
 1059W        W 5259   7.294   6.077   1.434
 1060W        W 5260   6.128   2.156   1.275
 1061W        W 5261   3.677   8.526   3.179
 1062W        W 5262   7.603   9.734   2.315
 1063W        W 5263   4.839   9.628  10.281
 1064W        W 5264   5.499   7.583   1.278
 1065W        W 5265   7.419   4.956   9.453
 1066W        W 5266  11.334   0.859   9.992
 1067W        W 5267   3.272   9.395   3.201
 1068W        W 5268   5.793   7.408   1.645
 1069W        W 5269   2.786   4.574  11.184
 1070W        W 5270   9.806   1.879  11.387
 1071W        W 5271   0.186   1.304   8.912
 1072W        W 5272   9.528   3.144  11.060
 1073W        W 5273   1.436   3.927  10.442
 1074W        W 5274   4.314   4.162   0.640
 1075W        W 5275   5.763  10.314   2.287
 1076W        W 5276   9.139   3.206   2.607
 1077W        W 5277   5.827  11.106   1.738
 1078W        W 5278   1.218   2.776   3.510
 1079W        W 5279  10.934  11.442  10.889
 1080W        W 5280   7.666  11.342   2.141
 1081W        W 5281   7.022   1.027   2.663
 1082W        W 5282   2.530   4.372  11.593
 1083W        W 5283   1.002   4.600  10.926
 1084W        W 5284   2.023   1.505   8.484
 1085W        W 5285   7.306   2.214  11.882
 1086W        W 5286   0.775   3.766   1.318
 1087W        W 5287   9.748   9.517   2.000
 1088W        W 5288   7.772   3.890  11.379
 1089W        W 5289   6.417   7.451   3.201
 1090W        W 5290   8.646   5.120   0.413
 1091W        W 5291   4.789   9.123   3.577
 1092W        W 5292   4.271   6.519   9.527
 1093W        W 5293   4.169   4.159   1.216
 1094W        W 5294   8.081   5.170   3.927
 1095W        W 5295   7.077   3.957   9.514
 1096W        W 5296   2.865   1.264   9.282
 1097W        W 5297   5.524   3.240   3.054
 1098W        W 5298   6.946   0.978   9.356
 1099W        W 5299   7.965   9.423   2.976
 1100W        W 5300   4.527   6.517   9.964
 1101W        W 5301   5.121   2.378   1.358
 1102W        W 5302   4.535   6.554  11.461
 1103W        W 5303   7.701   7.510   0.834
 1104W        W 5304   5.453  10.375   0.278
 1105W        W 5305  10.913   2.277  11.986
 1106W        W 5306   5.102   2.037  10.437
 1107W        W 5307   4.663   5.591  11.008
 1108W        W 5308   2.886   0.854   2.640
 1109W        W 5309   1.185   0.441   0.213
 1110W        W 5310  10.490   0.795   1.897
 1111W        W 5311   6.045   7.883  10.508
 1112W        W 5312   5.129   4.469   3.396
 1113W        W 5313   0.532   6.169   8.906
 1114W        W 5314   3.814   4.080   0.854
 1115W        W 5315   4.869   2.743   9.048
 1116W        W 5316   3.305   9.134  10.563
 1117W        W 5317   6.661   9.019  11.728
 1118W        W 5318   5.823   3.259  11.682
 1119W        W 5319   5.094   4.674   2.180
 1120W        W 5320   5.341   6.103   9.997
 1121W        W 5321   4.607   5.111  10.697
 1122W        W 5322   5.244   0.310   1.802
 1123W        W 5323   2.585  11.065   1.534
 1124W        W 5324   1.794   7.778  10.917
 1125W        W 5325   3.636   0.729   0.189
 1126W        W 5326   9.359   0.368  11.870
 1127W        W 5327   4.961   0.237   8.887
 1128W        W 5328   8.160   8.925  11.232
 1129W        W 5329   7.464   0.157  11.942
 1130W        W 5330  10.369  10.300   3.186
 1131W        W 5331   0.598   8.785   1.301
 1132W        W 5332   7.494   9.390   3.304
 1133W        W 5333   0.484   8.195   2.122
 1134W        W 5334  10.449   6.924   1.861
 1135W        W 5335   6.427   0.045  11.902
 1136W        W 5336   5.665   7.515   2.133
 1137W        W 5337   6.997   6.513  11.816
 1138W        W 5338   9.890   8.101   1.283
 1139W        W 5339   6.037   9.639   9.167
 1140W        W 5340   7.235  10.883   3.309
 1141W        W 5341   5.248  11.282   0.459
 1142W        W 5342   4.587  11.409  10.602
 1143W        W 5343  10.470   0.995   8.786
 1144W        W 5344   6.187   2.962   1.716
 1145W        W 5345  11.231   2.707   1.408
 1146W        W 5346   0.903   7.061  11.996
 1147W        W 5347   9.453  10.741   2.757
 1148W        W 5348  10.883   1.125  10.189
 1149W        W 5349   3.435   0.840   1.650
 1150W        W 5350   8.848   2.482   0.935
 1151W        W 5351   8.479  10.247   1.303
 1152W        W 5352   0.969   7.101   9.267
 1153W        W 5353   7.383   1.135   0.734
 1154W        W 5354   6.636   7.583   0.282
 1155W        W 5355   5.081   9.847  11.808
 1156W        W 5356  11.051   3.203   1.346
 1157W        W 5357   1.420   1.457  10.640
 1158W        W 5358   5.029   1.704   2.237
 1159W        W 5359   0.111   6.472   0.520
 1160W        W 5360   0.395   6.613  11.526
 1161W        W 5361   4.821   3.303  11.464
 1162W        W 5362   4.793  11.326  11.575
 1163W        W 5363   7.955   4.423   2.054
 1164W        W 5364   5.099   0.886   2.502
 1165W        W 5365   9.840   0.877   1.069
 1166W        W 5366   8.767   3.582   8.640
 1167W        W 5367   4.099   2.386   9.810
 1168W        W 5368   2.461   1.878   0.983
 1169W        W 5369   0.469  10.842   3.399
 1170W        W 5370   0.113   8.219  10.401
 1171W        W 5371   2.286   9.671   8.929
 1172W        W 5372   5.021   5.679   1.365
 1173W        W 5373   9.318   4.220   9.063
 1174W        W 5374  11.282   5.221   0.540
 1175W        W 5375   1.742   1.039   8.817
 1176W        W 5376   3.567   7.229   1.031
 1177W        W 5377   3.627   4.934   9.454
 1178W        W 5378   7.380  10.889   1.216
 1179W        W 5379   3.131   1.175  11.078
 1180W        W 5380   9.889   9.002  11.080
 1181W        W 5381   3.447   7.450   9.835
 1182W        W 5382  11.225   1.880  11.885
 1183W        W 5383  11.485   1.311   9.805
 1184W        W 5384   7.868   4.610   1.253
 1185W        W 5385   7.876  10.675  10.493
 1186W        W 5386  10.004   5.201   2.932
 1187W        W 5387   7.492   4.116  10.929
 1188W        W 5388   0.081   0.853  11.728
 1189W        W 5389   5.840   1.332  11.854
 1190W        W 5390   2.776   4.067  10.987
 1191W        W 5391   6.788   8.204  11.609
 1192W        W 5392   9.210   1.152  10.440
 1193W        W 5393   4.831   0.168   9.851
 1194W        W 5394   8.000   5.224   1.435
 1195W        W 5395   5.060  10.861   1.724
 1196W        W 5396   8.319  10.979   0.931
 1197W        W 5397  10.280   8.955   0.990
 1198W        W 5398   0.005   5.143   3.585
 1199W        W 5399   1.742   5.213   9.005
 1200W        W 5400   2.565   7.993   0.939
 1201W        W 5401   6.180   6.692   3.800
 1202W        W 5402   7.034   5.645   1.443
 1203W        W 5403   8.723   4.073   2.277
 1204W        W 5404   0.018   1.858   9.082
 1205W        W 5405   9.079   2.373   3.003
 1206W        W 5406   1.441   1.743   0.187
 1207W        W 5407   1.770   2.378   1.793
 1208W        W 5408   0.817   9.801   9.877
 1209W        W 5409   6.876   9.943  10.922
 1210W        W 5410   4.525   4.808   8.263
 1211W        W 5411   7.925   8.932  10.392
 1212W        W 5412   4.651   3.812   0.858
 1213W        W 5413   8.959   9.871  10.620
 1214W        W 5414   1.977   7.568  11.354
 1215W        W 5415   6.020   3.584   4.110
 1216W        W 5416   0.005   0.418  10.391
 1217W        W 5417   7.993  10.792  11.539
 1218W        W 5418   5.834   3.095   1.381
 1219W        W 5419   2.292   4.111  10.587
 1220W        W 5420   0.685   8.721   9.035
 1221W        W 5421   6.217   4.544   9.396
 1222W        W 5422  11.382   9.794   1.630
 1223W        W 5423   1.810  10.096  11.592
 1224W        W 5424   0.907   1.923   9.380
 1225W        W 5425   8.443   9.524   2.784
 1226W        W 5426   5.470   0.871   9.590
 1227W        W 5427   5.420   3.340   1.097
 1228W        W 5428   9.229   2.043   0.394
 1229W        W 5429   5.684   8.987   2.006
 1230W        W 5430  10.007   9.924   2.711
 1231W        W 5431   6.653   4.177   3.146
 1232W        W 5432   9.914   9.883   1.210
 1233W        W 5433   9.230   0.628  10.420
 1234W        W 5434   3.789   8.038  10.016
 1235W        W 5435   8.717   2.182   0.255
 1236W        W 5436   9.096   9.478   1.374
 1237W        W 5437   1.824   2.630  10.123
 1238W        W 5438   8.916   7.182   9.990
 1239W        W 5439   5.628   9.531   8.890
 1240W        W 5440   3.127   2.362  10.121
 1241W        W 5441   1.258   4.724   0.150
 1242W        W 5442  11.420   1.883   2.008
 1243W        W 5443   9.446   5.145   9.071
 1244W        W 5444  11.248  11.262   0.543
 1245W        W 5445   2.581  10.750   9.564
 1246W        W 5446   8.549   9.543   0.794
 1247W        W 5447   3.858   0.409   9.684
 1248W        W 5448   5.935   4.749  11.859
 1249W        W 5449   0.780   0.092   0.267
 1250W        W 5450   7.209   2.296   9.367
 1251W        W 5451   2.585   2.329   0.415
 1252W        W 5452   3.207   1.741   2.504
 1253W        W 5453  10.861   7.990  11.598
 1254W        W 5454   8.497   1.758   1.864
 1255W        W 5455   9.372   7.624   3.067
 1256W        W 5456   8.510   5.744  11.835
 1257W        W 5457   5.638   2.126  10.890
 1258W        W 5458   2.126   6.553   8.522
 1259W        W 5459  10.876   4.120   9.112
 1260W        W 5460   4.839  10.336   9.125
 1261W        W 5461   3.348   6.105  10.202
 1262W        W 5462  11.240   2.345   2.928
 1263W        W 5463   1.179   1.797  10.312
 1264W        W 5464   8.902   9.939   2.043
 1265W        W 5465   3.218   1.583   9.602
 1266W        W 5466   0.742  10.690   8.800
 1267W        W 5467  10.529   1.339  11.041
 1268W        W 5468  11.358   8.824  11.152
 1269W        W 5469   8.760   3.208   3.543
 1270W        W 5470   2.180  11.385   1.389
 1271W        W 5471   3.429  11.135   2.516
 1272W        W 5472   5.895   4.162  11.443
 1273W        W 5473   2.257   9.042   1.003
 1274W        W 5474   0.894   0.394   2.636
 1275W        W 5475   7.668  11.098   2.584
 1276W        W 5476   3.782   8.141   8.712
 1277W        W 5477   6.122   6.514   0.309
 1278W        W 5478  11.357   7.419  11.910
 1279W        W 5479   1.533   4.378   9.006
 1280W        W 5480   5.513  11.456   2.635
 1281W        W 5481  11.435   7.584   1.092
 1282W        W 5482   6.113   4.845   0.850
 1283W        W 5483   4.671   3.583  10.983
 1284W        W 5484   8.518   2.479   1.362
 1285W        W 5485   1.963  10.885  10.960
 1286W        W 5486   7.712   4.378   3.261
 1287W        W 5487   6.687   8.375   8.986
 1288W        W 5488   7.718   2.232   2.689
 1289W        W 5489   1.582   7.038  11.537
 1290W        W 5490   7.097   1.889  11.292
 1291W        W 5491   5.544   6.593   2.630
 1292W        W 5492   9.022   3.325   1.136
 1293W        W 5493   9.385   7.448   0.413
 1294W        W 5494   8.007   2.937  11.864
 1295W        W 5495   0.495   7.101  11.718
 1296W        W 5496  10.894  10.945   2.630
 1297W        W 5497   5.444   2.354   3.498
 1298W        W 5498   1.112   2.452  11.704
 1299W        W 5499   9.928   9.474   2.472
 1300W        W 5500   0.977   8.331   8.335
 1301W        W 5501   9.169   4.219   2.108
 1302W        W 5502   6.210  10.424   2.003
 1303W        W 5503   5.696   4.120   3.532
 1304W        W 5504   3.789   9.777   8.882
 1305W        W 5505  11.024  11.026  10.472
 1306W        W 5506   3.812   9.803  10.608
 1307W        W 5507   2.535   7.514   1.142
 1308W        W 5508  10.892  10.011   0.887
 1309W        W 5509   0.944   3.662   1.813
 1310W        W 5510   2.141   0.853   9.881
 1311W        W 5511   7.010   1.275   1.037
 1312W        W 5512   6.686   4.323  11.761
 1313W        W 5513  10.929   8.526   1.875
 1314W        W 5514   1.043   0.827  10.868
 1315W        W 5515   3.598  11.242  10.384
 1316W        W 5516   9.325   1.051   2.574
 1317W        W 5517   9.511   2.424   0.111
 1318W        W 5518   1.766  10.816   0.144
 1319W        W 5519  10.031   6.105  11.978
 1320W        W 5520   6.555   4.769   1.127
 1321W        W 5521   2.774   7.390   8.900
 1322W        W 5522   8.931   0.044   3.182
 1323W        W 5523  10.945   9.942   3.702
 1324W        W 5524   1.098   5.613   3.336
 1325W        W 5525   2.396   7.921   1.452
 1326W        W 5526   0.409   3.135   2.808
 1327W        W 5527   6.440   6.690   0.682
 1328W        W 5528   3.211  10.144   3.247
 1329W        W 5529   3.595   0.362   1.431
 1330W        W 5530   2.558   1.102   9.682
 1331W        W 5531   3.329   7.154   0.569
 1332W        W 5532  11.019   1.644   9.338
 1333W        W 5533   2.620   3.503  11.795
 1334W        W 5534   5.731   5.271   1.203
 1335W        W 5535   6.159   2.898  11.804
 1336W        W 5536   6.012   1.313  10.299
 1337W        W 5537   4.629   7.954  11.552
 1338W        W 5538  11.316   9.294   9.116
 1339W        W 5539  11.312   9.774   0.715
 1340W        W 5540   7.472   6.829   9.437
 1341W        W 5541   3.330  10.614   9.124
 1342W        W 5542   2.252   6.928   2.295
 1343W        W 5543   8.718   4.700  10.619
 1344W        W 5544   8.987   3.279   3.091
 1345W        W 5545   7.536   6.942   2.628
 1346W        W 5546   9.094   6.483   0.944
 1347W        W 5547   5.347   0.057   9.192
 1348W        W 5548   0.887   9.787  11.824
 1349W        W 5549  10.733  11.128   1.796
 1350W        W 5550   5.788  10.497   2.828
 1351W        W 5551   3.915   1.589   2.072
 1352W        W 5552   3.223   4.658  11.860
 1353W        W 5553   7.041   9.515   3.035
 1354W        W 5554   4.049   1.294  10.618
 1355W        W 5555   3.594  10.729  10.330
 1356W        W 5556   5.391   4.039  11.423
 1357W        W 5557   6.960   9.014   1.088
 1358W        W 5558   8.912   1.439  10.150
 1359W        W 5559   1.935   3.875  10.288
 1360W        W 5560   0.239   5.004   9.458
 1361W        W 5561   3.339   7.647  11.292
 1362W        W 5562   6.501   2.578   1.822
 1363W        W 5563   4.162  11.330   9.407
 1364W        W 5564   1.268   4.388   3.463
 1365W        W 5565   4.092   8.185   2.278
 1366W        W 5566   5.625   1.195  10.903
 1367W        W 5567   1.825   7.109   9.783
 1368W        W 5568   1.810   3.608  11.718
 1369W        W 5569   3.112   8.682   1.315
 1370W        W 5570   8.187   7.667   0.825
 1371W        W 5571   4.571   1.860   9.409
 1372W        W 5572   7.737   1.474   2.200
 1373W        W 5573   7.648   1.413   9.256
 1374W        W 5574   9.219   0.328   8.240
 1375W        W 5575   3.288   2.568   3.556
 1376W        W 5576   2.972   9.631   1.661
 1377W        W 5577   1.293   0.287  10.049
 1378W        W 5578   3.984   4.049  10.560
 1379W        W 5579   2.173   5.315   1.135
 1380W        W 5580   5.102   3.616   3.926
 1381W        W 5581   3.743   8.802  11.114
 1382W        W 5582   7.109   8.929   9.532
 1383W        W 5583   9.052  10.342   9.295
 1384W        W 5584   6.597   1.343   3.364
 1385W        W 5585   2.163   9.962   3.135
 1386W        W 5586   4.159   6.214  10.768
 1387W        W 5587   4.151   9.359   0.764
 1388W        W 5588   4.535   0.115   2.350
 1389W        W 5589   1.435   1.134  11.044
 1390W        W 5590   2.685  11.126  11.742
 1391W        W 5591   8.465   0.997   1.100
 1392W        W 5592   5.083   3.271  10.965
 1393W        W 5593   9.340   0.805   3.015
 1394W        W 5594   3.291   2.631   2.935
 1395W        W 5595  11.198   2.209   3.430
 1396W        W 5596   8.524   9.594   3.616
 1397W        W 5597   5.995   7.283   8.636
 1398W        W 5598   3.084   2.365   0.465
 1399W        W 5599   3.618  10.607  11.746
 1400W        W 5600   2.343   4.142   0.870
 1401W        W 5601   8.435   0.745  10.721
 1402W        W 5602  10.290  10.494   9.742
 1403W        W 5603   2.746   7.855   0.460
 1404W        W 5604   8.435   8.835   8.579
 1405W        W 5605   8.188   5.987   8.296
 1406W        W 5606   5.769  10.312   1.749
 1407W        W 5607   6.608   8.084   0.715
 1408W        W 5608   5.652   2.354   8.680
 1409W        W 5609   3.501   1.912   2.126
 1410W        W 5610   3.317   5.722  10.552
 1411W        W 5611  11.289   2.729   3.514
 1412W        W 5612   6.022   2.811   3.641
 1413W        W 5613   6.193  10.549   1.514
 1414W        W 5614   9.677   1.458  11.111
 1415W        W 5615  10.447   0.705   0.466
 1416W        W 5616   2.578   5.643   2.593
 1417W        W 5617   6.071   8.857   2.789
 1418W        W 5618   5.533   8.633   9.974
 1419W        W 5619  10.993   9.916   0.358
 1420W        W 5620   6.532   4.369   8.969
 1421W        W 5621   8.686   8.103   0.060
 1422W        W 5622   7.438   4.327  10.320
 1423W        W 5623   4.640   5.635  10.496
 1424W        W 5624   8.827   4.816   0.815
 1425W        W 5625   4.910   9.615   3.685
 1426W        W 5626   2.392   7.059   1.431
 1427W        W 5627   9.948   2.838  11.103
 1428W        W 5628   1.360   1.660   9.327
 1429W        W 5629   9.698   9.182   0.409
 1430W        W 5630  10.420   1.659   0.226
 1431W        W 5631   4.169   4.691   9.357
 1432W        W 5632   2.217   6.404   9.408
 1433W        W 5633   9.558   6.526   9.066
 1434W        W 5634   7.712   9.404  10.280
 1435W        W 5635   2.410   8.165   1.898
 1436W        W 5636   8.090   8.608   8.918
 1437W        W 5637   9.729   2.089   0.734
 1438W        W 5638   8.978   7.509  11.500
 1439W        W 5639   8.476   4.748   2.673
 1440W        W 5640   8.599   6.478   9.679
 1441W        W 5641   1.689  10.977   1.872
 1442W        W 5642   8.149   6.410   9.463
 1443W        W 5643  11.334   6.006   3.162
 1444W        W 5644   8.027   0.280  11.325
 1445W        W 5645   7.574   7.166   0.487
 1446W        W 5646   0.315   5.845   2.259
 1447W        W 5647   5.215  10.812  10.280
 1448W        W 5648   7.428   7.786   2.299
 1449W        W 5649   6.036   2.019   8.854
 1450W        W 5650   6.327   6.074  10.131
 1451W        W 5651   8.686   4.077   3.332
 1452W        W 5652   5.614   9.304  11.333
 1453W        W 5653   7.252   9.754   0.040
 1454W        W 5654   8.667   3.717   0.421
 1455W        W 5655   8.882  11.188  11.896
 1456W        W 5656   4.967  11.168   0.890
 1457W        W 5657   4.885   3.259   9.190
 1458W        W 5658   1.915   4.746   8.912
 1459W        W 5659   5.438   6.606  10.360
 1460W        W 5660   1.252   1.238   0.050
 1461W        W 5661   6.230   8.010   0.248
 1462W        W 5662   9.772   8.630   0.577
 1463W        W 5663  10.763   2.755   1.209
 1464W        W 5664   0.299  10.357  11.311
 1465W        W 5665   6.015   0.875   0.043
 1466W        W 5666   1.375   9.093  11.640
 1467W        W 5667   2.295   1.448  10.608
 1468W        W 5668   2.091   9.370   9.339
 1469W        W 5669   5.219   9.275   3.291
 1470W        W 5670   6.494   9.515   2.309
 1471W        W 5671   5.983   5.512  10.359
 1472W        W 5672   8.462   3.062   3.111
 1473W        W 5673   3.913   0.399  10.940
 1474W        W 5674   7.256   5.075   9.950
 1475W        W 5675   7.585   5.889  11.210
 1476W        W 5676   2.952   1.258   0.425
 1477W        W 5677   8.417   9.756   1.271
 1478W        W 5678  10.688   5.273  11.764
 1479W        W 5679   3.198   4.569   3.424
 1480W        W 5680   0.577   0.802  11.746
 1481W        W 5681   8.580   6.926  10.263
 1482W        W 5682   0.687   8.154  10.043
 1483W        W 5683   0.364   0.754  11.279
 1484W        W 5684   5.949   9.027   1.003
 1485W        W 5685   4.744   0.483   1.822
 1486W        W 5686   2.834   0.459   8.946
 1487W        W 5687   7.803   3.072   2.867
 1488W        W 5688   9.085   3.356   9.431
 1489W        W 5689   2.813   4.240   3.497
 1490W        W 5690   1.734   2.695  10.629
 1491W        W 5691  10.867   9.907   9.223
 1492W        W 5692   0.286   7.626  10.832
 1493W        W 5693   9.153   6.236   2.286
 1494W        W 5694   7.488   5.749  11.728
 1495W        W 5695   5.943   5.180  11.387
 1496W        W 5696   1.463   6.189   1.657
 1497W        W 5697   1.909   6.145   1.407
 1498W        W 5698  10.940   4.066   0.593
 1499W        W 5699   9.463   5.950   9.728
 1500W        W 5700   2.570   5.261  11.814
 1501W        W 5701   7.921   1.338   3.163
 1502W        W 5702   2.386   0.979  11.996
 1503W        W 5703   6.122   1.262  10.798
 1504W        W 5704   5.252   1.553  10.594
 1505W        W 5705   0.058   0.349   9.488
 1506W        W 5706   0.385   8.427   0.980
 1507W        W 5707   2.067   4.033  11.400
 1508W        W 5708   2.879   0.317   9.914
 1509W        W 5709   0.277   5.579   2.706
 1510W        W 5710   6.464   2.073  11.868
 1511W        W 5711   4.255   2.554  11.874
 1512W        W 5712   3.567   2.076  10.003
 1513W        W 5713   1.027   2.058   0.093
 1514W        W 5714   6.573   8.143   9.495
 1515W        W 5715   0.122  10.424   2.426
 1516W        W 5716   1.308   3.996   1.963
 1517W        W 5717   4.268  11.022   8.950
 1518W        W 5718  10.959   6.709   9.716
 1519W        W 5719   1.630  10.366   3.538
 1520W        W 5720   2.503   5.790  10.001
 1521W        W 5721   4.886   2.338   3.417
 1522W        W 5722   3.290   5.019  10.065
 1523W        W 5723   2.109   4.577  11.412
 1524W        W 5724  11.335   3.313  10.579
 1525W        W 5725   1.674   7.472   1.729
 1526W        W 5726   6.574   0.763   8.895
 1527W        W 5727   7.816   9.871  11.303
 1528W        W 5728  10.666   4.292  11.768
 1529W        W 5729   6.814   1.003  11.517
 1530W        W 5730   3.171   9.756   0.470
 1531W        W 5731   3.749   2.785   1.177
 1532W        W 5732   7.355   5.602  10.814
 1533W        W 5733   7.156   4.867  11.172
 1534W        W 5734   8.540   8.618   4.113
 1535W        W 5735   7.992   5.732  10.042
 1536W        W 5736  10.543   5.978   2.756
 1537W        W 5737   6.459   4.726  10.186
 1538W        W 5738   2.476   0.506   8.570
 1539W        W 5739   3.313   2.728  10.440
 1540W        W 5740   5.689   1.820   8.525
 1541W        W 5741   5.818   6.152   1.365
 1542W        W 5742   1.850   7.436   9.045
 1543W        W 5743   9.977   9.849  11.720
 1544W        W 5744   1.483   3.307   2.710
 1545W        W 5745   7.740   0.071   0.367
 1546W        W 5746   8.482  11.433   2.129
 1547W        W 5747   5.198   3.976   3.575
 1548W        W 5748   3.790   8.505   0.720
 1549W        W 5749   7.959   1.441   2.671
 1550W        W 5750   3.733   0.722   0.741
 1551W        W 5751   8.041   8.547   2.382
 1552W        W 5752  10.476   2.312   2.942
 1553W        W 5753   2.226   8.122   9.932
 1554W        W 5754  10.985   7.190  10.984
 1555W        W 5755   4.561   3.509   8.626
 1556W        W 5756   5.032   3.564   8.804
 1557W        W 5757   3.834   1.244   1.680
 1558W        W 5758  11.035   0.400   2.901
 1559W        W 5759  10.564   5.204   2.248
 1560W        W 5760   7.196   5.268  10.436
 1561W        W 5761   4.790   3.562   2.458
 1562W        W 5762   8.920   2.001   8.985
 1563W        W 5763   8.623   3.330   0.784
 1564W        W 5764   5.698   2.719   0.015
 1565W        W 5765   4.608  10.781   9.395
 1566W        W 5766   0.834   4.708  10.454
 1567W        W 5767   2.848   1.354   2.827
 1568W        W 5768   5.278   5.098   1.957
 1569W        W 5769   3.286   7.473   8.986
 1570W        W 5770   5.535   2.686   1.427
 1571W        W 5771   4.256   0.825   9.049
 1572W        W 5772   5.544   4.962  10.877
 1573W        W 5773  10.351   4.762  10.720
 1574W        W 5774  10.884   9.835   2.181
 1575W        W 5775   7.981   6.547   2.294
 1576W        W 5776   0.355   5.655   1.051
 1577W        W 5777   8.597   0.746   9.898
 1578W        W 5778  10.509   2.396  11.050
 1579W        W 5779   8.010   7.890   1.788
 1580W        W 5780   5.544   3.830   1.098
 1581W        W 5781   9.111   8.398   0.034
 1582W        W 5782   9.702   5.097  10.016
 1583W        W 5783   9.914   9.106   9.559
 1584W        W 5784  11.292   7.215   0.771
 1585W        W 5785   4.685  10.694  11.021
 1586W        W 5786   9.517  10.092   0.348
 1587W        W 5787   0.720   0.641   0.223
 1588W        W 5788   2.779   6.638   1.794
 1589W        W 5789   3.169   0.431  10.516
 1590W        W 5790   4.814   5.136   0.523
 1591W        W 5791   0.825   4.523   9.898
 1592W        W 5792   1.521   1.857   1.155
 1593W        W 5793   3.987   2.636   9.077
 1594W        W 5794   4.425   6.617   9.057
 1595W        W 5795   9.481   0.079   9.904
 1596W        W 5796  10.573   8.552   0.816
 1597W        W 5797  10.795   2.698   0.708
 1598W        W 5798   0.898  11.075   3.276
 1599W        W 5799   9.004  11.342   2.211
 1600W        W 5800  10.414   3.823  10.846
 1601W        W 5801   1.714   7.262  10.713
 1602W        W 5802   0.879  11.362   2.459
 1603W        W 5803   4.016   1.079   1.208
 1604W        W 5804   0.092   4.607   9.186
 1605W        W 5805  11.385  10.842   1.322
 1606W        W 5806   1.284   8.645  11.384
 1607W        W 5807   1.847   3.386   8.868
 1608W        W 5808   4.344   2.273  10.500
 1609W        W 5809   0.690   3.284   3.180
 1610W        W 5810   2.992   9.561   2.809
 1611W        W 5811   7.609   7.202  11.972
 1612W        W 5812   1.645   0.170  10.745
 1613W        W 5813   7.392   9.835  11.556
 1614W        W 5814  11.404   4.543  11.480
 1615W        W 5815  11.042   2.019   8.969
 1616W        W 5816   8.620   6.425  10.230
 1617W        W 5817   0.264  11.005  11.949
 1618W        W 5818   2.696   6.363   3.957
 1619W        W 5819   4.625   7.048  11.599
 1620W        W 5820   9.867   1.221   1.668
 1621W        W 5821   5.206   1.318   2.782
 1622W        W 5822   1.706   4.896   1.858
 1623W        W 5823   3.809   9.884   2.655
 1624W        W 5824   8.837   2.848   2.348
 1625W        W 5825   4.512   8.236   9.043
 1626W        W 5826   6.729   3.591   9.435
 1627W        W 5827   9.815   6.972   9.091
 1628W        W 5828   4.431   2.763   9.281
 1629W        W 5829   8.620   8.875   2.444
 1630W        W 5830   2.212   0.978  10.359
 1631W        W 5831   2.527   4.502   0.546
 1632W        W 5832   6.064   7.942   9.524
 1633W        W 5833   1.548   1.319   2.244
 1634W        W 5834   4.313   1.457   1.739
 1635W        W 5835   1.464   8.661   1.512
 1636W        W 5836   2.892   2.349  11.603
 1637W        W 5837   8.388   1.405   3.397
 1638W        W 5838   5.000   7.239   9.647
 1639W        W 5839   2.530   3.534   2.592
 1640W        W 5840  10.329   7.951   0.422
 1641W        W 5841   3.838   5.967   0.465
 1642W        W 5842   3.812   0.902  10.880
 1643W        W 5843   5.432   3.308   1.606
 1644W        W 5844   7.278   3.818  11.351
 1645W        W 5845   3.579   0.890   3.381
 1646W        W 5846   2.196   1.765  11.027
 1647W        W 5847   2.236   5.220   0.197
 1648W        W 5848   0.026   4.228  10.253
 1649W        W 5849   2.806   5.055   2.560
 1650W        W 5850   7.928   5.053   9.531
 1651W        W 5851   2.883   9.881   0.883
 1652W        W 5852   4.031   9.850   0.078
 1653W        W 5853   9.084   3.949  11.258
 1654W        W 5854  10.762  10.763   9.155
 1655W        W 5855  11.493   0.037   3.564
 1656W        W 5856   0.539   7.473   0.211
 1657W        W 5857   4.712   2.100  10.793
 1658W        W 5858   8.097   3.177   1.169
 1659W        W 5859   9.164   6.257   2.806
 1660W        W 5860   1.654   8.252   8.794
 1661W        W 5861  10.898   5.753   9.987
 1662W        W 5862   5.533   0.257   0.466
 1663W        W 5863   2.198   8.147   2.798
 1664W        W 5864   0.395  11.260   3.719
 1665W        W 5865   1.068   2.252   2.333
 1666W        W 5866   7.999   7.563   2.164
 1667W        W 5867   9.095   2.046   2.604
 1668W        W 5868   2.322   5.576  11.435
 1669W        W 5869   6.310   8.321  10.333
 1670W        W 5870   8.092   8.001  11.576
 1671W        W 5871   0.393   4.195   3.397
 1672W        W 5872  11.471   5.196   2.777
 1673W        W 5873   2.923  10.198   0.437
 1674W        W 5874   6.086   3.017   2.361
 1675W        W 5875   2.023   4.801   2.741
 1676W        W 5876   9.036  11.143  11.298
 1677W        W 5877   4.761   9.983   3.026
 1678W        W 5878   8.359   7.617  10.736
 1679W        W 5879   4.795   9.363   9.755
 1680W        W 5880   8.096   0.663  11.666
 1681W        W 5881   1.679   9.557   9.630
 1682W        W 5882   7.562   1.992   3.454
 1683W        W 5883   8.929   1.467   8.828
 1684W        W 5884   1.986   7.648   9.918
 1685W        W 5885   0.028  10.937  10.640
 1686W        W 5886   0.219   0.269  11.016
 1687W        W 5887   4.305  10.498   9.060
 1688W        W 5888   6.607   4.381   8.451
 1689W        W 5889   8.615  11.394  11.437
 1690W        W 5890   4.700   2.084   8.470
 1691W        W 5891   9.442   4.113   3.130
 1692W        W 5892   9.031   8.768   9.385
 1693W        W 5893   2.093   7.206   1.874
 1694W        W 5894   9.564   2.625  10.858
 1695W        W 5895   3.271   2.913   1.350
 1696W        W 5896   7.067   1.811   9.462
 1697W        W 5897   3.553   3.847  11.812
 1698W        W 5898  11.114   4.982  10.489
 1699W        W 5899   8.942   9.093   3.459
 1700W        W 5900  11.215   9.328   2.460
 1701W        W 5901   4.213   2.490   3.139
 1702W        W 5902   0.307   7.522   0.735
 1703W        W 5903   3.058   6.157   9.345
 1704W        W 5904   1.323   0.316  11.733
 1705W        W 5905  10.474   9.375   1.269
 1706W        W 5906   9.004   3.767  10.789
 1707W        W 5907   6.010   2.306  10.101
 1708W        W 5908  11.273   3.303  10.073
 1709W        W 5909   8.828   7.110   2.551
 1710W        W 5910   8.349   9.869  11.309
 1711W        W 5911   2.754  11.395   0.692
 1712W        W 5912   7.518   2.703   2.666
 1713W        W 5913  10.519   9.560   8.763
 1714W        W 5914   4.577   8.678   3.387
 1715W        W 5915   0.385   1.942   3.335
 1716W        W 5916   2.357   2.833   1.324
 1717W        W 5917   6.087   9.305  11.098
 1718W        W 5918   7.330   7.802   1.441
 1719W        W 5919   6.117   0.538   8.719
 1720W        W 5920   6.456  10.900   8.814
 1721W        W 5921   7.984   0.434   8.891
 1722W        W 5922   7.121   7.245   9.369
 1723W        W 5923   5.952   7.576   0.247
 1724W        W 5924   1.739   7.420   2.999
 1725W        W 5925  10.467   3.142   2.352
 1726W        W 5926   1.388   9.723   3.809
 1727W        W 5927  10.678   6.968   1.386
 1728W        W 5928   8.366   6.865   9.343
 1729W        W 5929   7.122  10.052   9.085
 1730W        W 5930   4.473   8.187   3.222
 1731W        W 5931   4.581   7.096  10.525
 1732W        W 5932   2.869   9.409  10.910
 1733W        W 5933   3.063   9.984  11.030
 1734W        W 5934   8.143   6.650  10.409
 1735W        W 5935  11.305   1.411   1.810
 1736W        W 5936   4.217   7.656   3.129
 1737W        W 5937   2.151   7.142   0.981
 1738W        W 5938   0.341   1.298   9.409
 1739W        W 5939  11.045  11.248   1.284
 1740W        W 5940   4.483   5.285   0.960
 1741W        W 5941   5.222   7.848   1.627
 1742W        W 5942   9.714   5.485   9.432
 1743W        W 5943   9.124   4.885   8.722
 1744W        W 5944  11.321   5.463  10.388
 1745W        W 5945  10.726   0.564   2.494
 1746W        W 5946   8.266   1.494   2.236
 1747W        W 5947   9.632   7.135  11.806
 1748W        W 5948   1.778   0.567  11.511
 1749W        W 5949   8.558   0.450   2.238
 1750W        W 5950  10.945   7.197   3.123
 1751W        W 5951  10.852   9.136   2.744
 1752W        W 5952   1.726   2.678  11.151
 1753W        W 5953   2.602   7.229   2.804
 1754W        W 5954   6.490   0.158   0.964
 1755W        W 5955   8.628   1.019   1.579
 1756W        W 5956   7.092   8.919  10.755
 1757W        W 5957   9.011   7.438   9.079
 1758W        W 5958   4.896   3.233   3.651
 1759W        W 5959   0.374   8.594  11.845
 1760W        W 5960   5.625   2.757   2.354
 1761W        W 5961  11.417   5.960   0.558
 1762W        W 5962   1.442   2.722   2.506
 1763W        W 5963   1.459   7.161   8.543
 1764W        W 5964   7.191   3.351  11.122
 1765W        W 5965  10.838   7.468  11.803
 1766W        W 5966   6.666   0.542   0.675
 1767W        W 5967   4.360   2.061  11.925
 1768W        W 5968  10.085   6.847  10.322
 1769W        W 5969   1.754  11.284  11.940
 1770W        W 5970   2.215   5.657   0.478
 1771W        W 5971   3.093  11.424  10.132
 1772W        W 5972   3.198   6.467   1.160
 1773W        W 5973  10.850   3.830   3.122
 1774W        W 5974   3.671   9.807   0.419
 1775W        W 5975   3.315   3.743   2.044
 1776W        W 5976   3.401  11.159  11.537
 1777W        W 5977   3.367   4.244   1.787
 1778W        W 5978   3.606   4.810   0.164
 1779W        W 5979   2.968   4.244   0.437
 1780W        W 5980   2.448  11.443   1.855
 1781W        W 5981   8.391   3.125   2.202
 1782W        W 5982   6.279  10.932   1.859
 1783W        W 5983   3.259  11.043   2.017
 1784W        W 5984   0.875   3.206   9.977
 1785W        W 5985   7.988  10.473  10.040
 1786W        W 5986   7.410   8.978  10.360
 1787W        W 5987   8.166   5.166   2.706
 1788W        W 5988   5.700  10.353   9.494
 1789W        W 5989   6.638   7.303   9.183
 1790W        W 5990   2.084   5.626   2.434
 1791W        W 5991   5.428   5.125  11.348
 1792W        W 5992   6.264   0.855   1.412
 1793W        W 5993   7.870   4.546   0.708
 1794W        W 5994   4.132   5.145  10.043
 1795W        W 5995   6.178   3.302  11.244
 1796W        W 5996  10.387   0.252   2.245
 1797W        W 5997   4.269  10.579   0.545
 1798W        W 5998   2.825   5.052   9.877
 1799W        W 5999   7.671   7.566   2.725
 1800W        W 6000   0.511   1.495  10.823
 1801W        W 6001   2.483   9.820   9.364
 1802W        W 6002   9.075   0.382   9.965
 1803W        W 6003   8.952  10.510  10.317
 1804W        W 6004   9.416   1.505   9.591
 1805W        W 6005  11.269   0.980   8.861
 1806W        W 6006   8.562   3.313   9.436
 1807W        W 6007   0.291   5.752  11.346
 1808W        W 6008   4.351   8.334  10.059
 1809W        W 6009   1.533   7.807  11.469
 1810W        W 6010   6.882   3.312   0.484
 1811W        W 6011   8.055   0.668   1.025
 1812W        W 6012   9.959  10.991   9.456
 1813W        W 6013   2.828   3.934   1.973
 1814W        W 6014   5.473   5.294   0.771
 1815W        W 6015   9.532   7.055   4.278
 1816W        W 6016   8.121  10.571   9.183
 1817W        W 6017   5.608   5.722  11.981
 1818W        W 6018  10.010   9.998   0.213
 1819W        W 6019   3.727  11.363   2.181
 1820W        W 6020   3.778   1.226  11.964
 1821W        W 6021   6.301   4.335   1.758
 1822W        W 6022   1.917   2.650   2.279
 1823W        W 6023   3.721   0.194   0.803
 1824W        W 6024  11.465   2.133   0.310
 1825W        W 6025   0.806   9.581   0.316
 1826W        W 6026   9.336   5.504  10.493
 1827W        W 6027   4.246   9.595   1.489
 1828W        W 6028   7.902   4.941  11.873
 1829W        W 6029   7.765   8.635   1.276
 1830W        W 6030   0.388   5.225   2.311
 1831W        W 6031   5.009   0.998   9.453
 1832W        W 6032   2.092   7.465   1.398
 1833W        W 6033   5.017   8.451   3.398
 1834W        W 6034   0.580   8.382  10.510
 1835W        W 6035   6.111   4.051  10.137
 1836W        W 6036  10.001   4.622  11.074
 1837W        W 6037   5.992   3.292   0.936
 1838W        W 6038   7.609  10.482   0.719
 1839W        W 6039   5.301   6.955   0.368
 1840W        W 6040   6.023   2.386  11.755
 1841W        W 6041   4.672   4.793  11.575
 1842W        W 6042   1.566   0.830  11.910
 1843W        W 6043   3.614   5.092  11.289
 1844W        W 6044   5.419   5.731   9.173
 1845W        W 6045  10.246   0.379  11.016
 1846W        W 6046   6.273   6.560   3.311
 1847W        W 6047   6.487   5.562  11.027
 1848W        W 6048   8.029   0.556   2.453
 1849W        W 6049   8.693   2.424   9.367
 1850W        W 6050  11.305   7.027  10.270
 1851W        W 6051   9.533   3.286   1.323
 1852W        W 6052   9.122   6.016   4.082
 1853W        W 6053  11.388  10.368   1.525
 1854W        W 6054   7.165   6.864   0.412
 1855W        W 6055   1.946   5.537  10.817
 1856W        W 6056   8.673   3.235  10.770
 1857W        W 6057   9.065   3.703   2.468
 1858W        W 6058   4.112   0.353  11.470
 1859W        W 6059   3.339   2.375   1.311
 1860W        W 6060   0.381   4.181   2.027
 1861W        W 6061   5.199   6.720   1.628
 1862W        W 6062   6.576   6.826   1.606
 1863W        W 6063  10.088   8.171   0.802
 1864W        W 6064   3.142   1.244   8.830
 1865W        W 6065   4.525   9.513   8.471
 1866W        W 6066   6.153   2.189   0.264
 1867W        W 6067  10.746   0.432  10.956
 1868W        W 6068   8.599   9.978   8.858
 1869W        W 6069   1.175   5.263   9.035
 1870W        W 6070   3.706   9.277   8.969
 1871W        W 6071   5.019  11.282   0.018
 1872W        W 6072  10.323   3.097   0.032
 1873W        W 6073   6.882   2.237  11.627
 1874W        W 6074   2.287   1.264  11.181
 1875W        W 6075   7.132   2.701  11.744
 1876W        W 6076   4.158   3.330   0.376
 1877W        W 6077   4.480   3.520   1.247
 1878W        W 6078   5.318   2.086   3.084
 1879W        W 6079   3.507   2.846   9.470
 1880W        W 6080   9.645   6.232   1.891
 1881W        W 6081   3.115   8.728   8.679
 1882W        W 6082   2.718   9.453  11.450
 1883W        W 6083  10.304  10.043  10.478
 1884W        W 6084   0.297   6.720  11.016
 1885W        W 6085   2.357   9.886   0.872
 1886W        W 6086  10.083   9.523   0.394
 1887W        W 6087   0.357   2.325   0.612
 1888W        W 6088   1.935   0.158   0.412
 1889W        W 6089   9.469   9.401   2.648
 1890W        W 6090  11.408   6.618   9.965
 1891W        W 6091   3.103   8.393   2.373
 1892W        W 6092   3.100   8.497  11.843
 1893W        W 6093   5.633   1.671   0.227
 1894W        W 6094   3.010   4.925   3.819
 1895W        W 6095   4.729   6.122  10.268
 1896W        W 6096   1.631   6.780  10.583
 1897W        W 6097   2.293   6.229   1.731
 1898W        W 6098   1.169   3.674   2.952
 1899W        W 6099   4.316   3.160  11.490
 1900W        W 6100   7.452   6.122   8.653
 1901W        W 6101   9.915  10.921  10.382
 1902W        W 6102   5.860   7.154   3.456
 1903W        W 6103   2.292   8.612   1.693
 1904W        W 6104   1.850   6.113   2.469
 1905W        W 6105   1.312   0.948   1.528
 1906W        W 6106   6.972   4.251  11.331
 1907W        W 6107   6.120   1.304   2.601
 1908W        W 6108   8.624   5.343   1.472
 1909W        W 6109   5.808   3.824  10.528
 1910W        W 6110   3.188   0.720  11.457
 1911W        W 6111   4.721   3.711   3.495
 1912W        W 6112   5.912   4.576   3.431
 1913W        W 6113   0.472   1.450   1.234
 1914W        W 6114   9.526  10.054  11.811
 1915W        W 6115   2.777   8.112  10.796
 1916W        W 6116   2.247   3.508  11.435
 1917W        W 6117   3.630   5.244  11.828
 1918W        W 6118   2.487   4.735  10.103
 1919W        W 6119   7.992   9.576   3.469
 1920W        W 6120   1.114   2.218  10.029
 1921W        W 6121   1.620   9.412   9.138
 1922W        W 6122   7.194   4.211   3.260
 1923W        W 6123   2.259   1.467   9.461
 1924W        W 6124   7.383  11.346   3.034
 1925W        W 6125   3.250   5.253   9.620
 1926W        W 6126   2.513   7.700   9.892
 1927W        W 6127   1.394   8.316   2.793
 1928W        W 6128   2.021   5.625   9.973
 1929W        W 6129   2.378   2.327   1.205
 1930W        W 6130   2.174   6.668   9.924
 1931W        W 6131   0.751   9.963  10.530
 1932W        W 6132   4.697   7.949   2.378
 1933W        W 6133   2.098   6.167  10.025
 1934W        W 6134  10.730   5.876   9.429
 1935W        W 6135   0.253   8.417   3.462
 1936W        W 6136   1.454   2.310   1.380
 1937W        W 6137   3.085   5.066   3.335
 1938W        W 6138   0.679   8.594   2.737
 1939W        W 6139   1.393   4.875   1.434
 1940W        W 6140   9.061   8.468   8.959
 1941W        W 6141   3.177   4.036   3.234
 1942W        W 6142   5.607   8.081   3.950
 1943W        W 6143  10.053   4.556   8.938
 1944W        W 6144   8.150   9.752   9.565
 1945W        W 6145  10.760  11.400   9.430
 1946W        W 6146   0.323   6.583   1.622
 1947W        W 6147   7.401   2.186   9.897
 1948W        W 6148   9.479   9.129   8.498
 1949W        W 6149   8.114   5.235   9.978
 1950W        W 6150   3.950   9.456   2.906
 1951W        W 6151   0.373   6.562   0.962
 1952W        W 6152  10.908   9.015   3.226
 1953W        W 6153   0.433   2.825   8.873
 1954W        W 6154   3.289  11.431   0.388
 1955W        W 6155   0.777   5.896  11.279
 1956W        W 6156   6.454   8.459   0.418
 1957W        W 6157   6.447   1.713   2.572
 1958W        W 6158   6.597   2.734  11.101
 1959W        W 6159   2.823   8.435  10.406
 1960W        W 6160   6.052   5.510   2.192
 1961W        W 6161   0.942   2.198  10.536
 1962W        W 6162   4.706  10.460   2.835
 1963W        W 6163   4.672   9.358   0.686
 1964W        W 6164   8.907  10.406   9.784
 1965W        W 6165   2.023   2.164   2.470
 1966W        W 6166   8.647  10.743  10.782
 1967W        W 6167   1.256   0.475   1.354
 1968W        W 6168   5.648   0.923   3.246
 1969W        W 6169   8.376  10.327   2.126
 1970W        W 6170   4.387   1.344   0.361
 1971W        W 6171   0.391   1.261   2.967
 1972W        W 6172   1.194   5.841   8.489
 1973W        W 6173   4.169   3.687   0.734
 1974W        W 6174   7.451   5.069   8.923
 1975W        W 6175   4.758   4.416  11.911
 1976W        W 6176   2.683   3.511  10.871
 1977W        W 6177   3.180   9.563  11.291
 1978W        W 6178   5.614   8.508   1.259
 1979W        W 6179  10.586   0.036  11.770
 1980W        W 6180   9.019   4.409   3.116
 1981W        W 6181  11.110   4.571   9.037
 1982W        W 6182  11.125   0.544   0.893
 1983W        W 6183   1.511   0.633  10.940
 1984W        W 6184   2.770   5.383  10.272
 1985W        W 6185   3.112   5.109   1.141
 1986W        W 6186   8.246   5.239   1.872
 1987W        W 6187   9.824   0.891   3.451
 1988W        W 6188   1.883   7.954   9.143
 1989W        W 6189   2.215   4.339  11.995
 1990W        W 6190   2.813   2.259   0.896
 1991W        W 6191   4.392   9.509  10.063
 1992W        W 6192   8.537   9.881   2.382
 1993W        W 6193   0.062  10.430   1.024
 1994W        W 6194   5.142   7.655  11.094
 1995W        W 6195   1.876   1.374  10.882
 1996W        W 6196   4.122   3.152   1.409
 1997W        W 6197   7.273   9.272   0.166
 1998W        W 6198   6.739   1.389   9.588
 1999W        W 6199  10.196   1.803  11.735
 2000W        W 6200  10.501  10.936   9.559
 2001W        W 6201   1.876   1.369  10.350
 2002W        W 6202   4.749   6.710   0.398
 2003W        W 6203   0.246   6.972   0.696
 2004W        W 6204  11.278   4.572   2.389
 2005W        W 6205  10.072   8.128   2.149
 2006W        W 6206   3.354   5.116   2.349
 2007W        W 6207  10.092   8.723   1.519
 2008W        W 6208   5.651  11.002   2.909
 2009W        W 6209  11.035  11.401   2.784
 2010W        W 6210  10.883  10.295   1.326
 2011W        W 6211   5.020  10.963  11.320
 2012W        W 6212   8.163   8.948   1.303
 2013W        W 6213   8.696   8.139   9.128
 2014W        W 6214   6.036   8.237   1.209
 2015W        W 6215   8.855   3.778   0.916
 2016W        W 6216   2.296   3.804  11.004
 2017W        W 6217   9.789   2.554   1.819
 2018W        W 6218   1.182   4.712   3.071
 2019W        W 6219   4.254   4.588   0.910
 2020W        W 6220   7.114  10.951   0.197
 2021W        W 6221   8.992  11.354   9.992
 2022W        W 6222  11.318   2.359   9.940
 2023W        W 6223   7.251   4.111   1.540
 2024W        W 6224   1.214   6.944   9.997
 2025W        W 6225   3.260   8.987   2.871
 2026W        W 6226   2.434   0.187   0.965
 2027W        W 6227   3.733   5.757   1.956
 2028W        W 6228  10.004   3.613   9.074
 2029W        W 6229   6.078   0.873   1.905
 2030W        W 6230  10.018   3.675  10.022
 2031W        W 6231   8.454  10.046   0.779
 2032W        W 6232   4.817   2.082   0.157
 2033W        W 6233   6.689   8.649   9.421
 2034W        W 6234   1.702   8.848   0.291
 2035W        W 6235   4.393   5.892   2.495
 2036W        W 6236  10.850   1.200   9.098
 2037W        W 6237  11.038   7.386   0.310
 2038W        W 6238  11.099   5.544   9.542
 2039W        W 6239   9.088   7.937  11.231
 2040W        W 6240   5.808   4.867   9.580
 2041W        W 6241   5.742   3.835   9.395
 2042W        W 6242   0.246   5.555   0.555
 2043W        W 6243   9.602   8.855   9.884
 2044W        W 6244   1.801   6.260   0.515
 2045W        W 6245   3.867   7.525  10.118
 2046W        W 6246   7.182   1.710   9.950
 2047W        W 6247   0.141   5.119   0.059
 2048W        W 6248   3.485   0.774   9.547
 2049W        W 6249   3.631   3.289   1.347
 2050W        W 6250  10.413  10.596   8.728
 2051W        W 6251   6.913   4.926  10.725
 2052W        W 6252   9.114   8.583   1.346
 2053W        W 6253   9.616   3.242   8.955
 2054W        W 6254   1.445   5.242  10.940
 2055W        W 6255   4.661   3.693   2.943
 2056W        W 6256   0.585   5.989  11.751
 2057W        W 6257   2.341   4.312  11.056
 2058W        W 6258   1.834   4.640   2.302
 2059W        W 6259   6.489   8.864   8.915
 2060W        W 6260   8.184   3.313  10.936
 2061W        W 6261   9.218   5.549  11.746
 2062W        W 6262   8.300   4.410   1.467
 2063W        W 6263   3.272   4.677  11.339
 2064W        W 6264   9.552   5.027  10.505
 2065W        W 6265   8.506   0.575   0.782
 2066W        W 6266   8.325   8.024   0.450
 2067W        W 6267   5.450   3.279   2.106
 2068W        W 6268   8.164  10.456   0.932
 2069W        W 6269   6.862   0.727  10.742
 2070W        W 6270   8.292   3.774   3.487
 2071W        W 6271   7.567  10.239   2.172
 2072W        W 6272   9.128   5.206   0.982
 2073W        W 6273   8.781  10.026   3.497
 2074W        W 6274   0.113   7.994   8.659
 2075W        W 6275   3.738   7.644   8.832
 2076W        W 6276   9.894   5.198   8.765
 2077W        W 6277   3.537  11.385   3.559
 2078W        W 6278   8.016   3.106  11.372
 2079W        W 6279  10.102   0.417   1.831
 2080W        W 6280   1.044   4.118   1.025
 2081W        W 6281   7.763  11.160  10.520
 2082W        W 6282   9.985   3.707  10.568
 2083W        W 6283   6.632   3.170   8.671
 2084W        W 6284   7.575   8.087   2.749
 2085W        W 6285   4.473   1.365  10.328
 2086W        W 6286   8.360   2.392   0.880
 2087W        W 6287   3.249  10.478   2.865
 2088W        W 6288   4.053   8.632  11.492
 2089W        W 6289  11.198   6.961   1.320
 2090W        W 6290  10.855   2.110   2.673
 2091W        W 6291   5.808   6.609   3.084
 2092W        W 6292   6.216   9.423   4.097
 2093W        W 6293   6.319  10.530   3.000
 2094W        W 6294   2.372   9.614   2.837
 2095W        W 6295   8.882   4.068   8.510
 2096W        W 6296   3.269   8.957  11.953
 2097W        W 6297   4.772   4.790  10.314
 2098W        W 6298   0.293   6.249   3.330
 2099W        W 6299   1.638   3.066   3.586
 2100W        W 6300   9.589   8.022  11.780
 2101W        W 6301   2.258   9.456   2.178
 2102W        W 6302   8.615   8.035  10.978
 2103W        W 6303   2.736   8.184   9.970
 2104W        W 6304   2.917   9.458   1.176
 2105W        W 6305   6.131   1.657   1.546
 2106W        W 6306   6.588   1.853   3.491
 2107W        W 6307  10.355   2.697   2.606
 2108W        W 6308   3.143   3.414   1.247
 2109W        W 6309   7.993   2.586  11.309
 2110W        W 6310   5.983   6.212  11.087
 2111W        W 6311   2.768   3.318   3.012
 2112W        W 6312   0.465  10.454   9.635
 2113W        W 6313  11.373   9.520   1.183
 2114W        W 6314   6.332   7.117  11.520
 2115W        W 6315   0.327   2.633   0.218
 2116W        W 6316   9.416   6.060   1.003
 2117W        W 6317   2.603   8.512   0.016
 2118W        W 6318   4.632   8.090   1.002
 2119W        W 6319   6.843   3.487   0.007
 2120W        W 6320   2.008   5.587   8.738
 2121W        W 6321  10.930   0.320  11.421
 2122W        W 6322   9.085   7.593  10.651
 2123W        W 6323   5.312   0.840   0.394
 2124W        W 6324   7.340  10.499   0.269
 2125W        W 6325  10.697   1.830  11.826
 2126W        W 6326   5.672   6.720   0.059
 2127W        W 6327   9.817   4.087   8.870
 2128W        W 6328   7.699   6.430   9.720
 2129W        W 6329   9.391   2.950   0.381
 2130W        W 6330   7.948   7.227  10.057
 2131W        W 6331   1.787   8.096   2.520
 2132W        W 6332   5.575   3.527  10.901
 2133W        W 6333   9.791   1.707   1.049
 2134W        W 6334   1.369   6.234   0.228
 2135W        W 6335   5.296   8.662   9.466
 2136W        W 6336   3.423   0.513   8.765
 2137W        W 6337   3.390   9.498   1.385
 2138W        W 6338   8.009   2.618   2.854
 2139W        W 6339   2.352   1.579   1.963
 2140W        W 6340   9.864   9.390  11.506
 2141W        W 6341   4.993   3.770   8.328
 2142W        W 6342   0.267   1.333   0.413
 2143W        W 6343   2.566   4.234   9.269
 2144W        W 6344   3.687   5.263   9.862
 2145W        W 6345   5.932   5.804  10.777
 2146W        W 6346   5.579   6.210   2.276
 2147W        W 6347   2.160   0.739   2.316
 2148W        W 6348   8.926   6.722   2.196
 2149W        W 6349   3.699   5.582  11.386
 2150W        W 6350   5.771   1.652  10.666
 2151W        W 6351   0.800   7.917   0.234
 2152W        W 6352  11.296   1.934   2.507
 2153W        W 6353   6.981   5.058   1.016
 2154W        W 6354  11.186   2.416  11.540
 2155W        W 6355   7.063   8.172   2.954
 2156W        W 6356   9.484   6.426   1.367
 2157W        W 6357   1.196   3.632   9.950
 2158W        W 6358   7.701   5.624   2.070
 2159W        W 6359   3.395   9.056   1.070
 2160W        W 6360   2.932   3.882   1.137
 2161W        W 6361   9.499   9.965   0.861
 2162W        W 6362   5.260   8.769   3.108
 2163W        W 6363   8.798   8.219   0.549
 2164W        W 6364   6.963   9.394   2.007
 2165W        W 6365   5.649   1.516   0.739
 2166W        W 6366   7.454   8.058   9.558
 2167W        W 6367   2.094  10.558   3.667
 2168W        W 6368   8.360   1.192   2.911
 2169W        W 6369   9.225   5.590   9.357
 2170W        W 6370  10.486   9.329   0.699
 2171W        W 6371   8.586   5.951   3.589
 2172W        W 6372   2.267   6.331  10.867
 2173W        W 6373   8.014   4.750   3.045
 2174W        W 6374   5.322   2.410   0.336
 2175W        W 6375   9.558   6.500   3.079
 2176W        W 6376  11.287   3.972   0.219
 2177W        W 6377  10.796   3.629   1.475
 2178W        W 6378   6.538   7.378  10.541
 2179W        W 6379   9.527  10.767  11.075
 2180W        W 6380   5.660   0.501   8.989
 2181W        W 6381   1.873   5.874  10.388
 2182W        W 6382   6.921   9.735  10.008
 2183W        W 6383   3.698   1.931   1.156
 2184W        W 6384   6.410   4.240  11.345
 2185W        W 6385   2.453  10.744   2.311
 2186W        W 6386   1.915   8.966   9.062
 2187W        W 6387   5.350   4.165   1.442
 2188W        W 6388   6.150   5.449   3.151
 2189W        W 6389  10.841  10.036  10.445
 2190W        W 6390   4.524   0.832   9.479
 2191W        W 6391   5.788   2.374   3.108
 2192W        W 6392   1.675   6.688  10.085
 2193W        W 6393   4.623   5.714   9.973
 2194W        W 6394   3.101   8.003   2.729
 2195W        W 6395   1.418  10.235   1.718
 2196W        W 6396   0.833   3.166   1.928
 2197W        W 6397   7.815   8.578   2.843
 2198W        W 6398   8.987   3.140  11.612
 2199W        W 6399  10.489   4.194   0.403
 2200W        W 6400   9.083   7.955  11.753
 2201W        W 6401  10.027   1.598   2.937
 2202W        W 6402   0.675   8.830   9.557
 2203W        W 6403   9.313   9.930   1.325
 2204W        W 6404   6.246   2.361   9.170
 2205W        W 6405   8.856   5.550   0.631
 2206W        W 6406  10.536   1.517   8.799
 2207W        W 6407   3.632  10.324   3.464
 2208W        W 6408   3.725   8.575   1.738
 2209W        W 6409   8.706   1.011  10.327
 2210W        W 6410   5.181   7.668   2.113
 2211W        W 6411   7.170  10.046  10.485
 2212W        W 6412  10.317   6.187   9.472
 2213W        W 6413   2.834   1.496   9.931
 2214W        W 6414  10.350   6.032   1.689
 2215W        W 6415  10.093   2.438   3.366
 2216W        W 6416   5.591   2.175  10.380
 2217W        W 6417   0.835   2.691  10.162
 2218W        W 6418   5.664   8.971   1.475
 2219W        W 6419   9.095   6.274   0.377
 2220W        W 6420  11.022   8.345  11.924
 2221W        W 6421  10.875   1.616  10.048
 2222W        W 6422  10.983   8.051   8.819
 2223W        W 6423   3.646   1.650  11.717
 2224W        W 6424  10.038  10.306  11.054
 2225W        W 6425  10.859   4.761   1.135
 2226W        W 6426   9.992   0.878   2.033
 2227W        W 6427   7.442   4.809   3.273
 2228W        W 6428   1.606   7.574   1.203
 2229W        W 6429   7.166   2.850   9.345
 2230W        W 6430  10.523  11.305   1.376
 2231W        W 6431   1.264   9.093   0.198
 2232W        W 6432   1.300   2.921  10.789
 2233W        W 6433   5.668   9.692  11.939
 2234W        W 6434   2.398  10.046   1.841
 2235W        W 6435   5.648  11.031  11.850
 2236W        W 6436   8.882   1.961  10.858
 2237W        W 6437   3.829   6.251   9.975
 2238W        W 6438   7.468   1.499   3.318
 2239W        W 6439   7.267   1.431   1.778
 2240W        W 6440  10.070   3.205   8.718
 2241W        W 6441   3.228   8.142  11.111
 2242W        W 6442   6.576   0.762   1.810
 2243W        W 6443   7.614   1.382   0.326
 2244W        W 6444   6.395   3.192   0.493
 2245W        W 6445   6.153   5.546   1.247
 2246W        W 6446   3.338   0.708  10.964
 2247W        W 6447   4.154   2.411   1.872
 2248W        W 6448   9.864   3.097   0.940
 2249W        W 6449   4.064  10.065   3.351
 2250W        W 6450   3.451   6.072  11.444
 2251W        W 6451   4.935   4.090   4.061
 2252W        W 6452   0.599   6.505   0.461
 2253W        W 6453   9.954   7.603   8.639
 2254W        W 6454   4.763   8.940   2.530
 2255W        W 6455   8.158   9.164  10.781
 2256W        W 6456   3.714   2.381   9.469
 2257W        W 6457   3.965   3.828   9.269
 2258W        W 6458   5.269   2.132   2.308
 2259W        W 6459   9.943   4.744   9.701
 2260W        W 6460   9.395  11.488   9.011
 2261W        W 6461   4.728  10.804   8.894
 2262W        W 6462   3.716   1.235  10.264
 2263W        W 6463   5.939   3.673   9.840
 2264W        W 6464   9.672   4.213   3.589
 2265W        W 6465   0.397   8.150  10.917
 2266W        W 6466   0.166   4.172  10.753
 2267W        W 6467   0.112   8.822   1.425
 2268W        W 6468   3.790   8.098   1.279
 2269W        W 6469   8.188  11.263   0.337
 2270W        W 6470   5.751  11.369   9.482
 2271W        W 6471   2.699   9.968   3.116
 2272W        W 6472  10.289   5.492  11.481
 2273W        W 6473   5.977   0.767   3.617
 2274W        W 6474   1.519   0.551  10.430
 2275W        W 6475   8.240  10.326   8.700
 2276W        W 6476   1.876   6.030   3.334
 2277W        W 6477   5.616   7.949   0.452
 2278W        W 6478   0.647   6.983  11.258
 2279W        W 6479   5.855   5.312   2.684
 2280W        W 6480   6.683   4.136  10.908
 2281W        W 6481   2.171   2.794  10.912
 2282W        W 6482   9.284  10.868   0.786
 2283W        W 6483   8.982   7.054   1.810
 2284W        W 6484   6.480   0.634  11.256
 2285W        W 6485   5.201   0.913  10.906
 2286W        W 6486   3.206   0.849   2.117
 2287W        W 6487   8.084   5.960  11.048
 2288W        W 6488   3.633   2.603   9.927
 2289W        W 6489   5.474   0.423   2.276
 2290W        W 6490   6.074   1.915  11.506
 2291W        W 6491   0.974   1.737   1.064
 2292W        W 6492  10.723   6.281  11.279
 2293W        W 6493   0.780   7.514   9.507
 2294W        W 6494   0.202   8.541   2.967
 2295W        W 6495   3.865   9.421   1.203
 2296W        W 6496   2.261   2.328  10.023
 2297W        W 6497   4.888   4.312   1.686
 2298W        W 6498   6.021   4.572   0.364
 2299W        W 6499  10.221   6.997   0.262
 2300W        W 6500   3.154   4.241   9.633
 2301W        W 6501   0.824   7.645   0.724
 2302W        W 6502   1.096   7.503   0.217
 2303W        W 6503   0.205   4.792   2.558
 2304W        W 6504   6.974   6.597  10.416
 2305W        W 6505   8.383   1.903   1.010
 2306W        W 6506   2.240   0.207   2.956
 2307W        W 6507   9.789   5.765   0.256
 2308W        W 6508   9.998  11.440   0.646
 2309W        W 6509   5.085   0.216  11.727
 2310W        W 6510   1.462   3.009  10.288
 2311W        W 6511   7.684  11.206   3.403
 2312W        W 6512   3.147   9.980   1.337
 2313W        W 6513  10.441  11.029   2.905
 2314W        W 6514   4.012   5.037   1.024
 2315W        W 6515   9.422  11.028   2.325
 2316W        W 6516   2.811   6.767  11.361
 2317W        W 6517   4.409   0.715   1.369
 2318W        W 6518   9.999   5.681  10.820
 2319W        W 6519   0.770   6.561   2.273
 2320W        W 6520   5.621   8.507   2.309
 2321W        W 6521   4.150   9.403  11.866
 2322W        W 6522   2.847   1.852  10.812
 2323W        W 6523   1.916   2.586   1.336
 2324W        W 6524   2.853   2.614   1.278
 2325W        W 6525   2.813   2.828  10.314
 2326W        W 6526  11.366   5.645   9.102
 2327W        W 6527  10.334  10.980   0.949
 2328W        W 6528   1.818   4.613   9.411
 2329W        W 6529  10.844   1.376   0.511
 2330W        W 6530   4.437   7.137   3.112
 2331W        W 6531   4.198   0.364   9.286
 2332W        W 6532   9.046   4.917   3.247
 2333W        W 6533  10.498   8.939   2.427
 2334W        W 6534   8.489   0.718   2.678
 2335W        W 6535   8.183   5.640   2.209
 2336W        W 6536  10.657   0.788   2.952
 2337W        W 6537  10.387   6.126   1.153
 2338W        W 6538   0.982   7.946  10.427
 2339W        W 6539   8.606   6.490  11.168
 2340W        W 6540   0.548   1.014  10.883
 2341W        W 6541   6.010   2.369   9.606
 2342W        W 6542   6.473   8.595  11.498
 2343W        W 6543   3.173  10.697   2.405
 2344W        W 6544  10.836   6.574  10.200
 2345W        W 6545   6.110   7.835   2.760
 2346W        W 6546   0.871   4.050  10.084
 2347W        W 6547   9.423   5.259   8.570
 2348W        W 6548   7.724  11.279   1.242
 2349W        W 6549   6.353  10.753   0.314
 2350W        W 6550   7.869   5.029   3.476
 2351W        W 6551   2.941   7.285  11.286
 2352W        W 6552   9.148   1.818   9.896
 2353W        W 6553   3.656  10.413  10.850
 2354W        W 6554   0.470  10.278   2.819
 2355W        W 6555   0.097   3.722  10.371
 2356W        W 6556   4.714  10.924  10.392
 2357W        W 6557   1.819   1.809  10.602
 2358W        W 6558   1.965   1.840   0.911
 2359W        W 6559   9.239   7.022   0.094
 2360W        W 6560   3.235   9.100  10.043
 2361W        W 6561   5.184   8.876   1.672
 2362W        W 6562   3.168  10.325   9.518
 2363W        W 6563   1.197   6.318   1.237
 2364W        W 6564  11.192   3.408   3.476
 2365W        W 6565   3.385   3.890   0.377
 2366W        W 6566   0.050   2.467   9.026
 2367W        W 6567   0.241   9.781  10.407
 2368W        W 6568   2.130   1.334   8.975
 2369W        W 6569   7.763  10.504   8.805
 2370W        W 6570   7.851   4.034   0.636
 2371W        W 6571  11.177   6.169  10.066
 2372W        W 6572   5.244   1.250   2.177
 2373W        W 6573   9.736   7.586   0.059
 2374W        W 6574   2.678   5.498   0.271
 2375W        W 6575   7.338   3.257   2.869
 2376W        W 6576   5.227   9.020   2.246
 2377W        W 6577   2.849   5.401   4.054
 2378W        W 6578   7.099   8.618   3.931
 2379W        W 6579   3.871   4.202   1.686
 2380W        W 6580  10.327   8.565   2.133
 2381W        W 6581   0.366   9.281   0.315
 2382W        W 6582  11.447   2.237   1.363
 2383W        W 6583   7.588   4.321   0.278
 2384W        W 6584   2.288   1.326   1.513
 2385W        W 6585   3.670   6.733   1.139
 2386W        W 6586   1.168  10.979   8.559
 2387W        W 6587   9.464   2.974   9.396
 2388W        W 6588   1.414  10.425   0.021
 2389W        W 6589   4.267   3.631   2.399
 2390W        W 6590   0.463   5.042  10.595
 2391W        W 6591   3.227   7.352  10.413
 2392W        W 6592   4.110   5.592   9.759
 2393W        W 6593  10.395   5.900   9.877
 2394W        W 6594   2.603   5.073   1.264
 2395W        W 6595   0.857   6.644   9.016
 2396W        W 6596   4.433   3.653  11.432
 2397W        W 6597   2.362   6.640   2.752
 2398W        W 6598   1.626   7.462   0.274
 2399W        W 6599   2.350   9.388   0.248
 2400W        W 6600   0.875   3.539   2.315
 2401W        W 6601   8.173   6.074   2.489
 2402W        W 6602   7.651  10.092   2.677
 2403W        W 6603   6.416   5.144   2.224
 2404W        W 6604   7.140   4.871   1.955
 2405W        W 6605   1.582   7.029   2.734
 2406W        W 6606   4.208   1.761   2.683
 2407W        W 6607   3.654  10.774  11.239
 2408W        W 6608   1.570   2.276   2.257
 2409W        W 6609   6.455   0.674  10.188
 2410W        W 6610   4.639   9.915   1.370
 2411W        W 6611   5.435   9.246   8.519
 2412W        W 6612   0.878   6.669   9.529
 2413W        W 6613   9.572  10.173   3.334
 2414W        W 6614   1.358   4.394  11.740
 2415W        W 6615   1.053   5.908  11.969
 2416W        W 6616   0.553   1.432   2.498
 2417W        W 6617   8.524   9.615   9.229
 2418W        W 6618   7.179   4.530   2.348
 2419W        W 6619   0.968   1.187   9.998
 2420W        W 6620   5.133   2.926   1.215
 2421W        W 6621   0.414   7.895   1.119
 2422W        W 6622   9.486   9.667  10.371
 2423W        W 6623   9.107  11.350   2.736
 2424W        W 6624  10.642   8.086   1.987
 2425W        W 6625   9.434   7.645   2.270
 2426W        W 6626   9.538   8.332   9.023
 2427W        W 6627  10.791  10.164   2.665
 2428W        W 6628   3.357   0.489   1.006
 2429W        W 6629   7.224   8.032  11.452
 2430W        W 6630   7.544   2.753   3.573
 2431W        W 6631   8.375  10.669  10.355
 2432W        W 6632   9.530   2.434   1.368
 2433W        W 6633   5.483  10.647   3.309
 2434W        W 6634  11.374   2.865   9.843
 2435W        W 6635   5.207   2.887   1.819
 2436W        W 6636   7.093   9.035   3.218
 2437W        W 6637  11.406   3.307  11.085
 2438W        W 6638   4.645   2.712   2.489
 2439W        W 6639   6.436   0.861   9.386
 2440W        W 6640   0.774  10.247   1.399
 2441W        W 6641   8.643   4.860   8.564
 2442W        W 6642   2.315   1.177   3.315
 2443W        W 6643  10.287   3.379   0.974
 2444W        W 6644   2.610   8.874   0.408
 2445W        W 6645   5.526   9.016  10.336
 2446W        W 6646   6.586   4.272   1.290
 2447W        W 6647  10.903   6.236   3.021
 2448W        W 6648   8.427   3.783  11.941
 2449W        W 6649   8.910   0.386   0.217
 2450W        W 6650   4.605   3.022   1.192
 2451W        W 6651   9.292   2.223   0.945
 2452W        W 6652   1.969   9.534   1.778
 2453W        W 6653   1.028   9.055   9.243
 2454W        W 6654   4.800   8.067  10.159
 2455W        W 6655   2.368   5.027  11.405
 2456W        W 6656   1.001   2.760   1.620
 2457W        W 6657   4.301   6.073   9.780
 2458W        W 6658   0.559   2.674   1.884
 2459W        W 6659   9.483   3.955   2.649
 2460W        W 6660   3.875   3.788  11.420
 2461W        W 6661   2.235   7.964   2.321
 2462W        W 6662   0.271   4.918  11.192
 2463W        W 6663   8.396   6.980  11.508
 2464W        W 6664   3.441   3.919   9.320
 2465W        W 6665   0.975   3.715  11.737
 2466W        W 6666   8.131   8.184  11.042
 2467W        W 6667   6.492   9.948  11.347
 2468W        W 6668   1.096   1.821   2.704
 2469W        W 6669  10.141  10.946   9.932
 2470W        W 6670   2.713   4.142   8.798
 2471W        W 6671   0.642   8.078   8.664
 2472W        W 6672   4.958   3.358   1.422
 2473W        W 6673   9.778   3.615   8.586
 2474W        W 6674   5.991   8.490  11.378
 2475W        W 6675   5.202   9.355  10.573
 2476W        W 6676  11.083   5.924  10.506
 2477W        W 6677  10.883  10.237  11.371
 2478W        W 6678   4.357   4.315   1.727
 2479W        W 6679   1.298   1.404   1.277
 2480W        W 6680   6.497   3.441   2.715
 2481W        W 6681   7.473  10.084   1.674
 2482W        W 6682  10.005   7.444   9.148
 2483W        W 6683   4.141   3.422   1.936
 2484W        W 6684   6.905   2.050   0.163
 2485W        W 6685   6.262   2.685   0.256
 2486W        W 6686  11.357   6.102  10.894
 2487W        W 6687   2.604   3.885  11.441
 2488W        W 6688   1.720   1.280   9.291
 2489W        W 6689   8.910   2.834   1.307
 2490W        W 6690   6.582   1.816   1.362
 2491W        W 6691   2.904   6.622   2.689
 2492W        W 6692   8.453   4.528  11.577
 2493W        W 6693   0.299   4.632   0.311
 2494W        W 6694   1.853  11.194   9.091
 2495W        W 6695   0.490   4.329  11.955
 2496W        W 6696  10.699   2.254  11.516
 2497W        W 6697   8.355   7.266  11.958
 2498W        W 6698   2.720   1.751   9.492
 2499W        W 6699   6.240   3.026  10.328
 2500W        W 6700  10.014   8.109   3.232
 2501W        W 6701   2.854   2.271  11.102
 2502W        W 6702   9.206  11.372   9.519
 2503W        W 6703   2.685   3.803   3.240
 2504W        W 6704   6.618   8.684   2.110
 2505W        W 6705   1.904   1.620   1.384
 2506W        W 6706   7.140  11.143  10.928
 2507W        W 6707   4.197   3.043  11.975
 2508W        W 6708   1.644  10.729   1.412
 2509W        W 6709   4.797   8.855  10.994
 2510W        W 6710   3.206   5.119  11.581
 2511W        W 6711   5.688  10.486   0.713
 2512W        W 6712   6.485   3.846  11.887
 2513W        W 6713   3.500   4.974   3.627
 2514W        W 6714   2.234  10.716   2.777
 2515W        W 6715   4.758   2.415  11.760
 2516W        W 6716   3.100   8.397   0.360
 2517W        W 6717   0.767   6.597   1.310
 2518W        W 6718  10.037  11.324   1.193
 2519W        W 6719   7.589   2.851  10.528
 2520W        W 6720   7.949  10.280   1.842
 2521W        W 6721   5.447   1.413   1.199
 2522W        W 6722   0.992   6.886   2.593
 2523W        W 6723   3.134   2.731  10.952
 2524W        W 6724   3.068   4.250  10.597
 2525W        W 6725   5.572   1.852   3.633
 2526W        W 6726  10.037   6.651   2.705
 2527W        W 6727   6.654   9.940   1.301
 2528W        W 6728   8.227   7.643  10.229
 2529W        W 6729   4.319  10.151  11.314
 2530W        W 6730   3.551   0.932   1.174
 2531W        W 6731  10.793   1.419   1.919
 2532W        W 6732   3.306   5.749   9.552
 2533W        W 6733   0.977   3.671   0.265
 2534W        W 6734   2.954   1.773   1.025
 2535W        W 6735  10.040   2.823  10.602
 2536W        W 6736   7.093   9.037   2.711
 2537W        W 6737   8.497   6.254  11.926
 2538W        W 6738   2.445   0.247   0.444
 2539W        W 6739  11.249   3.599   1.779
 2540W        W 6740  10.249   9.409   9.769
 2541W        W 6741   7.483   6.681  11.824
 2542W        W 6742   5.482   7.216   8.525
 2543W        W 6743   3.620   4.459  10.715
 2544W        W 6744   0.914   3.279   1.440
 2545W        W 6745   6.278   3.275   3.725
 2546W        W 6746   1.422   1.388  10.129
 2547W        W 6747  10.207   7.108  11.271
 2548W        W 6748   6.715   9.160   9.301
 2549W        W 6749   3.131  10.475  10.833
 2550W        W 6750   2.672   1.916   3.253
 2551W        W 6751   3.696   2.624  10.770
 2552W        W 6752   9.477   4.626  10.018
 2553W        W 6753   8.109   0.870   1.493
 2554W        W 6754   2.404   6.590  10.376
 2555W        W 6755   5.838   6.097   9.158
 2556W        W 6756   0.892   6.023   1.517
 2557W        W 6757   6.972   5.247  11.552
 2558W        W 6758  10.015   2.245   9.931
 2559W        W 6759   3.350   6.993   2.387
 2560W        W 6760   4.620   0.234   1.389
 2561W        W 6761  11.026   0.539   1.985
 2562W        W 6762  10.442   9.955   1.915
 2563W        W 6763   6.454   5.235  11.459
 2564W        W 6764   5.928  11.461  11.755
 2565W        W 6765   9.540   0.133  10.786
 2566W        W 6766   1.267   8.416   1.928
 2567W        W 6767   6.415   4.900   9.707
 2568W        W 6768   5.018   9.058   0.248
 2569W        W 6769  11.213   3.986   1.420
 2570W        W 6770  10.047   6.289   3.093
 2571W        W 6771   1.103   7.126  11.401
 2572W        W 6772   8.681  10.038   0.238
 2573W        W 6773   7.583   2.981   1.190
 2574W        W 6774   2.626   4.614   9.629
 2575W        W 6775   8.296  11.006   9.648
 2576W        W 6776   0.255   6.990   8.544
 2577W        W 6777   7.491   1.212  10.928
 2578W        W 6778   5.320  10.615  11.625
 2579W        W 6779  10.952   0.971   1.717
 2580W        W 6780  10.562   3.506  11.230
 2581W        W 6781   6.898   3.706   0.786
 2582W        W 6782   8.135   2.993   8.728
 2583W        W 6783   1.912   8.822   1.306
 2584W        W 6784   1.709   0.683   1.242
 2585W        W 6785   2.661   9.415   2.469
 2586W        W 6786  10.841   2.747   8.972
 2587W        W 6787   1.220   5.730  11.485
 2588W        W 6788   4.992   5.304   0.996
 2589W        W 6789  10.769   6.240   9.778
 2590W        W 6790  10.747   5.126  10.848
 2591W        W 6791   0.610   9.475  11.479
 2592W        W 6792   7.665   6.093   2.386
 2593W        W 6793   1.407   7.134   1.451
 2594W        W 6794   5.635   2.199  11.426
 2595W        W 6795   5.770  11.135   9.930
 2596W        W 6796   0.339   0.989   2.375
 2597W        W 6797   6.058   5.698  11.253
 2598W        W 6798   0.780   1.519   3.335
 2599W        W 6799   6.710   1.711   3.017
 2600W        W 6800   8.663   6.110   2.743
 2601W        W 6801   4.085   5.139   9.547
 2602W        W 6802   0.005   2.393  11.046
 2603W        W 6803  11.458   4.585  10.974
 2604W        W 6804   1.390   3.246   1.225
 2605W        W 6805   9.407  10.614   9.560
 2606W        W 6806   1.925   4.419   0.931
 2607W        W 6807   8.531   0.298   3.395
 2608W        W 6808   4.919   7.651   9.349
 2609W        W 6809   5.293   2.800   9.826
 2610W        W 6810   8.582   2.339  11.751
 2611W        W 6811   5.790   8.830   8.626
 2612W        W 6812   6.948   2.644   2.130
 2613W        W 6813   4.716   9.394   2.741
 2614W        W 6814   8.939   6.332   3.722
 2615W        W 6815   2.720   9.069  11.885
 2616W        W 6816  10.533   7.475   0.383
 2617W        W 6817   3.059   6.513   9.934
 2618W        W 6818  10.768   4.741   3.107
 2619W        W 6819   0.368  10.136  11.775
 2620W        W 6820   7.539   4.189   8.759
 2621W        W 6821   1.381   3.640   1.552
 2622W        W 6822  10.953   4.394   0.197
 2623W        W 6823   1.173  10.556   1.404
 2624W        W 6824   6.547   6.151   9.683
 2625W        W 6825   3.564   1.004   8.629
 2626W        W 6826   3.343   1.012  11.838
 2627W        W 6827  10.415   6.689   0.993
 2628W        W 6828   2.099   3.219   0.403
 2629W        W 6829   9.018   4.769   2.749
 2630W        W 6830   2.476   9.413   9.659
 2631W        W 6831   1.709   8.355   0.077
 2632W        W 6832   1.218   7.358   9.703
 2633W        W 6833   0.316   5.772   3.160
 2634W        W 6834  10.925   4.829   2.120
 2635W        W 6835   3.511  10.708   0.697
 2636W        W 6836   6.635   6.229   8.768
 2637W        W 6837   1.519   2.231  11.971
 2638W        W 6838   3.842   2.322   1.460
 2639W        W 6839   8.427   5.566  11.315
 2640W        W 6840   7.908   3.600  11.830
 2641W        W 6841   7.999  11.482  10.190
 2642W        W 6842   0.220   0.930   3.368
 2643W        W 6843   6.728   3.093   0.921
 2644W        W 6844   9.896  10.366   3.006
 2645W        W 6845  11.012   0.365   9.472
 2646W        W 6846   2.083   6.938   3.646
 2647W        W 6847   6.450   9.081   0.897
 2648W        W 6848   5.607   5.582  11.480
 2649W        W 6849   8.143   1.771   1.469
 2650W        W 6850   4.684   4.585   9.434
 2651W        W 6851   7.597   9.401  11.771
 2652W        W 6852   8.817   6.821   3.573
 2653W        W 6853   5.695   0.453   0.901
 2654W        W 6854  10.496   5.070   2.774
 2655W        W 6855   0.518   2.111   0.168
 2656W        W 6856   1.457   6.160  10.526
 2657W        W 6857   0.377   0.829   1.893
 2658W        W 6858   5.464   2.891   0.451
 2659W        W 6859   6.179   1.341   0.235
 2660W        W 6860   7.094   3.532  10.411
 2661W        W 6861   6.020   6.127   3.165
 2662W        W 6862   5.009   2.792   0.241
 2663W        W 6863  10.886   0.463  11.920
 2664W        W 6864  10.379   5.183   0.155
 2665W        W 6865   6.365   6.030   0.374
 2666W        W 6866  11.126   3.950  10.396
 2667W        W 6867   5.611   8.054   2.623
 2668W        W 6868   5.971   8.087   2.258
 2669W        W 6869   4.043   5.989   0.004
 2670W        W 6870   1.829   6.904  11.969
 2671W        W 6871  11.156   6.370   0.369
 2672W        W 6872   6.785   2.175   1.996
 2673W        W 6873   1.065   0.797  11.854
 2674W        W 6874   8.211   7.172  10.503
 2675W        W 6875   1.731   2.240  10.861
 2676W        W 6876   6.223   9.971   2.256
 2677W        W 6877   9.080   0.890  10.005
 2678W        W 6878   6.883   9.124  10.311
 2679W        W 6879   6.776   0.737   2.279
 2680W        W 6880   9.964   4.206  11.387
 2681W        W 6881   9.941   6.694   1.732
 2682W        W 6882   8.536  10.907  11.254
 2683W        W 6883   7.239   4.664   4.126
 2684W        W 6884  10.896   2.134  10.168
 2685W        W 6885   9.297   4.139  10.134
 2686W        W 6886   3.809   6.632   1.641
 2687W        W 6887   5.622   1.796  11.738
 2688W        W 6888   4.348   6.967   9.744
 2689W        W 6889   2.967  11.411   1.722
 2690W        W 6890   8.479   8.898  10.431
 2691W        W 6891   3.888  11.076  11.673
 2692W        W 6892   6.527   7.876  11.858
 2693W        W 6893   4.199   2.209  11.471
 2694W        W 6894   8.083   3.812  10.912
 2695W        W 6895   5.712   2.905   1.864
 2696W        W 6896   6.431   7.803   1.091
 2697W        W 6897   8.705   5.131  11.129
 2698W        W 6898   0.730   5.565   2.502
 2699W        W 6899   3.645   0.521  11.349
 2700W        W 6900   5.054  10.996  10.807
 2701W        W 6901   2.879   8.947   0.909
 2702W        W 6902   8.040   2.691  10.299
 2703W        W 6903   7.104   0.775   0.938
 2704W        W 6904   4.739   7.159   2.688
 2705W        W 6905   6.716   3.681   2.224
 2706W        W 6906  10.091   1.499  10.771
 2707W        W 6907   4.551   9.928   3.509
 2708W        W 6908   8.881   5.624   2.646
 2709W        W 6909   8.223   4.253   3.241
 2710W        W 6910   1.763   6.537  11.027
 2711W        W 6911   0.781   1.852   2.322
 2712W        W 6912   1.305   7.550  10.519
 2713W        W 6913   8.818   7.092  11.797
 2714W        W 6914   0.009   3.754   2.241
 2715W        W 6915   4.715   6.671   1.420
 2716W        W 6916   7.491   4.084   2.878
 2717W        W 6917   7.785  10.684  11.090
 2718W        W 6918   7.917   7.695   1.269
 2719W        W 6919   0.777   6.444  10.534
 2720W        W 6920   7.536   4.657   9.952
 2721W        W 6921   6.448   0.823   3.258
 2722W        W 6922   6.091   5.596   0.271
 2723W        W 6923   9.085   6.698   3.138
 2724W        W 6924   5.459   8.912   0.990
 2725W        W 6925   5.518  10.908  11.243
 2726W        W 6926   6.547  10.942   1.431
 2727W        W 6927   9.045   9.956   9.621
 2728W        W 6928   2.870   6.067   3.300
 2729W        W 6929   3.216   5.548  10.066
 2730W        W 6930   8.443   5.950   9.614
 2731W        W 6931   2.161   5.610   3.482
 2732W        W 6932   5.054   3.789   1.170
 2733W        W 6933   5.607   9.346   9.364
 2734W        W 6934   7.566  10.007   0.394
 2735W        W 6935  10.589   4.512   8.949
 2736W        W 6936   2.655   8.939   1.797
 2737W        W 6937   2.801   7.685  11.678
 2738W        W 6938  11.267  11.470  10.299
 2739W        W 6939   7.563  10.578   1.701
 2740W        W 6940   0.439   9.162   2.229
 2741W        W 6941   4.804  10.197  11.013
 2742W        W 6942   1.880   0.062  11.516
 2743W        W 6943   9.026   6.712  10.965
 2744W        W 6944   3.804   2.723   0.116
 2745W        W 6945   7.888   9.786   1.726
 2746W        W 6946  10.244   5.017  11.666
 2747W        W 6947  11.015   2.960   3.148
 2748W        W 6948   7.076   8.718  10.030
 2749W        W 6949  10.342   7.683   2.080
 2750W        W 6950   6.959   1.267  10.040
 2751W        W 6951   9.111   0.363   2.227
 2752W        W 6952   4.747  11.368   3.325
 2753W        W 6953   8.892   3.545  10.348
 2754W        W 6954   0.003   8.023   1.380
 2755W        W 6955   7.460   7.224   3.053
 2756W        W 6956   5.255  10.791   0.637
 2757W        W 6957  10.684   7.134  11.418
 2758W        W 6958   1.714   9.854   0.538
 2759W        W 6959   2.210   1.867  10.278
 2760W        W 6960   8.467   7.655   1.842
 2761W        W 6961   8.416   4.194  10.757
 2762W        W 6962   2.136   9.850   1.413
 2763W        W 6963   5.063   7.777   0.415
 2764W        W 6964   3.158  11.412  10.630
 2765W        W 6965   5.286   6.924   9.957
 2766W        W 6966   8.653   5.856   1.379
 2767W        W 6967   1.836   8.612  11.334
 2768W        W 6968   1.884   9.390   1.250
 2769W        W 6969   7.545   9.180   9.445
 2770W        W 6970   2.362   6.991   3.189
 2771W        W 6971   1.912   9.003   3.333
 2772W        W 6972   0.851   9.068   2.539
 2773W        W 6973   2.624  11.364  10.885
 2774W        W 6974   6.200  10.444  11.329
 2775W        W 6975   1.243  11.471   1.307
 2776W        W 6976   8.005   7.594   8.849
 2777W        W 6977   6.536   6.698  11.718
 2778W        W 6978   4.255   3.899   8.801
 2779W        W 6979   2.679  10.157  11.979
 2780W        W 6980   6.837   6.558   2.489
 2781W        W 6981   1.109   7.109   1.873
 2782W        W 6982   0.724   8.334   9.388
 2783W        W 6983   7.513   2.549   0.700
 2784W        W 6984   3.537   9.997   9.654
 2785W        W 6985   9.897   1.390   3.377
 2786W        W 6986   9.044   6.170   1.362
 2787W        W 6987   7.649   4.267   2.422
 2788W        W 6988   5.639   5.692   0.498
 2789W        W 6989   2.645   5.061   8.898
 2790W        W 6990  10.118  11.271   2.580
 2791W        W 6991   4.782   0.664   9.899
 2792W        W 6992   1.301   4.400  10.202
 2793W        W 6993   1.322   1.790   9.811
 2794W        W 6994   3.943   8.108   3.038
 2795W        W 6995   3.967   6.456   2.670
 2796W        W 6996  11.287   8.566   9.501
 2797W        W 6997   2.184   7.702   1.875
 2798W        W 6998   5.675   4.296  10.254
 2799W        W 6999   5.225  10.688   8.827
 2800W        W 7000  11.282   2.836  11.235
 2801W        W 7001  10.932   8.471   9.122
 2802W        W 7002   2.514   5.520   8.712
 2803W        W 7003   0.178   9.129  10.848
 2804W        W 7004   8.928   5.652   8.925
 2805W        W 7005   2.693   9.449   3.209
 2806W        W 7006   5.793   8.839  11.030
 2807W        W 7007   0.388   8.936   0.810
 2808W        W 7008   8.552   9.787  10.308
 2809W        W 7009   4.540   3.976  11.804
 2810W        W 7010   6.833   2.283  11.116
 2811W        W 7011   0.344   4.025   9.890
 2812W        W 7012   4.200   0.431   0.031
 2813W        W 7013   4.914   2.804  11.420
 2814W        W 7014   1.778   0.943  10.650
 2815W        W 7015   6.018   5.111   9.996
 2816W        W 7016   9.558   9.877   2.428
 2817W        W 7017  11.478   0.370   1.656
 2818W        W 7018   8.903   1.763   2.189
 2819W        W 7019  11.059   0.044   1.727
 2820W        W 7020   2.864   8.523  11.084
 2821W        W 7021   6.533   3.636  10.875
 2822W        W 7022  10.326   9.170  11.339
 2823W        W 7023   3.873   1.389   3.407
 2824W        W 7024   5.205   4.122  11.909
 2825W        W 7025   1.885   1.991   3.049
 2826W        W 7026   3.278   8.607  11.361
 2827W        W 7027   6.693   6.684   3.581
 2828W        W 7028   2.732   0.019   2.281
 2829W        W 7029   1.105   5.420   0.760
 2830W        W 7030   9.979   1.182  10.321
 2831W        W 7031   2.874   5.888  10.359
 2832W        W 7032   4.855   9.545   0.212
 2833W        W 7033   6.236   5.831   9.404
 2834W        W 7034   5.550   1.924   9.546
 2835W        W 7035   0.446   0.958   1.369
 2836W        W 7036   9.076   5.059   4.277
 2837W        W 7037   6.742   2.594   3.999
 2838W        W 7038   3.239   0.500   2.834
 2839W        W 7039   0.233   2.158   2.842
 2840W        W 7040   6.449  11.164   0.971
 2841W        W 7041   4.512   8.616   0.231
 2842W        W 7042   8.145  10.030   9.127
 2843W        W 7043   0.896  11.046   3.777
 2844W        W 7044  10.045  10.346  11.831
 2845W        W 7045   2.677   8.158   2.929
 2846W        W 7046   9.943   6.235   1.467
 2847W        W 7047   3.230   9.219   2.399
 2848W        W 7048   8.357   0.791   9.004
 2849W        W 7049   0.037   0.660   1.188
 2850W        W 7050   5.329  10.181  10.828
 2851W        W 7051   8.912   9.511   0.405
 2852W        W 7052   9.339   2.261  10.106
 2853W        W 7053   5.634   7.057   9.025
 2854W        W 7054   6.564   9.560   2.837
 2855W        W 7055   8.471   9.019   1.731
 2856W        W 7056   4.546   9.757  10.989
 2857W        W 7057   4.363   9.561  11.436
 2858W        W 7058   4.169  10.059   0.534
 2859W        W 7059   7.944  10.061   0.722
 2860W        W 7060   4.324   1.435  11.030
 2861W        W 7061   8.968   0.663   9.535
 2862W        W 7062   7.578  10.391   1.230
 2863W        W 7063   0.448   9.913   9.505
 2864W        W 7064  10.818   0.219   1.283
 2865W        W 7065   2.769   7.369  10.187
 2866W        W 7066   9.908   6.521   0.282
 2867W        W 7067  10.360   1.321   9.243
 2868W        W 7068   8.376   5.039  11.505
 2869W        W 7069   7.426   0.945   9.167
 2870W        W 7070   8.751   7.554  11.051
 2871W        W 7071   0.748   2.315   9.667
 2872W        W 7072   2.177   9.141   2.897
 2873W        W 7073   8.480   3.203   8.400
 2874W        W 7074   0.295   1.727  10.067
 2875W        W 7075   8.334   4.116   0.494
 2876W        W 7076   6.261   5.758   0.797
 2877W        W 7077   6.083   0.988   8.992
 2878W        W 7078   6.057   7.456   9.788
 2879W        W 7079   2.326   0.243  11.352
 2880W        W 7080   4.328   6.819   2.689
 2881W        W 7081   2.083   7.878   1.053
 2882W        W 7082   8.038   9.251   9.565
 2883W        W 7083   7.624   6.705  11.333
 2884W        W 7084  10.857  11.430   0.229
 2885W        W 7085   2.226   7.492   3.080
 2886W        W 7086   2.410   5.277   2.174
 2887W        W 7087   3.290   4.714   8.956
 2888W        W 7088   2.160   2.894   9.327
 2889W        W 7089  10.499   9.868   3.467
 2890W        W 7090   8.898   0.629   9.016
 2891W        W 7091   3.456  10.941   3.854
 2892W        W 7092   0.135   1.446   2.217
 2893W        W 7093   6.802   7.959  11.181
 2894W        W 7094   2.699  10.671  10.428
 2895W        W 7095   4.584   4.025   2.537
 2896W        W 7096   8.157   3.651   0.346
 2897W        W 7097   2.369   7.567   0.677
 2898W        W 7098   6.435   9.389  10.406
 2899W        W 7099   4.097   6.418  11.237
 2900W        W 7100  10.943   5.365  11.335
 2901W        W 7101   0.894   6.710  11.613
 2902W        W 7102   0.273   0.418   9.952
 2903W        W 7103   7.191  11.347   3.524
 2904W        W 7104   5.964   8.047  11.003
 2905W        W 7105   7.421   9.601   1.848
 2906W        W 7106   5.667  11.343   1.328
 2907W        W 7107   7.951   3.667  10.435
 2908W        W 7108   2.262   1.162   2.792
 2909W        W 7109   0.065   4.173   2.560
 2910W        W 7110   4.081   3.410   8.857
 2911W        W 7111   9.386   6.554   3.564
 2912W        W 7112   5.332  11.296   1.736
 2913W        W 7113   9.027   2.291   1.371
 2914W        W 7114   8.956   9.024   1.552
 2915W        W 7115   9.899   0.456   2.315
 2916W        W 7116   0.347   9.249   1.210
 2917W        W 7117   0.692   9.525   1.955
 2918W        W 7118   5.046   9.647   8.548
 2919W        W 7119   0.307   8.047   3.130
 2920W        W 7120   8.049   9.502   2.459
 2921W        W 7121  11.471  11.390   2.513
 2922W        W 7122   7.116   2.951   4.081
 2923W        W 7123   4.821  10.819   9.888
 2924W        W 7124   6.437   2.357  10.811
 2925W        W 7125   5.193   6.881   3.560
 2926W        W 7126   4.074  11.064  11.180
 2927W        W 7127   2.735  11.049   2.014
 2928W        W 7128  10.615   0.472   0.890
 2929W        W 7129   5.228   2.627   0.818
 2930W        W 7130   0.216   6.966   1.252
 2931W        W 7131   0.583   1.756   2.890
 2932W        W 7132   0.885   7.672  10.001
 2933W        W 7133   1.565   2.152  10.306
 2934W        W 7134   0.164   9.576   2.053
 2935W        W 7135   2.883   2.123   0.058
 2936W        W 7136   8.427   6.764  11.980
 2937W        W 7137  10.623   8.575  10.429
 2938W        W 7138   1.816   9.306  11.853
 2939W        W 7139   6.300  10.479  11.869
 2940W        W 7140   0.352   3.398   2.380
 2941W        W 7141   7.275   2.411  11.348
 2942W        W 7142   3.341   5.710   2.838
 2943W        W 7143   3.562   4.348   3.050
 2944W        W 7144  11.105   0.885  10.954
 2945W        W 7145   3.219   5.192   2.845
 2946W        W 7146   0.818   9.505  10.305
 2947W        W 7147  10.378   0.438   0.016
 2948W        W 7148   5.073  10.147   2.608
 2949W        W 7149   9.548   5.009   2.675
 2950W        W 7150   9.501   6.938   8.667
 2951W        W 7151   2.677   1.987   1.872
 2952W        W 7152   3.868   1.441   9.465
 2953W        W 7153  10.892   5.680   0.733
 2954W        W 7154   3.964  11.308   9.985
 2955W        W 7155   2.665  10.228  10.750
 2956W        W 7156   0.322   5.207   3.193
 2957W        W 7157   7.565   3.349  10.504
 2958W        W 7158   9.851   9.635   9.545
 2959W        W 7159   5.137   9.327   8.927
 2960W        W 7160   5.518   6.322  11.824
 2961W        W 7161   1.224   3.235   0.185
 2962W        W 7162   5.984   1.751   2.358
 2963W        W 7163   0.891  10.351   1.878
 2964W        W 7164   3.801   1.233   2.423
 2965W        W 7165   9.371   2.788   1.045
 2966W        W 7166   7.424   5.012   3.763
 2967W        W 7167   5.059   6.084   0.510
 2968W        W 7168   4.913  10.130   1.737
 2969W        W 7169   9.375   8.135   1.366
 2970W        W 7170   7.945   9.066   9.098
 2971W        W 7171   3.853   5.510   0.248
 2972W        W 7172   1.714   3.150  10.947
 2973W        W 7173   8.945   8.834   0.264
 2974W        W 7174   2.907  10.292   9.087
 2975W        W 7175   9.114   1.531   2.608
 2976W        W 7176   5.123   7.325   8.892
 2977W        W 7177  10.793   3.273   0.908
 2978W        W 7178   2.757   1.862   2.708
 2979W        W 7179   5.848   3.294   9.381
 2980W        W 7180  10.024   9.475   0.893
 2981W        W 7181   8.966   2.946   0.771
 2982W        W 7182   0.179   4.040  11.666
 2983W        W 7183   5.207   1.438  11.086
 2984W        W 7184   2.170   4.270   9.592
 2985W        W 7185   6.807   2.069   2.513
 2986W        W 7186   0.510   0.439  10.396
 2987W        W 7187  10.158   7.090   9.506
 2988W        W 7188   3.547   6.708   9.832
 2989W        W 7189   6.139   6.529   9.945
 2990W        W 7190   2.708   6.736   8.252
 2991W        W 7191   0.335   0.081   1.152
 2992W        W 7192   2.067   4.287   9.083
 2993W        W 7193  11.411   3.893   0.750
 2994W        W 7194   3.705   0.830   9.093
 2995W        W 7195   6.529   4.589  10.709
 2996W        W 7196   8.636  10.477   9.018
 2997W        W 7197   0.119   0.420   3.228
 2998W        W 7198   8.856   4.868  11.531
 2999W        W 7199   9.785  11.329  11.732
 3000W        W 7200   0.457   3.328   8.902
 3001W        W 7201   2.208   0.012   0.000
 3002W        W 7202  10.928   0.441   0.434
 3003W        W 7203   4.875   1.479   9.576
 3004W        W 7204   0.913   1.358   2.857
 3005W        W 7205   4.314   2.316   2.635
 3006W        W 7206   7.255   2.794   3.104
 3007W        W 7207   3.488   9.477   2.742
 3008W        W 7208   4.362   3.695  10.574
 3009W        W 7209  10.778   0.805  10.578
 3010W        W 7210   9.896   7.688   2.972
 3011W        W 7211   1.218   5.783   1.851
 3012W        W 7212   0.782   8.515  11.222
 3013W        W 7213   2.975   6.001   9.862
 3014W        W 7214   1.302   3.163   1.748
 3015W        W 7215   7.411   2.094   0.935
 3016W        W 7216   1.372   8.581   0.952
 3017W        W 7217   4.111   9.196  10.449
 3018W        W 7218   0.680   8.386   3.738
 3019W        W 7219   3.749   4.917  10.289
 3020W        W 7220   9.591   5.119  11.724
 3021W        W 7221   9.999   8.122   2.694
 3022W        W 7222   2.273   1.963   9.257
 3023W        W 7223   5.655   9.002   2.524
 3024W        W 7224   5.135   3.815  10.918
 3025W        W 7225   6.701   2.650   8.555
 3026W        W 7226   4.266   1.126  11.907
 3027W        W 7227   6.559   1.669   8.760
 3028W        W 7228   3.216   5.294  11.047
 3029W        W 7229   2.629   0.616   1.172
 3030W        W 7230   3.854   5.848   1.482
 3031W        W 7231   3.627   4.337   1.251
 3032W        W 7232   5.085   5.708  10.208
 3033W        W 7233   0.693   7.994  11.346
 3034W        W 7234   8.674   7.433  10.371
 3035W        W 7235   4.620   7.959  11.048
 3036W        W 7236  11.217  11.040   1.791
 3037W        W 7237  10.065   5.178   2.441
 3038W        W 7238   6.263   3.262   9.061
 3039W        W 7239   1.394   5.726  10.206
 3040W        W 7240   2.662   1.691  10.366
 3041W        W 7241  10.142   9.600   1.627
 3042W        W 7242   2.645   0.175  11.820
 3043W        W 7243   0.163   2.576   1.014
 3044W        W 7244   3.133   7.539   1.673
 3045W        W 7245   3.628   9.801   3.186
 3046W        W 7246   0.941  10.797  11.963
 3047W        W 7247   6.284   7.672   0.626
 3048W        W 7248   6.026   1.380   8.437
 3049W        W 7249   9.877   5.153  11.308
 3050W        W 7250   9.186   7.937   9.024
 3051W        W 7251   7.964   4.706   2.523
 3052W        W 7252   6.773   8.747  11.102
 3053W        W 7253   7.719   3.640   2.819
 3054W        W 7254   3.149  10.890  11.903
 3055W        W 7255   7.742   7.592  10.368
 3056W        W 7256  11.048   0.002   3.294
 3057W        W 7257   7.062   0.572   9.077
 3058W        W 7258   0.522  10.849  11.563
 3059W        W 7259   9.909   7.604   9.631
 3060W        W 7260   0.902   0.471   0.667
 3061W        W 7261   2.319   7.216   9.930
 3062W        W 7262   1.198   1.192   9.171
 3063W        W 7263   4.427   2.669  11.409
 3064W        W 7264   3.721  11.320   9.102
 3065W        W 7265  10.412   8.172  11.485
 3066W        W 7266  10.933   2.738   0.216
 3067W        W 7267   9.937   4.832   3.432
 3068W        W 7268   8.879   7.250   0.331
 3069W        W 7269   2.775   1.812  11.643
 3070W        W 7270   7.470  10.394   9.797
 3071W        W 7271   9.483   8.852   8.952
 3072W        W 7272   7.486   6.705   3.132
 3073W        W 7273   5.518  10.750   1.931
 3074W        W 7274   1.454   5.265  11.482
 3075W        W 7275   0.021  10.094   2.012
 3076W        W 7276   5.543   0.614  10.175
 3077W        W 7277   5.810   7.577   0.775
 3078W        W 7278   5.240   3.726   2.269
 3079W        W 7279  10.507   1.367   2.874
 3080W        W 7280   8.184   5.047  10.462
 3081W        W 7281   6.649  10.475   1.233
 3082W        W 7282   6.759   3.758  11.322
 3083W        W 7283   6.059  11.018   1.276
 3084W        W 7284   9.863   4.685  11.566
 3085W        W 7285  11.353   9.238   3.431
 3086W        W 7286   0.525   5.906  10.841
 3087W        W 7287   7.457   8.509  11.473
 3088W        W 7288   5.192   5.728   9.677
 3089W        W 7289   8.075   0.029   3.425
 3090W        W 7290   2.676  10.187  10.248
 3091W        W 7291   8.332   0.785  11.221
 3092W        W 7292   9.440   7.375   1.049
 3093W        W 7293   8.960   1.600   9.337
 3094W        W 7294   5.609   4.483   1.096
 3095W        W 7295   2.895   4.644   8.619
 3096W        W 7296   5.305  10.967   9.797
 3097W        W 7297   1.844   6.573   2.793
 3098W        W 7298   4.134   0.016   8.884
 3099W        W 7299   6.485   9.890   8.953
 3100W        W 7300   5.817   6.045  11.548
 3101W        W 7301   0.850   2.657  10.702
 3102W        W 7302   4.587   5.444   1.444
 3103W        W 7303   4.277   7.837  10.085
 3104W        W 7304   2.836   7.516   2.092
 3105W        W 7305   1.448   8.137  10.531
 3106W        W 7306   7.506   2.755   1.645
 3107W        W 7307  11.386   1.243   0.050
 3108W        W 7308   8.041   0.816   2.002
 3109W        W 7309   6.127   0.449  11.772
 3110W        W 7310   5.270  10.518   1.067
 3111W        W 7311   8.119   2.445  11.931
 3112W        W 7312   7.042   4.086   1.081
 3113W        W 7313   3.277   8.657   9.373
 3114W        W 7314   3.587   5.763  11.866
 3115W        W 7315   5.810  10.765   0.272
 3116W        W 7316   4.047   0.797  10.421
 3117W        W 7317  11.381   5.199   9.760
 3118W        W 7318   6.441   4.777  11.707
 3119W        W 7319   1.200   8.575   9.326
 3120W        W 7320   3.264   7.918   0.370
 3121W        W 7321   3.282   8.198   1.267
 3122W        W 7322   1.806  11.217  10.568
 3123W        W 7323   4.570   0.006   0.899
 3124W        W 7324   8.465  11.270   2.636
 3125W        W 7325   6.165   1.293   0.746
 3126W        W 7326   0.898   7.251   3.998
 3127W        W 7327   0.373   3.812   0.992
 3128W        W 7328   3.732   3.201  11.887
 3129W        W 7329   1.626  10.307   9.013
 3130W        W 7330   3.514  11.271   3.049
 3131W        W 7331  11.044   8.731   0.572
 3132W        W 7332   5.707   2.299   9.202
 3133W        W 7333   2.511   5.062   3.807
 3134W        W 7334   6.708  10.536   9.086
 3135W        W 7335   5.753   2.824  10.028
 3136W        W 7336   3.980   4.680   9.828
 3137W        W 7337   4.505   9.128   0.259
 3138W        W 7338   7.762   8.318   9.236
 3139W        W 7339   0.258   0.854  10.255
 3140W        W 7340  11.478   1.290   1.311
 3141W        W 7341  11.110  10.753   3.549
 3142W        W 7342   1.289  11.360  10.501
 3143W        W 7343   6.983   7.872   2.526
 3144W        W 7344   6.504   4.462   2.603
 3145W        W 7345   1.025   4.513   1.333
 3146W        W 7346   4.264  10.328   1.984
 3147W        W 7347   0.629  10.057   0.195
 3148W        W 7348   1.414   9.532  11.019
 3149W        W 7349   8.967   1.092   9.210
 3150W        W 7350   2.918   0.280   0.249
 3151W        W 7351  11.321   8.735   3.336
 3152W        W 7352  11.190   4.744   3.417
 3153W        W 7353  11.212   4.339   9.881
 3154W        W 7354   1.913   1.868   0.043
 3155W        W 7355   6.976   9.799   0.914
 3156W        W 7356   5.296   8.947  11.006
 3157W        W 7357   1.889   3.883   0.883
 3158W        W 7358  10.497   8.441  11.925
 3159W        W 7359   4.433  10.022   9.258
 3160W        W 7360   2.565   1.224   2.394
 3161W        W 7361   8.407   5.558   8.997
 3162W        W 7362   1.555  10.402   0.999
 3163W        W 7363   3.740   1.759  10.426
 3164W        W 7364   5.630   1.678   1.596
 3165W        W 7365   8.177   1.043   2.449
 3166W        W 7366  10.537   9.338   0.181
 3167W        W 7367   6.247   5.077  10.477
 3168W        W 7368   3.584  10.950   9.449
 3169W        W 7369   8.495   2.669  10.006
 3170W        W 7370   2.314   8.655   9.077
 3171W        W 7371  10.910   9.520   3.363
 3172W        W 7372   9.345   4.287   9.632
 3173W        W 7373   5.745   8.002   9.092
 3174W        W 7374   3.158   6.946   1.046
 3175W        W 7375   9.989   4.555  10.180
 3176W        W 7376   2.827   2.803   0.476
 3177W        W 7377   5.575   2.835   3.372
 3178W        W 7378   6.961   0.776  10.243
 3179W        W 7379  11.476  10.954   2.263
 3180W        W 7380   2.119   6.115  11.769
 3181W        W 7381  11.341   7.611   1.619
 3182W        W 7382   1.682   0.691   9.177
 3183W        W 7383  10.585   8.856   1.390
 3184W        W 7384   3.205   8.878   1.984
 3185W        W 7385   6.052   8.339   1.766
 3186W        W 7386   0.368  11.078   1.307
 3187W        W 7387   5.996  10.915  11.443
 3188W        W 7388   9.870   2.231  11.778
 3189W        W 7389   8.932   0.860  10.752
 3190W        W 7390   8.602   3.790   2.672
 3191W        W 7391   1.222   6.530   3.537
 3192W        W 7392   8.876   1.235   9.694
 3193W        W 7393   3.809   7.784  11.435
 3194W        W 7394   8.319   9.550   2.011
 3195W        W 7395   9.315   7.849   1.835
 3196W        W 7396   0.955   9.875   9.381
 3197W        W 7397   8.779   4.556   1.265
 3198W        W 7398   1.104  11.311  11.943
 3199W        W 7399   1.195   1.001   2.608
 3200W        W 7400   5.768   3.259   8.357
 3201W        W 7401   9.932   6.182   9.846
 3202W        W 7402   5.653   0.927   2.210
 3203W        W 7403   2.693   7.180  11.732
 3204W        W 7404   5.757  11.271   0.424
 3205W        W 7405   2.640   2.837   9.457
 3206W        W 7406   3.749   2.706   3.290
 3207W        W 7407  10.935   8.933   9.307
 3208W        W 7408   2.224  11.224   2.762
 3209W        W 7409   9.052   4.696   9.685
 3210W        W 7410   8.134   9.377   1.569
 3211W        W 7411   7.558   9.037   2.917
 3212W        W 7412   2.006   7.641   2.634
 3213W        W 7413   8.718  11.349   0.381
 3214W        W 7414   0.792   1.593  11.353
 3215W        W 7415   8.447   0.574   1.750
 3216W        W 7416   7.510   7.995   1.001
 3217W        W 7417   4.001   2.828   9.561
 3218W        W 7418   0.835   8.799   0.063
 3219W        W 7419  10.766   4.876  11.438
 3220W        W 7420  11.283   8.179   0.367
 3221W        W 7421   2.735   1.533  11.215
 3222W        W 7422   6.589   0.750   2.758
 3223W        W 7423   4.146   0.953   3.383
 3224W        W 7424  10.818  10.805  10.894
 3225W        W 7425   7.256   1.344   9.584
 3226W        W 7426  10.925   2.551   9.701
 3227W        W 7427   9.430   6.627   0.326
 3228W        W 7428   1.865   2.918   2.727
 3229W        W 7429   3.479   4.400   0.458
 3230W        W 7430   9.571   6.549   0.815
 3231W        W 7431  10.362   1.168   3.336
 3232W        W 7432   7.507   9.428  11.284
 3233W        W 7433   9.932   9.478  10.518
 3234W        W 7434   3.930  10.017   9.315
 3235W        W 7435   3.441   7.961   1.746
 3236W        W 7436  10.578   1.837   9.187
 3237W        W 7437  10.752   0.822   3.446
 3238W        W 7438   3.590   8.950   0.579
 3239W        W 7439   6.992   4.314   2.777
 3240W        W 7440   3.139   3.216   0.456
 3241W        W 7441   6.479   9.195   8.488
 3242W        W 7442   6.113   5.220  11.895
 3243W        W 7443   4.332   8.627   2.571
 3244W        W 7444   6.282  11.297   0.380
 3245W        W 7445   3.661   6.503   2.141
 3246W        W 7446   2.814   4.330   0.931
 3247W        W 7447   1.252  10.067   1.269
 3248W        W 7448  11.329  10.295   9.940
 3249W        W 7449   8.078  10.310  11.280
 3250W        W 7450   0.922   5.645   9.963
 3251W        W 7451   8.416   7.098   9.816
 3252W        W 7452   0.778   7.786  10.875
 3253W        W 7453   3.950   3.211   0.900
 3254W        W 7454   6.394   5.759  10.558
 3255W        W 7455  10.426   9.784   0.932
 3256W        W 7456   0.785   9.969   0.673
 3257W        W 7457   0.393  11.046   9.954
 3258W        W 7458   4.643   4.393  10.015
 3259W        W 7459   0.854   1.259  11.728
 3260W        W 7460  11.489   0.169   0.713
 3261W        W 7461  10.879   1.243   3.197
 3262W        W 7462   1.944  10.443   3.139
 3263W        W 7463   6.299   6.041   1.237
 3264W        W 7464   0.317  11.469  10.255
 3265W        W 7465  10.254   0.504   2.705
 3266W        W 7466   5.363  10.100   0.758
 3267W        W 7467   5.988  11.415   2.821
 3268W        W 7468   2.793   9.381   9.257
 3269W        W 7469   8.376   9.264   3.256
 3270W        W 7470   9.914   2.832   0.467
 3271W        W 7471   9.393   0.037   1.460
 3272W        W 7472   5.032   0.006   2.499
 3273W        W 7473   9.691   0.042   0.170
 3274W        W 7474   8.405   8.617   2.045
 3275W        W 7475   3.352   8.467   2.806
 3276W        W 7476   0.371   6.085   0.752
 3277W        W 7477   4.206   6.524   8.575
 3278W        W 7478   5.055   2.378   9.984
 3279W        W 7479   1.140   8.758   2.918
 3280W        W 7480   2.612   8.486   3.304
 3281W        W 7481   0.361  11.023   8.457
 3282W        W 7482   7.497   1.421   1.197
 3283W        W 7483   1.421   2.225   3.236
 3284W        W 7484   9.958   7.189   9.953
 3285W        W 7485   1.298   0.580   2.375
 3286W        W 7486   2.682   3.467   1.019
 3287W        W 7487  11.288   6.868   0.366
 3288W        W 7488   7.482   8.197   0.299
 3289W        W 7489   6.968  10.177   0.060
 3290W        W 7490   0.471   0.464   1.457
 3291W        W 7491   5.508   3.250   0.092
 3292W        W 7492   8.645   5.935  10.089
 3293W        W 7493   2.214   4.118   1.750
 3294W        W 7494   0.406   2.975  11.834
 3295W        W 7495   7.654   0.090   1.676
 3296W        W 7496   1.932   5.136   2.327
 3297W        W 7497   7.474   2.678   2.157
 3298W        W 7498   1.396   6.920   9.516
 3299W        W 7499   8.485   0.238   2.889
 3300W        W 7500   1.567   9.441   0.843
 3301W        W 7501  11.333   1.613   0.434
 3302W        W 7502   6.605   7.103   9.667
 3303W        W 7503   9.053   8.898  11.232
 3304W        W 7504   3.748   4.632   0.834
 3305W        W 7505   1.803   0.464  10.015
 3306W        W 7506   8.377   8.884   9.427
 3307W        W 7507   1.037   7.937  11.748
 3308W        W 7508   0.440   5.549  10.478
 3309W        W 7509   2.956   9.489   9.832
 3310W        W 7510  10.840   0.663   8.959
 3311W        W 7511   3.249   8.204  10.099
 3312W        W 7512   7.473   0.533   0.266
 3313W        W 7513  11.320   6.448  10.463
 3314W        W 7514   3.173   1.267   1.551
 3315W        W 7515   3.187   7.690  10.803
 3316W        W 7516   6.692   9.071   2.415
 3317W        W 7517   8.012   0.517   0.283
 3318W        W 7518   1.881   3.080   1.276
 3319W        W 7519   4.976  10.365   0.495
 3320W        W 7520  10.301   3.685   8.658
 3321W        W 7521   3.886   2.342   0.908
 3322W        W 7522   7.544   5.623   1.565
 3323W        W 7523   1.368   8.917   1.975
 3324W        W 7524   6.212  10.144   1.196
 3325W        W 7525  10.589   6.094   0.675
 3326W        W 7526   4.019   2.187   3.512
 3327W        W 7527   9.762   3.061   1.877
 3328W        W 7528   0.186   4.498   2.974
 3329W        W 7529   0.554   3.888  10.576
 3330W        W 7530   6.056  10.590   1.030
 3331W        W 7531  10.478  11.205   0.495
 3332W        W 7532  10.334  10.486   9.219
 3333W        W 7533   4.361   5.994  11.178
 3334W        W 7534   9.355   1.015   9.592
 3335W        W 7535   3.069   1.448  10.565
 3336W        W 7536   4.735   6.785   9.493
 3337W        W 7537   4.681   1.083   2.871
 3338W        W 7538  10.720   3.612   2.648
 3339W        W 7539   0.605   9.052  10.515
 3340W        W 7540   8.515   1.526   8.396
 3341W        W 7541   0.844   0.499   3.150
 3342W        W 7542   0.510   2.312   8.805
 3343W        W 7543   6.180  11.482   9.861
 3344W        W 7544   4.079   1.607   1.303
 3345W        W 7545   9.939   6.666  11.283
 3346W        W 7546   4.055   5.047   0.054
 3347W        W 7547   8.052  10.532   1.421
 3348W        W 7548   7.271   5.466   1.033
 3349W        W 7549  11.356   6.014   2.391
 3350W        W 7550   9.475   8.400   2.764
 3351W        W 7551   0.582   7.490  11.262
 3352W        W 7552   7.476   6.044   1.905
 3353W        W 7553   3.016   9.736   3.489
 3354W        W 7554   6.788   4.199   2.261
 3355W        W 7555   3.442   6.564   2.643
 3356W        W 7556   4.995   7.535   1.274
 3357W        W 7557   0.875   8.421  11.713
 3358W        W 7558   7.408   9.906  10.036
 3359W        W 7559   0.946   5.672  10.480
 3360W        W 7560   8.010   8.921   3.179
 3361W        W 7561   5.703   3.122  11.181
 3362W        W 7562  11.483   2.818   2.946
 3363W        W 7563   5.181  10.546  11.125
 3364W        W 7564   2.258   8.577   0.777
 3365W        W 7565   0.375   1.761  11.598
 3366W        W 7566   2.887   7.168  10.792
 3367W        W 7567   8.351   5.660   2.745
 3368W        W 7568   0.943   8.036   1.481
 3369W        W 7569   6.725   9.142   4.146
 3370W        W 7570   1.102  11.246   0.472
 3371W        W 7571   6.585   3.052   0.044
 3372W        W 7572   9.185   6.428   1.801
 3373W        W 7573   2.843   2.964   1.924
 3374W        W 7574   6.503   4.366   9.815
 3375W        W 7575   3.202   3.511   3.238
 3376W        W 7576   4.755   0.769  11.297
 3377W        W 7577   9.364   4.086  10.637
 3378W        W 7578   7.766   3.361   8.751
 3379W        W 7579   3.783   6.457   9.454
 3380W        W 7580  10.325   9.500  11.744
 3381W        W 7581   3.814   4.127   2.651
 3382W        W 7582   4.527   7.308   9.421
 3383W        W 7583   6.944   0.486   9.594
 3384W        W 7584   1.053   6.225   8.805
 3385W        W 7585   1.280   2.437  10.912
 3386W        W 7586   4.898   6.554  10.609
 3387W        W 7587   9.362   2.321  11.625
 3388W        W 7588  10.938   6.734   2.663
 3389W        W 7589   4.273   5.302   1.852
 3390W        W 7590   5.015   2.401   1.871
 3391W        W 7591   5.482   4.963   2.785
 3392W        W 7592   9.780   9.936  11.268
 3393W        W 7593   4.399   7.030   0.633
 3394W        W 7594   8.275   6.974   3.350
 3395W        W 7595  10.849  11.040  11.843
 3396W        W 7596  10.500   6.087   3.277
 3397W        W 7597   5.247   2.231   8.973
 3398W        W 7598   7.031   1.018   8.824
 3399W        W 7599   7.059   2.872  11.251
 3400W        W 7600   6.788   7.047  10.188
 3401W        W 7601   5.240   5.734   0.849
 3402W        W 7602  10.035   7.165  10.799
 3403W        W 7603   9.011   6.191   9.788
 3404W        W 7604   4.181   1.945   1.686
 3405W        W 7605   2.962   8.641   9.932
 3406W        W 7606   0.431   9.498   8.524
 3407W        W 7607   9.893   8.575   8.757
 3408W        W 7608   6.486   9.640   9.420
 3409W        W 7609   3.116   1.680   1.884
 3410W        W 7610   8.450   2.590   8.534
 3411W        W 7611   5.236   1.429   9.199
 3412W        W 7612   4.148   3.161   9.914
 3413W        W 7613   9.521  10.274  10.966
 3414W        W 7614   3.015   3.151  10.655
 3415W        W 7615   3.562   8.585   0.240
 3416W        W 7616   1.354   2.644   9.897
 3417W        W 7617   1.789   7.656  10.406
 3418W        W 7618   4.105   6.739  10.841
 3419W        W 7619   7.846   6.930   1.538
 3420W        W 7620   1.950   2.852   1.782
 3421W        W 7621   8.432   6.306   0.816
 3422W        W 7622   6.699  11.267   2.367
 3423W        W 7623   2.769   2.576   9.045
 3424W        W 7624   2.342   6.911   9.506
 3425W        W 7625   4.314   0.380  10.603
 3426W        W 7626   3.101  10.830   9.554
 3427W        W 7627   7.109   5.014   0.089
 3428W        W 7628  10.822   9.006   0.959
 3429W        W 7629   9.634   1.446   2.561
 3430W        W 7630   4.280   9.932   2.833
 3431W        W 7631   0.709   0.881   2.729
 3432W        W 7632   6.769  10.634   3.216
 3433W        W 7633  10.942  10.908   0.336
 3434W        W 7634  10.933   8.068   2.717
 3435W        W 7635   5.832   6.671  10.921
 3436W        W 7636   8.959   4.404  11.390
 3437W        W 7637   2.206   8.392   9.493
 3438W        W 7638   4.137   3.059   3.225
 3439W        W 7639   2.519   2.170   2.335
 3440W        W 7640   4.151   3.638  10.123
 3441W        W 7641   6.529  10.473  10.136
 3442W        W 7642   3.480   8.770   2.411
 3443W        W 7643   6.627   5.195  11.994
 3444W        W 7644   9.880   2.703   9.596
 3445W        W 7645  10.825   8.949  11.237
 3446W        W 7646   1.334   5.207   0.359
 3447W        W 7647   7.242   6.991   0.908
 3448W        W 7648   2.321   1.070   1.952
 3449W        W 7649   8.682   7.796   0.898
 3450W        W 7650   6.991   3.913  11.762
 3451W        W 7651   7.093   8.556   3.412
 3452W        W 7652   9.807   4.567   1.028
 3453W        W 7653   8.636  11.228   1.276
 3454W        W 7654   1.678   0.839   9.654
 3455W        W 7655   8.131   0.994   3.470
 3456W        W 7656   8.194  10.477  10.815
 3457W        W 7657  10.854   5.713   3.128
 3458W        W 7658   2.040   4.943   3.602
 3459W        W 7659   5.278   7.872  10.283
 3460W        W 7660   1.760   2.707   9.596
 3461W        W 7661   0.102   1.750  10.561
 3462W        W 7662   9.429   2.719   3.086
 3463W        W 7663   3.413   1.229   9.285
 3464W        W 7664   7.120   3.925   1.980
 3465W        W 7665   8.761   5.161   8.965
 3466W        W 7666   0.272   8.284   0.238
 3467W        W 7667   7.696   8.040  11.264
 3468W        W 7668   5.127   6.861   2.511
 3469W        W 7669   2.432   9.464  10.168
 3470W        W 7670   6.700   6.918  10.703
 3471W        W 7671   5.062   4.208   2.381
 3472W        W 7672   0.040   9.640  10.907
 3473W        W 7673   5.904   7.548   3.130
 3474W        W 7674  11.390   8.790   9.055
 3475W        W 7675   7.733   8.551  11.932
 3476W        W 7676   5.154   9.377   1.879
 3477W        W 7677   1.812   9.481   3.053
 3478W        W 7678   3.032   5.259   0.640
 3479W        W 7679   5.966   6.066   0.070
 3480W        W 7680  10.839   4.535   9.473
 3481W        W 7681   9.022   6.707   1.403
 3482W        W 7682   0.792  10.801   1.186
 3483W        W 7683   5.988   0.808  10.351
 3484W        W 7684  11.477   1.282  10.804
 3485W        W 7685   9.576   5.409  10.941
 3486W        W 7686   4.348   9.478   9.500
 3487W        W 7687  10.292   2.784   8.951
 3488W        W 7688   4.027   5.549   2.362
 3489W        W 7689  10.827   8.190  10.125
 3490W        W 7690   4.665   0.834   3.313
 3491W        W 7691   1.376   6.107  11.153
 3492W        W 7692   6.050   6.465  11.788
 3493W        W 7693   9.772   4.095  10.315
 3494W        W 7694   8.324   1.432   0.855
 3495W        W 7695   5.750   5.773   0.997
 3496W        W 7696   3.577   8.313   2.160
 3497W        W 7697   8.545   4.692   3.192
 3498W        W 7698   1.222   8.633   0.436
 3499W        W 7699   8.879  10.468   0.452
 3500W        W 7700   0.816   4.718   2.175
 3501W        W 7701   0.536  10.594  10.906
 3502W        W 7702  10.053   1.707   9.589
 3503W        W 7703   4.308   3.710   9.641
 3504W        W 7704   2.419   3.040   3.279
 3505W        W 7705   3.313   9.562   8.806
 3506W        W 7706   2.386   5.329  10.976
 3507W        W 7707   9.370   7.016   0.678
 3508W        W 7708   7.510   4.590   2.801
 3509W        W 7709  11.054  11.380   8.564
 3510W        W 7710   1.587   8.619   3.182
 3511W        W 7711  10.848   8.362   1.286
 3512W        W 7712   6.788   5.247   1.879
 3513W        W 7713  11.313   5.762   1.913
 3514W        W 7714   8.306  11.184  10.496
 3515W        W 7715   2.789   5.038  10.880
 3516W        W 7716   2.257   6.629  11.290
 3517W        W 7717   1.583   8.523   2.333
 3518W        W 7718   3.032  10.554   0.775
 3519W        W 7719   3.251   5.602   9.038
 3520W        W 7720   1.032  10.721  11.003
 3521W        W 7721   1.816   6.583  11.553
 3522W        W 7722   8.157   8.407   3.202
 3523W        W 7723   4.621   9.041   9.378
 3524W        W 7724  11.355   3.311   9.555
 3525W        W 7725   3.191   4.169  11.990
 3526W        W 7726   9.023   2.381   2.228
 3527W        W 7727   1.295   0.730  11.391
 3528W        W 7728   3.133   4.756   9.528
 3529W        W 7729   5.259   1.405   0.425
 3530W        W 7730   9.323   4.686   2.313
 3531W        W 7731   0.472   0.247   2.888
 3532W        W 7732   0.766   6.419  11.144
 3533W        W 7733   3.778   2.591   2.759
 3534W        W 7734   1.061  10.396   0.890
 3535W        W 7735   6.148   7.676   8.935
 3536W        W 7736   0.728   3.335  11.979
 3537W        W 7737   1.743   9.822   8.849
 3538W        W 7738   4.313   1.858   0.385
 3539W        W 7739   3.326   4.609  10.349
 3540W        W 7740  10.431  10.881   0.091
 3541W        W 7741   6.616   9.213  11.229
 3542W        W 7742   8.160   2.143  11.532
 3543W        W 7743   0.944   3.760  11.238
 3544W        W 7744   4.627   1.504  11.934
 3545W        W 7745   5.239  10.630   9.347
 3546W        W 7746   8.850  10.403   2.277
 3547W        W 7747  11.133   5.183  11.999
 3548W        W 7748   8.065  10.381   2.949
 3549W        W 7749   9.379   5.530   2.474
 3550W        W 7750   1.627   1.859  11.612
 3551W        W 7751   6.417   9.381   8.953
 3552W        W 7752   6.034  10.429  10.336
 3553W        W 7753   7.886   8.914   1.737
 3554W        W 7754  10.963   7.424   1.340
 3555W        W 7755   1.860   8.954   2.385
 3556W        W 7756   4.947   8.304  11.745
 3557W        W 7757  10.189  11.400   0.099
 3558W        W 7758   6.694  11.287   1.846
 3559W        W 7759   4.767   9.860   9.592
 3560W        W 7760   8.577  10.333  11.105
 3561W        W 7761   5.374   7.309   3.300
 3562W        W 7762   6.300   3.842   1.389
 3563W        W 7763   2.717   3.051  11.071
 3564W        W 7764  11.360   5.566   0.907
 3565W        W 7765   7.939   3.231   9.602
 3566W        W 7766   5.249  11.083   3.212
 3567W        W 7767   1.317   0.086   2.317
 3568W        W 7768   1.315   9.189   3.138
 3569W        W 7769   7.130   7.405   2.086
 3570W        W 7770   4.092   6.473  11.767
 3571W        W 7771  10.995   1.858   1.701
 3572W        W 7772   9.257   0.069   3.605
 3573W        W 7773   6.170   2.477   8.645
 3574W        W 7774   6.706   9.941   2.512
 3575W        W 7775   3.608   3.577   8.983
 3576W        W 7776   3.121  10.050   9.978
 3577W        W 7777   8.051   0.247   0.744
 3578W        W 7778   9.993  10.299   8.832
 3579W        W 7779   8.687   2.414   2.598
 3580W        W 7780   0.447   2.276   1.365
 3581W        W 7781   3.681   0.330   9.213
 3582W        W 7782  11.402  11.016   8.708
 3583W        W 7783  11.039   2.325   2.265
 3584W        W 7784   1.834   6.042  10.856
 3585W        W 7785   3.454   8.599   9.843
 3586W        W 7786   2.585   7.096   1.934
 3587W        W 7787   9.947   4.842   0.629
 3588W        W 7788   7.601   8.800   2.384
 3589W        W 7789  11.344  10.572   1.974
 3590W        W 7790   0.913   5.427   1.619
 3591W        W 7791   6.983   1.887   0.663
 3592W        W 7792   1.981   2.294  11.756
 3593W        W 7793   6.549   5.698   1.520
 3594W        W 7794   9.116   3.451  11.210
 3595W        W 7795   3.515   7.500   2.607
 3596W        W 7796   3.597   7.078  10.183
 3597W        W 7797   7.266   6.220  11.017
 3598W        W 7798   4.032   9.365   8.580
 3599W        W 7799   6.145   2.828   0.733
 3600W        W 7800   9.547   9.052  11.759
 3601W        W 7801   2.406   9.161   8.983
 3602W        W 7802   9.198   5.797   3.039
 3603W        W 7803   4.987   6.656  11.232
 3604W        W 7804   4.254   4.726  11.247
 3605W        W 7805   5.340   8.846  11.917
 3606W        W 7806   3.240   7.915   2.237
 3607W        W 7807   8.449   1.802   0.513
 3608W        W 7808  11.364   7.835   3.023
 3609W        W 7809   1.003   8.272  10.821
 3610W        W 7810   1.131   4.271  11.288
 3611W        W 7811   6.090   5.291   9.487
 3612W        W 7812   6.679  10.210   0.809
 3613W        W 7813   6.798   0.300  10.062
 3614W        W 7814   5.626   4.066   9.822
 3615W        W 7815   4.638   1.595   2.905
 3616W        W 7816   8.073   8.140   0.993
 3617W        W 7817   1.897  10.307   0.229
 3618W        W 7818   1.320   2.700   9.315
 3619W        W 7819   6.487   2.643   2.331
 3620W        W 7820   4.113   7.564   9.644
 3621W        W 7821   2.299   5.563  10.432
 3622W        W 7822   9.539   8.262  10.735
 3623W        W 7823   1.892   6.981   9.271
 3624W        W 7824   9.971   0.866   0.564
 3625W        W 7825   6.131   8.564   2.245
 3626W        W 7826  11.302   1.097   0.538
 3627W        W 7827   7.495   7.677   0.237
 3628W        W 7828  11.068   6.171   0.864
 3629W        W 7829   2.137   9.007   0.514
 3630W        W 7830   8.399   6.882   2.316
 3631W        W 7831   3.249   4.691   2.092
 3632W        W 7832  10.967   1.395   1.434
 3633W        W 7833   4.674   1.913   0.907
 3634W        W 7834   5.638   0.637   1.787
 3635W        W 7835   3.209   7.583   3.031
 3636W        W 7836   1.065   7.637  11.332
 3637W        W 7837  10.024   9.923   3.249
 3638W        W 7838   5.769   2.213   2.343
 3639W        W 7839   9.049  10.817   1.540
 3640W        W 7840   6.549   8.182   2.886
 3641W        W 7841   1.831  10.412  10.733
 3642W        W 7842   9.940   8.753   0.083
 3643W        W 7843   1.737   4.252   9.926
 3644W        W 7844   4.251   8.491   0.951
 3645W        W 7845   9.840   5.676  11.303
 3646W        W 7846   0.170   1.710   0.056
 3647W        W 7847   3.703  10.453   9.461
 3648W        W 7848   8.521  10.868   0.428
 3649W        W 7849   5.018   3.878   9.215
 3650W        W 7850   8.030   0.038   2.463
 3651W        W 7851   5.447   7.449   0.372
 3652W        W 7852  10.438   0.839  10.950
 3653W        W 7853   8.220   1.905   0.072
 3654W        W 7854   0.690   0.058  11.062
 3655W        W 7855   8.102  10.311   3.451
 3656W        W 7856   8.576   6.617   3.137
 3657W        W 7857  10.960   8.586  10.883
 3658W        W 7858   1.347   0.267   2.811
 3659W        W 7859   5.039   5.243  10.440
 3660W        W 7860   8.540   4.630  11.095
 3661W        W 7861   2.314   5.219   2.676
 3662W        W 7862   9.329   2.365   9.134
 3663W        W 7863   3.975   1.252   9.004
 3664W        W 7864   2.611   6.563   2.281
 3665W        W 7865   7.294   7.929  10.964
 3666W        W 7866   5.104   3.879   2.749
 3667W        W 7867   4.501   9.872   1.882
 3668W        W 7868   8.349  11.453   9.231
 3669W        W 7869   8.498   0.318   8.911
 3670W        W 7870   0.944   2.287   1.414
 3671W        W 7871   2.874  10.521   9.916
 3672W        W 7872   5.110   3.254   0.461
 3673W        W 7873   9.634   3.488   9.410
 3674W        W 7874  10.065   7.180   2.819
 3675W        W 7875  10.601   2.670  11.845
 3676W        W 7876   5.069   3.064   3.186
 3677W        W 7877   6.332   6.590  10.852
 3678W        W 7878   0.362  10.821   0.877
 3679W        W 7879  11.403   3.067   0.071
 3680W        W 7880   1.263   0.352   9.109
 3681W        W 7881  11.232   2.340   1.806
 3682W        W 7882   3.773   5.233   2.047
 3683W        W 7883   2.381   3.114   1.761
 3684W        W 7884   4.291   9.263  10.956
 3685W        W 7885   6.016   5.310  10.877
 3686W        W 7886   5.643   1.326   3.594
 3687W        W 7887   3.313   8.661  10.854
 3688W        W 7888   8.732   5.147   1.949
 3689W        W 7889   6.285   3.989  10.611
 3690W        W 7890   2.336  10.349   1.367
 3691W        W 7891   4.907   4.088   3.153
 3692W        W 7892   8.151  10.747   0.066
 3693W        W 7893   7.292   2.126  10.901
 3694W        W 7894   2.833  11.023   9.943
 3695W        W 7895   6.510   5.677   2.017
 3696W        W 7896   7.078   7.551  11.331
 3697W        W 7897   4.361   5.997   1.533
 3698W        W 7898   9.745   0.125   3.378
 3699W        W 7899   4.194   9.071   1.725
 3700W        W 7900   9.499   4.488   2.764
 3701W        W 7901   3.389   2.271  11.001
 3702W        W 7902   6.133   5.632   9.887
 3703W        W 7903   2.382   7.973  11.515
 3704W        W 7904   2.267   5.674  11.964
 3705W        W 7905   0.366   6.578   9.186
 3706W        W 7906   9.966   1.037  11.022
 3707W        W 7907   0.444  11.361   1.774
 3708W        W 7908  11.378   2.669  10.349
 3709W        W 7909   7.980   6.688   3.733
 3710W        W 7910   2.674   6.660  10.815
 3711W        W 7911   3.174   5.919   2.014
 3712W        W 7912   5.716   6.637   1.628
 3713W        W 7913  11.374   9.069   2.925
 3714W        W 7914   1.121   2.960  11.765
 3715W        W 7915  11.045   7.927   9.334
 3716W        W 7916   5.649   9.434   1.717
 3717W        W 7917   3.835   2.457  11.229
 3718W        W 7918   9.581   5.214   0.735
 3719W        W 7919   8.537   7.434   1.371
 3720W        W 7920   9.523   3.274  11.563
 3721W        W 7921   2.301   3.585  10.521
 3722W        W 7922   9.634   9.650   3.465
 3723W        W 7923   8.591  11.303  10.917
 3724W        W 7924   7.108   2.654  10.322
 3725W        W 7925   3.141   6.198   2.867
 3726W        W 7926   1.126   0.901   0.432
 3727W        W 7927   8.546   5.658   1.850
 3728W        W 7928  10.072   6.135   2.605
 3729W        W 7929   4.159   7.741  10.987
 3730W        W 7930  10.439  11.495   0.922
 3731W        W 7931   0.136   2.637   8.519
 3732W        W 7932   6.123   2.779  11.309
 3733W        W 7933   4.252   0.059   0.449
 3734W        W 7934   6.264   6.901   1.213
 3735W        W 7935   6.070   4.824   1.786
 3736W        W 7936   7.770   5.568   1.113
 3737W        W 7937   7.290   9.379   0.984
 3738W        W 7938   5.162   9.198   0.714
 3739W        W 7939   1.888  10.041   1.843
 3740W        W 7940   5.285   4.647  10.279
 3741W        W 7941   4.302   3.802   0.233
 3742W        W 7942   3.085   2.563   9.473
 3743W        W 7943   6.900   4.709   9.861
 3744W        W 7944   5.059   9.683   0.717
 3745W        W 7945   5.149   0.865   3.017
 3746W        W 7946   9.408   3.555   2.965
 3747W        W 7947   0.281   6.328  10.671
 3748W        W 7948   0.802  11.274   1.433
 3749W        W 7949   3.265   4.240  11.056
 3750W        W 7950   4.035   0.313  10.169
 3751W        W 7951   0.454   5.763   1.561
 3752W        W 7952  10.831   3.223   0.019
 3753W        W 7953   8.134   8.188   2.745
 3754W        W 7954   6.229   8.310  11.838
 3755W        W 7955   9.092   6.501   9.377
 3756W        W 7956   2.155   3.884   2.638
 3757W        W 7957   3.539  10.854   1.240
 3758W        W 7958   9.642   1.905   9.828
 3759W        W 7959   8.299   4.319   2.435
 3760W        W 7960   9.483  10.771   1.856
 3761W        W 7961   9.537   8.537  11.784
 3762W        W 7962   3.308   1.944   0.293
 3763W        W 7963   3.885   9.073   2.537
 3764W        W 7964   9.260   1.350   3.071
 3765W        W 7965   6.118   0.311  10.256
 3766W        W 7966   7.624   4.611  10.964
 3767W        W 7967  10.849  11.062   0.829
 3768W        W 7968   6.052   8.116   0.715
 3769W        W 7969   6.674   4.667  11.223
 3770W        W 7970   2.214   4.260  10.098
 3771W        W 7971   8.514   3.632   9.977
 3772W        W 7972   0.751   9.790   1.162
 3773W        W 7973   3.027   0.438   2.364
 3774W        W 7974   8.438   3.625  10.545
 3775W        W 7975   2.914   5.133   2.074
 3776W        W 7976   6.084   4.110   9.133
 3777W        W 7977   9.251   5.387   3.423
 3778W        W 7978   2.559   5.681   3.102
 3779W        W 7979   6.890  10.679   8.621
 3780W        W 7980   4.172   5.645  10.256
 3781W        W 7981   6.682   3.142   2.331
 3782W        W 7982   0.808  11.231   9.501
 3783W        W 7983   0.269   7.460   8.788
 3784W        W 7984   8.002   1.887   2.440
 3785W        W 7985   9.797   7.893   0.468
 3786W        W 7986   9.831   6.012   9.382
 3787W        W 7987   3.356   3.327  11.566
 3788W        W 7988   5.578   0.899   2.726
 3789W        W 7989  10.950   9.970   3.113
 3790W        W 7990   2.172   8.209   8.755
 3791W        W 7991   8.598  10.093   9.382
 3792W        W 7992   1.821   5.966   9.092
 3793W        W 7993  11.279   7.491   2.107
 3794W        W 7994  10.077   5.345   1.511
 3795W        W 7995   7.949   8.172   9.704
 3796W        W 7996   8.009   1.933   8.921
 3797W        W 7997   9.823   0.924   2.516
 3798W        W 7998   5.695   9.897   0.429
 3799W        W 7999  10.795   2.730  11.289
 3800W        W 8000   9.781   1.530  11.791
 3801W        W 8001   8.995   2.976  11.094
 3802W        W 8002   3.402   5.675   0.574
 3803W        W 8003   0.695   1.190   9.059
 3804W        W 8004   2.559   2.227  10.444
 3805W        W 8005   1.842   3.590   1.319
 3806W        W 8006   3.645   7.854   9.580
 3807W        W 8007   7.895   7.399  10.824
 3808W        W 8008   5.236   3.503  10.529
 3809W        W 8009   4.691  10.034  10.543
 3810W        W 8010   7.962   3.820   9.073
 3811W        W 8011   3.626   8.592   1.218
 3812W        W 8012   6.677   7.474   2.316
 3813W        W 8013   7.585   7.547  11.218
 3814W        W 8014   3.145  10.463  10.329
 3815W        W 8015   0.627   2.787   1.245
 3816W        W 8016   9.803   2.365  10.402
 3817W        W 8017   8.487   9.375  11.138
 3818W        W 8018   8.515  10.571   9.514
 3819W        W 8019   4.470  11.340  10.114
 3820W        W 8020  11.212   9.147  11.530
 3821W        W 8021   1.621   9.387   3.502
 3822W        W 8022   8.104   5.456   8.220
 3823W        W 8023   2.012   8.891   9.558
 3824W        W 8024   8.750   5.322   3.359
 3825W        W 8025   8.436   8.184   1.782
 3826W        W 8026  10.964   1.225   9.676
 3827W        W 8027   9.111   8.100   2.426
 3828W        W 8028   3.983   9.980   1.753
 3829W        W 8029   8.186   5.500   9.483
 3830W        W 8030  10.697   2.272   1.876
 3831W        W 8031   7.385   4.470   1.223
 3832W        W 8032   9.461   6.967  10.827
 3833W        W 8033   0.453   6.857   2.558
 3834W        W 8034  10.375   6.556   0.480
 3835W        W 8035   1.779   4.111  11.829
 3836W        W 8036   4.666   4.098  10.900
 3837W        W 8037   0.549   5.009   3.645
 3838W        W 8038   1.824  10.249   1.385
 3839W        W 8039   7.223  11.423   0.346
 3840W        W 8040   6.296   6.995  10.068
 3841W        W 8041  10.018   9.736   8.800
 3842W        W 8042   2.497  10.570   1.803
 3843W        W 8043   8.921   2.967   0.174
 3844W        W 8044   9.371   0.362   9.370
 3845W        W 8045  10.292   1.293   1.996
 3846W        W 8046   0.800   3.486  10.833
 3847W        W 8047   6.952   1.544   2.609
 3848W        W 8048   8.429  10.519  11.568
 3849W        W 8049  10.999  10.327  10.860
 3850W        W 8050   9.500   1.924  11.951
 3851W        W 8051   3.504   3.338   2.348
 3852W        W 8052  10.016   0.382   0.365
 3853W        W 8053   3.791   8.990  11.980
 3854W        W 8054   8.989  10.358   1.357
 3855W        W 8055   3.780   0.251   0.296
 3856W        W 8056   2.310   1.413  10.037
 3857W        W 8057   9.417   3.629  10.324
 3858W        W 8058   6.969   9.488   9.574
 3859W        W 8059   8.593   5.136   4.103
 3860W        W 8060  10.148   0.801   1.480
 3861W        W 8061   1.430   1.431   2.716
 3862W        W 8062   0.807   9.388   1.479
 3863W        W 8063   7.281  10.953   0.696
 3864W        W 8064   6.469   2.366   2.771
 3865W        W 8065   9.561   1.841   2.844
 3866W        W 8066   4.979   3.376   1.933
 3867W        W 8067   2.476   1.372  11.651
 3868W        W 8068   7.191   3.473   2.206
 3869W        W 8069   8.505  10.961   9.175
 3870W        W 8070  10.424  10.950  10.593
 3871W        W 8071   9.815   3.564   1.823
 3872W        W 8072  11.433   6.668   8.900
 3873W        W 8073   0.247   9.566   3.641
 3874W        W 8074   3.553   5.415   1.371
 3875W        W 8075   6.012   1.859   9.335
 3876W        W 8076   4.719   4.306   0.917
 3877W        W 8077   6.046   1.747   0.521
 3878W        W 8078   3.127   3.447   9.148
 3879W        W 8079   6.073   7.448  10.782
 3880W        W 8080   4.494   8.898  10.589
 3881W        W 8081  10.949   9.418   0.499
 3882W        W 8082   5.122   4.674   0.703
 3883W        W 8083   4.441   8.741   9.003
 3884W        W 8084   5.778   1.859   3.149
 3885W        W 8085  10.332  10.141  11.444
 3886W        W 8086   5.735   4.375   9.419
 3887W        W 8087   9.519   7.382   8.997
 3888W        W 8088   4.769   0.686  10.765
 3889W        W 8089   4.277   4.225   9.541
 3890W        W 8090   7.219   1.826   2.980
 3891W        W 8091   1.340  10.436  11.507
 3892W        W 8092   4.470   1.259   1.286
 3893W        W 8093   4.797   3.620   9.592
 3894W        W 8094   3.377   7.132   3.273
 3895W        W 8095   9.039  10.732  11.730
 3896W        W 8096  11.247   5.789  11.346
 3897W        W 8097   4.810  10.651   0.878
 3898W        W 8098  11.320   0.166   0.203
 3899W        W 8099   4.160   9.882   9.759
 3900W        W 8100   3.591   8.056   2.621
 3901W        W 8101   3.131   9.911   0.000
 3902W        W 8102   2.699   9.070   9.938
 3903W        W 8103   9.447   9.291  10.746
 3904W        W 8104   5.527   4.697   0.165
 3905W        W 8105   8.463   0.503  11.971
 3906W        W 8106  10.896  11.248  11.374
 3907W        W 8107   8.851   5.860  11.460
 3908W        W 8108   9.547   3.629  10.847
 3909W        W 8109   6.349   5.221   2.727
 3910W        W 8110   5.210  10.127   9.461
 3911W        W 8111   0.463   3.312   0.873
 3912W        W 8112  11.387   1.339   3.129
 3913W        W 8113   8.339   1.246  10.567
 3914W        W 8114   4.901  10.849  11.793
 3915W        W 8115   1.769   0.186   9.154
 3916W        W 8116   4.636   8.425  10.735
 3917W        W 8117   5.561  11.233  10.798
 3918W        W 8118   8.555   1.759   2.573
 3919W        W 8119   6.394   7.301   0.952
 3920W        W 8120   0.279   8.994   8.749
 3921W        W 8121  10.491   2.257   2.350
 3922W        W 8122   4.192   9.492   2.010
 3923W        W 8123  10.368   8.493   2.646
 3924W        W 8124  11.327   3.828   9.950
 3925W        W 8125   7.153   0.326  11.588
 3926W        W 8126   2.271   5.757   1.967
 3927W        W 8127   0.446   3.659   1.941
 3928W        W 8128   8.051   2.220   1.254
 3929W        W 8129   7.234   7.834   9.961
 3930W        W 8130   2.747   7.972   2.327
 3931W        W 8131   7.409   5.233   2.255
 3932W        W 8132   8.417   6.439   3.590
 3933W        W 8133   7.651   5.083   2.699
 3934W        W 8134   9.662  10.261   2.045
 3935W        W 8135   5.976   7.829   1.831
 3936W        W 8136  10.444  11.462  10.757
 3937W        W 8137   5.663   1.718  11.186
 3938W        W 8138   7.208   5.192   1.563
 3939W        W 8139   8.567   1.839  11.733
 3940W        W 8140   3.275   2.707   1.841
 3941W        W 8141   0.511   4.338  10.330
 3942W        W 8142   1.231  11.035   1.575
 3943W        W 8143   3.892   4.102   0.360
 3944W        W 8144   9.463   4.781   8.335
 3945W        W 8145   9.038   4.754  11.044
 3946W        W 8146   7.671   1.031   2.495
 3947W        W 8147   4.491  10.902   8.436
 3948W        W 8148   7.201   8.427   0.913
 3949W        W 8149   7.548   8.333   3.215
 3950W        W 8150   5.422   7.764   3.051
 3951W        W 8151   6.280  11.349  11.399
 3952W        W 8152   3.785   2.792   1.681
 3953W        W 8153   7.523   3.103  11.844
 3954W        W 8154   3.256   1.821   1.410
 3955W        W 8155   7.945   3.166   1.641
 3956W        W 8156   1.969   9.436  10.381
 3957W        W 8157   1.042   5.575  10.988
 3958W        W 8158   9.324   2.863   2.095
 3959W        W 8159   2.717   7.595   3.176
 3960W        W 8160   8.458   4.296   0.018
 3961W        W 8161   7.175   7.338   1.590
 3962W        W 8162   7.143   4.566   3.630
 3963W        W 8163   6.663   3.079   1.814
 3964W        W 8164   4.177   3.846   2.861
 3965W        W 8165   4.263   8.852  10.118
 3966W        W 8166   7.875   4.448  11.714
 3967W        W 8167   2.180   7.424  10.861
 3968W        W 8168   9.529   4.607  11.936
 3969W        W 8169   2.118   6.160   2.890
 3970W        W 8170   1.349   8.657  10.616
 3971W        W 8171   8.316   5.084   9.177
 3972W        W 8172   4.823  10.420   1.339
 3973W        W 8173   6.065   3.207   9.880
 3974W        W 8174   9.052   5.586   1.621
 3975W        W 8175   8.474   7.133   1.867
 3976W        W 8176   9.048   4.705   0.350
 3977W        W 8177   5.859   2.619  10.481
 3978W        W 8178   2.071   5.648   2.955
 3979W        W 8179   1.793   8.798  11.792
 3980W        W 8180  11.436   9.021   0.452
 3981W        W 8181   0.701   7.718   2.976
 3982W        W 8182   5.124   9.960   9.952
 3983W        W 8183   8.631   9.299  10.126
 3984W        W 8184   4.803   0.755   9.015
 3985W        W 8185   7.701   2.198   9.240
 3986W        W 8186   4.842   0.823   0.619
 3987W        W 8187   7.654  11.193  11.068
 3988W        W 8188   2.364   3.821   2.182
 3989W        W 8189   8.107   7.213   1.183
 3990W        W 8190   6.744   4.988   0.557
 3991W        W 8191   6.660  10.906   2.773
 3992W        W 8192   1.321   3.782   2.477
 3993W        W 8193   0.714   5.719   0.663
 3994W        W 8194   4.717   1.739   8.928
 3995W        W 8195   8.970   9.553   2.708
 3996W        W 8196   2.033   0.492  10.529
 3997W        W 8197   6.582   1.255   9.082
 3998W        W 8198   6.141   6.937  11.982
 3999W        W 8199   8.923   7.746   0.434
 4000W        W 8200   5.276   8.038   0.043
 4001W        W 8201   2.190   0.906   1.209
 4002W        W 8202   9.481   4.604   3.282
 4003W        W 8203  10.413   0.549   9.712
 4004W        W 8204   7.406   9.270   2.357
 4005W        W 8205  11.268   1.769   1.245
 4006W        W 8206   7.646   8.466  10.995
 4007W        W 8207   1.933  10.809   2.312
 4008W        W 8208   4.273   9.608   3.238
 4009W        W 8209   4.237   2.845   2.767
 4010W        W 8210   9.626   5.983   2.359
 4011W        W 8211   7.965   3.759   9.937
 4012W        W 8212   3.313   5.432   1.935
 4013W        W 8213   4.647   4.367   2.138
 4014W        W 8214   5.923   4.051   3.066
 4015W        W 8215   7.191  10.954   2.785
 4016W        W 8216   9.316   4.618   1.354
 4017W        W 8217   2.646   7.606  10.712
 4018W        W 8218  10.717   2.182  10.638
 4019W        W 8219   1.313   2.280   0.456
 4020W        W 8220   6.099   6.436   0.968
 4021W        W 8221   3.356   1.385   3.329
 4022W        W 8222   6.607   6.976   3.995
 4023W        W 8223   5.703   8.221  10.343
 4024W        W 8224   1.336   5.167   3.330
 4025W        W 8225   2.883   9.268   8.750
 4026W        W 8226   8.227   5.671   3.308
 4027W        W 8227   0.381   2.893   3.343
 4028W        W 8228   2.929   0.798   1.696
 4029W        W 8229   5.662  10.811   8.582
 4030W        W 8230   5.935   1.297  11.298
 4031W        W 8231   6.431   6.143   1.775
 4032W        W 8232   1.266   0.803   8.854
 4033W        W 8233   9.525   4.156   0.856
 4034W        W 8234   3.873   6.887   2.416
 4035W        W 8235   4.310   8.522   9.459
 4036W        W 8236   4.609   8.041   0.495
 4037W        W 8237   3.006   5.110   0.046
 4038W        W 8238   9.376   1.363   9.088
 4039W        W 8239   6.891  10.588   0.502
 4040W        W 8240   5.680   1.159   1.687
 4041W        W 8241  11.321   6.641   1.789
 4042W        W 8242   4.071  10.584   3.520
 4043W        W 8243   3.735   0.281  11.793
 4044W        W 8244   4.035   8.510   0.018
 4045W        W 8245   2.488   0.557   9.651
 4046W        W 8246   2.738  11.384   9.025
 4047W        W 8247   1.786   3.615  11.204
 4048W        W 8248   3.661   6.417   8.590
 4049W        W 8249   1.208   1.871   1.544
 4050W        W 8250  11.298   7.488  10.050
 4051W        W 8251   6.748   7.853   8.274
 4052W        W 8252   0.416  11.262  10.736
 4053W        W 8253   8.776   7.587  11.962
 4054W        W 8254   5.529   3.028  10.686
 4055W        W 8255   6.646   1.876  10.858
 4056W        W 8256  11.273   5.139   9.250
 4057W        W 8257   8.094   9.324  11.947
 4058W        W 8258   7.455   0.528   9.495
 4059W        W 8259   3.244   4.630   0.931
 4060W        W 8260   7.680   9.995   9.527
 4061W        W 8261   4.023   8.432   9.054
 4062W        W 8262   1.769  11.172   0.493
 4063W        W 8263   9.476  11.038   8.725
 4064W        W 8264   0.549   6.188   1.883
 4065W        W 8265   5.021   3.821   1.691
 4066W        W 8266   5.536   5.199  11.859
 4067W        W 8267   2.143   8.408  11.745
 4068W        W 8268   2.367   3.408   8.643
 4069W        W 8269  10.780   5.524  10.459
 4070W        W 8270   3.995   0.925   9.515
 4071W        W 8271   7.618   3.756   1.659
 4072W        W 8272   4.740   9.121  10.204
 4073W        W 8273  10.809   3.901   0.067
 4074W        W 8274   7.950  11.187  11.885
 4075W        W 8275   5.645   0.209  10.499
 4076W        W 8276   3.065   5.125   9.182
 4077W        W 8277   6.762  10.632   0.010
 4078W        W 8278   2.226   9.869  11.846
 4079W        W 8279   4.002   3.159   2.382
 4080W        W 8280   3.226   6.354   4.007
 4081W        W 8281   7.511   0.083   2.604
 4082W        W 8282   3.093  10.010  10.530
 4083W        W 8283   2.987  10.613   1.927
 4084W        W 8284   6.800   1.996   8.391
 4085W        W 8285   8.464   7.496  11.506
 4086W        W 8286   9.549   4.591   8.801
 4087W        W 8287   6.314   8.045  11.395
 4088W        W 8288   1.038   6.277   1.927
 4089W        W 8289  11.006   1.809  11.419
 4090W        W 8290   2.648   7.487   9.400
 4091W        W 8291   8.321   7.768  11.958
 4092W        W 8292   9.531   4.901   0.340
 4093W        W 8293   0.042   2.886  10.794
 4094W        W 8294   6.718  10.302  10.570
 4095W        W 8295   3.779   3.871   8.596
 4096W        W 8296   5.771   8.847   9.434
 4097W        W 8297   3.516   5.361   3.241
 4098W        W 8298   6.631   6.817  11.201
 4099W        W 8299   0.559   9.478   0.779
 4100W        W 8300   3.655   1.731   3.087
 4101W        W 8301   0.554   3.835   0.002
 4102W        W 8302   9.769   1.939  10.864
 4103W        W 8303   5.685   2.171   0.084
 4104W        W 8304   6.487   6.671   2.851
 4105W        W 8305   2.321   4.812  11.870
 4106W        W 8306   0.781   8.520   1.765
 4107W        W 8307  11.085  10.580  11.808
 4108W        W 8308   5.006   4.729   9.847
 4109W        W 8309   3.018   0.789   8.567
 4110W        W 8310   4.481   4.840   9.826
 4111W        W 8311   0.505   7.461   3.748
 4112W        W 8312  10.890   9.516   0.984
 4113W        W 8313   9.825   9.503  11.009
 4114W        W 8314   3.942   0.019   3.214
 4115W        W 8315   9.624   5.948  10.483
 4116W        W 8316   1.953   0.816   1.698
 4117W        W 8317  11.235   2.759   2.430
 4118W        W 8318   3.185   6.668   3.113
 4119W        W 8319   9.939   7.670  10.122
 4120W        W 8320   6.827  11.192   8.577
 4121W        W 8321   2.190   1.377   0.991
 4122W        W 8322   5.278   0.974   1.396
 4123W        W 8323   0.373  10.580   1.412
 4124W        W 8324   8.471   6.186   8.674
 4125W        W 8325  10.837  10.330   8.933
 4126W        W 8326   1.742   8.502   9.272
 4127W        W 8327  10.854   7.873   0.462
 4128W        W 8328   0.059   6.220   1.960
 4129W        W 8329  11.439   7.620   9.578
 4130W        W 8330  10.011   8.491  11.229
 4131W        W 8331  11.352   4.102  11.243
 4132W        W 8332  11.476  10.069   2.828
 4133W        W 8333   6.043   3.765  10.985
 4134W        W 8334   9.811   4.101  10.899
 4135W        W 8335  10.990   6.825  10.618
 4136W        W 8336   2.435  10.508   9.146
 4137W        W 8337   4.331   4.311   0.148
 4138W        W 8338   2.780   0.747  10.995
 4139W        W 8339   6.562   1.242   2.866
 4140W        W 8340   9.404   4.045   8.559
 4141W        W 8341   6.735   2.709   3.143
 4142W        W 8342   6.586  11.048   9.829
 4143W        W 8343   8.806  11.033   0.821
 4144W        W 8344   0.158   2.651  11.531
 4145W        W 8345   6.809   0.826   0.260
 4146W        W 8346   0.318   4.360  11.270
 4147W        W 8347   1.070   4.948   1.803
 4148W        W 8348   6.708  10.355  11.592
 4149W        W 8349   4.022   4.607   0.402
 4150W        W 8350   0.962   3.340   8.873
 4151W        W 8351   0.852  10.829   0.676
 4152W        W 8352   8.219   6.663   1.850
 4153W        W 8353   1.770   9.869   1.042
 4154W        W 8354   7.722   9.602   0.790
 4155W        W 8355  10.090   1.756   0.632
 4156W        W 8356   7.596   4.002   1.158
 4157W        W 8357   9.523   6.213   0.032
 4158W        W 8358   2.824  10.839   9.112
 4159W        W 8359   1.651   4.324  11.312
 4160W        W 8360   7.033   3.218   3.292
 4161W        W 8361   3.655   6.109   2.868
 4162W        W 8362   9.425  11.231   3.248
 4163W        W 8363  10.708   7.102   9.486
 4164W        W 8364   8.150  10.977  10.918
 4165W        W 8365   5.626   7.711   3.539
 4166W        W 8366   2.996   6.499   3.566
 4167W        W 8367  10.513   6.152   0.170
 4168W        W 8368   2.677   3.447   2.010
 4169W        W 8369   6.581   1.859  11.392
 4170W        W 8370  11.267   8.941  10.610
 4171W        W 8371   8.770   6.981   9.051
 4172W        W 8372  10.672  10.334   2.170
 4173W        W 8373  10.036   9.031   3.219
 4174W        W 8374   2.787   6.132  10.845
 4175W        W 8375   9.834   1.068  11.594
 4176W        W 8376   9.645  10.561   8.554
 4177W        W 8377   9.148  10.368   0.876
 4178W        W 8378  10.429   2.174   1.436
 4179W        W 8379   3.503   1.508  11.230
 4180W        W 8380   5.631   1.366   2.490
 4181W        W 8381   3.936   0.727   2.514
 4182W        W 8382  10.811   4.209   8.597
 4183W        W 8383   7.647  10.703  11.906
 4184W        W 8384   7.720   9.032   0.095
 4185W        W 8385  10.769  10.011   8.549
 4186W        W 8386   6.059   4.292  10.962
 4187W        W 8387   8.986   2.784   3.359
 4188W        W 8388   9.889   8.567   2.446
 4189W        W 8389   3.139   3.722  10.867
 4190W        W 8390   2.384   4.659   8.312
 4191W        W 8391   1.905   7.054  11.142
 4192W        W 8392   2.056   1.273   2.330
 4193W        W 8393   2.767   0.466  11.408
 4194W        W 8394   9.929  11.072   1.826
 4195W        W 8395   1.809  10.252  10.216
 4196W        W 8396   9.611   8.578   1.459
 4197W        W 8397  10.697  10.307   9.999
 4198W        W 8398   9.503   6.979   3.283
 4199W        W 8399   5.547   5.264  10.457
 4200W        W 8400   5.715   7.684   8.389
 4201W        W 8401  11.414   6.760  11.424
 4202W        W 8402   9.727   8.302   0.190
 4203W        W 8403   3.766  11.490  11.359
 4204W        W 8404  10.309   8.180  10.592
 4205W        W 8405  10.815   0.940   0.769
 4206W        W 8406   0.804   7.435  10.463
 4207W        W 8407   8.163   6.548   8.447
 4208W        W 8408  10.874   5.182   0.847
 4209W        W 8409   7.607   2.568  10.974
 4210W        W 8410   4.645   7.507  10.823
 4211W        W 8411  10.364   6.438  10.502
 4212W        W 8412   6.069   0.390  10.763
 4213W        W 8413   3.917  11.256   2.679
 4214W        W 8414   2.826   4.542   2.496
 4215W        W 8415   5.041  11.222   8.856
 4216W        W 8416   1.690  11.239   1.431
 4217W        W 8417   2.906   6.027   2.443
 4218W        W 8418   9.888   1.632   2.038
 4219W        W 8419   4.720   1.259   9.118
 4220W        W 8420   4.226   2.765   0.953
 4221W        W 8421   6.629   0.277   2.493
 4222W        W 8422   7.476   0.711   8.715
 4223W        W 8423   7.914   8.244   3.608
 4224W        W 8424   9.468   0.048   2.397
 4225W        W 8425   6.738   5.665   1.009
 4226W        W 8426   9.624   3.431   0.388
 4227W        W 8427  10.843   2.654   2.757
 4228W        W 8428   2.778   9.791   2.123
 4229W        W 8429   8.015   9.401  11.407
 4230W        W 8430   8.344   9.873   3.215
 4231W        W 8431   9.999   3.095   9.267
 4232W        W 8432   4.916   0.006   2.015
 4233W        W 8433   0.007   8.070   0.857
 4234W        W 8434   8.824   6.903   0.965
 4235W        W 8435   3.694   4.476   3.541
 4236W        W 8436  10.293   2.240   9.025
 4237W        W 8437   2.847   7.788  11.175
 4238W        W 8438   3.705   8.444  10.286
 4239W        W 8439   9.119   4.165   1.215
 4240W        W 8440   1.712   5.712   1.636
 4241W        W 8441   8.260   8.387   9.340
 4242W        W 8442  10.900   1.839   0.293
 4243W        W 8443   9.502   7.882   9.885
 4244W        W 8444   7.809   6.088   1.511
 4245W        W 8445   9.719   7.199   1.448
 4246W        W 8446   1.220   4.948   0.945
 4247W        W 8447  10.815   4.979   9.051
 4248W        W 8448   5.062   7.045   2.035
 4249W        W 8449   4.042  10.915   1.378
 4250W        W 8450   4.317   9.638  10.564
 4251W        W 8451  11.149   4.235  10.805
 4252W        W 8452   9.136   0.832   0.344
 4253W        W 8453   0.960   3.122  10.468
 4254W        W 8454   6.832   6.207  11.375
 4255W        W 8455   4.298   1.113   2.541
 4256W        W 8456   8.077   1.166  11.643
 4257W        W 8457   8.358   6.099  11.462
 4258W        W 8458   0.936  10.433   0.365
 4259W        W 8459   0.363   4.682   8.485
 4260W        W 8460   3.933   8.853   8.756
 4261W        W 8461   5.367   9.899   1.690
 4262W        W 8462   0.819   8.163   0.952
 4263W        W 8463   3.454   1.311   2.020
 4264W        W 8464   9.114   1.369   0.462
 4265W        W 8465   8.430   4.308   1.949
 4266W        W 8466  10.278   9.572   9.235
 4267W        W 8467   0.988   8.487   9.793
 4268W        W 8468   7.245   2.317   2.869
 4269W        W 8469   9.455   4.407   0.419
 4270W        W 8470  10.418   6.675  11.479
 4271W        W 8471   2.926   8.981   3.291
 4272W        W 8472   6.067   4.789   2.658
 4273W        W 8473   5.342   3.114   9.373
 4274W        W 8474   0.793   0.137   9.130
 4275W        W 8475   7.228   1.929  10.402
 4276W        W 8476   1.436   7.123   9.051
 4277W        W 8477   4.205   7.431  11.414
 4278W        W 8478  10.962   5.699   2.289
 4279W        W 8479   9.175   9.791   0.090
 4280W        W 8480   7.999   4.067   0.073
 4281W        W 8481  11.049   8.049   1.658
 4282W        W 8482  10.985   5.203   3.012
 4283W        W 8483   1.355   6.612  11.868
 4284W        W 8484   7.942   4.333   9.065
 4285W        W 8485   0.245   8.519   2.459
 4286W        W 8486   0.303   1.836  11.096
 4287W        W 8487   8.867   0.962   0.771
 4288W        W 8488   6.306   2.156   2.282
 4289W        W 8489  10.183   0.983   2.879
 4290W        W 8490   0.036   3.810   9.496
 4291W        W 8491   7.926   7.786   3.829
 4292W        W 8492   9.535   9.105   2.225
 4293W        W 8493  11.251   6.995   2.188
 4294W        W 8494   7.110  10.341   1.933
 4295W        W 8495   7.106  10.130   0.547
 4296W        W 8496   0.934   7.988   1.985
 4297W        W 8497   4.255   8.455   8.601
 4298W        W 8498  10.057   9.025   2.691
 4299W        W 8499   2.422   8.989   3.313
 4300W        W 8500   0.467   0.274   3.608
 4301W        W 8501   8.251   3.231   3.560
 4302W        W 8502   4.077   7.173   1.021
 4303W        W 8503   4.740   6.085   3.582
 4304W        W 8504  10.808   8.517   2.954
 4305W        W 8505   8.168   9.509  10.011
 4306W        W 8506   3.131   6.530   2.185
 4307W        W 8507   0.287   6.499   0.025
 4308W        W 8508   1.675   1.408   0.937
 4309W        W 8509   2.768   8.458   0.988
 4310W        W 8510   7.677   5.133  10.245
 4311W        W 8511   8.155   7.704   2.632
 4312W        W 8512   4.636   0.294  11.482
 4313W        W 8513   6.540   6.230  11.932
 4314W        W 8514   7.049   1.185  10.540
 4315W        W 8515  10.936   1.122   2.699
 4316W        W 8516   0.626   4.666   9.439
 4317W        W 8517   9.474  10.934  11.544
 4318W        W 8518   9.380   9.859   1.850
 4319W        W 8519   9.042   3.646   9.879
 4320W        W 8520   9.961   4.722   2.802
 4321W        W 8521   3.833   5.956   9.515
 4322W        W 8522   8.964   8.991   8.913
 4323W        W 8523   6.805   2.187   3.087
 4324W        W 8524   7.708   6.194   0.471
 4325W        W 8525   4.560   3.436  11.928
 4326W        W 8526   6.468   3.182   3.198
 4327W        W 8527   4.508   2.015   3.544
 4328W        W 8528   7.525   1.896   1.412
 4329W        W 8529   9.823   3.558   2.664
 4330W        W 8530  11.149   9.438   1.952
 4331W        W 8531   9.149   8.557   9.885
 4332W        W 8532   4.508  10.277   0.205
 4333W        W 8533   2.777   4.256   7.753
 4334W        W 8534   2.718  10.625  11.665
 4335W        W 8535  10.465   5.935  10.709
 4336W        W 8536   6.054   3.708   3.609
 4337W        W 8537   6.222   3.658   9.409
 4338W        W 8538   1.188   7.049  10.513
 4339W        W 8539   6.166   0.917  11.560
 4340W        W 8540   7.191  10.513  11.733
 4341W        W 8541   4.685   2.481   1.106
 4342W        W 8542   3.161  11.285  11.110
 4343W        W 8543  10.211   4.202   8.540
 4344W        W 8544   8.423  10.026  11.797
 4345W        W 8545   9.182   3.138  10.235
 4346W        W 8546   6.462   9.827   3.377
 4347W        W 8547   6.212  10.321   3.441
 4348W        W 8548   1.258   5.336   2.857
 4349W        W 8549   9.349   4.734  11.472
 4350W        W 8550   1.752   2.559   0.471
 4351W        W 8551   8.915   4.277  10.879
 4352W        W 8552   2.764   0.357   1.906
 4353W        W 8553   0.657   8.690   2.234
 4354W        W 8554   4.465   0.834   0.270
 4355W        W 8555  10.371   7.940  10.157
 4356W        W 8556   6.979  11.297  10.018
 4357W        W 8557   6.692   0.171  11.470
 4358W        W 8558  10.017   8.388  11.732
 4359W        W 8559   4.060   8.845   0.402
 4360W        W 8560  10.909   6.551   1.181
 4361W        W 8561   8.804   0.573   8.513
 4362W        W 8562   5.041   3.236   9.776
 4363W        W 8563   1.151  10.530   9.115
 4364W        W 8564   3.876  10.337   0.897
 4365W        W 8565   2.988   3.163  11.889
 4366W        W 8566   5.937   6.628   8.961
 4367W        W 8567   8.753   6.850   8.176
 4368W        W 8568   9.838   1.327   9.301
 4369W        W 8569  11.299  10.301   3.322
 4370W        W 8570   2.401   1.995  11.952
 4371W        W 8571   6.171  10.089   9.362
 4372W        W 8572  10.265   2.637   1.288
 4373W        W 8573   5.201   2.581   3.111
 4374W        W 8574   7.597   3.404  11.434
 4375W        W 8575   4.069   7.048  10.416
 4376W        W 8576   4.526   6.645  11.949
 4377W        W 8577   3.797   2.223   2.417
 4378W        W 8578   3.217   0.994   3.022
 4379W        W 8579   6.153   9.023  11.547
 4380W        W 8580   0.750   1.010   3.224
 4381W        W 8581   8.304   6.047   9.128
 4382W        W 8582   2.756  10.565   2.707
 4383W        W 8583   8.112   3.324   9.131
 4384W        W 8584  11.279   9.580   2.931
 4385W        W 8585  11.368   8.466   1.141
 4386W        W 8586   4.438   0.048   1.851
 4387W        W 8587   8.087   7.412   3.052
 4388W        W 8588  11.433   3.236   2.639
 4389W        W 8589   4.806   2.586  10.973
 4390W        W 8590  10.356   7.652   3.234
 4391W        W 8591   9.423   2.695  10.385
 4392W        W 8592  10.964   7.116   1.775
 4393W        W 8593   9.331   8.814   1.823
 4394W        W 8594   0.895   4.147   3.174
 4395W        W 8595   6.062   2.266  11.134
 4396W        W 8596   7.840  10.821   1.046
 4397W        W 8597   7.221  11.353  11.398
 4398W        W 8598   3.131   4.098  10.117
 4399W        W 8599   7.533   7.081  10.989
 4400W        W 8600   9.866   0.025   1.622
 4401W        W 8601  11.411   5.034  11.597
 4402W        W 8602   9.557   6.174   3.868
 4403W        W 8603   3.702   6.779  11.914
 4404W        W 8604  10.899  10.788   2.164
 4405W        W 8605   9.948   6.699   9.828
 4406W        W 8606   4.671   9.421   1.697
 4407W        W 8607   0.583   6.021  10.331
 4408W        W 8608   4.578   2.528   0.263
 4409W        W 8609   4.933   0.389   3.267
 4410W        W 8610   7.737   4.556   9.506
 4411W        W 8611   3.131   1.297   1.036
 4412W        W 8612   8.446   2.235   8.945
 4413W        W 8613   0.808   2.858   0.154
 4414W        W 8614   4.320   9.069   2.825
 4415W        W 8615   7.997   2.839   3.316
 4416W        W 8616   0.335   3.131   1.957
 4417W        W 8617   3.473   6.689   3.557
 4418W        W 8618   0.141   2.565   9.524
 4419W        W 8619   8.883   2.511   8.889
 4420W        W 8620   9.226   8.334   1.826
 4421W        W 8621   9.848   9.945  10.720
 4422W        W 8622  10.335   8.988  10.448
 4423W        W 8623   6.425   7.989   3.730
 4424W        W 8624   5.598   3.354   0.616
 4425W        W 8625   9.939   4.366   3.176
 4426W        W 8626  11.018   3.597   2.239
 4427W        W 8627  10.898   2.002   9.682
 4428W        W 8628   3.469   7.684   1.294
 4429W        W 8629   3.258   1.964  11.744
 4430W        W 8630   9.000   6.123  11.877
 4431W        W 8631   0.685   1.220   2.036
 4432W        W 8632   3.787   9.512   1.710
 4433W        W 8633   5.757   1.353   2.984
 4434W        W 8634  10.722   2.719   2.235
 4435W        W 8635   8.726   9.113   2.890
 4436W        W 8636   1.170   1.535   8.468
 4437W        W 8637  10.316  10.995   9.069
 4438W        W 8638   6.662   0.003   3.455
 4439W        W 8639   1.438   4.837   9.166
 4440W        W 8640   4.562  11.439   8.591
 4441W        W 8641   9.803   3.619   0.848
 4442W        W 8642   2.779   2.482   1.785
 4443W        W 8643   6.820   6.281   9.260
 4444W        W 8644   2.356   8.431  11.258
 4445W        W 8645   3.196   0.042   0.875
 4446W        W 8646   3.059   3.738  11.740
 4447W        W 8647   7.613   0.358   2.185
 4448W        W 8648   0.227   2.856   2.423
 4449W        W 8649   5.158   8.185   2.435
 4450W        W 8650  11.336   0.508   9.060
 4451W        W 8651   1.326   1.821   2.182
 4452W        W 8652   1.210   3.202   9.309
 4453W        W 8653   9.980   4.343   0.402
 4454W        W 8654   9.448   1.569   1.770
 4455W        W 8655   2.620   8.344   0.504
 4456W        W 8656   9.803  10.574   9.950
 4457W        W 8657   1.295   3.306   0.718
 4458W        W 8658   1.622   1.444   3.478
 4459W        W 8659   1.972   9.870   9.317
 4460W        W 8660   2.363   5.829  10.897
 4461W        W 8661   1.061   5.006   9.560
 4462W        W 8662   7.578   3.170   9.203
 4463W        W 8663   0.077   5.949  10.367
 4464W        W 8664   9.241   4.591  10.595
 4465W        W 8665   3.088   0.607   3.314
 4466W        W 8666   9.254   1.182  10.992
 4467W        W 8667  10.405   6.771   2.384
 4468W        W 8668   8.998   1.194   1.278
 4469W        W 8669   4.758   1.713  11.189
 4470W        W 8670   9.412   6.357  10.094
 4471W        W 8671   1.886   3.744   3.320
 4472W        W 8672   9.495   4.992   9.562
 4473W        W 8673  10.914   4.390  11.308
 4474W        W 8674   6.104   9.228   1.505
 4475W        W 8675   4.439   7.813   9.331
 4476W        W 8676   7.006   8.857   9.017
 4477W        W 8677   8.195   0.843  10.280
 4478W        W 8678   8.630   6.670   8.650
 4479W        W 8679   2.874   9.301   2.038
 4480W        W 8680   6.023   6.815   2.646
 4481W        W 8681   3.410   6.224   9.700
 4482W        W 8682   6.763   9.353   0.112
 4483W        W 8683   7.055   3.232  11.613
 4484W        W 8684   1.514   6.099  11.731
 4485W        W 8685   1.140   8.455   3.383
 4486W        W 8686   8.916   6.616   0.014
 4487W        W 8687   3.174   6.119   8.788
 4488W        W 8688   8.037   2.831  10.812
 4489W        W 8689  11.355  10.797   9.176
 4490W        W 8690   1.291   2.234   9.530
 4491W        W 8691   2.578   6.799   3.636
 4492W        W 8692   2.275   3.358   9.142
 4493W        W 8693   0.941   1.635   1.894
 4494W        W 8694   4.059   5.090  11.538
 4495W        W 8695   3.769   0.796   9.995
 4496W        W 8696  10.952   3.960   9.640
 4497W        W 8697   5.696   0.148   9.976
 4498W        W 8698   8.648   1.781   9.859
 4499W        W 8699   7.466   1.856   1.944
 4500W        W 8700  10.843   4.295   3.350
 4501W        W 8701   0.958   2.831   8.961
 4502W        W 8702   4.769   8.044   1.494
 4503W        W 8703   9.083   1.240   2.156
 4504W        W 8704   9.959   5.080  10.804
 4505W        W 8705   5.894   4.108   1.301
 4506W        W 8706   2.153   8.487   0.284
 4507W        W 8707   8.851   3.078   9.801
 4508W        W 8708  10.857   1.855   2.210
 4509W        W 8709   4.261   4.672  10.261
 4510W        W 8710   5.529   5.466  10.938
 4511W        W 8711   1.747   4.247   3.265
 4512W        W 8712   0.450   2.670  11.039
 4513W        W 8713   4.367   0.893   0.850
 4514W        W 8714   4.487  10.571  11.815
 4515W        W 8715  10.527   0.048  11.256
 4516W        W 8716   4.871   6.181   1.525
 4517W        W 8717   8.893   0.682   1.214
 4518W        W 8718  10.795   0.822  11.344
 4519W        W 8719   8.109   2.456   2.377
 4520W        W 8720   7.664  10.861   3.030
 4521W        W 8721   5.650   7.633  10.975
 4522W        W 8722   8.395   2.839   2.624
 4523W        W 8723   4.266   0.764   2.928
 4524W        W 8724   8.533   9.322   9.640
 4525W        W 8725   3.104   1.917  10.348
 4526W        W 8726   8.881   2.923   9.227
 4527W        W 8727   3.382   6.074   0.274
 4528W        W 8728   1.947   9.347   8.728
 4529W        W 8729   3.557   9.035  11.532
 4530W        W 8730   6.101   4.534   8.373
 4531W        W 8731   9.409   5.746   1.969
 4532W        W 8732   4.726  11.324   0.443
 4533W        W 8733   6.304   1.655  10.529
 4534W        W 8734   3.588   1.028  11.360
 4535W        W 8735   0.000   3.156  11.576
 4536W        W 8736   3.908   4.388   8.581
 4537W        W 8737   6.510   2.347   9.842
 4538W        W 8738   5.203   9.143   2.779
 4539W        W 8739   1.879   0.934  11.171
 4540W        W 8740   3.916   0.477   3.460
 4541W        W 8741   6.978   3.642   9.914
 4542W        W 8742   2.143   2.048   1.971
 4543W        W 8743   3.486   4.576   9.859
 4544W        W 8744   6.532   7.301  11.045
 4545W        W 8745   7.158   6.419   9.631
 4546W        W 8746   2.192   3.309  10.971
 4547W        W 8747   7.305   4.983   8.419
 4548W        W 8748   8.564   4.120  11.254
 4549W        W 8749  10.715   9.548  10.596
 4550W        W 8750   4.142   7.079  11.818
 4551W        W 8751   6.870   2.249  10.580
 4552W        W 8752  10.517   1.763  11.355
 4553W        W 8753   3.911   9.350   0.314
 4554W        W 8754   6.512   7.460  10.046
 4555W        W 8755   7.139   0.347   0.629
 4556W        W 8756   4.589   4.154   9.113
 4557W        W 8757   6.945   3.515   1.747
 4558W        W 8758   9.677   4.009   9.351
 4559W        W 8759   8.952  11.166   3.533
 4560W        W 8760   3.573   3.809   3.018
 4561W        W 8761   7.821   3.528   0.697
 4562W        W 8762   4.197   9.930   2.297
 4563W        W 8763   7.243   0.454  10.556
 4564W        W 8764   9.446   6.847   1.680
 4565W        W 8765   2.898   6.527   9.042
 4566W        W 8766   0.055   0.671   0.638
 4567W        W 8767   2.680  10.297   2.221
 4568W        W 8768   3.147   8.514   3.286
 4569W        W 8769   8.597   8.645   9.045
 4570W        W 8770  11.356   7.527  11.095
 4571W        W 8771   4.184   3.360  10.942
 4572W        W 8772   7.137   2.269   1.327
 4573W        W 8773   5.270   3.127   4.001
 4574W        W 8774   6.562   8.801   3.344
 4575W        W 8775   8.859   1.984   0.774
 4576W        W 8776  10.084   7.943  11.961
 4577W        W 8777  11.324   6.829   3.160
 4578W        W 8778   3.312   9.492   9.324
 4579W        W 8779   0.065   7.021   9.266
 4580W        W 8780   4.671  11.241  11.083
 4581W        W 8781  10.001   9.908   2.183
 4582W        W 8782  10.887   3.124  10.416
 4583W        W 8783  10.304  10.329   2.674
 4584W        W 8784   2.409   9.488   1.190
 4585W        W 8785   2.334   7.380   3.564
 4586W        W 8786  10.810   6.729   3.151
 4587W        W 8787  11.214   7.550   3.389
 4588W        W 8788   6.570   4.249  10.297
 4589W        W 8789   9.526   9.470   1.023
 4590W        W 8790   2.135   7.394   9.484
 4591W        W 8791   9.014   1.741   8.404
 4592W        W 8792   0.350   3.141   0.338
 4593W        W 8793   9.078  10.017   2.521
 4594W        W 8794   0.478   3.428   3.609
 4595W        W 8795   8.878   2.949   8.617
 4596W        W 8796  11.363   7.470  10.562
 4597W        W 8797  10.312   2.860   0.823
 4598W        W 8798   5.062   4.796  11.217
 4599W        W 8799   2.838   5.535   9.703
 4600W        W 8800   1.486   2.757   1.996
 4601W        W 8801   6.409   3.532   1.792
 4602W        W 8802   5.194   1.675   8.733
 4603W        W 8803   3.405   3.830   2.531
 4604W        W 8804   9.630  10.449   0.776
 4605W        W 8805   5.636   6.257  10.702
 4606W        W 8806   8.707   8.461  10.159
 4607W        W 8807   1.753   2.237   9.278
 4608W        W 8808  10.509   3.783   9.818
 4609W        W 8809   3.797   4.704   8.994
 4610W        W 8810   5.375   7.405   9.317
 4611W        W 8811   5.523   2.432   1.941
 4612W        W 8812   5.572   0.703  11.214
 4613W        W 8813   6.689   8.512  11.977
 4614W        W 8814   1.850   6.668   0.834
 4615W        W 8815   2.854   9.290  10.385
 4616W        W 8816  10.457   1.154   0.244
 4617W        W 8817   6.997   7.804   9.470
 4618W        W 8818   1.387  10.376  10.993
 4619W        W 8819   3.442   0.893   2.570
 4620W        W 8820  10.797   5.454   0.277
 4621W        W 8821   8.165   3.151   0.675
 4622W        W 8822   3.119   1.414  11.550
 4623W        W 8823   8.313   3.153   9.927
 4624W        W 8824   1.841  10.567  11.732
 4625W        W 8825  10.862   7.526   0.825
 4626W        W 8826   0.035  10.483  10.864
 4627W        W 8827  11.007   2.229  11.089
 4628W        W 8828  11.158   4.146  11.731
 4629W        W 8829   1.481   2.298  11.379
 4630W        W 8830   8.883   0.183  11.760
 4631W        W 8831  10.806   5.750   1.796
 4632W        W 8832   9.226   0.125  10.382
 4633W        W 8833   5.141   7.717   2.616
 4634W        W 8834   9.025   6.747  10.450
 4635W        W 8835   3.553   9.068   9.620
 4636W        W 8836   4.229   6.152  10.274
 4637W        W 8837   2.350   2.590   2.591
 4638W        W 8838   6.636   9.337   3.337
 4639W        W 8839   6.090   8.843   9.841
 4640W        W 8840   8.196   4.073  11.594
 4641W        W 8841   1.303  10.874   0.987
 4642W        W 8842   3.176   2.935   9.064
 4643W        W 8843   6.990   0.142  10.991
 4644W        W 8844   3.788   1.956   0.125
 4645W        W 8845   5.737   2.629  10.980
 4646W        W 8846   3.608   4.914   8.567
 4647W        W 8847  10.324   3.373   9.539
 4648W        W 8848  10.496   7.383   1.159
 4649W        W 8849   2.683   9.645  11.927
 4650W        W 8850  10.462   3.337  10.032
 4651W        W 8851   9.854   2.584   0.968
 4652W        W 8852   6.454   6.594  10.356
 4653W        W 8853  10.781  10.564  10.433
 4654W        W 8854   3.596  10.127  11.990
 4655W        W 8855   4.758   4.069   0.339
 4656W        W 8856  11.254   7.671   2.576
 4657W        W 8857   7.265   9.625   0.534
 4658W        W 8858  10.687   3.383   3.332
 4659W        W 8859  10.297   9.332  10.840
 4660W        W 8860   1.871   6.068   1.953
 4661W        W 8861   8.978   3.761   1.953
 4662W        W 8862  10.234  10.873   1.443
 4663W        W 8863   0.320   6.362   2.392
 4664W        W 8864   5.211   0.688  11.872
 4665W        W 8865   5.757   5.272   1.788
 4666W        W 8866   3.464   1.185   0.353
 4667W        W 8867   9.526   7.773  10.942
 4668W        W 8868   9.997   6.557   9.331
 4669W        W 8869   9.954   0.624  11.392
 4670W        W 8870   2.237   8.923   0.027
 4671W        W 8871  10.014   5.253   1.001
 4672W        W 8872  10.105   6.104   0.496
 4673W        W 8873   9.532   9.866   9.014
 4674W        W 8874   7.731   0.256   9.838
 4675W        W 8875   7.980   0.842   2.922
 4676W        W 8876   4.309   5.364   2.742
 4677W        W 8877   1.335   4.779  10.582
 4678W        W 8878   2.694   4.286   2.996
 4679W        W 8879   1.137   4.880  10.096
 4680W        W 8880   4.775   1.372   1.938
 4681W        W 8881  11.020   9.077   0.139
 4682W        W 8882   9.696   7.153  11.270
 4683W        W 8883   2.630   6.398   8.626
 4684W        W 8884   6.230   7.684   8.371
 4685W        W 8885  10.475   6.659   9.515
 4686W        W 8886   4.827   8.803  11.844
 4687W        W 8887   5.158   2.671   4.201
 4688W        W 8888   5.669   2.740   9.492
 4689W        W 8889   5.916   9.997   2.695
 4690W        W 8890   9.625   6.911   2.796
 4691W        W 8891   5.024   3.232  11.954
 4692W        W 8892   8.894   0.334  10.775
 4693W        W 8893  11.350   8.368   9.968
 4694W        W 8894   1.024   9.291  10.720
 4695W        W 8895   2.621   7.439   0.199
 4696W        W 8896   4.040   3.321   9.375
 4697W        W 8897   5.630   7.556   8.877
 4698W        W 8898   2.529   3.054  11.569
 4699W        W 8899   6.636  11.112   0.048
 4700W        W 8900   8.125   9.616  10.510
 4701W        W 8901  10.212   7.990   1.674
 4702W        W 8902   0.747   0.963   9.533
 4703W        W 8903   7.618   4.863   0.350
 4704W        W 8904   6.484   1.056  11.939
 4705W        W 8905   4.607   3.065  11.069
 4706W        W 8906  10.520   4.158   9.482
 4707W        W 8907   1.450  10.857  11.249
 4708W        W 8908   5.171   0.826   3.509
 4709W        W 8909   9.101  10.291   0.011
 4710W        W 8910   9.980   3.834   2.257
 4711W        W 8911   0.264   6.607   2.973
 4712W        W 8912   3.519   3.366   9.448
 4713W        W 8913   3.706   3.364   3.292
 4714W        W 8914   8.353   4.616   8.917
 4715W        W 8915   3.755   4.109  11.046
 4716W        W 8916   6.861   3.104   2.831
 4717W        W 8917   1.005   1.633   8.957
 4718W        W 8918   8.487   6.384   2.206
 4719W        W 8919   5.254   4.232   9.522
 4720W        W 8920   3.415  10.051   8.641
 4721W        W 8921   5.665   6.609   0.568
 4722W        W 8922   0.258   8.647   1.928
 4723W        W 8923   8.155   8.390   8.448
 4724W        W 8924   1.420   4.317  10.820
 4725W        W 8925   3.567   1.212   9.784
 4726W        W 8926   5.234   8.880   3.624
 4727W        W 8927  10.889   4.414   1.809
 4728W        W 8928  10.467   5.000   9.880
 4729W        W 8929  11.292   7.753  11.545
 4730W        W 8930   0.811   0.765   2.234
 4731W        W 8931   5.553   4.482  10.699
 4732W        W 8932   8.186  11.481   1.160
 4733W        W 8933  11.269   0.891  10.481
 4734W        W 8934   7.002   1.108  11.047
 4735W        W 8935   0.796   0.193  10.055
 4736W        W 8936   1.985  11.319   3.179
 4737W        W 8937   9.017   1.715   1.286
 4738W        W 8938   4.723   2.349   9.541
 4739W        W 8939   9.823   2.867   3.439
 4740W        W 8940   3.807   3.639   0.200
 4741W        W 8941   7.692   0.277   1.166
 4742W        W 8942   8.220   9.002   9.977
 4743W        W 8943  10.045   9.194   8.668
 4744W        W 8944   7.413  10.872   9.546
 4745W        W 8945  11.445   1.162   2.645
 4746W        W 8946  10.948   5.927   0.291
 4747W        W 8947   5.572   2.175   1.491
 4748W        W 8948   4.612   3.281   3.219
 4749W        W 8949   8.574   5.238   0.953
 4750W        W 8950   8.307   7.062   8.842
 4751W        W 8951   3.288  10.487   0.242
 4752W        W 8952  10.368   6.539   1.478
 4753W        W 8953   7.932   2.935   2.391
 4754W        W 8954   3.179   3.860   8.841
 4755W        W 8955   5.534   5.783  10.472
 4756W        W 8956   3.238   8.094   8.674
 4757W        W 8957   9.047   0.165  11.250
 4758W        W 8958   4.205   6.748   1.256
 4759W        W 8959   0.802   0.050  10.556
 4760W        W 8960  10.818   4.694   2.601
 4761W        W 8961  11.075   6.846   9.232
 4762W        W 8962  11.461   3.974   9.003
 4763W        W 8963  10.907   5.370   1.461
 4764W        W 8964  11.414   6.529   9.455
 4765W        W 8965   9.987   1.364   0.263
 4766W        W 8966   4.127   6.997   9.289
 4767W        W 8967   1.794   3.333   1.767
 4768W        W 8968  10.110  10.552   0.747
 4769W        W 8969   8.382   2.227   9.748
 4770W        W 8970   6.733   4.556   9.408
 4771W        W 8971  10.569   2.764   1.709
 4772W        W 8972   4.963   7.013   3.121
 4773W        W 8973   0.247   2.147   9.787
 4774W        W 8974   7.860   8.060   2.294
 4775W        W 8975   3.961   6.008  11.515
 4776W        W 8976  11.345   4.621   1.869
 4777W        W 8977   4.586   7.555   0.348
 4778W        W 8978   5.621   4.593   2.461
 4779W        W 8979  10.457   7.525   9.374
 4780W        W 8980   7.479   4.330  11.394
 4781W        W 8981   8.327   8.703   2.818
 4782W        W 8982   3.657   3.252   1.870
 4783W        W 8983   2.029   7.004  10.299
 4784W        W 8984  10.278   1.784   1.134
 4785W        W 8985  11.377   8.733   8.544
 4786W        W 8986  10.157   2.180   1.911
 4787W        W 8987   7.166   9.928   2.739
 4788W        W 8988   0.272   6.235  11.169
 4789W        W 8989   1.193   1.015   2.027
 4790W        W 8990  10.456   9.838   2.951
 4791W        W 8991   8.714   0.007  10.436
 4792W        W 8992   9.347   2.199  11.119
 4793W        W 8993   8.527   3.470   1.274
 4794W        W 8994   9.135   5.186  10.823
 4795W        W 8995   4.782   7.911   0.029
 4796W        W 8996  11.436  11.424  10.775
 4797W        W 8997   0.674   9.435   3.386
 4798W        W 8998   0.467   0.012   9.727
 4799W        W 8999   1.945   7.924  11.804
 4800W        W 9000  10.416   8.535   8.878
 4801W        W 9001   3.817   2.887  10.333
 4802W        W 9002   4.878   4.996   1.401
 4803W        W 9003   1.138   2.812   0.593
 4804W        W 9004   7.389   3.780   0.739
 4805W        W 9005   8.534   6.776  10.749
 4806W        W 9006   2.131   4.744   0.353
 4807W        W 9007   4.746   1.598  10.700
 4808W        W 9008   1.546   2.861   0.924
 4809W        W 9009   9.035  10.966   0.342
 4810W        W 9010   0.687   7.106   2.173
 4811W        W 9011   1.242   2.793  11.297
 4812W        W 9012  11.018  10.141   1.807
 4813W        W 9013   4.801   1.318   2.456
 4814W        W 9014   9.597   9.792   2.965
 4815W        W 9015  10.808   4.566   0.663
 4816W        W 9016   5.961   6.100   9.741
 4817W        W 9017   9.954   5.302   0.413
 4818W        W 9018   9.187   4.695   9.186
 4819W        W 9019   9.095   7.656  10.137
 4820W        W 9020   0.246   2.249   1.845
 4821W        W 9021   9.953  11.050  11.349
 4822W        W 9022   9.513  10.112   9.472
 4823W        W 9023   9.432   6.618  11.258
 4824W        W 9024   1.152   9.593   3.388
 4825W        W 9025   9.798   8.605   1.955
 4826W        W 9026   8.049   4.560   0.203
 4827W        W 9027   9.957   1.883   0.163
 4828W        W 9028   6.585   7.495   8.700
 4829W        W 9029   7.148   4.556   8.673
 4830W        W 9030   0.497   7.923   9.618
 4831W        W 9031   3.452   6.048   1.236
 4832W        W 9032   1.589   6.164  10.034
 4833W        W 9033   1.681   0.835   2.136
 4834W        W 9034   5.978   1.343   2.073
 4835W        W 9035   1.091   8.528   2.426
 4836W        W 9036   1.857   4.043  10.901
 4837W        W 9037   6.666   2.369   3.539
 4838W        W 9038   6.517   8.544   1.626
 4839W        W 9039   0.905   3.652   0.811
 4840W        W 9040   6.884  11.197   3.126
 4841W        W 9041   1.167   5.534   9.466
 4842W        W 9042   6.873   1.162   1.954
 4843W        W 9043  10.437   9.973  11.927
 4844W        W 9044   6.710   4.683   0.143
 4845W        W 9045   1.617   7.980   0.876
 4846W        W 9046   0.281   3.496  10.791
 4847W        W 9047  10.015   7.567  11.118
 4848W        W 9048   7.110  10.190  11.319
 4849W        W 9049   7.977   5.229   0.304
 4850W        W 9050   5.625   1.371   8.795
 4851W        W 9051   8.961   6.147   8.830
 4852W        W 9052   2.262   4.181   8.511
 4853W        W 9053   5.136   5.640  11.241
 4854W        W 9054   4.740   8.588  10.257
 4855W        W 9055   7.757   1.817   2.988
 4856W        W 9056   0.162   9.457   9.499
 4857W        W 9057   7.680   1.329  11.388
 4858W        W 9058   6.308   4.028   2.244
 4859W        W 9059   0.616   2.218  10.144
 4860W        W 9060   7.594   6.199  11.958
 4861W        W 9061   0.787   5.224  10.252
 4862W        W 9062   7.992   2.487   8.852
 4863W        W 9063   7.409   4.289   0.752
 4864W        W 9064   8.368   3.286  11.767
 4865W        W 9065   8.571   4.569   9.807
 4866W        W 9066   0.380   0.302  11.512
 4867W        W 9067   3.010   3.486   2.390
 4868W        W 9068   8.991   0.446   0.711
 4869W        W 9069   0.334   8.348  11.408
 4870W        W 9070   3.049   5.586   3.223
 4871W        W 9071   1.998   1.018  11.678
 4872W        W 9072  10.517   8.365  11.024
 4873W        W 9073   5.739  10.062   8.971
 4874W        W 9074   2.590   5.994   9.512
 4875W        W 9075   4.153   0.537   0.541
 4876W        W 9076   4.344   8.131   2.720
 4877W        W 9077   8.760   7.116   3.151
 4878W        W 9078   8.043   1.919  11.013
 4879W        W 9079   3.957   8.670   2.211
 4880W        W 9080   2.628  10.993   2.988
 4881W        W 9081   9.646   4.254   2.271
 4882W        W 9082   5.579   1.825   9.041
 4883W        W 9083   3.763   4.623  11.161
 4884W        W 9084   0.407   5.248  11.568
 4885W        W 9085   5.631   4.801   0.667
 4886W        W 9086   7.904   8.744   9.517
 4887W        W 9087   0.747   3.027   8.520
 4888W        W 9088   2.883   7.048   1.486
 4889W        W 9089   5.776  10.874  10.402
 4890W        W 9090   1.272  11.384   9.318
 4891W        W 9091   2.431   2.554   3.101
 4892W        W 9092   0.593   2.633   9.304
 4893W        W 9093   9.764   9.073   1.749
 4894W        W 9094   1.431   6.125   2.190
 4895W        W 9095   9.357   2.833  11.829
 4896W        W 9096   6.139  11.039   9.606
 4897W        W 9097   1.819   3.589  10.694
 4898W        W 9098   1.743   9.908  10.584
 4899W        W 9099   4.374  10.486  10.069
 4900W        W 9100   7.710   0.860  11.942
 4901W        W 9101   5.137   8.510   1.068
 4902W        W 9102   3.200   2.182   1.770
 4903W        W 9103   0.663   9.144  11.077
 4904W        W 9104   9.504   2.351   9.622
 4905W        W 9105   9.940   2.162   1.267
 4906W        W 9106   9.292  11.404  11.664
 4907W        W 9107   7.918   5.505  10.512
 4908W        W 9108  10.605   3.107   0.468
 4909W        W 9109   5.653   8.488   0.741
 4910W        W 9110   5.096   6.342   2.458
 4911W        W 9111   7.487   1.299   8.777
 4912W        W 9112   6.541   1.154  10.334
 4913W        W 9113   7.607   6.504   1.307
 4914W        W 9114   0.561  10.351   0.951
 4915W        W 9115   3.997   7.618   1.368
 4916W        W 9116   5.797   9.986  10.428
 4917W        W 9117   8.493   2.655  10.535
 4918W        W 9118   9.338   7.944   0.222
 4919W        W 9119   3.071   9.130   1.550
 4920W        W 9120   1.794   4.497   3.713
 4921W        W 9121   1.683   0.181   1.189
 4922W        W 9122   7.487   0.919  10.454
 4923W        W 9123   7.375   7.325  10.136
 4924W        W 9124   1.833   1.192   3.096
 4925W        W 9125   9.496   7.629  11.453
 4926W        W 9126   6.601   3.948   2.683
 4927W        W 9127   1.111   5.135  11.863
 4928W        W 9128  11.335   7.179   8.824
 4929W        W 9129   2.078   5.947   9.574
 4930W        W 9130   9.391   9.783  10.886
 4931W        W 9131   1.783   4.901   1.042
 4932W        W 9132   2.826  11.070   2.511
 4933W        W 9133   0.472   1.746   9.587
 4934W        W 9134  10.368   2.229  11.945
 4935W        W 9135   7.012   9.572  11.236
 4936W        W 9136  11.295   6.705   0.853
 4937W        W 9137   6.947   6.091  10.051
 4938W        W 9138   4.640   4.529   3.133
 4939W        W 9139   3.358   3.329   3.697
 4940W        W 9140   5.108   8.922   9.902
 4941W        W 9141   3.881  10.878  10.723
 4942W        W 9142   4.345   0.949  10.829
 4943W        W 9143   4.731   2.805   0.712
 4944W        W 9144   9.832   7.682   1.905
 4945W        W 9145   2.771  11.463  11.371
 4946W        W 9146   7.228  11.389   1.875
 4947W        W 9147  10.865   2.618  10.291
 4948W        W 9148   9.883   6.378  10.311
 4949W        W 9149   2.639   3.082   2.370
 4950W        W 9150   6.393   8.744   8.259
 4951W        W 9151  10.956   9.580  11.968
 4952W        W 9152   0.824   2.435   0.419
 4953W        W 9153   5.463   4.104   9.062
 4954W        W 9154   2.896  10.936  10.812
 4955W        W 9155   8.614   6.422   1.271
 4956W        W 9156   5.118   9.477   2.424
 4957W        W 9157   5.833   6.645   2.198
 4958W        W 9158  10.045   1.912   3.413
 4959W        W 9159   0.808   6.254   0.920
 4960W        W 9160   0.733  10.835   1.724
 4961W        W 9161   5.744   9.180  11.843
 4962W        W 9162   2.654   2.266   9.491
 4963W        W 9163   0.268   1.447   3.455
 4964W        W 9164   9.937   4.209   2.691
 4965W        W 9165   3.822   8.111  11.806
 4966W        W 9166   2.989   5.661   8.587
 4967W        W 9167  10.004   6.178  10.773
 4968W        W 9168   5.511   0.976   9.102
 4969W        W 9169  11.397   2.640   0.532
 4970W        W 9170   9.797  10.929   0.931
 4971W        W 9171   9.979  10.804   2.747
 4972W        W 9172   2.756   7.976   9.512
 4973W        W 9173  10.774   7.633   2.381
 4974W        W 9174   4.770   7.584   1.755
 4975W        W 9175  10.741   4.951   3.594
 4976W        W 9176  10.303   1.934  10.938
 4977W        W 9177   1.611   6.160   0.989
 4978W        W 9178  10.341   6.994   9.049
 4979W        W 9179   8.114   9.947   0.249
 4980W        W 9180   6.934   4.414   1.816
 4981W        W 9181   4.630   4.730   3.603
 4982W        W 9182   6.544   5.471   0.471
 4983W        W 9183   7.916   9.960   9.993
 4984W        W 9184   5.028   4.579   3.900
 4985W        W 9185   2.202   3.319   2.199
 4986W        W 9186   5.664   9.080   3.042
 4987W        W 9187   5.530   4.114   2.578
 4988W        W 9188   2.540   2.677   0.870
 4989W        W 9189  10.255   7.263   2.344
 4990W        W 9190   5.669   3.182   8.876
 4991W        W 9191   8.431  11.008  11.743
 4992W        W 9192   1.039   4.087   0.519
 4993W        W 9193   3.386   6.606  10.318
 4994W        W 9194  10.311   6.573  11.968
 4995W        W 9195   4.164   9.144   9.133
 4996W        W 9196   9.916   5.679   9.891
 4997W        W 9197   3.508   8.506   8.943
 4998W        W 9198   4.363  10.991  10.763
 4999W        W 9199   9.993   1.644  10.095
 5000W        W 9200  10.045   1.286   8.826
 5001W        W 9201  10.053   0.859   0.043
 5002W        W 9202   6.076   5.773   1.707
 5003W        W 9203   1.256   9.448  10.018
 5004W        W 9204   2.511   7.728   2.711
 5005W        W 9205   9.891   0.780   8.908
 5006W        W 9206   3.984   1.348  11.475
 5007W        W 9207   2.073   1.625   3.342
 5008W        W 9208   8.667   3.081  10.285
 5009W        W 9209  10.560  10.816   3.376
 5010W        W 9210   2.283   9.359  11.196
 5011W        W 9211   8.456   2.638   2.058
 5012W        W 9212   7.296  11.343   8.819
 5013W        W 9213   8.205   0.737   8.518
 5014W        W 9214   0.181   6.079   2.784
 5015W        W 9215   8.697   9.977   2.861
 5016W        W 9216   4.559   5.314   9.663
 5017W        W 9217   5.934   6.254   2.673
 5018W        W 9218   3.692  10.775   2.773
 5019W        W 9219   1.595   5.612   3.168
 5020W        W 9220   4.722   4.520   2.619
 5021W        W 9221   8.129   4.606   3.576
 5022W        W 9222   6.844   9.365   0.670
 5023W        W 9223   0.082   5.656  10.822
 5024W        W 9224   0.624   1.475   0.745
 5025W        W 9225   2.341   0.673   0.763
 5026W        W 9226   8.363   2.171   3.700
 5027W        W 9227   4.906   6.081   1.005
 5028W        W 9228  10.234  11.421   9.393
 5029W        W 9229   7.109   2.634   9.801
 5030W        W 9230  10.889   7.541   9.665
 5031W        W 9231   5.543   6.429  11.279
 5032W        W 9232   0.970   2.337   9.100
 5033W        W 9233   5.491   0.003   0.021
 5034W        W 9234   1.619   3.485  10.209
 5035W        W 9235   4.735   2.832   2.015
 5036W        W 9236   4.956   8.097   1.971
 5037W        W 9237   8.539   5.493   9.856
 5038W        W 9238   0.708   4.154  11.002
 5039W        W 9239  11.275   2.226   9.411
 5040W        W 9240   9.630   8.363   9.914
 5041W        W 9241   5.776   9.867   2.011
 5042W        W 9242   6.967   4.562   0.916
 5043W        W 9243   4.794   1.654   0.430
 5044W        W 9244   2.287  11.249  11.427
 5045W        W 9245   1.276   0.505   1.878
 5046W        W 9246   4.085   2.327   0.306
 5047W        W 9247   7.231   4.460   9.550
 5048W        W 9248   9.874  10.485   9.424
 5049W        W 9249   1.931   6.389  10.462
 5050W        W 9250   7.010   8.293   9.727
 5051W        W 9251   0.753   8.400   0.406
 5052W        W 9252   9.385   3.914   1.671
 5053W        W 9253   9.914   2.655   2.903
 5054W        W 9254   6.757  10.753   1.877
 5055W        W 9255   5.492   8.084   2.023
 5056W        W 9256   9.397   0.947  11.890
 5057W        W 9257   5.515  11.082   9.051
 5058W        W 9258   6.233   2.746   9.885
 5059W        W 9259   2.277   7.096   0.065
 5060W        W 9260  11.290  11.423   9.375
 5061W        W 9261   5.648   0.689  10.711
 5062W        W 9262  10.867   8.320   9.618
 5063W        W 9263  10.285   5.969  11.186
 5064W        W 9264   6.977   3.172   1.374
 5065W        W 9265   2.757   8.495   9.485
 5066W        W 9266  10.854   7.624   1.862
 5067W        W 9267   9.404   4.388  11.053
 5068W        W 9268   7.484  11.345   9.316
 5069W        W 9269  10.818   3.913   1.891
 5070W        W 9270   2.584   6.307   9.983
 5071W        W 9271  10.591   7.881   0.002
 5072W        W 9272   0.454  11.328   0.714
 5073W        W 9273  11.430   5.020   2.168
 5074W        W 9274   4.609  11.404   9.115
 5075W        W 9275   8.927   5.340   8.522
 5076W        W 9276   8.876   2.836   2.860
 5077W        W 9277   0.488   3.613  11.537
 5078W        W 9278   8.448   2.946   1.557
 5079W        W 9279   8.059   3.930   1.929
 5080W        W 9280   0.505   5.387  11.013
 5081W        W 9281   2.454   2.518  11.878
 5082W        W 9282   2.779   3.106   1.428
 5083W        W 9283   6.155  10.599   9.356
 5084W        W 9284   4.634  10.886   1.356
 5085W        W 9285   1.042   9.505   0.785
 5086W        W 9286   4.661   6.823   2.306
 5087W        W 9287   5.226   9.815   9.055
 5088W        W 9288   0.275   9.906   0.926
 5089W        W 9289   5.807   7.098   0.353
 5090W        W 9290   7.910   6.935   2.967
 5091W        W 9291   3.854  10.796   9.874
 5092W        W 9292   2.605   6.214  11.884
 5093W        W 9293   1.382   2.027   8.972
 5094W        W 9294   0.826   1.882  10.927
 5095W        W 9295   4.097   0.879  11.289
 5096W        W 9296   2.026  11.110  10.090
 5097W        W 9297   1.350   7.837   8.810
 5098W        W 9298   2.161   4.952   1.498
 5099W        W 9299   2.646   9.742  10.559
 5100W        W 9300  10.544  11.238   2.289
 5101W        W 9301   6.017   0.453   3.225
 5102W        W 9302   3.854   7.347   2.229
 5103W        W 9303   3.852   8.499   2.684
 5104W        W 9304  10.038   3.312   1.422
 5105W        W 9305   3.481   2.218  10.498
 5106W        W 9306   0.365   9.613   1.565
 5107W        W 9307   8.874   4.137   9.862
 5108W        W 9308   0.166   3.676   2.764
 5109W        W 9309   0.506   3.064  10.684
 5110W        W 9310   4.178  10.820   1.877
 5111W        W 9311   4.165  10.921  10.293
 5112W        W 9312   5.357   9.462   0.312
 5113W        W 9313   0.143  10.591   3.059
 5114W        W 9314  10.575   0.880  11.835
 5115W        W 9315   2.879   8.621   2.856
 5116W        W 9316   9.422   2.574   3.601
 5117W        W 9317   5.743   7.775  10.042
 5118W        W 9318   8.544   1.475   1.332
 5119W        W 9319   8.111   9.413   1.056
 5120W        W 9320   9.373   2.729  11.320
 5121W        W 9321   6.734   7.893   9.911
 5122W        W 9322   5.781   4.815  10.360
 5123W        W 9323   7.647  10.293  10.800
 5124W        W 9324   5.102   5.715  10.737
 5125W        W 9325   9.154   3.744   0.206
 5126W        W 9326   2.196   0.811   8.899
 5127W        W 9327   0.274   7.553   3.288
 5128W        W 9328   6.847   8.632   2.959
 5129W        W 9329   0.655  10.353   2.347
 5130W        W 9330   2.937   0.262  10.961
 5131W        W 9331   2.982   4.575   9.983
 5132W        W 9332   6.490   4.042   0.800
 5133W        W 9333   3.862   4.702   8.168
 5134W        W 9334   4.794   2.733   1.542
 5135W        W 9335   8.157   1.823   9.977
 5136W        W 9336   3.362   2.375   0.015
 5137W        W 9337   8.502   1.884  11.249
 5138W        W 9338   3.768  10.318   8.935
 5139W        W 9339   9.598   0.618   0.239
 5140W        W 9340   8.594   5.012  10.141
 5141W        W 9341   6.652  10.371  11.084
 5142W        W 9342   9.534   2.373   2.229
 5143W        W 9343  10.703   1.315  11.538
 5144W        W 9344   1.420   3.887  11.483
 5145W        W 9345   8.052   2.773   0.362
 5146W        W 9346   0.415   5.713   9.961
 5147W        W 9347   4.166   7.457   9.068
 5148W        W 9348  10.362   4.559  11.450
 5149W        W 9349   4.695   3.557   0.431
 5150W        W 9350   6.784   3.138   9.175
 5151W        W 9351   7.689   5.769   8.325
 5152W        W 9352   4.577   6.369   2.513
 5153W        W 9353   5.566   8.974   0.398
 5154W        W 9354   2.755   3.399  10.297
 5155W        W 9355   2.822   2.358   2.757
 5156W        W 9356   5.473   2.407   2.704
 5157W        W 9357   6.720   2.805   0.468
 5158W        W 9358   3.174   0.811   9.104
 5159W        W 9359   8.980  10.014  10.130
 5160W        W 9360  11.372   5.579   0.213
 5161W        W 9361   4.513   3.204   9.540
 5162W        W 9362   8.055   1.826   3.453
 5163W        W 9363   8.481   6.966   0.459
 5164W        W 9364  10.463   8.095   2.972
 5165W        W 9365   7.646   0.774   3.421
 5166W        W 9366   4.086  11.399  10.497
 5167W        W 9367   1.912   5.205  11.225
 5168W        W 9368   4.539   5.447   2.268
 5169W        W 9369   5.592   3.683   3.799
 5170W        W 9370   7.376   4.795  10.533
 5171W        W 9371  11.316   6.418   2.807
 5172W        W 9372   1.702   2.316   0.931
 5173W        W 9373   5.074   9.849   2.115
 5174W        W 9374  11.492  11.468   2.011
 5175W        W 9375   9.180   9.541   2.242
 5176W        W 9376   0.772   7.174   9.937
 5177W        W 9377   6.954   1.249  11.944
 5178W        W 9378   0.775   7.494   1.800
 5179W        W 9379   0.869   9.127   1.052
 5180W        W 9380   5.168   5.575  11.761
 5181W        W 9381  10.118   5.019  10.304
 5182W        W 9382  10.122   1.961  10.472
 5183W        W 9383   4.986   1.513  10.120
 5184W        W 9384   8.844   6.916   9.545
 5185W        W 9385   0.809   2.037  11.624
 5186W        W 9386   0.740   5.514   3.001
 5187W        W 9387   6.271   5.035   0.374
 5188W        W 9388   1.265   5.269  10.442
 5189W        W 9389   5.335   6.714  10.853
 5190W        W 9390   1.615   5.069  11.967
 5191W        W 9391   0.269  11.433   0.245
 5192W        W 9392   0.489   4.586  10.834
 5193W        W 9393  11.302   8.897   1.876
 5194W        W 9394   8.705  11.277   9.564
 5195W        W 9395  10.507   7.366  10.948
 5196W        W 9396   9.102   9.062   2.520
 5197W        W 9397  11.260   4.791   0.818
 5198W        W 9398   3.276   2.642   0.862
 5199W        W 9399   8.533   0.946   9.444
 5200W        W 9400   7.010   8.387   1.924
 5201W        W 9401   5.134   0.008   2.999
 5202W        W 9402   2.999   3.872   4.150
 5203W        W 9403   1.203   8.127   0.616
 5204W        W 9404   1.335   9.551   0.399
 5205W        W 9405   0.734   0.929  10.423
 5206W        W 9406  10.335   2.572   9.412
 5207W        W 9407  10.562   1.586   9.640
 5208W        W 9408  10.236   8.466   0.394
 5209W        W 9409   2.357  10.231   2.751
 5210W        W 9410   9.967   8.065  10.952
 5211W        W 9411   2.282  11.262   0.475
 5212W        W 9412   7.639   2.446   3.167
 5213W        W 9413  10.181   0.304  10.101
 5214W        W 9414   8.474  11.272   3.192
 5215W        W 9415   9.450   6.677   2.160
 5216W        W 9416   4.128   8.085   9.644
 5217W        W 9417   9.823   0.828   9.455
 5218W        W 9418   7.173  10.389   3.402
 5219W        W 9419   0.684   6.935  10.379
 5220W        W 9420  11.302   1.795  10.971
 5221W        W 9421   2.162   2.947   8.802
 5222W        W 9422   7.726   7.730   9.872
 5223W        W 9423   8.597   6.005  11.016
 5224W        W 9424   7.490   6.998   1.898
 5225W        W 9425   1.783  10.971   2.832
 5226W        W 9426   1.817  10.481  11.241
 5227W        W 9427   2.965   7.860  10.383
 5228W        W 9428   1.820   3.699   2.291
 5229W        W 9429   9.443   8.783   0.214
 5230W        W 9430   0.399   6.046   0.245
 5231W        W 9431   0.492   3.887   2.414
 5232W        W 9432   4.688   2.637   2.984
 5233W        W 9433   0.721   0.695   9.968
 5234W        W 9434  10.392   7.473   9.877
 5235W        W 9435   3.212   0.163   9.122
 5236W        W 9436   3.765   0.598   2.976
 5237W        W 9437   1.189   5.706   2.363
 5238W        W 9438   7.563   1.046   1.950
 5239W        W 9439   7.397   8.320   2.313
 5240W        W 9440   8.601   6.457   0.375
 5241W        W 9441  10.213   2.258   0.837
 5242W        W 9442   6.656   9.880   2.007
 5243W        W 9443   3.665  11.431   9.589
 5244W        W 9444   4.655   4.624  10.928
 5245W        W 9445   4.794   9.010   3.068
 5246W        W 9446   2.679   1.141   1.267
 5247W        W 9447   4.770   6.992  10.045
 5248W        W 9448   1.352   9.522  11.908
 5249W        W 9449   2.380   3.798   9.473
 5250W        W 9450   4.660   4.756   1.797
 5251W        W 9451   2.894   9.959  11.530
 5252W        W 9452   9.237   7.355  11.081
 5253W        W 9453   8.798   8.688   0.749
 5254W        W 9454   8.087   1.430   8.708
 5255W        W 9455   9.635   9.555   1.506
 5256W        W 9456   0.709   4.679  11.330
 5257W        W 9457   8.103   8.854  11.746
 5258W        W 9458   1.823   7.407  11.814
 5259W        W 9459   4.723   8.502   0.717
 5260W        W 9460   6.319   7.425   1.472
 5261W        W 9461   3.743   8.859  10.599
 5262W        W 9462  10.354   5.039  11.162
 5263W        W 9463   1.434   5.232   2.374
 5264W        W 9464   1.890   0.468   0.815
 5265W        W 9465   2.820   7.044   2.382
 5266W        W 9466   7.906   5.218  11.431
 5267W        W 9467   1.779   5.238   2.823
 5268W        W 9468   6.397   1.252   1.752
 5269W        W 9469   1.628   3.044   0.447
 5270W        W 9470  11.091   0.937   1.221
 5271W        W 9471   1.463   0.033   0.270
 5272W        W 9472   4.093   3.525  11.793
 5273W        W 9473   5.170   0.796   1.954
 5274W        W 9474  10.053   8.908   9.113
 5275W        W 9475   2.007  10.395   9.399
 5276W        W 9476   2.741   4.610   1.352
 5277W        W 9477   4.542   5.134  11.205
 5278W        W 9478   8.999   5.691   9.788
 5279W        W 9479   4.636   4.012   1.360
 5280W        W 9480   7.822   9.525  10.907
 5281W        W 9481   4.229   1.316   3.009
 5282W        W 9482   9.379   8.625   2.307
 5283W        W 9483   1.428   5.551  11.926
 5284W        W 9484   3.787   1.095   2.942
 5285W        W 9485   9.957   2.753  10.100
 5286W        W 9486   1.148   7.309   2.866
 5287W        W 9487   5.926   5.590   9.066
 5288W        W 9488   6.530   2.858   3.598
 5289W        W 9489   9.716   1.146   2.971
 5290W        W 9490   4.085  11.345   0.875
 5291W        W 9491   0.902  11.049  10.651
 5292W        W 9492   8.309   6.794   0.940
 5293W        W 9493   7.126   7.031  11.940
 5294W        W 9494   9.957  10.867  11.879
 5295W        W 9495   3.728   6.924  11.154
 5296W        W 9496   2.204   8.052   0.574
 5297W        W 9497   9.638   4.216   1.349
 5298W        W 9498  10.647   0.701   1.377
 5299W        W 9499   7.581   7.302   2.291
 5300W        W 9500   1.987   5.332   1.853
 5301W        W 9501  10.570  10.478  11.771
 5302W        W 9502   1.608   7.001   1.910
 5303W        W 9503   8.303   4.027  10.279
 5304W        W 9504   5.644   3.228   2.555
 5305W        W 9505   6.087   0.330   2.240
 5306W        W 9506   9.578   7.684   1.441
 5307W        W 9507   9.900   3.202   9.788
 5308W        W 9508   9.616   4.900   1.724
 5309W        W 9509   8.212   3.672   9.510
 5310W        W 9510   6.669   3.971   1.740
 5311W        W 9511   9.974   8.539  10.719
 5312W        W 9512   8.475  10.261  10.034
 5313W        W 9513   0.320  11.455   9.251
 5314W        W 9514   3.679   3.613  10.976
 5315W        W 9515  11.455  10.718   9.682
 5316W        W 9516   0.176   7.192  11.327
 5317W        W 9517   8.943   9.363  11.423
 5318W        W 9518   2.605   0.833   9.231
 5319W        W 9519   0.543   3.439  10.315
 5320W        W 9520  10.210   2.723   2.098
 5321W        W 9521   5.599   8.546   1.778
 5322W        W 9522   3.959   7.989   1.763
 5323W        W 9523   8.214   3.827   3.995
 5324W        W 9524   1.216   4.040   9.235
 5325W        W 9525   2.260   1.886   9.765
 5326W        W 9526   9.872  10.784   2.238
 5327W        W 9527   5.185   9.837   3.338
 5328W        W 9528   1.964   2.155  11.286
 5329W        W 9529   7.986  10.414   2.427
 5330W        W 9530   1.950   3.212   8.382
 5331W        W 9531   0.391  10.019  10.923
 5332W        W 9532   8.576   3.564   3.132
 5333W        W 9533   9.937   7.693   2.415
 5334W        W 9534   6.548  10.965   9.321
 5335W        W 9535   2.790   5.296  11.342
 5336W        W 9536   4.957   2.527   8.624
 5337W        W 9537   6.727   8.631   0.827
 5338W        W 9538   1.847   6.913   8.767
 5339W        W 9539   3.643   0.167   2.741
 5340W        W 9540   5.039   8.324   8.947
 5341W        W 9541   6.985   9.347   8.586
 5342W        W 9542   1.245   7.578   2.066
 5343W        W 9543   7.993   5.907   0.790
 5344W        W 9544   5.637  10.954   0.953
 5345W        W 9545   0.662   8.773  10.086
 5346W        W 9546   4.000   6.208   1.847
 5347W        W 9547  10.726   7.427   3.521
 5348W        W 9548   1.611   6.663   8.340
 5349W        W 9549   0.308  10.995   9.464
 5350W        W 9550   5.219   4.693   1.664
 5351W        W 9551   2.792   4.825  11.629
 5352W        W 9552   3.150   3.337   1.758
 5353W        W 9553   0.138   7.901  10.000
 5354W        W 9554   6.325   6.471   2.413
 5355W        W 9555   2.201  10.987   1.864
 5356W        W 9556   0.433   0.499   2.444
 5357W        W 9557   9.718   7.045   0.298
 5358W        W 9558   0.890   7.086   1.419
 5359W        W 9559   5.217   1.412   1.694
 5360W        W 9560   1.739   4.805  10.283
 5361W        W 9561   5.784   5.172   0.309
 5362W        W 9562   1.784   8.096   9.627
 5363W        W 9563   1.192   1.901  11.283
 5364W        W 9564  10.980   9.978   9.730
 5365W        W 9565   3.827   9.360   3.412
 5366W        W 9566   6.904   2.622   2.650
 5367W        W 9567   6.379   2.528  10.337
 5368W        W 9568   2.220   1.468   0.078
 5369W        W 9569   1.161   1.311   3.655
 5370W        W 9570   7.769   0.374   3.746
 5371W        W 9571   2.295   5.775   9.135
 5372W        W 9572   8.948   7.480   2.159
 5373W        W 9573  11.253   5.131   1.203
 5374W        W 9574   1.450  10.383   3.013
 5375W        W 9575   2.869   3.218   3.514
 5376W        W 9576  10.458   8.883   2.958
 5377W        W 9577   8.626   7.365   9.441
 5378W        W 9578   1.900   4.538  10.907
 5379W        W 9579  10.097   1.306   1.208
 5380W        W 9580   7.567   1.799   9.590
 5381W        W 9581   3.148   5.614   0.101
 5382W        W 9582   4.047   5.157  11.027
 5383W        W 9583   2.689   3.105   9.000
 5384W        W 9584   0.184   1.798   1.515
 5385W        W 9585   9.797   1.302   0.767
 5386W        W 9586   8.938   0.759   1.897
 5387W        W 9587   7.571   5.062   1.238
 5388W        W 9588   6.707  10.406   2.710
 5389W        W 9589   0.833  10.287  10.089
 5390W        W 9590   0.087   9.370   0.757
 5391W        W 9591   7.661   1.025   9.602
 5392W        W 9592   7.735   6.507   1.816
 5393W        W 9593   8.129   6.689   9.911
 5394W        W 9594   3.731   9.067   2.012
 5395W        W 9595   1.664   8.878  10.927
 5396W        W 9596   7.009   5.997  11.834
 5397W        W 9597   6.224   0.825   2.400
 5398W        W 9598   8.091  10.831   2.730
 5399W        W 9599   0.219   5.463   1.894
 5400W        W 9600   8.099   3.735   1.429
 5401W        W 9601  10.885   1.387   0.006
 5402W        W 9602   8.980   8.572   2.701
 5403W        W 9603   8.439   1.461   9.531
 5404W        W 9604   0.289   7.581  11.711
 5405W        W 9605   7.107   6.684  11.337
 5406W        W 9606   2.319   7.929  10.992
 5407W        W 9607   0.353   1.279  11.839
 5408W        W 9608   3.958   6.297   1.278
 5409W        W 9609   6.656   7.514   3.701
 5410W        W 9610  11.328   8.455   2.182
 5411W        W 9611   9.118  11.429   0.728
 5412W        W 9612   0.165   5.159   0.923
 5413W        W 9613   9.889   0.380  11.840
 5414W        W 9614   5.083   0.251   0.234
 5415W        W 9615   6.238   3.494   2.268
 5416W        W 9616  10.799  10.351   3.440
 5417W        W 9617  11.192   5.261   8.762
 5418W        W 9618   5.718   8.630   3.305
 5419W        W 9619   8.978   3.681   3.453
 5420W        W 9620  11.186   1.509   8.850
 5421W        W 9621   2.741  11.263   0.216
 5422W        W 9622   5.711   2.393   1.022
 5423W        W 9623   5.092   7.737  11.645
 5424W        W 9624   1.183   8.241   0.121
 5425W        W 9625  10.621   7.843   1.409
 5426W        W 9626   7.662   3.053   0.698
 5427W        W 9627  11.372   3.796   3.170
 5428W        W 9628   4.366   5.001   1.409
 5429W        W 9629   0.171   9.253  10.342
 5430W        W 9630   8.732   7.960  10.377
 5431W        W 9631   1.711  10.833   9.423
 5432W        W 9632   9.364   6.640  11.786
 5433W        W 9633   9.138   7.332   9.574
 5434W        W 9634  11.494  11.385   9.834
 5435W        W 9635  10.769   0.226   9.910
 5436W        W 9636   1.970  10.700   8.977
 5437W        W 9637   7.758   6.287   8.260
 5438W        W 9638   0.189   5.533   9.513
 5439W        W 9639  10.811   7.158   8.915
 5440W        W 9640   6.445   2.787   8.979
 5441W        W 9641  10.101   0.736  10.550
 5442W        W 9642   6.801   6.095   1.309
 5443W        W 9643   9.515   3.298   2.295
 5444W        W 9644   5.251   5.803   2.359
 5445W        W 9645   7.303   0.442  10.053
 5446W        W 9646   8.918   0.804   2.402
 5447W        W 9647   3.665   3.602   0.715
 5448W        W 9648   0.200   3.062  10.249
 5449W        W 9649   0.417   8.683  10.900
 5450W        W 9650   7.591   6.412   3.542
 5451W        W 9651   1.291   7.847  10.928
 5452W        W 9652   3.998   1.016   0.417
 5453W        W 9653   9.473   2.799   9.897
 5454W        W 9654   7.285   1.006   0.262
 5455W        W 9655   6.792   0.808   8.404
 5456W        W 9656   5.520   3.773   1.823
 5457W        W 9657   9.521   1.361   1.304
 5458W        W 9658   0.510   7.043   8.999
 5459W        W 9659   0.209   8.731  10.407
 5460W        W 9660   0.298   3.861  11.144
 5461W        W 9661   1.418  10.879  11.785
 5462W        W 9662  10.747   9.348   2.258
 5463W        W 9663   2.064   8.403   3.224
 5464W        W 9664   1.645  10.382   2.160
 5465W        W 9665   4.649   8.136   9.667
 5466W        W 9666   9.457   6.886   9.870
 5467W        W 9667   3.689   5.429  10.347
 5468W        W 9668  11.384   6.046   0.045
 5469W        W 9669   3.350   7.213  10.961
 5470W        W 9670  10.880   8.565   8.621
 5471W        W 9671  10.736   6.989   0.397
 5472W        W 9672   3.337   9.132  11.066
 5473W        W 9673   1.632   9.626  11.479
 5474W        W 9674   5.892   1.509   9.798
 5475W        W 9675   4.879  10.393  10.182
 5476W        W 9676   1.307   5.732   0.384
 5477W        W 9677   2.136   1.751  11.577
 5478W        W 9678   9.819   0.613   3.003
 5479W        W 9679   7.704   9.046   9.912
 5480W        W 9680   7.150   7.102  10.539
 5481W        W 9681   0.018   9.833   8.658
 5482W        W 9682   1.360  10.440   9.976
 5483W        W 9683   5.488  10.740   2.451
 5484W        W 9684   5.026   7.943   3.349
 5485W        W 9685   3.248   0.188  11.457
 5486W        W 9686   2.272   7.512  10.347
 5487W        W 9687   1.489   4.257   2.374
 5488W        W 9688  10.488   2.460   9.934
 5489W        W 9689   4.955   6.409  11.723
 5490W        W 9690   7.070   1.766   1.151
 5491W        W 9691   0.421   0.344   0.516
 5492W        W 9692   8.363   7.192  11.020
 5493W        W 9693   2.353   3.069   2.785
 5494W        W 9694  10.574   6.005   2.192
 5495W        W 9695   4.291  11.382  11.521
 5496W        W 9696   2.417  10.206  11.513
 5497W        W 9697   0.979  11.469   8.596
 5498W        W 9698   9.414   0.762   2.125
 5499W        W 9699   7.706   6.609   8.686
 5500W        W 9700   6.579   8.595   3.822
 5501W        W 9701   2.362   0.393   9.150
 5502W        W 9702   8.483   5.045   9.642
 5503W        W 9703   3.723   0.842   2.066
 5504W        W 9704   1.713   0.366   1.649
 5505W        W 9705   4.270   2.268   9.291
 5506W        W 9706   0.372   8.025   9.122
 5507W        W 9707  10.000  10.034   0.719
 5508W        W 9708   0.413   3.383   1.491
 5509W        W 9709   4.245   0.015  10.999
 5510W        W 9710  11.139   1.438   2.324
 5511W        W 9711   5.103   7.005   1.053
 5512W        W 9712  11.468   5.575   1.428
 5513W        W 9713   1.380   7.066   0.114
 5514W        W 9714   1.406   3.733   1.031
 5515W        W 9715   3.302   7.624   0.795
 5516W        W 9716   6.102   1.713   3.513
 5517W        W 9717   8.427   8.475   3.632
 5518W        W 9718  10.008  10.375   3.533
 5519W        W 9719   9.524   7.738  10.419
 5520W        W 9720   8.046  10.981  10.093
 5521W        W 9721  10.884   8.686   9.974
 5522W        W 9722   2.500   4.324   2.139
 5523W        W 9723   8.684   8.528  11.757
 5524W        W 9724   2.397   6.076  10.437
 5525W        W 9725   2.885   8.899  10.724
 5526W        W 9726   7.122   5.745  11.367
 5527W        W 9727   2.884   9.337   0.284
 5528W        W 9728   5.087   9.078  11.470
 5529W        W 9729   3.435   0.212  10.982
 5530W        W 9730   4.623   4.563   0.496
 5531W        W 9731   0.640   0.521  10.864
 5532W        W 9732   8.400   7.869   3.080
 5533W        W 9733  10.396   5.614   0.904
 5534W        W 9734   1.840   5.692  11.651
 5535W        W 9735   2.035   4.692   9.874
 5536W        W 9736  11.051   5.304   1.958
 5537W        W 9737   4.823  10.441  11.468
 5538W        W 9738   4.417   4.069   3.246
 5539W        W 9739   7.295   2.277   8.829
 5540W        W 9740   3.694   1.795   1.660
 5541W        W 9741   8.400   4.158   9.272
 5542W        W 9742   7.860   3.254   0.240
 5543W        W 9743   4.382   3.238   3.661
 5544W        W 9744   9.009   5.018   1.453
 5545W        W 9745   4.246   7.014   8.775
 5546W        W 9746   7.769   0.924   0.452
 5547W        W 9747   6.118   4.556   1.319
 5548W        W 9748  10.353   6.430   9.992
 5549W        W 9749   5.866   9.405   0.330
 5550W        W 9750   4.177   1.375   0.824
 5551W        W 9751  11.258   9.857  10.188
 5552W        W 9752   7.221   9.543  10.363
 5553W        W 9753   6.020   4.275   2.613
 5554W        W 9754   4.955   2.316   2.694
 5555W        W 9755  10.368   9.451  10.253
 5556W        W 9756   2.588   9.835  11.110
 5557W        W 9757   1.436   1.735   3.106
 5558W        W 9758   5.547   5.379   2.269
 5559W        W 9759   4.892   7.119   1.519
 5560W        W 9760   0.384   1.300  11.308
 5561W        W 9761   5.573   4.626   9.016
 5562W        W 9762   5.916   6.519   9.460
 5563W        W 9763   0.238   6.796   2.091
 5564W        W 9764   9.910  10.460   1.233
 5565W        W 9765   2.303   3.347   1.324
 5566W        W 9766   4.911   9.113   8.501
 5567W        W 9767   8.530   3.868   1.725
 5568W        W 9768   1.510   4.800   2.684
 5569W        W 9769   6.243  11.463   1.402
 5570W        W 9770   1.862   6.929   3.157
 5571W        W 9771   3.158   3.606   0.770
 5572W        W 9772   7.691   9.202   1.303
 5573W        W 9773   7.878   8.073  10.212
 5574W        W 9774   9.575  11.403   0.993
 5575W        W 9775   6.754   6.571   9.943
 5576W        W 9776   3.046   5.509   2.460
 5577W        W 9777   7.317   8.574   2.765
 5578W        W 9778   3.396  10.934  10.807
 5579W        W 9779   8.035   1.311   1.262
 5580W        W 9780   5.931   3.071   0.319
 5581W        W 9781  11.230   1.023   3.546
 5582W        W 9782  10.308   3.703   1.696
 5583W        W 9783   4.602   3.360  10.039
 5584W        W 9784   8.506   7.660   9.047
 5585W        W 9785   7.750   5.242   8.538
 5586W        W 9786   1.721   3.144   2.264
 5587W        W 9787   3.142   7.035   9.907
 5588W        W 9788   2.276   2.439   1.680
 5589W        W 9789   9.494   7.390   9.963
 5590W        W 9790   7.495   0.244  11.155
 5591W        W 9791   6.627   2.338   1.378
 5592W        W 9792   8.643   7.630   9.889
 5593W        W 9793  10.976   3.583   0.455
 5594W        W 9794   3.596   2.348   0.466
 5595W        W 9795   8.129   6.604  11.288
 5596W        W 9796   6.937   0.337   1.112
 5597W        W 9797   0.912   5.724   9.002
 5598W        W 9798  10.297   5.649   2.440
 5599W        W 9799   4.192   6.915  11.339
 5600W        W 9800   0.120   0.741  10.815
 5601W        W 9801   1.455  11.364   0.846
 5602W        W 9802  10.004   0.308   9.131
 5603W        W 9803   2.259   1.934   8.728
 5604W        W 9804   1.390   1.427   1.771
 5605W        W 9805   9.137   9.936   3.139
 5606W        W 9806   8.630   1.157  11.018
 5607W        W 9807   9.286   2.711   2.577
 5608W        W 9808   9.193  11.466   0.205
 5609W        W 9809   7.510   8.766   9.156
 5610W        W 9810   2.772   1.595   1.502
 5611W        W 9811  10.703  10.585   2.941
 5612W        W 9812  10.431   8.287   3.488
 5613W        W 9813   8.373   7.917   1.354
 5614W        W 9814   2.171   0.680   2.827
 5615W        W 9815   6.438   1.157  11.198
 5616W        W 9816   7.228   6.474   1.744
 5617W        W 9817   5.429   5.278   9.549
 5618W        W 9818   0.111   1.621   2.740
 5619W        W 9819   3.175   2.820   9.930
 5620W        W 9820   3.008   4.715   2.967
 5621W        W 9821   2.045   5.152   0.664
 5622W        W 9822   6.048   9.344   9.618
 5623W        W 9823   9.042   5.131   2.396
 5624W        W 9824   8.466   0.416   1.251
 5625W        W 9825  10.341   6.479  11.007
 5626W        W 9826   7.126   8.398  11.081
 5627W        W 9827   4.049   4.752  10.712
 5628W        W 9828   2.338   7.718   8.982
 5629W        W 9829   6.551   3.074   4.129
 5630W        W 9830  11.233  11.040  11.054
 5631W        W 9831   0.001   3.448   9.076
 5632W        W 9832   3.018   8.354   9.061
 5633W        W 9833   6.237   9.325  11.982
 5634W        W 9834   2.253   2.817   9.832
 5635W        W 9835   9.901   6.162  11.460
 5636W        W 9836   8.701   6.583   1.766
 5637W        W 9837  10.431  10.468  10.792
 5638W        W 9838  10.041   4.095   0.893
 5639W        W 9839   6.964   0.783   3.145
 5640W        W 9840  10.401   4.470   2.850
 5641W        W 9841   8.752   2.302   1.811
 5642W        W 9842   9.209   3.844   9.428
 5643W        W 9843   5.488   5.036   9.993
 5644W        W 9844   6.948  10.778   2.371
 5645W        W 9845   3.513   7.730  11.947
 5646W        W 9846   0.215   2.698   1.519
 5647W        W 9847   1.871   8.176   1.998
 5648W        W 9848   9.145   9.069   9.788
 5649W        W 9849   1.191   4.800  11.469
 5650W        W 9850  11.374   9.814   9.195
 5651W        W 9851   8.600   9.348  10.630
 5652W        W 9852   7.974   2.337  10.704
 5653W        W 9853   0.504   8.047  11.825
 5654W        W 9854   4.481   2.817  10.654
 5655W        W 9855   8.923   1.566  11.188
 5656W        W 9856   3.483   3.798   1.174
 5657W        W 9857   6.439   3.526   0.875
 5658W        W 9858   6.568   2.853   1.361
 5659W        W 9859  10.448   3.291  10.624
 5660W        W 9860   3.703   8.286  11.296
 5661W        W 9861   4.141   6.579   0.768
 5662W        W 9862   4.737   0.315  10.334
 5663W        W 9863  10.049   0.112  11.415
 5664W        W 9864  10.989  11.255   9.932
 5665W        W 9865   0.836   5.067   3.224
 5666W        W 9866  10.126   1.373   2.481
 5667W        W 9867   8.887   4.180   0.270
 5668W        W 9868   0.787   9.945   3.228
 5669W        W 9869  10.856   9.656   2.669
 5670W        W 9870   3.434   3.148   0.884
 5671W        W 9871  11.019   6.979   3.578
 5672W        W 9872   1.269   2.317   2.782
 5673W        W 9873   2.154  10.841   1.371
 5674W        W 9874   7.139  10.320   2.434
 5675W        W 9875   3.420  11.069   9.928
 5676W        W 9876   2.212   3.330   9.646
 5677W        W 9877   3.495   3.974  10.625
 5678W        W 9878   1.886   5.538   9.358
 5679W        W 9879   8.682   5.184   2.863
 5680W        W 9880   5.542   7.361   9.795
 5681W        W 9881   4.316   7.534   0.781
 5682W        W 9882   0.948   2.682   2.647
 5683W        W 9883   0.204   6.823  10.511
 5684W        W 9884   5.449   4.112   4.021
 5685W        W 9885   8.190   8.075   8.954
 5686W        W 9886   8.892   5.471  10.236
 5687W        W 9887   7.476   2.366  10.496
 5688W        W 9888   7.714  11.236   9.781
 5689W        W 9889   0.193   5.236   8.986
 5690W        W 9890   1.889   6.990   1.458
 5691W        W 9891   0.965   5.274   2.161
 5692W        W 9892   7.655   0.602   1.729
 5693W        W 9893  11.404   5.690   9.936
 5694W        W 9894   2.628  11.242   9.515
 5695W        W 9895  10.872   7.154  10.004
 5696W        W 9896   3.744   4.765   2.250
 5697W        W 9897   4.685   9.939   0.520
 5698W        W 9898   7.878   1.547  11.924
 5699W        W 9899   0.739   0.422   8.656
 5700W        W 9900  11.332   0.028  11.291
 5701W        W 9901   0.456   8.002   0.613
 5702W        W 9902  10.231  11.326  10.307
 5703W        W 9903   1.443   4.239   0.233
 5704W        W 9904   4.917   1.298   3.251
 5705W        W 9905   7.683   8.981  10.902
 5706W        W 9906   6.861   8.856   8.519
 5707W        W 9907   3.675   5.491  10.863
 5708W        W 9908   4.935   4.342  10.509
 5709W        W 9909   0.385   8.776   0.323
 5710W        W 9910   6.951   4.583  10.348
 5711W        W 9911   8.236   9.593   8.806
 5712W        W 9912   5.027   2.897  10.623
 5713W        W 9913   9.750   4.556  10.634
 5714W        W 9914  11.144   8.488  10.409
 5715W        W 9915   4.456   7.992   1.898
 5716W        W 9916   6.427   1.313   1.242
 5717W        W 9917   1.434   9.077   1.211
 5718W        W 9918   9.916   6.473   3.572
 5719W        W 9919   1.326   7.155   2.327
 5720W        W 9920   8.074   4.160   1.079
 5721W        W 9921   4.802   5.241   1.868
 5722W        W 9922   0.393   3.476   9.424
 5723W        W 9923   6.956   1.693   2.120
 5724W        W 9924   4.433  10.297   0.937
 5725W        W 9925  10.044   8.086   9.812
 5726W        W 9926  10.296   3.975  11.984
 5727W        W 9927   8.400   6.170   1.701
 5728W        W 9928  11.300   3.402   0.855
 5729W        W 9929   4.469   6.316   1.156
 5730W        W 9930   0.026   8.551   0.644
 5731W        W 9931   8.830   1.138   3.384
 5732W        W 9932   3.876   7.113   1.484
 5733W        W 9933   9.027   4.331   0.739
 5734W        W 9934   7.753   1.479   1.664
 5735W        W 9935  11.365  10.127  11.631
 5736W        W 9936   4.164   5.060   2.334
 5737W        W 9937   8.936   7.572   1.663
 5738W        W 9938   3.181   7.699   9.428
 5739W        W 9939   2.291   4.790   0.957
 5740W        W 9940   1.441  11.428   8.824
 5741W        W 9941   1.431  11.315  11.535
 5742W        W 9942   7.142   2.926   8.823
 5743W        W 9943  11.182   9.278  11.003
 5744W        W 9944   0.402   3.719   3.215
 5745W        W 9945   1.017   8.470  10.310
 5746W        W 9946   8.816   5.981   8.357
 5747W        W 9947   6.374   0.819  10.696
 5748W        W 9948   5.511   3.714   8.144
 5749W        W 9949   9.534   8.635   3.229
 5750W        W 9950   5.908   3.382   1.881
 5751W        W 9951   2.272   8.447  10.322
 5752W        W 9952   5.697   9.115   3.564
 5753W        W 9953   3.609   1.886   9.512
 5754W        W 9954   1.338   4.747   2.200
 5755W        W 9955   6.077   8.330   2.694
 5756W        W 9956  10.384   6.588   3.362
 5757W        W 9957   0.302  10.557   9.143
 5758W        W 9958   9.561   5.548   1.128
 5759W        W 9959   8.527   0.991   2.084
 5760W        W 9960   2.896   7.873   1.325
 5761W        W 9961   0.094  10.582  11.730
 5762W        W 9962   5.191   0.966  11.430
 5763W        W 9963   9.075   7.596   2.647
 5764W        W 9964   2.272   0.859  10.848
 5765W        W 9965   6.297  10.543  10.768
 5766W        W 9966   3.524   3.804   3.543
 5767W        W 9967  10.572   9.988  10.983
 5768W        W 9968   6.163   1.743  11.024
 5769W        W 9969   8.102   7.676  11.188
 5770W        W 9970   2.165   8.899  11.034
 5771W        W 9971   8.924   6.039   0.788
 5772W        W 9972  10.187   4.257  10.589
 5773W        W 9973   3.264   9.060   9.062
 5774W        W 9974  10.504   9.049   8.892
 5775W        W 9975  10.045   9.019   2.179
 5776W        W 9976  10.330   5.361  10.623
 5777W        W 9977   1.684   3.798   2.848
 5778W        W 9978  11.268  10.276   0.622
 5779W        W 9979   1.934  11.439   1.846
 5780W        W 9980   4.515  10.916  11.439
 5781W        W 9981   2.752   2.061   9.037
 5782W        W 9982   6.159   9.078   2.309
 5783W        W 9983   8.964   0.394   2.732
 5784W        W 9984   9.553   6.442   9.589
 5785W        W 9985   1.374   3.825  10.956
 5786W        W 9986   7.429   7.610  11.712
 5787W        W 9987   0.989   3.673  10.404
 5788W        W 9988   4.903   7.202   0.574
 5789W        W 9989  10.432  10.762   2.460
 5790W        W 9990   3.320   3.757   9.779
 5791W        W 9991   1.757  11.394   3.597
 5792W        W 9992   7.221   7.516   1.007
 5793W        W 9993   3.133  10.797  11.288
 5794W        W 9994   0.287  10.080   1.400
 5795W        W 9995   8.620   1.986   1.439
 5796W        W 9996   5.168   1.935  10.941
 5797W        W 9997   4.707   6.060  10.779
 5798W        W 9998  10.073   7.596   1.357
 5799W        W 9999   2.360   9.890   2.391
 5800W        W10000  10.350   4.962   8.846
 5801W        W10001   4.673  10.576   1.828
 5802W        W10002   6.997   0.373   0.125
 5803W        W10003   0.605  11.352  11.784
 5804W        W10004   9.211   5.215  11.332
 5805W        W10005   8.026   5.665   8.688
 5806W        W10006   8.562  11.037   1.782
 5807W        W10007   2.513   4.769   2.872
 5808W        W10008   3.711   3.068   9.049
 5809W        W10009   3.394   9.436   3.693
 5810W        W10010   2.594   9.344   0.723
 5811W        W10011   2.678   4.296  10.270
 5812W        W10012   3.691   4.257   2.177
 5813W        W10013   8.466   9.581   0.163
 5814W        W10014   7.723   6.429   9.173
 5815W        W10015   1.914   0.987   0.745
 5816W        W10016   8.981  10.883   2.544
 5817W        W10017   2.837   5.557  10.768
 5818W        W10018  10.887  10.530   0.874
 5819W        W10019   5.643  10.104   9.936
 5820W        W10020   5.623   9.577   3.227
 5821W        W10021   6.571   1.245   2.350
 5822W        W10022   6.107   1.510   8.963
 5823W        W10023   0.864   4.866   8.515
 5824W        W10024   8.695   4.741   9.283
 5825W        W10025   6.212   1.609   3.023
 5826W        W10026   6.665   0.584  11.768
 5827W        W10027   4.693   1.316   0.800
 5828W        W10028   9.453   8.770  10.835
 5829W        W10029   2.646   9.002  11.160
 5830W        W10030   3.649   2.368   1.949
 5831W        W10031   0.005   8.939   2.336
 5832W        W10032   1.806   8.682   1.912
 5833W        W10033   8.940   8.452  11.035
 5834W        W10034   8.043   4.790   1.718
 5835W        W10035   7.110   6.490   1.180
 5836W        W10036   5.967   8.477   0.330
 5837W        W10037   9.931   1.869   2.483
 5838W        W10038   8.649   6.459   9.133
 5839W        W10039   6.232   3.644   3.143
 5840W        W10040   2.595   8.813   1.313
 5841W        W10041   3.661   9.941   1.343
 5842W        W10042   0.877   4.614  11.812
 5843W        W10043  11.415   3.651  11.467
 5844W        W10044  10.474   5.711  11.917
 5845W        W10045   7.493   4.075   9.817
 5846W        W10046   7.894   7.931   3.147
 5847W        W10047   1.463   9.888   9.289
 5848W        W10048  10.537   0.054   2.771
 5849W        W10049   2.232  10.664   0.884
 5850W        W10050   2.887   3.442  11.355
 5851W        W10051  11.437   1.065  11.291
 5852W        W10052   8.287   3.723   0.862
 5853W        W10053   5.298   9.776   1.179
 5854W        W10054   0.331   7.483   9.290
 5855W        W10055  10.405   4.211   1.799
 5856W        W10056   8.956   0.139   8.767
 5857W        W10057   0.371   8.362   1.493
 5858W        W10058  10.767   1.815   1.231
 5859W        W10059   1.165  10.344   2.321
 5860W        W10060  10.081   3.259  11.445
 5861W        W10061   6.414   7.805  10.900
 5862W        W10062   6.050   4.332   0.842
 5863W        W10063   6.645   1.287   0.429
 5864W        W10064   8.004   4.262  11.119
 5865W        W10065   8.732   5.811  10.572
 5866W        W10066   7.407   8.298  10.081
 5867W        W10067   8.930   8.073   9.893
 5868W        W10068   6.744  11.415   1.339
 5869W        W10069   1.626   6.166   9.519
 5870W        W10070   1.700   0.946  10.147
 5871W        W10071   1.646   2.503   3.575
 5872W        W10072   6.846   1.407   1.503
 5873W        W10073   5.230   2.156  11.843
 5874W        W10074  11.362   0.401  11.728
 5875W        W10075   2.173   9.006   1.992
 5876W        W10076   8.906   8.510   2.186
 5877W        W10077   3.906   7.042   3.255
 5878W        W10078  10.845   5.867   3.607
 5879W        W10079   2.486   7.078  10.510
 5880W        W10080  10.486   5.641   1.404
 5881W        W10081   3.194   5.625  11.531
 5882W        W10082   7.937   7.006   9.582
 5883W        W10083   6.641   0.336   3.050
 5884W        W10084   9.371   3.175   8.502
 5885W        W10085   4.708   7.046   9.030
 5886W        W10086   5.089   7.151  10.991
 5887W        W10087   8.327   4.815   2.169
 5888W        W10088  11.305   4.787   0.285
 5889W        W10089   2.364   8.658   2.885
 5890W        W10090   6.480   8.003   8.677
 5891W        W10091  11.054   2.843   1.870
 5892W        W10092   6.540   8.489   9.900
 5893W        W10093   5.562   3.273   9.813
 5894W        W10094  10.537   5.541  11.043
 5895W        W10095  10.290   0.287   1.342
 5896W        W10096   3.415  10.193   0.643
 5897W        W10097   4.921   1.152  10.511
 5898W        W10098   2.664  10.966  11.256
 5899W        W10099   7.532  10.170  11.917
 5900W        W10100   2.113   6.658   0.361
 5901W        W10101  10.362   1.062   9.690
 5902W        W10102   7.325   8.322   1.433
 5903W        W10103   2.539   8.876  10.359
 5904W        W10104   2.684   5.833   1.605
 5905W        W10105   7.504   9.552   2.794
 5906W        W10106   8.646   3.283   2.653
 5907W        W10107   6.489  11.389   2.838
 5908W        W10108   5.300   4.769   9.424
 5909W        W10109   1.673   9.755  10.102
 5910W        W10110   0.256   7.613   2.751
 5911W        W10111   2.901  10.428   1.371
 5912W        W10112  10.392   3.819   1.205
 5913W        W10113   6.227   8.167   9.090
 5914W        W10114   9.518   0.236   0.599
 5915W        W10115   6.079   7.001   1.679
 5916W        W10116   4.485  10.506  10.580
 5917W        W10117   0.376  11.029   8.967
 5918W        W10118  11.065   1.870   0.789
 5919W        W10119   3.380   9.777   0.942
 5920W        W10120   5.432   1.059  10.436
 5921W        W10121   6.560   9.545   1.635
 5922W        W10122   6.261   1.907   8.409
 5923W        W10123   0.290   8.470   8.795
 5924W        W10124   1.662   3.143  11.947
 5925W        W10125   9.033   8.513   3.234
 5926W        W10126   4.629   8.751   9.791
 5927W        W10127   9.299   2.835   8.912
 5928W        W10128   7.263  11.482   1.322
 5929W        W10129   6.287   8.814   0.032
 5930W        W10130   9.463   6.159   8.699
 5931W        W10131  10.008   4.565   1.792
 5932W        W10132   1.741   1.981   3.548
 5933W        W10133   1.034   2.300   3.575
 5934W        W10134  11.228   9.462  10.514
 5935W        W10135   2.631   1.102   8.798
 5936W        W10136  10.882   4.725   9.962
 5937W        W10137   2.126   6.807  10.761
 5938W        W10138   7.144   7.951  11.965
 5939W        W10139   1.442  10.887  10.740
 5940W        W10140   9.268   7.495  11.912
 5941W        W10141   4.225   8.452   1.837
 5942W        W10142  10.013   5.773   1.228
 5943W        W10143   4.476  10.691   2.297
 5944W        W10144  10.074   2.658  11.969
 5945W        W10145   2.773   8.496   2.007
 5946W        W10146  10.516   4.546  10.296
 5947W        W10147   7.392   9.867  10.985
 5948W        W10148   4.218  11.203   2.252
 5949W        W10149   8.250   8.581   0.788
 5950W        W10150   8.971   6.771   0.500
 5951W        W10151   6.707   1.862   9.807
 5952W        W10152   1.607   0.676   0.424
 5953W        W10153   9.189   6.735   2.632
 5954W        W10154   9.007   7.390   0.804
 5955W        W10155   7.114   5.568   9.969
 5956W        W10156   2.642   9.927   1.353
 5957W        W10157  11.322   0.677   0.159
 5958W        W10158   7.122   2.529   0.259
 5959W        W10159   5.304   5.259   1.481
 5960W        W10160   5.222   0.216  10.196
 5961W        W10161  10.997   8.887   2.293
 5962W        W10162   0.698   9.243   8.897
 5963W        W10163   7.456   1.833   2.469
 5964W        W10164  10.975   5.979   8.967
 5965W        W10165   2.659  11.478   2.785
 5966W        W10166   0.696   4.117  11.537
 5967W        W10167   8.878   5.583  11.022
 5968W        W10168  11.182   7.215  11.477
 5969W        W10169   5.787   6.988  10.066
 5970W        W10170   9.210   2.143   3.463
 5971W        W10171   1.774  11.299   2.309
 5972W        W10172   6.935   2.225  10.083
 5973W        W10173  10.434   7.573   8.868
 5974W        W10174   0.899   0.223   1.647
 5975W        W10175   8.603   8.978  11.478
 5976W        W10176   1.420   9.813   1.999
 5977W        W10177   4.275   4.332   2.814
 5978W        W10178  10.067   5.068   1.946
 5979W        W10179  10.390  11.086  11.613
 5980W        W10180  10.613   3.150   2.866
 5981W        W10181  10.967   7.674  10.789
 5982W        W10182   7.029   7.127  11.047
 5983W        W10183   9.359   9.522  11.690
 5984W        W10184  10.604   8.014   0.895
 5985W        W10185   5.050   5.235  10.958
 5986W        W10186   1.584   1.937   2.639
 5987W        W10187   1.455   4.504   1.091
 5988W        W10188   9.244   7.062  11.508
 5989W        W10189   0.185   9.451   2.591
 5990W        W10190   1.062   6.689   0.322
 5991W        W10191  11.422   1.500  11.575
 5992W        W10192   6.269   8.961   9.373
 5993W        W10193   3.824  10.854   2.281
 5994W        W10194   6.151   5.704  11.754
 5995W        W10195   5.568   1.854   2.667
 5996W        W10196   2.505   8.950   9.468
 5997W        W10197  10.025  10.963   0.428
 5998W        W10198   9.982   8.577   3.462
 5999W        W10199   7.141   6.982   3.405
 6000W        W10200   4.170  10.021  10.277
 6001W        W10201   3.322  10.335  11.291
 6002W        W10202   3.014   6.232   1.593
 6003W        W10203   2.714   0.430   3.017
 6004W        W10204   6.149  11.017  11.929
 6005W        W10205   8.001   6.095   2.002
 6006W        W10206   4.549   4.324  11.375
 6007W        W10207   5.044   0.180   0.745
 6008W        W10208   4.044   9.714  11.065
 6009W        W10209   9.965   8.577   2.953
 6010W        W10210   5.134   3.602   3.205
 6011W        W10211  10.438   1.922  10.055
 6012W        W10212   2.685   5.464   3.555
 6013W        W10213   7.658   9.857  10.515
 6014W        W10214   8.266   5.575   1.208
 6015W        W10215   3.885   0.776  11.743
 6016W        W10216   1.011   6.982   3.596
 6017W        W10217   2.343   7.962   3.273
 6018W        W10218   0.546   7.927   3.562
 6019W        W10219   7.919   1.434   9.750
 6020W        W10220   1.358   2.528   8.787
 6021W        W10221   8.253   8.065  10.556
 6022W        W10222  10.863   0.984   2.217
 6023W        W10223   0.489   1.916   1.007
 6024W        W10224   9.358   9.606   9.439
 6025W        W10225   7.928   5.174   2.260
 6026W        W10226   8.796   4.598   2.265
 6027W        W10227   5.132   3.700   0.203
 6028W        W10228   9.299   7.141   2.339
 6029W        W10229   8.377   0.445   9.425
 6030W        W10230   7.907  11.250   0.762
 6031W        W10231   1.012   7.324  10.928
 6032W        W10232   9.104   5.168   9.883
 6033W        W10233   6.518  10.266   0.316
 6034W        W10234   6.993   3.582   2.674
 6035W        W10235   6.199  11.437   1.902
 6036W        W10236   6.074   9.499   3.522
 6037W        W10237   1.476   8.885   3.606
 6038W        W10238   5.538   9.537   0.767
 6039W        W10239  11.011   3.221   9.124
 6040W        W10240   0.714   6.523   3.486
 6041W        W10241  11.493   5.356  11.226
 6042W        W10242   2.719   4.024   2.508
 6043W        W10243   9.774   3.086   0.028
 6044W        W10244   7.099   4.452  10.847
 6045W        W10245   3.806   6.962   0.632
 6046W        W10246   7.461   6.594   2.242
 6047W        W10247  11.034  10.972   9.526
 6048W        W10248   6.980   8.664  11.552
 6049W        W10249   4.642   7.217   1.040
 6050W        W10250   1.724   0.316   2.145
 6051W        W10251   5.503   4.551   9.841
 6052W        W10252  10.408   3.043  11.089
 6053W        W10253  10.189   7.043   1.404
 6054W        W10254   2.441   8.627   9.880
 6055W        W10255   8.430   0.299  10.993
 6056W        W10256  11.022   5.373   3.504
 6057W        W10257  10.629   1.412   2.396
 6058W        W10258   9.591   8.242   0.892
 6059W        W10259   3.674   9.485  11.335
 6060W        W10260   6.572   0.331  10.551
 6061W        W10261   3.662   5.770   9.959
 6062W        W10262   6.982   1.747  11.763
 6063W        W10263   9.854   8.142  10.333
 6064W        W10264  10.371   3.979   2.575
 6065W        W10265   8.246   2.174   2.765
 6066W        W10266  10.215   2.176  11.395
 6067W        W10267   2.440  10.428   3.229
 6068W        W10268   3.753   9.814  10.084
 6069W        W10269   8.631   1.048   8.614
 6070W        W10270   2.589   4.866   1.786
 6071W        W10271   6.044   3.262   2.852
 6072W        W10272   2.684   3.389   9.441
 6073W        W10273  10.014   7.680  10.620
 6074W        W10274   6.907   5.869  10.917
 6075W        W10275   5.947  10.803   2.239
 6076W        W10276   4.493   7.667   1.271
 6077W        W10277   9.623  11.075   1.421
 6078W        W10278   5.915   5.025   2.241
 6079W        W10279   9.939   2.212   9.401
 6080W        W10280   4.545   4.458   4.049
 6081W        W10281   9.078   8.226   0.969
 6082W        W10282   6.050   8.487  10.752
 6083W        W10283  10.176  10.376   2.151
 6084W        W10284   6.281   8.471   8.660
 6085W        W10285   7.697   3.493   1.185
 6086W        W10286   1.843   1.734   2.239
 6087W        W10287   3.121  11.345   9.610
 6088W        W10288   8.963   0.686  11.766
 6089W        W10289   0.773   9.263   9.856
 6090W        W10290   9.353   4.746   0.816
 6091W        W10291   2.205   5.735   1.455
 6092W        W10292   0.771   4.304   9.092
 6093W        W10293   8.919   3.913   9.005
 6094W        W10294   0.291   9.774   0.440
 6095W        W10295   1.874   7.767   8.663
 6096W        W10296   4.857   8.942   1.024
 6097W        W10297  10.871   5.053   9.555
 6098W        W10298   7.374   9.647   9.301
 6099W        W10299   4.259   9.480   2.516
 6100W        W10300  11.079   4.303   1.024
 6101W        W10301   0.884   4.165   2.182
 6102W        W10302   5.802   6.151  10.222
 6103W        W10303   3.457   9.518   9.812
 6104W        W10304   9.937   1.718   1.538
 6105W        W10305   9.501   5.371   0.152
 6106W        W10306   2.841   5.730   0.710
 6107W        W10307   6.990   4.728  11.656
 6108W        W10308   8.771   8.572   1.708
 6109W        W10309   3.898   9.820   0.886
 6110W        W10310   9.560   3.753  11.353
 6111W        W10311   3.662   0.248  10.524
 6112W        W10312   4.617   6.997  11.065
 6113W        W10313   7.833   0.852  11.246
 6114W        W10314   8.483  11.282  10.040
 6115W        W10315   2.769  10.640   0.182
 6116W        W10316   8.978   2.822  10.608
 6117W        W10317   4.429  10.938   3.383
 6118W        W10318  10.320  10.642  11.326
 6119W        W10319   3.737   8.108   0.312
 6120W        W10320   2.848   8.191  11.492
 6121W        W10321   4.729   3.308  10.545
 6122W        W10322   1.161   8.965   9.751
 6123W        W10323  10.117   1.457  11.342
 6124W        W10324   6.242   1.359   9.463
 6125W        W10325   0.477   7.848  10.412
 6126W        W10326   3.114   8.902   0.441
 6127W        W10327   3.345   0.430   0.504
 6128W        W10328   5.183   8.158   9.430
 6129W        W10329  11.213   2.790   9.345
 6130W        W10330   9.333  10.515   2.326
 6131W        W10331   9.055  10.429   3.308
 6132W        W10332   0.341   8.858  11.380
 6133W        W10333   2.167   2.399   9.534
 6134W        W10334   8.045   0.361   1.504
 6135W        W10335   9.702  11.452   9.430
 6136W        W10336   1.695   4.811  11.544
 6137W        W10337   1.969  10.543   1.782
 6138W        W10338   8.137   8.909   0.345
 6139W        W10339   6.269   6.623   1.950
 6140W        W10340   4.208   4.629  11.765
 6141W        W10341   7.096   8.939   0.600
 6142W        W10342   4.208   2.728   3.601
 6143W        W10343   2.993   3.731   3.655
 6144W        W10344   3.774   8.828   9.249
 6145W        W10345   6.433   0.460   0.207
 6146W        W10346   6.175  11.269   2.371
 6147W        W10347   5.151   6.583   0.687
 6148W        W10348   5.169  11.059   2.704
 6149W        W10349   2.727   0.189  10.436
 6150W        W10350   7.712  10.778   2.157
 6151W        W10351   8.149  11.035   1.418
 6152W        W10352   5.457   8.050  10.755
 6153W        W10353  10.297   1.296   0.690
 6154W        W10354   5.601   8.571   3.791
 6155W        W10355   9.521   2.523   0.604
 6156W        W10356   5.190   4.468   2.843
 6157W        W10357   0.905   3.156   3.607
 6158W        W10358   2.375  11.157   0.979
 6159W        W10359   3.645   6.907  10.658
 6160W        W10360   6.609   5.633  10.103
 6161W        W10361   6.437   2.388  11.453
 6162W        W10362   1.993   8.448  10.880
 6163W        W10363   1.194   9.446   9.521
 6164W        W10364   6.309   7.185   0.434
 6165W        W10365   8.828   1.676   0.179
 6166W        W10366   9.782   2.841   2.380
 6167W        W10367   4.027   4.625   1.388
 6168W        W10368   5.474  10.072   2.965
 6169W        W10369   6.219  10.343   8.913
 6170W        W10370   7.004  10.976   9.041
 6171W        W10371   5.750   2.835   2.888
 6172W        W10372   1.162   1.672  11.757
 6173W        W10373  11.488   9.101  11.951
 6174W        W10374   7.888   5.467  11.884
 6175W        W10375   5.584   7.115  11.131
 6176W        W10376   4.304   2.049   8.804
 6177W        W10377   6.187   6.484   1.476
 6178W        W10378   3.321   9.975   2.771
 6179W        W10379   0.721   1.156   0.198
 6180W        W10380   0.283  10.051   9.034
 6181W        W10381   7.144   9.991   9.601
 6182W        W10382  10.911   6.241   2.503
 6183W        W10383   6.668  10.354   2.208
 6184W        W10384  10.847   3.425   9.625
 6185W        W10385   7.931   1.310  10.264
 6186W        W10386   9.821   4.234   9.815
 6187W        W10387   7.291   0.747   2.306
 6188W        W10388   0.903   8.051   2.517
 6189W        W10389  10.396   9.887   9.976
 6190W        W10390   3.733   6.480   0.355
 6191W        W10391   5.361   5.484   2.747
 6192W        W10392   1.854   4.098   1.350
 6193W        W10393   9.112  10.737   8.965
 6194W        W10394  10.069   1.758   9.082
 6195W        W10395  10.265   0.677   3.293
 6196W        W10396   1.335   6.597  11.350
 6197W        W10397   6.524   1.749   9.278
 6198W        W10398   9.324   0.511   8.716
 6199W        W10399   6.600  10.547   9.633
 6200W        W10400   1.782   8.518  10.418
 6201W        W10401   6.564   4.203   0.248
 6202W        W10402   0.745   4.574   3.418
 6203W        W10403   9.319   4.146  11.993
 6204W        W10404   6.707   9.447   1.162
 6205W        W10405   9.943  10.578   1.741
 6206W        W10406   2.112   7.600   0.246
 6207W        W10407   8.883   0.995   2.887
 6208W        W10408   8.541  10.364   3.155
 6209W        W10409   6.973  11.443  11.872
 6210W        W10410   3.395   9.888   1.783
 6211W        W10411   6.199   8.592   0.850
 6212W        W10412  11.207   7.920  10.353
 6213W        W10413  11.236   0.856   3.043
 6214W        W10414   7.727   0.752  10.026
 6215W        W10415   8.142   5.419   0.742
 6216W        W10416   9.063   5.688   1.122
 6217W        W10417   6.122   7.577   3.604
 6218W        W10418   8.830   1.472   0.877
 6219W        W10419   5.975  11.341  10.351
 6220W        W10420   5.971   8.065   8.630
 6221W        W10421   8.463   7.414   2.316
 6222W        W10422   4.579   0.063  11.998
 6223W        W10423  10.012   3.318   2.256
 6224W        W10424   8.717   8.401   9.569
 6225W        W10425  11.347   3.202   2.139
 6226W        W10426   0.689   1.656   0.009
 6227W        W10427   4.887   2.299   0.618
 6228W        W10428   9.319   8.325   3.624
 6229W        W10429  10.283   2.676  11.452
 6230W        W10430  10.581   8.111   9.177
 6231W        W10431   8.579   8.778   3.256
 6232W        W10432   0.925  10.297  11.850
 6233W        W10433   8.202   5.971  10.483
 6234W        W10434   2.088  10.040   3.617
 6235W        W10435   3.619   7.241   0.084
 6236W        W10436   4.749   9.895  11.434
 6237W        W10437   0.366  10.309  10.493
 6238W        W10438   9.297   0.571  10.957
 6239W        W10439   5.066   1.810   2.745
 6240W        W10440   1.996  10.229   0.744
 6241W        W10441   1.009   6.062  10.796
 6242W        W10442   4.898   7.525   3.053
 6243W        W10443   5.440   0.456   3.243
 6244W        W10444   7.930   0.487  10.869
 6245W        W10445   4.555   3.220   1.691
 6246W        W10446   2.270   6.730   1.795
 6247W        W10447   9.333   1.446   0.018
 6248W        W10448   3.787   0.322   1.900
 6249W        W10449   7.487   3.552  10.004
 6250W        W10450   4.526   7.515  11.822
 6251W        W10451   4.596   3.885  10.044
 6252W        W10452   5.749   5.682   9.547
 6253W        W10453   8.870  10.277  11.537
 6254W        W10454   5.472   1.372  11.510
 6255W        W10455   5.229   0.480   9.769
 6256W        W10456  11.455   6.896   2.658
 6257W        W10457   1.926   8.108  11.299
 6258W        W10458   5.983   5.341   0.747
 6259W        W10459  10.831   7.287  10.495
 6260W        W10460   5.653   8.077   1.520
 6261W        W10461   0.890  10.987   2.783
 6262W        W10462   0.807   6.383  11.999
 6263W        W10463   1.342  11.242   2.683
 6264W        W10464   7.308   6.890   1.419
 6265W        W10465   4.751   9.338  11.199
 6266W        W10466   8.913   9.009   2.048
 6267W        W10467   8.580   4.552   0.453
 6268W        W10468   8.888   4.237   1.676
 6269W        W10469   7.859   3.542   3.644
 6270W        W10470   5.618   8.022   0.988
 6271W        W10471   0.880   9.681  11.027
 6272W        W10472   9.913  11.468   2.153
 6273W        W10473   1.793   0.384   3.143
 6274W        W10474   9.063   6.229  11.150
 6275W        W10475   9.879  10.451  10.599
 6276W        W10476   7.834   5.604   2.584
 6277W        W10477  11.329   6.516   2.309
 6278W        W10478   0.146   2.194  10.307
 6279W        W10479   3.536   4.259  11.499
 6280W        W10480  10.499   0.393  10.490
 6281W        W10481   9.676   0.731   1.665
 6282W        W10482   3.974   3.654   1.204
 6283W        W10483   2.603   6.184   0.748
 6284W        W10484  11.082   4.700  11.818
 6285W        W10485   1.641   4.811   0.528
 6286W        W10486   4.162  10.563  11.008
 6287W        W10487   1.617   1.847   8.522
 6288W        W10488   3.696   8.345   9.435
 6289W        W10489   1.412  10.730   2.550
 6290W        W10490   4.243  10.380   9.579
 6291W        W10491   7.292   3.684   3.152
 6292W        W10492   1.197   4.554   0.637
 6293W        W10493   7.592  10.351  11.438
 6294W        W10494   9.007   9.818   9.132
 6295W        W10495   3.305   2.111   0.857
 6296W        W10496   4.200   2.006   2.206
 6297W        W10497   3.379   1.798  10.798
 6298W        W10498   1.351   8.046   2.293
 6299W        W10499   3.096   4.267   9.129
 6300W        W10500   7.147   3.051   1.916
 6301W        W10501   2.695   9.089   2.849
 6302W        W10502   7.670   3.658   9.504
 6303W        W10503  10.982  11.009   3.125
 6304W        W10504   7.734   0.382  10.391
 6305W        W10505   2.327   4.364   2.628
 6306W        W10506   8.436   2.834   9.528
 6307W        W10507   3.372   4.454   8.499
 6308W        W10508   9.198   6.669   4.045
 6309W        W10509   6.703   2.837  10.066
 6310W        W10510   7.886   0.974   8.891
 6311W        W10511   3.864   6.482  10.449
 6312W        W10512   5.693   1.869   1.106
 6313W        W10513   9.542   1.897   9.304
 6314W        W10514   8.951  11.221   9.093
 6315W        W10515   1.438   0.745   2.991
 6316W        W10516   2.713   8.676  11.549
 6317W        W10517   6.849  10.086   3.111
 6318W        W10518   6.933   1.947   8.997
 6319W        W10519   3.664   9.384  10.329
 6320W        W10520   9.450   0.534   3.426
 6321W        W10521   5.045   4.640   8.187
 6322W        W10522   9.992   2.338   0.366
 6323W        W10523   2.140   4.607   1.885
 6324W        W10524   6.756   8.369   8.453
 6325W        W10525  10.660   6.095  10.271
 6326W        W10526   7.483   1.254  10.031
 6327W        W10527   4.105   1.906   9.617
 6328W        W10528   5.961   9.148   9.014
 6329W        W10529   1.381   3.587   9.006
 6330W        W10530   9.579   6.127  11.049
 6331W        W10531   1.078   4.490   2.576
 6332W        W10532   1.738   3.927   8.901
 6333W        W10533   1.927   2.106   1.369
 6334W        W10534   3.726   3.131  10.812
 6335W        W10535   5.655   1.005   0.846
 6336W        W10536   9.407   0.807  11.393
 6337W        W10537   5.503   7.049   1.379
 6338W        W10538   3.643   9.555  11.883
 6339W        W10539  10.420   7.102   3.241
 6340W        W10540   0.140   2.421   3.286
 6341W        W10541  10.383   4.053   3.131
 6342W        W10542   9.429   3.167   3.316
 6343W        W10543   0.919   4.026   2.670
 6344W        W10544   8.192   3.851   2.939
 6345W        W10545   7.915   7.989   0.110
 6346W        W10546   0.755   4.688   0.916
 6347W        W10547   8.164   2.386   9.335
 6348W        W10548   5.606   4.724   1.987
 6349W        W10549   3.919   8.946   0.974
 6350W        W10550   8.895   6.024   1.857
 6351W        W10551   6.706   0.895   9.809
 6352W        W10552   8.806   3.448  11.986
 6353W        W10553   6.563   2.591   0.920
 6354W        W10554   6.928   6.008   1.814
 6355W        W10555   9.558   8.623   9.438
 6356W        W10556   1.309  10.795   0.377
 6357W        W10557   3.731   8.382  10.794
 6358W        W10558   0.817   1.752   9.956
 6359W        W10559   1.803   9.366   0.353
 6360W        W10560   2.341   5.222  10.000
 6361W        W10561   9.310   1.707   0.861
 6362W        W10562   9.840   0.173   2.743
 6363W        W10563   9.466  11.016   9.248
 6364W        W10564   1.948   2.760   3.227
 6365W        W10565   9.298   1.081   1.704
 6366W        W10566  10.423   5.950   9.025
 6367W        W10567   3.085   1.106   9.702
 6368W        W10568   8.457   7.514   0.411
 6369W        W10569   5.566  10.166   3.478
 6370W        W10570   9.117   1.841   3.076
 6371W        W10571   9.406   3.300   9.822
 6372W        W10572   9.319   5.731  11.269
 6373W        W10573   0.512   7.009   3.497
 6374W        W10574  10.271   3.122   3.486
 6375W        W10575   3.638   3.127   9.893
 6376W        W10576   1.396   8.092   9.261
 6377W        W10577   0.461   9.773   2.873
 6378W        W10578   1.307   0.351   3.323
 6379W        W10579   6.661   7.135   2.687
 6380W        W10580   7.353   3.571  11.878
 6381W        W10581   7.644  11.052   0.319
 6382W        W10582   4.780   8.951   2.012
 6383W        W10583   4.228   4.369   3.633
 6384W        W10584   5.466   8.465   0.244
 6385W        W10585   1.747   2.219   9.808
 6386W        W10586   8.616   5.898   2.291
 6387W        W10587   1.194   9.931  10.251
 6388W        W10588   3.039   7.414   1.173
 6389W        W10589   9.815   2.857   1.399
 6390W        W10590   6.085   0.393   1.200
 6391W        W10591   4.341  11.321   1.336
 6392W        W10592   5.926   6.243   1.870
 6393W        W10593   0.824  10.491  11.393
 6394W        W10594   7.102   2.748   1.112
 6395W        W10595   5.324   4.169   8.309
 6396W        W10596   1.399  10.960   9.032
 6397W        W10597   4.613   9.224   8.893
 6398W        W10598   1.146   9.985   0.235
 6399W        W10599   4.921   3.355   0.915
 6400W        W10600  11.089   1.625   3.465
 6401W        W10601   4.901   2.831   9.526
 6402W        W10602  10.142   7.922   9.327
 6403W        W10603   5.207  10.103  11.355
 6404W        W10604   2.748   3.859  10.504
 6405W        W10605   7.185   3.014   2.433
 6406W        W10606   2.850   6.034   0.296
 6407W        W10607   9.453   5.655   8.912
 6408W        W10608   8.434   4.097   8.766
 6409W        W10609  11.008   2.293   0.491
 6410W        W10610   5.237   2.411   9.462
 6411W        W10611   2.151   9.039  10.043
 6412W        W10612   4.074  10.401   2.474
 6413W        W10613   0.449   6.948   0.222
 6414W        W10614   9.583   5.036   1.221
 6415W        W10615   3.351  10.391   1.644
 6416W        W10616   3.382   6.657   0.686
 6417W        W10617   3.282   1.587   0.650
 6418W        W10618   4.618   8.425  11.251
 6419W        W10619   7.973   2.844   9.256
 6420W        W10620  10.486   1.663   3.286
 6421W        W10621   3.675   1.263   0.805
 6422W        W10622   1.650   9.105   9.887
 6423W        W10623   4.592   5.243  10.184
 6424W        W10624   5.143   0.434  11.260
 6425W        W10625   8.154  10.752   1.883
 6426W        W10626   2.409   9.274  10.694
 6427W        W10627  10.433   3.983  11.412
 6428W        W10628   6.152   2.835   9.393
 6429W        W10629   1.347   7.585   0.666
 6430W        W10630   4.035   2.901   8.620
 6431W        W10631  10.116   3.822   0.467
 6432W        W10632  11.335   1.374  10.294
 6433W        W10633   8.015   6.995   0.204
 6434W        W10634   1.118   9.494  11.449
 6435W        W10635  11.343   9.808   2.412
 6436W        W10636   9.601  11.121  10.729
 6437W        W10637   4.182   8.134  11.433
 6438W        W10638   9.422   6.888   1.163
 6439W        W10639   4.732   5.749   1.815
 6440W        W10640   3.141  10.966  10.355
 6441W        W10641   7.176   2.912   0.625
 6442W        W10642   6.683   0.023   9.634
 6443W        W10643   7.139  10.483   0.939
 6444W        W10644   9.609   1.218   2.117
 6445W        W10645   3.812  11.269   0.439
 6446W        W10646   6.682   7.946   4.177
 6447W        W10647   1.255   9.385   1.750
 6448W        W10648   4.205   6.627   3.142
 6449W        W10649   9.534   8.726  11.328
 6450W        W10650   1.188   5.924   0.839
 6451W        W10651   0.003   0.486   2.174
 6452W        W10652   2.906   7.981   1.835
 6453W        W10653   4.740   4.437   8.573
 6454W        W10654  10.453   3.745  10.347
 6455W        W10655   6.066   4.573   8.894
 6456W        W10656   3.480   0.006   8.688
 6457W        W10657   0.934   5.099  10.802
 6458W        W10658   0.234  10.575  10.083
 6459W        W10659   9.152  10.833  10.727
 6460W        W10660   7.582   6.065   1.031
 6461W        W10661   9.568   9.135   3.386
 6462W        W10662   7.695   2.145  11.317
 6463W        W10663   0.459   9.101  11.817
 6464W        W10664  10.341   5.455  10.128
 6465W        W10665   8.889   3.306   2.150
 6466W        W10666   0.341   8.978   2.720
 6467W        W10667   9.170   3.295  10.718
 6468W        W10668   4.810   8.525   9.367
 6469W        W10669  11.245   4.758   2.881
 6470W        W10670   7.214  11.229   2.356
 6471W        W10671   6.104   4.047   0.395
 6472W        W10672   1.861   3.710   9.805
 6473W        W10673  11.244   8.637   2.678
 6474W        W10674   1.549   8.284  11.620
 6475W        W10675   7.837  11.419   8.904
 6476W        W10676   0.693   5.284   8.784
 6477W        W10677   3.777   9.314  10.848
 6478W        W10678   2.781   6.989   9.255
 6479W        W10679   8.056   5.965  11.912
 6480W        W10680   3.899   2.378  10.299
 6481W        W10681   8.405   1.328  10.033
 6482W        W10682   0.483  11.021   2.172
 6483W        W10683   0.877   2.355  11.191
 6484W        W10684   9.641   6.100   3.369
 6485W        W10685   2.707   5.206   3.042
 6486W        W10686   1.755   8.915   0.827
 6487W        W10687   6.993  10.714  11.256
 6488W        W10688  11.057   7.222   2.612
 6489W        W10689   9.847   5.460  10.376
 6490W        W10690   1.258   3.256   3.241
 6491W        W10691   7.543   2.830   0.259
 6492W        W10692   4.387   0.511  11.085
 6493W        W10693   0.882   9.995   2.680
 6494W        W10694  10.342   0.887   0.992
 6495W        W10695   5.580   6.913   9.532
 6496W        W10696   0.231   6.619   3.698
 6497W        W10697   6.476   7.983   2.425
 6498W        W10698   5.612   3.678   2.801
 6499W        W10699   5.278   3.125  10.216
 6500W        W10700   1.337   5.830   1.318
 6501W        W10701   8.408   7.926   9.502
 6502W        W10702   5.710   0.878   8.626
 6503W        W10703   7.448   0.009  10.705
 6504W        W10704   9.021   2.023  11.868
 6505W        W10705   8.843   9.907   1.550
 6506W        W10706   4.194   8.241  10.940
 6507W        W10707  10.048   8.622  10.202
 6508W        W10708   6.415   0.451   9.716
 6509W        W10709   5.137  11.073   2.190
 6510W        W10710   2.874   6.975   0.363
 6511W        W10711   1.820   1.766   9.524
 6512W        W10712   7.881   0.184   9.346
 6513W        W10713   9.311   1.721  10.892
 6514W        W10714   4.008  11.300   1.759
 6515W        W10715   0.480   0.589   0.961
 6516W        W10716  11.390   9.513   0.268
 6517W        W10717   2.200  10.992  11.889
 6518W        W10718  10.451   0.823  10.170
 6519W        W10719   8.798   9.480   8.790
 6520W        W10720   0.029   8.117   9.531
 6521W        W10721   9.585   1.652   0.433
 6522W        W10722   5.241   4.270   0.394
 6523W        W10723   0.646   5.011   0.043
 6524W        W10724   3.480   7.804  10.356
 6525W        W10725  10.097   6.983  11.745
 6526W        W10726   4.079  11.422  11.995
 6527W        W10727   4.183   0.348   1.020
 6528W        W10728   1.760   8.091  10.130
 6529W        W10729   7.550   8.819   3.396
 6530W        W10730  10.440   9.877   2.429
 6531W        W10731   6.082   7.102   2.200
 6532W        W10732  10.339   4.693   0.952
 6533W        W10733  10.484   5.140   1.201
 6534W        W10734   7.844   9.912   3.118
 6535W        W10735  11.474   7.127   1.731
 6536W        W10736   6.131  10.351   9.822
 6537W        W10737   7.618   0.243   3.275
 6538W        W10738   2.880   6.620   0.761
 6539W        W10739   2.787  10.401  11.214
 6540W        W10740   4.199   3.583   3.296
 6541W        W10741  10.483   8.440   1.672
 6542W        W10742   0.206   0.850   9.212
 6543W        W10743   5.559   8.814  11.463
 6544W        W10744   5.967   8.322   9.923
 6545W        W10745   7.360   2.101   0.421
 6546W        W10746   3.136   1.748   3.022
 6547W        W10747   1.415   5.315   1.807
 6548W        W10748   6.009   8.632   9.048
 6549W        W10749   0.326   1.824   0.526
 6550W        W10750   0.320   4.703   2.062
 6551W        W10751   1.664   9.884   3.358
 6552W        W10752   1.263   6.667   2.161
 6553W        W10753   0.533   4.403   2.475
 6554W        W10754   5.760   0.796   1.308
 6555W        W10755   1.566   6.136   2.907
 6556W        W10756   0.429   8.089   2.650
 6557W        W10757   9.026   7.215   1.314
 6558W        W10758   1.722  10.865   3.388
 6559W        W10759   9.779   5.632   8.505
 6560W        W10760   0.630   7.664   2.279
 6561W        W10761   6.262   7.941   3.242
 6562W        W10762   4.395   5.384   0.258
 6563W        W10763   4.920   5.207   0.015
 6564W        W10764   6.598   0.363   9.230
 6565W        W10765   0.879   6.829  10.849
 6566W        W10766   6.518   9.149   1.933
 6567W        W10767   2.708   2.033   9.980
 6568W        W10768   5.029   8.422   9.851
 6569W        W10769   9.291   3.294   0.020
 6570W        W10770   8.370   7.964   3.584
 6571W        W10771   1.235   6.807   1.111
 6572W        W10772   8.916   2.131  11.383
 6573W        W10773   8.554   4.027   1.239
 6574W        W10774  10.129   5.917  10.320
 6575W        W10775   1.738   1.015   2.632
 6576W        W10776   4.212   4.338  10.926
 6577W        W10777   6.003  11.437   0.912
 6578W        W10778   1.045   6.225  11.560
 6579W        W10779   8.949   6.634  11.500
 6580W        W10780   5.470   6.201   0.821
 6581W        W10781   0.840   0.495  11.332
 6582W        W10782   2.575   0.211   1.462
 6583W        W10783   6.883   2.531   9.039
 6584W        W10784   7.829   9.355   2.018
 6585W        W10785   9.525   7.909   2.689
 6586W        W10786   5.604   5.682   1.498
 6587W        W10787   4.184   8.312   0.466
 6588W        W10788   7.749   6.894   0.986
 6589W        W10789   1.252   1.811   3.575
 6590W        W10790   6.159   6.210  10.586
 6591W        W10791   9.465   1.927   1.360
 6592W        W10792   2.306   3.132   0.875
 6593W        W10793   2.245   9.136   1.519
 6594W        W10794   7.114   3.803   0.291
 6595W        W10795   4.069   4.286   9.069
 6596W        W10796   2.796   0.669  11.864
 6597W        W10797   4.201  10.436   2.992
 6598W        W10798   9.533   4.886  11.012
 6599W        W10799   8.989   9.467  10.937
 6600W        W10800  11.439   2.151   8.606
 6601W        W10801   8.033  11.481  10.852
 6602W        W10802   8.636   1.807  10.389
 6603W        W10803   4.729   8.500   1.770
 6604W        W10804   8.628   0.223   9.814
 6605W        W10805   4.069   5.133   9.039
 6606W        W10806   3.218   7.204   9.432
 6607W        W10807   3.716   7.270  11.581
 6608W        W10808   5.530   7.131   0.811
 6609W        W10809   4.946   1.397   1.265
 6610W        W10810   9.445   7.038   3.777
 6611W        W10811   0.948   0.031   3.540
 6612W        W10812   3.832   9.518   9.405
 6613W        W10813  11.318   0.184   1.192
 6614W        W10814   0.911   8.780  10.804
 6615W        W10815   1.473  10.391   9.486
 6616W        W10816   6.216  10.406   2.523
 6617W        W10817   9.448  11.045   0.036
 6618W        W10818   0.397   2.159   9.290
 6619W        W10819   7.378   3.352   0.395
 6620W        W10820   2.419   4.582   8.806
 6621W        W10821   9.936   7.249   0.980
 6622W        W10822   0.471   3.831   9.058
 6623W        W10823   9.548   3.801   9.826
 6624W        W10824   8.607   1.293   0.442
 6625W        W10825   0.290   9.052   9.845
 6626W        W10826   8.004  10.323  11.791
 6627W        W10827   6.235   7.896  10.008
 6628W        W10828   2.765   0.953   0.798
 6629W        W10829   2.892   4.440   1.835
 6630W        W10830   6.294  10.046  10.737
 6631W        W10831  10.453   1.706   1.658
 6632W        W10832   0.421  11.248   2.754
 6633W        W10833   2.123   6.444   2.187
 6634W        W10834   5.414   4.086   3.104
 6635W        W10835   3.117   0.807   0.248
 6636W        W10836   7.652  10.673   3.511
 6637W        W10837   4.556   7.109   0.137
 6638W        W10838  10.832   6.600   1.686
 6639W        W10839   2.436  10.766   8.695
 6640W        W10840   7.005   6.916   1.851
 6641W        W10841   0.299   1.928   2.389
 6642W        W10842   2.665   7.043   0.994
 6643W        W10843   1.559   6.193   8.704
 6644W        W10844   6.012   9.254  10.139
 6645W        W10845   6.120   0.813   0.920
 6646W        W10846   6.149  10.214   0.679
 6647W        W10847   3.652   7.887  10.918
 6648W        W10848   7.438   4.651  11.913
 6649W        W10849   9.792   0.545  10.926
 6650W        W10850   7.138   7.910   0.566
 6651W        W10851   1.430   3.060   8.866
 6652W        W10852  10.799   9.025   1.841
 6653W        W10853   8.583   8.886  10.951
 6654W        W10854   9.063   8.889  11.761
 6655W        W10855   1.742   6.744   2.327
 6656W        W10856   7.457  10.877  11.440
 6657W        W10857   1.776   3.857   1.805
 6658W        W10858   1.498   5.636   8.848
 6659W        W10859   5.458   8.197   3.457
 6660W        W10860   9.418   9.594   0.523
 6661W        W10861   0.834   1.963   0.606
 6662W        W10862   4.872   3.936  11.327
 6663W        W10863  10.150   4.313   2.226
 6664W        W10864   8.530   0.938  11.693
 6665W        W10865   2.189   4.611  10.491
 6666W        W10866   1.090   9.012  10.278
 6667W        W10867   7.972   2.714   0.911
 6668W        W10868   2.233  11.496  10.420
 6669W        W10869   7.073   1.435   9.115
 6670W        W10870   1.016   8.496   1.298
 6671W        W10871   7.436   0.710  10.944
 6672W        W10872   6.485   8.627   2.607
 6673W        W10873  10.246   4.126  10.092
 6674W        W10874   1.491   1.477   8.857
 6675W        W10875   2.257  10.695  11.417
 6676W        W10876   0.981   0.019  11.466
 6677W        W10877   1.260   8.132  10.029
 6678W        W10878   2.315   4.287   3.533
 6679W        W10879   1.645   6.574   1.293
 6680W        W10880   1.362   6.677   8.797
 6681W        W10881   9.269   2.436   1.796
 6682W        W10882   8.372   4.100   9.786
 6683W        W10883   5.033   5.274   9.913
 6684W        W10884   0.258   4.092   0.355
 6685W        W10885   4.150   1.876   0.863
 6686W        W10886   7.035   4.269   9.097
 6687W        W10887   2.370   6.647   0.831
 6688W        W10888   7.016   4.083  10.480
 6689W        W10889   8.891   2.642  11.470
 6690W        W10890   8.994   2.685  10.113
 6691W        W10891  10.500   3.552   0.256
 6692W        W10892   4.031   4.021  11.857
 6693W        W10893   9.862   5.561   2.161
 6694W        W10894   7.934   7.162  11.298
 6695W        W10895   8.248   8.186   4.030
 6696W        W10896   8.708   5.513   9.387
 6697W        W10897   7.561   9.182   0.564
 6698W        W10898   8.016   6.523   3.232
 6699W        W10899   5.460   8.126   8.644
 6700W        W10900   0.077   4.224   1.128
 6701W        W10901   1.196   2.186   0.941
 6702W        W10902   9.978   9.206   1.321
 6703W        W10903   1.348   8.989   2.474
 6704W        W10904   3.702   1.889   0.641
 6705W        W10905   5.099   8.601  11.363
 6706W        W10906  10.869  10.407   0.296
 6707W        W10907   6.170   7.087   9.090
 6708W        W10908   0.921   6.117   0.431
 6709W        W10909   6.196   8.482   3.165
 6710W        W10910  11.272   0.802   9.496
 6711W        W10911   0.925   0.829   1.141
 6712W        W10912   7.508   8.071   1.865
 6713W        W10913   7.636  10.023   9.009
 6714W        W10914   5.288   8.797   4.137
 6715W        W10915  11.149   0.501   3.407
 6716W        W10916   6.053   3.554   0.488
 6717W        W10917   5.292  10.418   1.576
 6718W        W10918   8.526  11.312   8.765
 6719W        W10919   6.692   3.232  11.145
 6720W        W10920  10.884   3.767  11.565
 6721W        W10921   9.805  10.125  10.227
 6722W        W10922   0.404   5.691   9.070
 6723W        W10923   8.597   9.292   1.308
 6724W        W10924   7.581   2.585   9.556
 6725W        W10925   0.763   4.145   1.673
 6726W        W10926   8.690   3.656  11.516
 6727W        W10927   3.979   7.744   2.672
 6728W        W10928   5.758  11.351  11.289
 6729W        W10929   7.095   7.379   0.366
 6730W        W10930   7.425   1.818   9.058
 6731W        W10931   8.844   0.199   9.302
 6732W        W10932   7.360   9.249   8.968
 6733W        W10933   4.225  10.857   2.702
 6734W        W10934  11.166   2.413   0.965
 6735W        W10935   3.057   2.249   3.196
 6736W        W10936  10.981   9.282   1.432
 6737W        W10937   1.410   3.777  11.994
 6738W        W10938   1.580   1.239   8.383
 6739W        W10939   2.786   0.211   9.414
 6740W        W10940   8.435   2.732   9.035
 6741W        W10941   7.032  10.769   9.899
 6742W        W10942   2.385   2.723   2.087
 6743W        W10943   9.110   1.945   1.754
 6744W        W10944   1.584   5.703   9.730
 6745W        W10945   2.025   8.067  10.565
 6746W        W10946   1.059   6.118  10.180
 6747W        W10947  11.387   4.270   3.500
 6748W        W10948   7.495   5.689  10.294
 6749W        W10949   7.926   6.039   2.939
 6750W        W10950   7.683   4.689   8.629
 6751W        W10951   9.439   9.059   1.339
 6752W        W10952   4.067   4.588   3.198
 6753W        W10953   3.179   6.685   9.464
 6754W        W10954   7.817   1.855   0.389
 6755W        W10955   9.303   3.732   0.686
 6756W        W10956  10.550   1.671  10.502
 6757W        W10957   4.148   4.778   1.887
 6758W        W10958   8.107  11.074   2.290
 6759W        W10959   4.571   2.111   3.016
 6760W        W10960   1.770  10.672   0.623
 6761W        W10961   2.002   2.768   0.016
 6762W        W10962  10.661   9.522   1.761
 6763W        W10963  10.847   5.486   9.098
 6764W        W10964   9.851   5.613   2.677
 6765W        W10965   2.817   4.673   8.046
 6766W        W10966  10.081   5.245   9.691
 6767W        W10967   4.342   7.322  10.079
 6768W        W10968   4.225   3.819   1.627
 6769W        W10969   7.950   2.692   1.934
 6770W        W10970   6.166   4.557   2.207
 6771W        W10971   2.885   4.877  10.388
 6772W        W10972   0.677   6.143   9.818
 6773W        W10973   5.213   8.190   0.669
 6774W        W10974   5.217   9.618   9.566
 6775W        W10975   3.766   4.146   9.687
 6776W        W10976  11.042   9.794  10.882
 6777W        W10977   7.079   6.897   2.864
 6778W        W10978   3.348   7.436   2.133
 6779W        W10979   3.746   5.734   0.966
 6780W        W10980   8.726   5.946   0.298
 6781W        W10981   0.278  10.306   0.516
 6782W        W10982   0.130   6.177  11.642
 6783W        W10983   1.658   7.595   9.514
 6784W        W10984   5.121   8.442  10.878
 6785W        W10985   7.518   5.714   0.673
 6786W        W10986  10.819   8.139  10.627
 6787W        W10987   5.658   2.898   0.932
 6788W        W10988  10.652   4.335   2.266
 6789W        W10989  11.052   1.368  11.162
 6790W        W10990   3.716   7.418  10.602
 6791W        W10991   1.320   1.948  10.769
 6792W        W10992   6.760  11.205  11.269
 6793W        W10993   4.125   1.207   9.941
 6794W        W10994   5.814   2.533   0.486
 6795W        W10995   0.007   0.347   2.708
 6796W        W10996   4.324  10.482   1.471
 6797W        W10997   6.970   7.575  10.324
 6798W        W10998   5.739   5.726   3.005
 6799W        W10999   6.801   1.645  10.361
 6800W        W11000   8.815  11.016  10.377
 6801W        W11001   8.440   9.047   0.893
 6802W        W11002  10.949   3.160   2.488
 6803W        W11003   1.829   3.151  11.452
 6804W        W11004   6.249  11.479   9.351
 6805W        W11005   0.885   5.450   0.242
 6806W        W11006   9.963   7.949  11.448
 6807W        W11007   9.651   5.612   3.163
 6808W        W11008   5.569   7.658  11.924
 6809W        W11009   5.142   9.667   2.879
 6810W        W11010   5.238   0.640   8.717
 6811W        W11011   4.139   8.984   9.619
 6812W        W11012   5.184   9.944   0.289
 6813W        W11013  10.783   6.151   1.473
 6814W        W11014   9.638   3.942   0.363
 6815W        W11015   9.894   5.786   1.716
 6816W        W11016   9.111   4.692   1.846
 6817W        W11017   5.390   3.290   3.537
 6818W        W11018   4.108   5.476   1.261
 6819W        W11019   1.768   2.711   9.058
 6820W        W11020   7.844   1.298   0.795
 6821W        W11021  11.104   0.237   2.396
 6822W        W11022   0.370  10.484   1.941
 6823W        W11023   2.071   8.911  10.546
 6824W        W11024   9.962   9.142  10.102
 6825W        W11025   0.830   8.205   3.014
 6826W        W11026   2.369   4.794   2.341
 6827W        W11027   6.951   5.344  11.038
 6828W        W11028   5.804   8.126   3.091
 6829W        W11029   1.835   4.314   2.757
 6830W        W11030   9.837   8.992  10.571
 6831W        W11031  10.925   2.286   1.399
 6832W        W11032   8.841   0.648  11.208
 6833W        W11033   2.224   6.221   8.905
 6834W        W11034   0.669   0.953   0.661
 6835W        W11035  10.043   3.246  10.301
 6836W        W11036   8.014   2.699   1.425
 6837W        W11037   0.134   9.325  11.323
 6838W        W11038   5.235   9.064   8.088
 6839W        W11039   6.201   2.824  10.798
 6840W        W11040   8.382   2.235  10.255
 6841W        W11041   8.440  11.484  11.936
 6842W        W11042   6.656  10.283   1.694
 6843W        W11043   6.482   7.618   9.559
 6844W        W11044   8.483   2.881   1.022
 6845W        W11045   7.448   1.421   2.761
 6846W        W11046   9.656   5.793  11.764
 6847W        W11047   3.164   3.831   1.576
 6848W        W11048   4.526   9.822  11.903
 6849W        W11049   2.277   4.407   1.324
 6850W        W11050   8.872   7.148  10.743
 6851W        W11051   5.378   1.428   9.702
 6852W        W11052   4.267   0.699   9.911
 6853W        W11053   6.072   0.887   2.912
 6854W        W11054   1.875   8.552   2.758
 6855W        W11055   7.042   1.322   3.086
 6856W        W11056   8.472   2.125   2.222
 6857W        W11057   7.256   6.695  10.837
 6858W        W11058  11.344  10.304   8.963
 6859W        W11059   4.381   2.327   0.718
 6860W        W11060   8.851   6.010   9.319
 6861W        W11061   1.434   3.639   9.507
 6862W        W11062  11.245   5.731   8.546
 6863W        W11063   7.454  10.014   0.901
 6864W        W11064  11.456   1.766   9.582
 6865W        W11065   1.661   5.636   2.141
 6866W        W11066   0.987   8.979   3.457
 6867W        W11067  11.345   1.263   9.298
 6868W        W11068  10.867   7.589  11.283
 6869W        W11069   0.692   5.718   9.505
 6870W        W11070   4.466   6.106  11.713
 6871W        W11071   9.316   1.188   0.875
 6872W        W11072   1.513   8.347  11.005
 6873W        W11073   1.289   1.206   3.166
 6874W        W11074   9.969  11.002   8.532
 6875W        W11075   0.763   7.487   8.971
 6876W        W11076   9.006   3.881   2.968
 6877W        W11077  10.461   3.549  11.749
 6878W        W11078   7.151   4.644   0.442
 6879W        W11079  10.854   6.652   2.174
 6880W        W11080   1.325  11.138   3.539
 6881W        W11081   8.403   4.917   1.350
 6882W        W11082   8.712   3.803   9.508
 6883W        W11083   1.853   1.788   9.010
 6884W        W11084   8.089  10.962   8.850
 6885W        W11085   7.863   9.572   9.188
 6886W        W11086   5.930   6.110   0.615
 6887W        W11087   9.366  10.155  10.481
 6888W        W11088   0.839   7.400   3.347
 6889W        W11089   2.814   8.837   9.089
 6890W        W11090   9.545   8.200  11.271
 6891W        W11091   1.205   7.585   1.539
 6892W        W11092   1.271   3.340  11.138
 6893W        W11093   6.118   8.709   1.352
 6894W        W11094   1.475  11.399   3.148
 6895W        W11095   8.718   0.504  10.323
 6896W        W11096  10.501   2.141   0.427
 6897W        W11097   9.462   5.913   1.488
 6898W        W11098  10.914   6.680  11.580
 6899W        W11099   1.727   3.184   9.377
 6900W        W11100   5.911  10.855  10.919
 6901W        W11101   2.156  10.329   2.222
 6902W        W11102   2.287   2.727  10.355
 6903W        W11103   8.497   9.801  10.822
 6904W        W11104   6.397   1.519  10.012
 6905W        W11105  11.450   0.897   1.631
 6906W        W11106   0.416   2.252  11.365
 6907W        W11107   8.141   1.263  11.132
 6908W        W11108   9.635   6.030   2.870
 6909W        W11109   7.031   2.776   3.596
 6910W        W11110   9.631   1.890  10.352
 6911W        W11111   1.885   7.088   0.504
 6912W        W11112   5.127   2.758   3.647
 6913W        W11113   4.861   6.146   9.765
 6914W        W11114   8.030   3.875   2.451
 6915W        W11115   4.648   1.147   9.893
 6916W        W11116   8.402   2.800  11.534
 6917W        W11117   2.773   5.785  11.230
 6918W        W11118   8.437   0.046   1.614
 6919W        W11119   3.817  11.404   1.297
 6920W        W11120  11.389  10.598   0.227
 6921W        W11121   5.821   0.691   0.470
 6922W        W11122   1.774   4.323  10.447
 6923W        W11123   5.093   4.789  10.715
 6924W        W11124  10.583   1.743   0.734
 6925W        W11125   3.579  11.204   0.877
 6926W        W11126   0.106   4.671  10.502
 6927W        W11127   6.225   9.642   1.253
 6928W        W11128  11.433   7.735   9.070
 6929W        W11129   4.542   6.496  10.966
 6930W        W11130   5.263  10.330   2.106
 6931W        W11131   1.491   7.583   2.571
 6932W        W11132   5.971   7.748   1.283
 6933W        W11133   7.334   5.877   0.233
 6934W        W11134   0.187   7.269   2.370
 6935W        W11135   6.097   7.048  11.091
 6936W        W11136   9.563   0.958  10.138
 6937W        W11137   9.925   9.666  10.056
 6938W        W11138   0.945   3.872   8.833
 6939W        W11139   0.743  10.759   9.324
 6940W        W11140   8.667   7.909   2.639
 6941W        W11141  11.174   9.657  11.355
 6942W        W11142   3.351   3.799  11.327
 6943W        W11143  10.421   2.642   0.345
 6944W        W11144   5.708   7.100   2.950
 6945W        W11145   7.238   2.284   2.363
 6946W        W11146   2.494   5.033   7.902
 6947W        W11147   9.998   2.371   2.444
 6948W        W11148   9.598   5.143   2.194
 6949W        W11149   5.251  11.011   1.285
 6950W        W11150   4.416   2.538   8.820
 6951W        W11151  11.484   4.409  11.995
 6952W        W11152   9.030   3.350   0.479
 6953W        W11153   7.544  10.826  10.092
 6954W        W11154   8.896   4.282   9.373
 6955W        W11155  10.291   3.195   1.854
 6956W        W11156   7.437   6.514   0.775
 6957W        W11157  11.026   5.792   1.220
 6958W        W11158   3.223   5.223  10.533
 6959W        W11159  10.722   5.507   2.682
 6960W        W11160  11.425   9.326   8.603
 6961W        W11161   5.220   4.201   0.909
 6962W        W11162   8.995   7.052   8.597
 6963W        W11163   7.438   4.790   0.841
 6964W        W11164   3.143   1.874  11.258
 6965W        W11165  11.044   5.166   2.488
 6966W        W11166   3.648   4.676   1.745
 6967W        W11167   0.731   2.379   0.941
 6968W        W11168   2.704   6.608   1.270
 6969W        W11169   2.283   3.527   3.059
 6970W        W11170   5.712   1.057   9.978
 6971W        W11171   9.580   8.156   2.241
 6972W        W11172   8.065   1.660  11.466
 6973W        W11173  10.433   8.412   9.912
 6974W        W11174   0.359   7.459   9.830
 6975W        W11175   7.227   8.466  10.555
 6976W        W11176  11.488   9.279   1.610
 6977W        W11177  10.505  11.452   8.924
 6978W        W11178   5.140   1.662  11.978
 6979W        W11179  10.818   2.515   3.281
 6980W        W11180   7.882  10.732   9.632
 6981W        W11181   7.427   5.327  11.259
 6982W        W11182   1.717   9.983  11.083
 6983W        W11183  10.474   3.628   2.179
 6984W        W11184  11.228   6.045   9.547
 6985W        W11185   4.196   4.071   2.147
 6986W        W11186   8.248   5.179   8.674
 6987W        W11187   3.261   5.815  11.046
 6988W        W11188   6.036  11.039   9.105
 6989W        W11189   7.339   6.247  11.518
 6990W        W11190   3.223   5.614   1.038
 6991W        W11191   0.695   1.835   1.491
 6992W        W11192   7.459   4.575   9.086
 6993W        W11193   1.135   0.807   3.478
 6994W        W11194   6.902   8.377   2.459
 6995W        W11195   5.599   9.107   9.828
 6996W        W11196   3.020   2.865  11.450
 6997W        W11197   8.624   8.322   8.641
 6998W        W11198   6.032   3.310  10.740
 6999W        W11199  11.482   9.847   9.740
 7000W        W11200   8.477   3.685   9.075
 7001W        W11201   2.335   0.762  11.351
 7002W        W11202   0.303  11.328  11.322
 7003W        W11203   5.355   2.631  10.315
 7004W        W11204   7.982   8.420   0.371
 7005W        W11205   8.844   8.074   3.403
 7006W        W11206   0.008   5.128  10.772
 7007W        W11207   0.510   7.041   9.519
 7008W        W11208   0.850   6.191   9.311
 7009W        W11209   9.346   2.225  10.623
 7010W        W11210   8.636  10.547   0.019
 7011W        W11211   4.178   5.679  10.791
 7012W        W11212   4.862   1.168   0.255
 7013W        W11213  10.929   8.425   3.489
 7014W        W11214   1.524   8.981   9.393
 7015W        W11215   6.111   4.449  10.461
 7016W        W11216  10.422  10.027   8.966
 7017W        W11217  10.430   9.976   1.398
 7018W        W11218   0.397   3.167  11.220
 7019W        W11219   7.629   0.916   1.150
 7020W        W11220   3.406   2.132   2.783
 7021W        W11221   0.609   1.821  10.451
 7022W        W11222   4.731   4.224   3.617
 7023W        W11223   3.090  11.433  11.874
 7024W        W11224   1.155   6.275   2.588
 7025W        W11225   4.712   6.718   8.636
 7026W        W11226   2.581   8.421   2.486
 7027W        W11227   2.354   5.515   9.572
 7028W        W11228   1.358   4.146   1.465
 7029W        W11229  11.448   4.820   8.739
 7030W        W11230   2.402   3.576   0.230
 7031W        W11231   7.070   3.781  10.878
 7032W        W11232   2.615   7.502   1.635
 7033W        W11233   4.599   2.267   1.613
 7034W        W11234   3.689   9.037   1.496
 7035W        W11235   3.954   8.544   9.830
 7036W        W11236  11.452   6.504   1.285
 7037W        W11237   6.975   0.265   1.658
 7038W        W11238   7.233   3.659   1.302
 7039W        W11239  11.065   1.765  10.504
 7040W        W11240   9.693   0.457  10.281
 7041W        W11241   5.468   4.831   3.294
 7042W        W11242   5.723   0.401   2.802
 7043W        W11243   4.129   7.790   0.391
 7044W        W11244   7.966   0.295   2.896
 7045W        W11245   9.369   8.701   0.928
 7046W        W11246   6.009   9.551   2.455
 7047W        W11247   9.248   7.200  10.377
 7048W        W11248   4.553  10.422   3.367
 7049W        W11249   3.085   1.261   2.380
 7050W        W11250  10.915   9.794   1.409
 7051W        W11251   8.471   7.469   3.411
 7052W        W11252  10.700   2.224   0.929
 7053W        W11253   8.117   1.426   0.370
 7054W        W11254   8.534  10.808   2.287
 7055W        W11255   0.224   9.418   3.127
 7056W        W11256   8.864   3.267   1.627
 7057W        W11257   5.964   2.473   1.633
 7058W        W11258   4.294   1.940  11.056
 7059W        W11259   6.708   6.625   0.236
 7060W        W11260   1.417   0.688   3.893
 7061W        W11261   2.531   5.301   0.757
 7062W        W11262   3.919   4.065   3.295
 7063W        W11263   3.822   3.556  10.497
 7064W        W11264   5.254  10.460   9.847
 7065W        W11265   0.704   9.994  11.397
 7066W        W11266   8.985  10.658  11.201
 7067W        W11267   7.947   7.504  11.697
 7068W        W11268   8.226   8.358  11.911
 7069W        W11269  10.867   1.972   3.148
 7070W        W11270  11.461   7.077  10.870
 7071W        W11271   4.290   8.920  11.857
 7072W        W11272   4.983  11.259  10.107
 7073W        W11273   5.211   0.419  10.734
 7074W        W11274   3.703   5.461   9.387
 7075W        W11275   6.855   8.088   1.541
 7076W        W11276   2.931   8.047   3.362
 7077W        W11277   1.844   9.881   2.312
 7078W        W11278   2.927   6.017   1.144
 7079W        W11279   1.890   1.357   1.846
 7080W        W11280   6.071   9.050  10.628
 7081W        W11281   6.075   1.772  11.992
 7082W        W11282   7.600   3.803   2.173
 7083W        W11283   7.570   2.648  10.061
 7084W        W11284   2.001   4.175   2.230
 7085W        W11285  11.020   3.296  11.430
 7086W        W11286  10.738  11.439  10.343
 7087W        W11287   2.601   6.521   0.340
 7088W        W11288  10.521   7.710  10.573
 7089W        W11289   2.279   3.619   0.725
 7090W        W11290   5.930   3.741   8.460
 7091W        W11291   5.272   2.134   0.919
 7092W        W11292   6.906   9.573   9.063
 7093W        W11293  10.588   3.710   9.280
 7094W        W11294   3.414   6.113   2.410
 7095W        W11295   7.230   6.386   0.266
 7096W        W11296   2.895   6.398  10.408
 7097W        W11297   2.669   6.556   3.171
 7098W        W11298   6.754   3.639   3.130
 7099W        W11299   5.140   4.176  10.033
 7100W        W11300   9.608   0.919  10.652
 7101W        W11301   9.025  10.333  10.822
 7102W        W11302   0.985   4.144   0.006
 7103W        W11303   8.008   6.097   3.499
 7104W        W11304   9.276   6.972   9.208
 7105W        W11305   9.463   0.537   2.590
 7106W        W11306   4.970   8.854   9.018
 7107W        W11307   3.262   0.910   0.729
 7108W        W11308   6.698   6.160  10.501
 7109W        W11309   5.720   9.434   1.218
 7110W        W11310   3.815  10.276  11.352
 7111W        W11311   2.549   0.453   2.537
 7112W        W11312   9.518  11.314  11.199
 7113W        W11313   9.577   5.093   3.183
 7114W        W11314   7.594   7.306   1.301
 7115W        W11315   6.559   9.014   1.415
 7116W        W11316   1.357   9.910   2.493
 7117W        W11317  11.356   9.056   9.575
 7118W        W11318   6.576   1.587   0.012
 7119W        W11319   0.349   9.946   2.395
 7120W        W11320   3.338   8.084  11.615
 7121W        W11321   2.748   5.536   9.187
 7122W        W11322  10.117   3.293   0.507
 7123W        W11323   3.522   4.853   3.100
 7124W        W11324   7.886   2.209   0.763
 7125W        W11325   2.225  11.484   8.858
 7126W        W11326   1.146   4.505   9.451
 7127W        W11327   1.862   1.305   9.796
 7128W        W11328   8.209   6.201   9.995
 7129W        W11329   4.121   8.693   1.393
 7130W        W11330   1.506   4.727   9.793
 7131W        W11331   6.106   4.110   9.639
 7132W        W11332   7.213   5.152   0.574
 7133W        W11333   9.911   7.299   3.298
 7134W        W11334   3.053   8.082   0.810
 7135W        W11335   8.476   8.489  11.276
 7136W        W11336   3.677   6.277   0.840
 7137W        W11337   8.392   6.979   2.824
 7138W        W11338  10.810   8.422   2.372
 7139W        W11339   0.480   7.893   1.660
 7140W        W11340  10.259   1.308  11.815
 7141W        W11341   5.286   2.823  11.096
 7142W        W11342  11.445   3.129   1.642
 7143W        W11343   7.610   7.392   9.159
 7144W        W11344   7.572  10.925   9.042
 7145W        W11345   4.644   1.872   1.938
 7146W        W11346   2.380  10.742  10.035
 7147W        W11347   2.870   6.241  11.443
 7148W        W11348  11.337   3.762  10.850
 7149W        W11349   8.496   2.557   3.052
 7150W        W11350   8.629   8.745   1.254
 7151W        W11351   5.643   8.565   2.815
 7152W        W11352   1.777   0.345  11.974
 7153W        W11353   2.359   7.432   2.304
 7154W        W11354   2.249   8.886  11.525
 7155W        W11355   5.671   7.047  10.595
 7156W        W11356   0.990   1.356  10.948
 7157W        W11357   0.287   8.946   3.306
 7158W        W11358   1.298   9.941   9.761
 7159W        W11359   2.172   9.869   0.356
 7160W        W11360  10.548   7.936   9.680
 7161W        W11361   2.643   2.643  10.766
 7162W        W11362   6.113   6.196   8.714
 7163W        W11363   0.049   2.359   2.343
 7164W        W11364  11.344   4.637   1.337
 7165W        W11365   9.894  11.289   8.987
 7166W        W11366   6.202   9.829   0.325
 7167W        W11367   6.076   6.991   9.597
 7168W        W11368   4.649   4.920   2.290
 7169W        W11369   7.950  11.140   9.320
 7170W        W11370   8.957   1.534  11.695
 7171W        W11371   5.238  10.570   2.871
 7172W        W11372   3.855   5.079   0.530
 7173W        W11373   3.020   0.044   3.228
 7174W        W11374   6.930   8.894   1.753
 7175W        W11375  10.433   2.896  10.256
 7176W        W11376   4.453   7.992  10.549
 7177W        W11377  10.854  10.880   8.649
 7178W        W11378   9.472   3.784   2.154
 7179W        W11379   0.087   3.305   3.166
 7180W        W11380   0.441   6.186   1.294
 7181W        W11381   4.329  10.941   9.810
 7182W        W11382   2.862   1.167  11.930
 7183W        W11383   7.345   9.916   3.218
 7184W        W11384   5.253   7.849   9.031
 7185W        W11385   6.712   8.582  10.573
 7186W        W11386   9.062  10.911   3.065
 7187W        W11387   2.205   9.498   3.379
 7188W        W11388  10.055   4.857   1.374
 7189W        W11389  10.466   8.032   2.460
 7190W        W11390   6.079   4.658  11.351
 7191W        W11391   6.555  10.037   9.819
 7192W        W11392   4.693   6.715   0.914
 7193W        W11393   3.124   1.842   3.513
 7194W        W11394   1.662   1.784  11.100
 7195W        W11395   3.716  10.281   2.970
 7196W        W11396   1.307   7.429  11.751
 7197W        W11397   3.922   6.064   2.336
 7198W        W11398   8.486   2.771   0.030
 7199W        W11399   9.045   9.419  10.406
 7200W        W11400   8.505   8.554   0.303
 7201W        W11401   0.267   8.536   9.310
 7202W        W11402   0.823   3.238   0.498
 7203W        W11403   9.084   2.637   9.603
 7204W        W11404   9.388   0.228   3.004
 7205W        W11405   6.470   9.490   9.909
 7206W        W11406   9.323   1.049   3.483
 7207W        W11407   7.017   8.457   0.427
 7208W        W11408   5.592   9.483   2.729
 7209W        W11409  11.349   8.116   3.569
 7210W        W11410   1.456   5.694  10.707
 7211W        W11411   6.994   0.001   2.734
 7212W        W11412   0.452  10.758   2.624
 7213W        W11413   8.749   2.324   3.419
 7214W        W11414  11.396   7.969  10.837
 7215W        W11415   9.150  11.175   1.187
 7216W        W11416   5.261   3.333   8.377
 7217W        W11417  10.393   4.510   9.807
 7218W        W11418   4.650   6.727   3.419
 7219W        W11419   8.517   7.286   0.876
 7220W        W11420   5.673   4.844   1.473
 7221W        W11421   2.820   2.111   1.395
 7222W        W11422   9.556   9.360   9.852
 7223W        W11423   3.273   0.449  11.913
 7224W        W11424   9.404   3.247   0.814
 7225W        W11425   7.798   3.122  10.098
 7226W        W11426   6.978   7.986   1.061
 7227W        W11427   9.472   0.728   0.733
 7228W        W11428   5.724  10.582   9.034
 7229W        W11429  10.728   4.152   1.401
 7230W        W11430   9.916   6.207   0.954
 7231W        W11431   5.332   4.926   1.097
 7232W        W11432   1.345   1.218  11.548
 7233W        W11433   9.802  10.357   2.514
 7234W        W11434   3.670   6.537  11.464
 7235W        W11435  10.156   4.284   1.353
 7236W        W11436   3.150   0.009   2.711
 7237W        W11437   0.671   9.437   9.377
 7238W        W11438   2.122  11.447  10.941
 7239W        W11439  10.422   1.367  10.092
 7240W        W11440   5.202   8.376  10.346
 7241W        W11441   6.184  10.857  10.080
 7242W        W11442   7.616  10.451   9.302
 7243W        W11443   0.464   9.085   1.715
 7244W        W11444  10.419   1.842   2.694
 7245W        W11445   8.515   2.064   8.472
 7246W        W11446   4.742   0.530  11.971
 7247W        W11447  10.283   9.483   2.114
 7248W        W11448   4.823   0.927   1.126
 7249W        W11449   8.465   3.223   0.284
 7250W        W11450   8.354   7.959   2.233
 7251W        W11451   0.672   8.617   3.258
 7252W        W11452   3.836   8.629   4.034
 7253W        W11453   5.927   4.982   3.100
 7254W        W11454   2.347   2.114   2.861
 7255W        W11455   5.272  10.833   0.134
 7256W        W11456  10.419   6.943   9.939
 7257W        W11457   3.223   6.524  11.719
 7258W        W11458   3.595   7.000   1.938
 7259W        W11459   6.457   5.237   0.920
 7260W        W11460   4.641   7.626   9.799
 7261W        W11461   2.024   2.729   0.874
 7262W        W11462   1.707   9.123   1.661
 7263W        W11463   5.139   4.323  10.992
 7264W        W11464   6.365   7.106   3.566
 7265W        W11465   0.490   7.168  10.808
 7266W        W11466   5.674   2.064   0.610
 7267W        W11467   5.479   8.977   9.025
 7268W        W11468   8.628   0.799   0.335
 7269W        W11469   0.841   6.763   0.815
 7270W        W11470   1.302   7.036   0.631
 7271W        W11471   9.686   8.121   9.465
 7272W        W11472   0.126   3.069   1.167
 7273W        W11473   2.770   1.661   2.249
 7274W        W11474   8.505   5.618   8.503
 7275W        W11475   8.584   8.443  10.668
 7276W        W11476   0.615   7.194   0.993
 7277W        W11477   2.123   9.731   9.820
 7278W        W11478   7.764   6.361  10.997
 7279W        W11479   5.144   0.040   1.247
 7280W        W11480   2.375   6.064   2.394
 7281W        W11481  10.005   9.480   2.988
 7282W        W11482   5.595   7.026   1.929
 7283W        W11483   3.620   6.913   9.337
 7284W        W11484   7.106   0.268   3.237
 7285W        W11485   4.746   2.232   9.045
 7286W        W11486   2.307   3.848   1.276
 7287W        W11487  10.969   3.773   1.018
 7288W        W11488   0.419   5.080   0.499
 7289W        W11489   4.095  10.657  11.504
 7290W        W11490   0.842   1.005  11.306
 7291W        W11491   6.350   2.552   8.176
 7292W        W11492   3.676   7.502   1.754
 7293W        W11493   0.909   5.205  11.329
 7294W        W11494   3.124  10.950   0.431
 7295W        W11495   4.338   4.979   0.579
 7296W        W11496   1.544  10.966   9.909
 7297W        W11497   3.918   2.815  11.595
 7298W        W11498   5.332   4.021  10.500
 7299W        W11499   6.680   4.703   2.165
 7300W        W11500   6.611   7.654   2.793
 7301W        W11501   9.002   6.668   9.954
 7302W        W11502   8.131  11.258  11.351
 7303W        W11503   7.585   3.223   3.318
 7304W        W11504   9.365   1.809   8.820
 7305W        W11505   3.058   0.937  10.611
 7306W        W11506   1.744   5.252   1.407
 7307W        W11507   8.774   5.354  11.615
 7308W        W11508   6.206   1.933   9.788
 7309W        W11509   2.912   7.860   9.027
 7310W        W11510   9.553   2.323   2.732
 7311W        W11511   8.561   6.377   8.179
 7312W        W11512   7.894   4.838   9.068
 7313W        W11513   4.729   8.464   2.302
 7314W        W11514   9.523   3.709   3.448
 7315W        W11515   0.362  10.082  10.000
 7316W        W11516   4.788   1.173   3.734
 7317W        W11517   6.408   2.904   2.753
 7318W        W11518   1.989   3.404   2.661
 7319W        W11519   1.442   7.960   1.790
 7320W        W11520   3.117   6.509   0.253
 7321W        W11521   4.253   0.553   1.962
 7322W        W11522   7.019   2.393   0.753
 7323W        W11523   1.686   8.423   0.573
 7324W        W11524   0.020   2.067   0.876
 7325W        W11525   5.576   2.707   3.884
 7326W        W11526   6.534   3.368  11.619
 7327W        W11527   5.592   4.609   8.267
 7328W        W11528   7.448   8.874   0.953
 7329W        W11529   0.419   9.630  11.944
 7330W        W11530   5.739   1.399   9.316
 7331W        W11531   5.561   2.359   9.866
 7332W        W11532   0.810   5.528  11.718
 7333W        W11533   3.597  10.879   0.200
 7334W        W11534   5.273   9.870  10.429
 7335W        W11535   8.857   9.347  11.923
 7336W        W11536  10.810   3.677   8.820
 7337W        W11537   4.262   7.701   2.267
 7338W        W11538   9.596   6.437   2.574
 7339W        W11539   4.466   8.452  11.734
 7340W        W11540   4.132   5.537   0.691
 7341W        W11541  11.356   8.971   0.986
 7342W        W11542   3.058   9.744   8.387
 7343W        W11543   4.178   1.800   3.200
 7344W        W11544  11.406   1.867   3.130
 7345W        W11545   0.491   3.644   0.477
 7346W        W11546   8.948   3.740   1.441
 7347W        W11547   0.886  10.516  10.541
 7348W        W11548   7.675   1.922  10.633
 7349W        W11549   3.112  11.023   0.952
 7350W        W11550   0.816   4.122   3.699
 7351W        W11551   1.713  11.340   9.586
 7352W        W11552   1.078   1.270   0.833
 7353W        W11553   4.465   4.644   8.949
 7354W        W11554   3.662   3.187   0.398
 7355W        W11555   8.166   7.535   9.719
 7356W        W11556   2.221  10.226  11.031
 7357W        W11557   1.913   3.779   0.244
 7358W        W11558  10.865   3.597  10.661
 7359W        W11559   3.489  10.760   3.240
 7360W        W11560   9.431   1.828   2.253
 7361W        W11561   3.285   0.628  10.018
 7362W        W11562   0.003  11.350   1.512
 7363W        W11563   2.285   2.744   0.440
 7364W        W11564  11.346   8.883  10.078
 7365W        W11565   4.698   5.955   4.099
 7366W        W11566   6.383  10.936  11.080
 7367W        W11567   6.636   5.716  11.512
 7368W        W11568   7.876   2.204   9.726
 7369W        W11569  11.104   3.694   9.255
 7370W        W11570  10.828   4.962   0.360
 7371W        W11571   2.300   9.359  11.724
 7372W        W11572   1.700   5.235   8.495
 7373W        W11573   0.940   9.519   2.911
 7374W        W11574   1.863   7.890   1.516
 7375W        W11575   1.814   5.696   1.134
 7376W        W11576   1.861   7.539   0.739
 7377W        W11577   3.824   3.551   2.670
 7378W        W11578   6.126   9.500   1.944
 7379W        W11579   7.644   4.550   3.745
 7380W        W11580   1.268   6.670   1.630
 7381W        W11581   9.859  10.491   0.297
 7382W        W11582   1.814   4.589   1.450
 7383W        W11583   1.632   5.663  11.190
 7384W        W11584   9.362  10.328   9.983
 7385W        W11585   2.739   5.542   1.191
 7386W        W11586   5.690   7.542   2.654
 7387W        W11587   0.980   4.204  10.566
 7388W        W11588   9.521   4.406   1.801
 7389W        W11589   2.653  10.254   9.547
 7390W        W11590   5.338   4.253   1.955
 7391W        W11591   0.447   1.748   1.943
 7392W        W11592   3.718   1.736   2.565
 7393W        W11593   0.850   0.753   1.689
 7394W        W11594   2.300   7.047   8.567
 7395W        W11595   8.364   5.259  11.956
 7396W        W11596  10.398   2.095   9.580
 7397W        W11597   1.156   5.832   2.875
 7398W        W11598   6.042   2.575   2.102
 7399W        W11599   3.542   5.171   8.995
 7400W        W11600   8.017   5.709   3.833
 7401W        W11601   2.376   6.086   3.318
 7402W        W11602  11.031   8.277   0.797
 7403W        W11603   4.405   0.350   3.256
 7404W        W11604   9.228   0.494   1.584
 7405W        W11605   5.604   4.044  10.965
 7406W        W11606   9.609   7.393   2.670
 7407W        W11607   0.021  10.256   9.449
 7408W        W11608   5.958  10.266   0.180
 7409W        W11609   2.829  10.006   2.609
 7410W        W11610   1.837   7.252   2.322
 7411W        W11611   1.429   8.646  10.064
 7412W        W11612   9.022   5.123   9.393
 7413W        W11613   4.072  10.822   9.388
 7414W        W11614   6.354   8.009   1.537
 7415W        W11615  10.374   4.699   0.386
 7416W        W11616   7.312   5.718   2.417
 7417W        W11617   3.276   8.209  10.609
 7418W        W11618   2.717   0.936   3.125
 7419W        W11619  10.479   9.350   3.164
 7420W        W11620   6.651   3.753  10.335
 7421W        W11621   3.232   6.950   8.985
 7422W        W11622   8.378   0.238   8.420
 7423W        W11623   3.751   2.779   0.672
 7424W        W11624   2.507  11.399   3.275
 7425W        W11625  11.141   7.934   9.836
 7426W        W11626   5.024   3.108   2.343
 7427W        W11627   6.711   9.803  10.464
 7428W        W11628   3.533   4.450   9.355
 7429W        W11629  11.090   8.793   1.421
 7430W        W11630   3.087  10.913   1.509
 7431W        W11631   6.998  11.147   9.519
 7432W        W11632   6.386   9.384   0.463
 7433W        W11633   8.374   9.987   1.746
 7434W        W11634   4.957   3.698  11.744
 7435W        W11635   7.667   1.755  10.112
 7436W        W11636   3.663  10.909   1.739
 7437W        W11637   0.323   4.307   8.831
 7438W        W11638   4.720   5.713   0.036
 7439W        W11639  10.753   0.822   9.425
 7440W        W11640   1.197  11.336   9.831
 7441W        W11641   2.374   8.956   2.456
 7442W        W11642  10.552   4.220   0.929
 7443W        W11643   0.164   2.198  11.825
 7444W        W11644   2.937   2.662   0.003
 7445W        W11645  10.727   5.248   8.553
 7446W        W11646   7.598   8.101  11.761
 7447W        W11647   0.580   5.109   1.854
 7448W        W11648   2.239   3.850  11.838
 7449W        W11649  10.312   0.990  11.413
 7450W        W11650  11.374  10.086  11.131
 7451W        W11651  10.533  11.346   3.294
 7452W        W11652   7.086   1.819   3.488
 7453W        W11653   3.018   2.123   2.243
 7454W        W11654   8.157   9.945   2.713
 7455W        W11655   3.225   9.613  10.255
 7456W        W11656  10.662   0.350   3.238
 7457W        W11657   3.285   4.121   0.841
 7458W        W11658   4.096   6.972   1.935
 7459W        W11659  11.026  10.706   9.973
 7460W        W11660   5.116   7.220  11.518
 7461W        W11661   8.120  10.843   3.290
 7462W        W11662   2.202   5.074   8.638
 7463W        W11663  10.796   0.330   8.536
 7464W        W11664   5.507   7.224   3.812
 7465W        W11665  10.380   5.474   8.842
 7466W        W11666   2.868   2.732   3.293
 7467W        W11667  10.742   9.273  11.626
 7468W        W11668  10.335   5.580   3.022
 7469W        W11669   8.122  10.259   9.599
 7470W        W11670   1.781  10.093   9.737
 7471W        W11671   5.512   4.547   3.747
 7472W        W11672   4.688   9.309  11.768
 7473W        W11673   7.605   4.771   2.165
 7474W        W11674   7.140   8.409   9.253
 7475W        W11675   1.078   4.869   3.667
 7476W        W11676   1.588   8.188   3.486
 7477W        W11677   4.013   7.599  11.897
 7478W        W11678   9.163   3.664  11.680
 7479W        W11679   5.648   0.374   9.495
 7480W        W11680   8.618   8.012  11.522
 7481W        W11681  11.313  10.020   1.165
 7482W        W11682  11.395   8.262   9.061
 7483W        W11683   3.390  10.375   1.120
 7484W        W11684   1.851   8.393   1.038
 7485W        W11685   1.207   9.075  11.140
 7486W        W11686   2.655   9.774   0.433
 7487W        W11687   5.033   5.309   2.354
 7488W        W11688   7.749   2.367   0.272
 7489W        W11689  10.306   9.128   1.739
 7490W        W11690   8.948  10.443   2.804
 7491W        W11691   1.080   4.408   8.687
 7492W        W11692   2.870   8.862   2.387
 7493W        W11693   1.712   1.416  11.890
 7494W        W11694   3.502   2.553   9.013
 7495W        W11695   7.114   8.813   2.232
 7496W        W11696   6.808   7.574   1.337
 7497W        W11697   2.681   0.322   3.530
 7498W        W11698   1.232   9.550   1.246
 7499W        W11699   7.822   8.573  10.004
 7500W        W11700   6.170   7.321   2.710
 7501W        W11701   2.636   0.719   0.354
 7502W        W11702   3.100   1.678   9.113
 7503W        W11703   8.043   4.726  11.296
 7504W        W11704   4.659   8.515   1.264
 7505W        W11705   5.044   6.097   2.014
 7506W        W11706   4.708   4.836   0.944
 7507W        W11707   1.216   0.750   9.436
 7508W        W11708   7.535   2.656   9.061
 7509W        W11709   6.573   9.042  10.737
 7510W        W11710   1.792   6.619   9.599
 7511W        W11711  10.477   0.200   0.461
 7512W        W11712   8.209   8.493  10.309
 7513W        W11713   4.493   5.261  11.741
 7514W        W11714   0.921   3.101   0.974
 7515W        W11715   9.981   6.819   0.697
 7516W        W11716   2.392   8.020   0.071
 7517W        W11717   0.719   5.691   1.993
 7518W        W11718   8.684   2.061   2.961
 7519W        W11719   5.045   4.392  11.501
 7520W        W11720   9.289   8.390   0.512
 7521W        W11721   8.870   2.294  10.443
 7522W        W11722   3.953   2.390   8.607
 7523W        W11723  10.960   5.245  10.040
 7524W        W11724   6.776   5.130  10.140
 7525W        W11725   9.039   2.534   0.464
 7526W        W11726   8.854   4.443   8.870
 7527W        W11727   3.218   8.416   1.757
 7528W        W11728   3.565   4.871   1.257
 7529W        W11729  10.553   3.741   0.721
 7530W        W11730   6.570   3.335  10.028
 7531W        W11731   0.959   4.793   9.049
 7532W        W11732   5.443   8.375  11.697
 7533W        W11733   1.909   3.663   9.302
 7534W        W11734   3.897   2.148  10.791
 7535W        W11735  10.430   1.170  10.562
 7536W        W11736   3.390   5.218   4.113
 7537W        W11737   6.190   2.711   3.166
 7538W        W11738   4.060   9.138  11.404
 7539W        W11739   6.022   4.786  10.844
 7540W        W11740   8.232   8.442   1.396
 7541W        W11741   9.312   1.815  11.459
 7542W        W11742   1.641   6.481   3.268
 7543W        W11743   8.145   7.335   9.257
 7544W        W11744   8.272   1.714   2.999
 7545W        W11745   8.580  10.822   2.870
 7546W        W11746   2.222   4.076   3.088
 7547W        W11747  11.444   9.602  11.771
 7548W        W11748   0.458   2.632   2.837
 7549W        W11749   6.175   5.050   1.328
 7550W        W11750   6.546   9.055   2.906
 7551W        W11751   7.694  11.452  11.528
 7552W        W11752   6.318   0.886   0.454
 7553W        W11753   0.865   8.934  11.526
 7554W        W11754   2.127   9.805  11.338
 7555W        W11755   5.007   7.413   0.052
 7556W        W11756  10.733  10.837   1.276
 7557W        W11757   3.963   7.937   9.183
 7558W        W11758   5.051   4.071   8.741
 7559W        W11759   9.094   3.319   8.927
 7560W        W11760   4.355   9.598   0.357
 7561W        W11761   2.373   6.698   9.005
 7562W        W11762   6.139   6.007   2.254
 7563W        W11763   6.235   4.490   3.044
 7564W        W11764   0.855   5.661   1.161
 7565W        W11765   0.363   9.560   9.959
 7566W        W11766   8.560   5.201   8.187
 7567W        W11767   3.340   2.486   2.409
 7568W        W11768  10.370   0.484   8.796
 7569W        W11769   8.571   3.671  11.027
 7570W        W11770  11.360   8.251  11.290
 7571W        W11771  10.184   0.213   3.124
 7572W        W11772   6.205   6.596  11.332
 7573W        W11773  10.802   3.293   1.876
 7574W        W11774   5.140   7.394  10.116
 7575W        W11775   0.493  10.843  10.428
 7576W        W11776   5.185   8.656   2.603
 7577W        W11777   9.986  11.376  10.958
 7578W        W11778   7.114   9.332   1.489
 7579W        W11779   9.190   8.248   9.446
 7580W        W11780   5.227   1.924   0.422
 7581W        W11781   4.217   4.547   2.353
 7582W        W11782   8.963   8.918  10.235
 7583W        W11783   0.647   2.377   3.238
 7584W        W11784   7.579   6.423   4.062
 7585W        W11785   9.016   6.472   7.892
 7586W        W11786   7.980   6.849  10.861
 7587W        W11787   2.816  11.360   1.197
 7588W        W11788   9.648   4.564   9.310
 7589W        W11789   6.904   7.595  10.833
 7590W        W11790   5.597   9.763  10.875
 7591W        W11791   0.390   6.560   9.690
 7592W        W11792   2.129   0.408   1.331
 7593W        W11793   3.018   2.338  10.629
 7594W        W11794  10.810  10.756  11.404
 7595W        W11795   1.203   7.851   2.894
 7596W        W11796   0.369   7.114   3.011
 7597W        W11797   5.064   8.856  10.541
 7598W        W11798   7.447   1.645   0.728
 7599W        W11799   5.602   0.236  11.005
 7600W        W11800   7.904   7.800   9.347
 7601W        W11801   6.473   9.614  10.938
 7602W        W11802   5.265   2.889   2.726
 7603W        W11803   5.188   6.158  10.470
 7604W        W11804   5.220   2.120   8.486
 7605W        W11805   1.463   0.232  11.247
 7606W        W11806   2.714   1.618   0.124
 7607W        W11807   0.853   6.894   3.097
 7608W        W11808   8.233   3.590   8.646
 7609W        W11809   0.896   9.069   2.009
 7610W        W11810   6.075  11.363  10.879
 7611W        W11811   5.634   9.514  10.359
 7612W        W11812   3.549   0.149  10.039
 7613W        W11813  11.189  10.498   2.806
 7614W        W11814   6.611   8.939   0.423
 7615W        W11815   0.333   4.206   9.371
 7616W        W11816   1.502   7.415  11.162
 7617W        W11817   8.506   2.821  11.011
 7618W        W11818   2.874   9.789   8.962
 7619W        W11819   4.819   2.467  10.443
 7620W        W11820   3.521   1.291  10.737
 7621W        W11821   4.799   7.656   0.822
 7622W        W11822   1.556   5.184   9.498
 7623W        W11823   3.469   5.446   8.528
 7624W        W11824  10.329   5.572   1.929
 7625W        W11825   2.736   5.733  11.748
 7626W        W11826   9.217   5.190   1.895
 7627W        W11827   2.698   3.645   8.980
 7628W        W11828   5.894  10.290   8.508
 7629W        W11829   6.700  10.111   9.355
 7630W        W11830   2.239   2.443   9.029
 7631W        W11831   6.330   8.187   8.220
 7632W        W11832   6.984   0.031  10.469
 7633W        W11833   8.647  10.806   9.947
 7634W        W11834   6.023   4.547   9.933
 7635W        W11835   5.650   2.709  11.497
 7636W        W11836   4.091  10.603   8.588
 7637W        W11837   5.774   3.204   3.862
 7638W        W11838   5.067   0.698  10.336
 7639W        W11839   2.658   4.543  10.702
 7640W        W11840  11.090  11.485  11.773
 7641W        W11841   7.444   1.274  11.837
 7642W        W11842   5.557   5.935  11.100
 7643W        W11843   1.812   6.402   0.030
 7644W        W11844   5.457  11.269  10.292
 7645W        W11845   2.972   8.356   8.330
 7646W        W11846   4.226   5.534  11.313
 7647W        W11847   4.755   7.448   2.267
 7648W        W11848   6.059   2.114  10.598
 7649W        W11849   9.282   8.163  10.260
 7650W        W11850   2.808   1.253   1.924
 7651W        W11851   8.890   1.146   0.017
 7652W        W11852   4.719   9.342  10.691
 7653W        W11853   0.918  11.278   1.946
 7654W        W11854   1.130   2.663   1.124
 7655W        W11855   8.217   6.075   1.217
 7656W        W11856   9.942   0.356   9.635
 7657W        W11857   0.291   6.963  10.001
 7658W        W11858   2.646   8.504   8.715
 7659W        W11859   2.679   5.055   8.397
 7660W        W11860   2.749   4.241   8.299
 7661W        W11861  11.390   4.802  10.072
 7662W        W11862   4.275   2.710  10.216
 7663W        W11863   5.041   4.424   9.104
 7664W        W11864   5.659   9.855   9.430
 7665W        W11865   5.851   3.599   1.422
 7666W        W11866   9.511  10.405   9.051
 7667W        W11867   6.196   5.728   2.706
 7668W        W11868  10.425   5.233   9.291
 7669W        W11869   9.315   7.456   8.537
 7670W        W11870  11.257   8.311   3.087
 7671W        W11871  11.497   6.022   1.091
 7672W        W11872  11.285   4.740   9.568
 7673W        W11873  11.318   1.862  10.068
 7674W        W11874   2.958   6.904  10.360
 7675W        W11875   6.844   7.126  11.533
 7676W        W11876   6.438   6.635   9.543
 7677W        W11877   5.163   2.359  11.317
 7678W        W11878   7.749   5.068  10.764
 7679W        W11879   6.739   3.641   1.281
 7680W        W11880   2.652   1.452   0.780
 7681W        W11881   2.825   2.593   2.304
 7682W        W11882   7.158  10.466   2.914
 7683W        W11883   9.794   9.373   9.107
 7684W        W11884  10.607   4.779  11.933
 7685W        W11885   7.599  10.358   3.121
 7686W        W11886   0.889   1.443   9.518
 7687W        W11887   3.660   3.920  10.144
 7688W        W11888  10.530   5.148   1.716
 7689W        W11889   0.679   9.555   2.465
 7690W        W11890   1.804   5.163   9.935
 7691W        W11891   3.831   3.279  11.351
 7692W        W11892   9.960  10.093   9.751
 7693W        W11893  10.316  11.414   1.839
 7694W        W11894   7.128   2.603  10.835
 7695W        W11895   4.800   9.523   9.241
 7696W        W11896   5.168   9.580  11.364
 7697W        W11897  10.009   2.123   2.924
 7698W        W11898   7.977   5.727  11.476
 7699W        W11899   9.951   4.907   0.069
 7700W        W11900   1.204  10.846  10.275
 7701W        W11901   7.601   0.551   0.758
 7702W        W11902   6.809   7.053   1.200
 7703W        W11903  10.285   0.788   9.236
 7704W        W11904   0.055   6.952  11.887
 7705W        W11905   6.500   4.543   0.638
 7706W        W11906   8.171  11.495   9.706
 7707W        W11907   0.694   3.026   2.386
 7708W        W11908   5.135   8.004   1.142
 7709W        W11909  10.369   0.926   2.396
 7710W        W11910   0.221   9.821  11.388
 7711W        W11911   8.464   9.489  11.641
 7712W        W11912   2.318   0.649   3.313
 7713W        W11913   2.298  10.486  11.943
 7714W        W11914   0.096   1.562   0.887
 7715W        W11915   2.315   8.371   1.237
 7716W        W11916   3.750   3.082   2.861
 7717W        W11917   4.403   9.423   3.683
 7718W        W11918   2.304  11.230   2.282
 7719W        W11919   3.658   7.591   0.428
 7720W        W11920   2.635   4.969   0.361
 7721W        W11921   1.345   9.994  11.759
 7722W        W11922   7.904   1.485  10.757
 7723W        W11923  10.495   1.185   1.538
 7724W        W11924   0.715   3.125   9.300
 7725W        W11925   7.103   1.621  10.831
 7726W        W11926   6.143   7.606   2.295
 7727W        W11927   6.602   6.539   1.156
 7728W        W11928   1.759   2.036   0.495
 7729W        W11929   9.393   1.317  11.510
 7730W        W11930   3.685   3.722   1.657
 7731W        W11931   7.450   4.310   1.962
 7732W        W11932   1.908   1.535   0.485
 7733W        W11933   1.141   9.447   2.268
 7734W        W11934   9.970   6.663   8.720
 7735W        W11935   5.969  10.759   3.274
 7736W        W11936   0.259   9.509   9.002
 7737W        W11937   7.857   5.505  11.014
 7738W        W11938   8.216   9.068   2.183
 7739W        W11939   0.991   3.189   2.777
 7740W        W11940   3.014   4.218  11.508
 7741W        W11941  10.199   4.483  11.934
 7742W        W11942   7.565  10.323  10.294
 7743W        W11943   1.685   9.014   2.857
 7744W        W11944  10.826   6.575   0.677
 7745W        W11945   6.712   0.073   0.429
 7746W        W11946  11.284   6.106   1.546
 7747W        W11947   9.593   3.694  11.915
 7748W        W11948   1.990  11.460   0.870
 7749W        W11949   3.736   7.822   2.188
 7750W        W11950   1.738   5.784   0.649
 7751W        W11951   8.861   8.111   1.474
 7752W        W11952   4.937   6.525   9.088
 7753W        W11953   0.029   2.719   1.982
 7754W        W11954  10.437  11.079  11.099
 7755W        W11955   6.699   2.209   9.393
 7756W        W11956   4.391   1.530   2.251
 7757W        W11957   3.568   4.211   8.916
 7758W        W11958   4.780   0.218  10.959
 7759W        W11959   2.857   7.074   3.280
 7760W        W11960   5.718  10.628   9.953
 7761W        W11961  10.927   4.767   8.590
 7762W        W11962   9.236   9.098   0.617
 7763W        W11963  10.581   2.766  10.712
 7764W        W11964   6.180   1.728   1.017
 7765W        W11965   6.491  10.682   0.799
 7766W        W11966   3.160   4.209   2.258
 7767W        W11967   5.232   6.818   8.768
 7768W        W11968   0.407   5.563   0.048
 7769W        W11969  11.458   6.169   9.073
 7770W        W11970  10.893   5.903  10.989
 7771W        W11971   4.217  10.107  10.787
 7772W        W11972   8.989   9.054   1.054
 7773W        W11973   5.074  11.119   9.355
 7774W        W11974   8.537   5.317   2.379
 7775W        W11975   3.168   3.317   9.979
 7776W        W11976   8.194   0.969   0.109
 7777W        W11977   1.379  10.378  10.483
 7778W        W11978   1.915   4.276   0.435
 7779W        W11979   6.546   3.701   0.387
 7780W        W11980   6.448  10.812   2.319
 7781W        W11981   0.693   9.770   8.944
 7782W        W11982   6.181   4.294  11.885
 7783W        W11983   9.581  11.062   9.811
 7784W        W11984   2.412   5.070  10.512
 7785W        W11985   8.216   5.112  10.994
 7786W        W11986   9.404   3.748   1.179
 7787W        W11987   7.106   6.963   2.342
 7788W        W11988   1.756   7.722   2.163
 7789W        W11989  11.333   9.390   9.982
 7790W        W11990   2.485   3.108  10.613
 7791W        W11991   8.876   9.799  11.679
 7792W        W11992   5.212   1.943   1.818
 7793W        W11993   4.829  11.301   1.561
 7794W        W11994   2.914   3.656   0.243
 7795W        W11995   5.383   2.718   9.046
 7796W        W11996   7.982   0.210  11.874
 7797W        W11997   6.380   9.113   3.727
 7798W        W11998   8.379   3.398   1.767
 7799W        W11999   5.991   0.185   0.211
 7800W        W12000   6.505  10.850  11.575
 7801W        W12001  10.498   2.155   3.438
 7802W        W12002   0.790   6.708   1.804
 7803W        W12003   8.428   1.406  11.961
 7804W        W12004   1.782   1.760  10.039
 7805W        W12005   3.268   8.681  10.343
 7806W        W12006   6.586   6.155   0.817
 7807W        W12007   9.505   8.106   3.197
 7808W        W12008   1.409   3.520   2.063
 7809W        W12009   6.281   8.821  11.083
 7810W        W12010   8.895   6.210   3.234
 7811W        W12011   8.772   9.569   3.174
 7812W        W12012   5.706   5.122   9.145
 7813W        W12013   9.328   3.382   1.813
 7814W        W12014   7.635   5.419   9.813
 7815W        W12015   3.128   2.080   9.691
 7816W        W12016   0.965   1.977   3.172
 7817W        W12017   8.957   0.565   3.247
 7818W        W12018  10.408   6.437   1.986
 7819W        W12019   7.913   4.267  10.045
 7820W        W12020   6.677   2.537  11.991
 7821W        W12021   4.500   5.786   1.076
 7822W        W12022  10.847   7.021   0.918
 7823W        W12023   4.444   3.244   0.775
 7824W        W12024  10.652   9.614   9.591
 7825W        W12025  11.396   5.495   3.200
 7826W        W12026   6.664   2.727   9.502
 7827W        W12027   5.493  10.161  11.811
 7828W        W12028   2.788   4.842   0.839
 7829W        W12029   2.483   9.545   1.718
 7830W        W12030   5.132   6.502   1.180
 7831W        W12031   1.806   3.358   0.840
 7832W        W12032  10.446   9.105   9.414
 7833W        W12033   4.296   8.666   3.804
 7834W        W12034   0.839   0.254   1.133
 7835W        W12035   5.962   8.193   3.585
 7836W        W12036   7.640   6.555  10.533
 7837W        W12037   4.448   4.214  10.455
 7838W        W12038   8.957  10.842   9.462
 7839W        W12039   7.858   6.934   9.081
 7840W        W12040   8.523   6.919   1.400
 7841W        W12041   2.685  10.794   1.122
 7842W        W12042   9.987  11.254   3.095
 7843W        W12043   3.089   7.042   1.944
 7844W        W12044   3.787   5.965  11.031
 7845W        W12045   4.816   6.143  11.303
 7846W        W12046   9.552   8.613  10.350
 7847W        W12047   3.381  10.002   9.156
 7848W        W12048   2.256   7.881   9.478
 7849W        W12049   3.349   3.464   0.074
 7850W        W12050   1.476   7.851  11.979
 7851W        W12051   4.474   2.749   9.773
 7852W        W12052   8.584   9.143   0.437
 7853W        W12053   9.105  11.343  10.806
 7854W        W12054   7.179   2.339   3.375
 7855W        W12055   2.558   2.627  11.287
 7856W        W12056   0.333   4.812   1.256
 7857W        W12057   4.669   0.112   2.849
 7858W        W12058   5.774   4.379   1.683
 7859W        W12059   6.645   6.085   2.288
 7860W        W12060   5.890   2.730   8.977
 7861W        W12061   8.283   5.173   3.195
 7862W        W12062   6.919   5.125   2.369
 7863W        W12063   9.124   8.415  11.505
 7864W        W12064   2.245   5.273   9.104
 7865W        W12065   1.279   4.105   9.755
 7866W        W12066   0.876   0.269   2.146
 7867W        W12067   7.465  11.465  10.185
 7868W        W12068   0.758   2.173   1.902
 7869W        W12069   7.167   0.767  11.842
 7870W        W12070   8.351   4.539  10.298
 7871W        W12071  11.104   4.108   2.278
 7872W        W12072   9.899   3.790   1.342
 7873W        W12073   3.135   9.340   0.734
 7874W        W12074   3.821   1.628   9.936
 7875W        W12075  10.846   4.634  10.823
 7876W        W12076   8.254   6.364  10.814
 7877W        W12077  10.102   3.835   9.535
 7878W        W12078  10.696   4.154  10.580
 7879W        W12079   5.127   7.498  10.614
 7880W        W12080  11.408  10.967   2.784
 7881W        W12081   0.429   5.287   1.397
 7882W        W12082  10.217   3.657   3.411
 7883W        W12083   6.335   3.949   8.185
 7884W        W12084   3.204   5.419   3.681
 7885W        W12085   8.494   0.775   3.187
 7886W        W12086   1.796   6.493   9.084
 7887W        W12087   2.322   1.848   0.454
 7888W        W12088  10.863   3.918  11.078
 7889W        W12089   5.225   1.842  11.431
 7890W        W12090   5.454   8.156   9.895
 7891W        W12091   5.877   2.017   1.892
 7892W        W12092   2.315   7.544  11.788
 7893W        W12093   3.066   0.321   1.394
 7894W        W12094   7.641   3.117  10.969
 7895W        W12095   2.445  10.672  10.899
 7896W        W12096   4.217   3.210  10.432
 7897W        W12097   8.587   4.269   2.857
 7898W        W12098   1.375   0.389   0.834
 7899W        W12099   0.296   0.399   0.012
 7900W        W12100   7.079   0.251   2.229
 7901W        W12101   9.103   6.629   8.869
 7902W        W12102   4.196   7.488   1.825
 7903W        W12103   8.657   1.816   3.386
 7904W        W12104   1.514   0.332   9.583
 7905W        W12105   1.433   2.887   8.353
 7906W        W12106   7.340   6.456  10.100
 7907W        W12107  10.575   7.113   2.747
 7908W        W12108  11.352   9.779   3.400
 7909W        W12109   6.460   9.762   0.810
 7910W        W12110   1.903   7.747   3.471
 7911W        W12111   2.849   1.888   0.537
 7912W        W12112   7.021   4.831   9.101
 7913W        W12113   3.293   6.219  10.704
 7914W        W12114   9.599   3.098   2.795
 7915W        W12115   6.456   6.079  10.986
 7916W        W12116  10.353  10.384   0.231
 7917W        W12117   3.124   6.051  11.844
 7918W        W12118   5.347   1.910  10.008
 7919W        W12119   7.710   5.951  10.698
 7920W        W12120   7.498   5.389   0.239
 7921W        W12121   9.419  10.245   2.835
 7922W        W12122   1.000   9.848   1.663
 7923W        W12123   4.601   1.769   1.414
 7924W        W12124   6.150   2.262   0.770
 7925W        W12125   1.821   2.269   8.756
 7926W        W12126   2.182   7.083  11.564
 7927W        W12127   9.436   9.114   9.383
 7928W        W12128   4.646   1.882  10.290
 7929W        W12129   1.363   7.010   3.236
 7930W        W12130   9.992   3.279  10.855
 7931W        W12131   8.960   5.059   3.742
 7932W        W12132   6.464   9.969  11.895
 7933W        W12133   5.183   8.355   1.557
 7934W        W12134   6.596   2.324   0.469
 7935W        W12135  11.296  10.535  10.402
 7936W        W12136   4.798   0.971   1.628
 7937W        W12137   7.704   8.972  11.429
 7938W        W12138   5.524   7.540  11.443
 7939W        W12139   7.627   3.122   2.013
 7940W        W12140   7.943   6.879  11.717
 7941W        W12141   4.672   9.420   2.204
 7942W        W12142   2.253   6.142   0.277
 7943W        W12143   3.942   0.486   8.793
 7944W        W12144   5.941   0.944   9.478
 7945W        W12145   7.511   4.101   9.274
 7946W        W12146   9.568   1.776   3.336
 7947W        W12147   4.642  11.071   1.988
 7948W        W12148   5.711   1.175   0.347
 7949W        W12149   5.463  10.696  10.744
 7950W        W12150   6.986   4.194   9.968
 7951W        W12151   7.677   7.071  10.480
 7952W        W12152   3.681   6.458  10.932
 7953W        W12153  10.001   8.235   8.382
 7954W        W12154  10.992   0.418  10.339
 7955W        W12155  10.812   4.178   2.736
 7956W        W12156   1.323   6.632   2.900
 7957W        W12157   2.296   4.714   9.268
 7958W        W12158   2.405   1.602   2.968
 7959W        W12159   2.985   7.529   2.568
 7960W        W12160   5.488  11.450   0.872
 7961W        W12161   9.574   5.403   1.615
 7962W        W12162   0.985   7.057   8.731
 7963W        W12163   7.086   3.034   0.116
 7964W        W12164   1.785   5.418   0.298
 7965W        W12165   6.816   3.267   3.743
 7966W        W12166   6.681   5.352  10.588
 7967W        W12167   3.583   1.439   1.278
 7968W        W12168   4.139   8.009   0.885
 7969W        W12169   4.350   4.844   2.779
 7970W        W12170   2.193   0.385   1.927
 7971W        W12171   8.340  10.392   0.429
 7972W        W12172   5.243   9.364  11.841
 7973W        W12173   7.645   2.574  11.794
 7974W        W12174   2.844   2.864   2.785
 7975W        W12175   4.835   2.872  10.118
 7976W        W12176   0.774   7.585   1.280
 7977W        W12177   8.648  10.806   3.374
 7978W        W12178   0.796   4.108   9.566
 7979W        W12179   6.117   0.409   1.709
 7980W        W12180  10.540  10.717   0.565
 7981W        W12181   4.972  10.643   2.421
 7982W        W12182   5.643   9.600   9.863
 7983W        W12183   8.063   7.385   1.663
 7984W        W12184   3.032   9.051   9.555
 7985W        W12185  10.293   3.571   2.914
 7986W        W12186   5.126   1.653   0.850
 7987W        W12187   5.125   1.140   8.790
 7988W        W12188  10.061  10.787   3.257
 7989W        W12189   8.507   0.389  11.491
 7990W        W12190   8.555   7.450   2.820
 7991W        W12191   4.420   0.598   2.451
 7992W        W12192   7.472   3.052   9.709
 7993W        W12193   7.244  10.868   1.973
 7994W        W12194   0.002   5.535  11.723
 7995W        W12195   5.069  10.320   3.292
 7996W        W12196   8.677   9.374   2.331
 7997W        W12197   9.554   1.118   0.362
 7998W        W12198   6.557   9.513  11.634
 7999W        W12199   1.793   5.898   0.134
 8000W        W12200   5.648   3.671   3.299
 8001W        W12201   8.673   1.263   2.496
 8002W        W12202   9.017   4.532  11.876
 8003W        W12203  11.012   9.048   8.789
 8004W        W12204   2.465   7.047  11.074
 8005W        W12205   0.926   9.919   2.176
 8006W        W12206   9.705  10.961   3.629
 8007W        W12207   8.812   7.080  11.250
 8008W        W12208   6.549   2.195   8.798
 8009W        W12209   3.238   6.477  11.197
 8010W        W12210   0.697   3.652   9.805
 8011W        W12211   8.091   6.233   3.982
 8012W        W12212  10.483   8.592   9.406
 8013W        W12213  10.769   9.060  10.748
 8014W        W12214   6.559   4.799   1.662
 8015W        W12215   7.951   4.127   3.665
 8016W        W12216   7.545   2.868  11.397
 8017W        W12217   3.343   2.782   0.328
 8018W        W12218   2.701   6.523   9.527
 8019W        W12219   7.170   6.625   3.789
 8020W        W12220   1.431   2.805   3.026
 8021W        W12221   1.364   6.033   3.379
 8022W        W12222   0.672   5.221   0.932
 8023W        W12223   8.342   5.580  10.819
 8024W        W12224   8.684  10.493   1.769
 8025W        W12225   2.635   8.002   8.602
 8026W        W12226   6.906   9.870  11.660
 8027W        W12227   9.141   1.811  10.410
 8028W        W12228   2.711   6.021   8.982
 8029W        W12229   2.258   6.617  11.846
 8030W        W12230   5.272   6.035  11.507
 8031W        W12231   5.829   2.706   8.330
 8032W        W12232   0.303   7.460   1.412
 8033W        W12233  10.807   7.666  10.148
 8034W        W12234   3.419   5.240   0.320
 8035W        W12235   9.299   9.318   1.809
 8036W        W12236   7.009   9.816   1.663
 8037W        W12237   5.928   8.689  10.297
 8038W        W12238   5.858   0.031   9.010
 8039W        W12239  10.888   7.972   3.242
 8040W        W12240   3.201  10.208   2.174
 8041W        W12241   6.502  11.397  10.256
 8042W        W12242   5.426   9.566   3.693
 8043W        W12243   4.459   1.631   9.881
 8044W        W12244   2.437   2.161  11.458
 8045W        W12245   6.136   8.843   1.833
 8046W        W12246   0.260  10.054   3.249
 8047W        W12247   3.413  10.528   9.899
 8048W        W12248   9.081  10.218   8.795
 8049W        W12249   6.988  10.976  11.687
 8050W        W12250   8.699   5.750   3.115
 8051W        W12251  10.322   2.422  10.411
 8052W        W12252   5.018   6.514  10.100
 8053W        W12253   6.874   8.999   3.673
 8054W        W12254   9.902   4.063   1.796
 8055W        W12255   9.349   6.076   9.215
 8056W        W12256   0.360   1.327  10.381
 8057W        W12257  11.237   4.255   2.995
 8058W        W12258   7.215  11.083  10.415
 8059W        W12259  10.353   1.781   2.177
 8060W        W12260   8.658   5.218  10.630
 8061W        W12261   7.573   4.828  11.453
 8062W        W12262   3.116   4.765   0.418
 8063W        W12263   3.447   8.007   9.124
 8064W        W12264   7.793   3.871   3.258
 8065W        W12265   2.469   7.490  11.306
 8066W        W12266   4.202   3.855  11.030
 8067W        W12267   0.428   0.849   8.749
 8068W        W12268   7.934   0.692   9.337
 8069W        W12269   9.802   2.829  11.583
 8070W        W12270  11.395   8.626   0.139
 8071W        W12271   3.426   9.913  11.562
 8072W        W12272   1.764   4.590   0.022
 8073W        W12273   0.940  11.492   2.980
 8074W        W12274   5.216   5.599   1.870
 8075W        W12275   6.740   0.502   3.554
 8076W        W12276   2.412   7.071   0.546
 8077W        W12277   9.551  11.194   0.516
 8078W        W12278   2.765   6.908   8.734
 8079W        W12279  10.379   5.051   3.263
 8080W        W12280   1.459   3.721   0.496
 8081W        W12281  10.395   5.143   0.665
 8082W        W12282  11.379   8.434   1.658
 8083W        W12283   4.159   4.148  10.031
 8084W        W12284   4.756   0.597   2.823
 8085W        W12285   9.635   2.273   3.232
 8086W        W12286   7.593   7.544   1.825
 8087W        W12287   6.597   2.076   0.929
 8088W        W12288  10.149   8.996   0.493
 8089W        W12289   6.545   0.409   1.430
 8090W        W12290   3.290   6.660   1.655
 8091W        W12291   3.565   8.064   0.810
 8092W        W12292   3.246   3.233   2.802
 8093W        W12293   0.755   2.211   2.752
 8094W        W12294   5.951   3.825  11.860
 8095W        W12295   0.432   3.045   9.747
 8096W        W12296  10.438  10.061   9.492
 8097W        W12297   9.064   5.007  10.358
 8098W        W12298   5.573   9.433   2.216
 8099W        W12299   3.102   5.145   8.687
 8100W        W12300   3.579   9.931  11.065
 8101W        W12301   4.279   2.661   1.448
 8102W        W12302   8.465  10.378   2.626
 8103W        W12303   2.190   2.270   0.737
 8104W        W12304   4.781   0.420   8.432
 8105W        W12305   9.815   7.006   2.337
 8106W        W12306   0.449   4.808  10.117
 8107W        W12307   3.785   5.948  10.485
 8108W        W12308  11.064   2.877  11.718
 8109W        W12309   2.795   0.799  10.022
 8110W        W12310   0.513   9.509  10.731
 8111W        W12311   6.954  11.394   0.861
 8112W        W12312   6.859   6.066   0.356
 8113W        W12313   0.826  11.199  10.171
 8114W        W12314   7.349   8.932  11.768
 8115W        W12315  10.465   8.903   3.468
 8116W        W12316   3.830   2.118   9.052
 8117W        W12317   4.149   1.967  10.128
 8118W        W12318   6.309   6.305   9.181
 8119W        W12319   5.178   1.147   0.848
 8120W        W12320   0.676   5.235   9.290
 8121W        W12321   8.062   5.682   1.679
 8122W        W12322   9.079   8.536  10.541
 8123W        W12323  10.902   9.120  10.266
 8124W        W12324   6.281   9.973  10.237
 8125W        W12325   8.188   6.559   8.957
 8126W        W12326   2.099   7.114   2.743
 8127W        W12327   7.085  10.569   1.485
 8128W        W12328   6.082   9.829   9.786
 8129W        W12329  10.980   4.892   1.616
 8130W        W12330   0.385   2.614  10.491
 8131W        W12331   9.995   0.767   9.955
 8132W        W12332   1.851  11.016  11.498
 8133W        W12333   0.212   4.521   9.756
 8134W        W12334   2.461   6.156   1.266
 8135W        W12335   7.501   9.706   1.327
 8136W        W12336  11.118   7.845   0.027
 8137W        W12337   4.386   8.968   8.523
 8138W        W12338   8.178   3.178  10.442
 8139W        W12339   1.229   9.970  11.273
 8140W        W12340   3.965  10.848   0.871
 8141W        W12341   6.278  10.997  10.562
 8142W        W12342   5.045   9.743  10.884
 8143W        W12343   5.133   2.619   2.307
 8144W        W12344   3.671   4.348  11.980
 8145W        W12345   2.682  11.186  10.408
 8146W        W12346   7.521   4.056  11.829
 8147W        W12347   9.052   9.531   0.879
 8148W        W12348   7.963   8.479  11.431
 8149W        W12349   2.242  10.945  10.518
 8150W        W12350   2.821   3.660   9.863
 8151W        W12351   7.446  10.782  10.738
 8152W        W12352   1.260   1.002  10.437
 8153W        W12353   6.026   3.816   0.916
 8154W        W12354   5.713   4.260   8.648
 8155W        W12355   2.930   3.028   0.933
 8156W        W12356  10.449   7.865  11.055
 8157W        W12357   1.443  10.306   0.508
 8158W        W12358   6.088   8.961   0.498
 8159W        W12359   2.687   0.786   2.160
 8160W        W12360   1.051   1.414   2.350
 8161W        W12361   5.539   1.486  10.189
 8162W        W12362   2.548  11.444   9.990
 8163W        W12363   7.251  10.528   8.953
 8164W        W12364  10.406   8.932   9.921
 8165W        W12365   1.607   9.042  10.396
 8166W        W12366   9.579   6.132   0.529
 8167W        W12367   3.608   7.019   2.834
 8168W        W12368   7.888   5.349   9.064
 8169W        W12369   8.508   1.275   9.052
 8170W        W12370  11.285   6.598  10.959
 8171W        W12371   3.644   2.840   2.194
 8172W        W12372  11.363   2.559   0.005
 8173W        W12373   3.564  10.192  10.363
 8174W        W12374  10.822   7.611   2.894
 8175W        W12375  10.245   9.674  11.254
 8176W        W12376   3.704   7.424   9.322
 8177W        W12377  11.419  10.987  10.142
 8178W        W12378   3.209   6.959  11.985
 8179W        W12379   5.538   4.461  11.698
 8180W        W12380   4.763  10.951   2.991
 8181W        W12381   4.596   6.283   0.658
 8182W        W12382   5.911   7.259   1.167
 8183W        W12383   5.687   6.698   3.602
 8184W        W12384   2.081   0.072   9.868
 8185W        W12385   3.896   5.101   1.566
 8186W        W12386   6.640   8.303   3.379
 8187W        W12387   8.916   7.797   9.458
 8188W        W12388   3.410   1.381   2.777
 8189W        W12389  10.608   5.460   9.699
 8190W        W12390   1.271   6.443   0.724
 8191W        W12391   8.119   6.597   0.497
 8192W        W12392   6.711  10.240   3.590
 8193W        W12393   3.508   8.489   3.652
 8194W        W12394   6.202   7.002  10.582
 8195W        W12395   0.189  10.859  11.173
 8196W        W12396   7.492   0.293   9.033
 8197W        W12397  11.197   2.912   0.944
 8198W        W12398   8.093   0.281   2.005
 8199W        W12399   0.339   8.467   9.815
 8200W        W12400   1.484   1.255   0.495
 8201W        W12401   7.705   8.445   0.794
 8202W        W12402   8.249   2.255   1.750
 8203W        W12403  11.121   1.371   0.937
 8204W        W12404   6.892  10.916   1.051
 8205W        W12405  11.470   0.511   3.803
 8206W        W12406   1.877   9.340  10.872
 8207W        W12407   9.953   6.514   2.217
 8208W        W12408   8.013   2.721   9.784
 8209W        W12409   2.206   9.916  10.304
 8210W        W12410   6.638   1.366  10.787
 8211W        W12411   8.707   6.603   2.642
 8212W        W12412   2.192   5.142   3.159
 8213W        W12413   8.118   8.644  10.802
 8214W        W12414   7.480   8.595   1.877
 8215W        W12415   5.171   6.235  10.964
 8216W        W12416   6.130  10.912   2.736
 8217W        W12417   5.337   6.049   1.274
 8218W        W12418   9.994   5.425  11.905
 8219W        W12419   7.118  10.581  10.383
 8220W        W12420   3.136  10.976   2.901
 8221W        W12421   4.486   3.595   9.158
 8222W        W12422   2.123  10.175   8.926
 8223W        W12423   7.240   3.312   0.926
 8224W        W12424   7.397   9.097   1.880
 8225W        W12425   2.147  11.017   9.608
 8226W        W12426   7.569   0.573   2.715
 8227W        W12427   8.942   4.545  10.171
 8228W        W12428   3.336   9.598  10.770
 8229W        W12429   7.186   5.576   1.936
 8230W        W12430   0.467   4.093   2.886
 8231W        W12431  10.346   7.610   2.718
 8232W        W12432   0.675  11.050  11.117
 8233W        W12433   2.320   2.276  10.930
 8234W        W12434   7.106   1.489   0.373
 8235W        W12435   2.215  10.767   0.369
 8236W        W12436   3.255   9.721   2.322
 8237W        W12437  11.057   7.907   1.144
 8238W        W12438   6.556   7.868  10.401
 8239W        W12439   0.083   3.803   3.624
 8240W        W12440  10.907   3.145  10.943
 8241W        W12441  10.962   0.168   9.004
 8242W        W12442   5.462   3.663  11.791
 8243W        W12443   6.230   4.164   3.465
 8244W        W12444   2.370   4.048   0.369
 8245W        W12445   2.111   2.719  11.500
 8246W        W12446  10.320   4.062   9.021
 8247W        W12447   1.364   2.706   0.138
 8248W        W12448   8.237   0.978   0.631
 8249W        W12449   7.944   4.104   9.534
 8250W        W12450   5.792   7.611   4.025
 8251W        W12451   8.074   4.733   9.906
 8252W        W12452   4.128   5.223  10.536
 8253W        W12453   1.140   4.456   1.829
 8254W        W12454  11.388  10.068  10.621
 8255W        W12455  11.217   6.294  11.374
 8256W        W12456   7.063   6.326   4.212
 8257W        W12457   5.014   4.716   0.208
 8258W        W12458   9.975   9.238  11.985
 8259W        W12459   0.901   3.683   3.390
 8260W        W12460   5.243   4.548   8.649
 8261W        W12461  11.484   3.514   0.388
 8262W        W12462   1.400  11.477   1.816
 8263W        W12463   1.319  11.099   2.194
 8264W        W12464   9.559   6.776  10.364
 8265W        W12465   5.623   6.519   9.884
 8266W        W12466   3.378   7.139   1.490
 8267W        W12467   1.311   5.970   9.182
 8268W        W12468   1.294   9.927   0.796
 8269W        W12469   0.420   0.009   2.311
 8270W        W12470   6.465   2.034  10.247
 8271W        W12471  10.274  10.540  10.266
 8272W        W12472   7.930   0.974  10.730
 8273W        W12473   6.620   7.818   9.114
 8274W        W12474   1.727   7.274   3.489
 8275W        W12475   4.066  10.750   0.046
 8276W        W12476   8.560  10.740   1.344
 8277W        W12477   6.590   5.722   0.028
 8278W        W12478   6.772   7.078   0.660
 8279W        W12479   6.649   3.276  10.537
 8280W        W12480   7.933   6.408   0.917
 8281W        W12481  10.080   5.851   3.387
 8282W        W12482   4.596  10.005  10.028
 8283W        W12483   9.418  10.656   1.218
 8284W        W12484   9.060   4.263   2.611
 8285W        W12485   8.966   5.569   2.140
 8286W        W12486   9.971   6.808   3.180
 8287W        W12487  11.081   0.948  11.749
 8288W        W12488   3.794   4.413  10.243
 8289W        W12489   9.246   5.811   0.200
 8290W        W12490   5.435   6.225   1.737
 8291W        W12491  11.409   7.319   2.973
 8292W        W12492  10.405   9.404   2.650
 8293W        W12493   6.531   8.306   1.164
 8294W        W12494   9.750   7.267  10.406
 8295W        W12495   4.320   7.199   2.350
 8296W        W12496  11.103   6.334   8.391
 8297W        W12497   4.128   4.853   8.606
 8298W        W12498  11.122   3.106   0.487
 8299W        W12499   1.581   6.689   0.381
 8300W        W12500   8.122   9.390   0.525
 8301W        W12501   8.047   9.945   2.204
 8302W        W12502   4.734  10.792   0.300
 8303W        W12503   8.694   8.856   9.816
 8304W        W12504   3.808  10.409   0.362
 8305W        W12505   9.576   8.895   2.711
 8306W        W12506   6.099   3.775   2.666
 8307W        W12507   0.719  10.265   9.162
 8308W        W12508   1.800   6.548   1.782
 8309W        W12509   0.018   5.055   1.643
 8310W        W12510   3.942   9.370   9.886
 8311W        W12511   1.668  11.285  11.082
 8312W        W12512   3.532   5.603   2.385
 8313W        W12513   2.157   0.200   3.483
 8314W        W12514   9.434   9.243  11.256
 8315W        W12515   6.416   1.682   2.048
 8316W        W12516  10.499   5.490   3.517
 8317W        W12517   1.947   3.135  10.487
 8318W        W12518   1.787   0.017   2.759
 8319W        W12519   6.901   8.247  10.222
 8320W        W12520   9.289   9.269   0.137
 8321W        W12521   2.481   7.979  10.371
 8322W        W12522   2.346   1.871   1.502
 8323W        W12523   4.819   8.010   2.876
 8324W        W12524  11.456  10.054   0.144
 8325W        W12525   7.668   5.173   1.812
 8326W        W12526   2.624   0.693  10.501
 8327W        W12527   3.424   6.473   9.069
 8328W        W12528   5.751  11.167   3.483
 8329W        W12529   4.679   9.831   2.511
 8330W        W12530   2.154   3.269  11.880
 8331W        W12531   3.859   7.130   9.744
 8332W        W12532   3.780   7.421  11.100
 8333W        W12533   7.728   8.462  10.498
 8334W        W12534   0.128   7.797   0.174
 8335W        W12535   1.613   5.689   2.653
 8336W        W12536  10.375   4.740   9.352
 8337W        W12537   6.100   1.207   3.356
 8338W        W12538   1.815   9.141  11.357
 8339W        W12539   8.553   2.733   0.532
 8340W        W12540   3.880  10.294   9.945
 8341W        W12541   9.059   9.974   0.571
 8342W        W12542   2.296   3.233  10.143
 8343W        W12543   8.615   0.056   0.861
 8344W        W12544   7.780   7.928  10.757
 8345W        W12545   1.598   9.767   1.517
 8346W        W12546  10.374   4.544   3.385
 8347W        W12547   6.128   9.046   3.264
 8348W        W12548   7.961  10.028   1.255
 8349W        W12549   8.859   5.471   0.112
 8350W        W12550  11.024   6.197   1.988
 8351W        W12551  11.322   7.698   0.585
 8352W        W12552   5.524   3.686  10.135
 8353W        W12553   8.446   2.175  10.767
 8354W        W12554   3.163   4.804   1.581
 8355W        W12555   1.487   4.763  11.072
 8356W        W12556   3.104   7.098   2.825
 8357W        W12557  10.833   6.345  10.729
 8358W        W12558   3.206  10.567   3.625
 8359W        W12559   6.246   9.978   1.711
 8360W        W12560   1.811   1.398  11.388
 8361W        W12561  10.899   6.592   8.820
 8362W        W12562   6.930   4.650   3.166
 8363W        W12563  10.342   8.318   1.217
 8364W        W12564   2.347   1.145   0.495
 8365W        W12565   0.565   2.441   2.339
 8366W        W12566   6.651   2.861  11.581
 8367W        W12567  10.803   2.932   3.621
 8368W        W12568   2.619   9.861   9.875
 8369W        W12569   2.241   0.514  11.798
 8370W        W12570   7.794   8.154   1.424
 8371W        W12571   0.299   1.313   1.716
 8372W        W12572  11.031  10.436   9.471
 8373W        W12573   5.493   6.145   9.519
 8374W        W12574   3.558   2.215   3.276
 8375W        W12575   0.471   7.079   1.705
 8376W        W12576   3.889   1.507   0.389
 8377W        W12577   5.565   7.816   9.536
 8378W        W12578   9.096   7.731   1.205
 8379W        W12579   7.485   8.694   0.386
 8380W        W12580  10.441  10.415   1.669
 8381W        W12581   4.183   8.610   3.071
 8382W        W12582   4.281   9.086   3.329
 8383W        W12583   8.621   8.317   2.991
 8384W        W12584   5.550   0.334   1.381
 8385W        W12585  11.083   3.410   2.958
 8386W        W12586   5.814  10.560  11.770
 8387W        W12587   4.533   4.870   0.095
 8388W        W12588   1.704   4.841   3.183
 8389W        W12589   8.069   1.828   9.435
 8390W        W12590   9.886   3.337   3.169
 8391W        W12591   7.870   1.764   1.022
 8392W        W12592  11.347  11.032  11.563
 8393W        W12593   5.177   6.498   0.178
 8394W        W12594   2.190  11.476   9.380
 8395W        W12595   0.653  11.084   0.272
 8396W        W12596   5.184   1.846   1.328
 8397W        W12597   6.461   5.051  10.962
 8398W        W12598   3.138   4.305   1.339
 8399W        W12599   1.764   9.934   2.820
 8400W        W12600   4.641   8.279   3.713
 8401W        W12601   6.992   8.873   0.107
 8402W        W12602   5.075   1.907   9.325
 8403W        W12603   2.008  11.070   8.596
 8404W        W12604   7.436   3.283   1.575
 8405W        W12605   0.232   1.074   0.901
 8406W        W12606   1.014  10.997  11.489
 8407W        W12607   4.462  11.076  11.926
 8408W        W12608   1.147  10.050   8.921
 8409W        W12609   5.614   9.818  11.434
 8410W        W12610   5.226   0.432   2.740
 8411W        W12611   3.284   3.268  11.066
 8412W        W12612  10.077   6.027   2.114
 8413W        W12613   0.486  10.558   0.092
 8414W        W12614   2.148   4.594   3.183
 8415W        W12615   3.379   2.417  11.486
 8416W        W12616   4.280   2.182   1.230
 8417W        W12617   5.835   8.658  11.865
 8418W        W12618   6.032   0.321  11.283
 8419W        W12619   4.166   0.263   2.809
 8420W        W12620   0.796   4.517   0.326
 8421W        W12621   9.929   8.586   1.059
 8422W        W12622   6.030   0.828  11.066
 8423W        W12623   5.213   0.557   9.250
 8424W        W12624   8.999   2.515  11.962
 8425W        W12625   7.754   6.161  10.230
 8426W        W12626   2.081   5.077   9.535
 8427W        W12627   2.439   0.357  10.849
 8428W        W12628  10.003   5.355   3.400
 8429W        W12629   5.134   9.139   9.420
 8430W        W12630   4.374   7.188   1.458
 8431W        W12631   8.430   0.251   0.401
 8432W        W12632   0.881  10.215  10.964
 8433W        W12633   2.080   9.477   0.762
 8434W        W12634   4.840   3.834  10.498
 8435W        W12635   3.531   5.240   0.872
 8436W        W12636   1.201   3.128   2.303
 8437W        W12637   7.307   0.547   1.369
 8438W        W12638   0.283   3.926   1.517
 8439W        W12639   8.852   2.249   9.916
 8440W        W12640   0.167  10.972   0.441
 8441W        W12641   9.473   9.851   9.899
 8442W        W12642  10.401   6.175  11.651
 8443W        W12643   1.295   6.479   9.265
 8444W        W12644   8.824   4.079  10.397
 8445W        W12645   7.968   7.505   0.283
 8446W        W12646   0.726   2.786  11.458
 8447W        W12647   6.299   7.611   4.076
 8448W        W12648   0.478   4.820   8.955
 8449W        W12649   4.926   0.459   2.298
 8450W        W12650   6.994  10.255  10.013
 8451W        W12651   3.892   8.831   3.538
 8452W        W12652   4.542   8.916  11.424
 8453W        W12653   4.585   2.345   2.151
 8454W        W12654   0.570   4.297   1.225
 8455W        W12655   3.742   7.130   8.891
 8456W        W12656   0.359   6.465  10.192
 8457W        W12657   0.267   0.871   9.718
 8458W        W12658   5.783   8.128  11.998
 8459W        W12659   5.646   9.266  10.806
 8460W        W12660   1.898   1.079   0.223
 8461W        W12661   2.804   4.669   9.147
 8462W        W12662  10.738   7.151   2.226
 8463W        W12663  10.377   7.141   0.735
 8464W        W12664  10.622   1.337   1.066
 8465W        W12665   6.164   0.370   0.652
 8466W        W12666  11.422   8.160   2.617
 8467W        W12667   2.567   1.587   9.015
 8468W        W12668   4.399   6.606  10.450
 8469W        W12669   8.589  10.243  10.567
 8470W        W12670   3.320   0.304   9.607
 8471W        W12671   3.204   3.659  10.354
 8472W        W12672   7.101   6.047   0.857
 8473W        W12673   7.056   7.582   8.976
 8474W        W12674   8.142   1.840  10.485
 8475W        W12675  11.404   4.110   1.867
 8476W        W12676   4.792   1.908  11.677
 8477W        W12677   6.987   5.733  10.438
 8478W        W12678   6.042   9.591  10.660
 8479W        W12679   5.112   7.799   9.800
 8480W        W12680   3.819   3.626   9.747
 8481W        W12681   1.040   8.946   1.538
 8482W        W12682   5.176   8.703   0.595
 8483W        W12683   7.973   7.051   2.056
 8484W        W12684   9.145   5.188   0.466
 8485W        W12685   4.768  10.361   9.662
 8486W        W12686   8.384   5.515  10.321
 8487W        W12687   2.647  10.888   0.620
 8488W        W12688   9.378   0.844   1.250
 8489W        W12689   9.780   2.652   9.095
 8490W        W12690  10.849   3.005   9.922
 8491W        W12691  11.372   0.564  11.261
 8492W        W12692   2.774   1.024  11.431
 8493W        W12693   2.232   2.150   3.418
 8494W        W12694   9.465   1.465  10.102
 8495W        W12695   5.933   1.815  10.202
 8496W        W12696   4.498   7.604   2.711
 8497W        W12697   5.433   6.091   2.773
 8498W        W12698   4.753   8.524   2.890
 8499W        W12699   4.221   2.917   1.916
 8500W        W12700   6.067  10.958   0.690
 8501W        W12701   7.899   4.190  10.588
 8502W        W12702   4.274  11.062   0.403
 8503W        W12703   5.182  11.426  11.111
 8504W        W12704   7.235   9.250   9.937
 8505W        W12705   9.385   6.176  11.539
 8506W        W12706  10.643   3.865   3.622
 8507W        W12707   3.947   8.001  10.505
 8508W        W12708   6.789  10.777  10.784
 8509W        W12709   4.901  10.098   0.960
 8510W        W12710   1.648   0.882   3.467
 8511W        W12711   7.085  10.483   9.447
 8512W        W12712   9.861  10.773   8.990
 8513W        W12713   2.136   0.190   2.426
 8514W        W12714   2.385   6.113  11.334
 8515W        W12715   4.160   1.712   9.146
 8516W        W12716  10.469   4.320  11.015
 8517W        W12717   9.782   0.400   1.287
 8518W        W12718   0.916   4.982   0.513
 8519W        W12719   1.310   5.312   9.923
 8520W        W12720   8.478   5.805   0.815
 8521W        W12721   1.162   8.156  11.311
 8522W        W12722   0.214   3.463  11.936
 8523W        W12723   2.728   3.857   0.672
 8524W        W12724   2.612   5.093   9.424
 8525W        W12725   9.879   5.700   0.746
 8526W        W12726   8.579   8.280   1.037
 8527W        W12727   5.963   9.330   8.520
 8528W        W12728   9.612   3.144  10.538
 8529W        W12729   6.348   2.096   1.741
 8530W        W12730   5.821   9.863   1.476
 8531W        W12731   7.133   9.876   2.185
 8532W        W12732   4.659  11.263   9.615
 8533W        W12733   5.697   8.332   9.483
 8534W        W12734   5.662   5.803   1.994
 8535ION    NA+12735   2.770   6.701  11.889
 8536ION    NA+12736   4.181   1.070   2.048
 8537ION    NA+12737   1.103  10.576   3.371
 8538ION    NA+12738   6.811   0.886   1.363
 8539ION    NA+12739   7.206   3.421   9.480
 8540ION    NA+12740  10.143   9.495   3.529
 8541ION    NA+12741  11.457   2.013  11.409
 8542ION    NA+12742   5.638   4.057   0.649
 8543ION    NA+12743  11.246   7.138   9.651
 8544ION    NA+12744   8.225   4.618   9.424
 8545ION    NA+12745   6.821   6.441  10.906
 8546ION    NA+12746   7.747   2.280   1.669
 8547ION    NA+12747   8.059   4.980   0.989
 8548ION    NA+12748   8.114   2.288   3.242
 8549ION    NA+12749   1.830  10.999   1.001
 8550ION    NA+12750   0.908   9.289  11.897
 8551ION    NA+12751   7.853   6.238  11.512
 8552ION    NA+12752   5.351   1.576   3.213
 8553ION    NA+12753   3.999  10.456  10.456
 8554ION    NA+12754   1.842   3.115   9.928
 8555ION    NA+12755   9.844   4.719   2.289
 8556ION    NA+12756   0.858   8.670   0.829
 8557ION    NA+12757   6.323   7.425  11.920
 8558ION    NA+12758   8.048   3.410   3.130
 8559ION    NA+12759   8.876   6.305  10.672
 8560ION    NA+12760   9.744   7.751   0.947
 8561ION    NA+12761   6.410  11.006   3.207
 8562ION    NA+12762   8.244   2.292   0.402
 8563ION    NA+12763   0.931   2.811   9.650
 8564ION    NA+12764   2.116   0.628   0.297
 8565ION    NA+12765   3.401   2.836  11.793
 8566ION    NA+12766   6.474   7.723   1.927
 8567ION    NA+12767   3.201   4.899   8.260
 8568ION    NA+12768   4.654  11.160   2.541
 8569ION    NA+12769   5.698  10.291   1.220
 8570ION    NA+12770   3.167   4.708  10.830
 8571ION    NA+12771  10.438   0.485  11.507
 8572ION    NA+12772   7.242   7.702   3.000
 8573ION    NA+12773   7.638   3.766   0.260
 8574ION    NA+12774  10.239   7.440  11.968
 8575ION    NA+12775   3.693   9.990   2.174
 8576ION    NA+12776   3.219   1.128  10.180
 8577ION    NA+12777   1.461   7.674  10.011
 8578ION    NA+12778   1.503   8.739   8.851
 8579ION    NA+12779   3.140   9.438  11.804
 8580ION    NA+12780   8.910   0.157   1.299
 8581ION    NA+12781   0.539   5.234   9.802
 8582ION    NA+12782   5.608   7.074   2.437
 8583ION    NA+12783   2.917   3.857   9.395
 8584ION    NA+12784   7.022   5.618   0.558
 8585ION    NA+12785   3.492  11.427   1.727
 8586ION    NA+12786   0.920  10.799   2.297
 8587ION    NA+12787   4.807   6.538   1.923
 8588ION    NA+12788   1.025   6.280   3.105
 8589ION    NA+12789   9.767   2.157   8.915
 8590ION    NA+12790   6.684   7.008   3.183
 8591ION    NA+12791   9.173  10.350   1.847
 8592ION    NA+12792   1.501   4.160   0.737
 8593ION    NA+12793   1.659   4.366   1.881
 8594ION    NA+12794   3.358   6.204   3.333
 8595ION    NA+12795   9.630   7.679   3.478
 8596ION    NA+12796   5.765   8.028  11.479
 8597ION    NA+12797   1.164   6.006   9.683
 8598ION    NA+12798   8.463   3.640   2.210
 8599ION    NA+12799   9.662   2.098   3.742
 8600ION    NA+12800   7.409   1.749   0.049
 8601ION    NA+12801   8.530   8.370   2.483
 8602ION    NA+12802   0.006  11.055   3.286
 8603ION    NA+12803   6.734   7.415   4.235
 8604ION    NA+12804   5.321  11.289  11.577
 8605ION    NA+12805   6.037   2.548   2.611
 8606ION    NA+12806   8.296   8.536   9.815
 8607ION    NA+12807   7.333   8.850   1.443
 8608ION    NA+12808   4.727  10.221   2.204
 8609ION    NA+12809   4.264   5.811   2.003
 8610ION    NA+12810   0.032   8.012   1.902
 8611ION    NA+12811   4.148  10.049   1.270
 8612ION    NA+12812   8.138   0.949   9.777
 8613ION    NA+12813   4.360   5.915   0.385
 8614ION    NA+12814  10.095   0.427   0.868
 8615ION    NA+12815   9.727   7.864   9.018
 8616ION    NA+12816   6.013   3.906   1.837
 8617ION    NA+12817   7.344   9.362  10.813
 8618ION    NA+12818   5.915   3.234   3.343
 8619ION    NA+12819   1.755   1.156   1.376
 8620ION    NA+12820   7.661   2.843   8.611
 8621ION    NA+12821   6.192   8.475   9.497
 8622ION    NA+12822   0.649   4.675   1.613
 8623ION    NA+12823   3.177   6.607   8.598
 8624ION    NA+12824   4.134   6.807   0.258
 8625ION    CL-12825   5.536   1.692   2.115
 8626ION    CL-12826   0.206   7.858  11.287
 8627ION    CL-12827  11.332   4.319   8.640
 8628ION    CL-12828   2.119   8.505   2.299
 8629ION    CL-12829   6.894   7.858   2.005
 8630ION    CL-12830   4.682   8.953   1.510
 8631ION    CL-12831   8.193   3.596  11.383
 8632ION    CL-12832   0.143   7.832   2.293
 8633ION    CL-12833   9.247   5.869   3.559
 8634ION    CL-12834   0.277   0.880   0.208
 8635ION    CL-12835   7.456  11.478   0.816
 8636ION    CL-12836   3.315  11.343   1.328
 8637ION    CL-12837   6.941   3.145   9.709
 8638ION    CL-12838   5.032   0.531   1.391
 8639ION    CL-12839  11.499  11.430   3.028
 8640ION    CL-12840   4.774   1.188  11.016
 8641ION    CL-12841   5.803   9.928   0.965
 8642ION    CL-12842  11.139   7.351   9.271
 8643ION    CL-12843   0.257   4.447   1.618
 8644ION    CL-12844   6.046   7.766  11.749
 8645ION    CL-12845  10.611  10.947  10.122
 8646ION    CL-12846   3.575  11.340  11.982
 8647ION    CL-12847   7.220   1.046   1.444
 8648ION    CL-12848   9.139   1.651   3.552
 8649ION    CL-12849   3.229  11.151   9.136
 8650ION    CL-12850   0.979  10.352   9.597
 8651ION    CL-12851   3.308   3.001   3.298
 8652ION    CL-12852   6.948   7.364   3.087
 8653ION    CL-12853   6.705   2.781  10.611
 8654ION    CL-12854  11.461   3.545   1.303
 8655ION    CL-12855   2.364   0.435  10.132
 8656ION    CL-12856   9.468  10.649  10.365
 8657ION    CL-12857   1.021   7.914   3.383
 8658ION    CL-12858   6.364   7.200   4.392
 8659ION    CL-12859   8.460   4.978   3.624
 8660ION    CL-12860   5.393   2.858   8.549
 8661ION    CL-12861   8.223   6.497   2.762
 8662ION    CL-12862   6.979   9.501   2.517
 8663ION    CL-12863   5.189   3.390   2.741
 8664ION    CL-12864  11.202   3.554  11.929
 8665ION    CL-12865  10.532   3.184   1.389
 8666ION    CL-12866   7.538   7.308   9.661
 8667ION    CL-12867   1.013   1.532   0.390
 8668ION    CL-12868   3.338   1.551  10.104
 8669ION    CL-12869  10.884   3.608  10.117
 8670ION    CL-12870   1.350   1.235   9.654
 8671ION    CL-12871  11.434   5.493   2.334
 8672ION    CL-12872   2.655   6.833   9.959
 8673ION    CL-12873   6.907   9.420  10.755
 8674ION    CL-12874   8.320   4.614   0.958
 8675ION    CL-12875   4.254   8.745  11.016
 8676ION    CL-12876   5.295   3.766   0.668
 8677ION    CL-12877   0.226   5.259  10.123
 8678ION    CL-12878   5.817   4.170   2.142
 8679ION    CL-12879   9.106   9.572   3.545
 8680ION    CL-12880  10.970   5.539   8.113
 8681ION    CL-12881   3.036   7.756   9.903
 8682ION    CL-12882   5.320   1.180  11.963
 8683ION    CL-12883   9.906   6.682   1.197
 8684ION    CL-12884   9.210   7.174   2.914
 8685ION    CL-12885   4.087   7.263   0.302
 8686ION    CL-12886   9.319   6.382  10.660
 8687ION    CL-12887   0.695   4.614   2.912
 8688ION    CL-12888  10.422  10.451   1.143
 8689ION    CL-12889   7.134  10.113   1.283
 8690ION    CL-12890   5.307   3.695   9.629
 8691ION    CL-12891   4.526   6.185   2.003
 8692ION    CL-12892   4.234   6.349   0.302
 8693ION    CL-12893  10.881   0.870   8.493
 8694ION    CL-12894   5.543   8.315  11.196
 8695ION    CL-12895   5.329   3.114  11.557
 8696ION    CL-12896   4.465   3.060   8.862
 8697ION    CL-12897   9.965   7.464  11.616
 8698ION    CL-12898   0.745   5.991   3.347
 8699ION    CL-12899  10.106   3.119   2.739
 8700ION    CL-12900   9.342   7.819   0.759
 8701ION    CL-12901   7.487   1.756  11.609
 8702ION    CL-12902   2.754   5.636   2.071
 8703ION    CL-12903   5.676  10.706   1.411
 8704ION    CL-12904   1.251   2.309   1.849
 8705ION    CL-12905   1.158  11.271  11.041
 8706ION    CL-12906   4.876   1.933   9.818
 8707ION    CL-12907   8.065  11.292   1.837
 8708ION    CL-12908   1.427   9.453   2.705
 8709ION    CL-12909   6.631   7.111   0.036
 8710ION    CL-12910   1.751  10.748  10.344
 8711ION    CL-12911   0.860   4.988   1.352
 8712ION    CL-12912   6.042   9.557  11.557
 8713ION    CL-12913   5.137  10.184   8.686
 8714ION    CL-12914   9.521  10.315   1.569
  11.50000  11.50000  12.00000
