[ moleculetype ]
; Name            nrexcl
AU                  1

[ atoms ]
;   nr       type  resnr residue  atom    cgnr     charge       mass
     1        P5     1    AU   AUC        1         0          784
     2        P5     1    AU   AUC        2         0          784
     3        P5     1    AU   AUC        3         0          784
     4        P5     1    AU   AUC        4         0          784
     5        P5     1    AU   AUC        5         0          784
     6        P5     1    AU   AUC        6         0          784
     7        P5     1    AU   AUC        7         0          784
     8        P5     1    AU   AUC        8         0          784
     9        P5     1    AU   AUC        9         0          784
    10        P5     1    AU   AUC       10         0          784
    11        P5     1    AU   AUC       11         0          784
    12        P5     1    AU   AUC       12         0          784
    13        P5     1    AU   AUC       13         0          784
    14        P5     1    AU   AUC       14         0          784
    15        P5     1    AU   AUC       15         0          784
    16        P5     1    AU   AUC       16         0          784
    17        P5     1    AU   AUC       17         0          784
    18        P5     1    AU   AUC       18         0          784
    19        P5     1    AU   AUC       19         0          784
    20        P5     1    AU   AUC       20         0          784
    21        P5     1    AU   AUC       21         0          784
    22        P5     1    AU   AUC       22         0          784
    23        P5     1    AU   AUC       23         0          784
    24        P5     1    AU   AUC       24         0          784
    25        P5     1    AU   AUC       25         0          784
    26        P5     1    AU   AUC       26         0          784
    27        P5     1    AU   AUC       27         0          784
    28        P5     1    AU   AUC       28         0          784
    29        P5     1    AU   AUC       29         0          784
    30        P5     1    AU   AUC       30         0          784
    31        P5     1    AU   AUC       31         0          784
    32        P5     1    AU   AUC       32         0          784
    33        P5     1    AU   AUC       33         0          784
    34        P5     1    AU   AUC       34         0          784
    35        P5     1    AU   AUC       35         0          784
    36        P5     1    AU   AUC       36         0          784
    37        P5     1    AU   AUC       37         0          784
    38        P5     1    AU   AUC       38         0          784
    39        P5     1    AU   AUC       39         0          784
    40        P5     1    AU   AUC       40         0          784
    41        P5     1    AU   AUC       41         0          784
    42        P5     1    AU   AUC       42         0          784
    43        P5     1    AU   AUC       43         0          784
    44        P5     1    AU   AUC       44         0          784
    45        P5     1    AU   AUC       45         0          784
    46        P5     1    AU   AUC       46         0          784
    47        P5     1    AU   AUC       47         0          784
    48        P5     1    AU   AUC       48         0          784
    49        P5     1    AU   AUC       49         0          784
    50        P5     1    AU   AUC       50         0          784
    51        P5     1    AU   AUC       51         0          784
    52        P5     1    AU   AUC       52         0          784
    53        P5     1    AU   AUC       53         0          784
    54        P5     1    AU   AUC       54         0          784
    55        P5     1    AU   AUC       55         0          784
    56        P5     1    AU   AUSL      56         0          784
    57        P5     1    AU   AUSL      57         0          784
    58        P5     1    AU   AUL       58         0          784
    59        N0     1    AU   S         59         0           46
    60        C1     1    AU   LIG       60         0           56
    61        C1     1    AU   LIG       61         0           56
    62        C1     1    AU   LIG       62         0           56
    63        C1     1    AU   LIG       63         0           56
    64        C1     1    AU   LIG       64         0           56
    65        N0     1    AU   S         65         0           46
    66        C1     1    AU   LIG       66         0           56
    67        C1     1    AU   LIG       67         0           56
    68        C1     1    AU   LIG       68         0           56
    69        C1     1    AU   LIG       69         0           56
    70        C1     1    AU   LIG       70         0           56
    71        P5     1    AU   AUSL      71         0          784
    72        P5     1    AU   AUSL      72         0          784
    73        P5     1    AU   AUL       73         0          784
    74        N0     1    AU   S         74         0           46
    75        C1     1    AU   LIG       75         0           56
    76        C1     1    AU   LIG       76         0           56
    77        C1     1    AU   LIG       77         0           56
    78        C1     1    AU   LIG       78         0           56
    79        C1     1    AU   LIG       79         0           56
    80        N0     1    AU   S         80         0           46
    81        C1     1    AU   LIG       81         0           56
    82        C1     1    AU   LIG       82         0           56
    83        C1     1    AU   LIG       83         0           56
    84        C1     1    AU   LIG       84         0           56
    85        C1     1    AU   LIG       85         0           56
    86        P5     1    AU   AUSL      86         0          784
    87        P5     1    AU   AUSL      87         0          784
    88        P5     1    AU   AUL       88         0          784
    89        N0     1    AU   S         89         0           46
    90        C1     1    AU   LIG       90         0           56
    91        C1     1    AU   LIG       91         0           56
    92        C1     1    AU   LIG       92         0           56
    93        C1     1    AU   LIG       93         0           56
    94        C1     1    AU   LIG       94         0           56
    95        N0     1    AU   S         95         0           46
    96        C1     1    AU   LIG       96         0           56
    97        C1     1    AU   LIG       97         0           56
    98        C1     1    AU   LIG       98         0           56
    99        C1     1    AU   LIG       99         0           56
   100        C1     1    AU   LIG      100         0           56
   101        P5     1    AU   AUSL     101         0          784
   102        P5     1    AU   AUSL     102         0          784
   103        P5     1    AU   AUL      103         0          784
   104        N0     1    AU   S        104         0           46
   105        C1     1    AU   LIG      105         0           56
   106        C1     1    AU   LIG      106         0           56
   107        C1     1    AU   LIG      107         0           56
   108        C1     1    AU   LIG      108         0           56
   109        C1     1    AU   LIG      109         0           56
   110        N0     1    AU   S        110         0           46
   111        C1     1    AU   LIG      111         0           56
   112        C1     1    AU   LIG      112         0           56
   113        C1     1    AU   LIG      113         0           56
   114        C1     1    AU   LIG      114         0           56
   115        C1     1    AU   LIG      115         0           56
   116        P5     1    AU   AUSL     116         0          784
   117        P5     1    AU   AUSL     117         0          784
   118        P5     1    AU   AUL      118         0          784
   119        N0     1    AU   S        119         0           46
   120        C1     1    AU   LIG      120         0           56
   121        C1     1    AU   LIG      121         0           56
   122        C1     1    AU   LIG      122         0           56
   123        C1     1    AU   LIG      123         0           56
   124        C1     1    AU   LIG      124         0           56
   125        N0     1    AU   S        125         0           46
   126        C1     1    AU   LIG      126         0           56
   127        C1     1    AU   LIG      127         0           56
   128        C1     1    AU   LIG      128         0           56
   129        C1     1    AU   LIG      129         0           56
   130        C1     1    AU   LIG      130         0           56
   131        P5     1    AU   AUSL     131         0          784
   132        P5     1    AU   AUSL     132         0          784
   133        P5     1    AU   AUL      133         0          784
   134        N0     1    AU   S        134         0           46
   135        C1     1    AU   LIG      135         0           56
   136        C1     1    AU   LIG      136         0           56
   137        C1     1    AU   LIG      137         0           56
   138        C1     1    AU   LIG      138         0           56
   139        C1     1    AU   LIG      139         0           56
   140        N0     1    AU   S        140         0           46
   141        C1     1    AU   LIG      141         0           56
   142        C1     1    AU   LIG      142         0           56
   143        C1     1    AU   LIG      143         0           56
   144        C1     1    AU   LIG      144         0           56
   145        C1     1    AU   LIG      145         0           56
   146        P5     1    AU   AUSL     146         0          784
   147        P5     1    AU   AUSL     147         0          784
   148        P5     1    AU   AUL      148         0          784
   149        N0     1    AU   S        149         0           46
   150        C1     1    AU   LIG      150         0           56
   151        C1     1    AU   LIG      151         0           56
   152        C1     1    AU   LIG      152         0           56
   153        C1     1    AU   LIG      153         0           56
   154        C1     1    AU   LIG      154         0           56
   155        N0     1    AU   S        155         0           46
   156        C1     1    AU   LIG      156         0           56
   157        C1     1    AU   LIG      157         0           56
   158        C1     1    AU   LIG      158         0           56
   159        C1     1    AU   LIG      159         0           56
   160        C1     1    AU   LIG      160         0           56
   161        P5     1    AU   AUSL     161         0          784
   162        P5     1    AU   AUSL     162         0          784
   163        P5     1    AU   AUL      163         0          784
   164        N0     1    AU   S        164         0           46
   165        C1     1    AU   LIG      165         0           56
   166        C1     1    AU   LIG      166         0           56
   167        C1     1    AU   LIG      167         0           56
   168        C1     1    AU   LIG      168         0           56
   169        C1     1    AU   LIG      169         0           56
   170        N0     1    AU   S        170         0           46
   171        C1     1    AU   LIG      171         0           56
   172        C1     1    AU   LIG      172         0           56
   173        C1     1    AU   LIG      173         0           56
   174        C1     1    AU   LIG      174         0           56
   175        C1     1    AU   LIG      175         0           56
   176        P5     1    AU   AUSL     176         0          784
   177        P5     1    AU   AUSL     177         0          784
   178        P5     1    AU   AUL      178         0          784
   179        N0     1    AU   S        179         0           46
   180        C1     1    AU   LIG      180         0           56
   181        C1     1    AU   LIG      181         0           56
   182        C1     1    AU   LIG      182         0           56
   183        C1     1    AU   LIG      183         0           56
   184        C1     1    AU   LIG      184         0           56
   185        N0     1    AU   S        185         0           46
   186        C1     1    AU   LIG      186         0           56
   187        C1     1    AU   LIG      187         0           56
   188        C1     1    AU   LIG      188         0           56
   189        C1     1    AU   LIG      189         0           56
   190        C1     1    AU   LIG      190         0           56
   191        P5     1    AU   AUSL     191         0          784
   192        P5     1    AU   AUSL     192         0          784
   193        P5     1    AU   AUL      193         0          784
   194        N0     1    AU   S        194         0           46
   195        C1     1    AU   LIG      195         0           56
   196        C1     1    AU   LIG      196         0           56
   197        C1     1    AU   LIG      197         0           56
   198        C1     1    AU   LIG      198         0           56
   199        C1     1    AU   LIG      199         0           56
   200        N0     1    AU   S        200         0           46
   201        C1     1    AU   LIG      201         0           56
   202        C1     1    AU   LIG      202         0           56
   203        C1     1    AU   LIG      203         0           56
   204        C1     1    AU   LIG      204         0           56
   205        C1     1    AU   LIG      205         0           56
   206        P5     1    AU   AUSL     206         0          784
   207        P5     1    AU   AUSL     207         0          784
   208        P5     1    AU   AUL      208         0          784
   209        N0     1    AU   S        209         0           46
   210        C1     1    AU   LIG      210         0           56
   211        C1     1    AU   LIG      211         0           56
   212        C1     1    AU   LIG      212         0           56
   213        C1     1    AU   LIG      213         0           56
   214        C1     1    AU   LIG      214         0           56
   215        N0     1    AU   S        215         0           46
   216        C1     1    AU   LIG      216         0           56
   217        C1     1    AU   LIG      217         0           56
   218        C1     1    AU   LIG      218         0           56
   219        C1     1    AU   LIG      219         0           56
   220        C1     1    AU   LIG      220         0           56
   221        P5     1    AU   AUSL     221         0          784
   222        P5     1    AU   AUSL     222         0          784
   223        P5     1    AU   AUL      223         0          784
   224        N0     1    AU   S        224         0           46
   225        C1     1    AU   LIG      225         0           56
   226        C1     1    AU   LIG      226         0           56
   227        C1     1    AU   LIG      227         0           56
   228        C1     1    AU   LIG      228         0           56
   229        C1     1    AU   LIG      229         0           56
   230        N0     1    AU   S        230         0           46
   231        C1     1    AU   LIG      231         0           56
   232        C1     1    AU   LIG      232         0           56
   233        C1     1    AU   LIG      233         0           56
   234        C1     1    AU   LIG      234         0           56
   235        C1     1    AU   LIG      235         0           56
   236        P5     1    AU   AUSL     236         0          784
   237        P5     1    AU   AUSL     237         0          784
   238        P5     1    AU   AUL      238         0          784
   239        N0     1    AU   S        239         0           46
   240        C1     1    AU   LIG      240         0           56
   241        C1     1    AU   LIG      241         0           56
   242        C1     1    AU   LIG      242         0           56
   243        C1     1    AU   LIG      243         0           56
   244        C1     1    AU   LIG      244         0           56
   245        N0     1    AU   S        245         0           46
   246        C1     1    AU   LIG      246         0           56
   247        C1     1    AU   LIG      247         0           56
   248        C1     1    AU   LIG      248         0           56
   249        C1     1    AU   LIG      249         0           56
   250        C1     1    AU   LIG      250         0           56
   251        P5     1    AU   AUSL     251         0          784
   252        P5     1    AU   AUSL     252         0          784
   253        P5     1    AU   AUL      253         0          784
   254        N0     1    AU   S        254         0           46
   255        C1     1    AU   LIG      255         0           56
   256        C1     1    AU   LIG      256         0           56
   257        C1     1    AU   LIG      257         0           56
   258        C1     1    AU   LIG      258         0           56
   259        C1     1    AU   LIG      259         0           56
   260        N0     1    AU   S        260         0           46
   261        C1     1    AU   LIG      261         0           56
   262        C1     1    AU   LIG      262         0           56
   263        C1     1    AU   LIG      263         0           56
   264        C1     1    AU   LIG      264         0           56
   265        C1     1    AU   LIG      265         0           56
   266        P5     1    AU   AUSL     266         0          784
   267        P5     1    AU   AUSL     267         0          784
   268        P5     1    AU   AUL      268         0          784
   269        N0     1    AU   S        269         0           46
   270        C1     1    AU   LIG      270         0           56
   271        C1     1    AU   LIG      271         0           56
   272        C1     1    AU   LIG      272         0           56
   273        C1     1    AU   LIG      273         0           56
   274        C1     1    AU   LIG      274         0           56
   275        N0     1    AU   S        275         0           46
   276        C1     1    AU   LIG      276         0           56
   277        C1     1    AU   LIG      277         0           56
   278        C1     1    AU   LIG      278         0           56
   279        C1     1    AU   LIG      279         0           56
   280        C1     1    AU   LIG      280         0           56
   281        P5     1    AU   AUSL     281         0          784
   282        P5     1    AU   AUSL     282         0          784
   283        P5     1    AU   AUL      283         0          784
   284        N0     1    AU   S        284         0           46
   285        C1     1    AU   LIG      285         0           56
   286        C1     1    AU   LIG      286         0           56
   287        C1     1    AU   LIG      287         0           56
   288        C1     1    AU   LIG      288         0           56
   289        C1     1    AU   LIG      289         0           56
   290        N0     1    AU   S        290         0           46
   291        C1     1    AU   LIG      291         0           56
   292        C1     1    AU   LIG      292         0           56
   293        C1     1    AU   LIG      293         0           56
   294        C1     1    AU   LIG      294         0           56
   295        C1     1    AU   LIG      295         0           56
   296        P5     1    AU   AUSL     296         0          784
   297        P5     1    AU   AUSL     297         0          784
   298        P5     1    AU   AUL      298         0          784
   299        N0     1    AU   S        299         0           46
   300        C1     1    AU   LIG      300         0           56
   301        C1     1    AU   LIG      301         0           56
   302        C1     1    AU   LIG      302         0           56
   303        C1     1    AU   LIG      303         0           56
   304        C1     1    AU   LIG      304         0           56
   305        N0     1    AU   S        305         0           46
   306        C1     1    AU   LIG      306         0           56
   307        C1     1    AU   LIG      307         0           56
   308        C1     1    AU   LIG      308         0           56
   309        C1     1    AU   LIG      309         0           56
   310        C1     1    AU   LIG      310         0           56
   311        P5     1    AU   AUSL     311         0          784
   312        P5     1    AU   AUSL     312         0          784
   313        P5     1    AU   AUL      313         0          784
   314        N0     1    AU   S        314         0           46
   315        C1     1    AU   LIG      315         0           56
   316        C1     1    AU   LIG      316         0           56
   317        C1     1    AU   LIG      317         0           56
   318        C1     1    AU   LIG      318         0           56
   319        C1     1    AU   LIG      319         0           56
   320        N0     1    AU   S        320         0           46
   321        C1     1    AU   LIG      321         0           56
   322        C1     1    AU   LIG      322         0           56
   323        C1     1    AU   LIG      323         0           56
   324        C1     1    AU   LIG      324         0           56
   325        C1     1    AU   LIG      325         0           56
   326        P5     1    AU   AUSL     326         0          784
   327        P5     1    AU   AUSL     327         0          784
   328        P5     1    AU   AUL      328         0          784
   329        N0     1    AU   S        329         0           46
   330        C1     1    AU   LIG      330         0           56
   331        C1     1    AU   LIG      331         0           56
   332        C1     1    AU   LIG      332         0           56
   333        C1     1    AU   LIG      333         0           56
   334        C1     1    AU   LIG      334         0           56
   335        N0     1    AU   S        335         0           46
   336        C1     1    AU   LIG      336         0           56
   337        C1     1    AU   LIG      337         0           56
   338        C1     1    AU   LIG      338         0           56
   339        C1     1    AU   LIG      339         0           56
   340        C1     1    AU   LIG      340         0           56
   341        P5     1    AU   AUSL     341         0          784
   342        P5     1    AU   AUSL     342         0          784
   343        P5     1    AU   AUL      343         0          784
   344        N0     1    AU   S        344         0           46
   345        C1     1    AU   LIG      345         0           56
   346        C1     1    AU   LIG      346         0           56
   347        C1     1    AU   LIG      347         0           56
   348        C1     1    AU   LIG      348         0           56
   349        C1     1    AU   LIG      349         0           56
   350        N0     1    AU   S        350         0           46
   351        C1     1    AU   LIG      351         0           56
   352        C1     1    AU   LIG      352         0           56
   353        C1     1    AU   LIG      353         0           56
   354        C1     1    AU   LIG      354         0           56
   355        C1     1    AU   LIG      355         0           56
   356        P5     1    AU   AUSL     356         0          784
   357        P5     1    AU   AUSL     357         0          784
   358        P5     1    AU   AUL      358         0          784
   359        N0     1    AU   S        359         0           46
   360        C1     1    AU   LIG      360         0           56
   361        C1     1    AU   LIG      361         0           56
   362        C1     1    AU   LIG      362         0           56
   363        C1     1    AU   LIG      363         0           56
   364        C1     1    AU   LIG      364         0           56
   365        N0     1    AU   S        365         0           46
   366        C1     1    AU   LIG      366         0           56
   367        C1     1    AU   LIG      367         0           56
   368        C1     1    AU   LIG      368         0           56
   369        C1     1    AU   LIG      369         0           56
   370        C1     1    AU   LIG      370         0           56
   371        P5     1    AU   AUSL     371         0          784
   372        P5     1    AU   AUSL     372         0          784
   373        P5     1    AU   AUL      373         0          784
   374        N0     1    AU   S        374         0           46
   375        C1     1    AU   LIG      375         0           56
   376        C1     1    AU   LIG      376         0           56
   377        C1     1    AU   LIG      377         0           56
   378        C1     1    AU   LIG      378         0           56
   379        C1     1    AU   LIG      379         0           56
   380        N0     1    AU   S        380         0           46
   381        C1     1    AU   LIG      381         0           56
   382        C1     1    AU   LIG      382         0           56
   383        C1     1    AU   LIG      383         0           56
   384        C1     1    AU   LIG      384         0           56
   385        C1     1    AU   LIG      385         0           56
   386        P5     1    AU   AUSL     386         0          784
   387        P5     1    AU   AUSL     387         0          784
   388        P5     1    AU   AUL      388         0          784
   389        N0     1    AU   S        389         0           46
   390        C1     1    AU   LIG      390         0           56
   391        C1     1    AU   LIG      391         0           56
   392        C1     1    AU   LIG      392         0           56
   393        C1     1    AU   LIG      393         0           56
   394        C1     1    AU   LIG      394         0           56
   395        N0     1    AU   S        395         0           46
   396        C1     1    AU   LIG      396         0           56
   397        C1     1    AU   LIG      397         0           56
   398        C1     1    AU   LIG      398         0           56
   399        C1     1    AU   LIG      399         0           56
   400        C1     1    AU   LIG      400         0           56
   401        P5     1    AU   AUSL     401         0          784
   402        P5     1    AU   AUSL     402         0          784
   403        P5     1    AU   AUL      403         0          784
   404        N0     1    AU   S        404         0           46
   405        C1     1    AU   LIG      405         0           56
   406        C1     1    AU   LIG      406         0           56
   407        C1     1    AU   LIG      407         0           56
   408        C1     1    AU   LIG      408         0           56
   409        C1     1    AU   LIG      409         0           56
   410        N0     1    AU   S        410         0           46
   411        C1     1    AU   LIG      411         0           56
   412        C1     1    AU   LIG      412         0           56
   413        C1     1    AU   LIG      413         0           56
   414        C1     1    AU   LIG      414         0           56
   415        C1     1    AU   LIG      415         0           56
   416        P5     1    AU   AUSL     416         0          784
   417        P5     1    AU   AUSL     417         0          784
   418        P5     1    AU   AUL      418         0          784
   419        N0     1    AU   S        419         0           46
   420        C1     1    AU   LIG      420         0           56
   421        C1     1    AU   LIG      421         0           56
   422        C1     1    AU   LIG      422         0           56
   423        C1     1    AU   LIG      423         0           56
   424        C1     1    AU   LIG      424         0           56
   425        N0     1    AU   S        425         0           46
   426        C1     1    AU   LIG      426         0           56
   427        C1     1    AU   LIG      427         0           56
   428        C1     1    AU   LIG      428         0           56
   429        C1     1    AU   LIG      429         0           56
   430        C1     1    AU   LIG      430         0           56
   431        P5     1    AU   AUSL     431         0          784
   432        P5     1    AU   AUSL     432         0          784
   433        P5     1    AU   AUL      433         0          784
   434        N0     1    AU   S        434         0           46
   435        C1     1    AU   LIG      435         0           56
   436        C1     1    AU   LIG      436         0           56
   437        C1     1    AU   LIG      437         0           56
   438        C1     1    AU   LIG      438         0           56
   439        C1     1    AU   LIG      439         0           56
   440        N0     1    AU   S        440         0           46
   441        C1     1    AU   LIG      441         0           56
   442        C1     1    AU   LIG      442         0           56
   443        C1     1    AU   LIG      443         0           56
   444        C1     1    AU   LIG      444         0           56
   445        C1     1    AU   LIG      445         0           56
   446        P5     1    AU   AUSL     446         0          784
   447        P5     1    AU   AUSL     447         0          784
   448        P5     1    AU   AUL      448         0          784
   449        N0     1    AU   S        449         0           46
   450        C1     1    AU   LIG      450         0           56
   451        C1     1    AU   LIG      451         0           56
   452        C1     1    AU   LIG      452         0           56
   453        C1     1    AU   LIG      453         0           56
   454        C1     1    AU   LIG      454         0           56
   455        N0     1    AU   S        455         0           46
   456        C1     1    AU   LIG      456         0           56
   457        C1     1    AU   LIG      457         0           56
   458        C1     1    AU   LIG      458         0           56
   459        C1     1    AU   LIG      459         0           56
   460        C1     1    AU   LIG      460         0           56
   461        P5     1    AU   AUSL     461         0          784
   462        P5     1    AU   AUSL     462         0          784
   463        P5     1    AU   AUL      463         0          784
   464        N0     1    AU   S        464         0           46
   465        C1     1    AU   LIG      465         0           56
   466        C1     1    AU   LIG      466         0           56
   467        C1     1    AU   LIG      467         0           56
   468        C1     1    AU   LIG      468         0           56
   469        C1     1    AU   LIG      469         0           56
   470        N0     1    AU   S        470         0           46
   471        C1     1    AU   LIG      471         0           56
   472        C1     1    AU   LIG      472         0           56
   473        C1     1    AU   LIG      473         0           56
   474        C1     1    AU   LIG      474         0           56
   475        C1     1    AU   LIG      475         0           56
   476        P5     1    AU   AUSL     476         0          784
   477        P5     1    AU   AUSL     477         0          784
   478        P5     1    AU   AUL      478         0          784
   479        N0     1    AU   S        479         0           46
   480        C1     1    AU   LIG      480         0           56
   481        C1     1    AU   LIG      481         0           56
   482        C1     1    AU   LIG      482         0           56
   483        C1     1    AU   LIG      483         0           56
   484        C1     1    AU   LIG      484         0           56
   485        N0     1    AU   S        485         0           46
   486        C1     1    AU   LIG      486         0           56
   487        C1     1    AU   LIG      487         0           56
   488        C1     1    AU   LIG      488         0           56
   489        C1     1    AU   LIG      489         0           56
   490        C1     1    AU   LIG      490         0           56
   491        P5     1    AU   AUSL     491         0          784
   492        P5     1    AU   AUSL     492         0          784
   493        P5     1    AU   AUL      493         0          784
   494        N0     1    AU   S        494         0           46
   495        C1     1    AU   LIG      495         0           56
   496        C1     1    AU   LIG      496         0           56
   497        C1     1    AU   LIG      497         0           56
   498        C1     1    AU   LIG      498         0           56
   499        C1     1    AU   LIG      499         0           56
   500        N0     1    AU   S        500         0           46
   501        C1     1    AU   LIG      501         0           56
   502        C1     1    AU   LIG      502         0           56
   503        C1     1    AU   LIG      503         0           56
   504        C1     1    AU   LIG      504         0           56
   505        C1     1    AU   LIG      505         0           56

 [ bonds ]
;         i           j    funct      length   force_k
         1          2      1           0.289 3500
         1          3      1           0.289 3500
         1          4      1           0.288 3500
         1          5      1           0.288 3500
         1          6      1           0.288 3500
         1          7      1           0.288 3500
         1          8      1           0.289 3500
         1          9      1           0.289 3500
         1         10      1           0.288 3500
         1         11      1           0.288 3500
         1         12      1           0.289 3500
         1         13      1           0.289 3500
         2          3      1           0.303 3500
         2          7      1           0.303 3500
         2          9      1           0.304 3500
         2         12      1           0.304 3500
         2         13      1           0.304 3500
         2         14      1           0.288 3500
         2         15      1           0.288 3500
         2         34      1           0.288 3500
         2         35      1           0.288 3500
         2         40      1           0.288 3500
         2         44      1           0.289 3500
         3          7      1           0.303 3500
         3          9      1           0.304 3500
         3         10      1           0.304 3500
         3         11      1           0.304 3500
         3         15      1           0.288 3500
         3         16      1           0.288 3500
         3         32      1           0.289 3500
         3         33      1           0.289 3500
         3         41      1           0.288 3500
         3         45      1           0.289 3500
         4          5      1           0.303 3500
         4          6      1           0.303 3500
         4          8      1           0.304 3500
         4         12      1           0.303 3500
         4         13      1           0.303 3500
         4         17      1           0.289 3500
         4         18      1           0.289 3500
         4         38      1           0.288 3500
         4         39      1           0.288 3500
         4         42      1           0.288 3500
         4         46      1           0.289 3500
         5          6      1           0.302 3500
         5          8      1           0.303 3500
         5         10      1           0.303 3500
         5         11      1           0.303 3500
         5         18      1           0.289 3500
         5         19      1           0.289 3500
         5         36      1           0.289 3500
         5         37      1           0.289 3500
         5         43      1           0.288 3500
         5         47      1           0.289 3500
         6          7      1           0.304 3500
         6         11      1           0.303 3500
         6         13      1           0.304 3500
         6         20      1           0.288 3500
         6         21      1           0.288 3500
         6         42      1           0.288 3500
         6         43      1           0.288 3500
         6         48      1           0.288 3500
         6         52      1           0.289 3500
         7         11      1           0.303 3500
         7         13      1           0.304 3500
         7         21      1           0.288 3500
         7         22      1           0.288 3500
         7         40      1           0.288 3500
         7         41      1           0.288 3500
         7         49      1           0.288 3500
         7         53      1           0.289 3500
         8          9      1           0.304 3500
         8         10      1           0.303 3500
         8         12      1           0.304 3500
         8         23      1           0.288 3500
         8         24      1           0.288 3500
         8         46      1           0.288 3500
         8         47      1           0.288 3500
         8         50      1           0.288 3500
         8         54      1           0.289 3500
         9         10      1           0.303 3500
         9         12      1           0.304 3500
         9         24      1           0.288 3500
         9         25      1           0.288 3500
         9         44      1           0.288 3500
         9         45      1           0.288 3500
         9         51      1           0.288 3500
         9         55      1           0.289 3500
        10         11      1           0.303 3500
        10         26      1           0.288 3500
        10         27      1           0.288 3500
        10         32      1           0.289 3500
        10         36      1           0.288 3500
        10         50      1           0.289 3500
        10         51      1           0.289 3500
        11         27      1           0.288 3500
        11         28      1           0.288 3500
        11         33      1           0.289 3500
        11         37      1           0.288 3500
        11         48      1           0.289 3500
        11         49      1           0.289 3500
        12         13      1           0.303 3500
        12         29      1           0.288 3500
        12         30      1           0.288 3500
        12         34      1           0.289 3500
        12         38      1           0.288 3500
        12         54      1           0.289 3500
        12         55      1           0.289 3500
        13         30      1           0.288 3500
        13         31      1           0.288 3500
        13         35      1           0.289 3500
        13         39      1           0.288 3500
        13         52      1           0.289 3500
        13         53      1           0.289 3500
        14         15      1           0.304 3500
        14         34      1           0.303 3500
        14         35      1           0.302 3500
        14         40      1           0.303 3500
        14         44      1           0.304 3500
        14        101      1           0.288 5000
        14        117      1           0.289 5000
        14        207      1           0.288 5000
        14        221      1           0.288 5000
        14        311      1           0.289 5000
        15         16      1           0.303 3500
        15         40      1           0.303 3500
        15         41      1           0.303 3500
        15         44      1           0.304 3500
        15         45      1           0.304 3500
        15        221      1           0.288 5000
        15        222      1           0.288 5000
        15        236      1           0.288 5000
        15        311      1           0.289 5000
        16         32      1           0.303 3500
        16         33      1           0.303 3500
        16         41      1           0.303 3500
        16         45      1           0.304 3500
        16         56      1           0.289 5000
        16         87      1           0.288 5000
        16        222      1           0.289 5000
        16        236      1           0.288 5000
        16        297      1           0.289 5000
        17         18      1           0.304 3500
        17         38      1           0.304 3500
        17         39      1           0.303 3500
        17         42      1           0.303 3500
        17         46      1           0.304 3500
        17        176      1           0.288 5000
        17        192      1           0.288 5000
        17        266      1           0.288 5000
        17        282      1           0.289 5000
        17        327      1           0.289 5000
        18         19      1           0.303 3500
        18         42      1           0.303 3500
        18         43      1           0.303 3500
        18         46      1           0.304 3500
        18         47      1           0.304 3500
        18        266      1           0.288 5000
        18        281      1           0.288 5000
        18        282      1           0.289 5000
        18        341      1           0.288 5000
        19         36      1           0.304 3500
        19         37      1           0.304 3500
        19         43      1           0.303 3500
        19         47      1           0.304 3500
        19        146      1           0.289 5000
        19        162      1           0.289 5000
        19        252      1           0.288 5000
        19        281      1           0.288 5000
        19        341      1           0.289 5000
        20         21      1           0.303 3500
        20         42      1           0.303 3500
        20         43      1           0.303 3500
        20         48      1           0.302 3500
        20         52      1           0.303 3500
        20        251      1           0.289 5000
        20        267      1           0.289 5000
        20        357      1           0.288 5000
        20        371      1           0.288 5000
        20        461      1           0.288 5000
        21         22      1           0.303 3500
        21         48      1           0.303 3500
        21         49      1           0.303 3500
        21         52      1           0.304 3500
        21         53      1           0.304 3500
        21        371      1           0.288 5000
        21        372      1           0.289 5000
        21        386      1           0.288 5000
        21        461      1           0.289 5000
        22         40      1           0.303 3500
        22         41      1           0.303 3500
        22         49      1           0.302 3500
        22         53      1           0.303 3500
        22        206      1           0.289 5000
        22        237      1           0.288 5000
        22        372      1           0.288 5000
        22        386      1           0.288 5000
        22        447      1           0.289 5000
        23         24      1           0.303 3500
        23         46      1           0.303 3500
        23         47      1           0.303 3500
        23         50      1           0.302 3500
        23         54      1           0.303 3500
        23        326      1           0.289 5000
        23        342      1           0.288 5000
        23        416      1           0.288 5000
        23        432      1           0.288 5000
        23        477      1           0.289 5000
        24         25      1           0.303 3500
        24         50      1           0.303 3500
        24         51      1           0.303 3500
        24         54      1           0.304 3500
        24         55      1           0.304 3500
        24        416      1           0.288 5000
        24        431      1           0.288 5000
        24        432      1           0.289 5000
        24        491      1           0.289 5000
        25         44      1           0.303 3500
        25         45      1           0.303 3500
        25         51      1           0.302 3500
        25         55      1           0.303 3500
        25        296      1           0.289 5000
        25        312      1           0.289 5000
        25        402      1           0.288 5000
        25        431      1           0.288 5000
        25        491      1           0.288 5000
        26         27      1           0.304 3500
        26         32      1           0.304 3500
        26         36      1           0.303 3500
        26         50      1           0.303 3500
        26         51      1           0.303 3500
        26         57      1           0.289 5000
        26         71      1           0.289 5000
        26        161      1           0.288 5000
        26        401      1           0.288 5000
        26        417      1           0.289 5000
        27         28      1           0.303 3500
        27         32      1           0.304 3500
        27         33      1           0.303 3500
        27         36      1           0.303 3500
        27         37      1           0.302 3500
        27         71      1           0.289 5000
        27         72      1           0.288 5000
        27         86      1           0.288 5000
        27        161      1           0.288 5000
        28         33      1           0.304 3500
        28         37      1           0.303 3500
        28         48      1           0.303 3500
        28         49      1           0.303 3500
        28         72      1           0.288 5000
        28         86      1           0.289 5000
        28        147      1           0.289 5000
        28        356      1           0.289 5000
        28        387      1           0.289 5000
        29         30      1           0.304 3500
        29         34      1           0.304 3500
        29         38      1           0.303 3500
        29         54      1           0.303 3500
        29         55      1           0.303 3500
        29        116      1           0.289 5000
        29        132      1           0.288 5000
        29        177      1           0.289 5000
        29        476      1           0.288 5000
        29        492      1           0.289 5000
        30         31      1           0.303 3500
        30         34      1           0.304 3500
        30         35      1           0.304 3500
        30         38      1           0.303 3500
        30         39      1           0.303 3500
        30        116      1           0.289 5000
        30        131      1           0.288 5000
        30        132      1           0.288 5000
        30        191      1           0.288 5000
        31         35      1           0.304 3500
        31         39      1           0.303 3500
        31         52      1           0.303 3500
        31         53      1           0.303 3500
        31        102      1           0.289 5000
        31        131      1           0.289 5000
        31        191      1           0.288 5000
        31        446      1           0.289 5000
        31        462      1           0.289 5000
        32         33      1           0.303 3500
        32         45      1           0.304 3500
        32         51      1           0.304 3500
        32         56      1           0.288 5000
        32         57      1           0.289 5000
        32         71      1           0.288 5000
        32        297      1           0.288 5000
        33         41      1           0.304 3500
        33         49      1           0.304 3500
        33         56      1           0.288 5000
        33         86      1           0.288 5000
        33         87      1           0.288 5000
        33        387      1           0.289 5000
        34         35      1           0.303 3500
        34         44      1           0.303 3500
        34         55      1           0.304 3500
        34        101      1           0.288 5000
        34        116      1           0.289 5000
        34        117      1           0.288 5000
        34        492      1           0.289 5000
        35         40      1           0.303 3500
        35         53      1           0.304 3500
        35        101      1           0.288 5000
        35        102      1           0.289 5000
        35        131      1           0.289 5000
        35        207      1           0.288 5000
        36         37      1           0.303 3500
        36         47      1           0.304 3500
        36         50      1           0.304 3500
        36        146      1           0.289 5000
        36        161      1           0.288 5000
        36        162      1           0.289 5000
        36        417      1           0.289 5000
        37         43      1           0.304 3500
        37         48      1           0.304 3500
        37         72      1           0.288 5000
        37        146      1           0.288 5000
        37        147      1           0.289 5000
        37        252      1           0.289 5000
        38         39      1           0.303 3500
        38         46      1           0.303 3500
        38         54      1           0.303 3500
        38        132      1           0.289 5000
        38        176      1           0.289 5000
        38        177      1           0.289 5000
        38        327      1           0.289 5000
        39         42      1           0.303 3500
        39         52      1           0.303 3500
        39        176      1           0.288 5000
        39        191      1           0.289 5000
        39        192      1           0.289 5000
        39        462      1           0.289 5000
        40         41      1           0.303 3500
        40         53      1           0.303 3500
        40        206      1           0.289 5000
        40        207      1           0.289 5000
        40        221      1           0.289 5000
        40        447      1           0.289 5000
        41         49      1           0.303 3500
        41         87      1           0.289 5000
        41        206      1           0.288 5000
        41        236      1           0.289 5000
        41        237      1           0.289 5000
        42         43      1           0.303 3500
        42         52      1           0.303 3500
        42        192      1           0.289 5000
        42        251      1           0.289 5000
        42        266      1           0.289 5000
        42        267      1           0.289 5000
        43         48      1           0.303 3500
        43        251      1           0.288 5000
        43        252      1           0.289 5000
        43        281      1           0.289 5000
        43        357      1           0.289 5000
        44         45      1           0.303 3500
        44         55      1           0.303 3500
        44        117      1           0.289 5000
        44        296      1           0.289 5000
        44        311      1           0.289 5000
        44        312      1           0.289 5000
        45         51      1           0.303 3500
        45        222      1           0.289 5000
        45        296      1           0.288 5000
        45        297      1           0.289 5000
        45        402      1           0.289 5000
        46         47      1           0.303 3500
        46         54      1           0.303 3500
        46        282      1           0.289 5000
        46        326      1           0.289 5000
        46        327      1           0.289 5000
        46        477      1           0.289 5000
        47         50      1           0.303 3500
        47        162      1           0.289 5000
        47        326      1           0.288 5000
        47        341      1           0.289 5000
        47        342      1           0.289 5000
        48         49      1           0.304 3500
        48        147      1           0.289 5000
        48        356      1           0.289 5000
        48        357      1           0.288 5000
        48        371      1           0.288 5000
        49        237      1           0.289 5000
        49        356      1           0.289 5000
        49        386      1           0.288 5000
        49        387      1           0.289 5000
        50         51      1           0.304 3500
        50        342      1           0.288 5000
        50        401      1           0.288 5000
        50        416      1           0.288 5000
        50        417      1           0.289 5000
        51         57      1           0.289 5000
        51        401      1           0.288 5000
        51        402      1           0.289 5000
        51        431      1           0.288 5000
        52         53      1           0.304 3500
        52        267      1           0.288 5000
        52        446      1           0.288 5000
        52        461      1           0.288 5000
        52        462      1           0.288 5000
        53        102      1           0.288 5000
        53        372      1           0.288 5000
        53        446      1           0.288 5000
        53        447      1           0.289 5000
        54         55      1           0.304 3500
        54        177      1           0.288 5000
        54        432      1           0.288 5000
        54        476      1           0.288 5000
        54        477      1           0.288 5000
        55        312      1           0.289 5000
        55        476      1           0.288 5000
        55        491      1           0.288 5000
        55        492      1           0.288 5000
        56         58      1           0.381 5000
        56         65      1           0.267 1250
        56         88      1           0.380 5000
        57         58      1           0.380 5000
        57         59      1           0.263 1250
        57        403      1           0.380 5000
        59        305      1           0.316 1250
        59        410      1           0.306 1250
        59         60      1           0.470 1250
        60         61      1           0.470 1250
        61         62      1           0.470 1250
        62         63      1           0.470 1250
        63         64      1           0.470 1250
        65         74      1           0.319 1250
        65         66      1           0.470 1250
        66         67      1           0.470 1250
        67         68      1           0.470 1250
        68         69      1           0.470 1250
        69         70      1           0.470 1250
        71         73      1           0.381 5000
        71         74      1           0.260 1250
        72         73      1           0.380 5000
        72         80      1           0.274 1250
        72        148      1           0.381 5000
        74         75      1           0.470 1250
        75         76      1           0.470 1250
        76         77      1           0.470 1250
        77         78      1           0.470 1250
        78         79      1           0.470 1250
        80        149      1           0.325 1250
        80        170      1           0.313 1250
        80         81      1           0.470 1250
        81         82      1           0.470 1250
        82         83      1           0.470 1250
        83         84      1           0.470 1250
        84         85      1           0.470 1250
        86         88      1           0.380 5000
        86         89      1           0.260 1250
        87         88      1           0.380 5000
        87         95      1           0.259 1250
        87        238      1           0.380 5000
        89         90      1           0.470 1250
        90         91      1           0.470 1250
        91         92      1           0.470 1250
        92         93      1           0.470 1250
        93         94      1           0.470 1250
        95        239      1           0.316 1250
        95        389      1           0.314 1250
        95         96      1           0.470 1250
        96         97      1           0.470 1250
        97         98      1           0.470 1250
        98         99      1           0.470 1250
        99        100      1           0.470 1250
       101        103      1           0.380 5000
       101        104      1           0.267 1250
       101        118      1           0.381 5000
       102        103      1           0.381 5000
       102        110      1           0.270 1250
       102        448      1           0.380 5000
       104        125      1           0.317 1250
       104        140      1           0.310 1250
       104        105      1           0.470 1250
       105        106      1           0.470 1250
       106        107      1           0.470 1250
       107        108      1           0.470 1250
       108        109      1           0.470 1250
       110        209      1           0.314 1250
       110        455      1           0.322 1250
       110        111      1           0.470 1250
       111        112      1           0.470 1250
       112        113      1           0.470 1250
       113        114      1           0.470 1250
       114        115      1           0.470 1250
       116        118      1           0.380 5000
       116        125      1           0.259 1250
       116        133      1           0.381 5000
       117        118      1           0.380 5000
       117        119      1           0.275 1250
       117        313      1           0.380 5000
       119        320      1           0.312 1250
       119        500      1           0.315 1250
       119        120      1           0.470 1250
       120        121      1           0.470 1250
       121        122      1           0.470 1250
       122        123      1           0.470 1250
       123        124      1           0.470 1250
       125        140      1           0.316 1250
       125        126      1           0.470 1250
       126        127      1           0.470 1250
       127        128      1           0.470 1250
       128        129      1           0.470 1250
       129        130      1           0.470 1250
       131        133      1           0.380 5000
       131        140      1           0.274 1250
       132        133      1           0.380 5000
       132        134      1           0.260 1250
       132        178      1           0.381 5000
       134        179      1           0.303 1250
       134        200      1           0.317 1250
       134        135      1           0.470 1250
       135        136      1           0.470 1250
       136        137      1           0.470 1250
       137        138      1           0.470 1250
       138        139      1           0.470 1250
       140        141      1           0.470 1250
       141        142      1           0.470 1250
       142        143      1           0.470 1250
       143        144      1           0.470 1250
       144        145      1           0.470 1250
       146        148      1           0.380 5000
       146        149      1           0.266 1250
       146        163      1           0.381 5000
       147        148      1           0.380 5000
       147        155      1           0.259 1250
       147        358      1           0.380 5000
       149        170      1           0.303 1250
       149        150      1           0.470 1250
       150        151      1           0.470 1250
       151        152      1           0.470 1250
       152        153      1           0.470 1250
       153        154      1           0.470 1250
       155        254      1           0.319 1250
       155        359      1           0.319 1250
       155        156      1           0.470 1250
       156        157      1           0.470 1250
       157        158      1           0.470 1250
       158        159      1           0.470 1250
       159        160      1           0.470 1250
       161        163      1           0.381 5000
       161        170      1           0.262 1250
       162        163      1           0.380 5000
       162        164      1           0.266 1250
       162        343      1           0.380 5000
       164        344      1           0.283 1250
       164        425      1           0.309 1250
       164        165      1           0.470 1250
       165        166      1           0.470 1250
       166        167      1           0.470 1250
       167        168      1           0.470 1250
       168        169      1           0.470 1250
       170        171      1           0.470 1250
       171        172      1           0.470 1250
       172        173      1           0.470 1250
       173        174      1           0.470 1250
       174        175      1           0.470 1250
       176        178      1           0.381 5000
       176        179      1           0.267 1250
       176        193      1           0.380 5000
       177        178      1           0.381 5000
       177        185      1           0.273 1250
       177        478      1           0.380 5000
       179        200      1           0.325 1250
       179        180      1           0.470 1250
       180        181      1           0.470 1250
       181        182      1           0.470 1250
       182        183      1           0.470 1250
       183        184      1           0.470 1250
       185        329      1           0.308 1250
       185        479      1           0.311 1250
       185        186      1           0.470 1250
       186        187      1           0.470 1250
       187        188      1           0.470 1250
       188        189      1           0.470 1250
       189        190      1           0.470 1250
       191        193      1           0.381 5000
       191        200      1           0.272 1250
       192        193      1           0.380 5000
       192        194      1           0.266 1250
       192        268      1           0.380 5000
       194        470      1           0.319 1250
       194        195      1           0.470 1250
       195        196      1           0.470 1250
       196        197      1           0.470 1250
       197        198      1           0.470 1250
       198        199      1           0.470 1250
       200        201      1           0.470 1250
       201        202      1           0.470 1250
       202        203      1           0.470 1250
       203        204      1           0.470 1250
       204        205      1           0.470 1250
       206        208      1           0.380 5000
       206        215      1           0.274 1250
       206        238      1           0.380 5000
       207        208      1           0.380 5000
       207        209      1           0.258 1250
       209        455      1           0.318 1250
       209        210      1           0.470 1250
       210        211      1           0.470 1250
       211        212      1           0.470 1250
       212        213      1           0.470 1250
       213        214      1           0.470 1250
       215        224      1           0.315 1250
       215        245      1           0.315 1250
       215        216      1           0.470 1250
       216        217      1           0.470 1250
       217        218      1           0.470 1250
       218        219      1           0.470 1250
       219        220      1           0.470 1250
       221        223      1           0.380 5000
       221        224      1           0.263 1250
       222        223      1           0.380 5000
       222        230      1           0.270 1250
       222        298      1           0.380 5000
       224        245      1           0.316 1250
       224        225      1           0.470 1250
       225        226      1           0.470 1250
       226        227      1           0.470 1250
       227        228      1           0.470 1250
       228        229      1           0.470 1250
       230        299      1           0.313 1250
       230        314      1           0.312 1250
       230        231      1           0.470 1250
       231        232      1           0.470 1250
       232        233      1           0.470 1250
       233        234      1           0.470 1250
       234        235      1           0.470 1250
       236        238      1           0.380 5000
       236        245      1           0.262 1250
       237        238      1           0.380 5000
       237        239      1           0.271 1250
       237        388      1           0.380 5000
       239        389      1           0.321 1250
       239        240      1           0.470 1250
       240        241      1           0.470 1250
       241        242      1           0.470 1250
       242        243      1           0.470 1250
       243        244      1           0.470 1250
       245        246      1           0.470 1250
       246        247      1           0.470 1250
       247        248      1           0.470 1250
       248        249      1           0.470 1250
       249        250      1           0.470 1250
       251        253      1           0.380 5000
       251        260      1           0.257 1250
       251        268      1           0.380 5000
       252        253      1           0.380 5000
       252        254      1           0.265 1250
       254        255      1           0.470 1250
       255        256      1           0.470 1250
       256        257      1           0.470 1250
       257        258      1           0.470 1250
       258        259      1           0.470 1250
       260        261      1           0.470 1250
       261        262      1           0.470 1250
       262        263      1           0.470 1250
       263        264      1           0.470 1250
       264        265      1           0.470 1250
       266        268      1           0.380 5000
       266        269      1           0.262 1250
       266        283      1           0.380 5000
       267        268      1           0.381 5000
       267        275      1           0.270 1250
       267        463      1           0.380 5000
       269        270      1           0.470 1250
       270        271      1           0.470 1250
       271        272      1           0.470 1250
       272        273      1           0.470 1250
       273        274      1           0.470 1250
       275        470      1           0.323 1250
       275        276      1           0.470 1250
       276        277      1           0.470 1250
       277        278      1           0.470 1250
       278        279      1           0.470 1250
       279        280      1           0.470 1250
       281        283      1           0.380 5000
       281        290      1           0.261 1250
       282        283      1           0.381 5000
       282        284      1           0.271 1250
       282        328      1           0.380 5000
       284        335      1           0.269 1250
       284        350      1           0.227 1250
       284        285      1           0.470 1250
       285        286      1           0.470 1250
       286        287      1           0.470 1250
       287        288      1           0.470 1250
       288        289      1           0.470 1250
       290        291      1           0.470 1250
       291        292      1           0.470 1250
       292        293      1           0.470 1250
       293        294      1           0.470 1250
       294        295      1           0.470 1250
       296        298      1           0.380 5000
       296        299      1           0.257 1250
       296        313      1           0.380 5000
       297        298      1           0.380 5000
       297        305      1           0.275 1250
       299        314      1           0.313 1250
       299        300      1           0.470 1250
       300        301      1           0.470 1250
       301        302      1           0.470 1250
       302        303      1           0.470 1250
       303        304      1           0.470 1250
       305        410      1           0.312 1250
       305        306      1           0.470 1250
       306        307      1           0.470 1250
       307        308      1           0.470 1250
       308        309      1           0.470 1250
       309        310      1           0.470 1250
       311        313      1           0.380 5000
       311        314      1           0.271 1250
       312        313      1           0.380 5000
       312        320      1           0.261 1250
       312        493      1           0.380 5000
       314        315      1           0.470 1250
       315        316      1           0.470 1250
       316        317      1           0.470 1250
       317        318      1           0.470 1250
       318        319      1           0.470 1250
       320        500      1           0.308 1250
       320        321      1           0.470 1250
       321        322      1           0.470 1250
       322        323      1           0.470 1250
       323        324      1           0.470 1250
       324        325      1           0.470 1250
       326        328      1           0.380 5000
       326        335      1           0.274 1250
       326        343      1           0.380 5000
       327        328      1           0.380 5000
       327        329      1           0.268 1250
       329        479      1           0.286 1250
       329        330      1           0.470 1250
       330        331      1           0.470 1250
       331        332      1           0.470 1250
       332        333      1           0.470 1250
       333        334      1           0.470 1250
       335        350      1           0.273 1250
       335        336      1           0.470 1250
       336        337      1           0.470 1250
       337        338      1           0.470 1250
       338        339      1           0.470 1250
       339        340      1           0.470 1250
       341        343      1           0.380 5000
       341        350      1           0.270 1250
       342        343      1           0.381 5000
       342        344      1           0.263 1250
       342        418      1           0.380 5000
       344        425      1           0.308 1250
       344        345      1           0.470 1250
       345        346      1           0.470 1250
       346        347      1           0.470 1250
       347        348      1           0.470 1250
       348        349      1           0.470 1250
       350        351      1           0.470 1250
       351        352      1           0.470 1250
       352        353      1           0.470 1250
       353        354      1           0.470 1250
       354        355      1           0.470 1250
       356        358      1           0.380 5000
       356        365      1           0.261 1250
       356        388      1           0.380 5000
       357        358      1           0.380 5000
       357        359      1           0.271 1250
       359        360      1           0.470 1250
       360        361      1           0.470 1250
       361        362      1           0.470 1250
       362        363      1           0.470 1250
       363        364      1           0.470 1250
       365        374      1           0.323 1250
       365        395      1           0.326 1250
       365        366      1           0.470 1250
       366        367      1           0.470 1250
       367        368      1           0.470 1250
       368        369      1           0.470 1250
       369        370      1           0.470 1250
       371        373      1           0.380 5000
       371        374      1           0.274 1250
       372        373      1           0.381 5000
       372        380      1           0.260 1250
       372        448      1           0.380 5000
       374        395      1           0.314 1250
       374        375      1           0.470 1250
       375        376      1           0.470 1250
       376        377      1           0.470 1250
       377        378      1           0.470 1250
       378        379      1           0.470 1250
       380        449      1           0.326 1250
       380        464      1           0.314 1250
       380        381      1           0.470 1250
       381        382      1           0.470 1250
       382        383      1           0.470 1250
       383        384      1           0.470 1250
       384        385      1           0.470 1250
       386        388      1           0.380 5000
       386        395      1           0.262 1250
       387        388      1           0.380 5000
       387        389      1           0.268 1250
       389        390      1           0.470 1250
       390        391      1           0.470 1250
       391        392      1           0.470 1250
       392        393      1           0.470 1250
       393        394      1           0.470 1250
       395        396      1           0.470 1250
       396        397      1           0.470 1250
       397        398      1           0.470 1250
       398        399      1           0.470 1250
       399        400      1           0.470 1250
       401        403      1           0.380 5000
       401        404      1           0.271 1250
       401        418      1           0.380 5000
       402        403      1           0.380 5000
       402        410      1           0.263 1250
       404        419      1           0.304 1250
       404        440      1           0.301 1250
       404        405      1           0.470 1250
       405        406      1           0.470 1250
       406        407      1           0.470 1250
       407        408      1           0.470 1250
       408        409      1           0.470 1250
       410        411      1           0.470 1250
       411        412      1           0.470 1250
       412        413      1           0.470 1250
       413        414      1           0.470 1250
       414        415      1           0.470 1250
       416        418      1           0.380 5000
       416        419      1           0.258 1250
       416        433      1           0.380 5000
       417        418      1           0.380 5000
       417        425      1           0.273 1250
       419        440      1           0.314 1250
       419        420      1           0.470 1250
       420        421      1           0.470 1250
       421        422      1           0.470 1250
       422        423      1           0.470 1250
       423        424      1           0.470 1250
       425        426      1           0.470 1250
       426        427      1           0.470 1250
       427        428      1           0.470 1250
       428        429      1           0.470 1250
       429        430      1           0.470 1250
       431        433      1           0.380 5000
       431        440      1           0.273 1250
       432        433      1           0.381 5000
       432        434      1           0.259 1250
       432        478      1           0.380 5000
       434        485      1           0.306 1250
       434        494      1           0.314 1250
       434        435      1           0.470 1250
       435        436      1           0.470 1250
       436        437      1           0.470 1250
       437        438      1           0.470 1250
       438        439      1           0.470 1250
       440        441      1           0.470 1250
       441        442      1           0.470 1250
       442        443      1           0.470 1250
       443        444      1           0.470 1250
       444        445      1           0.470 1250
       446        448      1           0.380 5000
       446        449      1           0.262 1250
       446        463      1           0.380 5000
       447        448      1           0.380 5000
       447        455      1           0.270 1250
       449        464      1           0.324 1250
       449        450      1           0.470 1250
       450        451      1           0.470 1250
       451        452      1           0.470 1250
       452        453      1           0.470 1250
       453        454      1           0.470 1250
       455        456      1           0.470 1250
       456        457      1           0.470 1250
       457        458      1           0.470 1250
       458        459      1           0.470 1250
       459        460      1           0.470 1250
       461        463      1           0.380 5000
       461        464      1           0.274 1250
       462        463      1           0.380 5000
       462        470      1           0.259 1250
       464        465      1           0.470 1250
       465        466      1           0.470 1250
       466        467      1           0.470 1250
       467        468      1           0.470 1250
       468        469      1           0.470 1250
       470        471      1           0.470 1250
       471        472      1           0.470 1250
       472        473      1           0.470 1250
       473        474      1           0.470 1250
       474        475      1           0.470 1250
       476        478      1           0.380 5000
       476        485      1           0.272 1250
       476        493      1           0.380 5000
       477        478      1           0.380 5000
       477        479      1           0.261 1250
       479        480      1           0.470 1250
       480        481      1           0.470 1250
       481        482      1           0.470 1250
       482        483      1           0.470 1250
       483        484      1           0.470 1250
       485        494      1           0.301 1250
       485        486      1           0.470 1250
       486        487      1           0.470 1250
       487        488      1           0.470 1250
       488        489      1           0.470 1250
       489        490      1           0.470 1250
       491        493      1           0.380 5000
       491        494      1           0.271 1250
       492        493      1           0.380 5000
       492        500      1           0.264 1250
       494        495      1           0.470 1250
       495        496      1           0.470 1250
       496        497      1           0.470 1250
       497        498      1           0.470 1250
       498        499      1           0.470 1250
       500        501      1           0.470 1250
       501        502      1           0.470 1250
       502        503      1           0.470 1250
       503        504      1           0.470 1250
       504        505      1           0.470 1250

 [ angles ]
;  i j k     funct  angle  force.c.
    59   60   61   2    180.0  25.0
    60   61   62   2    180.0  25.0
    61   62   63   2    180.0  25.0
    62   63   64   2    180.0  25.0
    65   66   67   2    180.0  25.0
    66   67   68   2    180.0  25.0
    67   68   69   2    180.0  25.0
    68   69   70   2    180.0  25.0
    74   75   76   2    180.0  25.0
    75   76   77   2    180.0  25.0
    76   77   78   2    180.0  25.0
    77   78   79   2    180.0  25.0
    80   81   82   2    180.0  25.0
    81   82   83   2    180.0  25.0
    82   83   84   2    180.0  25.0
    83   84   85   2    180.0  25.0
    89   90   91   2    180.0  25.0
    90   91   92   2    180.0  25.0
    91   92   93   2    180.0  25.0
    92   93   94   2    180.0  25.0
    95   96   97   2    180.0  25.0
    96   97   98   2    180.0  25.0
    97   98   99   2    180.0  25.0
    98   99  100   2    180.0  25.0
   104  105  106   2    180.0  25.0
   105  106  107   2    180.0  25.0
   106  107  108   2    180.0  25.0
   107  108  109   2    180.0  25.0
   110  111  112   2    180.0  25.0
   111  112  113   2    180.0  25.0
   112  113  114   2    180.0  25.0
   113  114  115   2    180.0  25.0
   119  120  121   2    180.0  25.0
   120  121  122   2    180.0  25.0
   121  122  123   2    180.0  25.0
   122  123  124   2    180.0  25.0
   125  126  127   2    180.0  25.0
   126  127  128   2    180.0  25.0
   127  128  129   2    180.0  25.0
   128  129  130   2    180.0  25.0
   134  135  136   2    180.0  25.0
   135  136  137   2    180.0  25.0
   136  137  138   2    180.0  25.0
   137  138  139   2    180.0  25.0
   140  141  142   2    180.0  25.0
   141  142  143   2    180.0  25.0
   142  143  144   2    180.0  25.0
   143  144  145   2    180.0  25.0
   149  150  151   2    180.0  25.0
   150  151  152   2    180.0  25.0
   151  152  153   2    180.0  25.0
   152  153  154   2    180.0  25.0
   155  156  157   2    180.0  25.0
   156  157  158   2    180.0  25.0
   157  158  159   2    180.0  25.0
   158  159  160   2    180.0  25.0
   164  165  166   2    180.0  25.0
   165  166  167   2    180.0  25.0
   166  167  168   2    180.0  25.0
   167  168  169   2    180.0  25.0
   170  171  172   2    180.0  25.0
   171  172  173   2    180.0  25.0
   172  173  174   2    180.0  25.0
   173  174  175   2    180.0  25.0
   179  180  181   2    180.0  25.0
   180  181  182   2    180.0  25.0
   181  182  183   2    180.0  25.0
   182  183  184   2    180.0  25.0
   185  186  187   2    180.0  25.0
   186  187  188   2    180.0  25.0
   187  188  189   2    180.0  25.0
   188  189  190   2    180.0  25.0
   194  195  196   2    180.0  25.0
   195  196  197   2    180.0  25.0
   196  197  198   2    180.0  25.0
   197  198  199   2    180.0  25.0
   200  201  202   2    180.0  25.0
   201  202  203   2    180.0  25.0
   202  203  204   2    180.0  25.0
   203  204  205   2    180.0  25.0
   209  210  211   2    180.0  25.0
   210  211  212   2    180.0  25.0
   211  212  213   2    180.0  25.0
   212  213  214   2    180.0  25.0
   215  216  217   2    180.0  25.0
   216  217  218   2    180.0  25.0
   217  218  219   2    180.0  25.0
   218  219  220   2    180.0  25.0
   224  225  226   2    180.0  25.0
   225  226  227   2    180.0  25.0
   226  227  228   2    180.0  25.0
   227  228  229   2    180.0  25.0
   230  231  232   2    180.0  25.0
   231  232  233   2    180.0  25.0
   232  233  234   2    180.0  25.0
   233  234  235   2    180.0  25.0
   239  240  241   2    180.0  25.0
   240  241  242   2    180.0  25.0
   241  242  243   2    180.0  25.0
   242  243  244   2    180.0  25.0
   245  246  247   2    180.0  25.0
   246  247  248   2    180.0  25.0
   247  248  249   2    180.0  25.0
   248  249  250   2    180.0  25.0
   254  255  256   2    180.0  25.0
   255  256  257   2    180.0  25.0
   256  257  258   2    180.0  25.0
   257  258  259   2    180.0  25.0
   260  261  262   2    180.0  25.0
   261  262  263   2    180.0  25.0
   262  263  264   2    180.0  25.0
   263  264  265   2    180.0  25.0
   269  270  271   2    180.0  25.0
   270  271  272   2    180.0  25.0
   271  272  273   2    180.0  25.0
   272  273  274   2    180.0  25.0
   275  276  277   2    180.0  25.0
   276  277  278   2    180.0  25.0
   277  278  279   2    180.0  25.0
   278  279  280   2    180.0  25.0
   284  285  286   2    180.0  25.0
   285  286  287   2    180.0  25.0
   286  287  288   2    180.0  25.0
   287  288  289   2    180.0  25.0
   290  291  292   2    180.0  25.0
   291  292  293   2    180.0  25.0
   292  293  294   2    180.0  25.0
   293  294  295   2    180.0  25.0
   299  300  301   2    180.0  25.0
   300  301  302   2    180.0  25.0
   301  302  303   2    180.0  25.0
   302  303  304   2    180.0  25.0
   305  306  307   2    180.0  25.0
   306  307  308   2    180.0  25.0
   307  308  309   2    180.0  25.0
   308  309  310   2    180.0  25.0
   314  315  316   2    180.0  25.0
   315  316  317   2    180.0  25.0
   316  317  318   2    180.0  25.0
   317  318  319   2    180.0  25.0
   320  321  322   2    180.0  25.0
   321  322  323   2    180.0  25.0
   322  323  324   2    180.0  25.0
   323  324  325   2    180.0  25.0
   329  330  331   2    180.0  25.0
   330  331  332   2    180.0  25.0
   331  332  333   2    180.0  25.0
   332  333  334   2    180.0  25.0
   335  336  337   2    180.0  25.0
   336  337  338   2    180.0  25.0
   337  338  339   2    180.0  25.0
   338  339  340   2    180.0  25.0
   344  345  346   2    180.0  25.0
   345  346  347   2    180.0  25.0
   346  347  348   2    180.0  25.0
   347  348  349   2    180.0  25.0
   350  351  352   2    180.0  25.0
   351  352  353   2    180.0  25.0
   352  353  354   2    180.0  25.0
   353  354  355   2    180.0  25.0
   359  360  361   2    180.0  25.0
   360  361  362   2    180.0  25.0
   361  362  363   2    180.0  25.0
   362  363  364   2    180.0  25.0
   365  366  367   2    180.0  25.0
   366  367  368   2    180.0  25.0
   367  368  369   2    180.0  25.0
   368  369  370   2    180.0  25.0
   374  375  376   2    180.0  25.0
   375  376  377   2    180.0  25.0
   376  377  378   2    180.0  25.0
   377  378  379   2    180.0  25.0
   380  381  382   2    180.0  25.0
   381  382  383   2    180.0  25.0
   382  383  384   2    180.0  25.0
   383  384  385   2    180.0  25.0
   389  390  391   2    180.0  25.0
   390  391  392   2    180.0  25.0
   391  392  393   2    180.0  25.0
   392  393  394   2    180.0  25.0
   395  396  397   2    180.0  25.0
   396  397  398   2    180.0  25.0
   397  398  399   2    180.0  25.0
   398  399  400   2    180.0  25.0
   404  405  406   2    180.0  25.0
   405  406  407   2    180.0  25.0
   406  407  408   2    180.0  25.0
   407  408  409   2    180.0  25.0
   410  411  412   2    180.0  25.0
   411  412  413   2    180.0  25.0
   412  413  414   2    180.0  25.0
   413  414  415   2    180.0  25.0
   419  420  421   2    180.0  25.0
   420  421  422   2    180.0  25.0
   421  422  423   2    180.0  25.0
   422  423  424   2    180.0  25.0
   425  426  427   2    180.0  25.0
   426  427  428   2    180.0  25.0
   427  428  429   2    180.0  25.0
   428  429  430   2    180.0  25.0
   434  435  436   2    180.0  25.0
   435  436  437   2    180.0  25.0
   436  437  438   2    180.0  25.0
   437  438  439   2    180.0  25.0
   440  441  442   2    180.0  25.0
   441  442  443   2    180.0  25.0
   442  443  444   2    180.0  25.0
   443  444  445   2    180.0  25.0
   449  450  451   2    180.0  25.0
   450  451  452   2    180.0  25.0
   451  452  453   2    180.0  25.0
   452  453  454   2    180.0  25.0
   455  456  457   2    180.0  25.0
   456  457  458   2    180.0  25.0
   457  458  459   2    180.0  25.0
   458  459  460   2    180.0  25.0
   464  465  466   2    180.0  25.0
   465  466  467   2    180.0  25.0
   466  467  468   2    180.0  25.0
   467  468  469   2    180.0  25.0
   470  471  472   2    180.0  25.0
   471  472  473   2    180.0  25.0
   472  473  474   2    180.0  25.0
   473  474  475   2    180.0  25.0
   479  480  481   2    180.0  25.0
   480  481  482   2    180.0  25.0
   481  482  483   2    180.0  25.0
   482  483  484   2    180.0  25.0
   485  486  487   2    180.0  25.0
   486  487  488   2    180.0  25.0
   487  488  489   2    180.0  25.0
   488  489  490   2    180.0  25.0
   494  495  496   2    180.0  25.0
   495  496  497   2    180.0  25.0
   496  497  498   2    180.0  25.0
   497  498  499   2    180.0  25.0
   500  501  502   2    180.0  25.0
   501  502  503   2    180.0  25.0
   502  503  504   2    180.0  25.0
   503  504  505   2    180.0  25.0
