Protein in INSANE! Membrane UpperLeaflet>POPC=1.0 LowerLeaflet>POPC=1.0
11125
    1AU     AUC    1   5.230   5.292   6.008
    1AU     AUC    2   5.501   5.309   5.833
    1AU     AUC    3   5.484   5.279   6.183
    1AU     AUC    4   4.950   5.287   5.838
    1AU     AUC    5   4.967   5.327   6.186
    1AU     AUC    6   5.067   5.574   6.003
    1AU     AUC    7   5.427   5.568   6.001
    1AU     AUC    8   5.043   5.027   6.014
    1AU     AUC    9   5.394   5.003   6.008
    1AU     AUC   10   5.230   5.114   6.283
    1AU     AUC   11   5.226   5.462   6.276
    1AU     AUC   12   5.223   5.130   5.735
    1AU     AUC   13   5.247   5.446   5.735
    1AU     AUC   14   5.812   5.314   5.666
    1AU     AUC   15   5.831   5.267   6.029
    1AU     AUC   16   5.773   5.247   6.387
    1AU     AUC   17   4.648   5.273   5.666
    1AU     AUC   18   4.623   5.323   6.029
    1AU     AUC   19   4.671   5.360   6.364
    1AU     AUC   20   4.908   5.885   5.981
    1AU     AUC   21   5.267   5.896   5.978
    1AU     AUC   22   5.645   5.840   5.996
    1AU     AUC   23   4.846   4.747   6.022
    1AU     AUC   24   5.202   4.690   5.997
    1AU     AUC   25   5.566   4.702   5.991
    1AU     AUC   26   5.206   4.936   6.573
    1AU     AUC   27   5.235   5.310   6.625
    1AU     AUC   28   5.251   5.641   6.572
    1AU     AUC   29   5.255   4.952   5.457
    1AU     AUC   30   5.236   5.282   5.395
    1AU     AUC   31   5.219   5.618   5.431
    1AU     AUC   32   5.484   5.076   6.519
    1AU     AUC   33   5.538   5.427   6.520
    1AU     AUC   34   5.562   5.161   5.500
    1AU     AUC   35   5.542   5.479   5.531
    1AU     AUC   36   4.922   5.169   6.521
    1AU     AUC   37   4.950   5.543   6.485
    1AU     AUC   38   4.929   5.098   5.545
    1AU     AUC   39   4.909   5.419   5.497
    1AU     AUC   40   5.766   5.590   5.838
    1AU     AUC   41   5.737   5.563   6.188
    1AU     AUC   42   4.750   5.588   5.818
    1AU     AUC   43   4.767   5.647   6.172
    1AU     AUC   44   5.704   4.998   5.841
    1AU     AUC   45   5.670   4.940   6.199
    1AU     AUC   46   4.710   4.987   5.868
    1AU     AUC   47   4.758   5.042   6.220
    1AU     AUC   48   5.096   5.834   6.274
    1AU     AUC   49   5.445   5.754   6.269
    1AU     AUC   50   5.034   4.818   6.307
    1AU     AUC   51   5.353   4.760   6.284
    1AU     AUC   52   5.059   5.735   5.699
    1AU     AUC   53   5.429   5.781   5.706
    1AU     AUC   54   5.039   4.817   5.719
    1AU     AUC   55   5.435   4.841   5.713
    1AU    AUSL   56   5.745   5.137   6.781
    1AU    AUSL   57   5.495   4.760   6.683
    1AU     AUL   58   5.670   4.742   7.045
    1AU       S   59   5.852   4.536   6.681
    1AU     LIG   60   5.725   4.226   6.990
    1AU     LIG   61   5.968   3.893   7.191
    1AU     LIG   62   6.246   3.595   7.427
    1AU     LIG   63   6.377   3.584   7.876
    1AU       S   64   5.921   5.054   6.829
    1AU     LIG   65   5.962   5.055   7.313
    1AU     LIG   66   6.183   5.026   7.738
    1AU     LIG   67   6.517   5.039   8.084
    1AU     LIG   68   6.891   5.157   8.363
    1AU    AUSL   69   5.323   5.097   6.909
    1AU    AUSL   70   5.075   5.483   6.915
    1AU     AUL   71   5.261   5.427   7.262
    1AU       S   72   5.340   5.044   7.032
    1AU     LIG   73   5.457   5.002   7.451
    1AU     LIG   74   5.711   4.810   7.783
    1AU     LIG   75   5.807   4.628   8.212
    1AU     LIG   76   5.919   4.647   8.669
    1AU       S   77   4.866   5.233   7.125
    1AU     LIG   78   4.920   5.224   7.592
    1AU     LIG   79   4.680   5.170   7.983
    1AU     LIG   80   4.547   5.178   8.432
    1AU     LIG   81   4.557   5.428   8.837
    1AU    AUSL   82   5.497   5.508   6.871
    1AU    AUSL   83   5.879   5.524   6.632
    1AU     AUL   84   5.752   5.423   7.041
    1AU       S   85   5.405   5.821   7.002
    1AU     LIG   86   5.648   5.776   7.395
    1AU     LIG   87   5.732   5.887   7.863
    1AU     LIG   88   5.770   5.942   8.349
    1AU     LIG   89   5.789   5.906   8.829
    1AU       S   90   5.969   5.769   6.815
    1AU     LIG   91   6.401   5.751   6.874
    1AU     LIG   92   6.684   5.981   7.162
    1AU     LIG   93   6.930   6.207   7.483
    1AU     LIG   94   7.285   6.418   7.694
    1AU    AUSL   95   5.766   5.467   5.242
    1AU    AUSL   96   5.527   5.766   5.470
    1AU     AUL   97   5.565   5.855   5.105
    1AU       S   98   5.744   5.512   4.849
    1AU     LIG   99   6.125   5.358   4.644
    1AU     LIG  100   6.240   5.071   4.309
    1AU     LIG  101   6.284   4.963   3.858
    1AU     LIG  102   6.487   5.049   3.441
    1AU       S  103   5.959   6.003   5.315
    1AU     LIG  104   6.068   6.192   4.912
    1AU     LIG  105   6.264   6.347   4.510
    1AU     LIG  106   6.502   6.660   4.261
    1AU     LIG  107   6.727   6.982   4.026
    1AU    AUSL  108   5.558   5.104   5.112
    1AU    AUSL  109   5.899   5.090   5.433
    1AU     AUL  110   5.973   5.220   5.142
    1AU       S  111   6.074   4.764   5.192
    1AU     LIG  112   6.235   4.433   4.881
    1AU     LIG  113   6.476   4.051   4.732
    1AU     LIG  114   6.732   3.760   4.459
    1AU     LIG  115   7.122   3.730   4.181
    1AU       S  116   5.654   5.302   4.796
    1AU     LIG  117   5.812   4.936   4.610
    1AU     LIG  118   5.867   4.739   4.175
    1AU     LIG  119   5.835   4.768   3.701
    1AU     LIG  120   6.052   4.819   3.285
    1AU    AUSL  121   5.336   5.469   5.210
    1AU    AUSL  122   5.133   5.071   5.223
    1AU     AUL  123   5.297   5.067   4.962
    1AU       S  124   4.873   5.103   4.784
    1AU     LIG  125   4.878   4.858   4.395
    1AU     LIG  126   4.683   4.619   4.044
    1AU     LIG  127   4.490   4.694   3.628
    1AU     LIG  128   4.606   4.815   3.192
    1AU       S  129   5.405   5.506   4.833
    1AU     LIG  130   5.530   5.383   4.341
    1AU     LIG  131   5.837   5.226   4.006
    1AU     LIG  132   5.973   5.255   3.552
    1AU     LIG  133   5.898   5.473   3.143
    1AU    AUSL  134   4.674   5.434   6.739
    1AU    AUSL  135   5.004   5.779   6.619
    1AU     AUL  136   4.853   5.725   6.956
    1AU       S  137   4.661   5.336   7.168
    1AU     LIG  138   4.499   4.970   7.405
    1AU     LIG  139   4.284   4.883   7.821
    1AU     LIG  140   4.124   4.924   8.272
    1AU     LIG  141   3.781   5.075   8.578
    1AU       S  142   4.590   6.032   6.683
    1AU     LIG  143   4.625   6.203   7.097
    1AU     LIG  144   4.478   6.447   7.486
    1AU     LIG  145   4.202   6.738   7.741
    1AU     LIG  146   4.023   6.882   8.161
    1AU    AUSL  147   4.983   5.142   6.657
    1AU    AUSL  148   4.567   5.004   6.640
    1AU     AUL  149   4.466   5.239   6.758
    1AU       S  150   4.479   4.784   6.896
    1AU     LIG  151   4.051   4.640   6.708
    1AU     LIG  152   3.856   4.225   6.834
    1AU     LIG  153   3.635   3.896   7.094
    1AU     LIG  154   3.247   3.780   7.351
    1AU       S  155   4.843   5.095   7.049
    1AU     LIG  156   4.995   4.789   7.353
    1AU     LIG  157   4.787   4.705   7.761
    1AU     LIG  158   4.596   4.695   8.193
    1AU     LIG  159   4.447   4.568   8.612
    1AU    AUSL  160   4.704   5.136   5.272
    1AU    AUSL  161   4.913   4.798   5.465
    1AU     AUL  162   4.938   4.784   5.131
    1AU       S  163   4.693   5.052   4.839
    1AU     LIG  164   4.391   4.976   4.517
    1AU     LIG  165   4.262   4.912   4.075
    1AU     LIG  166   4.009   4.926   3.686
    1AU     LIG  167   3.567   5.065   3.584
    1AU       S  168   4.520   4.678   5.297
    1AU     LIG  169   4.542   4.370   5.023
    1AU     LIG  170   4.206   4.086   4.875
    1AU     LIG  171   3.860   3.917   4.606
    1AU     LIG  172   3.663   3.709   4.232
    1AU    AUSL  173   4.929   5.462   5.096
    1AU    AUSL  174   4.577   5.535   5.401
    1AU     AUL  175   4.498   5.346   5.130
    1AU       S  176   4.574   5.796   5.143
    1AU     LIG  177   4.173   5.899   5.045
    1AU     LIG  178   4.003   6.169   4.700
    1AU     LIG  179   3.756   6.456   4.413
    1AU     LIG  180   3.302   6.443   4.224
    1AU       S  181   4.908   5.380   4.864
    1AU     LIG  182   4.721   5.371   4.402
    1AU     LIG  183   4.708   5.146   3.980
    1AU     LIG  184   4.632   5.205   3.520
    1AU     LIG  185   4.727   5.404   3.090
    1AU    AUSL  186   6.064   5.771   6.001
    1AU    AUSL  187   5.906   5.560   5.631
    1AU     AUL  188   6.273   5.730   5.620
    1AU       S  189   5.977   5.873   5.320
    1AU     LIG  190   6.239   5.703   5.023
    1AU     LIG  191   6.528   5.964   4.758
    1AU     LIG  192   6.787   6.292   4.516
    1AU     LIG  193   7.036   6.616   4.265
    1AU       S  194   6.376   5.875   6.053
    1AU     LIG  195   6.813   5.956   5.849
    1AU     LIG  196   7.264   6.118   5.936
    1AU     LIG  197   7.506   6.516   6.067
    1AU     LIG  198   7.755   6.772   6.374
    1AU    AUSL  199   6.207   5.368   5.892
    1AU    AUSL  200   6.128   5.062   6.234
    1AU     AUL  201   6.371   5.244   6.317
    1AU       S  202   6.488   5.481   5.940
    1AU     LIG  203   6.830   5.456   5.697
    1AU     LIG  204   7.251   5.628   5.744
    1AU     LIG  205   7.691   5.735   5.736
    1AU     LIG  206   8.070   5.499   5.544
    1AU       S  207   6.410   4.818   6.076
    1AU     LIG  208   6.870   4.692   6.141
    1AU     LIG  209   7.272   4.472   6.219
    1AU     LIG  210   7.687   4.346   6.320
    1AU     LIG  211   8.092   4.499   6.464
    1AU    AUSL  212   5.913   5.428   6.222
    1AU    AUSL  213   5.859   5.887   6.360
    1AU     AUL  214   6.137   5.648   6.394
    1AU       S  215   6.056   6.045   6.646
    1AU     LIG  216   6.316   6.280   6.957
    1AU     LIG  217   6.665   6.541   7.171
    1AU     LIG  218   6.857   6.970   7.300
    1AU     LIG  219   6.953   7.460   7.260
    1AU       S  220   6.514   5.655   6.126
    1AU     LIG  221   6.964   5.589   6.183
    1AU     LIG  222   7.414   5.716   6.231
    1AU     LIG  223   7.828   5.701   6.450
    1AU     LIG  224   8.092   5.951   6.729
    1AU    AUSL  225   4.568   5.872   6.004
    1AU    AUSL  226   4.658   5.661   6.384
    1AU     AUL  227   4.345   5.981   6.228
    1AU       S  228   4.510   5.847   6.633
    1AU     LIG  229   4.345   5.756   7.036
    1AU     LIG  230   4.148   6.095   7.300
    1AU     LIG  231   3.892   6.362   7.587
    1AU     LIG  232   3.603   6.460   7.956
    1AU       S  233   4.583   6.260   5.914
    1AU     LIG  234   4.119   6.173   5.811
    1AU     LIG  235   3.647   6.287   5.830
    1AU     LIG  236   3.212   6.497   5.876
    1AU     LIG  237   2.796   6.677   6.041
    1AU    AUSL  238   4.524   5.478   5.816
    1AU    AUSL  239   4.656   5.922   5.594
    1AU     AUL  240   4.363   5.773   5.642
    1AU       S  241   4.166   5.316   5.485
    1AU     LIG  242   3.857   5.688   5.568
    1AU     LIG  243   3.410   5.854   5.669
    1AU     LIG  244   3.086   6.152   5.494
    1AU     LIG  245   2.614   6.195   5.456
    1AU       S  246   4.443   6.178   5.387
    1AU     LIG  247   4.352   6.398   5.019
    1AU     LIG  248   4.202   6.650   4.671
    1AU     LIG  249   3.949   6.993   4.535
    1AU     LIG  250   3.636   7.277   4.735
    1AU    AUSL  251   4.306   5.523   6.203
    1AU    AUSL  252   4.269   5.153   5.912
    1AU     AUL  253   4.135   5.486   5.930
    1AU       S  254   4.073   5.084   6.196
    1AU     LIG  255   3.747   5.147   5.890
    1AU     LIG  256   3.387   4.889   5.728
    1AU     LIG  257   2.973   4.677   5.726
    1AU     LIG  258   2.567   4.815   5.622
    1AU       S  259   4.179   5.552   6.430
    1AU     LIG  260   3.746   5.535   6.258
    1AU     LIG  261   3.312   5.701   6.400
    1AU     LIG  262   2.882   5.929   6.404
    1AU     LIG  263   2.482   6.220   6.357
    1AU    AUSL  264   5.928   4.713   6.046
    1AU    AUSL  265   5.744   4.973   6.390
    1AU     AUL  266   6.086   4.848   6.421
    1AU       S  267   6.200   4.606   6.019
    1AU     LIG  268   6.545   4.304   6.024
    1AU     LIG  269   6.982   4.118   5.989
    1AU     LIG  270   7.432   3.953   6.067
    1AU     LIG  271   7.765   3.840   6.372
    1AU       S  272   5.936   4.450   6.583
    1AU     LIG  273   6.237   4.247   6.895
    1AU     LIG  274   6.492   3.996   7.207
    1AU     LIG  275   6.734   3.777   7.547
    1AU     LIG  276   7.027   3.831   7.923
    1AU    AUSL  277   5.891   5.098   5.854
    1AU    AUSL  278   5.851   4.688   5.623
    1AU     AUL  279   6.110   4.900   5.660
    1AU       S  280   6.468   4.950   5.928
    1AU     LIG  281   6.676   4.654   5.662
    1AU     LIG  282   7.125   4.524   5.709
    1AU     LIG  283   7.557   4.373   5.792
    1AU     LIG  284   7.954   4.292   5.580
    1AU       S  285   6.053   4.543   5.350
    1AU     LIG  286   6.087   4.085   5.245
    1AU     LIG  287   6.262   3.689   5.027
    1AU     LIG  288   6.528   3.373   4.779
    1AU     LIG  289   6.680   2.911   4.750
    1AU    AUSL  290   4.467   4.785   6.069
    1AU    AUSL  291   4.585   5.015   5.663
    1AU     AUL  292   4.226   4.861   5.792
    1AU       S  293   4.392   4.803   5.366
    1AU     LIG  294   4.058   4.464   5.222
    1AU     LIG  295   3.703   4.211   5.012
    1AU     LIG  296   3.355   4.005   4.757
    1AU     LIG  297   3.012   4.093   4.444
    1AU       S  298   4.053   4.857   6.239
    1AU     LIG  299   3.710   4.659   6.060
    1AU     LIG  300   3.263   4.549   6.132
    1AU     LIG  301   2.898   4.373   6.372
    1AU     LIG  302   2.550   4.030   6.324
    1AU    AUSL  303   4.546   5.175   6.254
    1AU    AUSL  304   4.798   4.790   6.343
    1AU     AUL  305   4.469   4.745   6.404
    1AU       S  306   4.513   4.560   6.831
    1AU     LIG  307   4.364   4.133   6.717
    1AU     LIG  308   4.057   3.739   6.759
    1AU     LIG  309   3.735   3.409   6.927
    1AU     LIG  310   3.289   3.339   7.089
    1AU       S  311   4.143   5.082   6.376
    1AU     LIG  312   3.622   5.055   6.398
    1AU     LIG  313   3.207   5.056   6.184
    1AU     LIG  314   2.775   4.886   6.162
    1AU     LIG  315   2.442   4.663   6.418
    1AU    AUSL  316   5.274   6.088   6.497
    1AU    AUSL  317   4.858   6.032   6.290
    1AU     AUL  318   5.047   6.117   6.703
    1AU       S  319   4.722   6.238   6.387
    1AU     LIG  320   4.417   6.490   6.707
    1AU     LIG  321   4.167   6.620   7.117
    1AU     LIG  322   3.948   7.000   7.351
    1AU     LIG  323   3.727   7.452   7.378
    1AU       S  324   5.368   6.431   6.484
    1AU     LIG  325   5.525   6.547   6.843
    1AU     LIG  326   5.483   6.971   7.017
    1AU     LIG  327   5.579   7.399   7.156
    1AU     LIG  328   5.661   7.712   7.498
    1AU    AUSL  329   5.157   6.264   6.097
    1AU    AUSL  330   5.406   6.152   5.747
    1AU     AUL  331   5.470   6.473   5.868
    1AU       S  332   5.213   6.500   6.267
    1AU     LIG  333   5.312   6.927   6.516
    1AU     LIG  334   5.315   7.380   6.686
    1AU     LIG  335   5.065   7.803   6.677
    1AU     LIG  336   4.826   8.168   6.880
    1AU       S  337   5.172   6.483   5.522
    1AU     LIG  338   5.499   6.844   5.478
    1AU     LIG  339   5.740   7.267   5.355
    1AU     LIG  340   6.002   7.697   5.309
    1AU     LIG  341   6.193   8.145   5.258
    1AU    AUSL  342   5.520   6.017   6.143
    1AU    AUSL  343   5.490   5.724   6.517
    1AU     AUL  344   5.589   6.033   6.593
    1AU       S  345   5.873   5.905   6.926
    1AU     LIG  346   6.143   5.933   7.292
    1AU     LIG  347   6.403   6.253   7.508
    1AU     LIG  348   6.670   6.584   7.720
    1AU     LIG  349   6.736   6.793   8.140
    1AU       S  350   5.631   6.351   6.272
    1AU     LIG  351   5.787   6.740   6.434
    1AU     LIG  352   5.789   7.156   6.646
    1AU     LIG  353   5.805   7.607   6.745
    1AU     LIG  354   5.863   8.054   6.724
    1AU    AUSL  355   5.179   4.584   6.442
    1AU    AUSL  356   5.598   4.577   6.286
    1AU     AUL  357   5.392   4.443   6.660
    1AU       S  358   5.144   4.086   6.489
    1AU     LIG  359   4.863   3.970   6.826
    1AU     LIG  360   4.819   3.509   6.925
    1AU     LIG  361   4.876   3.033   6.945
    1AU     LIG  362   4.707   2.633   7.164
    1AU       S  363   5.769   4.389   6.368
    1AU     LIG  364   5.933   3.956   6.594
    1AU     LIG  365   6.284   3.697   6.843
    1AU     LIG  366   6.640   3.480   7.102
    1AU     LIG  367   6.859   3.034   7.117
    1AU    AUSL  368   4.858   4.413   6.166
    1AU    AUSL  369   4.959   4.741   6.767
    1AU     AUL  370   4.850   4.458   6.528
    1AU       S  371   4.952   4.041   6.333
    1AU     LIG  372   4.746   3.648   6.427
    1AU     LIG  373   4.599   3.208   6.541
    1AU     LIG  374   4.491   2.768   6.702
    1AU     LIG  375   4.595   2.306   6.759
    1AU       S  376   4.750   4.633   6.960
    1AU     LIG  377   4.577   4.240   7.194
    1AU     LIG  378   4.179   3.981   7.193
    1AU     LIG  379   3.963   3.603   7.376
    1AU     LIG  380   3.971   3.380   7.796
    1AU    AUSL  381   5.297   4.332   6.110
    1AU    AUSL  382   5.068   4.590   5.832
    1AU     AUL  383   4.958   4.240   5.913
    1AU       S  384   5.333   4.134   5.675
    1AU     LIG  385   5.007   3.761   5.743
    1AU     LIG  386   4.773   3.323   5.634
    1AU     LIG  387   4.729   2.849   5.481
    1AU     LIG  388   4.603   2.469   5.218
    1AU       S  389   5.306   4.134   6.244
    1AU     LIG  390   5.239   3.655   6.212
    1AU     LIG  391   5.127   3.297   6.518
    1AU     LIG  392   5.337   2.896   6.669
    1AU     LIG  393   5.763   2.664   6.644
    1AU    AUSL  394   5.202   6.030   5.377
    1AU    AUSL  395   5.786   5.973   5.756
    1AU     AUL  396   5.549   6.166   5.465
    1AU       S  397   5.167   6.402   5.290
    1AU     LIG  398   5.535   6.520   5.084
    1AU     LIG  399   5.565   6.970   4.957
    1AU     LIG  400   5.497   7.315   4.638
    1AU     LIG  401   5.574   7.609   4.267
    1AU       S  402   5.990   6.108   5.622
    1AU     LIG  403   6.408   6.185   5.330
    1AU     LIG  404   6.543   6.454   4.947
    1AU     LIG  405   6.795   6.787   4.695
    1AU     LIG  406   7.155   7.120   4.649
    1AU    AUSL  407   5.014   5.986   5.809
    1AU    AUSL  408   4.990   5.677   5.457
    1AU     AUL  409   4.889   6.082   5.478
    1AU       S  410   5.002   6.472   5.692
    1AU     LIG  411   4.993   6.926   5.445
    1AU     LIG  412   5.213   7.323   5.303
    1AU     LIG  413   5.062   7.787   5.302
    1AU     LIG  414   4.755   8.060   5.075
    1AU       S  415   4.739   5.903   5.089
    1AU     LIG  416   4.535   6.053   4.690
    1AU     LIG  417   4.345   6.298   4.330
    1AU     LIG  418   4.150   6.692   4.149
    1AU     LIG  419   4.167   7.157   4.045
    1AU    AUSL  420   5.254   4.539   5.434
    1AU    AUSL  421   4.653   4.578   5.743
    1AU     AUL  422   4.915   4.428   5.484
    1AU       S  423   4.463   4.543   5.540
    1AU     LIG  424   4.382   4.127   5.448
    1AU     LIG  425   3.995   3.902   5.306
    1AU     LIG  426   3.677   3.676   5.032
    1AU     LIG  427   3.465   3.261   4.894
    1AU       S  428   5.310   4.150   5.493
    1AU     LIG  429   5.244   3.713   5.293
    1AU     LIG  430   5.009   3.286   5.174
    1AU     LIG  431   4.811   2.891   4.959
    1AU     LIG  432   4.730   2.607   4.569
    1AU    AUSL  433   5.500   4.562   5.815
    1AU    AUSL  434   5.496   4.886   5.466
    1AU     AUL  435   5.589   4.522   5.423
    1AU       S  436   5.590   4.202   5.765
    1AU     LIG  437   5.524   3.698   5.765
    1AU     LIG  438   5.287   3.308   5.621
    1AU     LIG  439   5.241   2.871   5.416
    1AU     LIG  440   5.400   2.408   5.422
    1AU       S  441   5.845   4.733   5.106
    1AU     LIG  442   5.732   4.336   4.963
    1AU     LIG  443   5.953   3.990   4.738
    1AU     LIG  444   6.203   3.676   4.488
    1AU     LIG  445   6.418   3.540   4.090
    2POPC   NC3  446  10.025   5.920   8.105
    2POPC   PO4  447  10.432   5.392   7.994
    2POPC   GL1  448  10.258   5.503   7.654
    2POPC   GL2  449  10.286   5.831   7.680
    2POPC   C1A  450  10.144   5.333   7.266
    2POPC   D2A  451  10.303   5.424   6.873
    2POPC   C3A  452  10.089   5.407   6.457
    2POPC   C4A  453  10.131   5.377   5.950
    2POPC   C1B  454  10.279   5.852   7.250
    2POPC   C2B  455  10.366   5.983   6.890
    2POPC   C3B  456  10.095   5.924   6.584
    2POPC   C4B  457  10.199   5.811   6.189
    3POPC   NC3  458   0.485   9.291   8.301
    3POPC   PO4  459   0.645   9.618   7.786
    3POPC   GL1  460   0.463   9.471   7.449
    3POPC   GL2  461   0.287   9.204   7.511
    3POPC   C1A  462   0.221   9.598   7.161
    3POPC   D2A  463   0.367   9.710   6.795
    3POPC   C3A  464   0.078   9.691   6.503
    3POPC   C4A  465   0.250   9.713   6.129
    3POPC   C1B  466   0.244   9.000   7.119
    3POPC   C2B  467   0.518   9.063   6.745
    3POPC   C3B  468   0.422   9.329   6.400
    3POPC   C4B  469   0.494   9.313   5.911
    4POPC   NC3  470   9.446   7.370   8.201
    4POPC   PO4  471   8.991   6.900   8.080
    4POPC   GL1  472   9.163   7.193   7.794
    4POPC   GL2  473   9.506   7.114   7.758
    4POPC   C1A  474   9.195   7.137   7.360
    4POPC   D2A  475   9.237   6.974   6.966
    4POPC   C3A  476   9.244   7.196   6.579
    4POPC   C4A  477   9.194   7.101   6.157
    4POPC   C1B  478   9.728   7.204   7.374
    4POPC   C2B  479   9.766   7.089   6.975
    4POPC   C3B  480   9.814   7.207   6.580
    4POPC   C4B  481   9.617   7.387   6.250
    5POPC   NC3  482   5.916   8.565   8.058
    5POPC   PO4  483   5.699   9.224   8.200
    5POPC   GL1  484   5.874   9.013   7.835
    5POPC   GL2  485   5.604   8.951   7.538
    5POPC   C1A  486   6.081   8.946   7.453
    5POPC   D2A  487   5.844   9.170   7.073
    5POPC   C3A  488   5.802   9.067   6.624
    5POPC   C4A  489   5.642   8.802   6.302
    5POPC   C1B  490   5.744   8.675   7.178
    5POPC   C2B  491   5.603   8.541   6.758
    5POPC   C3B  492   5.573   8.289   6.373
    5POPC   C4B  493   5.680   8.227   5.944
    6POPC   NC3  494   6.410   1.974   8.093
    6POPC   PO4  495   6.052   2.473   7.923
    6POPC   GL1  496   6.423   2.179   7.629
    6POPC   GL2  497   6.430   1.794   7.607
    6POPC   C1A  498   6.524   2.069   7.170
    6POPC   D2A  499   6.299   2.260   6.792
    6POPC   C3A  500   6.583   2.339   6.416
    6POPC   C4A  501   6.427   2.283   5.975
    6POPC   C1B  502   6.674   1.486   7.330
    6POPC   C2B  503   6.757   1.610   6.910
    6POPC   C3B  504   6.590   1.877   6.667
    6POPC   C4B  505   6.389   1.890   6.293
    7POPC   NC3  506   9.035   5.825   8.001
    7POPC   PO4  507   8.914   5.222   8.195
    7POPC   GL1  508   8.920   5.358   7.771
    7POPC   GL2  509   8.615   5.412   7.615
    7POPC   C1A  510   9.034   5.486   7.346
    7POPC   D2A  511   9.048   5.645   6.902
    7POPC   C3A  512   8.919   5.511   6.473
    7POPC   C4A  513   8.917   5.624   6.050
    7POPC   C1B  514   8.570   5.608   7.164
    7POPC   C2B  515   8.488   5.465   6.740
    7POPC   C3B  516   8.429   5.605   6.311
    7POPC   C4B  517   8.102   5.652   6.022
    8POPC   NC3  518   3.749   9.637   8.064
    8POPC   PO4  519   3.190   9.891   8.149
    8POPC   GL1  520   3.187   9.726   7.731
    8POPC   GL2  521   3.299   9.396   7.795
    8POPC   C1A  522   3.332   9.810   7.300
    8POPC   D2A  523   3.152   9.711   6.882
    8POPC   C3A  524   3.465   9.579   6.593
    8POPC   C4A  525   3.460   9.430   6.155
    8POPC   C1B  526   3.448   9.217   7.421
    8POPC   C2B  527   3.436   9.238   6.983
    8POPC   C3B  528   3.557   9.056   6.564
    8POPC   C4B  529   3.764   8.956   6.177
    9POPC   NC3  530   2.614   7.856   8.436
    9POPC   PO4  531   3.041   8.203   8.089
    9POPC   GL1  532   2.671   7.960   7.876
    9POPC   GL2  533   2.446   8.169   7.696
    9POPC   C1A  534   2.585   7.763   7.422
    9POPC   D2A  535   2.852   7.672   7.040
    9POPC   C3A  536   2.677   7.703   6.616
    9POPC   C4A  537   2.505   7.525   6.241
    9POPC   C1B  538   2.876   8.187   7.447
    9POPC   C2B  539   3.009   8.160   7.026
    9POPC   C3B  540   3.001   8.094   6.559
    9POPC   C4B  541   2.791   7.967   6.161
   10POPC   NC3  542   8.545   6.938   8.213
   10POPC   PO4  543   8.530   7.540   8.347
   10POPC   GL1  544   8.690   7.395   7.891
   10POPC   GL2  545   8.673   7.049   7.695
   10POPC   C1A  546   8.752   7.499   7.387
   10POPC   D2A  547   8.568   7.703   6.964
   10POPC   C3A  548   8.438   7.508   6.524
   10POPC   C4A  549   8.435   7.512   6.046
   10POPC   C1B  550   8.729   7.031   7.216
   10POPC   C2B  551   8.775   7.187   6.789
   10POPC   C3B  552   8.717   7.044   6.350
   10POPC   C4B  553   8.772   7.164   5.891
   11POPC   NC3  554   6.123   9.090   8.295
   11POPC   PO4  555   6.310   8.395   8.205
   11POPC   GL1  556   6.348   8.567   7.755
   11POPC   GL2  557   6.669   8.727   7.706
   11POPC   C1A  558   6.365   8.589   7.266
   11POPC   D2A  559   6.671   8.428   6.972
   11POPC   C3A  560   6.565   8.508   6.535
   11POPC   C4A  561   6.439   8.537   6.092
   11POPC   C1B  562   6.702   8.941   7.325
   11POPC   C2B  563   6.592   8.938   6.891
   11POPC   C3B  564   6.635   8.996   6.459
   11POPC   C4B  565   6.199   8.964   6.245
   12POPC   NC3  566   5.044   1.157   8.072
   12POPC   PO4  567   5.267   1.806   8.025
   12POPC   GL1  568   4.910   1.567   7.751
   12POPC   GL2  569   4.958   1.253   7.593
   12POPC   C1A  570   4.735   1.534   7.265
   12POPC   D2A  571   5.029   1.483   6.877
   12POPC   C3A  572   4.813   1.510   6.483
   12POPC   C4A  573   4.850   1.425   6.032
   12POPC   C1B  574   4.938   1.048   7.207
   12POPC   C2B  575   4.800   1.059   6.793
   12POPC   C3B  576   5.003   1.055   6.378
   12POPC   C4B  577   4.617   0.980   6.158
   13POPC   NC3  578   0.189   9.537   7.874
   13POPC   PO4  579   9.989   9.435   8.068
   13POPC   GL1  580  10.191   9.578   7.726
   13POPC   GL2  581  10.294   9.227   7.669
   13POPC   C1A  582  10.150   9.848   7.355
   13POPC   D2A  583  10.308   9.805   6.932
   13POPC   C3A  584  10.102   9.893   6.543
   13POPC   C4A  585  10.219   9.701   6.141
   13POPC   C1B  586  10.288   9.343   7.254
   13POPC   C2B  587  10.429   9.301   6.836
   13POPC   C3B  588  10.123   9.357   6.536
   13POPC   C4B  589   9.957   9.282   6.147
   14POPC   NC3  590   1.576   5.547   8.386
   14POPC   PO4  591   0.934   5.558   8.203
   14POPC   GL1  592   1.111   5.518   7.752
   14POPC   GL2  593   1.342   5.274   7.594
   14POPC   C1A  594   1.102   5.779   7.358
   14POPC   D2A  595   1.246   5.655   6.922
   14POPC   C3A  596   1.106   5.891   6.536
   14POPC   C4A  597   1.148   5.703   6.127
   14POPC   C1B  598   0.974   5.295   7.303
   14POPC   C2B  599   0.821   5.367   6.839
   14POPC   C3B  600   0.853   5.368   6.374
   14POPC   C4B  601   0.855   5.325   5.908
   15POPC   NC3  602   8.551   3.377   7.999
   15POPC   PO4  603   8.648   4.019   7.788
   15POPC   GL1  604   8.685   3.668   7.472
   15POPC   GL2  605   8.693   3.275   7.510
   15POPC   C1A  606   8.848   3.528   7.061
   15POPC   D2A  607   8.606   3.428   6.685
   15POPC   C3A  608   8.838   3.374   6.335
   15POPC   C4A  609   8.813   3.603   5.961
   15POPC   C1B  610   8.378   3.373   7.172
   15POPC   C2B  611   8.176   3.638   6.885
   15POPC   C3B  612   8.114   3.490   6.488
   15POPC   C4B  613   8.376   3.582   6.191
   16POPC   NC3  614   0.473   2.770   8.083
   16POPC   PO4  615   0.327   2.116   8.186
   16POPC   GL1  616   0.366   2.386   7.750
   16POPC   GL2  617   0.116   2.673   7.720
   16POPC   C1A  618   0.122   2.387   7.320
   16POPC   D2A  619   0.136   2.646   6.943
   16POPC   C3A  620   0.370   2.530   6.570
   16POPC   C4A  621   0.076   2.431   6.245
   16POPC   C1B  622   0.415   2.802   7.360
   16POPC   C2B  623   0.445   3.062   6.976
   16POPC   C3B  624   0.316   3.043   6.544
   16POPC   C4B  625   0.409   2.850   6.149
   17POPC   NC3  626   8.930   7.785   8.313
   17POPC   PO4  627   8.636   8.220   7.947
   17POPC   GL1  628   8.665   7.957   7.626
   17POPC   GL2  629   8.994   7.778   7.721
   17POPC   C1A  630   8.612   8.212   7.247
   17POPC   D2A  631   8.349   8.238   6.893
   17POPC   C3A  632   8.517   8.066   6.568
   17POPC   C4A  633   8.635   8.205   6.163
   17POPC   C1B  634   9.052   7.924   7.267
   17POPC   C2B  635   8.948   8.135   6.853
   17POPC   C3B  636   8.986   7.938   6.444
   17POPC   C4B  637   8.922   7.509   6.298
   18POPC   NC3  638   2.841  10.065   8.409
   18POPC   PO4  639   3.045   0.055   7.953
   18POPC   GL1  640   3.312  10.363   7.636
   18POPC   GL2  641   3.528  10.109   7.776
   18POPC   C1A  642   3.531  10.309   7.237
   18POPC   D2A  643   3.441  10.166   6.800
   18POPC   C3A  644   3.606  10.404   6.407
   18POPC   C4A  645   3.415  10.331   5.961
   18POPC   C1B  646   3.818   9.906   7.467
   18POPC   C2B  647   3.838   9.857   7.027
   18POPC   C3B  648   3.827   9.935   6.594
   18POPC   C4B  649   3.549   9.931   6.242
   19POPC   NC3  650   9.687   8.261   8.070
   19POPC   PO4  651   9.373   7.753   8.435
   19POPC   GL1  652   9.509   7.758   7.901
   19POPC   GL2  653   9.480   8.031   7.670
   19POPC   C1A  654   9.395   7.587   7.463
   19POPC   D2A  655   9.217   7.513   7.006
   19POPC   C3A  656   9.406   7.674   6.600
   19POPC   C4A  657   9.340   7.774   6.124
   19POPC   C1B  658   9.569   8.191   7.304
   19POPC   C2B  659   9.447   8.066   6.916
   19POPC   C3B  660   9.470   8.166   6.472
   19POPC   C4B  661   9.725   8.096   6.104
   20POPC   NC3  662   8.375   9.224   8.206
   20POPC   PO4  663   8.951   8.980   8.037
   20POPC   GL1  664   8.617   9.087   7.718
   20POPC   GL2  665   8.473   9.428   7.711
   20POPC   C1A  666   8.557   9.186   7.246
   20POPC   D2A  667   8.729   9.115   6.840
   20POPC   C3A  668   8.558   9.143   6.447
   20POPC   C4A  669   8.807   9.150   6.095
   20POPC   C1B  670   8.858   9.529   7.460
   20POPC   C2B  671   8.895   9.578   7.008
   20POPC   C3B  672   8.581   9.600   6.681
   20POPC   C4B  673   8.657   9.616   6.244
   21POPC   NC3  674   9.424   4.603   8.521
   21POPC   PO4  675   9.401   4.466   7.898
   21POPC   GL1  676   9.492   4.756   7.637
   21POPC   GL2  677   9.511   5.052   7.823
   21POPC   C1A  678   9.495   4.746   7.203
   21POPC   D2A  679   9.208   4.793   6.916
   21POPC   C3A  680   9.314   4.730   6.511
   21POPC   C4A  681   9.003   4.654   6.221
   21POPC   C1B  682   9.652   5.205   7.421
   21POPC   C2B  683   9.421   5.290   7.068
   21POPC   C3B  684   9.293   5.240   6.678
   21POPC   C4B  685   9.445   5.184   6.297
   22POPC   NC3  686   0.836   0.891   8.184
   22POPC   PO4  687   1.402   0.777   8.049
   22POPC   GL1  688   1.166   0.884   7.702
   22POPC   GL2  689   1.026   1.198   7.785
   22POPC   C1A  690   1.212   1.053   7.280
   22POPC   D2A  691   1.384   1.116   6.894
   22POPC   C3A  692   1.198   0.904   6.587
   22POPC   C4A  693   1.180   1.083   6.205
   22POPC   C1B  694   1.315   1.463   7.541
   22POPC   C2B  695   1.254   1.585   7.107
   22POPC   C3B  696   1.077   1.496   6.693
   22POPC   C4B  697   1.378   1.519   6.372
   23POPC   NC3  698   6.899   8.722   8.158
   23POPC   PO4  699   7.309   9.224   8.187
   23POPC   GL1  700   7.073   9.063   7.823
   23POPC   GL2  701   7.255   8.734   7.754
   23POPC   C1A  702   7.188   9.052   7.376
   23POPC   D2A  703   7.123   8.811   6.985
   23POPC   C3A  704   7.249   8.908   6.549
   23POPC   C4A  705   7.040   8.806   6.157
   23POPC   C1B  706   7.051   8.510   7.407
   23POPC   C2B  707   7.157   8.273   7.033
   23POPC   C3B  708   7.074   8.435   6.623
   23POPC   C4B  709   6.920   8.331   6.217
   24POPC   NC3  710   0.021   6.433   8.180
   24POPC   PO4  711   9.898   6.385   8.136
   24POPC   GL1  712   9.856   6.462   7.716
   24POPC   GL2  713  10.169   6.320   7.690
   24POPC   C1A  714   9.852   6.245   7.285
   24POPC   D2A  715  10.023   6.360   6.882
   24POPC   C3A  716   9.798   6.361   6.512
   24POPC   C4A  717   9.785   6.081   6.200
   24POPC   C1B  718  10.368   6.360   7.294
   24POPC   C2B  719   0.004   6.465   6.867
   24POPC   C3B  720  10.324   6.389   6.432
   24POPC   C4B  721  10.452   6.566   6.023
   25POPC   NC3  722   5.360   0.372   8.226
   25POPC   PO4  723   4.655   0.185   8.201
   25POPC   GL1  724   4.855   0.393   7.809
   25POPC   GL2  725   4.963   0.748   7.748
   25POPC   C1A  726   4.995   0.264   7.363
   25POPC   D2A  727   5.117   0.428   6.951
   25POPC   C3A  728   4.997   0.156   6.601
   25POPC   C4A  729   5.149   0.108   6.195
   25POPC   C1B  730   4.685   0.664   7.418
   25POPC   C2B  731   4.629   0.613   6.986
   25POPC   C3B  732   4.783   0.620   6.559
   25POPC   C4B  733   4.966   0.595   6.160
   26POPC   NC3  734   5.923   1.238   8.029
   26POPC   PO4  735   5.411   0.817   8.034
   26POPC   GL1  736   5.401   1.000   7.596
   26POPC   GL2  737   5.474   1.363   7.627
   26POPC   C1A  738   5.429   1.134   7.124
   26POPC   D2A  739   5.762   1.242   6.768
   26POPC   C3A  740   5.596   1.040   6.378
   26POPC   C4A  741   5.398   0.844   6.034
   26POPC   C1B  742   5.703   1.521   7.231
   26POPC   C2B  743   5.509   1.699   6.851
   26POPC   C3B  744   5.453   1.567   6.446
   26POPC   C4B  745   5.836   1.448   6.224
   27POPC   NC3  746   9.425   5.142   8.326
   27POPC   PO4  747   9.557   5.828   8.203
   27POPC   GL1  748   9.455   5.745   7.746
   27POPC   GL2  749   9.656   6.011   7.706
   27POPC   C1A  750   9.401   5.803   7.257
   27POPC   D2A  751   9.474   6.077   6.895
   27POPC   C3A  752   9.235   5.947   6.531
   27POPC   C4A  753   9.330   5.920   6.118
   27POPC   C1B  754   9.846   5.706   7.440
   27POPC   C2B  755   9.837   5.642   6.990
   27POPC   C3B  756   9.635   5.635   6.595
   27POPC   C4B  757   9.713   5.579   6.166
   28POPC   NC3  758   5.318   9.118   7.934
   28POPC   PO4  759   5.693   9.694   7.982
   28POPC   GL1  760   5.585   9.458   7.678
   28POPC   GL2  761   5.880   9.401   7.528
   28POPC   C1A  762   5.389   9.327   7.286
   28POPC   D2A  763   5.183   9.454   6.914
   28POPC   C3A  764   5.365   9.336   6.520
   28POPC   C4A  765   5.433   9.543   6.133
   28POPC   C1B  766   5.795   9.687   7.273
   28POPC   C2B  767   5.611   9.800   6.907
   28POPC   C3B  768   5.752   9.663   6.510
   28POPC   C4B  769   5.960   9.430   6.198
   29POPC   NC3  770   9.572   2.611   8.176
   29POPC   PO4  771   9.714   3.224   8.145
   29POPC   GL1  772   9.618   2.945   7.771
   29POPC   GL2  773   9.266   2.787   7.745
   29POPC   C1A  774   9.611   2.702   7.377
   29POPC   D2A  775   9.279   2.773   7.052
   29POPC   C3A  776   9.432   2.854   6.635
   29POPC   C4A  777   9.632   2.589   6.320
   29POPC   C1B  778   9.185   2.419   7.451
   29POPC   C2B  779   9.121   2.284   7.048
   29POPC   C3B  780   9.264   2.361   6.640
   29POPC   C4B  781   9.161   2.384   6.219
   30POPC   NC3  782   2.654   3.428   8.495
   30POPC   PO4  783   2.285   3.173   8.109
   30POPC   GL1  784   2.319   3.419   7.745
   30POPC   GL2  785   2.312   3.151   7.531
   30POPC   C1A  786   2.566   3.558   7.359
   30POPC   D2A  787   2.733   3.359   6.979
   30POPC   C3A  788   2.583   3.464   6.546
   30POPC   C4A  789   2.427   3.463   6.114
   30POPC   C1B  790   2.789   3.099   7.469
   30POPC   C2B  791   2.983   2.922   7.084
   30POPC   C3B  792   2.968   3.043   6.637
   30POPC   C4B  793   3.149   3.242   6.266
   31POPC   NC3  794   4.670  10.161   8.363
   31POPC   PO4  795   4.186   9.805   8.125
   31POPC   GL1  796   4.473   9.920   7.823
   31POPC   GL2  797   4.407  10.245   7.705
   31POPC   C1A  798   4.403   9.841   7.377
   31POPC   D2A  799   4.336  10.027   6.957
   31POPC   C3A  800   4.312   9.828   6.572
   31POPC   C4A  801   4.420   9.985   6.175
   31POPC   C1B  802   4.132  10.290   7.338
   31POPC   C2B  803   3.936  10.365   6.923
   31POPC   C3B  804   4.157  10.318   6.546
   31POPC   C4B  805   4.175   0.020   6.184
   32POPC   NC3  806   2.773   5.322   8.591
   32POPC   PO4  807   2.302   5.244   8.165
   32POPC   GL1  808   2.389   5.354   7.670
   32POPC   GL2  809   2.398   5.727   7.622
   32POPC   C1A  810   2.563   5.440   7.217
   32POPC   D2A  811   2.673   5.620   6.797
   32POPC   C3A  812   2.863   5.410   6.395
   32POPC   C4A  813   3.106   5.511   5.981
   32POPC   C1B  814   2.427   5.944   7.188
   32POPC   C2B  815   2.255   5.941   6.751
   32POPC   C3B  816   2.421   5.719   6.372
   32POPC   C4B  817   2.395   5.883   5.933
   33POPC   NC3  818   5.645  10.141   8.137
   33POPC   PO4  819   6.262  10.087   7.913
   33POPC   GL1  820   5.922  10.044   7.630
   33POPC   GL2  821   5.582  10.143   7.654
   33POPC   C1A  822   5.816  10.179   7.221
   33POPC   D2A  823   5.963  10.377   6.899
   33POPC   C3A  824   5.875  10.143   6.571
   33POPC   C4A  825   6.026  10.169   6.159
   33POPC   C1B  826   5.299  10.319   7.350
   33POPC   C2B  827   5.429  10.308   6.922
   33POPC   C3B  828   5.403  10.331   6.516
   33POPC   C4B  829   5.530  10.128   6.149
   34POPC   NC3  830   6.168   9.640   7.859
   34POPC   PO4  831   6.556   9.131   8.150
   34POPC   GL1  832   6.454   9.226   7.702
   34POPC   GL2  833   6.750   9.380   7.565
   34POPC   C1A  834   6.309   9.329   7.248
   34POPC   D2A  835   6.117   9.574   6.908
   34POPC   C3A  836   6.250   9.321   6.594
   34POPC   C4A  837   6.496   9.410   6.211
   34POPC   C1B  838   6.650   9.667   7.211
   34POPC   C2B  839   6.610   9.602   6.795
   34POPC   C3B  840   6.758   9.769   6.463
   34POPC   C4B  841   6.954   9.803   6.108
   35POPC   NC3  842   0.574   1.791   7.905
   35POPC   PO4  843  10.417   1.706   8.040
   35POPC   GL1  844   0.112   1.665   7.701
   35POPC   GL2  845   0.175   1.946   7.600
   35POPC   C1A  846   0.271   1.548   7.309
   35POPC   D2A  847   0.519   1.634   6.968
   35POPC   C3A  848   0.488   1.513   6.583
   35POPC   C4A  849   0.403   1.683   6.210
   35POPC   C1B  850   0.484   2.032   7.314
   35POPC   C2B  851   0.394   2.156   6.934
   35POPC   C3B  852   0.281   2.026   6.560
   35POPC   C4B  853   0.549   2.165   6.208
   36POPC   NC3  854   3.488   1.014   8.183
   36POPC   PO4  855   3.285   1.511   7.839
   36POPC   GL1  856   3.483   1.212   7.643
   36POPC   GL2  857   3.476   0.863   7.675
   36POPC   C1A  858   3.266   1.119   7.276
   36POPC   D2A  859   2.993   1.024   6.965
   36POPC   C3A  860   3.233   1.214   6.617
   36POPC   C4A  861   3.137   1.337   6.204
   36POPC   C1B  862   3.759   0.938   7.299
   36POPC   C2B  863   3.838   1.231   7.006
   36POPC   C3B  864   3.860   1.117   6.623
   36POPC   C4B  865   3.631   1.202   6.261
   37POPC   NC3  866   9.797   4.258   8.043
   37POPC   PO4  867   0.001   4.395   8.016
   37POPC   GL1  868  10.319   4.448   7.687
   37POPC   GL2  869  10.081   4.182   7.626
   37POPC   C1A  870  10.407   4.448   7.290
   37POPC   D2A  871  10.138   4.459   6.987
   37POPC   C3A  872  10.368   4.491   6.653
   37POPC   C4A  873  10.234   4.602   6.254
   37POPC   C1B  874  10.289   3.946   7.303
   37POPC   C2B  875  10.147   3.945   6.912
   37POPC   C3B  876   9.992   4.180   6.581
   37POPC   C4B  877  10.097   4.113   6.150
   38POPC   NC3  878   7.565   0.123   7.864
   38POPC   PO4  879   7.644   0.771   7.982
   38POPC   GL1  880   7.841   0.514   7.684
   38POPC   GL2  881   7.978   0.155   7.579
   38POPC   C1A  882   7.874   0.588   7.278
   38POPC   D2A  883   7.866   0.862   6.973
   38POPC   C3A  884   7.788   0.685   6.607
   38POPC   C4A  885   7.960   0.754   6.239
   38POPC   C1B  886   8.001   0.105   7.160
   38POPC   C2B  887   7.711   0.239   6.856
   38POPC   C3B  888   7.936   0.198   6.490
   38POPC   C4B  889   7.926   0.273   6.054
   39POPC   NC3  890   8.128   1.822   8.077
   39POPC   PO4  891   7.521   1.638   8.225
   39POPC   GL1  892   7.683   1.721   7.819
   39POPC   GL2  893   7.730   2.082   7.805
   39POPC   C1A  894   7.714   1.632   7.375
   39POPC   D2A  895   7.926   1.717   6.979
   39POPC   C3A  896   7.657   1.776   6.620
   39POPC   C4A  897   7.594   1.710   6.188
   39POPC   C1B  898   7.992   2.054   7.440
   39POPC   C2B  899   8.236   2.119   7.052
   39POPC   C3B  900   8.048   2.106   6.628
   39POPC   C4B  901   7.896   2.153   6.202
   40POPC   NC3  902  10.325   7.846   7.961
   40POPC   PO4  903   9.867   7.376   8.002
   40POPC   GL1  904   9.924   7.608   7.610
   40POPC   GL2  905   9.976   7.964   7.600
   40POPC   C1A  906   9.795   7.711   7.168
   40POPC   D2A  907   9.962   7.968   6.827
   40POPC   C3A  908  10.031   7.813   6.405
   40POPC   C4A  909  10.407   7.778   6.106
   40POPC   C1B  910  10.296   7.831   7.277
   40POPC   C2B  911  10.480   7.851   6.854
   40POPC   C3B  912  10.400   8.153   6.529
   40POPC   C4B  913  10.218   8.253   6.131
   41POPC   NC3  914   2.127   4.782   8.053
   41POPC   PO4  915   1.638   5.292   8.014
   41POPC   GL1  916   1.863   5.261   7.592
   41POPC   GL2  917   1.800   4.933   7.534
   41POPC   C1A  918   2.197   5.093   7.263
   41POPC   D2A  919   2.192   4.958   6.799
   41POPC   C3A  920   2.392   5.165   6.417
   41POPC   C4A  921   2.285   4.971   6.003
   41POPC   C1B  922   1.741   5.190   7.102
   41POPC   C2B  923   1.699   5.113   6.661
   41POPC   C3B  924   1.920   4.885   6.342
   41POPC   C4B  925   1.790   4.646   5.953
   42POPC   NC3  926   7.716   8.434   8.090
   42POPC   PO4  927   8.307   8.394   8.376
   42POPC   GL1  928   8.171   8.428   7.831
   42POPC   GL2  929   7.866   8.653   7.655
   42POPC   C1A  930   8.114   8.361   7.340
   42POPC   D2A  931   7.901   8.492   6.935
   42POPC   C3A  932   7.938   8.301   6.516
   42POPC   C4A  933   8.165   8.390   6.131
   42POPC   C1B  934   7.624   8.807   7.271
   42POPC   C2B  935   7.760   8.961   6.846
   42POPC   C3B  936   7.747   8.847   6.420
   42POPC   C4B  937   7.516   8.980   6.038
   43POPC   NC3  938   1.112   5.942   8.026
   43POPC   PO4  939   1.198   6.617   8.090
   43POPC   GL1  940   1.338   6.307   7.768
   43POPC   GL2  941   1.058   6.233   7.599
   43POPC   C1A  942   1.490   6.125   7.387
   43POPC   D2A  943   1.262   6.161   7.028
   43POPC   C3A  944   1.453   6.330   6.675
   43POPC   C4A  945   1.488   6.162   6.268
   43POPC   C1B  946   1.145   6.601   7.375
   43POPC   C2B  947   1.173   6.833   7.009
   43POPC   C3B  948   1.258   6.921   6.581
   43POPC   C4B  949   1.161   6.584   6.316
   44POPC   NC3  950   1.430   3.189   8.399
   44POPC   PO4  951   0.870   3.007   8.047
   44POPC   GL1  952   1.141   3.205   7.694
   44POPC   GL2  953   1.248   3.572   7.745
   44POPC   C1A  954   1.205   3.330   7.264
   44POPC   D2A  955   1.145   3.582   6.914
   44POPC   C3A  956   1.245   3.316   6.622
   44POPC   C4A  957   1.049   3.271   6.262
   44POPC   C1B  958   1.459   3.774   7.368
   44POPC   C2B  959   1.651   3.550   7.017
   44POPC   C3B  960   1.596   3.688   6.615
   44POPC   C4B  961   1.406   3.617   6.233
   45POPC   NC3  962   1.173   9.475   7.878
   45POPC   PO4  963   0.767   8.965   8.145
   45POPC   GL1  964   0.807   9.131   7.673
   45POPC   GL2  965   0.971   9.463   7.435
   45POPC   C1A  966   0.756   9.085   7.223
   45POPC   D2A  967   1.067   9.325   6.954
   45POPC   C3A  968   0.889   9.451   6.589
   45POPC   C4A  969   0.876   9.182   6.251
   45POPC   C1B  970   1.360   9.618   7.281
   45POPC   C2B  971   1.495   9.722   6.898
   45POPC   C3B  972   1.403   9.505   6.560
   45POPC   C4B  973   1.235   9.504   6.189
   46POPC   NC3  974   8.805   2.442   8.388
   46POPC   PO4  975   8.396   2.987   8.219
   46POPC   GL1  976   8.436   2.842   7.760
   46POPC   GL2  977   8.750   2.617   7.741
   46POPC   C1A  978   8.320   2.870   7.292
   46POPC   D2A  979   8.545   2.959   6.902
   46POPC   C3A  980   8.367   2.999   6.494
   46POPC   C4A  981   8.574   2.989   6.120
   46POPC   C1B  982   8.781   2.662   7.280
   46POPC   C2B  983   8.636   2.449   6.902
   46POPC   C3B  984   8.710   2.607   6.490
   46POPC   C4B  985   9.036   2.871   6.315
   47POPC   NC3  986   0.477   8.597   8.057
   47POPC   PO4  987   0.078   9.134   8.093
   47POPC   GL1  988   0.112   8.789   7.738
   47POPC   GL2  989   0.470   8.728   7.541
   47POPC   C1A  990   0.051   8.444   7.435
   47POPC   D2A  991   0.059   8.355   6.999
   47POPC   C3A  992   0.258   8.617   6.680
   47POPC   C4A  993   0.136   8.532   6.235
   47POPC   C1B  994   0.592   8.622   7.081
   47POPC   C2B  995   0.805   8.402   6.724
   47POPC   C3B  996   0.856   8.695   6.393
   47POPC   C4B  997   0.483   8.876   6.193
   48POPC   NC3  998   2.778   0.458   8.076
   48POPC   PO4  999   2.561  10.350   8.156
   48POPC   GL1 1000   2.551   0.194   7.733
   48POPC   GL2 1001   2.608   0.563   7.620
   48POPC   C1A 1002   2.470   0.200   7.284
   48POPC   D2A 1003   2.515   0.466   6.924
   48POPC   C3A 1004   2.703   0.323   6.541
   48POPC   C4A 1005   2.493   0.367   6.158
   48POPC   C1B 1006   2.864   0.602   7.266
   48POPC   C2B 1007   3.039   0.519   6.869
   48POPC   C3B 1008   3.042   0.751   6.540
   48POPC   C4B 1009   2.896   0.676   6.189
   49POPC   NC3 1010   9.867   0.375   8.325
   49POPC   PO4 1011   9.656   0.815   7.832
   49POPC   GL1 1012   9.569   0.469   7.602
   49POPC   GL2 1013   9.221   0.392   7.612
   49POPC   C1A 1014   9.486   0.305   7.191
   49POPC   D2A 1015   9.135   0.170   6.931
   49POPC   C3A 1016   9.356   0.236   6.542
   49POPC   C4A 1017   9.671   0.206   6.194
   49POPC   C1B 1018   9.290   0.760   7.291
   49POPC   C2B 1019   9.217   0.686   6.892
   49POPC   C3B 1020   9.304   0.815   6.496
   49POPC   C4B 1021   9.371   0.605   6.185
   50POPC   NC3 1022   3.948   1.086   7.871
   50POPC   PO4 1023   4.570   1.181   8.185
   50POPC   GL1 1024   4.524   1.040   7.779
   50POPC   GL2 1025   4.337   0.754   7.782
   50POPC   C1A 1026   4.442   1.101   7.334
   50POPC   D2A 1027   4.367   1.335   6.954
   50POPC   C3A 1028   4.378   1.235   6.540
   50POPC   C4A 1029   4.361   1.503   6.174
   50POPC   C1B 1030   4.180   0.652   7.368
   50POPC   C2B 1031   4.175   0.844   6.972
   50POPC   C3B 1032   4.233   0.725   6.577
   50POPC   C4B 1033   4.104   0.944   6.217
   51POPC   NC3 1034   3.194   2.739   8.011
   51POPC   PO4 1035   3.762   2.773   8.097
   51POPC   GL1 1036   3.632   2.748   7.650
   51POPC   GL2 1037   3.418   2.443   7.640
   51POPC   C1A 1038   3.639   2.939   7.194
   51POPC   D2A 1039   3.449   2.980   6.766
   51POPC   C3A 1040   3.639   3.025   6.344
   51POPC   C4A 1041   3.516   3.150   5.895
   51POPC   C1B 1042   3.293   2.527   7.204
   51POPC   C2B 1043   3.142   2.549   6.776
   51POPC   C3B 1044   3.326   2.626   6.386
   51POPC   C4B 1045   3.221   2.337   6.040
   52POPC   NC3 1046   2.518   1.175   7.999
   52POPC   PO4 1047   2.893   1.634   8.361
   52POPC   GL1 1048   2.776   1.587   7.831
   52POPC   GL2 1049   2.900   1.235   7.653
   52POPC   C1A 1050   2.649   1.555   7.330
   52POPC   D2A 1051   2.861   1.500   6.883
   52POPC   C3A 1052   2.732   1.208   6.512
   52POPC   C4A 1053   2.570   1.358   6.093
   52POPC   C1B 1054   2.611   1.031   7.340
   52POPC   C2B 1055   2.419   0.985   6.910
   52POPC   C3B 1056   2.469   0.777   6.514
   52POPC   C4B 1057   2.430   0.876   6.094
   53POPC   NC3 1058   3.455   7.928   8.071
   53POPC   PO4 1059   3.906   8.447   8.036
   53POPC   GL1 1060   3.665   8.329   7.634
   53POPC   GL2 1061   3.343   8.152   7.645
   53POPC   C1A 1062   3.528   8.243   7.181
   53POPC   D2A 1063   3.414   8.307   6.766
   53POPC   C3A 1064   3.485   8.025   6.411
   53POPC   C4A 1065   3.286   8.085   6.014
   53POPC   C1B 1066   3.281   7.825   7.341
   53POPC   C2B 1067   3.361   7.799   6.889
   53POPC   C3B 1068   3.175   7.611   6.509
   53POPC   C4B 1069   3.158   7.603   6.064
   54POPC   NC3 1070   3.612   8.811   7.948
   54POPC   PO4 1071   3.043   8.986   7.985
   54POPC   GL1 1072   3.047   8.920   7.572
   54POPC   GL2 1073   3.250   8.648   7.584
   54POPC   C1A 1074   2.963   8.684   7.170
   54POPC   D2A 1075   3.246   8.774   6.873
   54POPC   C3A 1076   3.204   8.683   6.477
   54POPC   C4A 1077   3.219   8.956   6.135
   54POPC   C1B 1078   3.591   8.743   7.258
   54POPC   C2B 1079   3.788   8.658   6.820
   54POPC   C3B 1080   3.683   8.497   6.382
   54POPC   C4B 1081   3.515   8.566   5.938
   55POPC   NC3 1082   1.358   4.146   8.118
   55POPC   PO4 1083   0.958   4.579   8.071
   55POPC   GL1 1084   0.911   4.360   7.693
   55POPC   GL2 1085   1.052   4.050   7.713
   55POPC   C1A 1086   1.159   4.398   7.297
   55POPC   D2A 1087   1.270   4.568   6.871
   55POPC   C3A 1088   1.012   4.504   6.536
   55POPC   C4A 1089   1.075   4.396   6.135
   55POPC   C1B 1090   0.986   3.919   7.284
   55POPC   C2B 1091   1.327   4.055   6.942
   55POPC   C3B 1092   1.246   4.045   6.498
   55POPC   C4B 1093   0.922   3.750   6.382
   56POPC   NC3 1094   9.061   8.524   8.040
   56POPC   PO4 1095   9.640   8.792   8.043
   56POPC   GL1 1096   9.478   8.581   7.679
   56POPC   GL2 1097   9.230   8.815   7.639
   56POPC   C1A 1098   9.508   8.710   7.221
   56POPC   D2A 1099   9.289   8.556   6.820
   56POPC   C3A 1100   9.496   8.676   6.473
   56POPC   C4A 1101   9.477   8.544   6.062
   56POPC   C1B 1102   9.116   9.087   7.308
   56POPC   C2B 1103   9.228   9.052   6.886
   56POPC   C3B 1104   9.080   8.963   6.477
   56POPC   C4B 1105   9.302   9.027   6.078
   57POPC   NC3 1106   1.087   7.849   8.145
   57POPC   PO4 1107   1.414   8.292   7.827
   57POPC   GL1 1108   1.258   7.944   7.651
   57POPC   GL2 1109   0.890   7.930   7.681
   57POPC   C1A 1110   1.388   7.993   7.235
   57POPC   D2A 1111   1.505   7.754   6.924
   57POPC   C3A 1112   1.345   7.889   6.562
   57POPC   C4A 1113   1.535   7.837   6.208
   57POPC   C1B 1114   0.862   7.774   7.285
   57POPC   C2B 1115   0.969   7.920   6.913
   57POPC   C3B 1116   0.809   7.892   6.525
   57POPC   C4B 1117   0.994   7.960   6.169
   58POPC   NC3 1118   2.084   7.315   8.014
   58POPC   PO4 1119   1.458   7.581   8.031
   58POPC   GL1 1120   1.611   7.292   7.679
   58POPC   GL2 1121   1.921   7.277   7.543
   58POPC   C1A 1122   1.557   7.082   7.270
   58POPC   D2A 1123   1.772   7.304   6.922
   58POPC   C3A 1124   1.643   7.240   6.481
   58POPC   C4A 1125   1.701   6.809   6.262
   58POPC   C1B 1126   2.324   7.311   7.368
   58POPC   C2B 1127   2.401   7.419   6.945
   58POPC   C3B 1128   2.140   7.467   6.600
   58POPC   C4B 1129   2.084   7.211   6.216
   59POPC   NC3 1130   6.910   9.455   8.186
   59POPC   PO4 1131   7.521   9.848   8.112
   59POPC   GL1 1132   7.216   9.627   7.797
   59POPC   GL2 1133   7.442   9.375   7.683
   59POPC   C1A 1134   7.136   9.566   7.321
   59POPC   D2A 1135   6.920   9.292   7.028
   59POPC   C3A 1136   7.010   9.348   6.605
   59POPC   C4A 1137   7.028   9.301   6.173
   59POPC   C1B 1138   7.624   9.337   7.305
   59POPC   C2B 1139   7.410   9.296   6.954
   59POPC   C3B 1140   7.534   9.337   6.578
   59POPC   C4B 1141   7.525   9.451   6.224
   60POPC   NC3 1142   0.544   7.564   7.858
   60POPC   PO4 1143   0.654   8.174   8.075
   60POPC   GL1 1144   0.448   8.221   7.698
   60POPC   GL2 1145   0.212   7.951   7.630
   60POPC   C1A 1146   0.543   8.180   7.287
   60POPC   D2A 1147   0.458   8.054   6.884
   60POPC   C3A 1148   0.402   8.184   6.488
   60POPC   C4A 1149   0.622   8.322   6.176
   60POPC   C1B 1150   0.315   7.716   7.248
   60POPC   C2B 1151   0.470   7.564   6.843
   60POPC   C3B 1152   0.279   7.702   6.453
   60POPC   C4B 1153   0.470   7.867   6.064
   61POPC   NC3 1154   2.670   1.986   8.181
   61POPC   PO4 1155   2.063   2.211   8.272
   61POPC   GL1 1156   2.331   2.208   7.791
   61POPC   GL2 1157   2.676   2.100   7.691
   61POPC   C1A 1158   2.405   2.052   7.279
   61POPC   D2A 1159   2.594   1.919   6.835
   61POPC   C3A 1160   2.470   2.165   6.418
   61POPC   C4A 1161   2.325   2.189   5.931
   61POPC   C1B 1162   2.974   1.954   7.378
   61POPC   C2B 1163   3.109   2.072   6.962
   61POPC   C3B 1164   3.000   2.070   6.539
   61POPC   C4B 1165   2.782   1.706   6.387
   62POPC   NC3 1166   4.179   2.589   8.099
   62POPC   PO4 1167   4.579   3.092   7.924
   62POPC   GL1 1168   4.346   2.790   7.598
   62POPC   GL2 1169   4.107   2.485   7.602
   62POPC   C1A 1170   4.191   2.745   7.140
   62POPC   D2A 1171   3.980   2.951   6.780
   62POPC   C3A 1172   4.163   2.985   6.363
   62POPC   C4A 1173   3.990   2.968   5.952
   62POPC   C1B 1174   3.787   2.457   7.261
   62POPC   C2B 1175   3.677   2.535   6.821
   62POPC   C3B 1176   3.890   2.560   6.410
   62POPC   C4B 1177   4.351   2.476   6.302
   63POPC   NC3 1178   2.807   8.598   7.999
   63POPC   PO4 1179   2.315   9.086   8.099
   63POPC   GL1 1180   2.548   8.960   7.735
   63POPC   GL2 1181   2.621   8.626   7.548
   63POPC   C1A 1182   2.633   9.066   7.327
   63POPC   D2A 1183   2.522   8.877   6.979
   63POPC   C3A 1184   2.741   8.880   6.606
   63POPC   C4A 1185   2.592   8.883   6.206
   63POPC   C1B 1186   2.494   8.387   7.197
   63POPC   C2B 1187   2.630   8.402   6.789
   63POPC   C3B 1188   2.669   8.418   6.374
   63POPC   C4B 1189   2.993   8.493   6.069
   64POPC   NC3 1190   5.799   0.512   7.958
   64POPC   PO4 1191   5.291  10.441   8.038
   64POPC   GL1 1192   5.528   0.145   7.726
   64POPC   GL2 1193   5.392   0.466   7.636
   64POPC   C1A 1194   5.677   0.159   7.286
   64POPC   D2A 1195   5.600   0.261   6.850
   64POPC   C3A 1196   5.803   0.139   6.470
   64POPC   C4A 1197   5.661   0.131   6.020
   64POPC   C1B 1198   5.637   0.666   7.266
   64POPC   C2B 1199   5.566   0.754   6.817
   64POPC   C3B 1200   5.430   0.530   6.442
   64POPC   C4B 1201   5.811   0.587   6.213
   65POPC   NC3 1202   8.938   4.375   7.907
   65POPC   PO4 1203   9.472   4.108   8.347
   65POPC   GL1 1204   9.367   3.980   7.841
   65POPC   GL2 1205   9.640   3.856   7.672
   65POPC   C1A 1206   9.396   4.190   7.346
   65POPC   D2A 1207   9.488   4.328   6.889
   65POPC   C3A 1208   9.117   4.264   6.618
   65POPC   C4A 1209   9.199   4.128   6.216
   65POPC   C1B 1210   9.752   3.835   7.225
   65POPC   C2B 1211   9.656   3.815   6.782
   65POPC   C3B 1212   9.631   3.922   6.358
   65POPC   C4B 1213   9.636   4.388   6.289
   66POPC   NC3 1214   1.425  10.180   8.233
   66POPC   PO4 1215   0.893   0.014   8.113
   66POPC   GL1 1216   1.187  10.372   7.768
   66POPC   GL2 1217   1.301  10.008   7.741
   66POPC   C1A 1218   1.349  10.470   7.357
   66POPC   D2A 1219   1.307  10.218   6.940
   66POPC   C3A 1220   1.422  10.402   6.601
   66POPC   C4A 1221   1.340  10.371   6.199
   66POPC   C1B 1222   1.072  10.026   7.356
   66POPC   C2B 1223   0.967   9.843   6.929
   66POPC   C3B 1224   1.076   9.950   6.475
   66POPC   C4B 1225   1.150   9.954   6.006
   67POPC   NC3 1226  10.261   1.282   8.178
   67POPC   PO4 1227   0.504   1.213   8.146
   67POPC   GL1 1228   0.267   1.190   7.760
   67POPC   GL2 1229   0.549   1.320   7.646
   67POPC   C1A 1230   0.240   1.040   7.324
   67POPC   D2A 1231   0.064   1.247   6.966
   67POPC   C3A 1232   0.196   1.096   6.590
   67POPC   C4A 1233   0.314   1.041   6.182
   67POPC   C1B 1234   0.817   1.412   7.323
   67POPC   C2B 1235   0.804   1.160   6.955
   67POPC   C3B 1236   0.711   1.044   6.537
   67POPC   C4B 1237   0.748   1.319   6.184
   68POPC   NC3 1238   8.747   6.558   7.876
   68POPC   PO4 1239   8.705   5.927   7.704
   68POPC   GL1 1240   8.862   6.223   7.455
   68POPC   GL2 1241   8.988   6.625   7.455
   68POPC   C1A 1242   8.833   6.085   7.031
   68POPC   D2A 1243   8.567   6.128   6.684
   68POPC   C3A 1244   8.761   6.030   6.324
   68POPC   C4A 1245   8.946   6.176   5.967
   68POPC   C1B 1246   8.642   6.550   7.168
   68POPC   C2B 1247   8.682   6.643   6.737
   68POPC   C3B 1248   8.562   6.542   6.326
   68POPC   C4B 1249   8.399   6.851   5.981
   69POPC   NC3 1250   7.723   9.430   8.083
   69POPC   PO4 1251   8.122   8.877   8.048
   69POPC   GL1 1252   8.015   9.163   7.691
   69POPC   GL2 1253   7.961   9.541   7.660
   69POPC   C1A 1254   8.056   9.069   7.251
   69POPC   D2A 1255   8.226   9.214   6.842
   69POPC   C3A 1256   8.035   9.284   6.436
   69POPC   C4A 1257   8.271   9.356   6.050
   69POPC   C1B 1258   8.131   9.571   7.267
   69POPC   C2B 1259   7.873   9.565   6.902
   69POPC   C3B 1260   7.797   9.813   6.551
   69POPC   C4B 1261   7.942   9.734   6.149
   70POPC   NC3 1262   1.219   4.969   8.094
   70POPC   PO4 1263   1.704   4.442   8.159
   70POPC   GL1 1264   1.413   4.617   7.728
   70POPC   GL2 1265   1.102   4.822   7.645
   70POPC   C1A 1266   1.390   4.859   7.266
   70POPC   D2A 1267   1.264   5.128   6.943
   70POPC   C3A 1268   1.203   5.006   6.553
   70POPC   C4A 1269   1.419   4.747   6.276
   70POPC   C1B 1270   0.850   4.807   7.309
   70POPC   C2B 1271   0.820   4.825   6.913
   70POPC   C3B 1272   0.704   4.901   6.524
   70POPC   C4B 1273   0.929   4.883   6.141
   71POPC   NC3 1274  10.434   2.218   7.939
   71POPC   PO4 1275   9.844   2.251   8.309
   71POPC   GL1 1276   9.902   2.173   7.837
   71POPC   GL2 1277  10.087   1.907   7.718
   71POPC   C1A 1278  10.023   2.253   7.362
   71POPC   D2A 1279  10.274   2.265   6.969
   71POPC   C3A 1280  10.251   2.039   6.594
   71POPC   C4A 1281  10.454   1.940   6.190
   71POPC   C1B 1282  10.270   1.790   7.322
   71POPC   C2B 1283   0.008   1.788   6.954
   71POPC   C3B 1284  10.468   1.578   6.579
   71POPC   C4B 1285  10.467   1.424   6.192
   72POPC   NC3 1286   7.389   1.354   8.562
   72POPC   PO4 1287   7.170   0.934   8.129
   72POPC   GL1 1288   7.180   0.994   7.677
   72POPC   GL2 1289   6.977   1.291   7.747
   72POPC   C1A 1290   6.954   1.000   7.285
   72POPC   D2A 1291   6.721   1.085   6.911
   72POPC   C3A 1292   6.963   1.083   6.550
   72POPC   C4A 1293   6.998   0.924   6.128
   72POPC   C1B 1294   7.205   1.458   7.413
   72POPC   C2B 1295   7.179   1.369   6.995
   72POPC   C3B 1296   7.239   1.492   6.589
   72POPC   C4B 1297   7.234   1.358   6.175
   73POPC   NC3 1298  10.465   3.947   7.926
   73POPC   PO4 1299   0.628   3.936   8.010
   73POPC   GL1 1300   0.518   4.033   7.628
   73POPC   GL2 1301   0.326   4.325   7.598
   73POPC   C1A 1302   0.335   3.923   7.247
   73POPC   D2A 1303   0.121   4.139   6.937
   73POPC   C3A 1304  10.492   4.013   6.534
   73POPC   C4A 1305   0.110   4.276   6.225
   73POPC   C1B 1306   0.647   4.340   7.248
   73POPC   C2B 1307   0.800   4.162   6.870
   73POPC   C3B 1308   0.598   4.159   6.481
   73POPC   C4B 1309   0.584   4.489   6.205
   74POPC   NC3 1310   1.625   6.438   8.160
   74POPC   PO4 1311   1.835   6.937   8.003
   74POPC   GL1 1312   1.627   6.720   7.664
   74POPC   GL2 1313   1.829   6.391   7.663
   74POPC   C1A 1314   1.629   6.581   7.203
   74POPC   D2A 1315   1.672   6.792   6.811
   74POPC   C3A 1316   2.056   6.908   6.633
   74POPC   C4A 1317   2.325   6.733   6.303
   74POPC   C1B 1318   1.980   6.204   7.251
   74POPC   C2B 1319   2.025   6.413   6.870
   74POPC   C3B 1320   1.957   6.351   6.462
   74POPC   C4B 1321   1.974   5.949   6.251
   75POPC   NC3 1322   9.968   0.258   7.848
   75POPC   PO4 1323  10.075   0.854   8.243
   75POPC   GL1 1324  10.138   0.739   7.763
   75POPC   GL2 1325  10.446   0.768   7.698
   75POPC   C1A 1326   9.970   0.600   7.297
   75POPC   D2A 1327   9.931   0.331   6.908
   75POPC   C3A 1328   9.810   0.567   6.524
   75POPC   C4A 1329   9.966   0.607   6.095
   75POPC   C1B 1330  10.492   0.580   7.300
   75POPC   C2B 1331   0.011   0.512   6.875
   75POPC   C3B 1332  10.340   0.616   6.485
   75POPC   C4B 1333  10.350   0.279   6.172
   76POPC   NC3 1334   6.458   7.961   8.256
   76POPC   PO4 1335   6.844   7.565   8.042
   76POPC   GL1 1336   6.544   7.839   7.768
   76POPC   GL2 1337   6.193   8.028   7.824
   76POPC   C1A 1338   6.489   8.147   7.440
   76POPC   D2A 1339   6.217   8.143   7.084
   76POPC   C3A 1340   6.376   8.071   6.687
   76POPC   C4A 1341   6.488   8.052   6.255
   76POPC   C1B 1342   6.174   7.745   7.417
   76POPC   C2B 1343   6.296   7.633   6.966
   76POPC   C3B 1344   6.252   7.626   6.490
   76POPC   C4B 1345   5.995   7.915   6.230
   77POPC   NC3 1346   1.869   8.943   8.011
   77POPC   PO4 1347   1.594   8.426   8.307
   77POPC   GL1 1348   1.862   8.480   7.822
   77POPC   GL2 1349   2.219   8.588   7.885
   77POPC   C1A 1350   1.674   8.569   7.313
   77POPC   D2A 1351   1.613   8.807   6.890
   77POPC   C3A 1352   1.722   8.664   6.452
   77POPC   C4A 1353   1.781   8.741   5.989
   77POPC   C1B 1354   2.148   8.695   7.432
   77POPC   C2B 1355   2.086   8.605   6.989
   77POPC   C3B 1356   2.240   8.676   6.591
   77POPC   C4B 1357   2.203   8.561   6.207
   78POPC   NC3 1358   2.071  10.078   8.360
   78POPC   PO4 1359   1.656   0.050   8.009
   78POPC   GL1 1360   1.779  10.201   7.682
   78POPC   GL2 1361   2.071  10.010   7.457
   78POPC   C1A 1362   1.633  10.058   7.271
   78POPC   D2A 1363   1.833  10.124   6.833
   78POPC   C3A 1364   1.606   9.966   6.464
   78POPC   C4A 1365   1.646   9.764   6.095
   78POPC   C1B 1366   2.063  10.375   7.240
   78POPC   C2B 1367   2.205   0.038   6.839
   78POPC   C3B 1368   2.148  10.364   6.426
   78POPC   C4B 1369   2.091   9.930   6.334
   79POPC   NC3 1370   0.500   7.158   8.357
   79POPC   PO4 1371   0.082   7.459   7.886
   79POPC   GL1 1372   0.307   7.132   7.681
   79POPC   GL2 1373   0.646   7.041   7.804
   79POPC   C1A 1374   0.370   7.214   7.254
   79POPC   D2A 1375   0.128   7.186   6.910
   79POPC   C3A 1376   0.343   7.188   6.513
   79POPC   C4A 1377   0.676   7.447   6.298
   79POPC   C1B 1378   0.650   6.810   7.380
   79POPC   C2B 1379   0.439   6.716   6.962
   79POPC   C3B 1380   0.310   6.651   6.510
   79POPC   C4B 1381   0.456   6.855   6.148
   80POPC   NC3 1382   1.856   0.846   8.064
   80POPC   PO4 1383   2.134   1.454   7.978
   80POPC   GL1 1384   2.062   1.103   7.666
   80POPC   GL2 1385   1.679   1.007   7.606
   80POPC   C1A 1386   2.164   1.257   7.268
   80POPC   D2A 1387   2.209   1.627   7.030
   80POPC   C3A 1388   2.344   1.504   6.646
   80POPC   C4A 1389   2.168   1.197   6.372
   80POPC   C1B 1390   1.778   0.942   7.173
   80POPC   C2B 1391   1.891   1.220   6.818
   80POPC   C3B 1392   1.671   1.112   6.425
   80POPC   C4B 1393   1.546   0.723   6.232
   81POPC   NC3 1394   2.897  10.130   7.887
   81POPC   PO4 1395   2.219   9.991   7.930
   81POPC   GL1 1396   2.496  10.214   7.594
   81POPC   GL2 1397   2.825  10.369   7.471
   81POPC   C1A 1398   2.512  10.188   7.126
   81POPC   D2A 1399   2.369   9.995   6.768
   81POPC   C3A 1400   2.611  10.023   6.409
   81POPC   C4A 1401   2.646  10.408   6.257
   81POPC   C1B 1402   3.023  10.197   7.116
   81POPC   C2B 1403   2.991  10.421   6.721
   81POPC   C3B 1404   3.114  10.207   6.365
   81POPC   C4B 1405   3.054   9.754   6.328
   82POPC   NC3 1406   7.895  10.178   8.267
   82POPC   PO4 1407   8.205   9.638   8.106
   82POPC   GL1 1408   8.144  10.007   7.816
   82POPC   GL2 1409   7.831  10.175   7.765
   82POPC   C1A 1410   8.175  10.127   7.359
   82POPC   D2A 1411   8.222   9.959   6.931
   82POPC   C3A 1412   8.208  10.242   6.581
   82POPC   C4A 1413   7.925  10.263   6.221
   82POPC   C1B 1414   7.681  10.283   7.338
   82POPC   C2B 1415   7.746  10.221   6.882
   82POPC   C3B 1416   7.508  10.346   6.502
   82POPC   C4B 1417   7.488  10.433   6.017
   83POPC   NC3 1418   1.392   7.074   8.060
   83POPC   PO4 1419   0.831   7.456   8.204
   83POPC   GL1 1420   1.053   7.425   7.764
   83POPC   GL2 1421   1.140   7.074   7.617
   83POPC   C1A 1422   1.296   7.516   7.362
   83POPC   D2A 1423   1.251   7.320   6.947
   83POPC   C3A 1424   1.085   7.448   6.596
   83POPC   C4A 1425   1.202   7.459   6.174
   83POPC   C1B 1426   0.875   7.253   7.301
   83POPC   C2B 1427   0.742   7.132   6.901
   83POPC   C3B 1428   0.763   6.863   6.574
   83POPC   C4B 1429   0.927   7.034   6.225
   84POPC   NC3 1430   6.953   9.981   8.142
   84POPC   PO4 1431   7.119   0.098   7.980
   84POPC   GL1 1432   7.184  10.418   7.600
   84POPC   GL2 1433   7.332  10.136   7.734
   84POPC   C1A 1434   7.205  10.240   7.183
   84POPC   D2A 1435   6.929   9.992   6.945
   84POPC   C3A 1436   6.810  10.245   6.620
   84POPC   C4A 1437   7.058  10.274   6.253
   84POPC   C1B 1438   7.546   9.827   7.440
   84POPC   C2B 1439   7.436   9.810   6.982
   84POPC   C3B 1440   7.269   9.813   6.558
   84POPC   C4B 1441   7.457   9.944   6.173
   85POPC   NC3 1442   4.380   0.568   8.256
   85POPC   PO4 1443   3.800   0.672   8.020
   85POPC   GL1 1444   3.970   0.355   7.746
   85POPC   GL2 1445   4.323   0.247   7.814
   85POPC   C1A 1446   3.896   0.230   7.318
   85POPC   D2A 1447   3.821   0.482   6.977
   85POPC   C3A 1448   3.919   0.286   6.591
   85POPC   C4A 1449   3.951   0.466   6.191
   85POPC   C1B 1450   4.450   0.202   7.383
   85POPC   C2B 1451   4.279   0.250   6.972
   85POPC   C3B 1452   4.450   0.238   6.567
   85POPC   C4B 1453   4.463   0.475   6.188
   86POPC   NC3 1454   1.626   2.368   8.400
   86POPC   PO4 1455   1.484   2.979   7.997
   86POPC   GL1 1456   1.633   2.829   7.591
   86POPC   GL2 1457   1.990   2.774   7.629
   86POPC   C1A 1458   1.645   2.557   7.221
   86POPC   D2A 1459   1.669   2.354   6.798
   86POPC   C3A 1460   1.502   2.509   6.466
   86POPC   C4A 1461   1.768   2.673   6.191
   86POPC   C1B 1462   2.155   2.497   7.357
   86POPC   C2B 1463   2.091   2.576   6.962
   86POPC   C3B 1464   2.119   2.563   6.554
   86POPC   C4B 1465   2.324   2.618   6.182
   87POPC   NC3 1466   8.468   5.113   8.036
   87POPC   PO4 1467   8.826   4.599   8.331
   87POPC   GL1 1468   9.025   4.851   7.891
   87POPC   GL2 1469   8.734   4.856   7.708
   87POPC   C1A 1470   9.095   4.990   7.402
   87POPC   D2A 1471   8.859   5.169   6.994
   87POPC   C3A 1472   8.850   4.988   6.583
   87POPC   C4A 1473   8.633   5.113   6.219
   87POPC   C1B 1474   8.615   4.833   7.277
   87POPC   C2B 1475   8.747   4.570   6.926
   87POPC   C3B 1476   8.631   4.458   6.509
   87POPC   C4B 1477   8.443   4.636   6.137
   88POPC   NC3 1478  10.165   9.853   8.198
   88POPC   PO4 1479   9.802  10.410   8.187
   88POPC   GL1 1480   9.955  10.255   7.745
   88POPC   GL2 1481  10.312  10.132   7.779
   88POPC   C1A 1482   9.814  10.401   7.297
   88POPC   D2A 1483   9.576  10.388   6.898
   88POPC   C3A 1484   9.839  10.353   6.546
   88POPC   C4A 1485  10.049  10.373   6.153
   88POPC   C1B 1486  10.315  10.350   7.370
   88POPC   C2B 1487  10.194  10.310   6.939
   88POPC   C3B 1488   0.009  10.210   6.630
   88POPC   C4B 1489  10.479  10.125   6.211
   89POPC   NC3 1490   0.724   1.931   8.385
   89POPC   PO4 1491   1.372   1.987   8.344
   89POPC   GL1 1492   1.377   2.075   7.908
   89POPC   GL2 1493   1.112   1.824   7.827
   89POPC   C1A 1494   1.473   1.952   7.483
   89POPC   D2A 1495   1.380   2.096   7.100
   89POPC   C3A 1496   1.310   1.956   6.664
   89POPC   C4A 1497   1.417   2.013   6.244
   89POPC   C1B 1498   0.980   1.942   7.405
   89POPC   C2B 1499   0.901   1.954   7.002
   89POPC   C3B 1500   0.778   1.950   6.626
   89POPC   C4B 1501   0.923   1.783   6.288
   90POPC   NC3 1502   8.637   5.086   8.543
   90POPC   PO4 1503   8.278   5.522   8.040
   90POPC   GL1 1504   8.136   5.284   7.627
   90POPC   GL2 1505   8.224   4.930   7.605
   90POPC   C1A 1506   8.273   5.191   7.158
   90POPC   D2A 1507   8.383   4.917   6.774
   90POPC   C3A 1508   8.149   5.017   6.369
   90POPC   C4A 1509   8.122   5.117   5.913
   90POPC   C1B 1510   8.128   4.698   7.186
   90POPC   C2B 1511   7.876   4.813   6.794
   90POPC   C3B 1512   7.651   4.859   6.373
   90POPC   C4B 1513   7.459   4.866   5.944
   91POPC   NC3 1514   5.565   2.161   7.894
   91POPC   PO4 1515   6.076   1.668   7.994
   91POPC   GL1 1516   5.788   1.783   7.647
   91POPC   GL2 1517   5.942   2.088   7.576
   91POPC   C1A 1518   5.590   2.017   7.236
   91POPC   D2A 1519   5.754   2.185   6.830
   91POPC   C3A 1520   5.510   2.188   6.417
   91POPC   C4A 1521   5.528   1.893   6.043
   91POPC   C1B 1522   6.084   1.850   7.227
   91POPC   C2B 1523   6.051   1.770   6.807
   91POPC   C3B 1524   5.907   1.890   6.427
   91POPC   C4B 1525   6.012   1.986   5.980
   92POPC   NC3 1526   1.698   8.026   8.072
   92POPC   PO4 1527   2.267   7.695   8.196
   92POPC   GL1 1528   2.128   7.734   7.704
   92POPC   GL2 1529   1.766   7.783   7.627
   92POPC   C1A 1530   2.082   7.731   7.198
   92POPC   D2A 1531   2.335   7.991   6.885
   92POPC   C3A 1532   2.323   8.007   6.404
   92POPC   C4A 1533   2.035   7.717   6.179
   92POPC   C1B 1534   1.960   8.159   7.427
   92POPC   C2B 1535   1.830   8.167   6.999
   92POPC   C3B 1536   1.861   7.963   6.611
   92POPC   C4B 1537   1.868   8.202   6.227
   93POPC   NC3 1538   9.551   3.660   8.214
   93POPC   PO4 1539   8.839   3.703   8.217
   93POPC   GL1 1540   9.046   3.573   7.815
   93POPC   GL2 1541   9.373   3.407   7.787
   93POPC   C1A 1542   9.213   3.709   7.394
   93POPC   D2A 1543   9.204   3.901   6.978
   93POPC   C3A 1544   9.152   3.711   6.590
   93POPC   C4A 1545   9.273   3.611   6.172
   93POPC   C1B 1546   9.229   3.198   7.382
   93POPC   C2B 1547   9.352   3.399   6.970
   93POPC   C3B 1548   9.560   3.371   6.556
   93POPC   C4B 1549   9.489   3.126   6.184
   94POPC   NC3 1550   0.510   4.410   8.068
   94POPC   PO4 1551   0.330   5.039   8.242
   94POPC   GL1 1552   0.265   4.818   7.805
   94POPC   GL2 1553   0.600   4.794   7.745
   94POPC   C1A 1554   0.332   4.736   7.309
   94POPC   D2A 1555   0.372   4.577   6.853
   94POPC   C3A 1556   0.231   4.758   6.445
   94POPC   C4A 1557   0.175   4.734   5.980
   94POPC   C1B 1558   0.502   5.178   7.488
   94POPC   C2B 1559   0.402   5.159   7.022
   94POPC   C3B 1560   0.348   5.259   6.572
   94POPC   C4B 1561   0.452   5.127   6.128
   95POPC   NC3 1562   1.217   8.625   8.092
   95POPC   PO4 1563   1.552   9.198   7.810
   95POPC   GL1 1564   1.351   8.818   7.638
   95POPC   GL2 1565   0.989   8.629   7.627
   95POPC   C1A 1566   1.225   8.857   7.231
   95POPC   D2A 1567   1.031   8.826   6.862
   95POPC   C3A 1568   1.262   9.008   6.546
   95POPC   C4A 1569   1.302   8.832   6.163
   95POPC   C1B 1570   1.039   8.375   7.221
   95POPC   C2B 1571   1.318   8.350   6.839
   95POPC   C3B 1572   1.281   8.360   6.367
   95POPC   C4B 1573   1.061   8.431   5.954
   96POPC   NC3 1574   6.795   0.757   7.935
   96POPC   PO4 1575   6.130   0.806   8.101
   96POPC   GL1 1576   6.346   0.969   7.757
   96POPC   GL2 1577   6.425   1.314   7.807
   96POPC   C1A 1578   6.433   0.926   7.321
   96POPC   D2A 1579   6.139   0.868   6.988
   96POPC   C3A 1580   6.327   0.921   6.604
   96POPC   C4A 1581   6.124   1.024   6.234
   96POPC   C1B 1582   6.178   1.366   7.407
   96POPC   C2B 1583   6.284   1.360   6.971
   96POPC   C3B 1584   6.320   1.433   6.523
   96POPC   C4B 1585   6.588   1.221   6.245
   97POPC   NC3 1586   3.299   1.764   8.208
   97POPC   PO4 1587   3.848   1.351   8.234
   97POPC   GL1 1588   3.832   1.589   7.800
   97POPC   GL2 1589   3.622   1.907   7.751
   97POPC   C1A 1590   3.691   1.578   7.342
   97POPC   D2A 1591   3.382   1.568   6.989
   97POPC   C3A 1592   3.473   1.661   6.534
   97POPC   C4A 1593   3.268   1.846   6.164
   97POPC   C1B 1594   3.487   2.040   7.324
   97POPC   C2B 1595   3.624   2.033   6.901
   97POPC   C3B 1596   3.522   2.171   6.492
   97POPC   C4B 1597   3.724   2.175   6.111
   98POPC   NC3 1598   6.339   0.497   8.386
   98POPC   PO4 1599   5.775   0.153   8.254
   98POPC   GL1 1600   6.051   0.071   7.832
   98POPC   GL2 1601   6.268   0.394   7.739
   98POPC   C1A 1602   6.170   0.035   7.358
   98POPC   D2A 1603   6.087   0.365   6.996
   98POPC   C3A 1604   6.252   0.409   6.544
   98POPC   C4A 1605   6.165   0.206   6.124
   98POPC   C1B 1606   6.509   0.406   7.328
   98POPC   C2B 1607   6.607   0.569   6.930
   98POPC   C3B 1608   6.759   0.620   6.527
   98POPC   C4B 1609   6.551   0.703   6.173
   99POPC   NC3 1610   1.275   2.590   7.902
   99POPC   PO4 1611   0.797   2.179   7.996
   99POPC   GL1 1612   0.857   2.418   7.605
   99POPC   GL2 1613   0.844   2.779   7.604
   99POPC   C1A 1614   0.789   2.447   7.153
   99POPC   D2A 1615   1.096   2.398   6.807
   99POPC   C3A 1616   1.018   2.328   6.367
   99POPC   C4A 1617   0.853   2.571   6.019
   99POPC   C1B 1618   1.183   2.800   7.297
   99POPC   C2B 1619   1.329   2.853   6.889
   99POPC   C3B 1620   1.088   2.827   6.516
   99POPC   C4B 1621   1.265   2.852   6.140
  100POPC   NC3 1622   1.924   4.026   8.164
  100POPC   PO4 1623   2.281   4.372   7.914
  100POPC   GL1 1624   1.890   4.424   7.688
  100POPC   GL2 1625   1.643   4.144   7.711
  100POPC   C1A 1626   1.675   4.442   7.281
  100POPC   D2A 1627   1.763   4.674   6.910
  100POPC   C3A 1628   1.763   4.426   6.527
  100POPC   C4A 1629   2.104   4.353   6.210
  100POPC   C1B 1630   1.919   4.012   7.388
  100POPC   C2B 1631   1.885   4.005   6.944
  100POPC   C3B 1632   2.038   3.948   6.527
  100POPC   C4B 1633   1.714   4.014   6.225
  101POPC   NC3 1634   7.978   2.810   8.123
  101POPC   PO4 1635   8.149   3.276   7.767
  101POPC   GL1 1636   7.913   2.903   7.619
  101POPC   GL2 1637   7.998   2.532   7.699
  101POPC   C1A 1638   7.792   2.994   7.214
  101POPC   D2A 1639   8.027   3.111   6.856
  101POPC   C3A 1640   7.862   3.048   6.431
  101POPC   C4A 1641   8.104   3.177   6.064
  101POPC   C1B 1642   7.947   2.521   7.264
  101POPC   C2B 1643   8.133   2.602   6.884
  101POPC   C3B 1644   8.002   2.578   6.502
  101POPC   C4B 1645   8.083   2.666   6.131
  102POPC   NC3 1646   1.229   0.328   8.003
  102POPC   PO4 1647   0.566   0.527   8.091
  102POPC   GL1 1648   0.768   0.276   7.706
  102POPC   GL2 1649   1.044   0.419   7.525
  102POPC   C1A 1650   0.836   0.007   7.319
  102POPC   D2A 1651   1.078   0.162   6.946
  102POPC   C3A 1652   0.917  10.468   6.557
  102POPC   C4A 1653   0.776   0.161   6.190
  102POPC   C1B 1654   1.405   0.576   7.295
  102POPC   C2B 1655   1.492   0.578   6.849
  102POPC   C3B 1656   1.293   0.370   6.481
  102POPC   C4B 1657   1.228   0.332   6.035
  103POPC   NC3 1658  10.390   4.956   8.141
  103POPC   PO4 1659   9.793   4.851   8.371
  103POPC   GL1 1660   9.939   4.740   7.909
  103POPC   GL2 1661  10.041   5.049   7.753
  103POPC   C1A 1662   9.949   4.679   7.423
  103POPC   D2A 1663   9.930   4.938   7.025
  103POPC   C3A 1664   9.845   4.732   6.626
  103POPC   C4A 1665   9.898   4.968   6.240
  103POPC   C1B 1666  10.391   4.942   7.466
  103POPC   C2B 1667  10.447   4.900   7.014
  103POPC   C3B 1668  10.301   4.983   6.617
  103POPC   C4B 1669  10.444   5.113   6.230
  104POPC   NC3 1670  10.237   7.126   7.917
  104POPC   PO4 1671   0.290   6.807   8.128
  104POPC   GL1 1672  10.496   6.720   7.737
  104POPC   GL2 1673  10.140   6.837   7.526
  104POPC   C1A 1674   0.076   6.815   7.305
  104POPC   D2A 1675  10.229   6.856   7.015
  104POPC   C3A 1676  10.357   6.894   6.612
  104POPC   C4A 1677  10.087   6.836   6.355
  104POPC   C1B 1678  10.243   7.271   7.302
  104POPC   C2B 1679  10.168   7.447   6.912
  104POPC   C3B 1680  10.352   7.415   6.523
  104POPC   C4B 1681  10.111   7.361   6.187
  105POPC   NC3 1682   8.440   5.952   8.080
  105POPC   PO4 1683   8.303   6.638   7.977
  105POPC   GL1 1684   8.375   6.310   7.631
  105POPC   GL2 1685   8.139   6.051   7.653
  105POPC   C1A 1686   8.345   6.134   7.182
  105POPC   D2A 1687   8.226   6.464   6.896
  105POPC   C3A 1688   8.112   6.405   6.501
  105POPC   C4A 1689   8.258   6.101   6.230
  105POPC   C1B 1690   7.934   6.387   7.345
  105POPC   C2B 1691   7.724   6.450   6.906
  105POPC   C3B 1692   7.635   6.232   6.505
  105POPC   C4B 1693   7.763   6.077   6.112
  106POPC   NC3 1694   1.786   1.841   8.142
  106POPC   PO4 1695   1.738   2.516   7.974
  106POPC   GL1 1696   1.840   2.235   7.644
  106POPC   GL2 1697   1.961   1.863   7.654
  106POPC   C1A 1698   1.895   2.088   7.186
  106POPC   D2A 1699   2.106   2.066   6.776
  106POPC   C3A 1700   1.901   2.141   6.374
  106POPC   C4A 1701   1.827   2.230   5.951
  106POPC   C1B 1702   1.771   1.589   7.304
  106POPC   C2B 1703   1.702   1.703   6.870
  106POPC   C3B 1704   1.874   1.630   6.470
  106POPC   C4B 1705   2.232   1.757   6.216
  107POPC   NC3 1706   9.479   6.304   8.283
  107POPC   PO4 1707   8.844   6.219   8.181
  107POPC   GL1 1708   9.206   6.276   7.834
  107POPC   GL2 1709   9.356   6.605   7.826
  107POPC   C1A 1710   9.343   6.282   7.368
  107POPC   D2A 1711   9.120   6.484   6.977
  107POPC   C3A 1712   9.092   6.430   6.502
  107POPC   C4A 1713   9.376   6.447   6.133
  107POPC   C1B 1714   9.534   6.737   7.408
  107POPC   C2B 1715   9.602   6.605   6.981
  107POPC   C3B 1716   9.502   6.762   6.566
  107POPC   C4B 1717   9.634   6.887   6.164
  108POPC   NC3 1718   2.202   2.635   8.086
  108POPC   PO4 1719   2.880   2.396   8.068
  108POPC   GL1 1720   2.870   2.575   7.648
  108POPC   GL2 1721   2.528   2.679   7.639
  108POPC   C1A 1722   2.798   2.421   7.246
  108POPC   D2A 1723   2.551   2.401   6.910
  108POPC   C3A 1724   2.608   2.687   6.645
  108POPC   C4A 1725   2.840   2.520   6.340
  108POPC   C1B 1726   2.486   2.831   7.180
  108POPC   C2B 1727   2.303   3.067   6.864
  108POPC   C3B 1728   2.296   3.054   6.418
  108POPC   C4B 1729   2.692   2.993   6.214
  109POPC   NC3 1730   6.596  10.398   7.972
  109POPC   PO4 1731   6.648   9.719   7.916
  109POPC   GL1 1732   6.611   9.972   7.594
  109POPC   GL2 1733   6.910   9.988   7.503
  109POPC   C1A 1734   6.302  10.027   7.245
  109POPC   D2A 1735   6.369  10.036   6.819
  109POPC   C3A 1736   6.246   9.805   6.434
  109POPC   C4A 1737   6.271   9.767   5.938
  109POPC   C1B 1738   6.701  10.368   7.283
  109POPC   C2B 1739   6.481   0.046   6.909
  109POPC   C3B 1740   6.311  10.404   6.505
  109POPC   C4B 1741   6.548  10.147   6.190
  110POPC   NC3 1742   2.027   5.544   7.963
  110POPC   PO4 1743   1.621   5.976   8.204
  110POPC   GL1 1744   1.572   5.768   7.774
  110POPC   GL2 1745   1.885   5.866   7.609
  110POPC   C1A 1746   1.574   5.627   7.310
  110POPC   D2A 1747   1.744   5.851   6.921
  110POPC   C3A 1748   1.572   5.713   6.517
  110POPC   C4A 1749   1.629   5.578   6.083
  110POPC   C1B 1750   2.067   5.602   7.265
  110POPC   C2B 1751   2.148   5.458   6.864
  110POPC   C3B 1752   1.994   5.459   6.460
  110POPC   C4B 1753   2.128   5.470   6.066
  111POPC   NC3 1754   0.774   3.452   7.978
  111POPC   PO4 1755   0.146   3.085   8.014
  111POPC   GL1 1756   0.436   3.170   7.706
  111POPC   GL2 1757   0.371   3.542   7.679
  111POPC   C1A 1758   0.702   3.292   7.355
  111POPC   D2A 1759   0.633   3.575   6.998
  111POPC   C3A 1760   0.714   3.354   6.628
  111POPC   C4A 1761   0.551   3.359   6.184
  111POPC   C1B 1762   0.205   3.427   7.285
  111POPC   C2B 1763   0.055   3.614   6.909
  111POPC   C3B 1764   0.270   3.596   6.535
  111POPC   C4B 1765   0.344   3.837   6.162
  112POPC   NC3 1766   6.270   2.868   7.929
  112POPC   PO4 1767   6.825   3.107   7.967
  112POPC   GL1 1768   6.662   2.946   7.594
  112POPC   GL2 1769   6.656   2.613   7.679
  112POPC   C1A 1770   6.366   3.069   7.256
  112POPC   D2A 1771   6.367   3.162   6.803
  112POPC   C3A 1772   6.708   3.043   6.501
  112POPC   C4A 1773   6.691   3.061   6.037
  112POPC   C1B 1774   6.485   2.571   7.264
  112POPC   C2B 1775   6.582   2.685   6.845
  112POPC   C3B 1776   6.281   2.725   6.513
  112POPC   C4B 1777   6.048   2.373   6.321
  113POPC   NC3 1778  10.074   8.966   8.065
  113POPC   PO4 1779  10.161   8.277   8.020
  113POPC   GL1 1780  10.005   8.475   7.642
  113POPC   GL2 1781   9.925   8.832   7.596
  113POPC   C1A 1782  10.061   8.338   7.213
  113POPC   D2A 1783   9.789   8.446   6.885
  113POPC   C3A 1784   9.935   8.417   6.509
  113POPC   C4A 1785   9.978   8.827   6.368
  113POPC   C1B 1786  10.232   8.828   7.261
  113POPC   C2B 1787  10.265   8.761   6.808
  113POPC   C3B 1788  10.472   8.965   6.445
  113POPC   C4B 1789  10.480   9.264   6.150
  114POPC   NC3 1790  10.153   3.071   8.045
  114POPC   PO4 1791  10.020   3.823   8.016
  114POPC   GL1 1792   9.986   3.483   7.749
  114POPC   GL2 1793  10.359   3.416   7.696
  114POPC   C1A 1794   9.713   3.351   7.385
  114POPC   D2A 1795   9.717   3.051   7.023
  114POPC   C3A 1796   9.926   3.010   6.605
  114POPC   C4A 1797   9.972   3.263   6.220
  114POPC   C1B 1798  10.193   3.446   7.266
  114POPC   C2B 1799  10.002   3.453   6.871
  114POPC   C3B 1800  10.066   3.679   6.485
  114POPC   C4B 1801  10.369   3.652   6.176
  115POPC   NC3 1802   7.315   0.488   8.172
  115POPC   PO4 1803   6.659   0.346   8.093
  115POPC   GL1 1804   6.885   0.366   7.648
  115POPC   GL2 1805   7.254   0.485   7.665
  115POPC   C1A 1806   7.029   0.266   7.249
  115POPC   D2A 1807   7.141   0.430   6.874
  115POPC   C3A 1808   7.042   0.196   6.534
  115POPC   C4A 1809   6.670   0.157   6.285
  115POPC   C1B 1810   7.371   0.688   7.282
  115POPC   C2B 1811   7.337   0.895   6.867
  115POPC   C3B 1812   7.293   0.693   6.464
  115POPC   C4B 1813   7.485   0.338   6.318
  116POPC   NC3 1814   9.236  10.223   8.228
  116POPC   PO4 1815   9.452   0.382   8.111
  116POPC   GL1 1816   9.477  10.495   7.793
  116POPC   GL2 1817   9.461  10.123   7.799
  116POPC   C1A 1818   9.304  10.361   7.376
  116POPC   D2A 1819   9.194  10.043   7.057
  116POPC   C3A 1820   9.149  10.232   6.632
  116POPC   C4A 1821   9.392  10.295   6.284
  116POPC   C1B 1822   9.637   9.945   7.430
  116POPC   C2B 1823   9.758   9.916   6.988
  116POPC   C3B 1824   9.571   9.901   6.565
  116POPC   C4B 1825   9.767   9.956   6.159
  117POPC   NC3 1826   7.522   1.218   7.965
  117POPC   PO4 1827   8.244   1.374   7.986
  117POPC   GL1 1828   8.114   1.265   7.570
  117POPC   GL2 1829   7.822   1.030   7.563
  117POPC   C1A 1830   8.297   0.975   7.271
  117POPC   D2A 1831   8.377   0.930   6.829
  117POPC   C3A 1832   8.075   1.142   6.588
  117POPC   C4A 1833   8.036   1.512   6.360
  117POPC   C1B 1834   7.574   1.156   7.257
  117POPC   C2B 1835   7.656   1.307   6.846
  117POPC   C3B 1836   7.581   1.128   6.460
  117POPC   C4B 1837   7.697   1.154   6.055
  118POPC   NC3 1838   9.376   9.210   8.027
  118POPC   PO4 1839   9.063   9.812   8.066
  118POPC   GL1 1840   9.303   9.632   7.703
  118POPC   GL2 1841   9.659   9.475   7.667
  118POPC   C1A 1842   9.342   9.563   7.261
  118POPC   D2A 1843   9.466   9.491   6.855
  118POPC   C3A 1844   9.126   9.496   6.531
  118POPC   C4A 1845   9.122   9.862   6.246
  118POPC   C1B 1846   9.719   9.190   7.289
  118POPC   C2B 1847   9.762   8.997   6.855
  118POPC   C3B 1848   9.585   9.173   6.477
  118POPC   C4B 1849   9.512   9.514   6.181
  119POPC   NC3 1850   0.371   5.498   8.122
  119POPC   PO4 1851   0.684   6.038   7.860
  119POPC   GL1 1852   0.616   5.673   7.678
  119POPC   GL2 1853   0.267   5.659   7.663
  119POPC   C1A 1854   0.620   5.646   7.253
  119POPC   D2A 1855   0.796   5.887   6.944
  119POPC   C3A 1856   0.602   5.774   6.559
  119POPC   C4A 1857   0.623   5.833   6.137
  119POPC   C1B 1858   0.134   5.495   7.296
  119POPC   C2B 1859   0.254   5.657   6.906
  119POPC   C3B 1860   0.062   5.681   6.525
  119POPC   C4B 1861   0.179   5.560   6.175
  120POPC   NC3 1862   4.268   1.541   8.320
  120POPC   PO4 1863   4.417   2.169   8.151
  120POPC   GL1 1864   4.284   1.920   7.764
  120POPC   GL2 1865   4.389   1.553   7.806
  120POPC   C1A 1866   4.011   2.023   7.379
  120POPC   D2A 1867   4.108   2.245   6.934
  120POPC   C3A 1868   4.073   2.083   6.503
  120POPC   C4A 1869   4.217   2.026   6.051
  120POPC   C1B 1870   4.200   1.550   7.388
  120POPC   C2B 1871   4.024   1.715   6.979
  120POPC   C3B 1872   4.001   1.591   6.564
  120POPC   C4B 1873   3.859   1.682   6.159
  121POPC   NC3 1874   2.137   9.550   8.134
  121POPC   PO4 1875   1.492   9.714   8.126
  121POPC   GL1 1876   1.779   9.670   7.714
  121POPC   GL2 1877   2.163   9.550   7.649
  121POPC   C1A 1878   1.870   9.590   7.236
  121POPC   D2A 1879   2.041   9.626   6.812
  121POPC   C3A 1880   1.895   9.468   6.433
  121POPC   C4A 1881   1.637   9.214   6.164
  121POPC   C1B 1882   2.157   9.203   7.410
  121POPC   C2B 1883   2.074   9.125   6.981
  121POPC   C3B 1884   2.300   9.179   6.598
  121POPC   C4B 1885   2.137   9.097   6.181
  122POPC   NC3 1886   8.718   1.394   8.109
  122POPC   PO4 1887   8.478   2.032   8.272
  122POPC   GL1 1888   8.595   1.879   7.834
  122POPC   GL2 1889   8.880   2.106   7.750
  122POPC   C1A 1890   8.385   1.730   7.418
  122POPC   D2A 1891   8.356   1.454   7.033
  122POPC   C3A 1892   8.377   1.751   6.691
  122POPC   C4A 1893   8.373   1.899   6.257
  122POPC   C1B 1894   8.702   2.149   7.356
  122POPC   C2B 1895   8.743   1.945   6.975
  122POPC   C3B 1896   8.800   2.084   6.531
  122POPC   C4B 1897   8.686   2.269   6.108
  123POPC   NC3 1898   8.619   9.861   7.981
  123POPC   PO4 1899   8.808  10.403   8.298
  123POPC   GL1 1900   8.951  10.394   7.822
  123POPC   GL2 1901   8.969  10.058   7.629
  123POPC   C1A 1902   8.800  10.481   7.377
  123POPC   D2A 1903   8.492   0.010   7.033
  123POPC   C3A 1904   8.682   0.048   6.632
  123POPC   C4A 1905   8.944   0.075   6.243
  123POPC   C1B 1906   8.685   9.988   7.262
  123POPC   C2B 1907   8.711  10.072   6.820
  123POPC   C3B 1908   8.683  10.122   6.356
  123POPC   C4B 1909   8.347  10.035   6.076
  124POPC   NC3 1910   1.877   3.188   7.914
  124POPC   PO4 1911   1.555   3.729   8.161
  124POPC   GL1 1912   1.782   3.639   7.726
  124POPC   GL2 1913   1.643   3.330   7.507
  124POPC   C1A 1914   2.052   3.538   7.331
  124POPC   D2A 1915   2.243   3.597   6.942
  124POPC   C3A 1916   2.026   3.428   6.616
  124POPC   C4A 1917   1.932   3.552   6.207
  124POPC   C1B 1918   1.877   3.058   7.186
  124POPC   C2B 1919   1.809   2.948   6.738
  124POPC   C3B 1920   1.653   3.141   6.359
  124POPC   C4B 1921   1.887   3.114   5.969
  125POPC   NC3 1922   4.856   2.037   8.010
  125POPC   PO4 1923   5.253   2.402   7.662
  125POPC   GL1 1924   5.160   1.993   7.577
  125POPC   GL2 1925   4.783   1.997   7.505
  125POPC   C1A 1926   5.206   1.689   7.308
  125POPC   D2A 1927   4.963   1.956   7.012
  125POPC   C3A 1928   5.089   1.944   6.602
  125POPC   C4A 1929   5.062   1.848   6.185
  125POPC   C1B 1930   4.469   1.954   7.167
  125POPC   C2B 1931   4.469   1.796   6.744
  125POPC   C3B 1932   4.597   1.966   6.368
  125POPC   C4B 1933   4.853   2.325   6.271
  126POPC   NC3 1934   2.757   9.280   8.173
  126POPC   PO4 1935   2.454   9.792   8.387
  126POPC   GL1 1936   2.624   9.699   7.894
  126POPC   GL2 1937   2.778   9.410   7.700
  126POPC   C1A 1938   2.565   9.741   7.400
  126POPC   D2A 1939   2.484   9.461   7.044
  126POPC   C3A 1940   2.660   9.553   6.643
  126POPC   C4A 1941   2.412   9.554   6.270
  126POPC   C1B 1942   2.989   9.427   7.320
  126POPC   C2B 1943   2.940   9.209   6.945
  126POPC   C3B 1944   3.084   9.250   6.546
  126POPC   C4B 1945   2.851   9.309   6.194
  127POPC   NC3 1946   7.387   2.107   8.177
  127POPC   PO4 1947   6.771   2.285   8.085
  127POPC   GL1 1948   7.105   2.217   7.750
  127POPC   GL2 1949   7.180   1.854   7.757
  127POPC   C1A 1950   7.439   2.121   7.392
  127POPC   D2A 1951   7.695   2.169   7.002
  127POPC   C3A 1952   7.545   2.270   6.591
  127POPC   C4A 1953   7.394   2.182   6.169
  127POPC   C1B 1954   6.989   1.902   7.322
  127POPC   C2B 1955   7.235   1.900   6.928
  127POPC   C3B 1956   7.085   1.953   6.498
  127POPC   C4B 1957   6.836   1.659   6.283
  128POPC   NC3 1958   3.484   0.209   7.995
  128POPC   PO4 1959   3.140   0.730   8.053
  128POPC   GL1 1960   3.139   0.444   7.654
  128POPC   GL2 1961   3.478   0.368   7.535
  128POPC   C1A 1962   3.145   0.174   7.229
  128POPC   D2A 1963   3.433   0.181   6.849
  128POPC   C3A 1964   3.247   0.284   6.430
  128POPC   C4A 1965   3.027   0.184   6.044
  128POPC   C1B 1966   3.378   0.625   7.225
  128POPC   C2B 1967   3.474   0.847   6.879
  128POPC   C3B 1968   3.607   0.687   6.532
  128POPC   C4B 1969   3.418   0.726   6.192
  129POPC   NC3 1970   8.082   0.927   7.981
  129POPC   PO4 1971   8.706   0.779   8.058
  129POPC   GL1 1972   8.616   1.062   7.708
  129POPC   GL2 1973   8.882   0.902   7.551
  129POPC   C1A 1974   8.743   1.383   7.372
  129POPC   D2A 1975   8.856   1.450   6.892
  129POPC   C3A 1976   8.555   1.329   6.533
  129POPC   C4A 1977   8.455   0.954   6.306
  129POPC   C1B 1978   8.818   0.962   7.106
  129POPC   C2B 1979   8.862   0.973   6.664
  129POPC   C3B 1980   8.953   1.152   6.250
  129POPC   C4B 1981   9.180   0.977   5.896
  130POPC   NC3 1982   8.332   7.960   8.200
  130POPC   PO4 1983   7.675   7.964   8.048
  130POPC   GL1 1984   7.798   8.116   7.670
  130POPC   GL2 1985   8.138   7.949   7.674
  130POPC   C1A 1986   7.606   8.299   7.303
  130POPC   D2A 1987   7.652   8.045   6.896
  130POPC   C3A 1988   7.439   8.095   6.479
  130POPC   C4A 1989   7.431   8.482   6.249
  130POPC   C1B 1990   8.105   7.876   7.208
  130POPC   C2B 1991   7.949   7.622   6.857
  130POPC   C3B 1992   7.860   7.664   6.430
  130POPC   C4B 1993   8.169   7.888   6.266
  131POPC   NC3 1994   7.262   7.764   8.040
  131POPC   PO4 1995   7.244   8.407   8.142
  131POPC   GL1 1996   7.281   8.186   7.740
  131POPC   GL2 1997   6.895   8.219   7.805
  131POPC   C1A 1998   7.419   7.848   7.363
  131POPC   D2A 1999   7.223   7.768   6.926
  131POPC   C3A 2000   7.352   7.589   6.508
  131POPC   C4A 2001   7.460   7.684   6.069
  131POPC   C1B 2002   6.942   7.964   7.425
  131POPC   C2B 2003   6.739   7.918   7.032
  131POPC   C3B 2004   6.872   7.972   6.605
  131POPC   C4B 2005   6.990   7.825   6.208
  132POPC   NC3 2006   0.227   0.838   8.110
  132POPC   PO4 2007  10.425   0.194   7.939
  132POPC   GL1 2008   0.274   0.356   7.661
  132POPC   GL2 2009   0.444   0.706   7.647
  132POPC   C1A 2010   0.494   0.411   7.238
  132POPC   D2A 2011   0.463   0.765   6.937
  132POPC   C3A 2012   0.363   0.631   6.524
  132POPC   C4A 2013   0.413   0.533   6.144
  132POPC   C1B 2014   0.749   0.860   7.387
  132POPC   C2B 2015   0.969   0.670   7.028
  132POPC   C3B 2016   0.834   0.504   6.639
  132POPC   C4B 2017   0.890   0.666   6.233
  133POPC   NC3 2018   4.184   8.056   8.114
  133POPC   PO4 2019   3.791   7.621   8.081
  133POPC   GL1 2020   3.884   7.870   7.700
  133POPC   GL2 2021   4.247   7.873   7.652
  133POPC   C1A 2022   3.921   7.922   7.225
  133POPC   D2A 2023   3.888   8.127   6.783
  133POPC   C3A 2024   3.978   7.891   6.368
  133POPC   C4A 2025   3.674   7.660   6.063
  133POPC   C1B 2026   4.411   8.112   7.314
  133POPC   C2B 2027   4.354   7.950   6.919
  133POPC   C3B 2028   4.510   7.953   6.531
  133POPC   C4B 2029   4.493   8.034   6.133
  134POPC   NC3 2030   8.550   8.648   8.075
  134POPC   PO4 2031   9.178   8.098   8.064
  134POPC   GL1 2032   9.046   8.282   7.625
  134POPC   GL2 2033   8.781   8.571   7.619
  134POPC   C1A 2034   9.101   8.428   7.266
  134POPC   D2A 2035   8.846   8.695   7.088
  134POPC   C3A 2036   8.748   8.589   6.672
  134POPC   C4A 2037   9.040   8.448   6.361
  134POPC   C1B 2038   8.437   8.724   7.415
  134POPC   C2B 2039   8.343   8.742   6.984
  134POPC   C3B 2040   8.250   8.733   6.547
  134POPC   C4B 2041   8.554   8.706   6.198
  135POPC   NC3 2042   0.414  10.497   8.042
  135POPC   PO4 2043   0.139   9.863   8.194
  135POPC   GL1 2044   0.330  10.047   7.758
  135POPC   GL2 2045   0.698  10.152   7.710
  135POPC   C1A 2046   0.334  10.397   7.409
  135POPC   D2A 2047   0.171   0.044   7.011
  135POPC   C3A 2048   0.400   0.114   6.605
  135POPC   C4A 2049   0.291   0.016   6.175
  135POPC   C1B 2050   0.576   9.983   7.265
  135POPC   C2B 2051   0.558  10.192   6.873
  135POPC   C3B 2052   0.486  10.086   6.441
  135POPC   C4B 2053   0.689  10.169   6.072
  136POPC   NC3 2054   9.679   1.123   8.166
  136POPC   PO4 2055   9.958   1.638   8.313
  136POPC   GL1 2056   9.878   1.484   7.869
  136POPC   GL2 2057  10.188   1.373   7.678
  136POPC   C1A 2058   9.799   1.569   7.403
  136POPC   D2A 2059  10.047   1.418   7.020
  136POPC   C3A 2060   9.910   1.560   6.619
  136POPC   C4A 2061   9.977   1.776   6.262
  136POPC   C1B 2062  10.224   1.061   7.357
  136POPC   C2B 2063  10.192   0.899   6.949
  136POPC   C3B 2064  10.203   1.124   6.600
  136POPC   C4B 2065  10.136   1.062   6.201
  137POPC   NC3 2066   0.606   6.459   7.995
  137POPC   PO4 2067   0.033   5.990   8.167
  137POPC   GL1 2068   0.173   6.165   7.729
  137POPC   GL2 2069   0.360   6.425   7.553
  137POPC   C1A 2070   0.259   6.019   7.278
  137POPC   D2A 2071   0.408   6.182   6.881
  137POPC   C3A 2072   0.252   6.140   6.513
  137POPC   C4A 2073   0.125   6.076   6.117
  137POPC   C1B 2074   0.704   6.318   7.260
  137POPC   C2B 2075   0.870   6.439   6.872
  137POPC   C3B 2076   0.766   6.281   6.492
  137POPC   C4B 2077   0.550   6.350   6.133
  138POPC   NC3 2078   9.208   0.756   7.951
  138POPC   PO4 2079   9.230   1.382   8.160
  138POPC   GL1 2080   9.130   1.317   7.725
  138POPC   GL2 2081   9.470   1.242   7.660
  138POPC   C1A 2082   9.223   1.282   7.241
  138POPC   D2A 2083   9.520   1.380   6.930
  138POPC   C3A 2084   9.286   1.342   6.584
  138POPC   C4A 2085   9.407   1.452   6.173
  138POPC   C1B 2086   9.716   1.078   7.280
  138POPC   C2B 2087   9.686   0.888   6.903
  138POPC   C3B 2088   9.718   1.087   6.507
  138POPC   C4B 2089   9.652   1.014   6.087
  139POPC   NC3 2090   2.161  10.470   7.938
  139POPC   PO4 2091   2.336   0.734   8.035
  139POPC   GL1 2092   2.097   0.536   7.720
  139POPC   GL2 2093   1.706   0.497   7.731
  139POPC   C1A 2094   2.193   0.662   7.317
  139POPC   D2A 2095   2.003   0.508   6.977
  139POPC   C3A 2096   1.962   0.745   6.641
  139POPC   C4A 2097   2.052   0.572   6.271
  139POPC   C1B 2098   1.796   0.267   7.384
  139POPC   C2B 2099   1.679   0.109   6.985
  139POPC   C3B 2100   1.801   0.239   6.574
  139POPC   C4B 2101   1.714   0.225   6.146
  140POPC   NC3 2102   5.315   9.550   8.206
  140POPC   PO4 2103   4.844   9.056   8.053
  140POPC   GL1 2104   4.821   9.250   7.693
  140POPC   GL2 2105   5.057   9.473   7.669
  140POPC   C1A 2106   4.917   9.094   7.296
  140POPC   D2A 2107   4.717   9.185   6.942
  140POPC   C3A 2108   4.875   9.217   6.548
  140POPC   C4A 2109   4.754   8.919   6.284
  140POPC   C1B 2110   4.840   9.596   7.272
  140POPC   C2B 2111   4.739   9.696   6.823
  140POPC   C3B 2112   4.776   9.694   6.409
  140POPC   C4B 2113   4.944   9.526   6.041
  141POPC   NC3 2114   9.582   1.884   8.218
  141POPC   PO4 2115   9.181   2.379   8.098
  141POPC   GL1 2116   9.398   2.110   7.784
  141POPC   GL2 2117   9.414   1.749   7.765
  141POPC   C1A 2118   9.555   2.046   7.341
  141POPC   D2A 2119   9.851   1.925   6.990
  141POPC   C3A 2120   9.734   2.111   6.584
  141POPC   C4A 2121   9.566   2.076   6.166
  141POPC   C1B 2122   9.119   1.779   7.405
  141POPC   C2B 2123   9.245   1.799   6.962
  141POPC   C3B 2124   9.266   1.851   6.514
  141POPC   C4B 2125   9.069   1.898   6.101
  142POPC   NC3 2126  10.227   2.001   8.352
  142POPC   PO4 2127  10.153   2.591   7.995
  142POPC   GL1 2128  10.093   2.696   7.598
  142POPC   GL2 2129  10.063   3.018   7.546
  142POPC   C1A 2130  10.082   2.714   7.141
  142POPC   D2A 2131   9.801   2.552   6.861
  142POPC   C3A 2132  10.091   2.521   6.534
  142POPC   C4A 2133  10.053   2.288   6.184
  142POPC   C1B 2134  10.446   2.995   7.351
  142POPC   C2B 2135  10.433   3.121   6.936
  142POPC   C3B 2136  10.369   3.268   6.544
  142POPC   C4B 2137  10.352   2.914   6.293
  143POPC   NC3 2138   4.514   9.481   8.079
  143POPC   PO4 2139   3.919   9.157   8.025
  143POPC   GL1 2140   4.257   9.180   7.740
  143POPC   GL2 2141   4.142   9.528   7.692
  143POPC   C1A 2142   4.433   9.291   7.355
  143POPC   D2A 2143   4.320   9.513   7.001
  143POPC   C3A 2144   4.386   9.334   6.590
  143POPC   C4A 2145   4.427   9.440   6.162
  143POPC   C1B 2146   3.917   9.403   7.298
  143POPC   C2B 2147   3.882   9.378   6.823
  143POPC   C3B 2148   3.922   9.383   6.406
  143POPC   C4B 2149   3.995   9.690   6.191
  144POPC   NC3 2150   4.923   8.569   8.089
  144POPC   PO4 2151   5.494   8.701   7.962
  144POPC   GL1 2152   5.129   8.750   7.641
  144POPC   GL2 2153   4.744   8.745   7.655
  144POPC   C1A 2154   5.238   8.720   7.214
  144POPC   D2A 2155   5.368   8.979   6.909
  144POPC   C3A 2156   5.197   8.830   6.559
  144POPC   C4A 2157   5.145   8.542   6.253
  144POPC   C1B 2158   4.781   8.512   7.272
  144POPC   C2B 2159   4.764   8.681   6.841
  144POPC   C3B 2160   4.680   8.449   6.462
  144POPC   C4B 2161   4.537   8.527   6.045
  145POPC   NC3 2162   8.671   4.134   8.239
  145POPC   PO4 2163   8.353   4.676   8.037
  145POPC   GL1 2164   8.421   4.450   7.642
  145POPC   GL2 2165   8.747   4.397   7.449
  145POPC   C1A 2166   8.286   4.207   7.279
  145POPC   D2A 2167   8.321   4.279   6.863
  145POPC   C3A 2168   8.252   4.008   6.492
  145POPC   C4A 2169   8.090   4.130   6.076
  145POPC   C1B 2170   8.772   4.085   7.147
  145POPC   C2B 2171   8.696   3.928   6.765
  145POPC   C3B 2172   8.742   3.921   6.353
  145POPC   C4B 2173   8.753   4.233   6.058
  146POPC   NC3 2174   6.986   2.697   8.056
  146POPC   PO4 2175   7.612   2.505   8.109
  146POPC   GL1 2176   7.478   2.568   7.657
  146POPC   GL2 2177   7.151   2.737   7.576
  146POPC   C1A 2178   7.439   2.591   7.185
  146POPC   D2A 2179   7.628   2.732   6.817
  146POPC   C3A 2180   7.371   2.896   6.505
  146POPC   C4A 2181   7.554   2.647   6.237
  146POPC   C1B 2182   6.964   2.414   7.302
  146POPC   C2B 2183   6.889   2.270   6.882
  146POPC   C3B 2184   7.077   2.457   6.543
  146POPC   C4B 2185   6.979   2.684   6.227
  147POPC   NC3 2186   4.858  10.397   7.889
  147POPC   PO4 2187   4.892   9.779   8.189
  147POPC   GL1 2188   5.168   9.930   7.851
  147POPC   GL2 2189   4.917   9.990   7.594
  147POPC   C1A 2190   5.319   9.813   7.386
  147POPC   D2A 2191   5.101   9.960   7.023
  147POPC   C3A 2192   5.222   9.861   6.577
  147POPC   C4A 2193   5.035  10.068   6.206
  147POPC   C1B 2194   4.716  10.242   7.286
  147POPC   C2B 2195   4.668  10.422   6.932
  147POPC   C3B 2196   4.682  10.211   6.568
  147POPC   C4B 2197   4.671  10.431   6.197
  148POPC   NC3 2198   8.650   0.333   8.216
  148POPC   PO4 2199   7.967   0.109   8.090
  148POPC   GL1 2200   8.330   0.422   7.816
  148POPC   GL2 2201   8.709   0.392   7.706
  148POPC   C1A 2202   8.365   0.457   7.325
  148POPC   D2A 2203   8.187   0.470   6.878
  148POPC   C3A 2204   8.382   0.468   6.482
  148POPC   C4A 2205   8.374   0.095   6.223
  148POPC   C1B 2206   8.865   0.473   7.276
  148POPC   C2B 2207   8.706   0.501   6.897
  148POPC   C3B 2208   8.906   0.486   6.536
  148POPC   C4B 2209   8.863   0.658   6.185
  149POPC   NC3 2210   4.221   8.784   8.077
  149POPC   PO4 2211   4.592   8.253   8.079
  149POPC   GL1 2212   4.313   8.457   7.685
  149POPC   GL2 2213   4.003   8.715   7.618
  149POPC   C1A 2214   4.374   8.788   7.305
  149POPC   D2A 2215   4.201   8.990   6.948
  149POPC   C3A 2216   4.291   8.841   6.519
  149POPC   C4A 2217   4.275   8.968   6.083
  149POPC   C1B 2218   4.017   8.435   7.241
  149POPC   C2B 2219   4.288   8.450   6.862
  149POPC   C3B 2220   4.182   8.357   6.410
  149POPC   C4B 2221   4.034   8.542   6.017
  150POPC   NC3 2222   9.817  10.318   4.150
  150POPC   PO4 2223   9.201  10.284   3.680
  150POPC   GL1 2224   9.241   9.959   4.153
  150POPC   GL2 2225   9.528   9.951   4.317
  150POPC   C1A 2226   9.098  10.110   4.636
  150POPC   D2A 2227   9.042  10.365   5.034
  150POPC   C3A 2228   9.226  10.236   5.440
  150POPC   C4A 2229   9.123  10.271   5.860
  150POPC   C1B 2230   9.618  10.124   4.728
  150POPC   C2B 2231   9.831  10.000   5.099
  150POPC   C3B 2232   9.768  10.189   5.486
  150POPC   C4B 2233   9.631  10.342   5.844
  151POPC   NC3 2234   6.375   9.859   3.803
  151POPC   PO4 2235   6.823  10.292   3.763
  151POPC   GL1 2236   6.592  10.192   4.132
  151POPC   GL2 2237   6.548  10.468   4.322
  151POPC   C1A 2238   6.389   9.974   4.487
  151POPC   D2A 2239   6.277  10.025   4.942
  151POPC   C3A 2240   6.566   9.943   5.277
  151POPC   C4A 2241   6.673   9.970   5.710
  151POPC   C1B 2242   6.245  10.457   4.626
  151POPC   C2B 2243   6.217   0.085   5.033
  151POPC   C3B 2244   6.340  10.385   5.375
  151POPC   C4B 2245   6.326  10.337   5.788
  152POPC   NC3 2246   0.798   9.601   4.113
  152POPC   PO4 2247   1.284   9.301   3.776
  152POPC   GL1 2248   1.237   9.353   4.226
  152POPC   GL2 2249   1.447   9.621   4.174
  152POPC   C1A 2250   1.009   9.203   4.628
  152POPC   D2A 2251   1.015   8.997   5.058
  152POPC   C3A 2252   0.795   9.151   5.437
  152POPC   C4A 2253   0.989   9.389   5.771
  152POPC   C1B 2254   1.445   9.675   4.608
  152POPC   C2B 2255   1.380   9.371   4.928
  152POPC   C3B 2256   1.270   9.362   5.341
  152POPC   C4B 2257   1.497   9.503   5.704
  153POPC   NC3 2258   1.250  10.346   3.881
  153POPC   PO4 2259   0.638  10.032   3.994
  153POPC   GL1 2260   0.921  10.252   4.264
  153POPC   GL2 2261   1.122   9.985   4.281
  153POPC   C1A 2262   1.176  10.315   4.653
  153POPC   D2A 2263   0.883  10.246   4.953
  153POPC   C3A 2264   0.852  10.273   5.401
  153POPC   C4A 2265   1.038  10.415   5.789
  153POPC   C1B 2266   0.958   9.818   4.689
  153POPC   C2B 2267   1.149   9.813   5.074
  153POPC   C3B 2268   1.146   9.845   5.502
  153POPC   C4B 2269   1.504  10.045   5.664
  154POPC   NC3 2270   1.167   1.463   4.072
  154POPC   PO4 2271   1.554   0.938   3.797
  154POPC   GL1 2272   1.484   1.077   4.250
  154POPC   GL2 2273   1.148   1.020   4.383
  154POPC   C1A 2274   1.450   1.318   4.696
  154POPC   D2A 2275   1.304   1.390   5.135
  154POPC   C3A 2276   1.565   1.490   5.517
  154POPC   C4A 2277   1.568   1.271   5.930
  154POPC   C1B 2278   0.912   1.304   4.671
  154POPC   C2B 2279   0.783   1.387   5.073
  154POPC   C3B 2280   0.852   1.233   5.434
  154POPC   C4B 2281   1.096   1.249   5.729
  155POPC   NC3 2282   8.807   7.840   3.884
  155POPC   PO4 2283   8.273   8.313   3.814
  155POPC   GL1 2284   8.358   8.037   4.188
  155POPC   GL2 2285   8.704   8.015   4.335
  155POPC   C1A 2286   8.307   8.008   4.641
  155POPC   D2A 2287   8.560   8.150   4.983
  155POPC   C3A 2288   8.529   8.023   5.417
  155POPC   C4A 2289   8.307   7.998   5.803
  155POPC   C1B 2290   8.859   7.849   4.688
  155POPC   C2B 2291   8.822   7.707   5.103
  155POPC   C3B 2292   9.029   7.855   5.491
  155POPC   C4B 2293   8.833   7.827   5.916
  156POPC   NC3 2294   2.688   1.150   3.837
  156POPC   PO4 2295   3.096   1.557   3.605
  156POPC   GL1 2296   3.047   1.320   4.125
  156POPC   GL2 2297   2.699   1.344   4.295
  156POPC   C1A 2298   3.069   1.370   4.638
  156POPC   D2A 2299   3.000   1.064   5.005
  156POPC   C3A 2300   3.071   1.188   5.444
  156POPC   C4A 2301   2.881   1.050   5.850
  156POPC   C1B 2302   2.539   1.225   4.698
  156POPC   C2B 2303   2.603   1.395   5.119
  156POPC   C3B 2304   2.577   1.298   5.533
  156POPC   C4B 2305   2.310   0.985   5.621
  157POPC   NC3 2306   0.639   3.277   3.997
  157POPC   PO4 2307  10.479   3.393   3.845
  157POPC   GL1 2308   0.153   3.508   4.252
  157POPC   GL2 2309   0.379   3.250   4.417
  157POPC   C1A 2310   0.045   3.547   4.693
  157POPC   D2A 2311   0.291   3.487   5.050
  157POPC   C3A 2312   0.157   3.451   5.452
  157POPC   C4A 2313   0.326   3.134   5.730
  157POPC   C1B 2314   0.684   3.371   4.688
  157POPC   C2B 2315   0.809   3.483   5.068
  157POPC   C3B 2316   0.734   3.349   5.466
  157POPC   C4B 2317   0.531   3.624   5.749
  158POPC   NC3 2318   8.805   5.395   3.828
  158POPC   PO4 2319   8.867   6.068   3.930
  158POPC   GL1 2320   8.825   5.764   4.304
  158POPC   GL2 2321   8.507   5.744   4.263
  158POPC   C1A 2322   8.942   5.544   4.727
  158POPC   D2A 2323   8.741   5.510   5.124
  158POPC   C3A 2324   8.856   5.543   5.538
  158POPC   C4A 2325   8.533   5.388   5.809
  158POPC   C1B 2326   8.453   5.671   4.696
  158POPC   C2B 2327   8.257   5.696   5.084
  158POPC   C3B 2328   8.430   5.846   5.443
  158POPC   C4B 2329   8.535   5.885   5.861
  159POPC   NC3 2330   7.902   4.967   3.795
  159POPC   PO4 2331   8.410   4.793   3.902
  159POPC   GL1 2332   8.234   4.798   4.306
  159POPC   GL2 2333   7.871   4.793   4.313
  159POPC   C1A 2334   8.221   4.864   4.776
  159POPC   D2A 2335   8.101   4.654   5.183
  159POPC   C3A 2336   7.824   4.781   5.562
  159POPC   C4A 2337   7.934   4.651   5.998
  159POPC   C1B 2338   7.750   5.032   4.724
  159POPC   C2B 2339   7.836   5.151   5.194
  159POPC   C3B 2340   7.633   5.244   5.630
  159POPC   C4B 2341   7.694   5.316   6.088
  160POPC   NC3 2342   1.997  10.295   3.846
  160POPC   PO4 2343   1.484   0.258   3.835
  160POPC   GL1 2344   1.730   0.074   4.194
  160POPC   GL2 2345   1.565  10.269   4.295
  160POPC   C1A 2346   2.056   0.057   4.602
  160POPC   D2A 2347   2.169  10.433   5.069
  160POPC   C3A 2348   1.993   0.112   5.478
  160POPC   C4A 2349   2.152   0.060   5.928
  160POPC   C1B 2350   1.685  10.182   4.742
  160POPC   C2B 2351   1.829  10.049   5.175
  160POPC   C3B 2352   2.001  10.111   5.611
  160POPC   C4B 2353   1.807  10.229   6.034
  161POPC   NC3 2354   1.885   4.497   4.045
  161POPC   PO4 2355   1.859   3.840   3.821
  161POPC   GL1 2356   2.032   4.023   4.222
  161POPC   GL2 2357   1.782   4.096   4.434
  161POPC   C1A 2358   2.182   4.001   4.705
  161POPC   D2A 2359   1.950   4.112   5.094
  161POPC   C3A 2360   2.179   3.989   5.491
  161POPC   C4A 2361   2.200   3.928   5.956
  161POPC   C1B 2362   1.767   4.466   4.702
  161POPC   C2B 2363   1.788   4.673   5.097
  161POPC   C3B 2364   1.760   4.440   5.449
  161POPC   C4B 2365   1.781   4.166   5.765
  162POPC   NC3 2366   7.159   0.624   4.072
  162POPC   PO4 2367   7.650   0.351   3.830
  162POPC   GL1 2368   7.668   0.501   4.237
  162POPC   GL2 2369   7.427   0.259   4.383
  162POPC   C1A 2370   7.618   0.612   4.686
  162POPC   D2A 2371   7.503   0.436   5.122
  162POPC   C3A 2372   7.437   0.711   5.494
  162POPC   C4A 2373   7.457   0.704   5.962
  162POPC   C1B 2374   7.145   0.422   4.750
  162POPC   C2B 2375   7.021   0.244   5.137
  162POPC   C3B 2376   7.105   0.306   5.597
  162POPC   C4B 2377   7.036   0.411   6.049
  163POPC   NC3 2378   7.951   0.031   3.924
  163POPC   PO4 2379   8.606   0.086   3.741
  163POPC   GL1 2380   8.354   0.058   4.197
  163POPC   GL2 2381   8.200   0.434   4.139
  163POPC   C1A 2382   7.980   0.133   4.543
  163POPC   D2A 2383   7.756  10.469   4.924
  163POPC   C3A 2384   7.878   0.117   5.338
  163POPC   C4A 2385   7.616   0.269   5.658
  163POPC   C1B 2386   8.096   0.651   4.525
  163POPC   C2B 2387   8.028   0.444   4.950
  163POPC   C3B 2388   7.911   0.664   5.313
  163POPC   C4B 2389   7.915   0.682   5.737
  164POPC   NC3 2390   8.828  10.253   4.013
  164POPC   PO4 2391   8.781   9.608   3.855
  164POPC   GL1 2392   8.847   9.745   4.324
  164POPC   GL2 2393   8.647  10.014   4.423
  164POPC   C1A 2394   8.779   9.667   4.775
  164POPC   D2A 2395   8.800   9.944   5.089
  164POPC   C3A 2396   8.975   9.812   5.485
  164POPC   C4A 2397   8.789   9.907   5.862
  164POPC   C1B 2398   8.636  10.358   4.696
  164POPC   C2B 2399   8.532  10.450   5.114
  164POPC   C3B 2400   8.647  10.242   5.480
  164POPC   C4B 2401   8.643  10.392   5.867
  165POPC   NC3 2402   2.203   2.658   3.935
  165POPC   PO4 2403   1.590   2.665   3.769
  165POPC   GL1 2404   1.651   2.736   4.227
  165POPC   GL2 2405   1.968   2.736   4.366
  165POPC   C1A 2406   1.563   2.791   4.700
  165POPC   D2A 2407   1.767   2.759   5.117
  165POPC   C3A 2408   1.506   2.851   5.362
  165POPC   C4A 2409   1.557   2.798   5.733
  165POPC   C1B 2410   2.079   2.647   4.765
  165POPC   C2B 2411   2.344   2.485   5.060
  165POPC   C3B 2412   2.178   2.368   5.451
  165POPC   C4B 2413   2.031   2.637   5.760
  166POPC   NC3 2414   6.613   8.384   3.708
  166POPC   PO4 2415   6.136   8.832   3.856
  166POPC   GL1 2416   6.149   8.756   4.375
  166POPC   GL2 2417   6.514   8.804   4.544
  166POPC   C1A 2418   6.264   8.446   4.756
  166POPC   D2A 2419   6.504   8.594   5.125
  166POPC   C3A 2420   6.327   8.553   5.551
  166POPC   C4A 2421   6.195   8.188   5.805
  166POPC   C1B 2422   6.214   8.956   4.854
  166POPC   C2B 2423   6.212   9.034   5.279
  166POPC   C3B 2424   6.568   9.000   5.519
  166POPC   C4B 2425   6.620   9.000   5.948
  167POPC   NC3 2426  10.237   7.240   3.971
  167POPC   PO4 2427   9.800   6.837   3.858
  167POPC   GL1 2428   9.832   7.084   4.279
  167POPC   GL2 2429  10.183   7.157   4.450
  167POPC   C1A 2430   9.818   7.025   4.749
  167POPC   D2A 2431   9.975   6.873   5.120
  167POPC   C3A 2432  10.014   7.090   5.483
  167POPC   C4A 2433  10.056   6.985   5.875
  167POPC   C1B 2434  10.229   7.391   4.847
  167POPC   C2B 2435  10.429   7.198   5.220
  167POPC   C3B 2436   0.016   6.951   5.644
  167POPC   C4B 2437  10.497   7.050   6.129
  168POPC   NC3 2438   8.135   1.656   4.155
  168POPC   PO4 2439   8.178   0.978   3.885
  168POPC   GL1 2440   8.167   1.139   4.259
  168POPC   GL2 2441   7.796   1.048   4.268
  168POPC   C1A 2442   8.383   1.145   4.665
  168POPC   D2A 2443   8.244   0.887   4.995
  168POPC   C3A 2444   8.290   0.989   5.453
  168POPC   C4A 2445   8.172   1.096   5.890
  168POPC   C1B 2446   7.879   1.160   4.705
  168POPC   C2B 2447   7.910   1.221   5.155
  168POPC   C3B 2448   7.773   1.129   5.545
  168POPC   C4B 2449   7.592   1.500   5.712
  169POPC   NC3 2450   4.904   8.416   4.071
  169POPC   PO4 2451   4.797   9.110   3.934
  169POPC   GL1 2452   4.863   8.913   4.303
  169POPC   GL2 2453   4.574   8.707   4.337
  169POPC   C1A 2454   4.787   9.026   4.720
  169POPC   D2A 2455   4.611   8.908   5.073
  169POPC   C3A 2456   4.779   8.859   5.451
  169POPC   C4A 2457   4.941   8.712   5.829
  169POPC   C1B 2458   4.792   8.501   4.701
  169POPC   C2B 2459   4.934   8.525   5.115
  169POPC   C3B 2460   4.821   8.336   5.514
  169POPC   C4B 2461   4.936   8.198   5.931
  170POPC   NC3 2462   7.796   6.514   3.895
  170POPC   PO4 2463   7.558   7.043   4.067
  170POPC   GL1 2464   7.772   6.702   4.382
  170POPC   GL2 2465   8.040   6.457   4.338
  170POPC   C1A 2466   7.933   6.540   4.826
  170POPC   D2A 2467   7.795   6.344   5.222
  170POPC   C3A 2468   7.821   6.563   5.627
  170POPC   C4A 2469   8.024   6.522   6.015
  170POPC   C1B 2470   8.207   6.142   4.614
  170POPC   C2B 2471   8.335   6.206   5.027
  170POPC   C3B 2472   8.270   6.376   5.409
  170POPC   C4B 2473   8.076   6.099   5.720
  171POPC   NC3 2474   5.581   2.169   3.985
  171POPC   PO4 2475   5.281   1.634   3.801
  171POPC   GL1 2476   5.503   1.669   4.210
  171POPC   GL2 2477   5.842   1.831   4.272
  171POPC   C1A 2478   5.629   1.601   4.665
  171POPC   D2A 2479   5.824   1.747   5.041
  171POPC   C3A 2480   5.619   1.805   5.428
  171POPC   C4A 2481   5.800   1.583   5.744
  171POPC   C1B 2482   5.664   2.103   4.642
  171POPC   C2B 2483   5.773   2.250   5.079
  171POPC   C3B 2484   5.884   2.231   5.536
  171POPC   C4B 2485   5.674   2.376   5.935
  172POPC   NC3 2486   1.498   3.775   4.113
  172POPC   PO4 2487   0.972   3.452   3.742
  172POPC   GL1 2488   1.025   3.565   4.195
  172POPC   GL2 2489   1.038   3.226   4.345
  172POPC   C1A 2490   1.063   3.726   4.650
  172POPC   D2A 2491   1.269   3.726   5.089
  172POPC   C3A 2492   0.981   3.788   5.465
  172POPC   C4A 2493   1.017   3.577   5.867
  172POPC   C1B 2494   1.291   3.255   4.714
  172POPC   C2B 2495   1.205   3.190   5.128
  172POPC   C3B 2496   1.348   3.380   5.484
  172POPC   C4B 2497   1.406   3.251   5.884
  173POPC   NC3 2498   0.716   2.241   3.937
  173POPC   PO4 2499   0.761   2.850   4.132
  173POPC   GL1 2500   0.683   2.502   4.377
  173POPC   GL2 2501   0.351   2.604   4.431
  173POPC   C1A 2502   0.691   2.359   4.779
  173POPC   D2A 2503   0.508   2.482   5.148
  173POPC   C3A 2504   0.645   2.660   5.560
  173POPC   C4A 2505   0.384   2.457   5.837
  173POPC   C1B 2506   0.493   2.878   4.776
  173POPC   C2B 2507   0.464   2.995   5.211
  173POPC   C3B 2508   0.168   2.724   5.449
  173POPC   C4B 2509  10.471   2.760   5.839
  174POPC   NC3 2510   1.868   7.179   3.966
  174POPC   PO4 2511   2.503   7.120   3.915
  174POPC   GL1 2512   2.233   7.036   4.305
  174POPC   GL2 2513   1.970   7.290   4.442
  174POPC   C1A 2514   2.174   6.974   4.769
  174POPC   D2A 2515   2.116   7.252   5.135
  174POPC   C3A 2516   2.141   6.954   5.466
  174POPC   C4A 2517   2.060   6.842   5.879
  174POPC   C1B 2518   1.701   7.167   4.779
  174POPC   C2B 2519   1.688   6.982   5.190
  174POPC   C3B 2520   1.693   7.141   5.607
  174POPC   C4B 2521   1.671   7.406   5.962
  175POPC   NC3 2522   7.241   7.379   4.031
  175POPC   PO4 2523   6.765   7.946   3.854
  175POPC   GL1 2524   7.052   7.811   4.263
  175POPC   GL2 2525   7.358   8.002   4.384
  175POPC   C1A 2526   7.051   7.816   4.746
  175POPC   D2A 2527   7.243   7.784   5.187
  175POPC   C3A 2528   7.106   7.715   5.644
  175POPC   C4A 2529   7.069   7.375   5.965
  175POPC   C1B 2530   7.354   8.268   4.739
  175POPC   C2B 2531   7.388   8.419   5.151
  175POPC   C3B 2532   7.215   8.203   5.494
  175POPC   C4B 2533   7.272   8.134   5.914
  176POPC   NC3 2534   1.606   2.193   3.720
  176POPC   PO4 2535   1.622   1.572   4.117
  176POPC   GL1 2536   1.441   1.880   4.349
  176POPC   GL2 2537   1.126   1.754   4.490
  176POPC   C1A 2538   1.509   1.871   4.789
  176POPC   D2A 2539   1.422   1.960   5.193
  176POPC   C3A 2540   1.110   1.741   5.461
  176POPC   C4A 2541   1.240   1.666   5.916
  176POPC   C1B 2542   1.021   1.812   4.922
  176POPC   C2B 2543   0.934   2.157   5.180
  176POPC   C3B 2544   0.742   2.174   5.562
  176POPC   C4B 2545   0.972   2.096   5.899
  177POPC   NC3 2546   4.955   0.511   3.853
  177POPC   PO4 2547   4.348   0.653   4.146
  177POPC   GL1 2548   4.591   0.567   4.467
  177POPC   GL2 2549   4.765   0.306   4.289
  177POPC   C1A 2550   4.610   0.542   4.923
  177POPC   D2A 2551   4.671   0.345   5.290
  177POPC   C3A 2552   4.756   0.596   5.606
  177POPC   C4A 2553   4.761   0.261   5.837
  177POPC   C1B 2554   4.991   0.301   4.669
  177POPC   C2B 2555   5.103   0.488   5.070
  177POPC   C3B 2556   5.161   0.329   5.440
  177POPC   C4B 2557   5.267   0.394   5.813
  178POPC   NC3 2558   3.478   1.854   3.874
  178POPC   PO4 2559   2.901   1.777   4.051
  178POPC   GL1 2560   3.236   1.771   4.337
  178POPC   GL2 2561   3.421   2.057   4.362
  178POPC   C1A 2562   3.204   1.851   4.798
  178POPC   D2A 2563   3.393   1.940   5.191
  178POPC   C3A 2564   3.205   1.674   5.454
  178POPC   C4A 2565   2.952   1.589   5.808
  178POPC   C1B 2566   3.360   2.325   4.746
  178POPC   C2B 2567   3.600   2.412   5.106
  178POPC   C3B 2568   3.750   2.273   5.500
  178POPC   C4B 2569   3.476   2.016   5.716
  179POPC   NC3 2570   6.483   2.255   3.950
  179POPC   PO4 2571   6.735   1.612   3.885
  179POPC   GL1 2572   6.723   1.886   4.268
  179POPC   GL2 2573   6.360   1.892   4.301
  179POPC   C1A 2574   6.640   1.978   4.732
  179POPC   D2A 2575   6.744   1.853   5.160
  179POPC   C3A 2576   6.612   2.133   5.502
  179POPC   C4A 2577   6.639   1.848   5.839
  179POPC   C1B 2578   6.143   1.955   4.705
  179POPC   C2B 2579   6.239   2.040   5.157
  179POPC   C3B 2580   6.211   1.812   5.549
  179POPC   C4B 2581   6.266   1.518   5.952
  180POPC   NC3 2582   9.016   0.263   3.749
  180POPC   PO4 2583   9.358  10.413   4.144
  180POPC   GL1 2584   8.970   0.077   4.368
  180POPC   GL2 2585   8.735   0.361   4.269
  180POPC   C1A 2586   8.919   0.286   4.758
  180POPC   D2A 2587   9.134   0.359   5.121
  180POPC   C3A 2588   8.940   0.179   5.454
  180POPC   C4A 2589   8.781   0.371   5.793
  180POPC   C1B 2590   8.585   0.635   4.659
  180POPC   C2B 2591   8.562   0.491   5.111
  180POPC   C3B 2592   8.338   0.432   5.520
  180POPC   C4B 2593   8.356   0.572   5.970
  181POPC   NC3 2594  10.358   0.616   4.016
  181POPC   PO4 2595   9.735   0.559   3.745
  181POPC   GL1 2596   9.911   0.548   4.241
  181POPC   GL2 2597  10.217   0.427   4.464
  181POPC   C1A 2598   9.757   0.421   4.642
  181POPC   D2A 2599   9.642   0.433   5.053
  181POPC   C3A 2600   9.912   0.457   5.400
  181POPC   C4A 2601   9.980   0.213   5.764
  181POPC   C1B 2602  10.166   0.500   4.898
  181POPC   C2B 2603  10.186   0.800   5.174
  181POPC   C3B 2604  10.330   0.698   5.573
  181POPC   C4B 2605  10.457   0.737   6.002
  182POPC   NC3 2606   8.542   2.436   3.927
  182POPC   PO4 2607   9.043   2.917   3.932
  182POPC   GL1 2608   8.934   2.768   4.300
  182POPC   GL2 2609   8.587   2.884   4.287
  182POPC   C1A 2610   9.136   2.704   4.707
  182POPC   D2A 2611   8.984   2.897   5.076
  182POPC   C3A 2612   9.027   2.629   5.438
  182POPC   C4A 2613   8.855   2.660   5.842
  182POPC   C1B 2614   8.576   2.565   4.610
  182POPC   C2B 2615   8.639   2.519   5.052
  182POPC   C3B 2616   8.539   2.809   5.360
  182POPC   C4B 2617   8.344   2.764   5.729
  183POPC   NC3 2618   4.741  10.199   3.739
  183POPC   PO4 2619   5.297   0.096   3.898
  183POPC   GL1 2620   5.196  10.454   4.268
  183POPC   GL2 2621   5.005  10.163   4.176
  183POPC   C1A 2622   5.323  10.418   4.683
  183POPC   D2A 2623   5.054  10.457   5.048
  183POPC   C3A 2624   5.235  10.337   5.417
  183POPC   C4A 2625   5.032  10.346   5.780
  183POPC   C1B 2626   4.801  10.271   4.572
  183POPC   C2B 2627   4.780  10.030   4.973
  183POPC   C3B 2628   4.963   9.893   5.363
  183POPC   C4B 2629   4.757   9.914   5.780
  184POPC   NC3 2630   9.504   0.765   4.080
  184POPC   PO4 2631  10.060   1.071   4.017
  184POPC   GL1 2632   9.760   1.103   4.368
  184POPC   GL2 2633   9.372   1.099   4.419
  184POPC   C1A 2634   9.784   0.913   4.785
  184POPC   D2A 2635   9.673   0.883   5.242
  184POPC   C3A 2636   9.900   1.031   5.570
  184POPC   C4A 2637   9.543   1.280   5.680
  184POPC   C1B 2638   9.482   1.355   4.762
  184POPC   C2B 2639   9.426   1.350   5.191
  184POPC   C3B 2640   9.087   1.243   5.470
  184POPC   C4B 2641   9.008   1.466   5.843
  185POPC   NC3 2642   2.488   8.779   3.951
  185POPC   PO4 2643   2.912   8.283   3.689
  185POPC   GL1 2644   2.798   8.435   4.188
  185POPC   GL2 2645   2.451   8.535   4.389
  185POPC   C1A 2646   2.868   8.614   4.653
  185POPC   D2A 2647   2.961   8.713   5.099
  185POPC   C3A 2648   2.756   9.055   5.356
  185POPC   C4A 2649   2.843   8.920   5.784
  185POPC   C1B 2650   2.233   8.382   4.754
  185POPC   C2B 2651   2.424   8.549   5.098
  185POPC   C3B 2652   2.634   8.574   5.481
  185POPC   C4B 2653   2.547   8.402   5.880
  186POPC   NC3 2654   7.309  10.216   3.827
  186POPC   PO4 2655   6.952   0.238   4.171
  186POPC   GL1 2656   7.071  10.326   4.303
  186POPC   GL2 2657   7.059   9.968   4.190
  186POPC   C1A 2658   6.834  10.158   4.644
  186POPC   D2A 2659   6.679  10.370   4.992
  186POPC   C3A 2660   6.872  10.341   5.408
  186POPC   C4A 2661   6.832  10.442   5.840
  186POPC   C1B 2662   7.240   9.865   4.617
  186POPC   C2B 2663   7.180  10.064   5.027
  186POPC   C3B 2664   7.078   9.863   5.417
  186POPC   C4B 2665   7.194  10.091   5.767
  187POPC   NC3 2666   7.138   9.231   3.789
  187POPC   PO4 2667   7.502   9.808   4.002
  187POPC   GL1 2668   7.344   9.451   4.279
  187POPC   GL2 2669   7.026   9.259   4.270
  187POPC   C1A 2670   7.186   9.359   4.730
  187POPC   D2A 2671   7.303   9.576   5.073
  187POPC   C3A 2672   7.346   9.370   5.439
  187POPC   C4A 2673   7.293   9.572   5.802
  187POPC   C1B 2674   6.814   9.631   4.475
  187POPC   C2B 2675   6.826   9.691   4.930
  187POPC   C3B 2676   6.874   9.340   5.270
  187POPC   C4B 2677   7.050   9.060   5.676
  188POPC   NC3 2678   9.209   8.900   3.891
  188POPC   PO4 2679   9.768   8.590   3.837
  188POPC   GL1 2680   9.705   8.754   4.215
  188POPC   GL2 2681   9.406   8.629   4.308
  188POPC   C1A 2682   9.751   8.800   4.658
  188POPC   D2A 2683   9.597   8.886   5.088
  188POPC   C3A 2684   9.842   8.828   5.455
  188POPC   C4A 2685   9.779   8.898   5.894
  188POPC   C1B 2686   9.236   8.808   4.714
  188POPC   C2B 2687   9.117   8.721   5.134
  188POPC   C3B 2688   9.267   8.762   5.575
  188POPC   C4B 2689   8.970   8.681   5.910
  189POPC   NC3 2690   3.642  10.128   3.780
  189POPC   PO4 2691   2.958   9.764   3.818
  189POPC   GL1 2692   3.124   9.748   4.229
  189POPC   GL2 2693   3.404   9.959   4.204
  189POPC   C1A 2694   2.970   9.864   4.654
  189POPC   D2A 2695   3.078  10.064   5.057
  189POPC   C3A 2696   3.031   9.876   5.463
  189POPC   C4A 2697   3.238   9.833   5.859
  189POPC   C1B 2698   3.420  10.103   4.636
  189POPC   C2B 2699   3.606  10.112   5.063
  189POPC   C3B 2700   3.530  10.180   5.490
  189POPC   C4B 2701   3.833   0.004   5.697
  190POPC   NC3 2702   8.339   9.392   3.866
  190POPC   PO4 2703   8.385  10.040   3.979
  190POPC   GL1 2704   8.380   9.585   4.312
  190POPC   GL2 2705   8.702   9.285   4.235
  190POPC   C1A 2706   8.470   9.256   4.664
  190POPC   D2A 2707   8.652   9.206   5.065
  190POPC   C3A 2708   8.608   9.530   5.298
  190POPC   C4A 2709   8.635   9.460   5.716
  190POPC   C1B 2710   8.969   9.225   4.604
  190POPC   C2B 2711   9.144   9.336   5.023
  190POPC   C3B 2712   9.060   9.293   5.463
  190POPC   C4B 2713   9.104   9.490   5.885
  191POPC   NC3 2714   2.566   0.485   3.874
  191POPC   PO4 2715   3.065   0.848   3.750
  191POPC   GL1 2716   2.729   0.808   4.200
  191POPC   GL2 2717   2.873   0.447   4.272
  191POPC   C1A 2718   2.721   0.747   4.686
  191POPC   D2A 2719   2.518   0.858   5.076
  191POPC   C3A 2720   2.738   0.811   5.406
  191POPC   C4A 2721   2.651   0.601   5.751
  191POPC   C1B 2722   2.552   0.287   4.559
  191POPC   C2B 2723   2.443   0.357   4.978
  191POPC   C3B 2724   2.460   0.289   5.398
  191POPC   C4B 2725   2.621   0.087   5.747
  192POPC   NC3 2726   8.796   6.540   3.870
  192POPC   PO4 2727   8.169   6.784   3.965
  192POPC   GL1 2728   8.501   6.645   4.278
  192POPC   GL2 2729   8.537   6.284   4.255
  192POPC   C1A 2730   8.475   6.600   4.729
  192POPC   D2A 2731   8.741   6.545   5.111
  192POPC   C3A 2732   8.723   6.739   5.550
  192POPC   C4A 2733   8.912   6.678   5.996
  192POPC   C1B 2734   8.731   6.124   4.653
  192POPC   C2B 2735   8.797   6.011   5.087
  192POPC   C3B 2736   8.770   6.210   5.498
  192POPC   C4B 2737   8.501   6.379   5.850
  193POPC   NC3 2738   9.747   8.102   3.849
  193POPC   PO4 2739   9.041   8.248   3.975
  193POPC   GL1 2740   9.223   8.163   4.341
  193POPC   GL2 2741   9.556   8.109   4.327
  193POPC   C1A 2742   9.462   8.354   4.752
  193POPC   D2A 2743   9.587   8.103   5.115
  193POPC   C3A 2744   9.439   8.230   5.543
  193POPC   C4A 2745   9.159   8.197   5.916
  193POPC   C1B 2746   9.365   7.864   4.702
  193POPC   C2B 2747   9.335   7.652   5.101
  193POPC   C3B 2748   9.552   7.686   5.507
  193POPC   C4B 2749   9.858   7.659   5.863
  194POPC   NC3 2750   1.236   2.909   3.961
  194POPC   PO4 2751   1.129   2.275   3.722
  194POPC   GL1 2752   1.188   2.326   4.197
  194POPC   GL2 2753   1.175   2.652   4.382
  194POPC   C1A 2754   1.181   2.249   4.675
  194POPC   D2A 2755   1.352   2.452   5.054
  194POPC   C3A 2756   1.186   2.446   5.525
  194POPC   C4A 2757   1.350   2.413   5.962
  194POPC   C1B 2758   1.015   2.810   4.757
  194POPC   C2B 2759   0.956   2.752   5.177
  194POPC   C3B 2760   1.066   2.947   5.581
  194POPC   C4B 2761   0.817   3.059   5.881
  195POPC   NC3 2762   6.758   1.176   3.677
  195POPC   PO4 2763   7.381   1.102   3.902
  195POPC   GL1 2764   7.064   1.124   4.197
  195POPC   GL2 2765   7.072   1.416   4.399
  195POPC   C1A 2766   6.928   0.879   4.606
  195POPC   D2A 2767   7.010   1.008   4.985
  195POPC   C3A 2768   6.970   0.724   5.295
  195POPC   C4A 2769   6.824   0.738   5.694
  195POPC   C1B 2770   7.386   1.091   4.594
  195POPC   C2B 2771   7.508   0.962   5.023
  195POPC   C3B 2772   7.330   1.191   5.332
  195POPC   C4B 2773   7.253   1.116   5.734
  196POPC   NC3 2774   1.904   1.256   3.922
  196POPC   PO4 2775   2.416   1.549   3.896
  196POPC   GL1 2776   2.193   1.484   4.291
  196POPC   GL2 2777   2.187   1.108   4.333
  196POPC   C1A 2778   2.037   1.410   4.720
  196POPC   D2A 2779   2.111   1.154   5.076
  196POPC   C3A 2780   2.093   1.406   5.435
  196POPC   C4A 2781   2.104   1.390   5.875
  196POPC   C1B 2782   1.820   0.973   4.619
  196POPC   C2B 2783   1.648   0.941   5.063
  196POPC   C3B 2784   1.777   1.002   5.517
  196POPC   C4B 2785   1.928   0.936   5.963
  197POPC   NC3 2786   3.391   9.206   3.992
  197POPC   PO4 2787   4.077   9.144   4.091
  197POPC   GL1 2788   3.736   9.151   4.374
  197POPC   GL2 2789   3.635   9.503   4.344
  197POPC   C1A 2790   3.706   9.215   4.829
  197POPC   D2A 2791   3.696   9.192   5.268
  197POPC   C3A 2792   3.883   9.564   5.417
  197POPC   C4A 2793   3.720   9.749   5.768
  197POPC   C1B 2794   3.357   9.551   4.673
  197POPC   C2B 2795   3.405   9.651   5.096
  197POPC   C3B 2796   3.364   9.509   5.483
  197POPC   C4B 2797   3.036   9.381   5.734
  198POPC   NC3 2798   8.457  10.265   3.403
  198POPC   PO4 2799   7.814  10.166   3.702
  198POPC   GL1 2800   7.902  10.145   4.209
  198POPC   GL2 2801   7.587  10.270   4.274
  198POPC   C1A 2802   8.180  10.160   4.587
  198POPC   D2A 2803   8.296   9.957   4.987
  198POPC   C3A 2804   8.119  10.137   5.377
  198POPC   C4A 2805   8.139  10.417   5.753
  198POPC   C1B 2806   7.703  10.032   4.645
  198POPC   C2B 2807   7.710   9.924   5.048
  198POPC   C3B 2808   7.576  10.110   5.409
  198POPC   C4B 2809   7.772  10.037   5.782
  199POPC   NC3 2810   4.880   1.889   3.721
  199POPC   PO4 2811   4.464   2.309   3.935
  199POPC   GL1 2812   4.732   1.968   4.205
  199POPC   GL2 2813   4.951   1.656   4.202
  199POPC   C1A 2814   4.655   1.734   4.616
  199POPC   D2A 2815   4.844   1.800   5.024
  199POPC   C3A 2816   4.655   1.673   5.427
  199POPC   C4A 2817   4.670   1.870   5.850
  199POPC   C1B 2818   5.171   1.812   4.587
  199POPC   C2B 2819   5.331   1.939   5.020
  199POPC   C3B 2820   5.104   1.979   5.447
  199POPC   C4B 2821   5.136   2.221   5.843
  200POPC   NC3 2822   2.525   2.012   4.133
  200POPC   PO4 2823   2.095   2.251   3.697
  200POPC   GL1 2824   1.898   2.274   4.127
  200POPC   GL2 2825   1.975   1.958   4.229
  200POPC   C1A 2826   1.701   2.315   4.564
  200POPC   D2A 2827   1.856   2.253   5.027
  200POPC   C3A 2828   1.676   2.343   5.446
  200POPC   C4A 2829   1.463   2.030   5.679
  200POPC   C1B 2830   1.993   1.910   4.668
  200POPC   C2B 2831   1.877   1.730   5.110
  200POPC   C3B 2832   1.949   1.879   5.562
  200POPC   C4B 2833   1.760   1.737   5.979
  201POPC   NC3 2834   3.036   3.532   4.037
  201POPC   PO4 2835   2.446   3.166   3.898
  201POPC   GL1 2836   2.393   3.313   4.295
  201POPC   GL2 2837   2.745   3.302   4.437
  201POPC   C1A 2838   2.319   3.476   4.704
  201POPC   D2A 2839   2.613   3.349   5.036
  201POPC   C3A 2840   2.531   3.340   5.448
  201POPC   C4A 2841   2.819   3.267   5.803
  201POPC   C1B 2842   2.763   3.720   4.729
  201POPC   C2B 2843   2.576   3.845   5.189
  201POPC   C3B 2844   2.630   3.783   5.695
  201POPC   C4B 2845   2.881   3.682   6.104
  202POPC   NC3 2846   5.211   9.324   3.861
  202POPC   PO4 2847   4.730   9.769   3.907
  202POPC   GL1 2848   4.831   9.691   4.341
  202POPC   GL2 2849   5.044   9.402   4.335
  202POPC   C1A 2850   4.878   9.557   4.791
  202POPC   D2A 2851   4.650   9.405   5.124
  202POPC   C3A 2852   4.779   9.432   5.537
  202POPC   C4A 2853   4.682   9.147   5.844
  202POPC   C1B 2854   5.260   9.215   4.696
  202POPC   C2B 2855   5.104   9.087   5.143
  202POPC   C3B 2856   5.182   9.107   5.629
  202POPC   C4B 2857   5.199   9.073   6.098
  203POPC   NC3 2858   9.350   2.547   4.072
  203POPC   PO4 2859   9.731   1.908   3.960
  203POPC   GL1 2860   9.708   2.246   4.313
  203POPC   GL2 2861   9.636   2.605   4.468
  203POPC   C1A 2862   9.423   2.206   4.688
  203POPC   D2A 2863   9.292   2.262   5.132
  203POPC   C3A 2864   9.673   2.331   5.380
  203POPC   C4A 2865   9.728   2.393   5.816
  203POPC   C1B 2866   9.678   2.580   4.891
  203POPC   C2B 2867   9.448   2.748   5.171
  203POPC   C3B 2868   9.551   2.782   5.562
  203POPC   C4B 2869   9.351   2.733   5.910
  204POPC   NC3 2870   2.239   5.103   4.113
  204POPC   PO4 2871   1.595   4.916   3.981
  204POPC   GL1 2872   1.721   5.149   4.323
  204POPC   GL2 2873   1.922   4.862   4.418
  204POPC   C1A 2874   1.696   5.429   4.734
  204POPC   D2A 2875   1.884   5.428   5.162
  204POPC   C3A 2876   1.643   5.423   5.556
  204POPC   C4A 2877   1.808   5.141   5.897
  204POPC   C1B 2878   2.055   5.053   4.800
  204POPC   C2B 2879   2.199   4.962   5.207
  204POPC   C3B 2880   2.060   4.839   5.557
  204POPC   C4B 2881   2.189   4.459   5.707
  205POPC   NC3 2882   2.214   5.698   3.661
  205POPC   PO4 2883   1.604   5.739   3.889
  205POPC   GL1 2884   1.960   5.562   4.134
  205POPC   GL2 2885   2.146   5.858   4.158
  205POPC   C1A 2886   2.169   5.542   4.578
  205POPC   D2A 2887   2.134   5.793   4.933
  205POPC   C3A 2888   2.277   5.759   5.385
  205POPC   C4A 2889   2.169   5.353   5.587
  205POPC   C1B 2890   1.802   5.897   4.501
  205POPC   C2B 2891   1.692   6.020   4.909
  205POPC   C3B 2892   1.792   5.932   5.334
  205POPC   C4B 2893   1.927   5.823   5.750
  206POPC   NC3 2894   5.682   0.569   3.914
  206POPC   PO4 2895   6.064   0.064   3.963
  206POPC   GL1 2896   5.869   0.190   4.332
  206POPC   GL2 2897   5.720   0.510   4.398
  206POPC   C1A 2898   5.782   0.135   4.761
  206POPC   D2A 2899   5.510   0.186   5.082
  206POPC   C3A 2900   5.660   0.156   5.462
  206POPC   C4A 2901   6.060   0.232   5.616
  206POPC   C1B 2902   5.464   0.568   4.710
  206POPC   C2B 2903   5.521   0.784   5.074
  206POPC   C3B 2904   5.385   0.795   5.486
  206POPC   C4B 2905   5.706   0.597   5.706
  207POPC   NC3 2906   6.347   1.314   3.968
  207POPC   PO4 2907   6.749   0.792   3.947
  207POPC   GL1 2908   6.582   1.080   4.323
  207POPC   GL2 2909   6.244   1.065   4.411
  207POPC   C1A 2910   6.567   1.203   4.775
  207POPC   D2A 2911   6.541   0.999   5.175
  207POPC   C3A 2912   6.817   1.208   5.445
  207POPC   C4A 2913   6.839   1.385   5.839
  207POPC   C1B 2914   6.110   1.420   4.677
  207POPC   C2B 2915   6.288   1.530   5.082
  207POPC   C3B 2916   6.272   1.316   5.473
  207POPC   C4B 2917   6.443   1.062   5.782
  208POPC   NC3 2918   7.057   2.997   3.604
  208POPC   PO4 2919   6.635   2.695   3.987
  208POPC   GL1 2920   6.985   2.680   4.267
  208POPC   GL2 2921   7.045   2.306   4.220
  208POPC   C1A 2922   7.196   2.901   4.647
  208POPC   D2A 2923   7.099   2.997   5.096
  208POPC   C3A 2924   7.313   2.977   5.512
  208POPC   C4A 2925   7.221   3.056   5.979
  208POPC   C1B 2926   7.340   2.426   4.530
  208POPC   C2B 2927   7.307   2.531   4.977
  208POPC   C3B 2928   7.450   2.492   5.413
  208POPC   C4B 2929   7.285   2.563   5.825
  209POPC   NC3 2930   9.866   3.721   3.606
  209POPC   PO4 2931  10.365   4.066   3.816
  209POPC   GL1 2932  10.198   4.161   4.234
  209POPC   GL2 2933  10.310   4.420   4.378
  209POPC   C1A 2934   9.930   4.176   4.603
  209POPC   D2A 2935   9.718   4.332   4.974
  209POPC   C3A 2936   9.938   4.097   5.262
  209POPC   C4A 2937  10.027   4.062   5.649
  209POPC   C1B 2938  10.439   4.074   4.682
  209POPC   C2B 2939  10.413   3.917   5.101
  209POPC   C3B 2940  10.429   4.248   5.404
  209POPC   C4B 2941  10.368   4.400   5.790
  210POPC   NC3 2942   7.948   3.238   3.991
  210POPC   PO4 2943   8.161   3.763   4.060
  210POPC   GL1 2944   8.109   3.481   4.423
  210POPC   GL2 2945   8.096   3.087   4.476
  210POPC   C1A 2946   8.180   3.469   4.862
  210POPC   D2A 2947   8.130   3.147   5.186
  210POPC   C3A 2948   8.045   3.338   5.592
  210POPC   C4A 2949   7.937   3.660   5.919
  210POPC   C1B 2950   7.744   3.237   4.789
  210POPC   C2B 2951   7.633   3.326   5.255
  210POPC   C3B 2952   7.539   3.401   5.710
  210POPC   C4B 2953   7.588   3.382   6.172
  211POPC   NC3 2954   0.310   8.900   3.991
  211POPC   PO4 2955   0.600   8.341   3.942
  211POPC   GL1 2956   0.519   8.505   4.320
  211POPC   GL2 2957   0.172   8.583   4.358
  211POPC   C1A 2958   0.425   8.359   4.723
  211POPC   D2A 2959   0.446   8.094   5.056
  211POPC   C3A 2960   0.433   8.319   5.426
  211POPC   C4A 2961   0.492   8.578   5.775
  211POPC   C1B 2962   0.413   8.908   4.631
  211POPC   C2B 2963   0.452   9.078   5.038
  211POPC   C3B 2964   0.346   8.880   5.399
  211POPC   C4B 2965   0.158   8.979   5.772
  212POPC   NC3 2966   2.338   6.689   3.915
  212POPC   PO4 2967   1.701   6.733   3.941
  212POPC   GL1 2968   1.753   6.808   4.362
  212POPC   GL2 2969   2.021   6.559   4.350
  212POPC   C1A 2970   1.772   6.650   4.797
  212POPC   D2A 2971   1.713   6.440   5.176
  212POPC   C3A 2972   1.744   6.612   5.565
  212POPC   C4A 2973   1.850   6.378   5.968
  212POPC   C1B 2974   2.119   6.259   4.688
  212POPC   C2B 2975   2.187   6.244   5.135
  212POPC   C3B 2976   2.123   6.259   5.560
  212POPC   C4B 2977   2.370   6.409   5.896
  213POPC   NC3 2978  10.112   4.456   3.836
  213POPC   PO4 2979  10.000   5.144   3.718
  213POPC   GL1 2980   9.972   4.864   4.126
  213POPC   GL2 2981  10.288   4.922   4.220
  213POPC   C1A 2982   9.969   4.693   4.606
  213POPC   D2A 2983  10.206   4.467   4.979
  213POPC   C3A 2984  10.026   4.573   5.409
  213POPC   C4A 2985   9.871   4.509   5.854
  213POPC   C1B 2986  10.229   5.130   4.620
  213POPC   C2B 2987  10.166   4.974   5.036
  213POPC   C3B 2988  10.082   5.073   5.466
  213POPC   C4B 2989  10.190   4.887   5.835
  214POPC   NC3 2990   3.309   2.566   3.759
  214POPC   PO4 2991   3.210   3.128   4.114
  214POPC   GL1 2992   3.506   2.781   4.231
  214POPC   GL2 2993   3.278   2.543   4.289
  214POPC   C1A 2994   3.739   2.696   4.644
  214POPC   D2A 2995   3.816   2.881   5.071
  214POPC   C3A 2996   3.701   2.784   5.515
  214POPC   C4A 2997   3.601   2.645   5.946
  214POPC   C1B 2998   3.261   2.824   4.690
  214POPC   C2B 2999   3.264   2.786   5.143
  214POPC   C3B 3000   3.216   2.604   5.575
  214POPC   C4B 3001   3.112   2.833   5.959
  215POPC   NC3 3002   1.499   8.861   3.827
  215POPC   PO4 3003   2.169   9.187   3.835
  215POPC   GL1 3004   2.055   8.937   4.191
  215POPC   GL2 3005   1.793   8.671   4.222
  215POPC   C1A 3006   2.056   8.840   4.631
  215POPC   D2A 3007   1.897   8.690   5.039
  215POPC   C3A 3008   2.090   8.749   5.423
  215POPC   C4A 3009   2.296   8.827   5.779
  215POPC   C1B 3010   1.693   8.447   4.633
  215POPC   C2B 3011   1.683   8.170   4.986
  215POPC   C3B 3012   1.882   8.222   5.374
  215POPC   C4B 3013   2.046   8.362   5.763
  216POPC   NC3 3014   0.455   9.549   3.662
  216POPC   PO4 3015  10.411   9.047   3.781
  216POPC   GL1 3016  10.481   9.135   4.277
  216POPC   GL2 3017   0.314   9.324   4.318
  216POPC   C1A 3018   0.023   9.239   4.743
  216POPC   D2A 3019   0.187   9.557   5.024
  216POPC   C3A 3020   0.300   9.397   5.429
  216POPC   C4A 3021   0.022   9.539   5.730
  216POPC   C1B 3022   0.566   9.439   4.708
  216POPC   C2B 3023   0.717   9.557   5.159
  216POPC   C3B 3024   0.651   9.743   5.636
  216POPC   C4B 3025   0.750   9.678   6.137
  217POPC   NC3 3026   4.194   7.888   3.932
  217POPC   PO4 3027   3.693   8.252   3.852
  217POPC   GL1 3028   3.778   8.024   4.288
  217POPC   GL2 3029   4.147   7.938   4.430
  217POPC   C1A 3030   3.766   7.814   4.723
  217POPC   D2A 3031   3.791   8.038   5.122
  217POPC   C3A 3032   3.879   7.808   5.525
  217POPC   C4A 3033   4.165   7.745   5.876
  217POPC   C1B 3034   4.278   8.079   4.863
  217POPC   C2B 3035   4.307   7.963   5.294
  217POPC   C3B 3036   4.634   7.863   5.618
  217POPC   C4B 3037   4.844   7.684   5.992
  218POPC   NC3 3038   0.629   7.047   4.039
  218POPC   PO4 3039   0.071   7.118   3.664
  218POPC   GL1 3040   0.170   7.161   4.202
  218POPC   GL2 3041   0.428   7.428   4.335
  218POPC   C1A 3042   0.168   7.163   4.690
  218POPC   D2A 3043   0.415   7.324   5.063
  218POPC   C3A 3044   0.314   7.356   5.513
  218POPC   C4A 3045   0.287   7.417   5.971
  218POPC   C1B 3046   0.696   7.158   4.661
  218POPC   C2B 3047   0.885   7.043   5.042
  218POPC   C3B 3048   0.815   7.279   5.399
  218POPC   C4B 3049   0.679   7.136   5.796
  219POPC   NC3 3050   0.849   0.618   4.155
  219POPC   PO4 3051   0.265   0.443   3.817
  219POPC   GL1 3052   0.385   0.406   4.216
  219POPC   GL2 3053   0.138   0.200   4.272
  219POPC   C1A 3054   0.433   0.500   4.650
  219POPC   D2A 3055   0.695   0.480   5.014
  219POPC   C3A 3056   0.767   0.713   5.390
  219POPC   C4A 3057   0.750   0.464   5.769
  219POPC   C1B 3058   0.055   0.135   4.708
  219POPC   C2B 3059   0.133   0.399   5.045
  219POPC   C3B 3060   0.356   0.405   5.398
  219POPC   C4B 3061   0.180   0.363   5.755
  220POPC   NC3 3062   6.267   2.865   4.196
  220POPC   PO4 3063   6.014   2.290   4.028
  220POPC   GL1 3064   6.226   2.381   4.410
  220POPC   GL2 3065   6.571   2.398   4.408
  220POPC   C1A 3066   6.356   2.428   4.850
  220POPC   D2A 3067   6.485   2.675   5.189
  220POPC   C3A 3068   6.290   2.557   5.569
  220POPC   C4A 3069   6.254   2.753   5.997
  220POPC   C1B 3070   6.864   2.435   4.703
  220POPC   C2B 3071   6.856   2.340   5.092
  220POPC   C3B 3072   6.948   2.600   5.409
  220POPC   C4B 3073   6.756   2.622   5.780
  221POPC   NC3 3074   1.745   8.169   4.043
  221POPC   PO4 3075   1.592   7.529   3.959
  221POPC   GL1 3076   1.998   7.738   4.204
  221POPC   GL2 3077   1.985   8.047   4.456
  221POPC   C1A 3078   2.276   7.671   4.620
  221POPC   D2A 3079   2.240   7.922   5.006
  221POPC   C3A 3080   2.133   7.709   5.396
  221POPC   C4A 3081   2.148   7.432   5.745
  221POPC   C1B 3082   1.752   7.736   4.675
  221POPC   C2B 3083   1.737   7.583   5.073
  221POPC   C3B 3084   1.630   7.642   5.477
  221POPC   C4B 3085   1.817   7.896   5.773
  222POPC   NC3 3086   1.087   7.802   3.898
  222POPC   PO4 3087   1.379   8.456   4.007
  222POPC   GL1 3088   1.325   8.217   4.354
  222POPC   GL2 3089   1.436   7.870   4.287
  222POPC   C1A 3090   1.174   8.271   4.778
  222POPC   D2A 3091   0.951   8.197   5.169
  222POPC   C3A 3092   1.271   8.267   5.486
  222POPC   C4A 3093   1.534   8.309   5.867
  222POPC   C1B 3094   1.229   7.790   4.619
  222POPC   C2B 3095   1.291   7.819   5.032
  222POPC   C3B 3096   1.120   7.778   5.406
  222POPC   C4B 3097   1.288   7.861   5.785
  223POPC   NC3 3098   0.230   7.923   3.874
  223POPC   PO4 3099   0.762   7.834   3.567
  223POPC   GL1 3100   0.658   7.872   4.144
  223POPC   GL2 3101   0.341   7.994   4.354
  223POPC   C1A 3102   0.747   7.942   4.634
  223POPC   D2A 3103   0.800   7.655   5.000
  223POPC   C3A 3104   0.615   7.777   5.408
  223POPC   C4A 3105   0.788   8.093   5.702
  223POPC   C1B 3106   0.243   7.731   4.741
  223POPC   C2B 3107   0.090   7.716   5.186
  223POPC   C3B 3108   0.156   7.821   5.633
  223POPC   C4B 3109   0.148   8.204   5.855
  224POPC   NC3 3110  10.189   3.704   4.035
  224POPC   PO4 3111   9.829   3.250   3.601
  224POPC   GL1 3112   9.874   3.200   4.122
  224POPC   GL2 3113  10.202   3.229   4.236
  224POPC   C1A 3114   9.916   3.392   4.616
  224POPC   D2A 3115  10.170   3.408   5.042
  224POPC   C3A 3116  10.107   3.587   5.479
  224POPC   C4A 3117   9.906   3.665   5.925
  224POPC   C1B 3118  10.462   3.036   4.534
  224POPC   C2B 3119   0.012   3.031   4.988
  224POPC   C3B 3120  10.335   3.080   5.420
  224POPC   C4B 3121  10.336   3.262   5.850
  225POPC   NC3 3122   1.783   0.578   3.975
  225POPC   PO4 3123   2.297   0.877   3.870
  225POPC   GL1 3124   2.222   0.594   4.254
  225POPC   GL2 3125   1.853   0.497   4.447
  225POPC   C1A 3126   2.230   0.702   4.675
  225POPC   D2A 3127   1.946   0.517   4.948
  225POPC   C3A 3128   2.093   0.634   5.331
  225POPC   C4A 3129   2.151   0.526   5.765
  225POPC   C1B 3130   1.570   0.192   4.662
  225POPC   C2B 3131   1.622   0.097   5.086
  225POPC   C3B 3132   1.616   0.467   5.336
  225POPC   C4B 3133   1.634   0.565   5.756
  226POPC   NC3 3134   7.196   1.553   3.891
  226POPC   PO4 3135   7.837   1.837   3.811
  226POPC   GL1 3136   7.610   1.623   4.199
  226POPC   GL2 3137   7.332   1.869   4.306
  226POPC   C1A 3138   7.539   1.585   4.681
  226POPC   D2A 3139   7.570   1.628   5.165
  226POPC   C3A 3140   7.174   1.656   5.467
  226POPC   C4A 3141   7.160   1.775   5.913
  226POPC   C1B 3142   7.147   1.979   4.731
  226POPC   C2B 3143   7.280   2.063   5.172
  226POPC   C3B 3144   7.102   2.154   5.594
  226POPC   C4B 3145   6.921   2.210   6.042
  227POPC   NC3 3146   7.925   7.997   3.907
  227POPC   PO4 3147   8.410   7.561   3.986
  227POPC   GL1 3148   8.090   7.621   4.274
  227POPC   GL2 3149   7.862   7.892   4.391
  227POPC   C1A 3150   8.061   7.565   4.734
  227POPC   D2A 3151   8.164   7.823   5.107
  227POPC   C3A 3152   8.128   7.620   5.522
  227POPC   C4A 3153   7.938   7.582   5.918
  227POPC   C1B 3154   7.619   7.815   4.780
  227POPC   C2B 3155   7.691   7.999   5.182
  227POPC   C3B 3156   7.645   7.906   5.621
  227POPC   C4B 3157   7.764   8.079   6.043
  228POPC   NC3 3158   4.292   2.722   3.850
  228POPC   PO4 3159   3.745   2.277   3.853
  228POPC   GL1 3160   3.851   2.339   4.272
  228POPC   GL2 3161   4.163   2.521   4.321
  228POPC   C1A 3162   3.941   2.247   4.710
  228POPC   D2A 3163   4.103   2.411   5.121
  228POPC   C3A 3164   4.184   2.606   5.508
  228POPC   C4A 3165   4.071   2.476   5.884
  228POPC   C1B 3166   4.258   2.697   4.742
  228POPC   C2B 3167   4.325   2.930   5.137
  228POPC   C3B 3168   4.300   3.094   5.573
  228POPC   C4B 3169   4.491   2.877   5.959
  229POPC   NC3 3170   9.657   5.334   3.986
  229POPC   PO4 3171   9.129   5.093   3.659
  229POPC   GL1 3172   9.238   4.925   4.181
  229POPC   GL2 3173   9.527   5.016   4.325
  229POPC   C1A 3174   9.173   5.073   4.663
  229POPC   D2A 3175   9.338   5.307   5.058
  229POPC   C3A 3176   9.211   5.143   5.506
  229POPC   C4A 3177   9.078   5.146   5.962
  229POPC   C1B 3178   9.694   5.118   4.721
  229POPC   C2B 3179   9.668   4.887   5.121
  229POPC   C3B 3180   9.552   4.753   5.539
  229POPC   C4B 3181   9.448   4.765   5.997
  230POPC   NC3 3182   7.958   7.207   3.930
  230POPC   PO4 3183   7.529   7.725   3.978
  230POPC   GL1 3184   7.631   7.431   4.382
  230POPC   GL2 3185   7.940   7.172   4.424
  230POPC   C1A 3186   7.643   7.279   4.823
  230POPC   D2A 3187   7.756   7.485   5.213
  230POPC   C3A 3188   7.549   7.392   5.633
  230POPC   C4A 3189   7.575   7.187   6.064
  230POPC   C1B 3190   8.133   7.003   4.792
  230POPC   C2B 3191   8.055   6.894   5.272
  230POPC   C3B 3192   7.978   7.065   5.741
  230POPC   C4B 3193   8.074   7.180   6.211
  231POPC   NC3 3194  10.492   6.304   4.015
  231POPC   PO4 3195   9.928   6.049   3.982
  231POPC   GL1 3196  10.095   6.285   4.325
  231POPC   GL2 3197  10.158   6.654   4.272
  231POPC   C1A 3198  10.289   6.259   4.731
  231POPC   D2A 3199  10.070   6.329   5.108
  231POPC   C3A 3200  10.233   6.082   5.437
  231POPC   C4A 3201  10.213   6.159   5.836
  231POPC   C1B 3202  10.324   6.763   4.721
  231POPC   C2B 3203  10.434   6.682   5.167
  231POPC   C3B 3204  10.140   6.589   5.560
  231POPC   C4B 3205   9.934   6.514   6.009
  232POPC   NC3 3206   5.671  10.326   3.988
  232POPC   PO4 3207   5.948   9.728   3.918
  232POPC   GL1 3208   5.839   9.943   4.294
  232POPC   GL2 3209   5.473  10.015   4.320
  232POPC   C1A 3210   5.803  10.105   4.715
  232POPC   D2A 3211   5.846  10.248   5.134
  232POPC   C3A 3212   6.050   9.987   5.459
  232POPC   C4A 3213   5.809  10.247   5.720
  232POPC   C1B 3214   5.176   9.944   4.627
  232POPC   C2B 3215   5.357  10.016   5.016
  232POPC   C3B 3216   5.532   9.937   5.404
  232POPC   C4B 3217   5.274   9.893   5.782
  233POPC   NC3 3218   0.508   0.008   3.870
  233POPC   PO4 3219   0.241   9.971   3.587
  233POPC   GL1 3220   0.243   9.832   4.191
  233POPC   GL2 3221   0.277  10.214   4.308
  233POPC   C1A 3222   0.448   9.931   4.669
  233POPC   D2A 3223   0.487   9.997   5.120
  233POPC   C3A 3224   0.199   9.898   5.413
  233POPC   C4A 3225   0.263  10.071   5.794
  233POPC   C1B 3226   0.547  10.472   4.580
  233POPC   C2B 3227   0.462   0.017   5.017
  233POPC   C3B 3228   0.296  10.405   5.400
  233POPC   C4B 3229   0.534   0.008   5.736
  234POPC   NC3 3230  10.469  10.127   3.921
  234POPC   PO4 3231  10.157   0.130   4.066
  234POPC   GL1 3232  10.267  10.358   4.383
  234POPC   GL2 3233  10.076  10.062   4.492
  234POPC   C1A 3234  10.051  10.485   4.759
  234POPC   D2A 3235  10.016   0.042   5.155
  234POPC   C3A 3236  10.351   0.179   5.405
  234POPC   C4A 3237  10.433  10.447   5.795
  234POPC   C1B 3238  10.442   9.957   4.663
  234POPC   C2B 3239   0.025  10.197   5.009
  234POPC   C3B 3240  10.281  10.176   5.381
  234POPC   C4B 3241  10.155  10.036   5.782
  235POPC   NC3 3242   3.414   0.617   3.983
  235POPC   PO4 3243   3.344  10.460   3.867
  235POPC   GL1 3244   3.548   0.087   4.277
  235POPC   GL2 3245   3.423   0.390   4.429
  235POPC   C1A 3246   3.639   0.059   4.753
  235POPC   D2A 3247   3.307   0.028   5.106
  235POPC   C3A 3248   3.408   0.186   5.530
  235POPC   C4A 3249   3.538   0.313   5.953
  235POPC   C1B 3250   3.098   0.296   4.709
  235POPC   C2B 3251   2.944   0.477   5.058
  235POPC   C3B 3252   2.963   0.365   5.446
  235POPC   C4B 3253   3.156   0.591   5.766
  236POPC   NC3 3254   9.676   6.399   3.827
  236POPC   PO4 3255   9.149   6.657   4.140
  236POPC   GL1 3256   9.609   6.558   4.296
  236POPC   GL2 3257   9.598   6.185   4.426
  236POPC   C1A 3258   9.842   6.542   4.676
  236POPC   D2A 3259   9.539   6.663   4.966
  236POPC   C3A 3260   9.653   6.527   5.336
  236POPC   C4A 3261   9.644   6.736   5.674
  236POPC   C1B 3262   9.605   6.170   4.927
  236POPC   C2B 3263   9.212   6.311   5.185
  236POPC   C3B 3264   9.226   6.421   5.615
  236POPC   C4B 3265   9.610   6.212   5.743
  237POPC   NC3 3266   1.196   4.593   3.951
  237POPC   PO4 3267   0.840   5.181   3.907
  237POPC   GL1 3268   1.144   4.969   4.300
  237POPC   GL2 3269   1.432   4.687   4.390
  237POPC   C1A 3270   1.073   4.788   4.754
  237POPC   D2A 3271   0.966   5.053   5.129
  237POPC   C3A 3272   1.052   4.962   5.587
  237POPC   C4A 3273   1.318   5.150   5.940
  237POPC   C1B 3274   1.538   4.950   4.741
  237POPC   C2B 3275   1.479   5.119   5.144
  237POPC   C3B 3276   1.549   4.901   5.527
  237POPC   C4B 3277   1.342   4.543   5.734
  238POPC   NC3 3278   8.636   8.432   4.063
  238POPC   PO4 3279   8.362   8.978   4.048
  238POPC   GL1 3280   8.553   8.812   4.395
  238POPC   GL2 3281   8.910   8.760   4.338
  238POPC   C1A 3282   8.683   8.789   4.802
  238POPC   D2A 3283   8.611   8.606   5.179
  238POPC   C3A 3284   8.748   8.874   5.472
  238POPC   C4A 3285   8.489   8.984   5.764
  238POPC   C1B 3286   8.935   8.380   4.675
  238POPC   C2B 3287   9.066   8.193   5.083
  238POPC   C3B 3288   8.920   8.359   5.494
  238POPC   C4B 3289   8.514   8.469   5.717
  239POPC   NC3 3290   7.214   8.151   3.933
  239POPC   PO4 3291   6.934   8.798   3.814
  239POPC   GL1 3292   7.017   8.742   4.245
  239POPC   GL2 3293   7.274   8.539   4.311
  239POPC   C1A 3294   7.025   8.884   4.670
  239POPC   D2A 3295   7.217   8.951   5.085
  239POPC   C3A 3296   6.974   8.667   5.348
  239POPC   C4A 3297   6.806   8.569   5.749
  239POPC   C1B 3298   7.541   8.744   4.649
  239POPC   C2B 3299   7.740   8.769   5.061
  239POPC   C3B 3300   7.561   8.872   5.479
  239POPC   C4B 3301   7.298   8.624   5.749
  240POPC   NC3 3302   4.229   1.008   3.877
  240POPC   PO4 3303   3.806   1.531   3.901
  240POPC   GL1 3304   3.985   1.235   4.252
  240POPC   GL2 3305   4.328   1.154   4.345
  240POPC   C1A 3306   3.956   1.185   4.707
  240POPC   D2A 3307   4.166   1.317   5.092
  240POPC   C3A 3308   4.073   1.113   5.475
  240POPC   C4A 3309   3.945   1.260   5.867
  240POPC   C1B 3310   4.409   0.968   4.732
  240POPC   C2B 3311   4.168   0.766   5.019
  240POPC   C3B 3312   4.271   0.630   5.393
  240POPC   C4B 3313   4.319   0.780   5.796
  241POPC   NC3 3314   9.971   9.260   3.904
  241POPC   PO4 3315  10.054   9.953   4.009
  241POPC   GL1 3316   9.909   9.637   4.236
  241POPC   GL2 3317  10.248   9.579   4.357
  241POPC   C1A 3318   9.828   9.670   4.657
  241POPC   D2A 3319  10.167   9.585   4.959
  241POPC   C3A 3320  10.148   9.678   5.402
  241POPC   C4A 3321   9.869   9.623   5.773
  241POPC   C1B 3322  10.038   9.222   4.563
  241POPC   C2B 3323  10.070   9.067   4.980
  241POPC   C3B 3324  10.336   9.184   5.309
  241POPC   C4B 3325  10.175   9.178   5.710
  242POPC   NC3 3326   6.344   7.784   3.974
  242POPC   PO4 3327   6.311   8.394   4.064
  242POPC   GL1 3328   6.711   8.325   4.229
  242POPC   GL2 3329   6.607   8.030   4.367
  242POPC   C1A 3330   6.846   8.397   4.653
  242POPC   D2A 3331   6.934   8.211   5.058
  242POPC   C3A 3332   6.686   8.203   5.416
  242POPC   C4A 3333   6.754   8.066   5.820
  242POPC   C1B 3334   6.529   8.009   4.817
  242POPC   C2B 3335   6.554   7.768   5.193
  242POPC   C3B 3336   6.416   7.752   5.622
  242POPC   C4B 3337   6.561   7.598   6.034
  243POPC   NC3 3338   8.603   0.785   4.002
  243POPC   PO4 3339   8.534   1.487   3.967
  243POPC   GL1 3340   8.714   1.212   4.269
  243POPC   GL2 3341   8.968   1.409   4.330
  243POPC   C1A 3342   8.907   1.041   4.679
  243POPC   D2A 3343   8.703   1.040   5.095
  243POPC   C3A 3344   8.780   0.800   5.465
  243POPC   C4A 3345   8.671   0.973   5.841
  243POPC   C1B 3346   8.727   1.549   4.720
  243POPC   C2B 3347   8.792   1.530   5.173
  243POPC   C3B 3348   8.599   1.395   5.560
  243POPC   C4B 3349   8.510   1.439   6.033
  244POPC   NC3 3350   2.577   9.473   3.796
  244POPC   PO4 3351   2.948   8.965   4.012
  244POPC   GL1 3352   2.559   9.186   4.233
  244POPC   GL2 3353   2.669   9.498   4.296
  244POPC   C1A 3354   2.307   9.298   4.616
  244POPC   D2A 3355   2.339   9.054   5.018
  244POPC   C3A 3356   2.282   9.228   5.418
  244POPC   C4A 3357   2.481   9.287   5.833
  244POPC   C1B 3358   2.829   9.370   4.690
  244POPC   C2B 3359   2.834   9.568   5.091
  244POPC   C3B 3360   2.595   9.627   5.470
  244POPC   C4B 3361   2.720   9.736   5.907
  245POPC   NC3 3362   5.781   8.608   4.033
  245POPC   PO4 3363   5.324   8.240   4.095
  245POPC   GL1 3364   5.310   8.655   4.313
  245POPC   GL2 3365   5.598   8.841   4.444
  245POPC   C1A 3366   5.251   8.717   4.765
  245POPC   D2A 3367   5.447   8.493   5.095
  245POPC   C3A 3368   5.305   8.649   5.453
  245POPC   C4A 3369   5.445   8.680   5.853
  245POPC   C1B 3370   5.797   8.653   4.746
  245POPC   C2B 3371   5.957   8.606   5.150
  245POPC   C3B 3372   5.819   8.483   5.526
  245POPC   C4B 3373   5.960   8.679   5.902
  246POPC   NC3 3374   9.477   3.045   3.821
  246POPC   PO4 3375   9.716   3.679   4.041
  246POPC   GL1 3376   9.452   3.429   4.327
  246POPC   GL2 3377   9.397   3.047   4.326
  246POPC   C1A 3378   9.420   3.591   4.733
  246POPC   D2A 3379   9.730   3.711   5.023
  246POPC   C3A 3380   9.598   3.737   5.458
  246POPC   C4A 3381   9.479   3.430   5.755
  246POPC   C1B 3382   9.541   3.079   4.777
  246POPC   C2B 3383   9.544   3.252   5.223
  246POPC   C3B 3384   9.196   3.109   5.494
  246POPC   C4B 3385   9.037   3.156   5.896
  247POPC   NC3 3386   0.284   1.521   4.007
  247POPC   PO4 3387   0.886   1.825   4.039
  247POPC   GL1 3388   0.663   1.613   4.324
  247POPC   GL2 3389   0.465   1.934   4.319
  247POPC   C1A 3390   0.569   1.716   4.734
  247POPC   D2A 3391   0.481   1.950   5.074
  247POPC   C3A 3392   0.587   1.729   5.409
  247POPC   C4A 3393   0.746   1.653   5.806
  247POPC   C1B 3394   0.225   2.143   4.625
  247POPC   C2B 3395   0.018   2.143   5.024
  247POPC   C3B 3396   0.193   2.203   5.428
  247POPC   C4B 3397   0.316   1.953   5.790
  248POPC   NC3 3398   9.554   0.118   3.782
  248POPC   PO4 3399   9.069   0.646   3.997
  248POPC   GL1 3400   9.156   0.589   4.402
  248POPC   GL2 3401   9.387   0.361   4.343
  248POPC   C1A 3402   9.310   0.692   4.762
  248POPC   D2A 3403   9.181   0.883   5.118
  248POPC   C3A 3404   9.273   0.665   5.499
  248POPC   C4A 3405   9.608   0.634   5.746
  248POPC   C1B 3406   9.386   0.099   4.734
  248POPC   C2B 3407   9.529  10.452   5.107
  248POPC   C3B 3408   9.493   0.177   5.486
  248POPC   C4B 3409   9.273   0.246   5.860
  249POPC   NC3 3410   8.632   3.209   3.862
  249POPC   PO4 3411   8.814   3.883   3.810
  249POPC   GL1 3412   8.675   3.605   4.185
  249POPC   GL2 3413   8.951   3.338   4.237
  249POPC   C1A 3414   8.569   3.327   4.565
  249POPC   D2A 3415   8.618   3.252   5.029
  249POPC   C3A 3416   8.418   3.562   5.299
  249POPC   C4A 3417   8.396   3.725   5.700
  249POPC   C1B 3418   9.054   3.226   4.670
  249POPC   C2B 3419   9.099   3.413   5.083
  249POPC   C3B 3420   8.887   3.493   5.481
  249POPC   C4B 3421   8.557   3.234   5.677
  250POPC   NC3 3422  10.171   5.684   3.749
  250POPC   PO4 3423   0.283   5.574   3.942
  250POPC   GL1 3424   0.103   5.602   4.341
  250POPC   GL2 3425  10.371   5.848   4.216
  250POPC   C1A 3426   0.035   5.497   4.785
  250POPC   D2A 3427   0.012   5.323   5.199
  250POPC   C3A 3428  10.252   5.552   5.456
  250POPC   C4A 3429  10.456   5.733   5.767
  250POPC   C1B 3430  10.152   5.781   4.575
  250POPC   C2B 3431  10.152   5.829   5.010
  250POPC   C3B 3432   9.789   5.874   5.316
  250POPC   C4B 3433   9.875   5.779   5.742
  251POPC   NC3 3434   9.162   9.809   3.697
  251POPC   PO4 3435   9.506   9.244   3.836
  251POPC   GL1 3436   9.285   9.439   4.182
  251POPC   GL2 3437   9.377   9.141   4.332
  251POPC   C1A 3438   9.277   9.644   4.615
  251POPC   D2A 3439   9.304   9.858   5.035
  251POPC   C3A 3440   9.480   9.723   5.412
  251POPC   C4A 3441   9.418   9.873   5.806
  251POPC   C1B 3442   9.538   9.238   4.704
  251POPC   C2B 3443   9.667   9.420   5.044
  251POPC   C3B 3444   9.802   9.313   5.376
  251POPC   C4B 3445   9.518   9.266   5.690
  252POPC   NC3 3446   3.099   5.482   4.064
  252POPC   PO4 3447   2.465   5.472   3.961
  252POPC   GL1 3448   2.628   5.583   4.315
  252POPC   GL2 3449   2.580   5.931   4.410
  252POPC   C1A 3450   2.658   5.495   4.741
  252POPC   D2A 3451   2.418   5.387   5.083
  252POPC   C3A 3452   2.655   5.310   5.485
  252POPC   C4A 3453   2.610   5.367   5.947
  252POPC   C1B 3454   2.589   5.988   4.875
  252POPC   C2B 3455   2.766   5.752   5.222
  252POPC   C3B 3456   2.805   5.770   5.668
  252POPC   C4B 3457   2.832   6.146   5.947
  253POPC   NC3 3458   2.071   3.437   3.806
  253POPC   PO4 3459   1.474   3.307   4.085
  253POPC   GL1 3460   1.858   3.221   4.233
  253POPC   GL2 3461   1.928   3.541   4.306
  253POPC   C1A 3462   1.928   3.146   4.665
  253POPC   D2A 3463   1.696   3.259   5.058
  253POPC   C3A 3464   1.874   3.205   5.466
  253POPC   C4A 3465   2.126   3.492   5.703
  253POPC   C1B 3466   1.823   3.646   4.731
  253POPC   C2B 3467   2.068   3.604   5.129
  253POPC   C3B 3468   1.750   3.715   5.399
  253POPC   C4B 3469   1.659   3.676   5.800
  254POPC   NC3 3470   0.291   4.194   3.804
  254POPC   PO4 3471   0.922   4.185   3.874
  254POPC   GL1 3472   0.564   4.291   4.210
  254POPC   GL2 3473   0.222   4.114   4.277
  254POPC   C1A 3474   0.453   4.379   4.643
  254POPC   D2A 3475   0.232   4.341   5.013
  254POPC   C3A 3476   0.405   4.434   5.405
  254POPC   C4A 3477   0.372   4.256   5.796
  254POPC   C1B 3478   0.464   3.857   4.560
  254POPC   C2B 3479   0.549   3.925   4.992
  254POPC   C3B 3480   0.346   3.929   5.390
  254POPC   C4B 3481   0.015   3.872   5.738
  255POPC   NC3 3482   4.969   1.268   3.850
  255POPC   PO4 3483   4.581   0.753   3.677
  255POPC   GL1 3484   4.742   0.935   4.118
  255POPC   GL2 3485   5.010   0.797   4.282
  255POPC   C1A 3486   4.804   1.236   4.500
  255POPC   D2A 3487   4.681   1.330   4.951
  255POPC   C3A 3488   4.562   1.029   5.278
  255POPC   C4A 3489   4.513   1.230   5.708
  255POPC   C1B 3490   4.993   0.819   4.710
  255POPC   C2B 3491   5.084   1.045   5.091
  255POPC   C3B 3492   4.968   1.257   5.463
  255POPC   C4B 3493   4.986   0.997   5.809
  256POPC   NC3 3494   8.019   8.758   3.828
  256POPC   PO4 3495   7.627   8.300   4.047
  256POPC   GL1 3496   7.828   8.410   4.368
  256POPC   GL2 3497   7.954   8.745   4.328
  256POPC   C1A 3498   7.873   8.278   4.783
  256POPC   D2A 3499   8.099   8.363   5.162
  256POPC   C3A 3500   7.787   8.390   5.491
  256POPC   C4A 3501   7.765   8.554   5.878
  256POPC   C1B 3502   8.175   8.687   4.726
  256POPC   C2B 3503   8.219   8.921   5.116
  256POPC   C3B 3504   8.075   8.812   5.548
  256POPC   C4B 3505   8.077   8.900   6.039
  257POPC   NC3 3506   2.797   4.420   3.641
  257POPC   PO4 3507   2.347   4.661   4.057
  257POPC   GL1 3508   2.239   4.449   4.433
  257POPC   GL2 3509   2.499   4.208   4.359
  257POPC   C1A 3510   2.235   4.510   4.890
  257POPC   D2A 3511   2.566   4.534   5.194
  257POPC   C3A 3512   2.635   4.280   5.551
  257POPC   C4A 3513   2.587   4.424   5.986
  257POPC   C1B 3514   2.641   4.215   4.790
  257POPC   C2B 3515   2.971   4.174   5.087
  257POPC   C3B 3516   3.149   4.239   5.499
  257POPC   C4B 3517   3.002   4.147   5.915
  258POPC   NC3 3518   5.663   1.275   3.821
  258POPC   PO4 3519   5.292   0.832   3.870
  258POPC   GL1 3520   5.498   0.983   4.253
  258POPC   GL2 3521   5.763   1.236   4.318
  258POPC   C1A 3522   5.365   1.167   4.665
  258POPC   D2A 3523   5.605   1.285   5.066
  258POPC   C3A 3524   5.458   1.302   5.505
  258POPC   C4A 3525   5.366   1.364   5.970
  258POPC   C1B 3526   5.829   0.952   4.666
  258POPC   C2B 3527   6.051   1.006   5.032
  258POPC   C3B 3528   5.868   1.004   5.429
  258POPC   C4B 3529   5.808   1.084   5.853
  259POPC   NC3 3530   9.245   5.866   4.079
  259POPC   PO4 3531   9.718   5.648   3.664
  259POPC   GL1 3532   9.699   5.712   4.281
  259POPC   GL2 3533   9.398   5.564   4.478
  259POPC   C1A 3534   9.713   5.678   4.809
  259POPC   D2A 3535   9.894   5.400   5.099
  259POPC   C3A 3536   9.677   5.379   5.452
  259POPC   C4A 3537   9.691   5.165   5.823
  259POPC   C1B 3538   9.235   5.925   4.725
  259POPC   C2B 3539   9.261   5.809   5.156
  259POPC   C3B 3540   9.224   5.898   5.583
  259POPC   C4B 3541   9.353   5.542   5.804
  260POPC   NC3 3542   6.147   9.290   3.902
  260POPC   PO4 3543   5.531   9.015   3.989
  260POPC   GL1 3544   5.741   9.291   4.261
  260POPC   GL2 3545   5.536   9.532   4.207
  260POPC   C1A 3546   5.792   9.203   4.737
  260POPC   D2A 3547   5.596   8.990   5.083
  260POPC   C3A 3548   5.731   8.990   5.505
  260POPC   C4A 3549   5.672   9.135   5.915
  260POPC   C1B 3550   5.552   9.634   4.668
  260POPC   C2B 3551   5.408   9.502   5.115
  260POPC   C3B 3552   5.488   9.482   5.585
  260POPC   C4B 3553   5.776   9.755   5.844
  261POPC   NC3 3554   9.368   7.014   3.927
  261POPC   PO4 3555   9.706   7.597   3.810
  261POPC   GL1 3556   9.575   7.601   4.240
  261POPC   GL2 3557   9.367   7.348   4.316
  261POPC   C1A 3558   9.669   7.478   4.678
  261POPC   D2A 3559   9.782   7.403   5.094
  261POPC   C3A 3560   9.537   7.174   5.362
  261POPC   C4A 3561   9.605   7.225   5.782
  261POPC   C1B 3562   9.138   7.400   4.685
  261POPC   C2B 3563   9.258   7.099   4.947
  261POPC   C3B 3564   9.170   6.818   5.281
  261POPC   C4B 3565   9.188   6.940   5.681
  262POPC   NC3 3566   2.678   1.826   3.647
  262POPC   PO4 3567   2.893   2.427   3.948
  262POPC   GL1 3568   2.900   2.191   4.417
  262POPC   GL2 3569   2.775   1.807   4.523
  262POPC   C1A 3570   2.773   2.144   4.882
  262POPC   D2A 3571   3.037   2.308   5.194
  262POPC   C3A 3572   2.990   2.125   5.619
  262POPC   C4A 3573   2.802   2.051   6.025
  262POPC   C1B 3574   2.448   1.727   4.751
  262POPC   C2B 3575   2.316   1.971   5.084
  262POPC   C3B 3576   2.524   2.003   5.450
  262POPC   C4B 3577   2.464   1.735   5.766
  263POPC   NC3 3578   4.109   1.986   3.912
  263POPC   PO4 3579   4.599   1.553   3.836
  263POPC   GL1 3580   4.313   1.658   4.251
  263POPC   GL2 3581   4.266   2.021   4.376
  263POPC   C1A 3582   4.123   1.694   4.726
  263POPC   D2A 3583   3.881   1.928   5.080
  263POPC   C3A 3584   3.874   1.766   5.488
  263POPC   C4A 3585   4.218   1.645   5.707
  263POPC   C1B 3586   4.450   2.190   4.741
  263POPC   C2B 3587   4.381   1.986   5.123
  263POPC   C3B 3588   4.315   2.118   5.538
  263POPC   C4B 3589   4.578   2.382   5.817
  264POPC   NC3 3590   2.987  10.198   3.945
  264POPC   PO4 3591   2.373   0.067   3.927
  264POPC   GL1 3592   2.620  10.364   4.266
  264POPC   GL2 3593   2.618   9.994   4.228
  264POPC   C1A 3594   2.818  10.350   4.693
  264POPC   D2A 3595   2.775  10.486   5.131
  264POPC   C3A 3596   3.016  10.367   5.501
  264POPC   C4A 3597   2.911  10.199   5.891
  264POPC   C1B 3598   2.470   9.840   4.646
  264POPC   C2B 3599   2.554  10.008   5.070
  264POPC   C3B 3600   2.537  10.141   5.508
  264POPC   C4B 3601   2.378  10.101   5.947
  265POPC   NC3 3602   4.287   0.392   3.775
  265POPC   PO4 3603   3.779   0.859   3.821
  265POPC   GL1 3604   3.856   0.622   4.241
  265POPC   GL2 3605   4.034   0.261   4.242
  265POPC   C1A 3606   3.776   0.642   4.702
  265POPC   D2A 3607   3.561   0.467   5.076
  265POPC   C3A 3608   3.809   0.478   5.470
  265POPC   C4A 3609   3.807   0.768   5.813
  265POPC   C1B 3610   4.183   0.336   4.677
  265POPC   C2B 3611   4.046   0.241   5.054
  265POPC   C3B 3612   4.224   0.098   5.389
  265POPC   C4B 3613   4.246   0.288   5.770
  266POPC   NC3 3614   1.330   7.003   3.886
  266POPC   PO4 3615   0.928   7.408   4.091
  266POPC   GL1 3616   1.093   7.071   4.324
  266POPC   GL2 3617   1.430   7.238   4.347
  266POPC   C1A 3618   1.315   6.850   4.646
  266POPC   D2A 3619   1.284   6.698   5.063
  266POPC   C3A 3620   1.251   6.886   5.494
  266POPC   C4A 3621   1.341   6.981   5.954
  266POPC   C1B 3622   1.213   7.324   4.773
  266POPC   C2B 3623   1.307   7.320   5.217
  266POPC   C3B 3624   1.223   7.370   5.668
  266POPC   C4B 3625   0.848   7.599   5.832
  267POPC   NC3 3626   7.863   2.296   3.836
  267POPC   PO4 3627   8.252   2.893   3.887
  267POPC   GL1 3628   8.125   2.590   4.220
  267POPC   GL2 3629   7.766   2.590   4.265
  267POPC   C1A 3630   8.091   2.414   4.638
  267POPC   D2A 3631   8.156   2.664   5.003
  267POPC   C3A 3632   8.104   2.467   5.403
  267POPC   C4A 3633   7.802   2.446   5.775
  267POPC   C1B 3634   7.710   2.740   4.689
  267POPC   C2B 3635   7.679   2.842   5.112
  267POPC   C3B 3636   7.829   2.881   5.501
  267POPC   C4B 3637   7.705   2.949   5.882
  268POPC   NC3 3638   1.727   9.333   3.855
  268POPC   PO4 3639   1.592   9.991   3.697
  268POPC   GL1 3640   1.882   9.860   4.128
  268POPC   GL2 3641   2.066   9.522   4.195
  268POPC   C1A 3642   1.960   9.747   4.630
  268POPC   D2A 3643   2.189   9.609   5.037
  268POPC   C3A 3644   1.948   9.612   5.442
  268POPC   C4A 3645   2.083   9.626   5.883
  268POPC   C1B 3646   1.780   9.277   4.495
  268POPC   C2B 3647   1.860   9.215   4.921
  268POPC   C3B 3648   1.739   9.133   5.322
  268POPC   C4B 3649   1.893   9.160   5.730
  269POPC   NC3 3650   9.084   1.604   3.873
  269POPC   PO4 3651   9.054   2.300   3.818
  269POPC   GL1 3652   8.873   2.229   4.265
  269POPC   GL2 3653   8.716   1.880   4.286
  269POPC   C1A 3654   8.930   2.221   4.738
  269POPC   D2A 3655   8.742   2.031   5.107
  269POPC   C3A 3656   8.708   2.230   5.525
  269POPC   C4A 3657   8.649   1.868   5.798
  269POPC   C1B 3658   8.476   2.032   4.658
  269POPC   C2B 3659   8.228   2.099   5.033
  269POPC   C3B 3660   8.269   1.981   5.462
  269POPC   C4B 3661   8.260   2.227   5.842
  270POPC   NC3 3662   2.840   2.884   3.982
  270POPC   PO4 3663   2.396   2.425   4.290
  270POPC   GL1 3664   2.495   2.809   4.353
  270POPC   GL2 3665   2.826   2.744   4.442
  270POPC   C1A 3666   2.452   2.986   4.730
  270POPC   D2A 3667   2.193   3.064   5.080
  270POPC   C3A 3668   2.301   2.884   5.429
  270POPC   C4A 3669   2.365   3.020   5.841
  270POPC   C1B 3670   2.818   2.633   4.820
  270POPC   C2B 3671   2.740   2.800   5.178
  270POPC   C3B 3672   2.666   2.519   5.481
  270POPC   C4B 3673   2.712   2.535   5.865
  271POPC   NC3 3674  10.147   8.693   3.613
  271POPC   PO4 3675  10.184   8.040   3.675
  271POPC   GL1 3676  10.160   8.353   4.075
  271POPC   GL2 3677  10.211   8.713   4.140
  271POPC   C1A 3678   9.957   8.373   4.510
  271POPC   D2A 3679  10.019   8.520   4.976
  271POPC   C3A 3680   9.948   8.343   5.366
  271POPC   C4A 3681   9.895   8.426   5.774
  271POPC   C1B 3682  10.288   8.772   4.609
  271POPC   C2B 3683  10.493   8.755   5.035
  271POPC   C3B 3684  10.342   8.688   5.490
  271POPC   C4B 3685  10.263   8.738   5.958
  272POPC   NC3 3686   8.873   4.755   3.902
  272POPC   PO4 3687   9.180   5.403   4.088
  272POPC   GL1 3688   8.809   5.253   4.327
  272POPC   GL2 3689   8.744   4.928   4.340
  272POPC   C1A 3690   8.644   5.150   4.765
  272POPC   D2A 3691   8.912   5.032   5.097
  272POPC   C3A 3692   8.696   5.045   5.456
  272POPC   C4A 3693   8.777   4.793   5.796
  272POPC   C1B 3694   8.841   4.677   4.691
  272POPC   C2B 3695   8.618   4.640   5.023
  272POPC   C3B 3696   8.577   4.549   5.382
  272POPC   C4B 3697   8.306   4.716   5.656
  273POPC   NC3 3698  10.201   3.034   3.749
  273POPC   PO4 3699   9.759   2.684   3.948
  273POPC   GL1 3700  10.081   2.739   4.301
  273POPC   GL2 3701  10.361   2.520   4.265
  273POPC   C1A 3702  10.039   2.911   4.762
  273POPC   D2A 3703   9.914   2.924   5.205
  273POPC   C3A 3704   9.886   3.136   5.634
  273POPC   C4A 3705   9.942   2.826   5.976
  273POPC   C1B 3706  10.426   2.559   4.723
  273POPC   C2B 3707  10.285   2.596   5.134
  273POPC   C3B 3708  10.133   2.547   5.532
  273POPC   C4B 3709  10.365   2.254   5.799
  274POPC   NC3 3710   0.264   0.910   3.659
  274POPC   PO4 3711   0.778   1.067   4.041
  274POPC   GL1 3712   0.588   0.951   4.428
  274POPC   GL2 3713   0.256   0.938   4.264
  274POPC   C1A 3714   0.525   0.960   4.909
  274POPC   D2A 3715   0.203   0.863   5.226
  274POPC   C3A 3716   0.325   0.852   5.665
  274POPC   C4A 3717   0.692   0.959   5.850
  274POPC   C1B 3718   0.290   1.297   4.609
  274POPC   C2B 3719   0.285   1.453   5.041
  274POPC   C3B 3720   0.356   1.295   5.422
  274POPC   C4B 3721   0.326   1.388   5.814
  275POPC   NC3 3722   4.278   9.683   3.824
  275POPC   PO4 3723   4.331  10.409   3.718
  275POPC   GL1 3724   4.232  10.229   4.139
  275POPC   GL2 3725   3.878  10.182   4.256
  275POPC   C1A 3726   4.286  10.343   4.589
  275POPC   D2A 3727   4.538   0.013   4.944
  275POPC   C3A 3728   4.656  10.324   5.378
  275POPC   C4A 3729   4.420  10.298   5.768
  275POPC   C1B 3730   3.929   9.996   4.681
  275POPC   C2B 3731   4.135  10.176   5.072
  275POPC   C3B 3732   4.031  10.082   5.504
  275POPC   C4B 3733   3.957  10.129   5.981
  276POPC   NC3 3734   6.544   8.790   4.055
  276POPC   PO4 3735   6.586   9.435   3.856
  276POPC   GL1 3736   6.524   9.249   4.282
  276POPC   GL2 3737   6.222   9.260   4.422
  276POPC   C1A 3738   6.621   9.254   4.757
  276POPC   D2A 3739   6.357   9.490   5.065
  276POPC   C3A 3740   6.452   9.512   5.505
  276POPC   C4A 3741   6.769   9.471   5.771
  276POPC   C1B 3742   6.064   9.623   4.647
  276POPC   C2B 3743   5.881   9.702   5.063
  276POPC   C3B 3744   5.960   9.463   5.447
  276POPC   C4B 3745   6.163   9.195   5.782
  277POPC   NC3 3746   1.329   5.321   3.933
  277POPC   PO4 3747   1.063   5.952   3.984
  277POPC   GL1 3748   1.060   5.572   4.271
  277POPC   GL2 3749   1.416   5.582   4.344
  277POPC   C1A 3750   1.098   5.324   4.677
  277POPC   D2A 3751   0.909   5.554   5.012
  277POPC   C3A 3752   1.044   5.455   5.437
  277POPC   C4A 3753   0.883   5.778   5.702
  277POPC   C1B 3754   1.286   5.800   4.690
  277POPC   C2B 3755   1.399   5.650   5.098
  277POPC   C3B 3756   1.306   5.871   5.440
  277POPC   C4B 3757   1.452   5.990   5.801
  278POPC   NC3 3758   1.170   3.854   3.683
  278POPC   PO4 3759   1.484   4.253   4.067
  278POPC   GL1 3760   1.245   4.152   4.372
  278POPC   GL2 3761   1.011   4.413   4.398
  278POPC   C1A 3762   1.411   4.107   4.777
  278POPC   D2A 3763   1.368   4.362   5.123
  278POPC   C3A 3764   1.378   4.089   5.472
  278POPC   C4A 3765   1.293   4.009   5.909
  278POPC   C1B 3766   0.919   4.231   4.792
  278POPC   C2B 3767   0.866   4.261   5.228
  278POPC   C3B 3768   0.887   4.283   5.658
  278POPC   C4B 3769   0.779   4.019   5.987
  279POPC   NC3 3770  10.079   1.574   3.957
  279POPC   PO4 3771   0.198   1.960   3.907
  279POPC   GL1 3772  10.444   1.841   4.234
  279POPC   GL2 3773  10.179   2.050   4.148
  279POPC   C1A 3774  10.482   1.699   4.659
  279POPC   D2A 3775  10.286   1.676   5.044
  279POPC   C3A 3776   0.042   1.726   5.389
  279POPC   C4A 3777  10.380   1.687   5.764
  279POPC   C1B 3778  10.161   2.122   4.588
  279POPC   C2B 3779  10.006   2.195   4.990
  279POPC   C3B 3780  10.119   2.041   5.390
  279POPC   C4B 3781   9.940   1.944   5.784
  280POPC   NC3 3782   9.235   4.000   3.991
  280POPC   PO4 3783   9.773   4.172   3.651
  280POPC   GL1 3784   9.688   4.201   4.135
  280POPC   GL2 3785   9.559   4.510   4.197
  280POPC   C1A 3786   9.435   4.108   4.595
  280POPC   D2A 3787   9.295   4.018   5.050
  280POPC   C3A 3788   9.463   4.238   5.431
  280POPC   C4A 3789   9.579   4.093   5.868
  280POPC   C1B 3790   9.456   4.630   4.633
  280POPC   C2B 3791   9.242   4.577   5.014
  280POPC   C3B 3792   9.074   4.632   5.402
  280POPC   C4B 3793   9.143   4.424   5.785
  281POPC   NC3 3794   2.620   7.929   3.770
  281POPC   PO4 3795   2.162   8.348   4.033
  281POPC   GL1 3796   2.463   8.031   4.262
  281POPC   GL2 3797   2.540   7.650   4.187
  281POPC   C1A 3798   2.657   8.107   4.682
  281POPC   D2A 3799   2.750   8.160   5.140
  281POPC   C3A 3800   2.394   8.144   5.447
  281POPC   C4A 3801   2.344   7.933   5.848
  281POPC   C1B 3802   2.822   7.645   4.565
  281POPC   C2B 3803   2.698   7.646   4.973
  281POPC   C3B 3804   2.648   7.714   5.395
  281POPC   C4B 3805   2.721   7.595   5.801
  282POPC   NC3 3806   0.737   6.274   3.944
  282POPC   PO4 3807   0.258   6.666   4.092
  282POPC   GL1 3808   0.487   6.472   4.379
  282POPC   GL2 3809   0.721   6.700   4.383
  282POPC   C1A 3810   0.382   6.510   4.805
  282POPC   D2A 3811   0.235   6.237   5.114
  282POPC   C3A 3812   0.116   6.386   5.524
  282POPC   C4A 3813   0.381   6.592   5.735
  282POPC   C1B 3814   0.894   6.593   4.742
  282POPC   C2B 3815   0.800   6.505   5.136
  282POPC   C3B 3816   0.764   6.757   5.462
  282POPC   C4B 3817   0.890   6.679   5.884
  283POPC   NC3 3818  10.099   7.597   3.574
  283POPC   PO4 3819  10.451   7.618   4.110
  283POPC   GL1 3820  10.081   7.640   4.365
  283POPC   GL2 3821  10.011   7.900   4.227
  283POPC   C1A 3822   9.909   7.905   4.727
  283POPC   D2A 3823  10.085   7.923   5.124
  283POPC   C3A 3824  10.130   7.589   5.402
  283POPC   C4A 3825  10.334   7.418   5.736
  283POPC   C1B 3826  10.360   8.079   4.530
  283POPC   C2B 3827  10.461   8.240   4.927
  283POPC   C3B 3828  10.443   8.201   5.364
  283POPC   C4B 3829  10.182   8.008   5.686
  284POPC   NC3 3830   8.444   7.125   4.133
  284POPC   PO4 3831   8.942   6.988   3.743
  284POPC   GL1 3832   8.933   7.122   4.205
  284POPC   GL2 3833   8.815   7.476   4.298
  284POPC   C1A 3834   8.828   6.986   4.656
  284POPC   D2A 3835   8.749   7.075   5.108
  284POPC   C3A 3836   9.039   7.318   5.366
  284POPC   C4A 3837   9.161   7.457   5.776
  284POPC   C1B 3838   8.560   7.432   4.723
  284POPC   C2B 3839   8.310   7.332   5.122
  284POPC   C3B 3840   8.422   7.183   5.512
  284POPC   C4B 3841   8.634   7.537   5.572
  285POPC   NC3 3842   6.534   0.332   3.966
  285POPC   PO4 3843   6.013   0.969   3.947
  285POPC   GL1 3844   6.187   0.604   4.222
  285POPC   GL2 3845   6.539   0.584   4.386
  285POPC   C1A 3846   6.136   0.510   4.699
  285POPC   D2A 3847   5.957   0.507   5.137
  285POPC   C3A 3848   6.249   0.677   5.452
  285POPC   C4A 3849   6.162   0.669   5.870
  285POPC   C1B 3850   6.620   0.318   4.717
  285POPC   C2B 3851   6.550   0.477   5.082
  285POPC   C3B 3852   6.611   0.303   5.444
  285POPC   C4B 3853   6.540   0.339   5.827
  286POPC   NC3 3854   4.478   9.338   4.175
  286POPC   PO4 3855   3.845   9.745   3.942
  286POPC   GL1 3856   4.153   9.735   4.302
  286POPC   GL2 3857   4.116   9.465   4.525
  286POPC   C1A 3858   4.426   9.842   4.649
  286POPC   D2A 3859   4.234   9.674   5.014
  286POPC   C3A 3860   4.441   9.815   5.371
  286POPC   C4A 3861   4.279   9.718   5.763
  286POPC   C1B 3862   4.229   9.114   4.773
  286POPC   C2B 3863   4.141   8.984   5.181
  286POPC   C3B 3864   4.271   9.229   5.534
  286POPC   C4B 3865   3.976   9.314   5.870
  287POPC   NC3 3866   8.437   4.109   3.965
  287POPC   PO4 3867   9.020   4.389   4.147
  287POPC   GL1 3868   8.635   4.439   4.272
  287POPC   GL2 3869   8.694   4.075   4.398
  287POPC   C1A 3870   8.377   4.412   4.610
  287POPC   D2A 3871   8.535   4.159   4.901
  287POPC   C3A 3872   8.367   4.084   5.300
  287POPC   C4A 3873   8.425   4.220   5.712
  287POPC   C1B 3874   8.880   3.752   4.672
  287POPC   C2B 3875   8.817   3.819   5.108
  287POPC   C3B 3876   8.888   4.108   5.434
  287POPC   C4B 3877   9.133   3.913   5.744
  288POPC   NC3 3878   8.172   1.511   3.675
  288POPC   PO4 3879   8.225   2.108   4.050
  288POPC   GL1 3880   7.836   2.077   4.308
  288POPC   GL2 3881   8.008   1.922   4.538
  288POPC   C1A 3882   7.632   2.104   4.755
  288POPC   D2A 3883   7.764   2.330   5.048
  288POPC   C3A 3884   7.776   2.067   5.377
  288POPC   C4A 3885   7.579   1.999   5.739
  288POPC   C1B 3886   8.029   1.648   4.849
  288POPC   C2B 3887   8.291   1.550   5.163
  288POPC   C3B 3888   8.111   1.503   5.565
  288POPC   C4B 3889   8.028   1.753   5.900
  289POPC   NC3 3890   9.455   2.115   3.677
  289POPC   PO4 3891   9.491   1.430   3.735
  289POPC   GL1 3892   9.462   1.575   4.214
  289POPC   GL2 3893   9.290   1.943   4.197
  289POPC   C1A 3894   9.684   1.786   4.579
  289POPC   D2A 3895   9.775   1.748   5.003
  289POPC   C3A 3896   9.572   1.843   5.368
  289POPC   C4A 3897   9.461   1.765   5.781
  289POPC   C1B 3898   9.160   1.787   4.582
  289POPC   C2B 3899   9.204   1.775   5.010
  289POPC   C3B 3900   9.074   1.865   5.462
  289POPC   C4B 3901   9.229   2.236   5.717
  290POPC   NC3 3902   3.346   8.437   3.595
  290POPC   PO4 3903   3.012   7.824   3.975
  290POPC   GL1 3904   3.286   7.837   4.344
  290POPC   GL2 3905   3.461   7.546   4.338
  290POPC   C1A 3906   3.384   8.149   4.716
  290POPC   D2A 3907   3.267   8.232   5.170
  290POPC   C3A 3908   3.504   8.140   5.561
  290POPC   C4A 3909   3.794   8.125   5.931
  290POPC   C1B 3910   3.288   7.644   4.798
  290POPC   C2B 3911   3.412   7.713   5.224
  290POPC   C3B 3912   3.159   7.774   5.583
  290POPC   C4B 3913   2.874   8.091   5.668
  291POPC   NC3 3914   0.349   5.123   3.945
  291POPC   PO4 3915   0.063   4.554   3.972
  291POPC   GL1 3916   0.244   4.714   4.307
  291POPC   GL2 3917   0.232   5.100   4.437
  291POPC   C1A 3918   0.049   4.714   4.698
  291POPC   D2A 3919   0.167   4.857   5.052
  291POPC   C3A 3920   0.024   4.800   5.451
  291POPC   C4A 3921   0.076   5.184   5.719
  291POPC   C1B 3922   0.598   4.888   4.608
  291POPC   C2B 3923   0.638   4.690   5.009
  291POPC   C3B 3924   0.548   4.912   5.399
  291POPC   C4B 3925   0.630   4.735   5.771
  292POPC   NC3 3926   0.966   8.597   3.801
  292POPC   PO4 3927   0.654   9.199   3.930
  292POPC   GL1 3928   0.850   8.903   4.235
  292POPC   GL2 3929   1.220   8.847   4.282
  292POPC   C1A 3930   0.883   8.683   4.657
  292POPC   D2A 3931   0.674   8.616   5.077
  292POPC   C3A 3932   0.913   8.643   5.468
  292POPC   C4A 3933   0.886   8.888   5.855
  292POPC   C1B 3934   1.413   8.871   4.709
  292POPC   C2B 3935   1.396   8.614   5.097
  292POPC   C3B 3936   1.583   8.673   5.499
  292POPC   C4B 3937   1.384   9.009   5.709
  293POPC   NC3 3938   7.957   9.776   3.902
  293POPC   PO4 3939   7.917   9.197   3.712
  293POPC   GL1 3940   7.930   9.267   4.187
  293POPC   GL2 3941   7.856   9.602   4.350
  293POPC   C1A 3942   7.982   9.155   4.654
  293POPC   D2A 3943   8.170   9.438   5.017
  293POPC   C3A 3944   8.196   9.312   5.465
  293POPC   C4A 3945   8.205   9.724   5.697
  293POPC   C1B 3946   7.657   9.525   4.710
  293POPC   C2B 3947   7.706   9.288   5.089
  293POPC   C3B 3948   7.782   9.591   5.437
  293POPC   C4B 3949   7.811   9.351   5.816
  294POPC   NC3 3950   3.440   1.207   3.815
  294POPC   PO4 3951   3.196   0.848   4.303
  294POPC   GL1 3952   3.533   1.011   4.406
  294POPC   GL2 3953   3.506   1.339   4.308
  294POPC   C1A 3954   3.491   1.069   4.837
  294POPC   D2A 3955   3.722   0.947   5.153
  294POPC   C3A 3956   3.447   0.837   5.444
  294POPC   C4A 3957   3.379   1.049   5.831
  294POPC   C1B 3958   3.600   1.561   4.662
  294POPC   C2B 3959   3.663   1.475   5.088
  294POPC   C3B 3960   3.600   1.333   5.478
  294POPC   C4B 3961   3.494   1.527   5.855
  295POPC   NC3 3962   3.255   8.217   4.033
  295POPC   PO4 3963   3.554   8.797   3.809
  295POPC   GL1 3964   3.601   8.620   4.222
  295POPC   GL2 3965   3.265   8.675   4.319
  295POPC   C1A 3966   3.638   8.737   4.661
  295POPC   D2A 3967   3.469   8.791   5.036
  295POPC   C3A 3968   3.527   8.616   5.414
  295POPC   C4A 3969   3.136   8.520   5.589
  295POPC   C1B 3970   3.227   9.036   4.633
  295POPC   C2B 3971   3.179   9.196   5.055
  295POPC   C3B 3972   3.242   9.016   5.453
  295POPC   C4B 3973   3.511   9.112   5.762
  296POPC   NC3 3974   2.917   7.319   4.013
  296POPC   PO4 3975   3.489   7.054   4.069
  296POPC   GL1 3976   3.155   7.108   4.409
  296POPC   GL2 3977   2.816   6.917   4.310
  296POPC   C1A 3978   3.065   7.195   4.854
  296POPC   D2A 3979   3.019   7.377   5.289
  296POPC   C3A 3980   3.024   7.191   5.742
  296POPC   C4A 3981   2.912   7.188   6.216
  296POPC   C1B 3982   2.606   7.196   4.613
  296POPC   C2B 3983   2.598   7.147   5.061
  296POPC   C3B 3984   2.562   7.223   5.493
  296POPC   C4B 3985   2.505   7.100   5.924
  297POPC   NC3 3986   1.471   6.196   3.982
  297POPC   PO4 3987   0.954   6.717   3.910
  297POPC   GL1 3988   1.184   6.525   4.255
  297POPC   GL2 3989   0.973   6.237   4.395
  297POPC   C1A 3990   1.379   6.344   4.657
  297POPC   D2A 3991   1.207   6.179   5.043
  297POPC   C3A 3992   1.290   6.374   5.451
  297POPC   C4A 3993   1.367   6.490   5.867
  297POPC   C1B 3994   0.759   6.091   4.781
  297POPC   C2B 3995   0.751   6.007   5.251
  297POPC   C3B 3996   0.832   6.265   5.615
  297POPC   C4B 3997   1.010   6.176   6.033
  298POPC   NC3 3998   0.725   5.645   3.844
  298POPC   PO4 3999   0.342   6.234   3.710
  298POPC   GL1 4000   0.365   6.023   4.169
  298POPC   GL2 4001   0.630   5.857   4.310
  298POPC   C1A 4002   0.251   6.012   4.622
  298POPC   D2A 4003   0.418   5.755   4.962
  298POPC   C3A 4004   0.219   5.799   5.349
  298POPC   C4A 4005   0.405   6.026   5.703
  298POPC   C1B 4006   0.597   5.460   4.558
  298POPC   C2B 4007   0.494   5.244   4.957
  298POPC   C3B 4008   0.545   5.412   5.361
  298POPC   C4B 4009   0.434   5.531   5.750
  299POPC   NC3 4010   1.281   0.600   3.596
  299POPC   PO4 4011   0.928   0.187   3.974
  299POPC   GL1 4012   1.210   0.214   4.288
  299POPC   GL2 4013   1.358   0.541   4.247
  299POPC   C1A 4014   1.063   0.307   4.704
  299POPC   D2A 4015   1.092   0.172   5.125
  299POPC   C3A 4016   1.176   0.331   5.516
  299POPC   C4A 4017   1.526   0.065   5.702
  299POPC   C1B 4018   1.408   0.680   4.663
  299POPC   C2B 4019   1.178   0.706   5.039
  299POPC   C3B 4020   1.273   0.874   5.422
  299POPC   C4B 4021   1.171   0.767   5.814
  300POPC   NC3 4022   4.001   8.726   3.911
  300POPC   PO4 4023   4.474   8.226   4.066
  300POPC   GL1 4024   4.113   8.418   4.292
  300POPC   GL2 4025   4.077   8.754   4.425
  300POPC   C1A 4026   3.885   8.320   4.680
  300POPC   D2A 4027   3.906   8.538   5.086
  300POPC   C3A 4028   3.969   8.352   5.488
  300POPC   C4A 4029   4.294   8.223   5.720
  300POPC   C1B 4030   4.310   8.599   4.784
  300POPC   C2B 4031   4.415   8.470   5.224
  300POPC   C3B 4032   4.326   8.713   5.600
  300POPC   C4B 4033   3.918   8.858   5.642
  301POPC   NC3 4034   9.779   1.080   3.655
  301POPC   PO4 4035  10.475   1.262   3.788
  301POPC   GL1 4036  10.383   1.306   4.302
  301POPC   GL2 4037  10.260   0.940   4.444
  301POPC   C1A 4038  10.051   1.411   4.650
  301POPC   D2A 4039   9.932   1.285   5.086
  301POPC   C3A 4040   9.967   1.537   5.462
  301POPC   C4A 4041   9.955   1.433   5.908
  301POPC   C1B 4042   0.038   0.831   4.726
  301POPC   C2B 4043  10.408   1.170   4.928
  301POPC   C3B 4044  10.364   1.248   5.350
  301POPC   C4B 4045  10.377   1.171   5.757
  302W        W 4046  10.393   3.577   8.993
  303W        W 4047   3.408   7.429   2.143
  304W        W 4048   7.995   2.755   1.853
  305W        W 4049   6.080   0.516   0.272
  306W        W 4050   9.153   2.109   8.586
  307W        W 4051   9.854   3.103   8.681
  308W        W 4052   8.185   5.496   9.716
  309W        W 4053   2.276   3.559   0.848
  310W        W 4054  10.020   3.175   0.988
  311W        W 4055   0.272   7.397  10.506
  312W        W 4056   5.260   1.931   2.180
  313W        W 4057   9.673   7.147   9.583
  314W        W 4058   9.896   7.957   8.982
  315W        W 4059   8.433   5.667   0.078
  316W        W 4060   8.885   0.839   3.221
  317W        W 4061   5.266   6.442   1.665
  318W        W 4062   8.010   6.167   1.460
  319W        W 4063   5.655  10.453  11.897
  320W        W 4064   6.515  10.329   1.437
  321W        W 4065   1.859   5.689  11.737
  322W        W 4066   3.508   6.668  11.479
  323W        W 4067   6.433   8.061   0.336
  324W        W 4068   8.965   7.680   9.852
  325W        W 4069   0.976   1.865   9.789
  326W        W 4070  10.301   1.808   9.094
  327W        W 4071   4.640   0.751  10.123
  328W        W 4072  10.002   8.579  10.923
  329W        W 4073   9.747   2.281   0.769
  330W        W 4074   1.979   6.926   2.821
  331W        W 4075   1.380   7.000   1.791
  332W        W 4076   9.553   2.106  11.771
  333W        W 4077   6.345   3.120  10.009
  334W        W 4078   2.170   2.862   2.531
  335W        W 4079   0.391   1.014   9.400
  336W        W 4080   8.728   2.262   2.160
  337W        W 4081   8.890   8.825  10.590
  338W        W 4082   4.991   0.443   1.495
  339W        W 4083   2.733   9.481  11.136
  340W        W 4084   3.526   7.362   2.968
  341W        W 4085   9.077   0.903   2.751
  342W        W 4086   1.358   2.557   0.093
  343W        W 4087   2.354   4.695   2.657
  344W        W 4088   6.644   0.178   3.482
  345W        W 4089  10.464   4.218   9.653
  346W        W 4090   7.005  10.287   1.697
  347W        W 4091   7.404   3.681   9.879
  348W        W 4092   1.642   6.787  10.313
  349W        W 4093  10.303   5.062   2.036
  350W        W 4094   8.443   5.605   0.611
  351W        W 4095   3.569   6.900  11.023
  352W        W 4096   6.977   4.089   1.887
  353W        W 4097   4.697   4.168  10.388
  354W        W 4098   8.522   7.649   9.077
  355W        W 4099   5.152  10.111  10.712
  356W        W 4100   8.541   7.690   9.593
  357W        W 4101   6.437   9.157   2.085
  358W        W 4102   2.251   1.295   1.694
  359W        W 4103   7.576   4.683   9.368
  360W        W 4104   0.888   0.825   0.310
  361W        W 4105   4.815   8.451   9.713
  362W        W 4106   5.296   4.779   0.339
  363W        W 4107   8.387   3.199   1.899
  364W        W 4108   0.443   0.785   1.363
  365W        W 4109   8.909   8.142   0.210
  366W        W 4110   5.185   3.041  11.385
  367W        W 4111   9.419   2.603   3.563
  368W        W 4112   2.136   1.762   3.164
  369W        W 4113   4.855   0.929   1.742
  370W        W 4114   8.445   0.220   1.775
  371W        W 4115   8.986   9.106  10.160
  372W        W 4116   9.268   1.390   1.097
  373W        W 4117   8.051   6.049   2.907
  374W        W 4118   6.158   3.720   0.689
  375W        W 4119   4.916   7.934   0.236
  376W        W 4120   8.732   9.765  10.962
  377W        W 4121   0.935   8.639   9.479
  378W        W 4122   5.689   9.423  10.209
  379W        W 4123   0.994   7.192   2.604
  380W        W 4124   1.904   0.948   1.763
  381W        W 4125   4.586   9.903   9.799
  382W        W 4126   6.707   9.699  11.721
  383W        W 4127   0.959   4.665   2.995
  384W        W 4128   7.128   3.553  10.469
  385W        W 4129   8.121   7.327   1.653
  386W        W 4130   4.757   2.187   2.876
  387W        W 4131   9.672   9.825   0.732
  388W        W 4132   8.457   9.560   3.094
  389W        W 4133   6.686   4.590   9.185
  390W        W 4134   7.015   9.455  10.230
  391W        W 4135   0.762   7.738   0.022
  392W        W 4136   5.437   7.580  10.478
  393W        W 4137   7.486   6.264  11.816
  394W        W 4138   1.628   0.526   1.722
  395W        W 4139   7.820   1.188   2.948
  396W        W 4140   0.929   3.754   8.797
  397W        W 4141   3.516   2.395  11.371
  398W        W 4142   4.065   9.632   9.787
  399W        W 4143   3.069   5.295   2.798
  400W        W 4144   7.184   4.354   3.329
  401W        W 4145   9.394   8.072   2.580
  402W        W 4146   7.701   1.437   9.501
  403W        W 4147   2.267   5.472   8.627
  404W        W 4148   8.168   3.759   2.909
  405W        W 4149   9.789   8.584   1.543
  406W        W 4150   7.591   4.573   3.123
  407W        W 4151   0.716  10.308   0.717
  408W        W 4152   2.601   2.716   2.247
  409W        W 4153   8.143   9.294   9.329
  410W        W 4154   1.719   4.494   8.693
  411W        W 4155   0.390   4.350   9.926
  412W        W 4156   7.901  10.270  10.563
  413W        W 4157   1.208   9.173  11.205
  414W        W 4158   7.046   8.191  11.952
  415W        W 4159   1.277   3.597   9.616
  416W        W 4160   6.358   9.768  11.323
  417W        W 4161   3.649   0.464   0.491
  418W        W 4162   9.227   7.169   2.929
  419W        W 4163   6.694   9.384  11.228
  420W        W 4164   8.070   1.244  10.127
  421W        W 4165   7.854   0.441   0.015
  422W        W 4166   7.745   2.696   8.816
  423W        W 4167  10.246   3.424   3.364
  424W        W 4168   0.973  10.490   1.739
  425W        W 4169   4.170   2.500  11.768
  426W        W 4170   4.750   4.125   2.205
  427W        W 4171   5.306   6.133   3.395
  428W        W 4172   7.391   8.587   3.709
  429W        W 4173   2.083   0.869   3.385
  430W        W 4174   4.274   0.835   1.818
  431W        W 4175  10.091   6.840  11.788
  432W        W 4176   1.989   9.132   1.247
  433W        W 4177   7.517   7.675   2.720
  434W        W 4178   1.767   2.100   0.369
  435W        W 4179   9.930   2.799  10.057
  436W        W 4180   0.237   4.655   9.542
  437W        W 4181   4.476   3.148   3.641
  438W        W 4182   6.523   5.017  11.573
  439W        W 4183   7.942   1.598   3.237
  440W        W 4184   1.856   0.663   8.829
  441W        W 4185   5.008   6.679   0.304
  442W        W 4186   3.723   3.740   1.960
  443W        W 4187   4.111   8.520  10.937
  444W        W 4188   1.291   0.438   2.804
  445W        W 4189   4.545   1.732   1.902
  446W        W 4190   8.183   5.712   9.218
  447W        W 4191   6.912   9.900   0.362
  448W        W 4192   3.442   0.769   0.869
  449W        W 4193   9.552   5.558   2.163
  450W        W 4194   6.619   9.945   2.935
  451W        W 4195   9.253   4.435   3.697
  452W        W 4196   5.091   5.246  11.408
  453W        W 4197   6.788   9.458   2.910
  454W        W 4198  10.279  10.353   2.482
  455W        W 4199   8.392   0.229  11.354
  456W        W 4200   2.842   1.340   8.792
  457W        W 4201   6.080   3.792  11.204
  458W        W 4202   0.760   8.612   1.758
  459W        W 4203   2.211   7.190   1.231
  460W        W 4204   9.501   9.615   2.408
  461W        W 4205   6.680   4.097  11.840
  462W        W 4206   6.933   4.139   9.295
  463W        W 4207   3.223   2.323   2.905
  464W        W 4208   8.173   3.746   0.320
  465W        W 4209   1.769   2.264  11.860
  466W        W 4210   8.036   1.078   3.408
  467W        W 4211   1.505  10.330  11.862
  468W        W 4212   5.490   6.637   9.437
  469W        W 4213   2.091   0.807   0.888
  470W        W 4214   5.954   8.170   0.506
  471W        W 4215  10.361   2.000   1.570
  472W        W 4216   6.624   4.091   9.694
  473W        W 4217   9.024   0.287   9.152
  474W        W 4218   8.054   4.700   2.934
  475W        W 4219   5.127   2.525   1.735
  476W        W 4220   3.102   8.187   2.648
  477W        W 4221   7.409   8.928  11.719
  478W        W 4222   2.882   0.348  11.814
  479W        W 4223  10.378   0.206   1.648
  480W        W 4224   1.945   0.877   0.397
  481W        W 4225   9.284   8.377   3.550
  482W        W 4226   9.849   6.413   9.025
  483W        W 4227   6.034   9.180  11.934
  484W        W 4228   9.400   6.622  10.861
  485W        W 4229   7.543   8.821   9.308
  486W        W 4230   2.388   4.242   9.881
  487W        W 4231   5.495   3.275   1.269
  488W        W 4232   4.499   9.962  11.324
  489W        W 4233   5.235   3.728   1.171
  490W        W 4234   5.040   0.738   9.784
  491W        W 4235   5.083   0.806   9.285
  492W        W 4236   1.322   4.977   3.540
  493W        W 4237   8.131   4.181  10.013
  494W        W 4238   2.896   2.368   3.321
  495W        W 4239   8.538   8.434  11.463
  496W        W 4240   9.764   2.361  10.292
  497W        W 4241   2.333   6.291   8.813
  498W        W 4242   5.959   6.296   9.491
  499W        W 4243   6.135   3.734   1.204
  500W        W 4244   2.794   7.420   0.995
  501W        W 4245   9.323   5.143  10.497
  502W        W 4246   6.827   2.154   1.687
  503W        W 4247   7.213   5.348   2.104
  504W        W 4248   6.110   6.027   2.519
  505W        W 4249   3.224   1.361   2.493
  506W        W 4250   0.084   3.892   0.786
  507W        W 4251   0.182   1.251   2.295
  508W        W 4252  10.138   3.949   8.677
  509W        W 4253   7.273   5.848   8.159
  510W        W 4254   2.774   5.869   9.468
  511W        W 4255  10.154   4.254  10.068
  512W        W 4256   2.150   5.154   2.895
  513W        W 4257   3.823   2.793  11.530
  514W        W 4258   8.315   6.494   0.039
  515W        W 4259   6.860   0.116  10.801
  516W        W 4260   6.655   4.555   1.905
  517W        W 4261   5.648   6.518   3.250
  518W        W 4262   6.211   3.728   2.784
  519W        W 4263   7.714   3.555   2.892
  520W        W 4264   6.567   5.949   1.821
  521W        W 4265   4.595   5.448   2.403
  522W        W 4266   2.916   3.270   0.370
  523W        W 4267   5.157   0.848   0.668
  524W        W 4268   1.429   7.574   1.158
  525W        W 4269   2.805   2.745  11.720
  526W        W 4270   6.408   1.434   2.857
  527W        W 4271   1.833   5.891   9.425
  528W        W 4272   3.566   2.369   2.195
  529W        W 4273  10.003   0.042  10.446
  530W        W 4274   6.516   1.672  10.066
  531W        W 4275   5.816   6.238   4.208
  532W        W 4276   6.703   7.030   0.103
  533W        W 4277   7.714   4.333  11.847
  534W        W 4278   9.341   8.582   9.493
  535W        W 4279   9.078  10.220  10.884
  536W        W 4280   9.110   4.663  10.578
  537W        W 4281   4.220   1.245  10.593
  538W        W 4282   9.905   4.739   1.222
  539W        W 4283   1.670   6.108   0.756
  540W        W 4284   9.650   4.211  10.024
  541W        W 4285   3.467   2.270   3.363
  542W        W 4286   0.446   5.244   9.790
  543W        W 4287   0.391   4.525   2.448
  544W        W 4288   2.397   6.038  10.322
  545W        W 4289   5.552  10.457  10.477
  546W        W 4290   1.939   0.679   2.202
  547W        W 4291   7.662   3.538   8.913
  548W        W 4292   7.982   1.870   9.336
  549W        W 4293   6.640   5.461   0.460
  550W        W 4294   9.804   7.169  10.529
  551W        W 4295  10.171   4.651  10.397
  552W        W 4296   3.758   6.622  10.641
  553W        W 4297   9.549   2.616   3.042
  554W        W 4298   7.564   1.145  11.475
  555W        W 4299   6.623   8.602   2.672
  556W        W 4300   4.515   1.785   3.334
  557W        W 4301   5.002   2.769   7.960
  558W        W 4302   4.211   0.586   9.899
  559W        W 4303   6.471   5.671   2.259
  560W        W 4304   8.910   5.071   9.532
  561W        W 4305   8.922   2.163   0.488
  562W        W 4306   8.460   2.782   2.203
  563W        W 4307   2.172   4.711   9.874
  564W        W 4308   1.393   0.713   0.342
  565W        W 4309   7.871   7.441   1.216
  566W        W 4310   6.904   3.140   1.225
  567W        W 4311  10.149   5.084  10.113
  568W        W 4312   0.790   2.775   9.719
  569W        W 4313   5.222   4.321   2.310
  570W        W 4314   1.198   4.771   9.625
  571W        W 4315   6.581   5.880   0.191
  572W        W 4316   2.020   8.003  11.919
  573W        W 4317   4.727   4.957  11.640
  574W        W 4318   0.633   1.678   1.740
  575W        W 4319   7.097   5.587  11.924
  576W        W 4320   3.337   1.880   2.166
  577W        W 4321   8.851   4.244   1.547
  578W        W 4322   0.325   9.888   1.809
  579W        W 4323   0.479   5.642   1.897
  580W        W 4324   8.495   8.881   8.789
  581W        W 4325   6.057   6.947   2.774
  582W        W 4326   6.243   6.538   9.867
  583W        W 4327   2.737   5.187   3.173
  584W        W 4328   7.142   6.544   9.385
  585W        W 4329   3.761   2.572   0.062
  586W        W 4330   3.266   8.223   0.567
  587W        W 4331   9.343   7.313   9.226
  588W        W 4332   6.674   9.243   0.669
  589W        W 4333   3.085   3.344   2.577
  590W        W 4334   9.409   7.545   2.479
  591W        W 4335   9.055   4.118   0.407
  592W        W 4336   4.504   4.110   0.671
  593W        W 4337   5.206   7.069   9.299
  594W        W 4338   5.119   9.936   9.043
  595W        W 4339   1.971   6.746   9.913
  596W        W 4340   3.780   6.076  10.484
  597W        W 4341   6.027   9.682   3.427
  598W        W 4342   9.441   3.788   0.429
  599W        W 4343   0.883   0.327  10.497
  600W        W 4344   2.307   4.565   0.993
  601W        W 4345   6.674   1.768   8.657
  602W        W 4346   2.728   3.557   3.358
  603W        W 4347   7.679   3.736   3.815
  604W        W 4348   6.046   3.225  10.804
  605W        W 4349   1.312   3.812   9.146
  606W        W 4350   9.531   4.744   1.944
  607W        W 4351   0.883   8.339  11.196
  608W        W 4352   3.547   1.601   3.417
  609W        W 4353   1.181   7.507   8.824
  610W        W 4354   4.812   1.024   1.219
  611W        W 4355   7.679   2.812   1.341
  612W        W 4356   1.330   2.396  11.050
  613W        W 4357   4.617   2.146  10.587
  614W        W 4358   3.268   9.757   9.160
  615W        W 4359   9.276   6.285   9.787
  616W        W 4360   4.082   8.389   9.065
  617W        W 4361   6.985   1.843  11.009
  618W        W 4362   4.117   6.001  11.783
  619W        W 4363   3.465   1.009   2.181
  620W        W 4364   9.026   1.680   0.649
  621W        W 4365   5.150   3.834   0.664
  622W        W 4366   3.355   5.008   9.828
  623W        W 4367   2.133   5.694  10.012
  624W        W 4368   4.537   2.791   8.807
  625W        W 4369   1.596   0.339   9.113
  626W        W 4370   6.931   7.024   3.512
  627W        W 4371   7.685   1.047   9.831
  628W        W 4372   2.400   7.358   0.234
  629W        W 4373   7.623   4.127  10.010
  630W        W 4374   6.128   8.348   1.870
  631W        W 4375   4.801   4.601   2.425
  632W        W 4376   7.270   3.627  11.974
  633W        W 4377   3.597   6.132   2.674
  634W        W 4378   4.728   7.345   0.953
  635W        W 4379   2.431   6.528  10.082
  636W        W 4380   7.500   0.843  11.871
  637W        W 4381   5.024   6.491  10.357
  638W        W 4382   3.213  10.298  11.402
  639W        W 4383   9.870   8.472   9.056
  640W        W 4384   9.208   5.743   0.703
  641W        W 4385   0.369   5.955   0.387
  642W        W 4386  10.092   2.786   1.769
  643W        W 4387   5.517   5.137  10.923
  644W        W 4388   2.144   2.069   9.944
  645W        W 4389   3.287   8.411  10.496
  646W        W 4390   4.760   0.021   1.993
  647W        W 4391  10.094   8.288   9.948
  648W        W 4392   5.668   4.144   9.524
  649W        W 4393   4.066   2.371   2.292
  650W        W 4394   4.499   4.221   1.181
  651W        W 4395   8.017  10.425   0.427
  652W        W 4396   9.457   6.737   9.914
  653W        W 4397   0.061   6.558  11.070
  654W        W 4398   1.788   6.954   3.291
  655W        W 4399   9.010   4.291   1.025
  656W        W 4400   1.939   8.791  10.518
  657W        W 4401   8.630   7.213   2.305
  658W        W 4402   9.820   1.385   0.244
  659W        W 4403   3.314   5.074   8.368
  660W        W 4404   2.313   2.096   1.001
  661W        W 4405   9.301   7.674   2.974
  662W        W 4406   6.744   5.982   8.723
  663W        W 4407   5.240   5.780   9.081
  664W        W 4408   7.615   5.689   2.119
  665W        W 4409   4.846   2.677  11.270
  666W        W 4410   9.080   2.307   1.377
  667W        W 4411   5.663   5.603   1.084
  668W        W 4412   5.905   8.625   1.500
  669W        W 4413   4.066   3.289   2.320
  670W        W 4414   6.091   0.327   2.494
  671W        W 4415   9.454   9.466   8.961
  672W        W 4416   3.817   0.031   1.700
  673W        W 4417   4.974   3.228   3.636
  674W        W 4418  10.066   3.618   1.717
  675W        W 4419   1.211   4.217   1.943
  676W        W 4420   0.444   3.413   3.536
  677W        W 4421   8.074   8.615  11.003
  678W        W 4422   6.508   3.598  11.727
  679W        W 4423   5.391  10.336   3.024
  680W        W 4424   5.054   6.060   1.411
  681W        W 4425   7.998   1.758   0.802
  682W        W 4426   0.814   0.935  11.813
  683W        W 4427   9.827   6.980   0.939
  684W        W 4428   1.956   3.668  11.923
  685W        W 4429   6.563   0.593   2.225
  686W        W 4430   0.292   2.069   1.843
  687W        W 4431   0.357   3.955  10.528
  688W        W 4432   6.231   4.692   0.516
  689W        W 4433   9.618   0.587   0.087
  690W        W 4434   0.530   4.742   1.973
  691W        W 4435   9.929   2.292   1.715
  692W        W 4436  10.241   7.778   9.790
  693W        W 4437   6.740   7.270   2.209
  694W        W 4438   0.843   8.588   2.244
  695W        W 4439   2.337   1.564   9.984
  696W        W 4440   8.637   6.528   1.901
  697W        W 4441   4.827   0.440   3.355
  698W        W 4442   1.885  10.470   3.385
  699W        W 4443   0.272   4.829  11.124
  700W        W 4444   7.218   1.850   8.594
  701W        W 4445   2.015   3.959   9.336
  702W        W 4446   3.775   7.646   2.610
  703W        W 4447   8.935   3.116   0.559
  704W        W 4448   7.805   3.108   3.117
  705W        W 4449   3.908   0.158   3.508
  706W        W 4450   7.969   8.346   3.079
  707W        W 4451   4.768   0.344   0.040
  708W        W 4452   5.207   6.023   1.936
  709W        W 4453   8.561   9.516   2.598
  710W        W 4454   1.177   5.767   8.625
  711W        W 4455   5.605   3.432   8.984
  712W        W 4456   7.906   5.271   9.094
  713W        W 4457   1.001   8.078   9.510
  714W        W 4458   2.294   7.010   8.913
  715W        W 4459   7.001  10.475   8.499
  716W        W 4460   7.138   7.405   1.870
  717W        W 4461   1.640  10.306   2.426
  718W        W 4462   3.210   0.335   0.798
  719W        W 4463   5.166   7.876  10.831
  720W        W 4464   7.102   4.227  10.929
  721W        W 4465   8.454   8.868   9.309
  722W        W 4466   5.662   8.920   2.188
  723W        W 4467   9.742   6.942   9.106
  724W        W 4468   5.111   7.155   0.485
  725W        W 4469   5.506   5.129   2.614
  726W        W 4470   6.451   7.440   0.350
  727W        W 4471   8.176   4.879   8.501
  728W        W 4472   6.421   7.487  11.248
  729W        W 4473   7.732   0.544   9.881
  730W        W 4474   1.411   1.423   1.745
  731W        W 4475   0.317   7.894   2.291
  732W        W 4476   1.579   8.422   1.623
  733W        W 4477   6.035   4.235  11.475
  734W        W 4478   0.093   4.703   0.426
  735W        W 4479   3.642   9.937   9.999
  736W        W 4480   9.525   5.280  10.978
  737W        W 4481   9.693   0.151   9.995
  738W        W 4482   3.783   1.909   0.419
  739W        W 4483   1.251   3.792   0.036
  740W        W 4484   0.415   5.739  11.035
  741W        W 4485   9.903   2.726   3.440
  742W        W 4486   1.145   7.829   3.250
  743W        W 4487   5.667   1.841   0.037
  744W        W 4488   2.195   9.418   8.691
  745W        W 4489   7.565   6.654   1.108
  746W        W 4490   5.654   9.578   8.855
  747W        W 4491   5.691   2.082   2.972
  748W        W 4492  10.064   3.524  10.726
  749W        W 4493   7.475   9.696   8.971
  750W        W 4494   1.738   7.585  11.833
  751W        W 4495   1.442   0.055  11.313
  752W        W 4496   4.335   6.660   1.615
  753W        W 4497   9.982   8.799  10.023
  754W        W 4498   0.571  10.495  10.795
  755W        W 4499   4.211  10.091   2.435
  756W        W 4500   5.332  10.069   9.532
  757W        W 4501   4.535   1.339   8.731
  758W        W 4502   0.450   0.836  10.992
  759W        W 4503   9.406   9.886   9.441
  760W        W 4504   2.068   3.168   0.031
  761W        W 4505   9.039   2.714  11.247
  762W        W 4506   7.238   7.909   9.114
  763W        W 4507   3.310   7.927   2.267
  764W        W 4508   1.357   1.992  10.726
  765W        W 4509   6.985   2.641   1.883
  766W        W 4510   8.971   3.118   0.057
  767W        W 4511   2.621   0.003   9.026
  768W        W 4512   2.167   8.908  11.873
  769W        W 4513   6.559   4.026   1.009
  770W        W 4514   9.908   9.991   9.302
  771W        W 4515   3.107   6.253   3.724
  772W        W 4516   1.694  10.406   1.267
  773W        W 4517   2.198   9.492   2.771
  774W        W 4518   9.612   8.457   0.307
  775W        W 4519   3.355   1.933  10.368
  776W        W 4520   1.290   0.666   1.177
  777W        W 4521   7.403   8.187  10.071
  778W        W 4522   2.744   6.429  10.970
  779W        W 4523   3.793   4.785   0.569
  780W        W 4524   7.701   5.769   1.319
  781W        W 4525   6.185   7.066  11.460
  782W        W 4526   0.364   2.292   1.392
  783W        W 4527   6.161   5.485   0.989
  784W        W 4528   5.549   6.022  10.234
  785W        W 4529   5.087   3.329   2.211
  786W        W 4530   0.849   6.204  11.494
  787W        W 4531   5.742   1.239  10.275
  788W        W 4532   6.331   9.459   3.112
  789W        W 4533   5.580   6.740   2.796
  790W        W 4534   0.105   2.128   8.646
  791W        W 4535   4.296   3.100   1.884
  792W        W 4536   6.640   0.329   1.355
  793W        W 4537   2.673   5.599   9.012
  794W        W 4538   0.140   9.400   3.305
  795W        W 4539   3.263   0.776   1.750
  796W        W 4540   0.292   6.559  10.596
  797W        W 4541   3.099   4.261   2.800
  798W        W 4542   4.285   9.346   8.893
  799W        W 4543   1.212   1.845   3.004
  800W        W 4544   3.000   4.304   8.566
  801W        W 4545   8.270   1.059  10.991
  802W        W 4546   7.252   2.828   0.017
  803W        W 4547   5.198   6.508   1.172
  804W        W 4548   7.222   4.209   8.561
  805W        W 4549  10.018   3.990  10.912
  806W        W 4550   4.783   0.356  11.530
  807W        W 4551   4.153   2.767   9.612
  808W        W 4552   8.903   0.265   8.661
  809W        W 4553   6.785   5.346   1.297
  810W        W 4554   9.330   4.092   1.373
  811W        W 4555   8.971   7.920   1.792
  812W        W 4556   7.009   7.551  10.370
  813W        W 4557   0.941   0.813  10.222
  814W        W 4558   3.731   3.996   3.740
  815W        W 4559   4.671   9.339  10.952
  816W        W 4560   7.553   7.330   3.628
  817W        W 4561  10.255   9.498  10.491
  818W        W 4562   6.947   3.682   9.538
  819W        W 4563  10.229   7.444  10.529
  820W        W 4564   5.629   2.245  11.182
  821W        W 4565   1.060   1.412   8.982
  822W        W 4566   0.133   5.560   9.538
  823W        W 4567   5.012   0.931   3.429
  824W        W 4568   3.592   4.247   1.821
  825W        W 4569   3.783   7.848   2.111
  826W        W 4570   7.115   1.195   0.792
  827W        W 4571   5.973   8.365  11.499
  828W        W 4572   2.486   6.921   2.938
  829W        W 4573   6.753   1.476   2.232
  830W        W 4574   8.059   2.895  11.225
  831W        W 4575   4.493   1.623   0.890
  832W        W 4576   8.542   9.501  10.568
  833W        W 4577   2.692   2.634   9.444
  834W        W 4578   7.936  10.162  10.076
  835W        W 4579   2.596   0.756   3.447
  836W        W 4580   7.418   5.568   8.586
  837W        W 4581   7.937   6.549  11.186
  838W        W 4582   6.040   3.285   0.931
  839W        W 4583   5.634   6.739   1.915
  840W        W 4584   9.234   1.085   2.057
  841W        W 4585   7.131   4.719   0.234
  842W        W 4586   4.842   6.182   0.363
  843W        W 4587   1.098   9.679  11.299
  844W        W 4588   0.739   9.827   2.546
  845W        W 4589   4.769   4.721   0.422
  846W        W 4590   4.745   3.707   9.503
  847W        W 4591   2.215   7.371  11.764
  848W        W 4592   6.198   4.247  11.961
  849W        W 4593   9.949   9.970   3.302
  850W        W 4594   6.575   8.359  10.367
  851W        W 4595   2.890   2.679  10.303
  852W        W 4596   7.845   4.628   8.190
  853W        W 4597   3.341   5.741   2.849
  854W        W 4598   1.847   1.768   2.383
  855W        W 4599   3.097   6.485   2.152
  856W        W 4600   4.060   8.613  11.436
  857W        W 4601   3.336   8.580   1.476
  858W        W 4602   2.139   2.431   2.274
  859W        W 4603   7.742   2.483   9.991
  860W        W 4604   2.307   3.829   3.170
  861W        W 4605   6.681   7.091  11.423
  862W        W 4606   0.512   8.535   3.269
  863W        W 4607   2.775   6.011   0.064
  864W        W 4608   6.678   4.789   2.415
  865W        W 4609   1.304   7.265  11.646
  866W        W 4610   8.918   7.473  10.878
  867W        W 4611   1.171   9.312   3.065
  868W        W 4612   3.662   2.757  10.031
  869W        W 4613   8.061   6.453  10.704
  870W        W 4614   6.456   3.236   0.556
  871W        W 4615   8.664   3.581   2.066
  872W        W 4616   9.528   6.637   1.180
  873W        W 4617   4.179   9.817  10.957
  874W        W 4618   1.446   0.529   2.300
  875W        W 4619   7.879   3.291  10.486
  876W        W 4620   0.320   3.214   9.128
  877W        W 4621   1.777   5.052   3.253
  878W        W 4622   4.134   0.374  10.746
  879W        W 4623   2.599   6.575   2.157
  880W        W 4624   0.523   0.905   9.922
  881W        W 4625   7.511   9.969   1.023
  882W        W 4626   2.062   1.009  11.809
  883W        W 4627   7.432   4.972   9.791
  884W        W 4628   8.455   4.656  10.796
  885W        W 4629  10.053   0.936  10.612
  886W        W 4630   9.643   6.641   2.201
  887W        W 4631   9.375   6.121  10.773
  888W        W 4632   4.975   2.617   9.001
  889W        W 4633   8.486   4.597   8.809
  890W        W 4634   4.687   2.199  11.450
  891W        W 4635  10.256   7.965   1.445
  892W        W 4636   9.099   2.848   0.971
  893W        W 4637   6.574   5.124   0.874
  894W        W 4638   8.184   3.631   8.932
  895W        W 4639  10.409   3.249   9.438
  896W        W 4640   0.702   9.756  10.452
  897W        W 4641   0.893   0.967   1.248
  898W        W 4642   8.106   4.786  11.221
  899W        W 4643   9.405   9.423  10.479
  900W        W 4644   0.498   7.564   0.821
  901W        W 4645   4.005   7.703   1.311
  902W        W 4646   3.585  10.032   0.477
  903W        W 4647   4.735   1.743   8.965
  904W        W 4648   5.606   9.390  11.751
  905W        W 4649   4.276   3.628   0.684
  906W        W 4650   7.503   7.665  10.288
  907W        W 4651   0.839   8.035   2.424
  908W        W 4652   2.565   1.169  11.460
  909W        W 4653   0.932   9.123   1.906
  910W        W 4654   0.759   3.071   2.333
  911W        W 4655   8.027   9.290   3.175
  912W        W 4656   7.545   0.994   3.336
  913W        W 4657   8.579   0.528   0.616
  914W        W 4658   8.411   1.977  11.961
  915W        W 4659   6.993   1.481   0.400
  916W        W 4660   6.337   2.716   3.234
  917W        W 4661   2.241   9.373  11.265
  918W        W 4662   8.104   1.386   9.165
  919W        W 4663   1.783   7.190   8.868
  920W        W 4664   2.163   4.097  10.740
  921W        W 4665   6.527   0.728   0.405
  922W        W 4666   9.886   2.736  11.121
  923W        W 4667   6.400   6.819  10.571
  924W        W 4668   0.924   8.760  10.352
  925W        W 4669   3.515   0.953   1.335
  926W        W 4670   3.325   6.800   0.213
  927W        W 4671  10.020   7.345  11.860
  928W        W 4672   8.869   4.201  10.480
  929W        W 4673   7.007   6.964   9.977
  930W        W 4674   1.521   8.133  11.903
  931W        W 4675   9.070   9.486  11.825
  932W        W 4676   0.572   9.136  11.149
  933W        W 4677   5.496   6.661   4.077
  934W        W 4678   8.396  10.058   8.388
  935W        W 4679   0.575   4.832   0.546
  936W        W 4680   9.376   6.162   8.774
  937W        W 4681   6.619   3.753   1.440
  938W        W 4682   9.419   6.408  10.306
  939W        W 4683   4.377  10.356   2.868
  940W        W 4684   3.872   7.292   2.251
  941W        W 4685   8.422   0.734  11.363
  942W        W 4686   4.558   5.773  11.905
  943W        W 4687   8.730   9.301   2.162
  944W        W 4688   3.668   6.070   1.308
  945W        W 4689   8.319   9.474   0.880
  946W        W 4690   5.191   5.243   9.554
  947W        W 4691   7.906   4.045   1.135
  948W        W 4692   1.819   1.610   0.538
  949W        W 4693   5.105   5.223   0.828
  950W        W 4694   1.690   4.155   3.196
  951W        W 4695   3.194   8.439   9.557
  952W        W 4696   9.937   3.153   9.201
  953W        W 4697   6.111   2.474  10.360
  954W        W 4698   1.894   9.413  10.816
  955W        W 4699   5.626   6.489   2.361
  956W        W 4700   2.600   9.957   9.106
  957W        W 4701   0.994   9.055   2.440
  958W        W 4702   3.822   9.388  11.771
  959W        W 4703   2.611   8.083   3.296
  960W        W 4704   4.574   4.054   8.912
  961W        W 4705   3.668   7.516   3.428
  962W        W 4706   2.389   0.285  11.812
  963W        W 4707   5.653   8.033  11.296
  964W        W 4708   1.415   5.639   2.475
  965W        W 4709   5.266   0.947  11.328
  966W        W 4710   7.512   6.979   8.669
  967W        W 4711   2.891   3.191   8.888
  968W        W 4712   2.636   8.975   9.988
  969W        W 4713   5.649   7.575   8.847
  970W        W 4714   4.065   2.232   8.884
  971W        W 4715   5.967   6.797   9.507
  972W        W 4716   9.844  10.272  11.460
  973W        W 4717   4.250   0.355   2.714
  974W        W 4718   7.327   1.037   2.869
  975W        W 4719   4.159   8.486   2.824
  976W        W 4720   1.852   5.072   9.993
  977W        W 4721   8.876   4.546   2.019
  978W        W 4722   3.206   6.104   9.647
  979W        W 4723   9.017   0.850  11.403
  980W        W 4724   5.559   1.684  10.528
  981W        W 4725   2.757   8.097   1.747
  982W        W 4726   6.655   8.127   2.816
  983W        W 4727   6.654  10.027   1.013
  984W        W 4728   6.697   4.445   0.646
  985W        W 4729   4.828   9.824   0.899
  986W        W 4730  10.417   1.415   0.821
  987W        W 4731  10.316   4.719  11.393
  988W        W 4732   3.539   5.280   9.419
  989W        W 4733   5.460   4.334   1.662
  990W        W 4734   0.145   0.221   2.078
  991W        W 4735   0.861   7.117   3.584
  992W        W 4736   4.545   2.673   2.778
  993W        W 4737   1.158   6.117  10.847
  994W        W 4738   9.047   9.730   2.204
  995W        W 4739   8.806   9.865  11.514
  996W        W 4740   6.884   8.352   2.301
  997W        W 4741   0.228   9.213   2.404
  998W        W 4742   8.937   0.048  10.485
  999W        W 4743  10.294   3.253  11.358
 1000W        W 4744   2.361   2.056   2.036
 1001W        W 4745   7.820   3.287   1.122
 1002W        W 4746   0.823   0.530  11.514
 1003W        W 4747   5.010   4.524   3.112
 1004W        W 4748   2.277   7.834   0.362
 1005W        W 4749   9.862   9.268   2.609
 1006W        W 4750   4.056   3.951   9.141
 1007W        W 4751   5.343   7.889   2.647
 1008W        W 4752   6.595   5.716  11.715
 1009W        W 4753   5.947   2.235  10.771
 1010W        W 4754   5.689   8.567   0.715
 1011W        W 4755  10.313  10.052  11.776
 1012W        W 4756   1.698   9.049   9.115
 1013W        W 4757   2.645   2.768   3.540
 1014W        W 4758   7.477   1.342   1.704
 1015W        W 4759   1.158   1.862   1.632
 1016W        W 4760   3.156   6.111  11.756
 1017W        W 4761   7.946   9.139   0.784
 1018W        W 4762   3.544   7.700   1.664
 1019W        W 4763   3.669   4.679   8.217
 1020W        W 4764   7.083   4.739  10.386
 1021W        W 4765   9.419   3.768  10.147
 1022W        W 4766   8.566   5.644   3.091
 1023W        W 4767   4.004   4.438   1.563
 1024W        W 4768   9.135   3.596  11.346
 1025W        W 4769   9.540   6.355   0.166
 1026W        W 4770   2.537   2.632   3.053
 1027W        W 4771   9.331   7.818  11.505
 1028W        W 4772   8.381  10.170   0.186
 1029W        W 4773   5.560   0.016   8.871
 1030W        W 4774   5.798   9.861   9.597
 1031W        W 4775   1.320   0.761   9.530
 1032W        W 4776   1.218   5.095   3.033
 1033W        W 4777   5.668  10.408   1.976
 1034W        W 4778   5.768   0.689   1.302
 1035W        W 4779   1.858   8.617   3.160
 1036W        W 4780   1.080   1.074   3.615
 1037W        W 4781  10.451   1.793  10.098
 1038W        W 4782   2.350   3.612  11.055
 1039W        W 4783   8.871   5.751   2.667
 1040W        W 4784   8.141   9.262   9.836
 1041W        W 4785   5.227   3.542   1.722
 1042W        W 4786   1.834   8.419  10.188
 1043W        W 4787   5.580   3.690  11.956
 1044W        W 4788   8.331   3.321  10.804
 1045W        W 4789   6.545   8.535   9.850
 1046W        W 4790   2.839   0.420   9.801
 1047W        W 4791   7.535   0.268   2.293
 1048W        W 4792  10.231   5.096   3.247
 1049W        W 4793   1.319   5.917   3.402
 1050W        W 4794   4.589   1.877  11.056
 1051W        W 4795   4.271   3.313  11.264
 1052W        W 4796   8.267  10.227   8.846
 1053W        W 4797   9.735   4.011   1.684
 1054W        W 4798  10.184   5.958   9.012
 1055W        W 4799   2.571   4.518   8.760
 1056W        W 4800   6.657   7.523   1.744
 1057W        W 4801   5.789   6.205  11.518
 1058W        W 4802   6.854   5.164   9.524
 1059W        W 4803   0.928   3.568  10.818
 1060W        W 4804   4.073   0.209  11.224
 1061W        W 4805   9.976   3.245   9.736
 1062W        W 4806   0.764   8.014   2.974
 1063W        W 4807   1.350   9.975  10.603
 1064W        W 4808   0.596   0.549   9.121
 1065W        W 4809   7.119   1.093   8.928
 1066W        W 4810   0.782   2.625   3.001
 1067W        W 4811   8.703   7.310  11.852
 1068W        W 4812   7.150   3.377   8.929
 1069W        W 4813   4.441   0.029   2.382
 1070W        W 4814   7.843   5.182  11.436
 1071W        W 4815   9.563   7.110  10.985
 1072W        W 4816   4.142  10.073  10.037
 1073W        W 4817   6.999   6.103   9.621
 1074W        W 4818   0.126   7.486   9.578
 1075W        W 4819   7.090   4.663   4.263
 1076W        W 4820   7.458   0.851  10.915
 1077W        W 4821   5.254   8.315   0.487
 1078W        W 4822   4.766   9.323   0.915
 1079W        W 4823   9.278   1.597   1.966
 1080W        W 4824   5.161   8.953   1.981
 1081W        W 4825   3.621   8.569   8.943
 1082W        W 4826   6.937   0.170  11.824
 1083W        W 4827   9.899   1.839   1.455
 1084W        W 4828   7.568   5.397  11.000
 1085W        W 4829   8.664   6.826   1.470
 1086W        W 4830   5.786   4.642   1.368
 1087W        W 4831   5.105  10.421   1.552
 1088W        W 4832   8.346   6.210   2.167
 1089W        W 4833   6.145   3.685   1.710
 1090W        W 4834  10.421   1.281   2.754
 1091W        W 4835   3.553   2.746   1.842
 1092W        W 4836   5.249   8.998  11.459
 1093W        W 4837   1.742   7.178   9.802
 1094W        W 4838   9.861   7.062   3.009
 1095W        W 4839   3.685   9.606   0.214
 1096W        W 4840   6.865   2.228  10.694
 1097W        W 4841   9.426   1.206   9.970
 1098W        W 4842   5.360   0.422  10.589
 1099W        W 4843   3.283  10.180  10.884
 1100W        W 4844   8.147   8.395   0.302
 1101W        W 4845   6.452   3.271   2.827
 1102W        W 4846   4.626   7.901   2.318
 1103W        W 4847   2.333   8.365   1.415
 1104W        W 4848   6.082   9.686  10.462
 1105W        W 4849   6.092   1.037   0.178
 1106W        W 4850   3.314   0.498   2.765
 1107W        W 4851   3.908   4.640   2.721
 1108W        W 4852   2.865   3.577  11.718
 1109W        W 4853   5.279   1.362  11.015
 1110W        W 4854   2.947   4.609   9.629
 1111W        W 4855   6.200   1.269  10.563
 1112W        W 4856   3.206   4.577  11.561
 1113W        W 4857   6.571  10.225   0.544
 1114W        W 4858   9.867   1.408  10.681
 1115W        W 4859   0.133   8.335   0.391
 1116W        W 4860   3.411   3.660  10.376
 1117W        W 4861   0.185   6.176   9.860
 1118W        W 4862   4.950   5.640  10.270
 1119W        W 4863   6.166   6.492   1.218
 1120W        W 4864   5.632   3.132  11.137
 1121W        W 4865   4.691   9.111   9.153
 1122W        W 4866   9.528   9.586   0.034
 1123W        W 4867   4.998   4.523   1.859
 1124W        W 4868   1.739   6.016   9.920
 1125W        W 4869   2.201   9.463   9.849
 1126W        W 4870   0.387   2.753   1.169
 1127W        W 4871   2.977   5.942   0.551
 1128W        W 4872   2.235   0.937  10.562
 1129W        W 4873   0.160   1.656  11.081
 1130W        W 4874   3.556   1.708  11.993
 1131W        W 4875   9.970   6.154   1.370
 1132W        W 4876   8.202   7.171   8.566
 1133W        W 4877   5.964   7.474   1.501
 1134W        W 4878   3.665   3.504   1.468
 1135W        W 4879   8.489   5.906   9.584
 1136W        W 4880   1.044   5.942   9.485
 1137W        W 4881   2.809   8.893   2.164
 1138W        W 4882   4.809   3.136   2.708
 1139W        W 4883   9.898   6.015   0.009
 1140W        W 4884   4.993   4.211   8.676
 1141W        W 4885  10.392   7.229   0.211
 1142W        W 4886   9.574   7.044  11.927
 1143W        W 4887   7.580   5.784  11.916
 1144W        W 4888   3.720   1.418   9.343
 1145W        W 4889   0.768   7.053  10.594
 1146W        W 4890   9.185   1.746  10.799
 1147W        W 4891   8.943   3.327   1.075
 1148W        W 4892  10.309   0.457   0.697
 1149W        W 4893   0.293   6.962  10.247
 1150W        W 4894   8.403   5.054   9.605
 1151W        W 4895   0.273   2.691   3.118
 1152W        W 4896   4.418   9.530  10.129
 1153W        W 4897   7.892  10.224   9.569
 1154W        W 4898   2.692   5.641   1.729
 1155W        W 4899   7.188   7.003   0.210
 1156W        W 4900   5.451   7.275   3.707
 1157W        W 4901   8.282   0.016  11.810
 1158W        W 4902   6.464   1.391   9.616
 1159W        W 4903   1.790   4.270   0.615
 1160W        W 4904   9.892   8.890  11.559
 1161W        W 4905   3.534   7.545   1.170
 1162W        W 4906   1.652   3.160   3.028
 1163W        W 4907   6.966   6.064   0.956
 1164W        W 4908   0.478   2.096   0.924
 1165W        W 4909   7.142   9.326   3.272
 1166W        W 4910   2.677   1.937   9.923
 1167W        W 4911   3.697   8.861   0.902
 1168W        W 4912   1.354   0.877  10.532
 1169W        W 4913   9.967   5.704  10.304
 1170W        W 4914   8.752  10.041  10.528
 1171W        W 4915   3.125   9.803  11.348
 1172W        W 4916   1.827   5.751  11.225
 1173W        W 4917   0.985   1.405   3.233
 1174W        W 4918   9.550   7.037   3.446
 1175W        W 4919  10.324   9.865   1.694
 1176W        W 4920   5.758   7.011   2.354
 1177W        W 4921   7.382   5.671   9.101
 1178W        W 4922   2.845   4.824   2.809
 1179W        W 4923   9.483   3.545   3.318
 1180W        W 4924   9.546   4.497   0.426
 1181W        W 4925   5.676   1.311   8.745
 1182W        W 4926   7.055   3.969   2.409
 1183W        W 4927   5.663   3.725   1.988
 1184W        W 4928   7.686   3.839  11.819
 1185W        W 4929   7.171   2.654  10.633
 1186W        W 4930  10.426   4.370   0.774
 1187W        W 4931   7.197   1.256  11.855
 1188W        W 4932   2.926   2.953   8.411
 1189W        W 4933   5.535   2.228   8.805
 1190W        W 4934   8.146   1.887   2.857
 1191W        W 4935   3.322   0.505   2.230
 1192W        W 4936   7.932   7.381   2.700
 1193W        W 4937   0.276   1.345   9.825
 1194W        W 4938   2.353   1.875   8.607
 1195W        W 4939   0.633   8.885   0.942
 1196W        W 4940   6.196   6.002   1.035
 1197W        W 4941   9.086   3.740  10.534
 1198W        W 4942   4.266   1.161   0.839
 1199W        W 4943   2.672   3.777   0.619
 1200W        W 4944   7.892   5.103   0.219
 1201W        W 4945   7.838   8.281  11.325
 1202W        W 4946   7.933   6.613  11.687
 1203W        W 4947   1.256   7.333   3.091
 1204W        W 4948   1.439   6.502  11.010
 1205W        W 4949   7.567   7.906  11.063
 1206W        W 4950   1.658   2.699   3.253
 1207W        W 4951   6.058   1.966   0.724
 1208W        W 4952   2.214   8.590   2.305
 1209W        W 4953   6.880   7.855   9.971
 1210W        W 4954   1.403   5.573   9.444
 1211W        W 4955   1.869   5.911  10.406
 1212W        W 4956   1.835   7.664   8.633
 1213W        W 4957   7.198   1.483  11.326
 1214W        W 4958   2.272   3.780   8.894
 1215W        W 4959  10.028   3.807  10.285
 1216W        W 4960   0.019   9.370   1.418
 1217W        W 4961   9.832   5.558   9.828
 1218W        W 4962   7.684   9.423   8.580
 1219W        W 4963   3.176   2.764   9.348
 1220W        W 4964   7.300   4.410   0.600
 1221W        W 4965   2.964   7.553   8.642
 1222W        W 4966   4.021   7.900   3.434
 1223W        W 4967   3.505   3.168   3.307
 1224W        W 4968   8.199   4.684   0.166
 1225W        W 4969   5.616   1.737   2.472
 1226W        W 4970   3.152   4.100  10.825
 1227W        W 4971   9.545   0.713  11.580
 1228W        W 4972   5.653   8.465   0.211
 1229W        W 4973   2.164   7.333  11.254
 1230W        W 4974   4.593   5.029  10.803
 1231W        W 4975   3.753   1.329  10.370
 1232W        W 4976   2.296   8.436   8.897
 1233W        W 4977   8.941   0.049   1.826
 1234W        W 4978   6.021   5.809   9.571
 1235W        W 4979   0.772  10.011   3.489
 1236W        W 4980   5.750   9.551   3.003
 1237W        W 4981   9.414   1.729   1.485
 1238W        W 4982   3.510   1.711   0.790
 1239W        W 4983   6.956   0.287   9.512
 1240W        W 4984   9.498   0.968   0.920
 1241W        W 4985   9.362   9.568   2.906
 1242W        W 4986   9.338   5.061   9.231
 1243W        W 4987   1.529   7.769   2.947
 1244W        W 4988   2.215   5.786   2.355
 1245W        W 4989   6.171   6.447   3.871
 1246W        W 4990   5.286   3.796   2.332
 1247W        W 4991   0.526   8.290   9.503
 1248W        W 4992   6.221   2.719  10.784
 1249W        W 4993   4.959   3.716   7.840
 1250W        W 4994   4.278   3.896  10.349
 1251W        W 4995   7.381   6.782   3.678
 1252W        W 4996   5.383   7.084  10.562
 1253W        W 4997   5.978   8.375   9.524
 1254W        W 4998   7.200   7.314   0.662
 1255W        W 4999   5.103   0.673   2.112
 1256W        W 5000   4.751   2.706  10.760
 1257W        W 5001   3.340   2.813   0.258
 1258W        W 5002   7.972   0.955   8.846
 1259W        W 5003   5.995   3.906  10.201
 1260W        W 5004   2.200   5.791   9.010
 1261W        W 5005   2.769   4.688   1.949
 1262W        W 5006   9.727   7.153   1.441
 1263W        W 5007   8.554   3.364   3.367
 1264W        W 5008   5.029   7.989   9.748
 1265W        W 5009   1.687   4.696   9.692
 1266W        W 5010   9.145   8.194   9.213
 1267W        W 5011   7.448   5.223   3.602
 1268W        W 5012   6.487   7.346   2.740
 1269W        W 5013   4.588   8.115  10.036
 1270W        W 5014   4.514   9.687   8.552
 1271W        W 5015   7.791  10.410  11.966
 1272W        W 5016   4.131   1.400   0.391
 1273W        W 5017   1.257   6.462   0.300
 1274W        W 5018   8.096   8.916   0.323
 1275W        W 5019   0.133   6.846   8.626
 1276W        W 5020   4.604   5.027   2.675
 1277W        W 5021   9.333   2.410   9.969
 1278W        W 5022  10.137   0.412   9.938
 1279W        W 5023   1.820   1.650  10.051
 1280W        W 5024   1.277   2.195   1.182
 1281W        W 5025   7.932   8.812   3.321
 1282W        W 5026  10.285   6.465   9.668
 1283W        W 5027   0.479   3.458  10.591
 1284W        W 5028   7.054   5.377   0.763
 1285W        W 5029   5.610   9.406   1.457
 1286W        W 5030   3.462   8.373   3.093
 1287W        W 5031   7.470   5.033   0.481
 1288W        W 5032   7.255   9.281   1.846
 1289W        W 5033   9.155   1.355   0.213
 1290W        W 5034   2.872   4.039   3.277
 1291W        W 5035   9.761   0.524   1.865
 1292W        W 5036   1.833   5.571   0.245
 1293W        W 5037   3.118  10.500   9.615
 1294W        W 5038   1.858  10.325  11.515
 1295W        W 5039  10.275   1.907   2.073
 1296W        W 5040   6.883   7.599   1.230
 1297W        W 5041   6.489   3.538  10.741
 1298W        W 5042   8.749  10.438   9.463
 1299W        W 5043   3.205   6.026   2.347
 1300W        W 5044   4.461   4.619   0.824
 1301W        W 5045  10.466   5.428   2.377
 1302W        W 5046   3.106   0.682   3.272
 1303W        W 5047   6.710   5.556  10.843
 1304W        W 5048   8.910   7.646   0.371
 1305W        W 5049   8.386   8.572   3.307
 1306W        W 5050   2.436   0.292   9.475
 1307W        W 5051   8.418   1.799   0.439
 1308W        W 5052   0.692   2.415   8.565
 1309W        W 5053   0.692   4.159   2.230
 1310W        W 5054   6.978   2.251   8.829
 1311W        W 5055   4.652   7.074   1.676
 1312W        W 5056   0.382   6.419  11.914
 1313W        W 5057   3.159   7.579   3.239
 1314W        W 5058   4.188   7.863   9.806
 1315W        W 5059   2.687   9.532   8.771
 1316W        W 5060   7.671   6.524   1.566
 1317W        W 5061   6.846   2.314  11.738
 1318W        W 5062   1.167   7.587  11.260
 1319W        W 5063   4.615   9.914   2.729
 1320W        W 5064   7.812   6.045   4.144
 1321W        W 5065   4.842   1.322  11.259
 1322W        W 5066   6.554   5.854   2.735
 1323W        W 5067   9.925   7.485   1.829
 1324W        W 5068   6.494   0.973   9.299
 1325W        W 5069   2.367   1.453   9.056
 1326W        W 5070   4.778   6.505   1.820
 1327W        W 5071   4.621   6.151  10.373
 1328W        W 5072   6.975   9.442   1.446
 1329W        W 5073   4.146   4.693   9.970
 1330W        W 5074   2.709   3.238  10.860
 1331W        W 5075   4.190   0.348   1.185
 1332W        W 5076   7.700   8.309   0.526
 1333W        W 5077   9.358   0.235   9.557
 1334W        W 5078   2.819   1.457   9.822
 1335W        W 5079   3.218   4.098  11.328
 1336W        W 5080   7.418   9.764   0.499
 1337W        W 5081   1.247   6.515   1.692
 1338W        W 5082  10.455   0.138   1.142
 1339W        W 5083   8.846   3.187   9.531
 1340W        W 5084   6.076   7.377   3.058
 1341W        W 5085   5.085   7.417  10.075
 1342W        W 5086   7.699   7.336   9.938
 1343W        W 5087   3.813   2.260   1.779
 1344W        W 5088   2.585   3.190  11.937
 1345W        W 5089   3.943   2.639   8.589
 1346W        W 5090   7.877   7.031   9.516
 1347W        W 5091   3.875   3.637  11.052
 1348W        W 5092   6.087   0.380   0.797
 1349W        W 5093   2.158   4.435   8.440
 1350W        W 5094   6.226   0.048  10.842
 1351W        W 5095   7.514   2.947   2.307
 1352W        W 5096   5.551   4.367  11.421
 1353W        W 5097   8.182   5.782   3.871
 1354W        W 5098   9.014   7.717   9.340
 1355W        W 5099   4.731   7.236   9.469
 1356W        W 5100   7.930   1.153   1.926
 1357W        W 5101   7.867   8.367   9.853
 1358W        W 5102   3.698   1.406   1.489
 1359W        W 5103   7.438   7.436  11.254
 1360W        W 5104   6.564   6.861   2.724
 1361W        W 5105   8.521   4.563   3.098
 1362W        W 5106   7.962   5.105   8.078
 1363W        W 5107   4.573  10.353  10.045
 1364W        W 5108   5.771   4.621   2.917
 1365W        W 5109   9.710  10.443   1.257
 1366W        W 5110  10.051   0.520  11.800
 1367W        W 5111   5.109   6.150  11.053
 1368W        W 5112   2.350   6.180   3.764
 1369W        W 5113   1.984   1.149   8.820
 1370W        W 5114   1.811   3.198  10.997
 1371W        W 5115   4.084   2.368   0.455
 1372W        W 5116   9.402   0.405   8.631
 1373W        W 5117   2.896   4.014   2.364
 1374W        W 5118   8.949   2.715  10.743
 1375W        W 5119   4.471   6.774  11.813
 1376W        W 5120   0.141   9.328  11.322
 1377W        W 5121  10.288   6.357   2.536
 1378W        W 5122   5.840   7.679   1.957
 1379W        W 5123   2.724   9.909   3.302
 1380W        W 5124   8.403   4.176   9.555
 1381W        W 5125   5.724   8.318   1.152
 1382W        W 5126   4.718   3.243   9.688
 1383W        W 5127   2.625   1.222  10.279
 1384W        W 5128   7.804  10.331   1.240
 1385W        W 5129   8.277   0.305   0.259
 1386W        W 5130   7.067   8.808   3.333
 1387W        W 5131   7.835   9.368   2.643
 1388W        W 5132   2.250   9.853   1.408
 1389W        W 5133   5.990   2.969  10.355
 1390W        W 5134   7.230   7.896   1.696
 1391W        W 5135   1.702   2.639   9.535
 1392W        W 5136   5.430   0.871  10.844
 1393W        W 5137  10.037   0.575   3.169
 1394W        W 5138   1.309   0.537  11.401
 1395W        W 5139   8.538   1.809   1.412
 1396W        W 5140   2.437   2.206   9.556
 1397W        W 5141   1.944   3.307   1.529
 1398W        W 5142   5.709   8.216   2.737
 1399W        W 5143   1.008   2.335   9.572
 1400W        W 5144   0.700   2.884  11.415
 1401W        W 5145   7.682   1.992  10.268
 1402W        W 5146   5.426   0.815   3.115
 1403W        W 5147   3.940   5.640  10.228
 1404W        W 5148   2.915   4.543  10.974
 1405W        W 5149   8.957   6.223   2.832
 1406W        W 5150   5.581   2.038   0.969
 1407W        W 5151   1.578   8.011  10.067
 1408W        W 5152   2.737   7.041   3.383
 1409W        W 5153   7.671   1.400   3.631
 1410W        W 5154   2.776   3.729   1.949
 1411W        W 5155  10.366   3.061   8.931
 1412W        W 5156   9.111   6.685   2.666
 1413W        W 5157   1.207   3.319   0.241
 1414W        W 5158   4.905   0.680   8.245
 1415W        W 5159   3.577   3.221  10.672
 1416W        W 5160   1.427   2.252   9.307
 1417W        W 5161   0.489   6.847  10.977
 1418W        W 5162   2.120   7.673   1.181
 1419W        W 5163   1.330   4.311   9.000
 1420W        W 5164   2.581   2.676   0.834
 1421W        W 5165   9.131   5.534   9.264
 1422W        W 5166   0.290   4.129  11.927
 1423W        W 5167   2.406   0.869   1.943
 1424W        W 5168   2.371   6.091   9.805
 1425W        W 5169   5.018   3.794   9.045
 1426W        W 5170   8.901   5.294   0.435
 1427W        W 5171   6.214   5.492   0.073
 1428W        W 5172   1.503   5.066   1.948
 1429W        W 5173   0.240   0.555   0.962
 1430W        W 5174   6.134   8.385  10.109
 1431W        W 5175   0.320   0.383  11.359
 1432W        W 5176   9.487   4.152   0.057
 1433W        W 5177   7.974   8.738   1.693
 1434W        W 5178  10.262   8.409   3.158
 1435W        W 5179   4.825   4.559   1.367
 1436W        W 5180   0.947   0.301   0.280
 1437W        W 5181   8.869   9.823   3.260
 1438W        W 5182   1.107  10.318   0.178
 1439W        W 5183   8.001   4.629   2.415
 1440W        W 5184  10.492  10.119   9.123
 1441W        W 5185   8.852   5.544   9.730
 1442W        W 5186   8.849   9.049  11.974
 1443W        W 5187   4.790   1.228   0.750
 1444W        W 5188   7.958   6.491   2.641
 1445W        W 5189   5.438   2.147  10.727
 1446W        W 5190   4.213   5.853  10.639
 1447W        W 5191   2.202   2.193  11.139
 1448W        W 5192   5.237   4.230   3.623
 1449W        W 5193   3.687   5.893   2.224
 1450W        W 5194   1.808   9.529   9.010
 1451W        W 5195   5.297   0.061  10.982
 1452W        W 5196   6.112   9.900   2.952
 1453W        W 5197   2.159   6.528   1.904
 1454W        W 5198   8.153   5.755   8.477
 1455W        W 5199   1.643   4.602   0.256
 1456W        W 5200   7.645   3.270  11.918
 1457W        W 5201   2.841   5.758  10.390
 1458W        W 5202   6.619   6.630   3.166
 1459W        W 5203   6.815   2.076  10.205
 1460W        W 5204   5.762   3.735   2.504
 1461W        W 5205   5.188   1.760   0.841
 1462W        W 5206   3.806   3.557   9.383
 1463W        W 5207  10.207   6.034   0.916
 1464W        W 5208   4.223   1.407   9.582
 1465W        W 5209   3.010   0.871   2.411
 1466W        W 5210   3.565   0.144  11.285
 1467W        W 5211   4.674   0.322   9.873
 1468W        W 5212   1.693   3.166   2.513
 1469W        W 5213   1.015   8.343   0.415
 1470W        W 5214   3.526   6.708   8.684
 1471W        W 5215   2.268   5.468  11.994
 1472W        W 5216   6.429   5.240   2.576
 1473W        W 5217   2.278   0.325   3.477
 1474W        W 5218   7.516   1.507   0.737
 1475W        W 5219   9.729  10.123  10.360
 1476W        W 5220   9.590   2.216   1.275
 1477W        W 5221   1.805   7.291  10.322
 1478W        W 5222   0.757   4.256   3.280
 1479W        W 5223   1.673   7.645  11.329
 1480W        W 5224   8.546   5.296   1.269
 1481W        W 5225   5.719   7.134   4.116
 1482W        W 5226   4.548   8.161   8.957
 1483W        W 5227   9.810   7.661   9.402
 1484W        W 5228   4.982   7.910   8.800
 1485W        W 5229   8.749   5.831   0.964
 1486W        W 5230   3.232   6.346   1.468
 1487W        W 5231   6.824   8.106   8.889
 1488W        W 5232   8.993   3.362   1.576
 1489W        W 5233   9.488   4.721  10.956
 1490W        W 5234   2.729   4.634   0.705
 1491W        W 5235   9.835   2.212   0.183
 1492W        W 5236  10.374   6.093   0.284
 1493W        W 5237   3.162   5.645   1.931
 1494W        W 5238   7.870   7.171  10.403
 1495W        W 5239   6.171   0.541  10.757
 1496W        W 5240   7.846   9.745  11.440
 1497W        W 5241   3.920   8.365   3.256
 1498W        W 5242   0.275   8.544   9.135
 1499W        W 5243   5.316   4.488   1.195
 1500W        W 5244   8.482   6.376   1.265
 1501W        W 5245   7.545   9.526   3.578
 1502W        W 5246   3.720  10.093   9.119
 1503W        W 5247   8.568   1.013   2.828
 1504W        W 5248   4.269   1.484  11.097
 1505W        W 5249   3.571   4.316   0.440
 1506W        W 5250   4.531   6.960   0.636
 1507W        W 5251   8.484   9.016   2.527
 1508W        W 5252   2.060   7.708   2.123
 1509W        W 5253   8.483   8.279  11.948
 1510W        W 5254   1.739   2.100   2.795
 1511W        W 5255   5.665   1.293   0.258
 1512W        W 5256   7.026   7.557   3.555
 1513W        W 5257   0.197   5.938  11.898
 1514W        W 5258   9.431   5.024   1.252
 1515W        W 5259   4.280   1.113  10.008
 1516W        W 5260   0.008   8.414  10.977
 1517W        W 5261   9.341   0.551  10.472
 1518W        W 5262   3.133   6.986   2.128
 1519W        W 5263   7.657   4.174   8.308
 1520W        W 5264   1.467   5.487  11.458
 1521W        W 5265   5.094   0.005   3.433
 1522W        W 5266   9.536   5.441   0.963
 1523W        W 5267   9.031   5.839   3.170
 1524W        W 5268   8.761   7.045   2.774
 1525W        W 5269   3.689   8.643   2.713
 1526W        W 5270   2.744  10.421  11.587
 1527W        W 5271   3.497   2.766  10.959
 1528W        W 5272   7.288   2.311   9.754
 1529W        W 5273   3.278   9.109   3.498
 1530W        W 5274  10.318   6.202   3.039
 1531W        W 5275   1.858   3.711  10.907
 1532W        W 5276   7.485   6.111   9.416
 1533W        W 5277   6.024   7.430   2.557
 1534W        W 5278   5.606   8.307   3.641
 1535W        W 5279   2.237   5.789   1.457
 1536W        W 5280   5.531   6.850   0.407
 1537W        W 5281   3.312   1.155   3.343
 1538W        W 5282  10.360   6.434   9.114
 1539W        W 5283   6.770   8.464   0.297
 1540W        W 5284   9.817   5.242  10.465
 1541W        W 5285   4.470   7.481   1.410
 1542W        W 5286   3.685   6.718   9.181
 1543W        W 5287   1.453   5.547   2.983
 1544W        W 5288   5.590   3.097   9.388
 1545W        W 5289   7.548   8.878   1.952
 1546W        W 5290  10.149   5.994   9.874
 1547W        W 5291   9.870   6.120   8.593
 1548W        W 5292   6.141   9.908   9.981
 1549W        W 5293   9.860   3.269  11.130
 1550W        W 5294   6.106   6.478  11.819
 1551W        W 5295   4.546   7.545   1.911
 1552W        W 5296   2.389   7.574  10.158
 1553W        W 5297   4.466   7.241  11.078
 1554W        W 5298   5.623   1.291   9.259
 1555W        W 5299   7.243   4.445   9.021
 1556W        W 5300   7.679   6.946   0.330
 1557W        W 5301  10.271   4.966   2.550
 1558W        W 5302   8.928   6.251   3.463
 1559W        W 5303   8.102   1.269  11.448
 1560W        W 5304   6.758   5.692   9.847
 1561W        W 5305   1.512   1.879   2.003
 1562W        W 5306   4.876   5.642   9.411
 1563W        W 5307   5.087   1.210   2.970
 1564W        W 5308   3.599   3.740   8.937
 1565W        W 5309   7.483   6.764  11.868
 1566W        W 5310   5.661   2.790   1.585
 1567W        W 5311   3.720   5.872   3.166
 1568W        W 5312   6.125   5.936  11.815
 1569W        W 5313   2.841   0.736  11.498
 1570W        W 5314   7.365   2.363  11.759
 1571W        W 5315   5.310   9.312   2.946
 1572W        W 5316   9.691   5.409   9.321
 1573W        W 5317   2.174   8.050  10.178
 1574W        W 5318   8.025   4.438   3.940
 1575W        W 5319   9.562   0.473   0.591
 1576W        W 5320   4.596   0.741   0.837
 1577W        W 5321   2.197   4.069   0.860
 1578W        W 5322   1.354   9.423  11.645
 1579W        W 5323   1.058   8.408  10.706
 1580W        W 5324   1.607   0.752   0.792
 1581W        W 5325   7.764   1.139   2.438
 1582W        W 5326   9.210   5.585   3.590
 1583W        W 5327   1.855   9.243   0.349
 1584W        W 5328   9.959   0.262   2.733
 1585W        W 5329   1.355   8.437   9.270
 1586W        W 5330   8.837   0.797   9.033
 1587W        W 5331   6.552   5.029  11.060
 1588W        W 5332   8.942   7.919   3.360
 1589W        W 5333   5.418   7.109   8.769
 1590W        W 5334   1.833   8.044   9.098
 1591W        W 5335   6.362   2.423  11.929
 1592W        W 5336   1.223   1.133   0.030
 1593W        W 5337   3.362   8.727   0.458
 1594W        W 5338   5.723   0.190  11.434
 1595W        W 5339   7.092   6.577   1.530
 1596W        W 5340   8.021   7.676  10.631
 1597W        W 5341   9.264   2.397  10.476
 1598W        W 5342   9.836   6.148   2.322
 1599W        W 5343   7.262   2.931   0.924
 1600W        W 5344   0.962   5.158   0.586
 1601W        W 5345  10.372   4.516   1.262
 1602W        W 5346   3.565   3.658   9.818
 1603W        W 5347   8.960   3.587   0.291
 1604W        W 5348   6.015   5.203  10.130
 1605W        W 5349   9.762   8.158  10.751
 1606W        W 5350   8.876   4.377   2.560
 1607W        W 5351   7.394   6.580   1.967
 1608W        W 5352   1.289   5.743   9.934
 1609W        W 5353   0.026   8.754   2.269
 1610W        W 5354   7.618   8.109   1.448
 1611W        W 5355   6.939   4.541  11.815
 1612W        W 5356   5.482   6.231   2.785
 1613W        W 5357   8.194   0.677   9.665
 1614W        W 5358   6.019   9.176   1.743
 1615W        W 5359   5.320   9.884   0.898
 1616W        W 5360   7.650   9.543  11.018
 1617W        W 5361   7.083   3.590   2.078
 1618W        W 5362   4.732   3.637   0.931
 1619W        W 5363   8.519   1.488   9.947
 1620W        W 5364   8.424   3.808   2.449
 1621W        W 5365   2.509   1.647   0.890
 1622W        W 5366   4.128   6.578   9.388
 1623W        W 5367   3.352   2.304   9.625
 1624W        W 5368   9.632   3.470  11.555
 1625W        W 5369   6.126   0.313   1.321
 1626W        W 5370   5.210   3.923   9.516
 1627W        W 5371   4.886   9.056   2.929
 1628W        W 5372   3.303   7.450   3.747
 1629W        W 5373   9.449   9.749   1.821
 1630W        W 5374   1.655  10.414   2.931
 1631W        W 5375   8.500   2.800   9.479
 1632W        W 5376   4.098   4.116   1.945
 1633W        W 5377   1.350   9.441   9.247
 1634W        W 5378   2.823   7.350   0.497
 1635W        W 5379   8.952   3.164  11.021
 1636W        W 5380   5.061  10.489   0.294
 1637W        W 5381   1.222   2.771   1.459
 1638W        W 5382   8.527   5.544  10.555
 1639W        W 5383   2.626   6.069   2.897
 1640W        W 5384   0.218   2.709   9.125
 1641W        W 5385   6.975   6.067   3.570
 1642W        W 5386   4.449   5.669  10.232
 1643W        W 5387   4.343   1.280   3.479
 1644W        W 5388   4.069   6.139   2.884
 1645W        W 5389   7.172   3.215  11.697
 1646W        W 5390   5.933   5.634  10.416
 1647W        W 5391   1.440   6.897   2.858
 1648W        W 5392   0.928   2.686  10.192
 1649W        W 5393   7.244   3.706   2.875
 1650W        W 5394   4.987   5.179   0.332
 1651W        W 5395   7.053   0.316   1.688
 1652W        W 5396   6.037   2.407   2.234
 1653W        W 5397   5.570   2.440   1.991
 1654W        W 5398   7.830   5.708   8.859
 1655W        W 5399   2.160   7.790  11.464
 1656W        W 5400   8.518   0.670   1.522
 1657W        W 5401   5.504  10.239  11.437
 1658W        W 5402   4.771   8.080  11.698
 1659W        W 5403   4.594   5.947   1.188
 1660W        W 5404  10.350   3.081   2.970
 1661W        W 5405   1.901   1.325   9.282
 1662W        W 5406   4.756   3.644  10.495
 1663W        W 5407   0.518   5.231   0.897
 1664W        W 5408   0.538   9.316   0.695
 1665W        W 5409   9.793   2.352   9.777
 1666W        W 5410   2.734   7.875   2.830
 1667W        W 5411   1.229   6.556   2.207
 1668W        W 5412   1.012   9.410   8.382
 1669W        W 5413   6.139   1.044  11.448
 1670W        W 5414   2.227   6.817   2.394
 1671W        W 5415   2.119   4.314   0.140
 1672W        W 5416   0.385   6.511   8.934
 1673W        W 5417   3.947   3.129   3.608
 1674W        W 5418   5.463   3.340   3.672
 1675W        W 5419   4.682   1.334   2.579
 1676W        W 5420   5.187   1.226   1.511
 1677W        W 5421   3.978   8.994   2.992
 1678W        W 5422   1.597   9.183  10.467
 1679W        W 5423   1.108   8.469   1.401
 1680W        W 5424   6.243   1.417   2.343
 1681W        W 5425   3.810   2.838   0.542
 1682W        W 5426   7.551   3.077   9.165
 1683W        W 5427   1.354   2.464  11.581
 1684W        W 5428   5.102   2.240   0.630
 1685W        W 5429   6.356   7.306  10.425
 1686W        W 5430   9.815   1.795  11.445
 1687W        W 5431   0.996   1.453   1.396
 1688W        W 5432   6.356   2.004   1.587
 1689W        W 5433   5.674   8.499   3.165
 1690W        W 5434   4.238   6.713   2.397
 1691W        W 5435   2.306   0.838   2.894
 1692W        W 5436   5.650   3.262   1.785
 1693W        W 5437   7.364   6.855   0.701
 1694W        W 5438   4.468   2.194   0.065
 1695W        W 5439   2.739   5.654  11.255
 1696W        W 5440   7.646   4.073   3.018
 1697W        W 5441  10.244   5.730  11.797
 1698W        W 5442   8.063   1.667  11.774
 1699W        W 5443   5.683   3.157   3.258
 1700W        W 5444   7.904   1.957  10.736
 1701W        W 5445   2.079   4.218   1.865
 1702W        W 5446   5.539  10.262   0.370
 1703W        W 5447   2.221  10.385   9.769
 1704W        W 5448   5.221   2.038   2.692
 1705W        W 5449   2.313   5.146   0.381
 1706W        W 5450   4.770   7.152   8.980
 1707W        W 5451   2.770   9.049   9.010
 1708W        W 5452  10.069   9.422   1.676
 1709W        W 5453   6.953   6.565   0.021
 1710W        W 5454   5.660   2.198   0.483
 1711W        W 5455   9.666   1.799  10.952
 1712W        W 5456   5.525   7.315   1.233
 1713W        W 5457   0.286   4.717   0.951
 1714W        W 5458   9.880   8.056  11.231
 1715W        W 5459   7.335   9.658  11.506
 1716W        W 5460   4.160   9.120   0.713
 1717W        W 5461   9.263   5.464   0.089
 1718W        W 5462   4.599   8.238   2.715
 1719W        W 5463   0.253   2.865  10.894
 1720W        W 5464   6.416   2.468   0.838
 1721W        W 5465   3.341   0.740  10.022
 1722W        W 5466   2.798   1.419  11.870
 1723W        W 5467   0.666   5.055   2.761
 1724W        W 5468  10.257   3.193   0.310
 1725W        W 5469   2.719   7.228   9.794
 1726W        W 5470   2.915   9.027  10.478
 1727W        W 5471   2.848   6.965   0.138
 1728W        W 5472   7.679   7.972   0.962
 1729W        W 5473   0.751  10.025   2.068
 1730W        W 5474   3.947   5.189  11.463
 1731W        W 5475   6.200   2.405   1.300
 1732W        W 5476  10.274   6.480  10.633
 1733W        W 5477   6.258   8.552   0.335
 1734W        W 5478   4.152   6.876   0.249
 1735W        W 5479   2.150   6.084  10.783
 1736W        W 5480   2.649   5.526   2.226
 1737W        W 5481   0.030   6.986  10.744
 1738W        W 5482   5.099   3.119  10.886
 1739W        W 5483   3.053   1.860   1.719
 1740W        W 5484   7.430   7.154   2.721
 1741W        W 5485   6.077   3.331   2.471
 1742W        W 5486   0.265   6.199  11.457
 1743W        W 5487   7.532   8.612   1.454
 1744W        W 5488   9.129   7.099   2.384
 1745W        W 5489   8.682   4.809   0.373
 1746W        W 5490   1.156   7.558   9.375
 1747W        W 5491   4.345   9.990   0.943
 1748W        W 5492   2.480   9.881  11.927
 1749W        W 5493   4.140   2.243   1.397
 1750W        W 5494   7.707   4.828  11.781
 1751W        W 5495   9.165   3.497   2.918
 1752W        W 5496   2.784   6.101   8.999
 1753W        W 5497   0.489   7.354   0.329
 1754W        W 5498   1.507   1.946   9.731
 1755W        W 5499   9.128   7.532   0.809
 1756W        W 5500  10.360   0.769   2.763
 1757W        W 5501   4.960   3.332   1.340
 1758W        W 5502   2.312   3.489  11.591
 1759W        W 5503   9.869   1.308   2.678
 1760W        W 5504   4.987   1.257   9.021
 1761W        W 5505   4.331   3.739   2.196
 1762W        W 5506   9.851   8.363  11.840
 1763W        W 5507   7.436   4.062   1.639
 1764W        W 5508   2.658   3.560   2.413
 1765W        W 5509   4.621   7.246   3.428
 1766W        W 5510   3.274   1.403   9.588
 1767W        W 5511   0.389   8.059   9.030
 1768W        W 5512   8.320   7.029   3.114
 1769W        W 5513   5.875   8.936   8.820
 1770W        W 5514   3.538   6.417  11.922
 1771W        W 5515   2.459   5.210  11.155
 1772W        W 5516   2.930   9.910   1.287
 1773W        W 5517   3.538   4.516   1.380
 1774W        W 5518   7.001  10.464  11.351
 1775W        W 5519   2.877   7.667  10.052
 1776W        W 5520   9.532   2.639   1.997
 1777W        W 5521   5.147   8.308  10.561
 1778W        W 5522   2.709   8.582   8.620
 1779W        W 5523   0.580   3.518   1.614
 1780W        W 5524   5.487   4.703  10.136
 1781W        W 5525   2.302   7.313   2.709
 1782W        W 5526   4.097   6.670   8.865
 1783W        W 5527   5.347   7.987   1.259
 1784W        W 5528   0.067   5.718  11.411
 1785W        W 5529   7.510   0.740   8.988
 1786W        W 5530   5.471   2.650   9.146
 1787W        W 5531   5.714   9.553   0.940
 1788W        W 5532   3.026   2.221   1.352
 1789W        W 5533   8.893   8.558  11.845
 1790W        W 5534   3.299   1.469  11.098
 1791W        W 5535   2.838   6.248  10.503
 1792W        W 5536   8.669   1.940   3.771
 1793W        W 5537   1.144   6.973   0.403
 1794W        W 5538   5.949   6.956   1.353
 1795W        W 5539   2.097   4.255   2.877
 1796W        W 5540   7.143   8.182   1.265
 1797W        W 5541   5.714   5.601  10.914
 1798W        W 5542   4.199   2.820   0.182
 1799W        W 5543   6.029   1.180   1.882
 1800W        W 5544   6.152   6.161   0.266
 1801W        W 5545   5.213   2.869   0.251
 1802W        W 5546  10.497   2.119  11.078
 1803W        W 5547   3.108   2.737  11.303
 1804W        W 5548   6.603   1.807   2.576
 1805W        W 5549   9.845   9.875   1.438
 1806W        W 5550   4.854   9.864  11.691
 1807W        W 5551   7.423   7.294  11.769
 1808W        W 5552   6.036   1.636   9.299
 1809W        W 5553   9.434   8.502   2.282
 1810W        W 5554   3.886   3.641  10.540
 1811W        W 5555   4.908   7.495  11.098
 1812W        W 5556   3.693   9.530   1.502
 1813W        W 5557   3.575   2.664   3.025
 1814W        W 5558   5.161   3.414   9.410
 1815W        W 5559   4.575   6.916   1.204
 1816W        W 5560   0.017   9.122  11.908
 1817W        W 5561   1.926   0.318   9.532
 1818W        W 5562   3.589   9.023   1.397
 1819W        W 5563   6.156   0.633   9.514
 1820W        W 5564   2.045   3.779   1.265
 1821W        W 5565   3.540   2.236   1.339
 1822W        W 5566   5.559   6.060   9.729
 1823W        W 5567   4.209   9.140   9.840
 1824W        W 5568   5.765  10.069   0.810
 1825W        W 5569   8.571   8.573   2.302
 1826W        W 5570   7.061   0.990  11.407
 1827W        W 5571   9.518   2.625   2.523
 1828W        W 5572   0.129   4.074   2.332
 1829W        W 5573   1.696   2.366   9.979
 1830W        W 5574   6.198   7.490   9.980
 1831W        W 5575   6.568   4.531   0.144
 1832W        W 5576   7.667   7.508   2.245
 1833W        W 5577  10.199   2.303   2.419
 1834W        W 5578   6.538   2.816   9.471
 1835W        W 5579   7.551   3.945   0.735
 1836W        W 5580   4.732   0.246   2.887
 1837W        W 5581   8.621   1.765   2.857
 1838W        W 5582   4.072   6.477  11.946
 1839W        W 5583   8.804   7.073   3.272
 1840W        W 5584   6.874   6.809   0.561
 1841W        W 5585   2.775   9.425   1.406
 1842W        W 5586   4.421   4.571   2.786
 1843W        W 5587   7.932   2.790   0.360
 1844W        W 5588   6.125   8.931   2.431
 1845W        W 5589   5.041  10.433  11.432
 1846W        W 5590   1.701   3.783   0.767
 1847W        W 5591   2.172   2.617   9.761
 1848W        W 5592   5.647   7.038   3.266
 1849W        W 5593   0.683   4.892   9.523
 1850W        W 5594   1.290   9.570   2.104
 1851W        W 5595   3.853   7.061   3.253
 1852W        W 5596   6.958   3.283   0.697
 1853W        W 5597   4.345   4.713   1.315
 1854W        W 5598  10.201   8.307  10.500
 1855W        W 5599   8.843   4.994   9.027
 1856W        W 5600   0.948   7.958   8.638
 1857W        W 5601   3.694   4.927   2.334
 1858W        W 5602   1.398   4.103  11.485
 1859W        W 5603   7.931   9.044  11.842
 1860W        W 5604   7.172   9.780   1.761
 1861W        W 5605  10.427   9.834   3.213
 1862W        W 5606   8.477   4.708   2.621
 1863W        W 5607   0.269   2.722   1.707
 1864W        W 5608  10.397   1.107   1.913
 1865W        W 5609   9.734   8.757   1.033
 1866W        W 5610   7.037   1.688   3.436
 1867W        W 5611   2.087   2.718  10.962
 1868W        W 5612   0.460   0.331   3.363
 1869W        W 5613   4.540   6.765  11.272
 1870W        W 5614   5.177   3.488   2.722
 1871W        W 5615   3.667   6.272   9.457
 1872W        W 5616   1.753   2.754   2.219
 1873W        W 5617   9.510   5.665   3.171
 1874W        W 5618   5.840   3.790   8.622
 1875W        W 5619   3.045   0.953   1.138
 1876W        W 5620   5.160   9.267  10.772
 1877W        W 5621   8.529   8.136   2.565
 1878W        W 5622   5.909   2.980   9.783
 1879W        W 5623   0.210   5.592   2.867
 1880W        W 5624   2.306   4.214   1.369
 1881W        W 5625   6.622   2.003   0.819
 1882W        W 5626   1.823   9.895  10.974
 1883W        W 5627   0.705   8.048   1.020
 1884W        W 5628  10.389   2.695   9.852
 1885W        W 5629   1.714   1.779  11.589
 1886W        W 5630   0.949   7.802   1.917
 1887W        W 5631   1.236   3.757   0.531
 1888W        W 5632   6.296   2.613   9.883
 1889W        W 5633   0.810   1.868  10.271
 1890W        W 5634   8.306   6.106   0.866
 1891W        W 5635   1.850   8.121   1.259
 1892W        W 5636   4.849   4.020   9.884
 1893W        W 5637   9.280   0.656   1.813
 1894W        W 5638  10.469   7.074   3.147
 1895W        W 5639   3.190   5.649   0.006
 1896W        W 5640   5.748   7.728   2.876
 1897W        W 5641   1.742   3.988   8.907
 1898W        W 5642   9.352   9.970   3.217
 1899W        W 5643   7.496   8.713   9.951
 1900W        W 5644   3.798   7.350   0.788
 1901W        W 5645   8.539   0.448   9.276
 1902W        W 5646   3.601   6.040   0.689
 1903W        W 5647   2.817   7.181   8.944
 1904W        W 5648   6.110   4.433   9.470
 1905W        W 5649   3.433   2.759   8.496
 1906W        W 5650   3.205   1.828  11.456
 1907W        W 5651   9.494   5.241   1.732
 1908W        W 5652  10.270   7.657   9.199
 1909W        W 5653   3.840   6.119   0.230
 1910W        W 5654   6.452   2.287   2.502
 1911W        W 5655   4.987   6.253   9.068
 1912W        W 5656   5.705   4.062   0.705
 1913W        W 5657   1.199   7.890   0.281
 1914W        W 5658   4.445   0.006   9.559
 1915W        W 5659   0.524   8.331  10.819
 1916W        W 5660   4.196   4.873   1.784
 1917W        W 5661   1.752   6.620   2.456
 1918W        W 5662  10.216   5.646   1.369
 1919W        W 5663   6.302   3.620   0.201
 1920W        W 5664   7.641   9.438   2.160
 1921W        W 5665   8.116   6.594   9.264
 1922W        W 5666   7.028   5.799   0.482
 1923W        W 5667   6.462   4.876   2.947
 1924W        W 5668   6.441   6.361  10.324
 1925W        W 5669  10.375   2.650   0.419
 1926W        W 5670   6.041   1.129   9.519
 1927W        W 5671   1.397   8.947   9.568
 1928W        W 5672  10.439   4.613   3.029
 1929W        W 5673   9.522   5.860   0.316
 1930W        W 5674   3.718   9.978  11.056
 1931W        W 5675   5.251   0.318   3.051
 1932W        W 5676   6.381   1.898   9.598
 1933W        W 5677   3.107   2.085   3.673
 1934W        W 5678   4.547   3.621   9.992
 1935W        W 5679   8.327   8.069  10.492
 1936W        W 5680   2.902   3.659  11.067
 1937W        W 5681   9.891   6.189   0.526
 1938W        W 5682   0.828   2.671   1.952
 1939W        W 5683   0.194   1.928   0.502
 1940W        W 5684   8.000   4.224   0.292
 1941W        W 5685   8.041   4.387   8.618
 1942W        W 5686   9.869   3.583   8.924
 1943W        W 5687   9.445   4.596   0.966
 1944W        W 5688   0.065  10.494   3.561
 1945W        W 5689   3.137   7.823   9.050
 1946W        W 5690   3.382   0.895   0.357
 1947W        W 5691  10.319   0.011   8.831
 1948W        W 5692   9.968   1.218   8.631
 1949W        W 5693   6.090   7.459   9.088
 1950W        W 5694   7.481   3.106   0.407
 1951W        W 5695   6.202   1.270   0.994
 1952W        W 5696   5.119   1.623   1.810
 1953W        W 5697  10.500   2.213   2.830
 1954W        W 5698   5.681   3.694   1.483
 1955W        W 5699   6.624   2.552  10.357
 1956W        W 5700   1.552   9.178   3.366
 1957W        W 5701   8.040   0.231   1.456
 1958W        W 5702   0.791   0.220   2.810
 1959W        W 5703   1.368   3.696  11.072
 1960W        W 5704   6.889   2.876   9.038
 1961W        W 5705   4.793   9.432  10.466
 1962W        W 5706   0.230   6.956   0.493
 1963W        W 5707   0.966   5.660   1.691
 1964W        W 5708   2.333   5.552   1.007
 1965W        W 5709   4.699   6.642   8.596
 1966W        W 5710   8.569   3.688   1.585
 1967W        W 5711   2.639   0.808  11.057
 1968W        W 5712   5.567   7.434   0.171
 1969W        W 5713   0.783   5.095   9.008
 1970W        W 5714   1.305   1.470   9.843
 1971W        W 5715   1.781  10.374   9.044
 1972W        W 5716   5.766   5.418   0.622
 1973W        W 5717   4.945   6.986  10.314
 1974W        W 5718   9.844   6.019   2.903
 1975W        W 5719   7.155   4.118   9.750
 1976W        W 5720  10.495   5.598   3.342
 1977W        W 5721   5.424   8.036   3.230
 1978W        W 5722   7.964   7.373   0.390
 1979W        W 5723   4.786   4.962   9.401
 1980W        W 5724   5.380   6.204   8.737
 1981W        W 5725   6.650   4.959   0.382
 1982W        W 5726  10.196   4.547   2.086
 1983W        W 5727   8.333   1.353   0.703
 1984W        W 5728   0.060   6.674  11.580
 1985W        W 5729   8.232   4.132   0.747
 1986W        W 5730   2.628   4.476   9.257
 1987W        W 5731   4.582   2.623   9.340
 1988W        W 5732   1.800   5.653   1.677
 1989W        W 5733   4.265   7.978   1.949
 1990W        W 5734  10.467   4.564  11.928
 1991W        W 5735   3.635   5.403  11.804
 1992W        W 5736   1.715   3.794   9.822
 1993W        W 5737   2.947   0.736   0.657
 1994W        W 5738   6.006   1.606   9.791
 1995W        W 5739   0.457   4.298   8.716
 1996W        W 5740  10.392   2.328   9.077
 1997W        W 5741   4.519   3.606   8.101
 1998W        W 5742   9.442  10.384   0.778
 1999W        W 5743   9.282   8.794   1.875
 2000W        W 5744   8.766   5.239   3.326
 2001W        W 5745   8.946  10.322   2.737
 2002W        W 5746  10.188   7.876  10.830
 2003W        W 5747   9.715   9.144   8.425
 2004W        W 5748   0.520   6.962   2.384
 2005W        W 5749   3.062   7.698   1.876
 2006W        W 5750  10.274   5.852   2.654
 2007W        W 5751   2.342   9.940   2.446
 2008W        W 5752   4.663   7.631   9.771
 2009W        W 5753   7.826   4.626   9.867
 2010W        W 5754   5.076   5.173   1.904
 2011W        W 5755   0.539   6.338  11.056
 2012W        W 5756   6.727   3.052   3.203
 2013W        W 5757   2.113   2.544  11.501
 2014W        W 5758   5.464   6.890   0.949
 2015W        W 5759   2.353  10.434   3.138
 2016W        W 5760   8.496   3.581   0.991
 2017W        W 5761   6.010   6.991   9.972
 2018W        W 5762   3.748   3.079  11.994
 2019W        W 5763   0.339   0.003   9.072
 2020W        W 5764   6.548  10.125   1.899
 2021W        W 5765   1.012   9.908   9.051
 2022W        W 5766   5.996   4.203   8.892
 2023W        W 5767   2.129   9.846  11.515
 2024W        W 5768   6.585   9.512   1.097
 2025W        W 5769   8.750   6.451   0.313
 2026W        W 5770   1.263   3.427  10.413
 2027W        W 5771   8.092   0.020  10.983
 2028W        W 5772   0.829   8.663   0.065
 2029W        W 5773   1.433   5.381   8.898
 2030W        W 5774   6.629   8.643   0.757
 2031W        W 5775   3.135   8.036   8.569
 2032W        W 5776   3.397   3.115   2.241
 2033W        W 5777   0.742   5.205   1.762
 2034W        W 5778   0.998   9.447   1.314
 2035W        W 5779   8.812   5.561  11.293
 2036W        W 5780   2.256   0.782   1.415
 2037W        W 5781   3.290   1.707   8.751
 2038W        W 5782   2.295   4.681   2.161
 2039W        W 5783   1.698   6.682   9.312
 2040W        W 5784  10.340  10.351  11.374
 2041W        W 5785   0.283   1.790   1.378
 2042W        W 5786   0.587   1.978   3.541
 2043W        W 5787   5.325   8.569   8.426
 2044W        W 5788   8.594   0.821   1.037
 2045W        W 5789   1.976   0.368   3.040
 2046W        W 5790   9.845   5.182  11.383
 2047W        W 5791   6.696   4.432   2.781
 2048W        W 5792   5.199   0.998   0.180
 2049W        W 5793   1.925   2.245   3.232
 2050W        W 5794   0.257   6.106   1.775
 2051W        W 5795   2.355   6.143   9.310
 2052W        W 5796   3.427   9.631   3.640
 2053W        W 5797   3.186   4.581  10.079
 2054W        W 5798   1.785   2.287  10.838
 2055W        W 5799   9.247   5.426  11.560
 2056W        W 5800  10.447   1.321   3.286
 2057W        W 5801   8.650   3.593   2.902
 2058W        W 5802   4.525   6.684  10.352
 2059W        W 5803   6.991   3.243   0.183
 2060W        W 5804   4.243  10.281   9.153
 2061W        W 5805   3.094   1.188  11.495
 2062W        W 5806   2.149   6.988   0.510
 2063W        W 5807   7.467   2.576  11.311
 2064W        W 5808   6.111   3.983   9.719
 2065W        W 5809   7.000   8.693  11.883
 2066W        W 5810   4.645   3.630   3.454
 2067W        W 5811   2.678   5.271  10.284
 2068W        W 5812   8.487   7.188  10.954
 2069W        W 5813   3.829   3.593   0.077
 2070W        W 5814   5.156   3.518   3.237
 2071W        W 5815   0.154  10.037  10.002
 2072W        W 5816   1.638   5.148   2.748
 2073W        W 5817   1.811   1.936   8.669
 2074W        W 5818   4.297   7.044   9.188
 2075W        W 5819   9.875  10.045   1.918
 2076W        W 5820   7.007   2.232   2.206
 2077W        W 5821   5.714   6.824  10.879
 2078W        W 5822   2.047   4.849   0.035
 2079W        W 5823   7.860   1.664   2.443
 2080W        W 5824   5.961   5.535   1.481
 2081W        W 5825   1.123   4.534  11.463
 2082W        W 5826   2.740   5.601  11.755
 2083W        W 5827   2.718   8.497  11.228
 2084W        W 5828   7.062   1.772   1.946
 2085W        W 5829   1.363   1.180   1.198
 2086W        W 5830   4.218   2.335   3.505
 2087W        W 5831   0.533   7.792   9.528
 2088W        W 5832   2.969   9.995  11.836
 2089W        W 5833   1.321   0.915  11.056
 2090W        W 5834   5.615   4.645   9.637
 2091W        W 5835   7.950   3.629   2.422
 2092W        W 5836   8.964   5.368   0.972
 2093W        W 5837   7.922   2.163  11.889
 2094W        W 5838   0.784   6.005   3.423
 2095W        W 5839   3.881   7.094   2.726
 2096W        W 5840   3.611   4.172   8.588
 2097W        W 5841   8.939   2.688   9.254
 2098W        W 5842   7.750   2.811   0.837
 2099W        W 5843   4.705   4.018  11.905
 2100W        W 5844   0.851  10.153   9.493
 2101W        W 5845   8.782   7.913  10.632
 2102W        W 5846   5.215   2.323   3.136
 2103W        W 5847   1.858   3.096   3.502
 2104W        W 5848   3.316   9.668  10.891
 2105W        W 5849   8.642   0.927  11.834
 2106W        W 5850  10.431   4.625  10.829
 2107W        W 5851   7.114   7.984   2.644
 2108W        W 5852   4.320   9.237   3.308
 2109W        W 5853   2.354   3.203   3.400
 2110W        W 5854   7.688   1.283  10.996
 2111W        W 5855   9.371   3.071   1.784
 2112W        W 5856   7.436   7.023   3.233
 2113W        W 5857   5.463   9.384   2.012
 2114W        W 5858   4.763   0.787   0.312
 2115W        W 5859   6.071   6.061   1.547
 2116W        W 5860   5.600   4.086   8.248
 2117W        W 5861   7.635   1.525  10.029
 2118W        W 5862   3.274   7.224   1.672
 2119W        W 5863   0.320   2.845   0.277
 2120W        W 5864   4.694   1.446  10.789
 2121W        W 5865   2.285   6.483   2.797
 2122W        W 5866   1.197   7.991  10.959
 2123W        W 5867   7.455  10.092  10.269
 2124W        W 5868   8.192   0.474   1.000
 2125W        W 5869   8.435   4.058   8.688
 2126W        W 5870   6.982   3.870   3.280
 2127W        W 5871   1.654   9.717   0.398
 2128W        W 5872   8.363   8.438   9.071
 2129W        W 5873   1.373   9.291   1.665
 2130W        W 5874   1.629   4.135   1.628
 2131W        W 5875   7.501   8.105  10.588
 2132W        W 5876   9.020   6.644   1.147
 2133W        W 5877   1.461   1.435   3.662
 2134W        W 5878   2.787   2.181   0.882
 2135W        W 5879   8.934   6.170   1.327
 2136W        W 5880   1.271   3.817  10.083
 2137W        W 5881   0.363   0.505   2.895
 2138W        W 5882   0.436   8.779   9.568
 2139W        W 5883   7.869   0.569   3.356
 2140W        W 5884   9.102   0.792   9.898
 2141W        W 5885   8.075   2.854  10.225
 2142W        W 5886   1.138   6.334   3.635
 2143W        W 5887   8.492   1.898   9.621
 2144W        W 5888   9.358   0.009   2.988
 2145W        W 5889   7.053   2.396   0.200
 2146W        W 5890   8.793   0.209   2.338
 2147W        W 5891   1.834   8.737   0.399
 2148W        W 5892  10.329   8.985   2.703
 2149W        W 5893   0.999   5.317  11.238
 2150W        W 5894   3.176   2.809   9.864
 2151W        W 5895   0.662   1.752   3.072
 2152W        W 5896   7.472   7.402   0.272
 2153W        W 5897   9.961   4.685   2.888
 2154W        W 5898   4.704   3.730   0.413
 2155W        W 5899   9.926   1.230   0.782
 2156W        W 5900   9.271   0.307  11.410
 2157W        W 5901   1.318   9.899   9.498
 2158W        W 5902   2.911   4.830   8.569
 2159W        W 5903   9.069   6.701   0.637
 2160W        W 5904   8.970   8.420   3.100
 2161W        W 5905   8.089   3.552  11.832
 2162W        W 5906   6.816   8.985   0.249
 2163W        W 5907   6.118   9.526   1.378
 2164W        W 5908   7.936   6.014   2.393
 2165W        W 5909   7.769   7.634  11.973
 2166W        W 5910   4.389   2.776   3.293
 2167W        W 5911   4.125   5.019   0.922
 2168W        W 5912   3.405   9.951   1.459
 2169W        W 5913   7.711   9.253   9.065
 2170W        W 5914  10.277   8.463   2.621
 2171W        W 5915   5.258   1.467   0.016
 2172W        W 5916   7.071   0.395  10.424
 2173W        W 5917   2.583   2.058   1.589
 2174W        W 5918   4.463   2.763   0.606
 2175W        W 5919   1.347   6.852  11.946
 2176W        W 5920   2.711   1.163   2.743
 2177W        W 5921   4.215   4.804   2.336
 2178W        W 5922   0.012   4.717   1.720
 2179W        W 5923   7.190  10.271   2.873
 2180W        W 5924   4.622   8.958  10.622
 2181W        W 5925   9.294   5.732   1.727
 2182W        W 5926   8.463   2.353   0.346
 2183W        W 5927   3.479   9.079   2.894
 2184W        W 5928   3.101   2.725   2.104
 2185W        W 5929  10.277   2.578   3.121
 2186W        W 5930   5.091   9.802   2.032
 2187W        W 5931  10.269   9.698  10.019
 2188W        W 5932   5.578   9.297   0.259
 2189W        W 5933   1.785   8.642   2.608
 2190W        W 5934   7.024   2.831   0.470
 2191W        W 5935   9.910   8.591   9.551
 2192W        W 5936   5.629   9.990   2.744
 2193W        W 5937   7.079   4.922   9.127
 2194W        W 5938   1.799   6.685  11.728
 2195W        W 5939   8.071   5.042  10.031
 2196W        W 5940   2.548   8.078   9.852
 2197W        W 5941   0.341   6.876   1.368
 2198W        W 5942   5.046   4.934  11.020
 2199W        W 5943   8.578   1.475  11.841
 2200W        W 5944   5.864   9.879  11.462
 2201W        W 5945   8.219   7.791   1.822
 2202W        W 5946   9.677   1.380   2.208
 2203W        W 5947   8.360   0.809   0.243
 2204W        W 5948   7.084  10.164   0.752
 2205W        W 5949   9.225   5.138   3.152
 2206W        W 5950   7.032   9.864  10.533
 2207W        W 5951   2.800   0.678   2.872
 2208W        W 5952   9.989   9.375  11.327
 2209W        W 5953   4.153   0.507   0.693
 2210W        W 5954   5.108   7.081  11.520
 2211W        W 5955   8.020   2.284   9.015
 2212W        W 5956   9.785   1.831   0.509
 2213W        W 5957   4.372   7.073   8.656
 2214W        W 5958   8.502   0.049   2.760
 2215W        W 5959   8.139   7.316   2.193
 2216W        W 5960   4.634   2.564  10.272
 2217W        W 5961   2.821   1.744   1.281
 2218W        W 5962   0.331   1.753  11.555
 2219W        W 5963   1.582   2.781  10.795
 2220W        W 5964   4.114   5.260   2.572
 2221W        W 5965   4.134   4.378  10.379
 2222W        W 5966   4.149   8.329   9.562
 2223W        W 5967   2.008   1.509   8.472
 2224W        W 5968   6.022   2.447  11.505
 2225W        W 5969   9.060   3.828   1.729
 2226W        W 5970  10.321  10.437   0.694
 2227W        W 5971   8.385   5.201   0.269
 2228W        W 5972   8.435   7.434   2.738
 2229W        W 5973   7.616   2.725   2.772
 2230W        W 5974   5.610   8.481   1.912
 2231W        W 5975   3.744   9.362   1.019
 2232W        W 5976   0.704   2.561  11.004
 2233W        W 5977   6.178   9.858   1.005
 2234W        W 5978   6.052  10.330   1.179
 2235W        W 5979   8.364   8.557  10.606
 2236W        W 5980   2.419   1.240  10.939
 2237W        W 5981   8.284  10.279   1.337
 2238W        W 5982  10.114   7.464   0.913
 2239W        W 5983   7.112   5.119   1.625
 2240W        W 5984   8.558   3.738  10.480
 2241W        W 5985   6.935   7.469  11.200
 2242W        W 5986   1.028   5.693  11.647
 2243W        W 5987   7.470   4.298   1.153
 2244W        W 5988   3.094   3.249  10.511
 2245W        W 5989   8.415   8.797  11.845
 2246W        W 5990   2.495   2.787  10.599
 2247W        W 5991   9.905   6.054  11.491
 2248W        W 5992   1.011   7.121   9.119
 2249W        W 5993   5.678   1.780  11.506
 2250W        W 5994   6.494   7.110   3.204
 2251W        W 5995   8.421   7.903   3.564
 2252W        W 5996   1.864   5.598   0.756
 2253W        W 5997   2.736   6.581   3.627
 2254W        W 5998   9.601   0.356   3.296
 2255W        W 5999   3.695   4.759   1.837
 2256W        W 6000   8.430   0.959   1.947
 2257W        W 6001   3.237   6.055   3.259
 2258W        W 6002   1.179   2.251  10.057
 2259W        W 6003   4.336   9.907   1.482
 2260W        W 6004   3.276   5.659   0.906
 2261W        W 6005   5.436   0.857  10.083
 2262W        W 6006   6.343   4.969   9.393
 2263W        W 6007   3.624   5.375  11.128
 2264W        W 6008   0.235   5.122   3.410
 2265W        W 6009   2.349   6.051   1.908
 2266W        W 6010   3.052   8.144   9.948
 2267W        W 6011   7.948   3.319   9.408
 2268W        W 6012   7.384   4.028  11.340
 2269W        W 6013   2.334   6.490   0.840
 2270W        W 6014   4.435   4.614   9.556
 2271W        W 6015   8.450   7.700  10.982
 2272W        W 6016   5.745   1.260   2.296
 2273W        W 6017   9.188   0.292  10.060
 2274W        W 6018   9.958   6.952   0.283
 2275W        W 6019   6.288   6.203  11.389
 2276W        W 6020   5.480   5.868  11.292
 2277W        W 6021   5.046   6.979   9.796
 2278W        W 6022   2.842   7.478  11.983
 2279W        W 6023   8.081   4.513   1.914
 2280W        W 6024   8.990   5.990   9.453
 2281W        W 6025   7.174   1.669   1.473
 2282W        W 6026  10.325   9.897   2.206
 2283W        W 6027   5.555   7.094   9.663
 2284W        W 6028   1.410   7.551   9.814
 2285W        W 6029   6.592   6.218  11.812
 2286W        W 6030   7.165   9.217  11.319
 2287W        W 6031   5.252   7.896  11.852
 2288W        W 6032   2.901   1.071   0.285
 2289W        W 6033   3.393   0.378  11.750
 2290W        W 6034   4.925   4.405   9.532
 2291W        W 6035  10.192   1.416   2.269
 2292W        W 6036   9.380   8.109  11.109
 2293W        W 6037   8.015   0.272   2.497
 2294W        W 6038   1.574   3.352  10.020
 2295W        W 6039   1.513   8.243   0.552
 2296W        W 6040   7.039   3.080   2.214
 2297W        W 6041   0.077   4.000  10.111
 2298W        W 6042   9.179   1.387   2.444
 2299W        W 6043   6.466   2.444   1.926
 2300W        W 6044   0.286   6.457   0.409
 2301W        W 6045   1.281   6.881   3.388
 2302W        W 6046   1.938  10.427   0.736
 2303W        W 6047   2.795   6.406   8.575
 2304W        W 6048   0.445   2.259   8.998
 2305W        W 6049   8.020   4.178   2.660
 2306W        W 6050   7.023   8.890   9.086
 2307W        W 6051   1.185   5.113   1.554
 2308W        W 6052   9.604  10.337  10.887
 2309W        W 6053   8.346  10.466   2.259
 2310W        W 6054   1.582   5.182   0.873
 2311W        W 6055   9.578   0.880   3.156
 2312W        W 6056   0.699   3.394   2.775
 2313W        W 6057   2.821   8.531   1.349
 2314W        W 6058   0.092   2.164   3.429
 2315W        W 6059   1.276   3.191  10.860
 2316W        W 6060   0.302   2.354  10.765
 2317W        W 6061   3.584   4.168   0.917
 2318W        W 6062   5.077   8.404  11.046
 2319W        W 6063   0.448   1.827   9.821
 2320W        W 6064   0.855   0.963  11.287
 2321W        W 6065   1.997   7.096   9.336
 2322W        W 6066   5.225   6.642  10.792
 2323W        W 6067   0.896   6.348   1.373
 2324W        W 6068   2.255  10.219  10.764
 2325W        W 6069   7.377   5.734   3.543
 2326W        W 6070   6.255   2.886  11.703
 2327W        W 6071   3.374   7.088   9.537
 2328W        W 6072   8.107   8.136   0.771
 2329W        W 6073   3.736   6.882  11.913
 2330W        W 6074   1.372   9.345   0.151
 2331W        W 6075   5.461   6.068   1.114
 2332W        W 6076   3.663   7.178  10.571
 2333W        W 6077  10.111   6.571  11.350
 2334W        W 6078   7.467   3.284  10.192
 2335W        W 6079   6.678   3.702   0.628
 2336W        W 6080   7.091   4.529   1.591
 2337W        W 6081   0.528   1.873  10.727
 2338W        W 6082   3.646   8.795   3.313
 2339W        W 6083   9.573   2.784   9.049
 2340W        W 6084   5.580   7.960   0.230
 2341W        W 6085   9.299   9.869   9.952
 2342W        W 6086   7.252   2.654   8.563
 2343W        W 6087   5.257   7.585   3.067
 2344W        W 6088   3.750   3.802  11.539
 2345W        W 6089   5.580   1.722   9.537
 2346W        W 6090   8.683   1.398   2.515
 2347W        W 6091   7.987   3.657   0.797
 2348W        W 6092   9.074   2.649   2.856
 2349W        W 6093  10.072   7.088   3.482
 2350W        W 6094   8.896   5.718  11.815
 2351W        W 6095   4.218   3.786   9.610
 2352W        W 6096   7.491   5.062   8.849
 2353W        W 6097   0.472   4.587   0.095
 2354W        W 6098   3.188   5.406  10.208
 2355W        W 6099   3.266   1.235   0.751
 2356W        W 6100   1.708   9.793   9.822
 2357W        W 6101   6.137   1.240   8.999
 2358W        W 6102   1.671   9.686  10.341
 2359W        W 6103   0.479   2.113  11.207
 2360W        W 6104   1.505  10.429   1.771
 2361W        W 6105   7.173   5.058   1.136
 2362W        W 6106   7.367   3.160   2.802
 2363W        W 6107   6.470   4.510  11.608
 2364W        W 6108   0.747   1.254  10.909
 2365W        W 6109   4.327   2.734   1.403
 2366W        W 6110   5.563   8.950   1.679
 2367W        W 6111   6.507   0.049   9.634
 2368W        W 6112   3.244   3.654   3.553
 2369W        W 6113   2.301   9.411  11.781
 2370W        W 6114  10.289   9.156   8.936
 2371W        W 6115   4.630   3.725   1.420
 2372W        W 6116   1.789   9.670   8.526
 2373W        W 6117   9.076   4.595   0.608
 2374W        W 6118   8.086   6.602   9.758
 2375W        W 6119   2.833   3.941   1.490
 2376W        W 6120  10.140   5.618   9.422
 2377W        W 6121   2.973   8.616  10.132
 2378W        W 6122   3.636   7.965  11.826
 2379W        W 6123   6.822   5.515   1.778
 2380W        W 6124   3.796   8.363   2.180
 2381W        W 6125   0.282   1.321  10.729
 2382W        W 6126   3.287   1.313  10.087
 2383W        W 6127   8.808   8.278   8.430
 2384W        W 6128   5.287   3.003   2.566
 2385W        W 6129  10.335   9.167  10.115
 2386W        W 6130   2.067   2.833   8.844
 2387W        W 6131   2.664   5.006   2.363
 2388W        W 6132   8.951   9.801   1.251
 2389W        W 6133   3.167   6.140   1.011
 2390W        W 6134   8.739   0.453   0.117
 2391W        W 6135   1.227   8.173   2.766
 2392W        W 6136   4.595   1.618   9.908
 2393W        W 6137   6.603   2.235   0.354
 2394W        W 6138   3.024   4.105   9.425
 2395W        W 6139   8.973   9.315  10.774
 2396W        W 6140   8.593   4.629   9.370
 2397W        W 6141   4.501  10.442   0.299
 2398W        W 6142   0.178   9.785  10.477
 2399W        W 6143   7.895   4.735  10.756
 2400W        W 6144   1.417   9.085   2.157
 2401W        W 6145   5.941   7.643  10.398
 2402W        W 6146   5.093   8.141   3.659
 2403W        W 6147   0.837   3.570   2.291
 2404W        W 6148   9.809   6.152  10.479
 2405W        W 6149   5.992   8.685  11.882
 2406W        W 6150   3.377   6.823  10.375
 2407W        W 6151   4.653   2.633  11.769
 2408W        W 6152   4.259   1.782   8.758
 2409W        W 6153   3.705   7.728   3.891
 2410W        W 6154   8.919   7.524   2.588
 2411W        W 6155   7.617   0.195   8.486
 2412W        W 6156  10.044   9.480   1.176
 2413W        W 6157   1.614   4.549   3.635
 2414W        W 6158   8.565   9.383  10.077
 2415W        W 6159   5.323   4.803   2.157
 2416W        W 6160   8.855  10.453  11.362
 2417W        W 6161   3.020   0.328   3.665
 2418W        W 6162   7.591   2.689   9.524
 2419W        W 6163   5.533   8.304  11.759
 2420W        W 6164  10.410   7.899   3.244
 2421W        W 6165   6.522   0.463  11.958
 2422W        W 6166   2.389   6.840   9.625
 2423W        W 6167   2.814   8.104   9.389
 2424W        W 6168   8.410   4.187   1.263
 2425W        W 6169   5.563   5.151  10.366
 2426W        W 6170   9.942   1.879   9.912
 2427W        W 6171   4.789   3.687   2.457
 2428W        W 6172  10.112   8.390   0.299
 2429W        W 6173   5.067   9.244   0.225
 2430W        W 6174   4.696   1.205  10.331
 2431W        W 6175   0.680   2.279   9.959
 2432W        W 6176   2.236   4.770   9.071
 2433W        W 6177   8.882   9.557   1.727
 2434W        W 6178   7.248   6.496   9.903
 2435W        W 6179   0.403   4.318   0.549
 2436W        W 6180   9.222   5.760   1.214
 2437W        W 6181   2.723   9.491   2.939
 2438W        W 6182   2.697   7.827   0.690
 2439W        W 6183   2.563   0.317  11.313
 2440W        W 6184   6.152   4.739  11.274
 2441W        W 6185   2.920   0.339   9.290
 2442W        W 6186   0.931   0.429   8.437
 2443W        W 6187   9.872   3.718   1.261
 2444W        W 6188   4.955   3.980   4.104
 2445W        W 6189   7.145   7.748  10.818
 2446W        W 6190   8.912   5.993   8.947
 2447W        W 6191   1.662   4.205  10.765
 2448W        W 6192   7.085   4.587   9.526
 2449W        W 6193   0.763   1.443   9.988
 2450W        W 6194   8.907   0.297   0.936
 2451W        W 6195  10.366   7.188   8.994
 2452W        W 6196   2.130   1.847  10.778
 2453W        W 6197   3.701   0.983   9.093
 2454W        W 6198   2.301   8.582   9.385
 2455W        W 6199   4.152   1.325   1.796
 2456W        W 6200   7.510   7.978   3.548
 2457W        W 6201   6.917   0.802   9.589
 2458W        W 6202   1.846   1.380   2.033
 2459W        W 6203   7.443   8.410  11.656
 2460W        W 6204   2.742   2.113   2.900
 2461W        W 6205  10.463  10.032  10.944
 2462W        W 6206   3.352   7.934   3.575
 2463W        W 6207   7.948   0.718   2.765
 2464W        W 6208   2.291   7.713   3.032
 2465W        W 6209   2.591   2.254   2.445
 2466W        W 6210  10.403   3.710   0.029
 2467W        W 6211   6.494   6.991   1.833
 2468W        W 6212   6.106  10.477   1.710
 2469W        W 6213   3.907   0.098   8.937
 2470W        W 6214   3.776   0.538   9.325
 2471W        W 6215   7.194   7.847   0.873
 2472W        W 6216   5.060   3.563   9.881
 2473W        W 6217   8.103   9.304  10.352
 2474W        W 6218   1.759   0.879   1.286
 2475W        W 6219   1.882   2.102  10.374
 2476W        W 6220   6.697   2.879   0.861
 2477W        W 6221   4.603   8.563  11.897
 2478W        W 6222  10.018   9.530   8.586
 2479W        W 6223   6.247   8.861  11.455
 2480W        W 6224   0.386   4.186   1.046
 2481W        W 6225   6.068   6.274   3.377
 2482W        W 6226   8.381   8.038   8.759
 2483W        W 6227   4.165   7.701   0.825
 2484W        W 6228   5.227  10.166  11.903
 2485W        W 6229  10.168   8.521   1.214
 2486W        W 6230   5.122   2.521  10.019
 2487W        W 6231   3.197  10.433   1.295
 2488W        W 6232   5.014   6.007  11.900
 2489W        W 6233   7.562   8.804   8.783
 2490W        W 6234   8.938   3.162   9.037
 2491W        W 6235   0.846   7.490  10.296
 2492W        W 6236   0.373   1.599  10.299
 2493W        W 6237   0.912   8.953   1.418
 2494W        W 6238  10.103   8.127   9.447
 2495W        W 6239   7.156   2.898  11.077
 2496W        W 6240   2.898   0.228   1.582
 2497W        W 6241   2.490   7.245   9.316
 2498W        W 6242   3.888   8.113   1.626
 2499W        W 6243   5.447   4.255   3.142
 2500W        W 6244   9.936   2.452  11.679
 2501W        W 6245   3.373   0.272   1.761
 2502W        W 6246   7.553   3.808  10.420
 2503W        W 6247   4.252   3.874  11.291
 2504W        W 6248   0.046   5.921   2.218
 2505W        W 6249   0.660   6.568  10.251
 2506W        W 6250   7.894   2.315   2.810
 2507W        W 6251   9.399   3.140   1.284
 2508W        W 6252   3.723   1.283   0.992
 2509W        W 6253   4.603   7.986   3.631
 2510W        W 6254   1.197   5.323  10.295
 2511W        W 6255   5.710   9.901   1.301
 2512W        W 6256   0.720   7.448   2.242
 2513W        W 6257   7.923  10.035  11.041
 2514W        W 6258   9.430   7.667  10.182
 2515W        W 6259   5.681   4.507   9.153
 2516W        W 6260   8.016   1.785   1.953
 2517W        W 6261   7.825   7.051   0.866
 2518W        W 6262   8.083   0.254   2.993
 2519W        W 6263   9.360   2.828   0.487
 2520W        W 6264   2.132   7.409   1.707
 2521W        W 6265   4.148   8.632   0.870
 2522W        W 6266   8.905   5.969  10.954
 2523W        W 6267   9.618  10.035   3.780
 2524W        W 6268   9.996   4.444   1.638
 2525W        W 6269   2.392   5.324   1.462
 2526W        W 6270  10.051   4.876  11.826
 2527W        W 6271   8.129   2.445   1.448
 2528W        W 6272   9.161   3.642   9.191
 2529W        W 6273   6.290   2.898   1.157
 2530W        W 6274  10.290   1.285   9.978
 2531W        W 6275  10.391   2.408   1.946
 2532W        W 6276   6.490   2.726   2.770
 2533W        W 6277   8.390   7.160   9.073
 2534W        W 6278   9.874  10.258   2.842
 2535W        W 6279   0.831   6.819   1.164
 2536W        W 6280   3.270   0.229  10.044
 2537W        W 6281   2.156   2.674   3.415
 2538W        W 6282   4.064   5.283   0.475
 2539W        W 6283   6.220   6.937   9.087
 2540W        W 6284   2.869   4.178   9.908
 2541W        W 6285   3.194   9.706   9.919
 2542W        W 6286   5.955   6.642  11.322
 2543W        W 6287   8.153   4.052  11.837
 2544W        W 6288   7.233   5.580   1.185
 2545W        W 6289   0.949   9.160   9.449
 2546W        W 6290   5.267   0.255   1.898
 2547W        W 6291   6.219   1.235  10.052
 2548W        W 6292   7.870   5.438   1.752
 2549W        W 6293   7.434   8.092   3.061
 2550W        W 6294   5.473   7.817   3.740
 2551W        W 6295   7.045   6.074   0.044
 2552W        W 6296   1.892   4.261   9.851
 2553W        W 6297   4.994   2.931   8.572
 2554W        W 6298   3.148   3.468   3.074
 2555W        W 6299   9.277   9.268   3.343
 2556W        W 6300   6.272   4.955   2.109
 2557W        W 6301   4.512   7.699  11.447
 2558W        W 6302   8.990   4.516  11.055
 2559W        W 6303   8.558   9.284  11.126
 2560W        W 6304   5.967   3.502   9.872
 2561W        W 6305  10.481   0.320   3.151
 2562W        W 6306   3.562   2.246   8.738
 2563W        W 6307   8.145   9.337  11.491
 2564W        W 6308   4.726   8.369   0.423
 2565W        W 6309   8.880   1.425   1.474
 2566W        W 6310   6.933   0.806  10.944
 2567W        W 6311   4.594   6.651   9.092
 2568W        W 6312   9.149   3.447   2.067
 2569W        W 6313   8.473   7.413   0.338
 2570W        W 6314   4.684   9.062  10.111
 2571W        W 6315   1.805   6.487   3.495
 2572W        W 6316   5.182   1.472   2.504
 2573W        W 6317   3.627   8.396  10.880
 2574W        W 6318   5.623   1.702   0.554
 2575W        W 6319   3.823   7.515   9.760
 2576W        W 6320   5.643   5.144   1.299
 2577W        W 6321   9.404   7.912   2.083
 2578W        W 6322   7.217   1.379   9.765
 2579W        W 6323   8.517   6.735   9.996
 2580W        W 6324   9.828   9.739   2.857
 2581W        W 6325   4.060   1.531  11.557
 2582W        W 6326   0.744   6.126   9.894
 2583W        W 6327   1.377   8.495  11.087
 2584W        W 6328   3.320   1.465  10.593
 2585W        W 6329  10.449   0.024   9.727
 2586W        W 6330   2.602   4.901   3.622
 2587W        W 6331   5.780   0.755  10.486
 2588W        W 6332   0.768   4.334   1.743
 2589W        W 6333   6.008   7.312   9.558
 2590W        W 6334   0.855   4.670   8.679
 2591W        W 6335   4.584   8.469  11.361
 2592W        W 6336   2.223   3.197  10.703
 2593W        W 6337   6.647   8.372   1.814
 2594W        W 6338   0.375   5.712   9.985
 2595W        W 6339   9.631   5.372   0.456
 2596W        W 6340   9.797   3.055   0.069
 2597W        W 6341   4.313   9.525  11.844
 2598W        W 6342   1.717   3.668  10.415
 2599W        W 6343   0.477   0.488   0.399
 2600W        W 6344   1.757   5.800   8.779
 2601W        W 6345  10.214   2.813  11.947
 2602W        W 6346   5.803   2.497   9.964
 2603W        W 6347   6.569   2.952   1.934
 2604W        W 6348   6.487   3.920  10.347
 2605W        W 6349   7.506   2.239   8.778
 2606W        W 6350   6.492  10.387  10.128
 2607W        W 6351   2.287   9.518   9.218
 2608W        W 6352   4.704   6.429   1.317
 2609W        W 6353   3.611  10.397  10.302
 2610W        W 6354   2.911   5.682   3.114
 2611W        W 6355   6.401  10.177   3.339
 2612W        W 6356   9.388   3.057   2.799
 2613W        W 6357   8.051   1.786   8.818
 2614W        W 6358   8.962   9.527   9.804
 2615W        W 6359   9.423   2.177   1.772
 2616W        W 6360   8.423   0.214   8.831
 2617W        W 6361   5.386   9.564   9.825
 2618W        W 6362   6.995   2.173   3.288
 2619W        W 6363   7.876   3.884  11.311
 2620W        W 6364   1.132   1.427  11.208
 2621W        W 6365   7.094   5.024  11.803
 2622W        W 6366   8.304   7.107   1.227
 2623W        W 6367   4.235   6.551   1.098
 2624W        W 6368   2.725   9.925   9.991
 2625W        W 6369   5.453   7.616   1.615
 2626W        W 6370   7.110   5.735  10.223
 2627W        W 6371   8.435   0.722   8.735
 2628W        W 6372   7.262   9.283   9.284
 2629W        W 6373   6.054   1.976  11.216
 2630W        W 6374   7.333   5.196  10.240
 2631W        W 6375   2.082   9.924   0.686
 2632W        W 6376   9.948   9.307  11.852
 2633W        W 6377   4.606   0.679  10.653
 2634W        W 6378   9.854   9.482  10.805
 2635W        W 6379   9.457   1.821   2.405
 2636W        W 6380   9.547   0.443   9.130
 2637W        W 6381   5.215   1.953  10.268
 2638W        W 6382   2.767   9.307   2.467
 2639W        W 6383   1.162   0.986   0.754
 2640W        W 6384   5.941   3.028   9.019
 2641W        W 6385   6.523  10.169  11.589
 2642W        W 6386   6.989   8.521  10.681
 2643W        W 6387   0.367   2.676  10.056
 2644W        W 6388   2.463   9.555   0.614
 2645W        W 6389   0.517   7.385  10.951
 2646W        W 6390   3.788   0.433   2.500
 2647W        W 6391   5.229   5.046  11.869
 2648W        W 6392   3.719   6.727   9.701
 2649W        W 6393   9.784   6.601   9.531
 2650W        W 6394   0.017   3.389   0.813
 2651W        W 6395   9.469   9.853  10.741
 2652W        W 6396   2.221  10.417  10.284
 2653W        W 6397   0.198   3.347  11.013
 2654W        W 6398   6.069   1.103   2.712
 2655W        W 6399   2.812   6.045   1.432
 2656W        W 6400   5.670   0.067   0.880
 2657W        W 6401   8.957   4.761   2.902
 2658W        W 6402   8.512   4.135   2.829
 2659W        W 6403   3.649   7.122  10.038
 2660W        W 6404   5.240   6.500   9.867
 2661W        W 6405   6.129   7.716   0.089
 2662W        W 6406   7.561   3.931   2.540
 2663W        W 6407   6.086   1.473   0.530
 2664W        W 6408   4.595   8.400   2.189
 2665W        W 6409   7.065   4.832   2.035
 2666W        W 6410   8.012   7.593   3.624
 2667W        W 6411   8.507   3.393   0.511
 2668W        W 6412   5.542   6.484  10.442
 2669W        W 6413   6.341   8.189   8.693
 2670W        W 6414   9.280   4.294   1.857
 2671W        W 6415   4.472   3.235   1.421
 2672W        W 6416   4.222   8.052  10.793
 2673W        W 6417   9.457   6.722   3.056
 2674W        W 6418   1.460   1.948   0.741
 2675W        W 6419   9.727   9.062   1.822
 2676W        W 6420   6.812   8.276   8.401
 2677W        W 6421  10.303   2.748  11.444
 2678W        W 6422   1.837   0.381   0.497
 2679W        W 6423   8.873   5.499   1.902
 2680W        W 6424   0.265   1.301  11.774
 2681W        W 6425   1.624   4.104   2.662
 2682W        W 6426   8.489   4.585   1.634
 2683W        W 6427   6.670   4.455  10.567
 2684W        W 6428   6.683   3.140  11.541
 2685W        W 6429   7.694   0.508   1.203
 2686W        W 6430   9.879   9.122  10.426
 2687W        W 6431  10.349   2.586  10.969
 2688W        W 6432   4.481   5.593   0.383
 2689W        W 6433   1.416   6.014   1.652
 2690W        W 6434   2.209   1.303   0.686
 2691W        W 6435   3.737   1.879   9.552
 2692W        W 6436   9.645   1.768   2.894
 2693W        W 6437   8.388   5.700  11.573
 2694W        W 6438   9.836   1.693   8.816
 2695W        W 6439   0.318   5.036   8.778
 2696W        W 6440   0.295   4.900  10.566
 2697W        W 6441   5.893   7.547   3.862
 2698W        W 6442   8.496   7.574   1.354
 2699W        W 6443   9.237   8.107   9.724
 2700W        W 6444   1.070   7.678   2.726
 2701W        W 6445   4.207   8.928   1.698
 2702W        W 6446   8.806   0.543   1.952
 2703W        W 6447   0.824   9.472   9.994
 2704W        W 6448   4.990   3.997   3.231
 2705W        W 6449   7.443   5.533  11.488
 2706W        W 6450   1.152   4.325  10.354
 2707W        W 6451   2.325   2.703  11.960
 2708W        W 6452   4.520   6.559   0.294
 2709W        W 6453   0.392   9.796   1.283
 2710W        W 6454   2.253   7.245   3.272
 2711W        W 6455   9.746   6.467  11.723
 2712W        W 6456   7.902   8.421   9.311
 2713W        W 6457   7.524   4.752   2.262
 2714W        W 6458   4.362   4.193   9.923
 2715W        W 6459   5.809   9.302   9.632
 2716W        W 6460   8.622   9.362  11.624
 2717W        W 6461   3.102   1.524   0.343
 2718W        W 6462   9.464   6.229  11.265
 2719W        W 6463   9.191   0.711   9.400
 2720W        W 6464   8.359   3.301  10.267
 2721W        W 6465   1.847   0.669  10.337
 2722W        W 6466   3.505   6.924   0.715
 2723W        W 6467   1.394   5.613  11.979
 2724W        W 6468   8.837   7.149   0.628
 2725W        W 6469   0.373   0.226  10.400
 2726W        W 6470   8.611   4.788  11.857
 2727W        W 6471   2.650   9.807   1.737
 2728W        W 6472   7.873   5.286   8.565
 2729W        W 6473  10.328   5.248  11.611
 2730W        W 6474   7.404   6.974   9.175
 2731W        W 6475   2.099  10.294   2.134
 2732W        W 6476   8.582   7.820  10.142
 2733W        W 6477   1.928   6.186   1.601
 2734W        W 6478   6.361   0.687   2.712
 2735W        W 6479   3.199   9.569   2.631
 2736W        W 6480   5.830   4.529   0.866
 2737W        W 6481   0.541  10.481   0.267
 2738W        W 6482   6.147   1.676   1.912
 2739W        W 6483   1.845   8.560   9.146
 2740W        W 6484   6.588  10.309  11.112
 2741W        W 6485   9.256   2.369   0.887
 2742W        W 6486   3.206   0.971  10.464
 2743W        W 6487   1.523   0.987   2.094
 2744W        W 6488   8.728   8.187   9.822
 2745W        W 6489   6.113   4.291  10.992
 2746W        W 6490   3.793   7.673  11.444
 2747W        W 6491   0.483   1.854   0.044
 2748W        W 6492   8.011   3.152   8.878
 2749W        W 6493   7.016   9.172   1.026
 2750W        W 6494   7.512   0.538   2.978
 2751W        W 6495  10.458   4.665   9.975
 2752W        W 6496   9.412   9.373   9.969
 2753W        W 6497   7.468   0.156  11.343
 2754W        W 6498   7.839   6.974   1.395
 2755W        W 6499  10.326   1.236  10.950
 2756W        W 6500   5.204   1.305  10.522
 2757W        W 6501   3.059  10.254   9.163
 2758W        W 6502   0.961   7.069   8.596
 2759W        W 6503   7.105   8.847   0.638
 2760W        W 6504   2.298   8.865   1.540
 2761W        W 6505  10.366   6.110   3.544
 2762W        W 6506   0.360   0.894   0.089
 2763W        W 6507  10.356   4.115  10.570
 2764W        W 6508   8.581   2.607   1.192
 2765W        W 6509   8.398   0.227   9.715
 2766W        W 6510   0.643   7.344   9.352
 2767W        W 6511   8.375   5.538   1.745
 2768W        W 6512   8.704   4.212   9.088
 2769W        W 6513   0.840   3.686   9.338
 2770W        W 6514   6.182   4.429   2.120
 2771W        W 6515   8.387   6.536  11.468
 2772W        W 6516   2.579   4.749  11.279
 2773W        W 6517   9.939   6.935   1.884
 2774W        W 6518   8.289   9.639   0.393
 2775W        W 6519   3.424   3.227  10.100
 2776W        W 6520   0.066   5.997   1.295
 2777W        W 6521   1.993   8.254   0.365
 2778W        W 6522  10.415   6.436   1.537
 2779W        W 6523   6.842   5.311  10.163
 2780W        W 6524   2.657   5.980   0.950
 2781W        W 6525   7.476   5.891  10.797
 2782W        W 6526   6.146   9.998   1.549
 2783W        W 6527   9.129   1.758   2.812
 2784W        W 6528   8.609   5.075   1.734
 2785W        W 6529   0.202   8.585   2.863
 2786W        W 6530   8.336   9.738  11.273
 2787W        W 6531   5.723   7.087   9.167
 2788W        W 6532   7.237   1.854  10.002
 2789W        W 6533   6.157   8.666  10.545
 2790W        W 6534   1.830   5.985   3.512
 2791W        W 6535   5.937   4.105   3.067
 2792W        W 6536   7.018   0.704   0.715
 2793W        W 6537   2.480   8.270   0.549
 2794W        W 6538   9.763   5.919   1.837
 2795W        W 6539   8.362   9.024   3.525
 2796W        W 6540   8.531   2.861  10.496
 2797W        W 6541   3.298   3.274   8.571
 2798W        W 6542   3.111   2.248  11.117
 2799W        W 6543   9.056   1.229   8.707
 2800W        W 6544   8.897   7.020   1.895
 2801W        W 6545   0.207   3.082  10.409
 2802W        W 6546  10.419   8.232   2.178
 2803W        W 6547   2.200   6.398  11.603
 2804W        W 6548  10.448   6.027   9.441
 2805W        W 6549   3.078   2.385   0.121
 2806W        W 6550   3.880   3.350   0.534
 2807W        W 6551   5.576   3.310  11.614
 2808W        W 6552   8.552   8.579   2.827
 2809W        W 6553   8.772  10.334   8.947
 2810W        W 6554   1.912   8.081   1.796
 2811W        W 6555   5.315   9.548   3.398
 2812W        W 6556   3.870   2.327   9.803
 2813W        W 6557   4.533   7.930   0.577
 2814W        W 6558   8.149   1.714  10.333
 2815W        W 6559   9.850   0.537  10.339
 2816W        W 6560   9.877   0.963  10.043
 2817W        W 6561   5.980   2.740   8.394
 2818W        W 6562   7.959   8.875   1.210
 2819W        W 6563   1.239   4.284   3.456
 2820W        W 6564   6.042   0.015   0.219
 2821W        W 6565   9.959   7.430  10.055
 2822W        W 6566   1.128   9.012   0.972
 2823W        W 6567   8.356  10.496   0.854
 2824W        W 6568   3.142   5.248   1.484
 2825W        W 6569   1.893   3.728   1.812
 2826W        W 6570   8.460   6.079   1.682
 2827W        W 6571   0.050   0.173   0.261
 2828W        W 6572   0.129   1.173   8.508
 2829W        W 6573   7.625   1.093  10.350
 2830W        W 6574   7.806   6.192   1.005
 2831W        W 6575   4.076   9.017   1.215
 2832W        W 6576  10.099   2.648   0.858
 2833W        W 6577   9.482   8.922   0.491
 2834W        W 6578   1.047   5.217   9.431
 2835W        W 6579   5.972   8.794   9.827
 2836W        W 6580   9.395   2.331   0.397
 2837W        W 6581   8.033   6.182   8.818
 2838W        W 6582   7.189   5.477  10.644
 2839W        W 6583   8.354   5.410   3.558
 2840W        W 6584   0.321   9.968  11.926
 2841W        W 6585   9.343   5.346   9.691
 2842W        W 6586   3.277   1.290   9.079
 2843W        W 6587   1.038   4.815   1.979
 2844W        W 6588   8.537   6.170   3.159
 2845W        W 6589   9.443   6.276   9.299
 2846W        W 6590   6.954  10.442   0.300
 2847W        W 6591   0.023   0.729   2.278
 2848W        W 6592   6.686   7.821  11.952
 2849W        W 6593   5.293   1.418  11.522
 2850W        W 6594   6.218   8.902   2.960
 2851W        W 6595   1.388   0.966  10.027
 2852W        W 6596   7.928   2.156   2.332
 2853W        W 6597   1.018   5.850   0.315
 2854W        W 6598   8.652   0.035   0.447
 2855W        W 6599   4.643   8.927   9.618
 2856W        W 6600   5.554   3.221   0.163
 2857W        W 6601   1.850   6.763  11.211
 2858W        W 6602   4.148   6.379   0.605
 2859W        W 6603   3.456  10.048  11.998
 2860W        W 6604   2.593   4.096  10.396
 2861W        W 6605   5.231   8.673   3.791
 2862W        W 6606   0.484   8.940   2.064
 2863W        W 6607   1.318   2.032  11.854
 2864W        W 6608   0.429   7.197   2.822
 2865W        W 6609   3.212   1.849   9.871
 2866W        W 6610   7.254   0.409   9.937
 2867W        W 6611   4.735   3.127  10.253
 2868W        W 6612   4.558   9.426   9.580
 2869W        W 6613   8.447   4.408   3.566
 2870W        W 6614   8.586   3.860   0.054
 2871W        W 6615   9.352   1.734   3.324
 2872W        W 6616   3.049   2.663   1.082
 2873W        W 6617   1.300  10.365   9.272
 2874W        W 6618   6.641   5.666   0.927
 2875W        W 6619   4.423   5.831  11.408
 2876W        W 6620   7.964   8.145  10.836
 2877W        W 6621   1.399   4.746  11.834
 2878W        W 6622   1.828   9.931   1.126
 2879W        W 6623   3.011   9.163  11.864
 2880W        W 6624   8.799   9.515   0.274
 2881W        W 6625   4.168   7.417  10.128
 2882W        W 6626   8.510   1.313  10.438
 2883W        W 6627   3.027   0.060   2.091
 2884W        W 6628   0.410   7.113   1.902
 2885W        W 6629   9.241   9.297   1.972
 2886W        W 6630   7.461   0.123   1.462
 2887W        W 6631   1.133   8.283   1.910
 2888W        W 6632   5.048   8.741   9.308
 2889W        W 6633   4.586   9.098  11.982
 2890W        W 6634   1.503   9.317   1.160
 2891W        W 6635   2.819   9.479   9.259
 2892W        W 6636   5.920   8.005   8.946
 2893W        W 6637   7.847   9.755  10.424
 2894W        W 6638   6.195   4.227   0.710
 2895W        W 6639   3.336   0.465  10.488
 2896W        W 6640   8.274   2.338   1.987
 2897W        W 6641   4.611   2.652   1.893
 2898W        W 6642  10.159   5.216   0.505
 2899W        W 6643   6.757   1.661  10.558
 2900W        W 6644   2.103   2.171   1.443
 2901W        W 6645   8.352   6.945  11.792
 2902W        W 6646   6.907   6.594  10.312
 2903W        W 6647   8.060   5.217  10.950
 2904W        W 6648   8.779   5.715   1.467
 2905W        W 6649   4.069   4.675  11.650
 2906W        W 6650   6.011   5.299   9.627
 2907W        W 6651   9.863   4.180  11.394
 2908W        W 6652   4.308   3.104   9.972
 2909W        W 6653   1.596   4.563  11.147
 2910W        W 6654   2.414   4.301   3.329
 2911W        W 6655   7.152   6.948  11.225
 2912W        W 6656   5.621   4.203   2.652
 2913W        W 6657   2.832   9.327   0.880
 2914W        W 6658   3.036   4.734   1.165
 2915W        W 6659  10.317   3.463   1.289
 2916W        W 6660   4.883   8.665   2.566
 2917W        W 6661   5.200   0.496   0.269
 2918W        W 6662   8.229   3.754   8.016
 2919W        W 6663   7.890   6.895   3.508
 2920W        W 6664   2.719   9.455   9.749
 2921W        W 6665  10.177   5.966  10.754
 2922W        W 6666   9.816   5.592   2.635
 2923W        W 6667   5.145   7.521   9.568
 2924W        W 6668   3.576   4.010   9.398
 2925W        W 6669   1.107   0.114  11.728
 2926W        W 6670   1.622  10.233   0.357
 2927W        W 6671  10.462   7.376  10.069
 2928W        W 6672   7.684   6.574   9.036
 2929W        W 6673   8.316   5.803   1.271
 2930W        W 6674   4.593   6.284  11.867
 2931W        W 6675   3.399   4.541  11.095
 2932W        W 6676  10.017   1.360   9.156
 2933W        W 6677   0.165   5.244  10.218
 2934W        W 6678   0.993   1.639  10.702
 2935W        W 6679   1.688   7.401   1.982
 2936W        W 6680   0.216   0.401  10.866
 2937W        W 6681   7.017   4.865   0.703
 2938W        W 6682   6.823   8.874   1.866
 2939W        W 6683   4.545   8.541   9.293
 2940W        W 6684   7.508   4.764   1.389
 2941W        W 6685   4.184   8.290   0.505
 2942W        W 6686   5.130   3.211  11.870
 2943W        W 6687   4.686   5.965   1.743
 2944W        W 6688   8.665   8.097   9.301
 2945W        W 6689   0.167   4.452  10.388
 2946W        W 6690   6.383   2.039  10.524
 2947W        W 6691   0.236   7.984   0.745
 2948W        W 6692   9.813   0.364  11.300
 2949W        W 6693   8.483   7.490  10.521
 2950W        W 6694   1.189   5.199  11.751
 2951W        W 6695   6.556   3.753   2.350
 2952W        W 6696   5.169   7.412   2.600
 2953W        W 6697   3.863   1.273  11.956
 2954W        W 6698   2.527   6.667   0.402
 2955W        W 6699   5.538   8.075   2.214
 2956W        W 6700   5.086   8.363   0.023
 2957W        W 6701   0.429   1.269   3.130
 2958W        W 6702   6.244   2.114  10.033
 2959W        W 6703   8.106   5.516   2.217
 2960W        W 6704   4.261   4.815   0.367
 2961W        W 6705   1.313   2.819   1.948
 2962W        W 6706   0.224   4.291   3.321
 2963W        W 6707   5.278   3.506  11.210
 2964W        W 6708   1.994   8.257  10.638
 2965W        W 6709   5.743   2.096  10.280
 2966W        W 6710   9.050   1.218   9.244
 2967W        W 6711   9.286   7.905  10.651
 2968W        W 6712   7.788   6.020   3.634
 2969W        W 6713   4.228   2.090  10.229
 2970W        W 6714   0.607   8.520   1.288
 2971W        W 6715   8.550   5.101   0.779
 2972W        W 6716   9.032   1.857   8.162
 2973W        W 6717   4.071   3.229  10.791
 2974W        W 6718   4.170   6.105  10.153
 2975W        W 6719   2.255   7.931   8.787
 2976W        W 6720   0.430   4.676   3.612
 2977W        W 6721   1.690   9.481   2.455
 2978W        W 6722   3.767   1.401   9.854
 2979W        W 6723   9.766   8.436   3.358
 2980W        W 6724   0.934   3.203   9.482
 2981W        W 6725   7.030   4.065   1.326
 2982W        W 6726   0.716   2.806   9.209
 2983W        W 6727   5.128   4.055   2.746
 2984W        W 6728   3.004   6.893   0.645
 2985W        W 6729   4.017   6.870   0.739
 2986W        W 6730   9.080   4.620   9.313
 2987W        W 6731   3.755   5.764   9.473
 2988W        W 6732   5.517   4.310   8.703
 2989W        W 6733   7.853   2.613   3.248
 2990W        W 6734   1.709   1.668  10.550
 2991W        W 6735   3.673   7.147  11.465
 2992W        W 6736   8.677   2.344   3.437
 2993W        W 6737   6.991   0.466  11.365
 2994W        W 6738   2.370   8.477  10.352
 2995W        W 6739   1.647   3.559   0.306
 2996W        W 6740   3.148   6.461   8.969
 2997W        W 6741  10.357   4.214  11.226
 2998W        W 6742   5.157   2.342   3.687
 2999W        W 6743   4.250   3.363   3.221
 3000W        W 6744   3.611   5.904  11.831
 3001W        W 6745   9.482   4.090   0.836
 3002W        W 6746   6.203   5.719   0.545
 3003W        W 6747   0.939   3.321  11.808
 3004W        W 6748   2.720   4.952   1.503
 3005W        W 6749   0.914   7.115  11.114
 3006W        W 6750   3.244   5.910  10.103
 3007W        W 6751   8.527   1.841   1.928
 3008W        W 6752   6.619   9.816   1.500
 3009W        W 6753   7.098  10.421   9.895
 3010W        W 6754   5.006   9.357  11.734
 3011W        W 6755   4.255   7.081   1.995
 3012W        W 6756   7.823   9.630   0.813
 3013W        W 6757   7.107   8.531   8.724
 3014W        W 6758  10.035   5.714   0.409
 3015W        W 6759  10.064   3.496   8.417
 3016W        W 6760   1.181   3.309   3.095
 3017W        W 6761   4.242   6.172   1.479
 3018W        W 6762   4.724   7.484   0.460
 3019W        W 6763   1.002   5.579   9.076
 3020W        W 6764   5.704   0.415  10.970
 3021W        W 6765   5.522   0.997  11.799
 3022W        W 6766   8.022   8.848   9.037
 3023W        W 6767   6.038  10.321   8.963
 3024W        W 6768   1.447   0.222   0.193
 3025W        W 6769   9.762   1.362   1.279
 3026W        W 6770   8.558   5.252   2.260
 3027W        W 6771   2.732   6.067   3.422
 3028W        W 6772   4.657   3.114   9.204
 3029W        W 6773   9.907   5.238   1.278
 3030W        W 6774   5.197   0.286   0.751
 3031W        W 6775   2.841   1.786   9.043
 3032W        W 6776   5.184   5.574  10.977
 3033W        W 6777   2.644   3.076   2.599
 3034W        W 6778   9.656   2.166   3.225
 3035W        W 6779   8.977   6.457   9.249
 3036W        W 6780   0.918   9.509   0.307
 3037W        W 6781   6.476   9.963   0.107
 3038W        W 6782   4.531   4.479  11.683
 3039W        W 6783   1.778   5.890   1.215
 3040W        W 6784   5.993   8.874   9.331
 3041W        W 6785   7.552   9.639   9.491
 3042W        W 6786   3.726   6.999   1.180
 3043W        W 6787   7.029   4.048   0.803
 3044W        W 6788   8.014   5.027   2.079
 3045W        W 6789   8.444   0.280  10.479
 3046W        W 6790   6.538   4.043  10.849
 3047W        W 6791   4.567   0.858   8.611
 3048W        W 6792   8.934   1.786  11.654
 3049W        W 6793  10.164   7.486   3.088
 3050W        W 6794   3.205   4.946   3.152
 3051W        W 6795   5.937   3.609   3.211
 3052W        W 6796   1.499   7.585  10.828
 3053W        W 6797   0.434   2.243  11.701
 3054W        W 6798   4.704   9.584   1.347
 3055W        W 6799   8.032   3.410  11.358
 3056W        W 6800   5.171   7.492   9.032
 3057W        W 6801   2.184  10.326   1.184
 3058W        W 6802   1.953   5.160   1.724
 3059W        W 6803   9.075   5.028  10.948
 3060W        W 6804   4.635   2.525   1.027
 3061W        W 6805   1.916   3.174  11.520
 3062W        W 6806   3.789   6.249  11.483
 3063W        W 6807  10.332   1.741   9.609
 3064W        W 6808   1.275   3.900  10.608
 3065W        W 6809   9.443   5.526  10.155
 3066W        W 6810  10.002   5.598   3.232
 3067W        W 6811   6.615   6.157   2.295
 3068W        W 6812   3.835   7.110   8.840
 3069W        W 6813   3.115   6.366  11.315
 3070W        W 6814   1.848   5.036   8.874
 3071W        W 6815   2.598   3.700  10.088
 3072W        W 6816   7.941   9.849   8.725
 3073W        W 6817   4.283   8.410  10.424
 3074W        W 6818   0.707   7.865  10.977
 3075W        W 6819  10.476   6.943   9.803
 3076W        W 6820   4.207   9.420   1.557
 3077W        W 6821   2.045   0.283  11.388
 3078W        W 6822   8.156   2.895   1.187
 3079W        W 6823   2.043   8.550   1.829
 3080W        W 6824   1.174   1.324  10.326
 3081W        W 6825   7.462   6.617   2.464
 3082W        W 6826   7.552   0.862   8.486
 3083W        W 6827   6.732   1.801   1.288
 3084W        W 6828   0.202   7.014   9.343
 3085W        W 6829   2.805   1.289   9.323
 3086W        W 6830   7.496   4.080   0.249
 3087W        W 6831   2.577   2.783   8.974
 3088W        W 6832   4.522   0.840   3.189
 3089W        W 6833   7.477   5.535   0.380
 3090W        W 6834   3.315   7.507   9.841
 3091W        W 6835   4.817   0.365   8.641
 3092W        W 6836   0.462   9.476   9.158
 3093W        W 6837   3.532   8.657  11.302
 3094W        W 6838   6.502   0.022   0.967
 3095W        W 6839  10.231   5.126   9.230
 3096W        W 6840   2.570   1.446   0.359
 3097W        W 6841   7.204   7.457   9.898
 3098W        W 6842   3.828   6.582   2.676
 3099W        W 6843   3.327   1.777   1.253
 3100W        W 6844   7.482   0.154   0.319
 3101W        W 6845   6.453   5.524   9.478
 3102W        W 6846   9.160   5.866   2.240
 3103W        W 6847   4.549   9.961   3.255
 3104W        W 6848   5.924   7.591  11.300
 3105W        W 6849   6.694   3.414  10.275
 3106W        W 6850   9.713   1.375   3.249
 3107W        W 6851   6.748   2.772  11.942
 3108W        W 6852   3.141   6.086  10.886
 3109W        W 6853   7.396   0.030   9.474
 3110W        W 6854   1.923   4.435   2.401
 3111W        W 6855   5.715   5.605   9.959
 3112W        W 6856   6.475   6.366   2.736
 3113W        W 6857   3.453   0.098   9.232
 3114W        W 6858   8.513   9.047   3.044
 3115W        W 6859   0.749   0.630   3.666
 3116W        W 6860   9.480   4.597   9.018
 3117W        W 6861   3.953   2.973   3.124
 3118W        W 6862   2.227   9.076   0.768
 3119W        W 6863   2.215   1.974   9.121
 3120W        W 6864   2.893   9.515  10.629
 3121W        W 6865   1.518   9.942   9.027
 3122W        W 6866   9.043   7.499   2.088
 3123W        W 6867   7.452   1.476   3.178
 3124W        W 6868   9.034   2.193   9.102
 3125W        W 6869   0.775   6.359   9.394
 3126W        W 6870   0.052  10.452  10.706
 3127W        W 6871   9.734   7.236   2.238
 3128W        W 6872   2.556   7.658   1.943
 3129W        W 6873   5.915   2.552   8.875
 3130W        W 6874   2.742   9.514   0.164
 3131W        W 6875   4.173   8.136   2.430
 3132W        W 6876   9.848   3.280   3.027
 3133W        W 6877   3.792   9.459  10.795
 3134W        W 6878   0.250   4.449  11.490
 3135W        W 6879   6.572   4.620   9.690
 3136W        W 6880   7.459  10.439   1.922
 3137W        W 6881   0.111   0.439  11.824
 3138W        W 6882   6.475   3.100  11.063
 3139W        W 6883   0.078   9.473   0.895
 3140W        W 6884   8.335   8.415   9.579
 3141W        W 6885   3.769   6.489  10.157
 3142W        W 6886   7.331   5.608   1.686
 3143W        W 6887   1.440   8.889   8.495
 3144W        W 6888   8.441   1.658  11.397
 3145W        W 6889   1.756   3.660  11.440
 3146W        W 6890   6.249   1.506   0.028
 3147W        W 6891   2.716   7.013   2.470
 3148W        W 6892   0.032   1.845  10.616
 3149W        W 6893   7.197   6.181   8.546
 3150W        W 6894   8.873   6.986  10.258
 3151W        W 6895   0.797   6.810   1.668
 3152W        W 6896   7.592  10.240   0.610
 3153W        W 6897   5.334   3.835   8.627
 3154W        W 6898   9.469   0.062  10.446
 3155W        W 6899   2.319   8.157   2.586
 3156W        W 6900   1.630   8.601   2.114
 3157W        W 6901   8.205   2.590  11.969
 3158W        W 6902   4.677   5.218  10.325
 3159W        W 6903   0.043   0.853  10.685
 3160W        W 6904   9.912   4.475   0.783
 3161W        W 6905   0.950   6.615   0.720
 3162W        W 6906   7.395   9.482  10.573
 3163W        W 6907   5.181  10.281   2.062
 3164W        W 6908  10.421   6.395   2.050
 3165W        W 6909   3.023   1.886  11.953
 3166W        W 6910   4.832   3.372   8.819
 3167W        W 6911   7.671   0.925   1.509
 3168W        W 6912   5.741   2.680  10.906
 3169W        W 6913   3.103   6.206   2.813
 3170W        W 6914   6.329   9.066   0.350
 3171W        W 6915   6.174   4.303  10.499
 3172W        W 6916   2.353   8.128   2.073
 3173W        W 6917   7.626   9.919  11.848
 3174W        W 6918   5.163   5.625   1.160
 3175W        W 6919   4.159   1.579  10.178
 3176W        W 6920   3.580   5.209   2.753
 3177W        W 6921   6.117   0.165   9.328
 3178W        W 6922   4.125   1.354   9.050
 3179W        W 6923   4.983   2.756   0.694
 3180W        W 6924   0.994   8.432   9.942
 3181W        W 6925  10.366   8.232   9.023
 3182W        W 6926   2.285   5.648   9.506
 3183W        W 6927   0.911   0.982   9.233
 3184W        W 6928   2.505   4.237   0.469
 3185W        W 6929   5.585   8.052  10.373
 3186W        W 6930   6.890   3.014   2.707
 3187W        W 6931   3.310   4.531  10.600
 3188W        W 6932   6.921   5.389  11.487
 3189W        W 6933   0.484   3.769  10.999
 3190W        W 6934   9.888   1.394   9.666
 3191W        W 6935   6.261   5.628   9.983
 3192W        W 6936   5.967   5.070   1.695
 3193W        W 6937   8.923   8.080  11.680
 3194W        W 6938   8.529   8.549   1.762
 3195W        W 6939   6.633   1.276   8.866
 3196W        W 6940   2.143   9.668   0.238
 3197W        W 6941   5.177   7.576   0.993
 3198W        W 6942   4.148   6.165   8.828
 3199W        W 6943   8.052   0.495   9.092
 3200W        W 6944   2.767   4.442   1.479
 3201W        W 6945   2.615   4.577   8.248
 3202W        W 6946   2.223   1.485  11.708
 3203W        W 6947   6.005   6.125  10.529
 3204W        W 6948   3.146   4.125  10.324
 3205W        W 6949   3.193   0.384   0.248
 3206W        W 6950   9.872  10.261   0.510
 3207W        W 6951   8.864   8.833   1.273
 3208W        W 6952   7.151   3.541   3.696
 3209W        W 6953   9.334   6.885  10.440
 3210W        W 6954   0.633   8.429  11.648
 3211W        W 6955   4.588   7.153   9.986
 3212W        W 6956   8.124   9.530  10.844
 3213W        W 6957   9.432   7.576   0.374
 3214W        W 6958   3.183   8.329   9.051
 3215W        W 6959   1.885   8.494  11.921
 3216W        W 6960   6.057   9.508   0.339
 3217W        W 6961   4.034   4.894  10.464
 3218W        W 6962   4.687   9.101   1.821
 3219W        W 6963   8.439   5.079   2.957
 3220W        W 6964   0.237   5.528   1.442
 3221W        W 6965   4.051   9.714  11.443
 3222W        W 6966   1.531   3.508   3.627
 3223W        W 6967   0.670   7.489   8.720
 3224W        W 6968   1.349   5.624  10.977
 3225W        W 6969   9.452   6.172   1.455
 3226W        W 6970   4.756  10.379  11.848
 3227W        W 6971   0.922   6.134   1.861
 3228W        W 6972   0.456   9.992  10.875
 3229W        W 6973   7.852   0.128   0.856
 3230W        W 6974   5.620   8.008   9.557
 3231W        W 6975   6.311   5.433   1.842
 3232W        W 6976   9.954   3.657   2.666
 3233W        W 6977   2.845   5.155  11.489
 3234W        W 6978   8.451   9.720   9.697
 3235W        W 6979   9.968   0.380   1.399
 3236W        W 6980   6.367   9.463  10.829
 3237W        W 6981   9.290   4.938   0.264
 3238W        W 6982   0.789   3.628   0.268
 3239W        W 6983   4.996   4.829  10.289
 3240W        W 6984  10.406   8.005  11.326
 3241W        W 6985   6.777   1.227  10.006
 3242W        W 6986   0.627   1.641   0.492
 3243W        W 6987   1.976   6.351   9.597
 3244W        W 6988   6.048   9.361  11.436
 3245W        W 6989  10.156   7.310   9.587
 3246W        W 6990   6.142   3.495   8.922
 3247W        W 6991   3.796   6.333   8.444
 3248W        W 6992   2.861   6.084   1.941
 3249W        W 6993   5.239   6.967   2.343
 3250W        W 6994   7.799   4.393   0.746
 3251W        W 6995   8.074   9.787   2.872
 3252W        W 6996   6.773   6.491   8.600
 3253W        W 6997  10.218   9.077   0.904
 3254W        W 6998   9.075   8.033  10.203
 3255W        W 6999   5.201   0.393   8.984
 3256W        W 7000   0.422   1.963   2.666
 3257W        W 7001   5.981   5.106   2.793
 3258W        W 7002   3.582   7.876   3.079
 3259W        W 7003   2.727   0.306   3.226
 3260W        W 7004   9.345   1.219   1.578
 3261W        W 7005   7.934   3.296   9.974
 3262W        W 7006   8.122   0.903   1.274
 3263W        W 7007   3.170   5.030   2.371
 3264W        W 7008   6.626   0.995   3.031
 3265W        W 7009   6.103   8.124  10.563
 3266W        W 7010   1.925   5.562   3.194
 3267W        W 7011   7.214   5.448   9.785
 3268W        W 7012  10.500   5.297   1.037
 3269W        W 7013   0.702   5.285  11.667
 3270W        W 7014   9.091  10.322   0.390
 3271W        W 7015   8.653   4.651  10.294
 3272W        W 7016  10.195   0.351   3.604
 3273W        W 7017   5.312   8.399   9.566
 3274W        W 7018   9.619   6.715  11.306
 3275W        W 7019   7.862   4.224  10.459
 3276W        W 7020   8.411   6.942   9.536
 3277W        W 7021   7.364   6.268   3.808
 3278W        W 7022   5.523   3.783   2.947
 3279W        W 7023   5.790   5.794   0.261
 3280W        W 7024   3.087   2.720   1.581
 3281W        W 7025   5.088   6.738   8.936
 3282W        W 7026   7.892   4.232   9.567
 3283W        W 7027   2.677   6.672   9.001
 3284W        W 7028   3.600   9.489  11.294
 3285W        W 7029   7.918   0.390  11.508
 3286W        W 7030   7.760   5.578   8.151
 3287W        W 7031   8.607   5.423   9.275
 3288W        W 7032   8.330   0.542   3.642
 3289W        W 7033   2.771   6.536   2.632
 3290W        W 7034   5.311   5.543   3.143
 3291W        W 7035   7.363   0.565   3.486
 3292W        W 7036   3.765   9.179   1.861
 3293W        W 7037   6.587   6.015   9.272
 3294W        W 7038   6.452   8.639   2.188
 3295W        W 7039   0.121   8.435  11.563
 3296W        W 7040   5.932   7.121   8.169
 3297W        W 7041   1.427   2.419  10.463
 3298W        W 7042   7.442   3.424   0.818
 3299W        W 7043   0.972   1.800   2.109
 3300W        W 7044   7.353  10.330  11.705
 3301W        W 7045   6.162   3.255   1.964
 3302W        W 7046   7.916   4.759   8.955
 3303W        W 7047   4.230   9.623   0.322
 3304W        W 7048  10.038   5.481  10.835
 3305W        W 7049   6.442   8.091   2.210
 3306W        W 7050   0.008   7.457  10.966
 3307W        W 7051   1.176   0.439   9.972
 3308W        W 7052   1.709   1.827   9.210
 3309W        W 7053   5.747   1.960   2.023
 3310W        W 7054   3.007   2.811  10.793
 3311W        W 7055   9.912   5.228   2.290
 3312W        W 7056   8.553   9.774   2.063
 3313W        W 7057  10.385   9.864   1.191
 3314W        W 7058   4.328   7.133   3.008
 3315W        W 7059   4.055   6.348   3.358
 3316W        W 7060   4.274   1.421   2.283
 3317W        W 7061   9.945   9.803   0.258
 3318W        W 7062   5.238   4.766   9.280
 3319W        W 7063   2.213  10.398   8.727
 3320W        W 7064   4.724   7.500   8.594
 3321W        W 7065   3.668   7.851   0.733
 3322W        W 7066   7.408   7.648   1.287
 3323W        W 7067   8.436   9.780   3.543
 3324W        W 7068   2.698   4.985   9.026
 3325W        W 7069   6.483   9.255  11.690
 3326W        W 7070   1.908   2.625  10.427
 3327W        W 7071   8.538   1.026   3.540
 3328W        W 7072   8.196   1.255   0.066
 3329W        W 7073   5.558   3.625   0.463
 3330W        W 7074   7.019   4.501   1.055
 3331W        W 7075   2.348   0.424  10.476
 3332W        W 7076   2.912   9.453   3.416
 3333W        W 7077   0.662   0.423  10.023
 3334W        W 7078   9.336   7.461   1.255
 3335W        W 7079  10.271   7.036   0.682
 3336W        W 7080   4.736   7.690   9.214
 3337W        W 7081   0.129   8.079   9.945
 3338W        W 7082   8.134   7.556  10.132
 3339W        W 7083   9.095   0.335   0.456
 3340W        W 7084   8.973   9.457   8.755
 3341W        W 7085   1.761   1.227   0.894
 3342W        W 7086   5.682   3.630   0.958
 3343W        W 7087   7.327   1.784   9.467
 3344W        W 7088   4.079  10.229   3.283
 3345W        W 7089   1.826   2.325   8.992
 3346W        W 7090   3.643   0.503  10.935
 3347W        W 7091   3.388   4.516   0.023
 3348W        W 7092   2.408   1.928  10.356
 3349W        W 7093   1.261   5.099   2.406
 3350W        W 7094   1.068   5.211   8.575
 3351W        W 7095   4.347   3.668  10.829
 3352W        W 7096   0.298   3.379   2.417
 3353W        W 7097   8.946   7.955   2.316
 3354W        W 7098   4.581   8.331   0.918
 3355W        W 7099   3.931   4.607   8.665
 3356W        W 7100   2.981  10.309   0.850
 3357W        W 7101   8.340   4.996   9.103
 3358W        W 7102   2.426   8.602   3.322
 3359W        W 7103   5.355   0.752   1.659
 3360W        W 7104   8.422   6.077   0.365
 3361W        W 7105   5.132   3.319   0.862
 3362W        W 7106   6.982  10.024   2.148
 3363W        W 7107   2.131   8.957  10.024
 3364W        W 7108   0.773   5.188   2.267
 3365W        W 7109   5.687   9.907  11.951
 3366W        W 7110   8.132   3.636   1.344
 3367W        W 7111   5.697   7.564   3.357
 3368W        W 7112   6.773   2.839   9.934
 3369W        W 7113   5.832   4.458   0.283
 3370W        W 7114   0.019   9.453   8.513
 3371W        W 7115   5.429   2.149   9.836
 3372W        W 7116   8.976   2.767   3.377
 3373W        W 7117   4.210   8.455   1.840
 3374W        W 7118  10.057   0.055   3.204
 3375W        W 7119   4.946   7.693   1.455
 3376W        W 7120   1.820   2.819   0.733
 3377W        W 7121   5.725   7.840  10.832
 3378W        W 7122   3.818   0.537  11.506
 3379W        W 7123   6.629   8.566   8.938
 3380W        W 7124   9.610   2.796   0.929
 3381W        W 7125   9.460   8.906  10.175
 3382W        W 7126   6.207   2.631   3.709
 3383W        W 7127   3.577   8.907  10.794
 3384W        W 7128   3.125   7.762   0.394
 3385W        W 7129   4.072   4.021   0.966
 3386W        W 7130   1.366   5.494   0.481
 3387W        W 7131   7.725   8.133   2.657
 3388W        W 7132   5.107   9.913   1.359
 3389W        W 7133   3.250   6.936   9.062
 3390W        W 7134   8.097   5.425   3.086
 3391W        W 7135   9.394   0.441   1.060
 3392W        W 7136   8.820   3.255  10.038
 3393W        W 7137   9.029   9.345  11.328
 3394W        W 7138   5.683   2.647   3.814
 3395W        W 7139   1.782   5.521  10.724
 3396W        W 7140   6.931   4.262  11.400
 3397W        W 7141   4.274   3.878   0.179
 3398W        W 7142   2.209   8.112  11.080
 3399W        W 7143   6.171   7.671   8.618
 3400W        W 7144   1.758   1.214   9.756
 3401W        W 7145   5.411   6.489   0.021
 3402W        W 7146   1.314   7.145  10.119
 3403W        W 7147   8.911   3.564  11.786
 3404W        W 7148   6.056   5.190  11.625
 3405W        W 7149   0.521   7.854  10.479
 3406W        W 7150   7.437   6.526  11.372
 3407W        W 7151   8.154   7.862   2.772
 3408W        W 7152   2.530   0.173   1.925
 3409W        W 7153  10.182   0.543  10.934
 3410W        W 7154   6.361  10.474   2.240
 3411W        W 7155   2.766   5.078   4.072
 3412W        W 7156   8.374  10.309  10.312
 3413W        W 7157   8.977   3.527   8.678
 3414W        W 7158   7.179   3.695   0.469
 3415W        W 7159   8.209   7.985   9.833
 3416W        W 7160   0.685   1.199  10.422
 3417W        W 7161   6.752   9.297   9.389
 3418W        W 7162   1.147   0.462   1.873
 3419W        W 7163   4.199   9.353  11.126
 3420W        W 7164   4.972   7.419  10.595
 3421W        W 7165   8.175   6.923   0.277
 3422W        W 7166   4.713   5.442   9.848
 3423W        W 7167   4.014   6.586  11.088
 3424W        W 7168   7.055   8.307   3.447
 3425W        W 7169   3.876   1.961   3.466
 3426W        W 7170   7.369   6.325   0.771
 3427W        W 7171   4.239   3.198   8.909
 3428W        W 7172   0.961   0.406   2.355
 3429W        W 7173   4.285   0.911   0.381
 3430W        W 7174   5.260   1.267   1.004
 3431W        W 7175   7.489   4.760   0.892
 3432W        W 7176   6.939   3.743  10.916
 3433W        W 7177   7.108   1.708   0.951
 3434W        W 7178   5.476   4.887   0.887
 3435W        W 7179   7.588   0.225   9.033
 3436W        W 7180   1.873   6.236   9.069
 3437W        W 7181   6.105   6.768   3.245
 3438W        W 7182   6.483   4.815  10.240
 3439W        W 7183   2.115   9.917   8.870
 3440W        W 7184   3.597   0.840  11.865
 3441W        W 7185   6.539   6.306   3.534
 3442W        W 7186   3.647   9.945  10.552
 3443W        W 7187   7.571   9.062   2.987
 3444W        W 7188   6.461   8.286   9.352
 3445W        W 7189   0.296   1.556   9.374
 3446W        W 7190   9.346   4.837   9.682
 3447W        W 7191   6.102   2.861   0.681
 3448W        W 7192   1.156   4.254   2.453
 3449W        W 7193   8.918   4.889   2.414
 3450W        W 7194   9.517   3.544   1.651
 3451W        W 7195   4.337   2.811   2.320
 3452W        W 7196   0.699   9.214  10.429
 3453W        W 7197   3.830   8.536   1.285
 3454W        W 7198   1.042   2.859   8.804
 3455W        W 7199   4.744   3.038   4.073
 3456W        W 7200   7.051   1.898   0.007
 3457W        W 7201   0.627   6.670   8.497
 3458W        W 7202   1.705   6.082   2.538
 3459W        W 7203   6.977   7.910   3.154
 3460W        W 7204   5.180   8.318   2.860
 3461W        W 7205   5.363   8.839   0.408
 3462W        W 7206   8.888   5.464   8.817
 3463W        W 7207   6.998   9.245  11.828
 3464W        W 7208  10.297  10.227   0.239
 3465W        W 7209   1.474   3.272   0.691
 3466W        W 7210   7.058   6.652   1.039
 3467W        W 7211  10.348   0.650   0.209
 3468W        W 7212   9.943   4.239   9.585
 3469W        W 7213   3.347   5.014  11.340
 3470W        W 7214   7.857   6.905   2.933
 3471W        W 7215   4.704   3.039   1.011
 3472W        W 7216   4.127   4.141  11.743
 3473W        W 7217   9.436   8.328   1.797
 3474W        W 7218   0.887   2.861   0.979
 3475W        W 7219   2.912   5.187   1.936
 3476W        W 7220   0.943   2.334   9.067
 3477W        W 7221   9.910   7.110  11.402
 3478W        W 7222   5.691   7.122  11.346
 3479W        W 7223  10.121   4.561   0.334
 3480W        W 7224   5.608   9.964   3.293
 3481W        W 7225   5.171   1.249   9.520
 3482W        W 7226   1.219   4.232   2.956
 3483W        W 7227   9.669   3.952   9.252
 3484W        W 7228   3.732   8.201  11.376
 3485W        W 7229   0.422   8.646  11.211
 3486W        W 7230  10.220   2.173   0.586
 3487W        W 7231   5.100   0.693  11.780
 3488W        W 7232   7.223   1.886  10.530
 3489W        W 7233   3.844   8.796   9.941
 3490W        W 7234   8.064   3.247   0.225
 3491W        W 7235   1.861   7.879   0.767
 3492W        W 7236   5.525   8.818   1.177
 3493W        W 7237   1.295   8.111  11.440
 3494W        W 7238   9.918   4.712   3.416
 3495W        W 7239   2.677   2.971   1.268
 3496W        W 7240   6.515   8.993   1.129
 3497W        W 7241   1.998   3.456   2.793
 3498W        W 7242   8.691   0.526  10.109
 3499W        W 7243   6.615   6.732   1.387
 3500W        W 7244   5.630   9.955  10.086
 3501W        W 7245   8.786   3.635  10.951
 3502W        W 7246  10.018   0.245   0.300
 3503W        W 7247   9.841   8.309   2.863
 3504W        W 7248   3.164   1.346   1.474
 3505W        W 7249   5.671   6.321   3.718
 3506W        W 7250   4.519   7.666   8.081
 3507W        W 7251   2.733   8.099  10.345
 3508W        W 7252   6.706   5.933  11.260
 3509W        W 7253   2.688  10.390   3.553
 3510W        W 7254   1.378  10.083  11.128
 3511W        W 7255   1.881   6.935   2.005
 3512W        W 7256   3.191   4.757   1.675
 3513W        W 7257   7.137   0.222   3.151
 3514W        W 7258   7.923   0.805  10.696
 3515W        W 7259   2.306   2.881   0.448
 3516W        W 7260   3.060   1.870  10.782
 3517W        W 7261   1.349   3.067   3.498
 3518W        W 7262   7.994   3.554   3.356
 3519W        W 7263  10.236   9.424   2.966
 3520W        W 7264   2.933   1.193  10.831
 3521W        W 7265   0.264   4.303   1.911
 3522W        W 7266   9.665  10.321   9.599
 3523W        W 7267   1.336   1.808  10.233
 3524W        W 7268   7.265   7.891   9.629
 3525W        W 7269   4.511   0.838   2.684
 3526W        W 7270   5.755   8.064   1.613
 3527W        W 7271   1.197   4.290  11.924
 3528W        W 7272   3.138   9.916  10.435
 3529W        W 7273   6.584   0.172   1.837
 3530W        W 7274   5.343   0.472   3.520
 3531W        W 7275   5.093   9.989   2.508
 3532W        W 7276   0.600   0.311  11.896
 3533W        W 7277   6.578   4.493  11.098
 3534W        W 7278   0.721   0.409  11.030
 3535W        W 7279   2.923   1.649  10.293
 3536W        W 7280   3.168   7.859   0.938
 3537W        W 7281   2.637   4.250  11.954
 3538W        W 7282   2.275   1.656  11.232
 3539W        W 7283   4.675   9.627   9.084
 3540W        W 7284   3.712   0.326   0.987
 3541W        W 7285   5.006   6.067   0.872
 3542W        W 7286   3.345   2.688  11.767
 3543W        W 7287   0.440   4.008   1.536
 3544W        W 7288   7.585   7.458  10.753
 3545W        W 7289   7.114   6.224  11.068
 3546W        W 7290   8.423   8.953   0.984
 3547W        W 7291   0.608   2.517   3.499
 3548W        W 7292   0.383   7.453  11.839
 3549W        W 7293   3.542   4.970  10.752
 3550W        W 7294   7.116   8.815   9.615
 3551W        W 7295   9.749   4.292   3.146
 3552W        W 7296   3.630   8.507  11.800
 3553W        W 7297   3.992   0.064   2.171
 3554W        W 7298   6.929   7.879   2.091
 3555W        W 7299   1.369   4.973  11.350
 3556W        W 7300   0.339   5.296  11.319
 3557W        W 7301   7.524   3.187   9.683
 3558W        W 7302  10.001   9.101   9.402
 3559W        W 7303   7.127   0.399   1.181
 3560W        W 7304   0.556   1.311   9.008
 3561W        W 7305   5.714   6.436   1.438
 3562W        W 7306   8.861   0.536  10.625
 3563W        W 7307   0.814   7.026  10.087
 3564W        W 7308   4.545   7.645  10.766
 3565W        W 7309   2.360   6.879   8.079
 3566W        W 7310   4.736   6.830   3.159
 3567W        W 7311   2.846   3.179  11.405
 3568W        W 7312  10.335   2.950   1.308
 3569W        W 7313   0.530   7.030   8.924
 3570W        W 7314   9.943   9.516   9.082
 3571W        W 7315   4.272   3.659   2.701
 3572W        W 7316   8.539   6.655   3.434
 3573W        W 7317   0.806   7.788   9.105
 3574W        W 7318   1.918   2.192   9.504
 3575W        W 7319   7.263   9.409   2.765
 3576W        W 7320   1.508   7.950   9.511
 3577W        W 7321   6.714   6.997  10.930
 3578W        W 7322   4.591   0.761  11.808
 3579W        W 7323   1.285   1.032  11.550
 3580W        W 7324   5.206   4.278   9.135
 3581W        W 7325   6.693   7.372  10.001
 3582W        W 7326   3.985   3.115   1.427
 3583W        W 7327   4.725   6.942   2.161
 3584W        W 7328   5.567   2.547  10.451
 3585W        W 7329   6.283   8.712   8.597
 3586W        W 7330   4.029   8.011   8.702
 3587W        W 7331   2.204   6.616   9.213
 3588W        W 7332  10.231   7.981   2.786
 3589W        W 7333   3.111   1.912   3.207
 3590W        W 7334  10.429   0.907  11.766
 3591W        W 7335   7.485  10.096   1.533
 3592W        W 7336   1.163   3.285   2.602
 3593W        W 7337   3.365   6.111   1.876
 3594W        W 7338   0.887   4.694   2.459
 3595W        W 7339   6.060   2.006  11.743
 3596W        W 7340   8.611   9.377   1.281
 3597W        W 7341   6.551   2.301   3.057
 3598W        W 7342   6.934   6.464  11.489
 3599W        W 7343   4.544   1.103   9.236
 3600W        W 7344   0.800   8.461   2.739
 3601W        W 7345  10.237   0.865   3.557
 3602W        W 7346   4.292   9.423  10.612
 3603W        W 7347   0.509   2.883   8.733
 3604W        W 7348   4.194   4.201   3.591
 3605W        W 7349   4.570   9.966   0.478
 3606W        W 7350   2.217   3.771   9.762
 3607W        W 7351   5.594   5.111   9.845
 3608W        W 7352   5.482   9.868  11.063
 3609W        W 7353   9.287   9.031   8.725
 3610W        W 7354   1.427   9.263   0.642
 3611W        W 7355   9.375   8.094  11.957
 3612W        W 7356   1.402   9.947   2.834
 3613W        W 7357   2.474   1.807   0.017
 3614W        W 7358   5.936   7.929   9.967
 3615W        W 7359   0.764  10.215   2.870
 3616W        W 7360   1.255   2.834   2.940
 3617W        W 7361   5.719   3.564   4.252
 3618W        W 7362   0.416   8.958  11.614
 3619W        W 7363   2.642   7.529  11.502
 3620W        W 7364   7.459  10.090  11.265
 3621W        W 7365   1.776   2.820   1.724
 3622W        W 7366   1.720   9.315   9.988
 3623W        W 7367  10.415   6.230   8.639
 3624W        W 7368   2.080   7.087   8.463
 3625W        W 7369  10.033   7.882  10.267
 3626W        W 7370   1.241   3.640  11.563
 3627W        W 7371   7.135   0.180   3.690
 3628W        W 7372   4.006   0.864  10.930
 3629W        W 7373   7.768   6.135  10.458
 3630W        W 7374   7.684   1.987   9.754
 3631W        W 7375   7.870   7.843   3.194
 3632W        W 7376   1.705   5.208  11.875
 3633W        W 7377   5.080   4.090   8.182
 3634W        W 7378   8.082   2.013  11.382
 3635W        W 7379   5.343   4.419   0.689
 3636W        W 7380   8.749   2.611   0.696
 3637W        W 7381   6.857   1.749   9.653
 3638W        W 7382   6.957   4.035  10.487
 3639W        W 7383   1.354   4.338   9.883
 3640W        W 7384   5.304   6.657   8.478
 3641W        W 7385  10.038   2.230  11.213
 3642W        W 7386   2.392   1.297   3.445
 3643W        W 7387   5.773   5.096   2.170
 3644W        W 7388   6.957   0.178   0.746
 3645W        W 7389  10.348   8.987   3.241
 3646W        W 7390   9.954   2.796   2.788
 3647W        W 7391   4.710   3.106  11.579
 3648W        W 7392   2.310   9.948   2.971
 3649W        W 7393  10.272   3.077  10.861
 3650W        W 7394   9.506   1.103  11.932
 3651W        W 7395   4.415   8.893  11.127
 3652W        W 7396   0.904   6.688   2.589
 3653W        W 7397   7.950   4.094   2.170
 3654W        W 7398   6.417   9.029   9.032
 3655W        W 7399   5.222   8.378   8.879
 3656W        W 7400   4.986  10.435   9.733
 3657W        W 7401   4.503   9.589   2.355
 3658W        W 7402   1.128   0.480   0.721
 3659W        W 7403   4.873   0.249  10.577
 3660W        W 7404   3.894   9.871   1.186
 3661W        W 7405   4.189   7.902  10.313
 3662W        W 7406   3.735   1.934  11.505
 3663W        W 7407  10.255   8.421   1.719
 3664W        W 7408   7.615   1.836   1.645
 3665W        W 7409   7.507   9.959  10.753
 3666W        W 7410   8.829   9.011   1.757
 3667W        W 7411   1.805   8.166  11.476
 3668W        W 7412   1.015   5.532   3.246
 3669W        W 7413   9.421   7.870   3.506
 3670W        W 7414   9.401   8.602  11.866
 3671W        W 7415   8.598   4.294  11.779
 3672W        W 7416   3.594  10.353   3.074
 3673W        W 7417   4.191   4.376  11.257
 3674W        W 7418   9.738   1.026   1.842
 3675W        W 7419   7.529   8.961   4.036
 3676W        W 7420   2.595   2.380   0.411
 3677W        W 7421   9.864   9.797  11.717
 3678W        W 7422   4.442   3.608   9.129
 3679W        W 7423   9.352   2.206   2.763
 3680W        W 7424   4.217   6.564   9.922
 3681W        W 7425   0.996   2.388   0.780
 3682W        W 7426   6.263   0.780   1.150
 3683W        W 7427   5.992   5.691  11.375
 3684W        W 7428   4.236   8.909  10.298
 3685W        W 7429   8.509   8.007   1.035
 3686W        W 7430   0.492   5.103   0.125
 3687W        W 7431   7.817   9.376   0.349
 3688W        W 7432   2.661   9.021   3.526
 3689W        W 7433   2.183   1.225   1.179
 3690W        W 7434   9.858   2.273   2.776
 3691W        W 7435   1.802   1.435   1.432
 3692W        W 7436   0.292   4.922  11.679
 3693W        W 7437   8.933   7.982   2.838
 3694W        W 7438   8.942   1.739   9.347
 3695W        W 7439   4.587   9.047   2.345
 3696W        W 7440   8.350   2.377   2.515
 3697W        W 7441   3.614   1.383   0.404
 3698W        W 7442   8.349   6.265   3.735
 3699W        W 7443   1.826   4.814  11.567
 3700W        W 7444   6.740   6.730   9.064
 3701W        W 7445   7.630   0.926   0.724
 3702W        W 7446   8.573   1.451  10.956
 3703W        W 7447   2.079   9.323  10.354
 3704W        W 7448   9.885   4.660   9.918
 3705W        W 7449   3.800   9.139  10.366
 3706W        W 7450   0.695   9.423   2.230
 3707W        W 7451   2.636   2.276  11.900
 3708W        W 7452   2.787   3.071   3.141
 3709W        W 7453   9.954   6.398   1.856
 3710W        W 7454   1.441   3.620   8.685
 3711W        W 7455   9.426   3.956  11.551
 3712W        W 7456   8.306   9.991  10.728
 3713W        W 7457   2.035   4.883   3.694
 3714W        W 7458   0.730   6.539   2.114
 3715W        W 7459   0.641   0.360   1.939
 3716W        W 7460   9.700   4.203   8.794
 3717W        W 7461   0.872   2.750  11.872
 3718W        W 7462   8.104   7.958  11.786
 3719W        W 7463   6.501   8.484  10.873
 3720W        W 7464   3.520   7.559   9.356
 3721W        W 7465   3.287   3.801   2.660
 3722W        W 7466   6.010   6.090  10.018
 3723W        W 7467  10.413   8.173  11.952
 3724W        W 7468   9.785   5.000   0.798
 3725W        W 7469   7.463   4.595  11.025
 3726W        W 7470   5.182   8.367  10.069
 3727W        W 7471  10.321   5.100  10.596
 3728W        W 7472  10.293   7.030   1.193
 3729W        W 7473   7.148   7.230  10.797
 3730W        W 7474   7.634   9.168   9.700
 3731W        W 7475   8.612   9.257   9.574
 3732W        W 7476   9.593   3.468   9.426
 3733W        W 7477   0.030   0.860   9.741
 3734W        W 7478   9.908   9.307   9.906
 3735W        W 7479   9.926   6.115   9.445
 3736W        W 7480   6.917  10.153  11.886
 3737W        W 7481   5.446   9.994   1.725
 3738W        W 7482   5.498   3.320   9.838
 3739W        W 7483   9.556   6.648   1.681
 3740W        W 7484   5.054   8.508  11.543
 3741W        W 7485   3.740  10.477  10.819
 3742W        W 7486   9.354   9.477   0.506
 3743W        W 7487   4.788   8.682   8.866
 3744W        W 7488   9.322  10.309  11.879
 3745W        W 7489   3.738   8.667   1.778
 3746W        W 7490  10.345   5.543   9.965
 3747W        W 7491   1.514   3.608   2.786
 3748W        W 7492   6.597   8.486   1.295
 3749W        W 7493   2.914   7.455   2.315
 3750W        W 7494   3.059   5.071  10.926
 3751W        W 7495   5.255   9.673   0.053
 3752W        W 7496   0.046   3.192   9.937
 3753W        W 7497   9.387   3.287   0.284
 3754W        W 7498   8.913   8.355   1.066
 3755W        W 7499   4.285   6.831   3.424
 3756W        W 7500   9.960   8.826   0.557
 3757W        W 7501   2.422   3.399   0.373
 3758W        W 7502   7.397   2.436   0.943
 3759W        W 7503   6.682   0.297   8.760
 3760W        W 7504   2.631   6.930   8.529
 3761W        W 7505   0.260   3.348   0.328
 3762W        W 7506   9.404   6.217   3.111
 3763W        W 7507   7.613   0.028   9.925
 3764W        W 7508   2.986   6.896   2.941
 3765W        W 7509   1.477   8.218   3.203
 3766W        W 7510   2.793   2.804   0.228
 3767W        W 7511   1.281   9.822   8.592
 3768W        W 7512   5.777   4.237   3.566
 3769W        W 7513   0.204   4.204   2.821
 3770W        W 7514   9.767   5.880  11.029
 3771W        W 7515   5.999  10.404   9.924
 3772W        W 7516   4.221   7.334   0.469
 3773W        W 7517   7.335   9.014   0.209
 3774W        W 7518  10.304   9.469   2.467
 3775W        W 7519   3.259   7.067  11.750
 3776W        W 7520   2.482   7.843  11.860
 3777W        W 7521   5.710   0.712  11.426
 3778W        W 7522   9.165   2.304   3.241
 3779W        W 7523   3.749   3.163  11.172
 3780W        W 7524   4.726   3.181   3.199
 3781W        W 7525   7.387   6.970   1.637
 3782W        W 7526   2.388   9.887   9.585
 3783W        W 7527   8.318   3.763  11.068
 3784W        W 7528   5.652   9.092   0.759
 3785W        W 7529   3.805   9.483   2.874
 3786W        W 7530   1.696   9.479  11.270
 3787W        W 7531   1.803   6.479   2.968
 3788W        W 7532   3.366   7.387   8.913
 3789W        W 7533   0.295   1.643   8.378
 3790W        W 7534   6.543   0.180  11.495
 3791W        W 7535   4.716   4.573  11.197
 3792W        W 7536   8.241   2.648   0.742
 3793W        W 7537   6.190   8.193   1.374
 3794W        W 7538   0.833   9.311  11.546
 3795W        W 7539   5.111   6.050   2.442
 3796W        W 7540   2.693   8.114  10.866
 3797W        W 7541   6.137   4.253   1.231
 3798W        W 7542   4.752   8.563  10.278
 3799W        W 7543   5.604   9.026  10.544
 3800W        W 7544   7.491   0.085  10.415
 3801W        W 7545   4.501   4.735  10.358
 3802W        W 7546   7.126   4.927   3.340
 3803W        W 7547   4.948   7.372   8.121
 3804W        W 7548   7.992   3.183   1.585
 3805W        W 7549   5.465  10.425   9.939
 3806W        W 7550   9.173   6.701   0.132
 3807W        W 7551   9.597   8.964   9.703
 3808W        W 7552   2.213   0.746   9.655
 3809W        W 7553   8.059   6.649  10.253
 3810W        W 7554   5.224   7.094   4.227
 3811W        W 7555   7.357   7.140  10.322
 3812W        W 7556   3.057   6.615  11.767
 3813W        W 7557   0.303   2.912   9.584
 3814W        W 7558   6.219   7.101   3.998
 3815W        W 7559   1.845   6.714   1.537
 3816W        W 7560   1.129   5.263   1.062
 3817W        W 7561   8.721   7.465   3.575
 3818W        W 7562   1.319   7.089  10.651
 3819W        W 7563   8.852  10.295   0.883
 3820W        W 7564   7.033   7.098   8.855
 3821W        W 7565   1.832   4.936   2.336
 3822W        W 7566   4.229   5.205  10.088
 3823W        W 7567   6.191   8.379   2.881
 3824W        W 7568   5.077   3.348   0.363
 3825W        W 7569   3.201   0.995   2.872
 3826W        W 7570  10.441   0.620   1.359
 3827W        W 7571   1.486   7.862   2.446
 3828W        W 7572   6.916   6.282   8.125
 3829W        W 7573   5.943   9.643  11.025
 3830W        W 7574   4.439   1.738   2.799
 3831W        W 7575   8.124   2.767   2.838
 3832W        W 7576   8.589   6.779   0.935
 3833W        W 7577   4.821   1.346   2.098
 3834W        W 7578   9.388  10.144   2.173
 3835W        W 7579   9.994  10.126   0.986
 3836W        W 7580   7.659   8.145   0.033
 3837W        W 7581   3.274   6.011   9.163
 3838W        W 7582   2.282   5.980  11.891
 3839W        W 7583   8.387   7.007  10.428
 3840W        W 7584   0.225   7.159   0.961
 3841W        W 7585   8.536   2.840   9.991
 3842W        W 7586   5.165   6.491   2.157
 3843W        W 7587   1.380   6.894   8.877
 3844W        W 7588   5.656   3.305   2.784
 3845W        W 7589   8.116   6.512   3.167
 3846W        W 7590   4.683   9.857  10.818
 3847W        W 7591   9.005   4.736   1.543
 3848W        W 7592   1.756   2.876   9.991
 3849W        W 7593   7.034   8.963   2.857
 3850W        W 7594   6.128   6.505  10.854
 3851W        W 7595   1.347   3.302   2.146
 3852W        W 7596   7.048   2.743  11.543
 3853W        W 7597   9.840  10.242  11.988
 3854W        W 7598   3.773   7.993   9.518
 3855W        W 7599   3.155   1.430   1.988
 3856W        W 7600   6.482   0.219   0.456
 3857W        W 7601   5.089   1.777  10.754
 3858W        W 7602   2.298   5.562  11.499
 3859W        W 7603   5.367   5.700   8.582
 3860W        W 7604   2.220   7.331   9.730
 3861W        W 7605   6.147   8.083  11.086
 3862W        W 7606   1.967   7.661   9.445
 3863W        W 7607   6.945   3.482   2.555
 3864W        W 7608   1.883   4.523   1.417
 3865W        W 7609   0.346   0.968   2.700
 3866W        W 7610   0.913   5.087   9.943
 3867W        W 7611   0.456   4.827  10.088
 3868W        W 7612   4.641   5.371  11.198
 3869W        W 7613   5.114   3.791   0.136
 3870W        W 7614   4.313   4.607  10.825
 3871W        W 7615   5.601   3.289   2.281
 3872W        W 7616   2.124   9.781  10.556
 3873W        W 7617   7.640   9.603   1.638
 3874W        W 7618   4.093   6.061   1.004
 3875W        W 7619  10.317   1.794  11.465
 3876W        W 7620   8.947   2.871   1.454
 3877W        W 7621   0.585   5.922   1.446
 3878W        W 7622   7.423   0.539   9.458
 3879W        W 7623   8.485   3.891   3.313
 3880W        W 7624   9.075   2.245  11.466
 3881W        W 7625   9.342   4.631  10.130
 3882W        W 7626   1.930   9.060   2.857
 3883W        W 7627   1.800   0.810   9.332
 3884W        W 7628   9.440   1.266  10.918
 3885W        W 7629   8.562   4.602  11.325
 3886W        W 7630   8.509   2.711   8.959
 3887W        W 7631   8.882   1.897   3.265
 3888W        W 7632   7.193   7.921   8.570
 3889W        W 7633   1.965   7.736   2.625
 3890W        W 7634   9.891   0.663   0.987
 3891W        W 7635   1.168   4.033   1.445
 3892W        W 7636   5.730   1.294  10.780
 3893W        W 7637   8.046   7.834  11.257
 3894W        W 7638   2.275   5.242   3.403
 3895W        W 7639   8.000   9.798   9.259
 3896W        W 7640   2.676   8.967  10.974
 3897W        W 7641  10.492   1.857  11.957
 3898W        W 7642   9.413   8.567   2.783
 3899W        W 7643   3.219   4.698   3.600
 3900W        W 7644   9.743   0.845  11.019
 3901W        W 7645   7.152   6.703  10.755
 3902W        W 7646   9.060   0.751   0.767
 3903W        W 7647   9.970   9.981  10.831
 3904W        W 7648   5.248   9.709  10.376
 3905W        W 7649   7.496   8.577   3.200
 3906W        W 7650   5.719   6.455   0.933
 3907W        W 7651   1.390   9.537  10.869
 3908W        W 7652   9.800   3.765   9.807
 3909W        W 7653   7.080   0.075   9.044
 3910W        W 7654   6.471   6.654  11.219
 3911W        W 7655   1.752   6.179  11.847
 3912W        W 7656   5.260   4.469  11.022
 3913W        W 7657   5.682   4.205   2.138
 3914W        W 7658   5.570   5.067   3.124
 3915W        W 7659   1.949   3.225   9.671
 3916W        W 7660   6.152   3.336  11.426
 3917W        W 7661   6.367   7.724   1.264
 3918W        W 7662   5.634   0.268   0.401
 3919W        W 7663   3.278   4.974   4.030
 3920W        W 7664   8.193   6.682   2.218
 3921W        W 7665   1.070   3.524   1.481
 3922W        W 7666   4.822   9.508   3.191
 3923W        W 7667  10.471  10.469  10.215
 3924W        W 7668   9.278   4.060   2.494
 3925W        W 7669   8.385   1.874   2.408
 3926W        W 7670   3.677   4.007   1.381
 3927W        W 7671   1.078   7.096   9.649
 3928W        W 7672   9.677   4.744  10.484
 3929W        W 7673   2.760   1.222   0.780
 3930W        W 7674   2.282   8.301  11.572
 3931W        W 7675   8.037   8.471  11.753
 3932W        W 7676   1.795  10.036   1.632
 3933W        W 7677   6.538   9.346  10.349
 3934W        W 7678   9.631   3.788  10.610
 3935W        W 7679  10.497   0.826  11.236
 3936W        W 7680   1.260   1.400   2.256
 3937W        W 7681   9.424   2.660   1.484
 3938W        W 7682   4.903  10.249   2.968
 3939W        W 7683   4.116   2.698   9.088
 3940W        W 7684   9.414  10.064   2.691
 3941W        W 7685   5.601   6.638   8.933
 3942W        W 7686   8.071   2.885  10.723
 3943W        W 7687   1.780   2.778  11.805
 3944W        W 7688   3.643   0.899   2.649
 3945W        W 7689   8.482   8.928  10.286
 3946W        W 7690   0.274   4.215   9.236
 3947W        W 7691   1.567   1.456   8.892
 3948W        W 7692   4.948   2.237  11.881
 3949W        W 7693   8.600  10.463  10.883
 3950W        W 7694   2.143   1.077  10.065
 3951W        W 7695   0.965   7.001   2.122
 3952W        W 7696   8.055   0.666   1.741
 3953W        W 7697   7.287   6.222  10.352
 3954W        W 7698   9.298   0.756   3.564
 3955W        W 7699  10.464   5.100   9.707
 3956W        W 7700   8.815   5.095  10.495
 3957W        W 7701   9.000   4.548   8.813
 3958W        W 7702   4.900   3.679   8.427
 3959W        W 7703   4.969   5.684   0.295
 3960W        W 7704   2.423   0.334   2.800
 3961W        W 7705   9.769   8.991   3.497
 3962W        W 7706  10.465   8.605  10.098
 3963W        W 7707   6.319  10.334   2.750
 3964W        W 7708   4.253   5.344  10.580
 3965W        W 7709   7.073   3.368  11.230
 3966W        W 7710   1.448   1.669   0.207
 3967W        W 7711   7.429   5.227   9.351
 3968W        W 7712   3.256   0.487   1.292
 3969W        W 7713   1.222   3.667   1.016
 3970W        W 7714   7.064   6.119   9.098
 3971W        W 7715   5.977   2.118   9.121
 3972W        W 7716   9.852   1.840   9.375
 3973W        W 7717   0.869   1.690   2.601
 3974W        W 7718   3.321   9.573  11.803
 3975W        W 7719   6.581   0.505   0.871
 3976W        W 7720   3.357   3.935   3.135
 3977W        W 7721   3.369   5.422   3.239
 3978W        W 7722   7.224   4.116  11.819
 3979W        W 7723   1.221   6.117  11.875
 3980W        W 7724   0.841   9.650   9.490
 3981W        W 7725   7.167   7.499   2.382
 3982W        W 7726   9.382   3.638   1.155
 3983W        W 7727   3.926   9.719   0.702
 3984W        W 7728   5.436   1.624   2.964
 3985W        W 7729   3.286   4.907   0.528
 3986W        W 7730   5.079   4.075  10.750
 3987W        W 7731   8.044   5.383   1.252
 3988W        W 7732   4.511   4.140   9.405
 3989W        W 7733   5.343   9.770  11.554
 3990W        W 7734   7.483   9.617  10.041
 3991W        W 7735   6.875   9.388  10.726
 3992W        W 7736   0.192   6.180   0.824
 3993W        W 7737   2.642   5.655   9.925
 3994W        W 7738   3.169   4.219   1.239
 3995W        W 7739  10.193   6.860   9.359
 3996W        W 7740   9.619   7.429   0.831
 3997W        W 7741   7.068   5.235   0.279
 3998W        W 7742   5.926   0.810   9.947
 3999W        W 7743   8.123   8.445   2.599
 4000W        W 7744   6.598   6.690   2.257
 4001W        W 7745   6.935   4.876   9.931
 4002W        W 7746   3.840   3.082   9.244
 4003W        W 7747   1.735   2.230  11.345
 4004W        W 7748   6.820  10.313   2.535
 4005W        W 7749   1.378  10.384  10.279
 4006W        W 7750   5.956   4.740  10.337
 4007W        W 7751   4.960   7.889   8.271
 4008W        W 7752   8.423   3.594   8.474
 4009W        W 7753  10.290   0.805   8.708
 4010W        W 7754   9.032   2.534   1.840
 4011W        W 7755   2.916   4.586   4.105
 4012W        W 7756   4.674   6.461   2.323
 4013W        W 7757   5.036   7.180   1.345
 4014W        W 7758   0.699   6.181   0.919
 4015W        W 7759   9.533   0.069   0.276
 4016W        W 7760   2.899   3.714  10.543
 4017W        W 7761   3.227   8.316  11.514
 4018W        W 7762   7.872   2.423  10.505
 4019W        W 7763   0.840   1.358   0.914
 4020W        W 7764   9.460   1.857   0.919
 4021W        W 7765   7.176   2.623   2.548
 4022W        W 7766   1.473   8.436   1.046
 4023W        W 7767   3.056   2.527   0.600
 4024W        W 7768   7.566   6.123   2.733
 4025W        W 7769   5.657   1.181   1.327
 4026W        W 7770   7.015   9.651   0.827
 4027W        W 7771   9.533   7.191  10.093
 4028W        W 7772   5.982   6.722   4.263
 4029W        W 7773   4.605   3.227  10.818
 4030W        W 7774  10.062   0.968   1.429
 4031W        W 7775   0.412   8.922   1.552
 4032W        W 7776   2.703   7.922   1.227
 4033W        W 7777  10.335   8.554   0.748
 4034W        W 7778   9.962   5.441   1.777
 4035W        W 7779   6.670   5.282  11.973
 4036W        W 7780   5.062   7.891  10.281
 4037W        W 7781   9.929   4.975  10.897
 4038W        W 7782   9.844   1.444  10.177
 4039W        W 7783   4.245   4.440   9.080
 4040W        W 7784   5.601   9.492  10.708
 4041W        W 7785   4.503   6.006   0.702
 4042W        W 7786   7.644   5.569   3.979
 4043W        W 7787   2.164   0.353   9.994
 4044W        W 7788   6.462   9.996   2.387
 4045W        W 7789   5.222   9.448   0.649
 4046W        W 7790   9.678   9.803  11.225
 4047W        W 7791   7.943   0.298  10.563
 4048W        W 7792   0.806   7.914  11.499
 4049W        W 7793  10.317  10.327   1.959
 4050W        W 7794   5.697   3.585  10.925
 4051W        W 7795   2.311   5.055  11.630
 4052W        W 7796  10.073   5.713   2.194
 4053W        W 7797   4.695   2.761   9.810
 4054W        W 7798   6.073   7.203   3.523
 4055W        W 7799   7.582   6.658  10.457
 4056W        W 7800   1.630   8.649  11.507
 4057W        W 7801   6.001   7.127   1.880
 4058W        W 7802   8.757   1.479   3.506
 4059W        W 7803   4.496   7.937   8.510
 4060W        W 7804   8.446   6.165   9.129
 4061W        W 7805   3.397   4.633   8.647
 4062W        W 7806   8.375   9.258   0.053
 4063W        W 7807   1.341   6.415   2.687
 4064W        W 7808  10.187   4.157   2.865
 4065W        W 7809   7.462   5.829   0.809
 4066W        W 7810  10.468   1.762   2.548
 4067W        W 7811   2.923   2.060   9.479
 4068W        W 7812   0.079   1.577   1.805
 4069W        W 7813   4.055   6.921  10.299
 4070W        W 7814   6.739   4.592   3.272
 4071W        W 7815   7.173   2.647   1.378
 4072W        W 7816   4.861   2.842   2.295
 4073W        W 7817   4.904   9.495   2.670
 4074W        W 7818   5.144   4.688  11.485
 4075W        W 7819   8.980   0.430   1.451
 4076W        W 7820   4.011   7.519   3.061
 4077W        W 7821   1.827   3.252   2.015
 4078W        W 7822   1.683   9.509   2.973
 4079W        W 7823   7.130   7.876  11.469
 4080W        W 7824   1.280   4.261   0.430
 4081W        W 7825   9.367   8.589   8.978
 4082W        W 7826   0.815   3.845  11.778
 4083W        W 7827   0.726   7.101   0.739
 4084W        W 7828   2.988   9.071   3.072
 4085W        W 7829   9.629  10.349   3.372
 4086W        W 7830   1.191   2.873   0.530
 4087W        W 7831   6.945   9.967  11.372
 4088W        W 7832   2.307   3.835   2.658
 4089W        W 7833   4.940   4.218   0.930
 4090W        W 7834   4.645   4.949   9.899
 4091W        W 7835   2.828   1.148   3.245
 4092W        W 7836   8.981   8.414   2.568
 4093W        W 7837   3.299   2.384  10.126
 4094W        W 7838   1.801   6.264  11.311
 4095W        W 7839   4.624   7.623  10.267
 4096W        W 7840   6.486   3.037  10.513
 4097W        W 7841   7.339   1.039   9.407
 4098W        W 7842   7.054   7.471   9.380
 4099W        W 7843   4.083  10.102   0.357
 4100W        W 7844   8.390   1.982  10.957
 4101W        W 7845   5.676   1.133   0.753
 4102W        W 7846   8.183   6.618   1.624
 4103W        W 7847   9.401   3.115  11.257
 4104W        W 7848   0.282   7.820   0.255
 4105W        W 7849   0.298   1.746   8.902
 4106W        W 7850   4.468   1.030  10.995
 4107W        W 7851   7.474   2.767   1.800
 4108W        W 7852   8.338   0.924   9.217
 4109W        W 7853   4.693   3.019   0.114
 4110W        W 7854   5.867   2.392   0.039
 4111W        W 7855   7.380   5.020  11.365
 4112W        W 7856   7.442   3.273   1.899
 4113W        W 7857   1.226   7.466   2.196
 4114W        W 7858   4.181   0.768  10.395
 4115W        W 7859   6.747   1.463  11.946
 4116W        W 7860   2.588   3.875  11.419
 4117W        W 7861   6.956   0.976   0.270
 4118W        W 7862   1.435   8.677  10.470
 4119W        W 7863   8.316   9.811  10.205
 4120W        W 7864   8.047   6.020   0.005
 4121W        W 7865   1.896   8.538  11.077
 4122W        W 7866   9.785   9.855   9.821
 4123W        W 7867   3.788   1.811   9.014
 4124W        W 7868   4.445   8.098   0.092
 4125W        W 7869   5.202   9.436   1.155
 4126W        W 7870   1.291  10.321   9.785
 4127W        W 7871   6.512   3.631   3.206
 4128W        W 7872   2.802   8.552  10.618
 4129W        W 7873   5.542   6.407  11.121
 4130W        W 7874   7.031   8.653   1.100
 4131W        W 7875   5.133   8.959   0.867
 4132W        W 7876  10.157  10.290   1.445
 4133W        W 7877   1.451   9.088   2.682
 4134W        W 7878   4.631   5.456   1.845
 4135W        W 7879   1.254   8.454   8.749
 4136W        W 7880   4.490  10.459  11.410
 4137W        W 7881  10.396   3.635   2.153
 4138W        W 7882   8.073   7.502   9.607
 4139W        W 7883   4.056   6.822  11.531
 4140W        W 7884   7.403   7.575   3.202
 4141W        W 7885  10.058   6.843   2.422
 4142W        W 7886   2.819   4.528  10.479
 4143W        W 7887   6.109   0.202  11.759
 4144W        W 7888   0.459   0.401   2.422
 4145W        W 7889   2.772   5.520   0.753
 4146W        W 7890   4.594  10.328  10.545
 4147W        W 7891   6.155   0.321   8.842
 4148W        W 7892   5.625  10.388   1.449
 4149W        W 7893   6.915   3.800  10.043
 4150W        W 7894   2.742   8.842   2.684
 4151W        W 7895   7.573   5.259   1.388
 4152W        W 7896   2.308   5.654   0.500
 4153W        W 7897   9.412   7.598  11.050
 4154W        W 7898   7.440   9.046   2.452
 4155W        W 7899   8.669   2.406  11.881
 4156W        W 7900   8.861   6.034   9.938
 4157W        W 7901   8.999  10.036   1.786
 4158W        W 7902   3.722   8.091  10.463
 4159W        W 7903   3.288   2.170   0.897
 4160W        W 7904   0.034   2.895   0.828
 4161W        W 7905   0.726   2.933   1.507
 4162W        W 7906   4.142   8.830   9.433
 4163W        W 7907   3.618   8.052   9.038
 4164W        W 7908   1.651   2.269   2.332
 4165W        W 7909   0.290   6.028   3.210
 4166W        W 7910   4.796  10.398  10.992
 4167W        W 7911   0.244   6.074   2.682
 4168W        W 7912   0.843   5.567   9.757
 4169W        W 7913   5.064   6.518   2.652
 4170W        W 7914   1.911   9.891   9.359
 4171W        W 7915   8.014   8.833   9.580
 4172W        W 7916   5.142   1.294  10.026
 4173W        W 7917   4.789   2.033   1.001
 4174W        W 7918   6.633   4.254   2.311
 4175W        W 7919   2.756   0.693   1.480
 4176W        W 7920   3.178   8.654   2.815
 4177W        W 7921   6.136   0.469  11.291
 4178W        W 7922   7.763   0.419  11.015
 4179W        W 7923   2.532   6.971   0.857
 4180W        W 7924  10.003   5.481   8.919
 4181W        W 7925   8.102   3.042  11.727
 4182W        W 7926   5.512   0.808   2.418
 4183W        W 7927   5.550   7.303   0.679
 4184W        W 7928   2.258   8.644   2.815
 4185W        W 7929   3.272   3.715   1.206
 4186W        W 7930   7.232   3.883   8.965
 4187W        W 7931   2.715   8.534   9.697
 4188W        W 7932   6.076   3.842  10.698
 4189W        W 7933   7.636   4.211   3.523
 4190W        W 7934   2.424   4.782   3.150
 4191W        W 7935   0.358   1.246  11.269
 4192W        W 7936   8.003   7.378  11.039
 4193W        W 7937   6.485   5.853  10.388
 4194W        W 7938   0.282   9.522  10.045
 4195W        W 7939   5.045   6.650  11.252
 4196W        W 7940   2.135   5.998   2.813
 4197W        W 7941   9.241   9.039   0.933
 4198W        W 7942   0.063   3.754   9.443
 4199W        W 7943   2.215   3.329   2.348
 4200W        W 7944   7.075   1.184   3.296
 4201W        W 7945   3.216   7.687   2.717
 4202W        W 7946   9.431   5.060   2.323
 4203W        W 7947   8.706   1.761  10.596
 4204W        W 7948   3.177   5.582  11.001
 4205W        W 7949   1.778   0.269   2.588
 4206W        W 7950   9.969   2.738   2.271
 4207W        W 7951   6.741   4.831   1.300
 4208W        W 7952   3.047   8.798  11.470
 4209W        W 7953   8.796   8.901  11.474
 4210W        W 7954   2.141   8.994  10.939
 4211W        W 7955   5.876   7.663   0.545
 4212W        W 7956   8.501   8.111   3.095
 4213W        W 7957   3.628   5.644   0.313
 4214W        W 7958   4.972   6.881   0.890
 4215W        W 7959   2.296   9.380   1.643
 4216W        W 7960   2.596   2.387  11.405
 4217W        W 7961   2.866   5.101   9.852
 4218W        W 7962   8.009   2.355   9.538
 4219W        W 7963   6.725   2.324   9.758
 4220W        W 7964   1.000   8.400   3.224
 4221W        W 7965   8.890   4.630   9.821
 4222W        W 7966   1.907   6.527   0.567
 4223W        W 7967   3.433   8.193   1.844
 4224W        W 7968   4.298  10.308   1.843
 4225W        W 7969   3.365   5.755  10.559
 4226W        W 7970   6.041   1.681  10.278
 4227W        W 7971   1.382   3.723   1.852
 4228W        W 7972   3.426   9.585   0.673
 4229W        W 7973   7.103   6.558   3.307
 4230W        W 7974   5.391   2.073   1.678
 4231W        W 7975   2.111   4.675   0.529
 4232W        W 7976   4.930   1.478   3.402
 4233W        W 7977   9.258   8.493  10.418
 4234W        W 7978   8.560   8.066   1.531
 4235W        W 7979   3.780   3.211   1.895
 4236W        W 7980   0.263   6.439   9.417
 4237W        W 7981   6.016   1.735  10.767
 4238W        W 7982   3.705   4.867   3.138
 4239W        W 7983   2.097   1.326   0.197
 4240W        W 7984   2.747   2.374  10.787
 4241W        W 7985   7.892   1.348   0.461
 4242W        W 7986   6.978   4.187   0.269
 4243W        W 7987   5.628   0.481  11.902
 4244W        W 7988   2.302   6.712   1.293
 4245W        W 7989   9.813   9.283   0.339
 4246W        W 7990   4.077   8.994  10.768
 4247W        W 7991   7.166   1.833   2.955
 4248W        W 7992   7.011   8.404   9.259
 4249W        W 7993   8.861   4.078  11.393
 4250W        W 7994   2.251   4.460  10.331
 4251W        W 7995  10.039   5.539   0.889
 4252W        W 7996   6.928   7.132   1.471
 4253W        W 7997   3.091   5.020   9.361
 4254W        W 7998   8.069   8.903   2.829
 4255W        W 7999   9.171   0.574   2.336
 4256W        W 8000   5.665   0.392   9.215
 4257W        W 8001   2.703   3.599   9.122
 4258W        W 8002   8.948   1.471  10.220
 4259W        W 8003   0.695   9.350   2.740
 4260W        W 8004   7.808   5.034   3.267
 4261W        W 8005   0.783   1.915   1.289
 4262W        W 8006   6.633   8.563   3.186
 4263W        W 8007   7.454   3.446   2.409
 4264W        W 8008  10.491   5.566   0.222
 4265W        W 8009   4.708   5.488   1.342
 4266W        W 8010   3.177   5.121  11.943
 4267W        W 8011   3.314   0.470   9.578
 4268W        W 8012   7.622   4.758  10.317
 4269W        W 8013   4.353   4.915  11.288
 4270W        W 8014   1.632   8.833  10.018
 4271W        W 8015   6.008   6.611  10.325
 4272W        W 8016   4.303   1.753  10.643
 4273W        W 8017   8.477   6.672  10.967
 4274W        W 8018   0.297   8.641   0.003
 4275W        W 8019   7.387  10.486   0.990
 4276W        W 8020   6.584   9.897   9.256
 4277W        W 8021   7.222   0.918   9.999
 4278W        W 8022   6.238   2.855   2.356
 4279W        W 8023   3.723   8.226   0.266
 4280W        W 8024   8.428   3.230   9.203
 4281W        W 8025  10.463   0.313   2.592
 4282W        W 8026   4.015   4.277   9.541
 4283W        W 8027   4.155   3.552   1.728
 4284W        W 8028   6.753   3.716   9.035
 4285W        W 8029   9.596   7.605  11.893
 4286W        W 8030   3.822   2.830   2.270
 4287W        W 8031   0.502   9.299   1.215
 4288W        W 8032   6.224   3.202   3.292
 4289W        W 8033   9.866   4.258  10.502
 4290W        W 8034   7.719   2.738  11.899
 4291W        W 8035   3.605   6.884   2.298
 4292W        W 8036   1.256   8.766   1.803
 4293W        W 8037   4.174   3.973   1.466
 4294W        W 8038   4.124   9.891   2.892
 4295W        W 8039   2.629   5.947  10.853
 4296W        W 8040   8.449   0.541   2.684
 4297W        W 8041   5.727   0.343   1.681
 4298W        W 8042   1.002   7.497  10.775
 4299W        W 8043   6.646   0.448   3.053
 4300W        W 8044   6.121   8.163   3.667
 4301W        W 8045   2.859   8.786   0.811
 4302W        W 8046   2.210   7.651   3.612
 4303W        W 8047   5.970   7.202   0.346
 4304W        W 8048   6.683   9.687   3.391
 4305W        W 8049   4.279   9.928  10.489
 4306W        W 8050   9.389   7.782   8.990
 4307W        W 8051   4.220   3.088  11.751
 4308W        W 8052   6.466   4.063   1.846
 4309W        W 8053   6.255   7.909  11.592
 4310W        W 8054   3.231   0.190   3.185
 4311W        W 8055   4.226   8.113  11.308
 4312W        W 8056   1.343   5.795  10.475
 4313W        W 8057   5.842   1.903   1.461
 4314W        W 8058   2.132   5.142  10.772
 4315W        W 8059   7.956   2.289   0.442
 4316W        W 8060   5.707   9.331   3.629
 4317W        W 8061   8.489   2.757   1.679
 4318W        W 8062   4.123  10.419  11.945
 4319W        W 8063   8.765   6.602  11.800
 4320W        W 8064   6.936   0.442   0.278
 4321W        W 8065   0.393   1.479   2.684
 4322W        W 8066   0.230   6.011   9.015
 4323W        W 8067   2.781   0.332   1.063
 4324W        W 8068   3.878   3.897   0.498
 4325W        W 8069   2.978   7.905  11.720
 4326W        W 8070   3.962   8.284  10.034
 4327W        W 8071   2.722   6.889  10.731
 4328W        W 8072   4.096   0.079   9.948
 4329W        W 8073   3.756   9.544   8.993
 4330W        W 8074   2.774   8.055   0.198
 4331W        W 8075   4.668   2.037   9.516
 4332W        W 8076   5.993   5.006   0.939
 4333W        W 8077   2.655   6.608  11.427
 4334W        W 8078   6.605   0.253   2.597
 4335W        W 8079   2.652   2.272   9.073
 4336W        W 8080   0.399   1.724   2.211
 4337W        W 8081   9.814   7.966   0.205
 4338W        W 8082   2.639   8.016  11.367
 4339W        W 8083   9.895   7.958   3.252
 4340W        W 8084   4.452   2.386  11.040
 4341W        W 8085  10.426   8.953   1.763
 4342W        W 8086   2.773   5.889   3.915
 4343W        W 8087   8.857   8.763   0.757
 4344W        W 8088   4.057   7.995   2.906
 4345W        W 8089   5.684   6.229   1.899
 4346W        W 8090  10.482   6.553  10.150
 4347W        W 8091   9.870   3.653   2.176
 4348W        W 8092   3.857   5.081   9.773
 4349W        W 8093   0.806   4.166   9.077
 4350W        W 8094   3.302   8.931   1.936
 4351W        W 8095   8.565   6.672   9.075
 4352W        W 8096   9.419   9.378  11.018
 4353W        W 8097   6.023  10.017   0.340
 4354W        W 8098   3.168  10.453  11.893
 4355W        W 8099   9.782   7.434   8.938
 4356W        W 8100   6.033   9.344   9.161
 4357W        W 8101   1.950   1.780   0.037
 4358W        W 8102   2.541   8.555   1.870
 4359W        W 8103   7.598   5.666  10.344
 4360W        W 8104   5.154   5.237  10.065
 4361W        W 8105  10.322   0.926   0.956
 4362W        W 8106   8.102   3.155   0.718
 4363W        W 8107   9.117   8.605   0.308
 4364W        W 8108   3.607   4.219   2.739
 4365W        W 8109   0.518   1.331   1.363
 4366W        W 8110   0.994   6.188  10.352
 4367W        W 8111   9.344   4.938  11.400
 4368W        W 8112   0.896   9.615   1.785
 4369W        W 8113   0.450   9.815   3.145
 4370W        W 8114   2.756   4.720  11.749
 4371W        W 8115   5.247   7.672   0.502
 4372W        W 8116   9.348   9.542   1.020
 4373W        W 8117   2.791   3.650   9.613
 4374W        W 8118   1.751   2.938   1.234
 4375W        W 8119   1.375   2.694   0.993
 4376W        W 8120   4.650   0.082   9.041
 4377W        W 8121   9.834   3.546   0.223
 4378W        W 8122   2.788   7.220   1.842
 4379W        W 8123   1.157   2.834  11.221
 4380W        W 8124   1.839   9.548   1.479
 4381W        W 8125   7.622   2.303   1.381
 4382W        W 8126   4.943   2.230  10.971
 4383W        W 8127  10.259   8.072   0.933
 4384W        W 8128   8.357   7.125   3.614
 4385W        W 8129   5.928   3.942   0.269
 4386W        W 8130   7.493   8.447   0.966
 4387W        W 8131   3.715   4.514   3.569
 4388W        W 8132   9.031   5.510  10.754
 4389W        W 8133   0.546   5.762  11.533
 4390W        W 8134   6.089   2.865   0.171
 4391W        W 8135   1.624   4.139  10.267
 4392W        W 8136   4.335   2.211   1.888
 4393W        W 8137   3.397  10.069   9.542
 4394W        W 8138   3.827   2.637   1.406
 4395W        W 8139   9.675   0.176  11.763
 4396W        W 8140   9.903   8.815   3.031
 4397W        W 8141   5.504   7.235   1.950
 4398W        W 8142   2.109   3.965  10.227
 4399W        W 8143   7.986   5.615   0.335
 4400W        W 8144   2.340   7.866  10.601
 4401W        W 8145   2.280   5.543  10.469
 4402W        W 8146   8.599   5.777   2.218
 4403W        W 8147   4.951   0.712   2.929
 4404W        W 8148   0.456   2.215   3.099
 4405W        W 8149   8.170   4.741   0.669
 4406W        W 8150   3.679   1.449   1.991
 4407W        W 8151   0.881   0.023   3.494
 4408W        W 8152   8.116   8.489   2.104
 4409W        W 8153   2.853   4.516   2.414
 4410W        W 8154   0.755   3.112   0.285
 4411W        W 8155   2.807   3.793   2.842
 4412W        W 8156   9.511   9.027   2.303
 4413W        W 8157   8.680   6.722   2.374
 4414W        W 8158   6.431   4.138   9.186
 4415W        W 8159   7.248   9.225   8.750
 4416W        W 8160   9.949   5.108   9.648
 4417W        W 8161   3.191  10.467   2.696
 4418W        W 8162   6.889   5.509   2.554
 4419W        W 8163   3.628   1.333   2.966
 4420W        W 8164   3.822   9.031   9.047
 4421W        W 8165   6.978   3.155   1.717
 4422W        W 8166   0.799   8.936   9.891
 4423W        W 8167   3.427   3.141  11.551
 4424W        W 8168   4.039   7.525   1.795
 4425W        W 8169   0.325   6.613   1.811
 4426W        W 8170   9.391   4.406  11.351
 4427W        W 8171   3.197   5.412   0.457
 4428W        W 8172   6.210   3.936   3.519
 4429W        W 8173   4.718   7.079   0.139
 4430W        W 8174   4.707   3.502  11.960
 4431W        W 8175   5.624   1.760   9.012
 4432W        W 8176   8.887   4.736   3.400
 4433W        W 8177   1.393   5.225   9.820
 4434W        W 8178   8.381   3.261   9.727
 4435W        W 8179   7.942   9.113  11.067
 4436W        W 8180   0.812   1.210   2.791
 4437W        W 8181   3.321   8.840   9.275
 4438W        W 8182   7.562   2.021   0.670
 4439W        W 8183   7.529   8.299   8.538
 4440W        W 8184   7.449   7.881   0.434
 4441W        W 8185   8.508   6.502  10.452
 4442W        W 8186   0.676   6.844   9.414
 4443W        W 8187   5.649   5.068   9.332
 4444W        W 8188   5.881   1.224   3.178
 4445W        W 8189   5.067   0.824   8.729
 4446W        W 8190   5.605  10.490   3.486
 4447W        W 8191   5.939   7.336   0.989
 4448W        W 8192   1.229  10.013   1.846
 4449W        W 8193   6.892   5.157   2.930
 4450W        W 8194   7.942   9.737   9.807
 4451W        W 8195   6.391   6.955   0.513
 4452W        W 8196   9.523   9.981   8.945
 4453W        W 8197   9.799   4.686  11.429
 4454W        W 8198   5.854   2.688   3.329
 4455W        W 8199   4.644  10.085   8.872
 4456W        W 8200   4.411   3.649   8.622
 4457W        W 8201   8.968   6.625   3.143
 4458W        W 8202   4.677   6.875   2.661
 4459W        W 8203   2.666   7.568   3.360
 4460W        W 8204   5.644   0.788   0.336
 4461W        W 8205   3.318   5.946   4.067
 4462W        W 8206   9.697   5.689   1.391
 4463W        W 8207   1.781   4.616  10.212
 4464W        W 8208   9.182   9.808  11.170
 4465W        W 8209   7.935   8.939   2.321
 4466W        W 8210   7.012   2.181   9.337
 4467W        W 8211   4.796   1.773   0.513
 4468W        W 8212   4.788   7.338   2.945
 4469W        W 8213   1.370   1.266   9.377
 4470W        W 8214   9.870   0.040   1.788
 4471W        W 8215  10.276   5.065   8.716
 4472W        W 8216   7.626   6.586   9.541
 4473W        W 8217   2.197   2.228   0.129
 4474W        W 8218   8.477   2.900   0.334
 4475W        W 8219   8.307   6.535   0.580
 4476W        W 8220   5.612   5.659   2.738
 4477W        W 8221   5.173   4.363  10.347
 4478W        W 8222   6.453   2.161   8.920
 4479W        W 8223   3.275   9.111   0.780
 4480W        W 8224   4.330   3.394  10.395
 4481W        W 8225   4.883   1.537   1.192
 4482W        W 8226   7.535   1.830  11.801
 4483W        W 8227   8.085   4.009   3.612
 4484W        W 8228   3.645   2.718   9.528
 4485W        W 8229   2.782   4.322  11.443
 4486W        W 8230   9.395   1.822   9.091
 4487W        W 8231   3.422   4.441   4.003
 4488W        W 8232   9.271   3.284  10.340
 4489W        W 8233   7.768   3.240  10.981
 4490W        W 8234   1.376   5.576   1.957
 4491W        W 8235   1.878   8.180   2.296
 4492W        W 8236   7.915   3.715  10.784
 4493W        W 8237   5.283   4.659   2.689
 4494W        W 8238   1.852   7.093   0.046
 4495W        W 8239   6.915   1.293   1.258
 4496W        W 8240   5.441   7.425  11.684
 4497W        W 8241   1.747   4.614   9.186
 4498W        W 8242   8.639   4.198  10.015
 4499W        W 8243   5.149   8.010  11.355
 4500W        W 8244  10.208   6.699   2.912
 4501W        W 8245   4.714  10.223   1.213
 4502W        W 8246  10.240   7.260   2.165
 4503W        W 8247   4.617   3.253   0.570
 4504W        W 8248   1.870   4.714   2.829
 4505W        W 8249   0.230   7.500   3.288
 4506W        W 8250   3.942   9.918  11.898
 4507W        W 8251   8.097   8.250   1.661
 4508W        W 8252   9.374   7.145   8.727
 4509W        W 8253   3.153   0.927   9.445
 4510W        W 8254   1.972   3.267   0.549
 4511W        W 8255   5.915   2.114   9.634
 4512W        W 8256   5.238   7.537   8.527
 4513W        W 8257   6.772   8.884  11.457
 4514W        W 8258   9.062   3.247   3.528
 4515W        W 8259  10.092   2.201   1.143
 4516W        W 8260   1.283   7.102   0.879
 4517W        W 8261   8.623   2.170   8.785
 4518W        W 8262   7.306   2.245   1.769
 4519W        W 8263   8.542   0.220   1.275
 4520W        W 8264  10.371   0.863   9.199
 4521W        W 8265   0.832   2.971   3.632
 4522W        W 8266   9.848   6.610   3.361
 4523W        W 8267   3.821   5.671   2.693
 4524W        W 8268   8.487  10.222   1.835
 4525W        W 8269   8.621   4.163  10.935
 4526W        W 8270   4.154   9.859   8.872
 4527W        W 8271   1.158   2.295   2.206
 4528W        W 8272   6.904   7.600   8.891
 4529W        W 8273   1.447   3.116   9.583
 4530W        W 8274   2.806  10.414  11.072
 4531W        W 8275   8.233   5.971  10.438
 4532W        W 8276   6.629   1.556   1.728
 4533W        W 8277   3.806   8.611  10.433
 4534W        W 8278   4.362   0.016   0.817
 4535W        W 8279   2.471   7.658  11.032
 4536W        W 8280   3.216   2.987   2.899
 4537W        W 8281   1.779   0.197   2.091
 4538W        W 8282   8.528   6.100   8.599
 4539W        W 8283   7.510   2.160   0.192
 4540W        W 8284   6.941   7.445  11.707
 4541W        W 8285   3.291   6.507   9.967
 4542W        W 8286   6.048   3.792  11.748
 4543W        W 8287   2.099   4.793  11.154
 4544W        W 8288   2.422   5.091   1.913
 4545W        W 8289   3.231   7.906  10.375
 4546W        W 8290   0.736   7.908   0.525
 4547W        W 8291  10.244   6.970  10.326
 4548W        W 8292   2.020   5.024   9.472
 4549W        W 8293   4.646   5.056   1.099
 4550W        W 8294   2.321   0.708  11.514
 4551W        W 8295   4.090   9.149   2.523
 4552W        W 8296   7.143   9.320   9.768
 4553W        W 8297   9.862   6.083   3.418
 4554W        W 8298   9.701  10.451   9.087
 4555W        W 8299   7.441   7.450   8.942
 4556W        W 8300   5.711   4.166  11.856
 4557W        W 8301   6.589   7.599   3.179
 4558W        W 8302  10.095   5.615  11.313
 4559W        W 8303   8.969   8.873   2.821
 4560W        W 8304   2.370   3.657  10.548
 4561W        W 8305   5.646   0.335   2.251
 4562W        W 8306   0.240  10.442  11.712
 4563W        W 8307  10.352   1.744   3.563
 4564W        W 8308   0.290   0.114   0.707
 4565W        W 8309   3.287   3.817   1.701
 4566W        W 8310   7.123   9.017  10.462
 4567W        W 8311   7.369   7.149   1.140
 4568W        W 8312   4.589   6.212   2.756
 4569W        W 8313   8.675   6.968  11.391
 4570W        W 8314   5.980   8.608  11.041
 4571W        W 8315   1.272   3.179   1.150
 4572W        W 8316   8.205   9.399   2.250
 4573W        W 8317   6.485   4.068   0.339
 4574W        W 8318   3.148   9.813   1.871
 4575W        W 8319   2.641   7.668   9.055
 4576W        W 8320   0.715   4.341  11.719
 4577W        W 8321   4.225   9.087  11.590
 4578W        W 8322   7.968   7.549   9.094
 4579W        W 8323   3.309   1.256  11.969
 4580W        W 8324   8.162   6.678   8.744
 4581W        W 8325   3.554   1.432  11.544
 4582W        W 8326   3.927   9.616  10.284
 4583W        W 8327   1.672   2.759  11.298
 4584W        W 8328   5.386   9.571   2.495
 4585W        W 8329   9.220  10.322   9.263
 4586W        W 8330   7.282   8.491   0.288
 4587W        W 8331   8.033  10.096   0.840
 4588W        W 8332   9.523   2.813  10.384
 4589W        W 8333   5.113   0.358  10.122
 4590W        W 8334   7.357   8.538   2.298
 4591W        W 8335   7.155   5.039   2.504
 4592W        W 8336   3.132  10.446  10.457
 4593W        W 8337   2.443   3.306   9.786
 4594W        W 8338   2.452   5.547   2.746
 4595W        W 8339   7.861   5.497   3.532
 4596W        W 8340  10.360   6.622   3.400
 4597W        W 8341   7.774   8.771  11.407
 4598W        W 8342   7.870   3.154   2.609
 4599W        W 8343   2.313   0.226   0.356
 4600W        W 8344   0.800   3.966   0.693
 4601W        W 8345   3.863   4.088  10.022
 4602W        W 8346   1.345   6.507  11.539
 4603W        W 8347   6.697   2.314   1.222
 4604W        W 8348   1.239   1.544  11.699
 4605W        W 8349   2.240  10.022   3.479
 4606W        W 8350   9.497   7.061   0.477
 4607W        W 8351   1.317   2.336   1.724
 4608W        W 8352  10.424   9.292   0.413
 4609W        W 8353   0.131   1.762   3.066
 4610W        W 8354   4.657   3.600  11.469
 4611W        W 8355   5.085   1.751   9.768
 4612W        W 8356   7.697   3.593   1.592
 4613W        W 8357   1.163   0.584  11.904
 4614W        W 8358   5.409   7.958   9.101
 4615W        W 8359   9.512   2.293   8.893
 4616W        W 8360   2.277   6.736   3.387
 4617W        W 8361   2.739   7.055  11.650
 4618W        W 8362   6.123   6.575   2.396
 4619W        W 8363   4.449   4.367   0.192
 4620W        W 8364   6.900   0.698   2.642
 4621W        W 8365   5.230   3.027   1.629
 4622W        W 8366   1.312   2.372   2.716
 4623W        W 8367   0.159   5.186   0.550
 4624W        W 8368   7.040   2.689   9.514
 4625W        W 8369   3.609   6.380   3.113
 4626W        W 8370   0.085   7.976   9.429
 4627W        W 8371   1.450   8.857   1.346
 4628W        W 8372   1.671   4.051   0.165
 4629W        W 8373   6.685   7.489  10.763
 4630W        W 8374  10.045   2.664   8.880
 4631W        W 8375  10.058  10.016   8.813
 4632W        W 8376   8.976   9.625  10.313
 4633W        W 8377   3.689   3.145   0.971
 4634W        W 8378   0.856   4.087   9.958
 4635W        W 8379   2.309   4.298  11.241
 4636W        W 8380   1.890   6.390   1.122
 4637W        W 8381   9.078   5.028   1.953
 4638W        W 8382   0.754   1.380  11.578
 4639W        W 8383   3.267   9.267   9.016
 4640W        W 8384   5.408   7.583  11.199
 4641W        W 8385   6.972   2.361  11.190
 4642W        W 8386   5.398   8.547   2.431
 4643W        W 8387   9.346  10.289  11.333
 4644W        W 8388   3.767   1.362   2.471
 4645W        W 8389   5.357   3.628   8.157
 4646W        W 8390   6.592   9.525   2.420
 4647W        W 8391   2.878   3.213   2.109
 4648W        W 8392   5.711   8.807   3.564
 4649W        W 8393   8.547   6.087  11.311
 4650W        W 8394   1.021   1.341   0.422
 4651W        W 8395  10.438   9.734   0.169
 4652W        W 8396   0.210   1.112  10.265
 4653W        W 8397   3.963   6.649   1.977
 4654W        W 8398   3.415   5.180   1.934
 4655W        W 8399   2.767   7.210  10.323
 4656W        W 8400   6.258   1.782   1.134
 4657W        W 8401   6.647   9.083   3.239
 4658W        W 8402   4.101   9.165   0.175
 4659W        W 8403   2.345   1.241   9.580
 4660W        W 8404   4.291   0.334  11.705
 4661W        W 8405   7.451   4.966   4.050
 4662W        W 8406   7.810  10.256   9.073
 4663W        W 8407   0.677   6.799   0.307
 4664W        W 8408   8.058   6.127  11.508
 4665W        W 8409   6.232   7.003  11.966
 4666W        W 8410   7.177   1.405  10.286
 4667W        W 8411   0.804   2.606   0.346
 4668W        W 8412   0.933   4.808  10.452
 4669W        W 8413   9.415   8.972  10.664
 4670W        W 8414   6.060   2.872  11.240
 4671W        W 8415   3.194   1.870   2.665
 4672W        W 8416   6.444   5.467  11.296
 4673W        W 8417   3.898   3.161  10.277
 4674W        W 8418   2.856   8.280   0.894
 4675W        W 8419   4.545   3.180   8.439
 4676W        W 8420   4.579   4.085   8.389
 4677W        W 8421   7.982   6.064  11.000
 4678W        W 8422   8.223   7.448  11.906
 4679W        W 8423   8.154   1.178   9.636
 4680W        W 8424   9.359   6.297   2.474
 4681W        W 8425   7.425   3.589   9.366
 4682W        W 8426   1.208   8.908   9.070
 4683W        W 8427   0.710   4.351  11.215
 4684W        W 8428   8.362   8.951   2.022
 4685W        W 8429   7.851   0.905   0.239
 4686W        W 8430  10.457   7.083   2.638
 4687W        W 8431   4.007   1.659   0.811
 4688W        W 8432   4.389   3.964   4.017
 4689W        W 8433   8.695   9.955   0.523
 4690W        W 8434   9.445   3.282   8.957
 4691W        W 8435   0.199   1.437   0.287
 4692W        W 8436   8.404   4.790   1.176
 4693W        W 8437   3.226   9.343   1.641
 4694W        W 8438   2.523   9.055   8.570
 4695W        W 8439   5.145   6.981   2.853
 4696W        W 8440   9.562   1.044   9.462
 4697W        W 8441   4.092   8.717  11.944
 4698W        W 8442   7.618   3.036  11.455
 4699W        W 8443   6.343   6.917   1.008
 4700W        W 8444   5.264   8.046   1.771
 4701W        W 8445   0.049   6.868   2.185
 4702W        W 8446   9.693   5.942   0.938
 4703W        W 8447   3.675   4.343  11.520
 4704W        W 8448   9.866   3.874  11.826
 4705W        W 8449   4.633   2.676   8.304
 4706W        W 8450   7.708   5.400   9.934
 4707W        W 8451   7.621   7.892  11.573
 4708W        W 8452   8.378  10.229  11.323
 4709W        W 8453   0.929   2.085  10.991
 4710W        W 8454   7.566   6.055   1.742
 4711W        W 8455   4.881   8.187   1.354
 4712W        W 8456   4.052   1.593   3.152
 4713W        W 8457   1.640   0.319  11.720
 4714W        W 8458   4.204   5.772   1.843
 4715W        W 8459   7.486   1.766  10.981
 4716W        W 8460   7.725   6.329   9.991
 4717W        W 8461   7.082   3.302   8.408
 4718W        W 8462   3.706   6.029   9.928
 4719W        W 8463   1.365   2.914  10.324
 4720W        W 8464   2.382   8.370   0.059
 4721W        W 8465   8.129   7.634   0.813
 4722W        W 8466   3.597   6.388   2.242
 4723W        W 8467   2.685   6.503   3.138
 4724W        W 8468   5.281   0.419  11.385
 4725W        W 8469   0.378   8.393   2.412
 4726W        W 8470   3.743   2.337  10.853
 4727W        W 8471   5.094   8.459   1.993
 4728W        W 8472   5.225   0.396   2.551
 4729W        W 8473   4.190   5.620   9.775
 4730W        W 8474   3.762   5.431  10.648
 4731W        W 8475   0.412   2.971   2.711
 4732W        W 8476   9.296   4.368   2.914
 4733W        W 8477   2.226   6.237   3.259
 4734W        W 8478   8.992   4.571  11.589
 4735W        W 8479   7.039   5.198  11.042
 4736W        W 8480   7.991   5.507  11.823
 4737W        W 8481   2.637   9.965  11.409
 4738W        W 8482  10.050  10.338   3.666
 4739W        W 8483   9.013   9.882   9.049
 4740W        W 8484   4.669  10.062   2.214
 4741W        W 8485   5.553   9.379  11.239
 4742W        W 8486   3.151   8.646  10.969
 4743W        W 8487   9.566   6.578   0.646
 4744W        W 8488   2.645  10.451  10.562
 4745W        W 8489   2.117   2.575   1.112
 4746W        W 8490   6.926   1.393   2.822
 4747W        W 8491   8.415   9.385   1.759
 4748W        W 8492   4.773   4.487  10.004
 4749W        W 8493   9.394   7.936   1.488
 4750W        W 8494   3.553   7.955   9.967
 4751W        W 8495   5.959   4.175   1.704
 4752W        W 8496   9.867   2.991  11.568
 4753W        W 8497   6.881   3.224  10.783
 4754W        W 8498   8.904   9.967   8.553
 4755W        W 8499  10.397   6.073  10.307
 4756W        W 8500   2.267   0.319   0.900
 4757W        W 8501   0.705   6.007  11.950
 4758W        W 8502   6.010   5.209  11.132
 4759W        W 8503  10.303   3.637   9.877
 4760W        W 8504   5.755   8.943  11.460
 4761W        W 8505   9.908   6.426  10.032
 4762W        W 8506   4.890   1.182  11.755
 4763W        W 8507   9.914   4.390  11.894
 4764W        W 8508   8.797   7.265   9.431
 4765W        W 8509   4.715   0.329   0.551
 4766W        W 8510   7.411   5.319   3.056
 4767W        W 8511   3.925  10.086   9.583
 4768W        W 8512   8.751   0.922  10.962
 4769W        W 8513   1.400   5.542   1.406
 4770W        W 8514   6.649   1.503   0.842
 4771W        W 8515   0.969   7.686   1.381
 4772W        W 8516  10.288   7.515  11.428
 4773W        W 8517   3.661   9.964   2.676
 4774W        W 8518   5.914   2.425   0.888
 4775W        W 8519   2.167   4.044  11.667
 4776W        W 8520   3.146   8.105   1.414
 4777W        W 8521   1.309   2.822   2.443
 4778W        W 8522   7.071   8.440   2.916
 4779W        W 8523   2.223   3.048   0.969
 4780W        W 8524   7.880   9.939   0.296
 4781W        W 8525   7.005   8.591  10.168
 4782W        W 8526   6.137   8.847   0.778
 4783W        W 8527   9.424   3.775   8.754
 4784W        W 8528   3.215   3.621   2.168
 4785W        W 8529   8.512   9.752  11.925
 4786W        W 8530   5.674   8.538  10.428
 4787W        W 8531   9.103   9.314   2.509
 4788W        W 8532   2.558   0.950  11.923
 4789W        W 8533   1.198  10.216   3.220
 4790W        W 8534   5.620   5.978   2.336
 4791W        W 8535   1.486   8.160  10.545
 4792W        W 8536   9.496   4.565   1.477
 4793W        W 8537   5.940   8.441   2.329
 4794W        W 8538   5.867   8.895   0.339
 4795W        W 8539   4.293   1.885   0.455
 4796W        W 8540   6.072   9.838   9.121
 4797W        W 8541   8.836   1.240   0.850
 4798W        W 8542   4.648   4.997   2.127
 4799W        W 8543   6.704   1.142  10.558
 4800W        W 8544   3.365   3.178   9.073
 4801W        W 8545   8.158   9.335   8.792
 4802W        W 8546   3.756   2.316  10.326
 4803W        W 8547   7.400   7.070   2.156
 4804W        W 8548   8.963   3.706   3.344
 4805W        W 8549   5.063   9.470  11.237
 4806W        W 8550   7.403  10.301   8.245
 4807W        W 8551   0.765   3.829   1.186
 4808W        W 8552   5.461   6.886  10.118
 4809W        W 8553   2.951   7.700  11.095
 4810W        W 8554   9.863   0.315   9.516
 4811W        W 8555   6.798   3.706   0.130
 4812W        W 8556   5.024   7.388   1.855
 4813W        W 8557   9.377   6.056   3.601
 4814W        W 8558   7.462   9.776   2.485
 4815W        W 8559  10.134   8.449  11.403
 4816W        W 8560   5.501   2.181   9.328
 4817W        W 8561   3.323   5.518   2.396
 4818W        W 8562   1.466   4.646   3.165
 4819W        W 8563   7.736   5.649   9.486
 4820W        W 8564   0.711   8.311  10.358
 4821W        W 8565  10.279   1.148   0.405
 4822W        W 8566   4.740   9.619   0.129
 4823W        W 8567   8.937   6.473  10.178
 4824W        W 8568   0.228  10.177   0.953
 4825W        W 8569   6.382   2.711   8.999
 4826W        W 8570   4.970   6.627  11.770
 4827W        W 8571   2.575   7.672   9.572
 4828W        W 8572   5.574   0.791   9.537
 4829W        W 8573   9.996   7.397  10.985
 4830W        W 8574   6.787   4.227   8.816
 4831W        W 8575  10.358   9.559  11.676
 4832W        W 8576   3.082   8.073   3.153
 4833W        W 8577   8.498   9.764   8.815
 4834W        W 8578   3.219   5.497  11.515
 4835W        W 8579   0.559   7.658   2.674
 4836W        W 8580   9.377   5.360   2.733
 4837W        W 8581   3.377   9.430  10.434
 4838W        W 8582   7.823   2.042   8.428
 4839W        W 8583   5.472   6.705  11.543
 4840W        W 8584   6.911   6.988   9.469
 4841W        W 8585   0.385   1.591   0.922
 4842W        W 8586  10.230   0.657   1.822
 4843W        W 8587   1.910   8.633   1.298
 4844W        W 8588   3.051   5.187   3.608
 4845W        W 8589   3.817   1.873  10.583
 4846W        W 8590   0.872   9.438  10.871
 4847W        W 8591   0.146   0.437   9.997
 4848W        W 8592   4.286   1.700  11.984
 4849W        W 8593   5.439   7.781   9.964
 4850W        W 8594   0.407   8.750  10.473
 4851W        W 8595   7.123   5.961  11.558
 4852W        W 8596   0.349   9.483  10.848
 4853W        W 8597   3.616   0.812   3.151
 4854W        W 8598   0.126   8.337   1.346
 4855W        W 8599   4.161   5.544  11.050
 4856W        W 8600   9.853   1.781   3.490
 4857W        W 8601   7.614   2.755  10.872
 4858W        W 8602   5.575   3.133   0.705
 4859W        W 8603   3.249   2.992   0.722
 4860W        W 8604   3.614   4.880  11.749
 4861W        W 8605   2.374   9.510   3.314
 4862W        W 8606   5.702   3.426  10.302
 4863W        W 8607   0.813   9.729  11.841
 4864W        W 8608   8.531   2.868  11.007
 4865W        W 8609   4.827   2.548   0.251
 4866W        W 8610   9.961   3.808   3.139
 4867W        W 8611   5.407   1.292   3.378
 4868W        W 8612   4.184   5.000   2.995
 4869W        W 8613   3.628   8.141   2.625
 4870W        W 8614   0.851  10.444   9.050
 4871W        W 8615   7.461   0.952   2.034
 4872W        W 8616   9.379   8.772   3.242
 4873W        W 8617  10.165   9.875  11.316
 4874W        W 8618   0.488   3.927   9.645
 4875W        W 8619   1.275   1.411   2.763
 4876W        W 8620   0.987   7.525   0.915
 4877W        W 8621   5.622   3.832  11.451
 4878W        W 8622   7.063   8.321   0.716
 4879W        W 8623   3.843   0.369   0.001
 4880W        W 8624   6.025   0.208  10.390
 4881W        W 8625   6.309   5.136   1.330
 4882W        W 8626   7.898   2.371  11.035
 4883W        W 8627   8.904   0.957  10.329
 4884W        W 8628   3.610   5.260   0.727
 4885W        W 8629   3.743   7.904  10.956
 4886W        W 8630   4.948   9.361   2.183
 4887W        W 8631   1.095   4.097   9.509
 4888W        W 8632   4.225   9.298   2.054
 4889W        W 8633   6.515   6.515   0.268
 4890W        W 8634   7.020   3.027  10.336
 4891W        W 8635   3.117  10.279   0.366
 4892W        W 8636   4.929   4.224   0.375
 4893W        W 8637   5.183  10.445   9.234
 4894W        W 8638   0.840   2.451   1.288
 4895W        W 8639   0.507   3.467  11.429
 4896W        W 8640   2.450   9.065   3.043
 4897W        W 8641   0.661   2.191   2.255
 4898W        W 8642   5.416   0.308   1.253
 4899W        W 8643   0.165   2.249   9.848
 4900W        W 8644   0.106   3.060   3.420
 4901W        W 8645   6.279   4.747  10.743
 4902W        W 8646   4.378   5.369  11.643
 4903W        W 8647   2.402   0.261   1.413
 4904W        W 8648   3.796   2.166   0.874
 4905W        W 8649   2.880   8.533   0.349
 4906W        W 8650   6.566   3.240   2.335
 4907W        W 8651   2.313   7.898   1.581
 4908W        W 8652   9.687   7.491   3.263
 4909W        W 8653   8.106   5.489  10.262
 4910W        W 8654   2.429   2.167   3.310
 4911W        W 8655   1.910   1.141   2.977
 4912W        W 8656   4.416   0.302  10.315
 4913W        W 8657   9.400   6.240   1.965
 4914W        W 8658   4.804   1.755  11.991
 4915W        W 8659   9.164   9.918   0.724
 4916W        W 8660   6.419   7.235   1.386
 4917W        W 8661   3.789   5.662   0.955
 4918W        W 8662   8.379   5.682  11.027
 4919W        W 8663   6.645   8.769   9.415
 4920W        W 8664   0.497   3.096  11.849
 4921W        W 8665   3.739   6.475   0.938
 4922W        W 8666   0.900   5.817  11.161
 4923W        W 8667   9.470   3.036   3.301
 4924W        W 8668   7.598   4.521   1.801
 4925W        W 8669   9.578   0.630   9.808
 4926W        W 8670   0.308   8.998  10.024
 4927W        W 8671   7.576   8.496  10.931
 4928W        W 8672   1.841   5.454   9.179
 4929W        W 8673   1.804   3.653   2.343
 4930W        W 8674   5.207   0.187  11.839
 4931W        W 8675   1.890   5.579   2.682
 4932W        W 8676   7.650   6.983  11.422
 4933W        W 8677   8.384   1.864   3.338
 4934W        W 8678  10.350   5.160  11.117
 4935W        W 8679   2.331   7.341  10.628
 4936W        W 8680   8.977   1.918   1.713
 4937W        W 8681   5.998   3.305  11.913
 4938W        W 8682   7.158   2.125   1.266
 4939W        W 8683   4.564   2.227   9.022
 4940W        W 8684   6.123  10.374  11.338
 4941W        W 8685   2.634  10.215   2.126
 4942W        W 8686   3.351   7.861  11.338
 4943W        W 8687   4.341   6.279   1.971
 4944W        W 8688   1.504   7.909   3.628
 4945W        W 8689   9.851   0.885   9.050
 4946W        W 8690   4.590   8.858   0.834
 4947W        W 8691   2.785   8.379  11.750
 4948W        W 8692   7.960   0.220   1.975
 4949W        W 8693   3.168   5.720   3.616
 4950W        W 8694   0.244   6.698   2.878
 4951W        W 8695   7.314   2.603   9.090
 4952W        W 8696   5.483   3.900   3.950
 4953W        W 8697   1.908   0.386   1.292
 4954W        W 8698   4.279   6.371  11.477
 4955W        W 8699   9.073   2.683  11.755
 4956W        W 8700   0.506   4.657   9.091
 4957W        W 8701   0.040   7.498   0.605
 4958W        W 8702   7.725   1.611  11.397
 4959W        W 8703   3.515   4.883   9.073
 4960W        W 8704   8.889   1.356   3.011
 4961W        W 8705   1.869   3.380   8.881
 4962W        W 8706   2.674   0.771   9.460
 4963W        W 8707   7.119   9.807   3.101
 4964W        W 8708   4.190  10.353   1.307
 4965W        W 8709   8.354   0.503   2.185
 4966W        W 8710   2.357   7.253   2.166
 4967W        W 8711   9.242   6.521  11.625
 4968W        W 8712  10.414   8.878  11.377
 4969W        W 8713   4.098   0.804  11.858
 4970W        W 8714   2.281   3.805   2.142
 4971W        W 8715   3.098   5.731   8.753
 4972W        W 8716   0.482   5.942   9.483
 4973W        W 8717   0.771   6.613   3.425
 4974W        W 8718   5.644   2.372   1.331
 4975W        W 8719   2.113   0.274   9.061
 4976W        W 8720   8.987   9.948   0.049
 4977W        W 8721   0.936   6.612   9.811
 4978W        W 8722  10.473   6.583   1.055
 4979W        W 8723   9.455   4.632  11.841
 4980W        W 8724   5.936   6.063  11.041
 4981W        W 8725   6.609   5.034   1.729
 4982W        W 8726   8.501   7.917  11.464
 4983W        W 8727   5.684   0.197   2.783
 4984W        W 8728   6.181   1.662   3.282
 4985W        W 8729   0.643   3.089   3.178
 4986W        W 8730   6.585  10.233  10.607
 4987W        W 8731   5.549   3.833   9.944
 4988W        W 8732   9.882   8.221   2.364
 4989W        W 8733   5.975   6.408   2.867
 4990W        W 8734   5.222  10.358   1.062
 4991W        W 8735   5.575   1.759  11.026
 4992W        W 8736   5.273   8.889   8.845
 4993W        W 8737   8.294   0.507  10.924
 4994W        W 8738   5.084   8.844   9.872
 4995W        W 8739   8.849   1.869  11.146
 4996W        W 8740   3.241  10.055   2.349
 4997W        W 8741   9.572   0.996  10.473
 4998W        W 8742   1.695   7.196   1.413
 4999W        W 8743   5.724   7.568   8.348
 5000W        W 8744   4.706   4.100  11.394
 5001W        W 8745   1.231  10.235   1.377
 5002W        W 8746   3.485  10.447   0.727
 5003W        W 8747   6.572   9.088   2.648
 5004W        W 8748   5.906  10.341   3.085
 5005W        W 8749   4.846   8.318   8.528
 5006W        W 8750   2.652   1.571   1.782
 5007W        W 8751   1.883   2.604   0.259
 5008W        W 8752   1.720   8.911   0.884
 5009W        W 8753   2.229   8.488   9.869
 5010W        W 8754   7.566   6.024  11.306
 5011W        W 8755   8.912   3.750  10.064
 5012W        W 8756   0.870   6.544  10.707
 5013W        W 8757   5.189   8.513   3.325
 5014W        W 8758   4.569   3.274   2.280
 5015W        W 8759   7.648   6.489   8.543
 5016W        W 8760   0.277   4.248  10.943
 5017W        W 8761   0.428   3.414   9.586
 5018W        W 8762   5.508   8.526  11.319
 5019W        W 8763   5.301   1.147   2.032
 5020W        W 8764   6.447   6.818   3.630
 5021W        W 8765   4.250   3.858   3.211
 5022W        W 8766   5.240   1.877  11.732
 5023W        W 8767   1.771   8.183   2.795
 5024W        W 8768   6.440   7.823   9.065
 5025W        W 8769   8.870   5.264   2.802
 5026W        W 8770  10.312   8.821  10.527
 5027W        W 8771   0.555   9.815   0.759
 5028W        W 8772   1.200  10.431   2.696
 5029W        W 8773   7.935   2.499  11.518
 5030W        W 8774   5.120   7.747   2.192
 5031W        W 8775   2.787   6.385   9.421
 5032W        W 8776   2.880   0.349   2.489
 5033W        W 8777   7.420   2.163   2.594
 5034W        W 8778   5.125   9.385   9.007
 5035W        W 8779   1.349   4.853   8.875
 5036W        W 8780   9.432   3.862   2.066
 5037W        W 8781   1.369   7.604  10.333
 5038W        W 8782   9.461   8.541  10.892
 5039W        W 8783   5.107   3.021   9.914
 5040W        W 8784   9.780   5.015   8.949
 5041W        W 8785   0.686   4.389   9.520
 5042W        W 8786   7.831   0.892   9.358
 5043W        W 8787   8.921   8.001   0.724
 5044W        W 8788   9.881   1.346  11.687
 5045W        W 8789   0.019   7.821  10.372
 5046W        W 8790   3.114   1.475   2.980
 5047W        W 8791   8.628   8.706  11.024
 5048W        W 8792  10.427   7.658  11.923
 5049W        W 8793   4.265   7.252  11.954
 5050W        W 8794   5.352   2.393   0.140
 5051W        W 8795   0.270   2.551  11.295
 5052W        W 8796   6.211   8.365   0.902
 5053W        W 8797   6.973   6.872   1.946
 5054W        W 8798   4.792   1.313   0.251
 5055W        W 8799   3.242   8.204   0.049
 5056W        W 8800   0.455   4.654   3.045
 5057W        W 8801   4.765   0.256   1.062
 5058W        W 8802   2.157   0.677  11.031
 5059W        W 8803   9.796   3.135   0.556
 5060W        W 8804   0.541   8.861   2.570
 5061W        W 8805   6.136   2.417   0.438
 5062W        W 8806   2.629   9.097  11.501
 5063W        W 8807   5.703   6.350   0.429
 5064W        W 8808   0.195   7.923  10.864
 5065W        W 8809   0.947   9.933  10.896
 5066W        W 8810   6.156   9.381   2.668
 5067W        W 8811   6.980   6.991   3.000
 5068W        W 8812  10.310   6.258  11.750
 5069W        W 8813   3.259   7.351  11.278
 5070W        W 8814   1.705   1.255   2.509
 5071W        W 8815   0.399   2.687   2.223
 5072W        W 8816   7.437   0.433   0.769
 5073W        W 8817  10.035   7.379   2.618
 5074W        W 8818   8.899   3.826   1.232
 5075W        W 8819   6.950   9.571   8.991
 5076W        W 8820   1.208   0.421  10.909
 5077W        W 8821   6.718   4.182   3.590
 5078W        W 8822   9.818   6.671  10.478
 5079W        W 8823   9.787   3.179   2.498
 5080W        W 8824   1.889   9.463   0.834
 5081W        W 8825   9.987   2.727  10.599
 5082W        W 8826   0.906  10.474  10.078
 5083W        W 8827   6.130   0.112   3.460
 5084W        W 8828   9.362   8.063   0.481
 5085W        W 8829   1.797  10.237  10.037
 5086W        W 8830   3.091   4.960  10.411
 5087W        W 8831   2.569   9.438  10.241
 5088W        W 8832   3.638   4.113  10.506
 5089W        W 8833   2.399   8.595   0.951
 5090W        W 8834   6.108   3.914   2.183
 5091W        W 8835   3.205   8.114  10.912
 5092W        W 8836  10.141   9.465   3.467
 5093W        W 8837   3.701   1.361   8.741
 5094W        W 8838   5.993   5.501   2.415
 5095W        W 8839   5.991   3.248   1.428
 5096W        W 8840   4.111   6.084  11.088
 5097W        W 8841   4.733   8.952  11.517
 5098W        W 8842   2.155   4.441   9.452
 5099W        W 8843   7.436   3.731   8.505
 5100W        W 8844   4.739   7.413   2.366
 5101W        W 8845   8.384   5.548   2.643
 5102W        W 8846   5.035   8.853  11.918
 5103W        W 8847   7.085   3.190   9.403
 5104W        W 8848   0.381   8.025   3.330
 5105W        W 8849   4.356   2.776  11.374
 5106W        W 8850   9.884   3.185   1.480
 5107W        W 8851   3.779   3.614   3.381
 5108W        W 8852   2.976   9.801   0.775
 5109W        W 8853   2.514   4.883   9.522
 5110W        W 8854   2.717   1.276   2.244
 5111W        W 8855   6.191   1.367  11.061
 5112W        W 8856   2.611   3.239  10.332
 5113W        W 8857   4.346   7.502   8.948
 5114W        W 8858   6.545   7.369   3.669
 5115W        W 8859   1.339   6.057   2.169
 5116W        W 8860   9.223   5.953  10.315
 5117W        W 8861   5.096   9.464   1.663
 5118W        W 8862   3.838   1.196   3.441
 5119W        W 8863   3.659   9.633   9.490
 5120W        W 8864   9.676   0.477   2.358
 5121W        W 8865   5.175   2.316  11.405
 5122W        W 8866   1.951   1.708   1.014
 5123W        W 8867   7.094   9.443   2.292
 5124W        W 8868   9.251  10.386   8.739
 5125W        W 8869   5.096   5.611   1.658
 5126W        W 8870   1.483   7.146   9.343
 5127W        W 8871   8.878   0.896   0.324
 5128W        W 8872   9.408   7.569   9.675
 5129W        W 8873   9.086   0.907   1.248
 5130W        W 8874   6.570   6.210   1.347
 5131W        W 8875   0.849   4.825  11.823
 5132W        W 8876   6.585   3.564  11.232
 5133W        W 8877   8.835   7.200   1.143
 5134W        W 8878   6.454   8.405  11.368
 5135W        W 8879   4.303   0.413   8.745
 5136W        W 8880   9.381   3.653  11.948
 5137W        W 8881   2.452   0.906   0.494
 5138W        W 8882   1.239   0.023   2.187
 5139W        W 8883   8.259  10.490   9.283
 5140W        W 8884   8.211   1.400   2.703
 5141W        W 8885   4.090   7.525   8.501
 5142W        W 8886   2.395   6.499  10.597
 5143W        W 8887   5.739   6.523   9.897
 5144W        W 8888   3.322   6.452   0.608
 5145W        W 8889   4.720   1.145   9.760
 5146W        W 8890   6.706   6.467  10.786
 5147W        W 8891   2.285   6.946  10.971
 5148W        W 8892   3.600   7.679   0.258
 5149W        W 8893   5.196   4.174  11.769
 5150W        W 8894   0.458   7.033   3.291
 5151W        W 8895   6.555   0.709  11.493
 5152W        W 8896   2.740   5.553   0.260
 5153W        W 8897   3.777   0.572   8.794
 5154W        W 8898   4.603   7.833   1.073
 5155W        W 8899   8.594   2.899  11.817
 5156W        W 8900   8.978   7.288   8.399
 5157W        W 8901   4.586   6.287   9.451
 5158W        W 8902  10.057  10.273   9.970
 5159W        W 8903   1.926   5.261  11.340
 5160W        W 8904  10.083   3.998   0.871
 5161W        W 8905   8.033   5.901   1.894
 5162W        W 8906   1.992   0.016   1.657
 5163W        W 8907   6.166   0.743   1.650
 5164W        W 8908   4.317   7.194   2.501
 5165W        W 8909   2.181   1.103   2.361
 5166W        W 8910   7.693   5.992   8.439
 5167W        W 8911   7.667   4.614   0.276
 5168W        W 8912   2.728   8.135   8.875
 5169W        W 8913   6.935   5.880   1.444
 5170W        W 8914   9.073   9.433   9.311
 5171W        W 8915   7.471   2.584   0.459
 5172W        W 8916   5.559   1.175   2.768
 5173W        W 8917   0.164   6.097  10.772
 5174W        W 8918   4.186   2.411  10.615
 5175W        W 8919   3.204  10.102   3.463
 5176W        W 8920   6.088   7.851   9.445
 5177W        W 8921   1.438   7.565   0.635
 5178W        W 8922   8.153   6.982  11.328
 5179W        W 8923   5.164   2.695  11.760
 5180W        W 8924   0.385   3.606  11.898
 5181W        W 8925   4.598   7.528   3.860
 5182W        W 8926   8.969   2.679   2.347
 5183W        W 8927   2.716   5.451  10.777
 5184W        W 8928   6.955   2.620   3.027
 5185W        W 8929   0.346   7.973  11.756
 5186W        W 8930  10.251   1.675   0.399
 5187W        W 8931   1.388   6.249   1.185
 5188W        W 8932   2.454   3.768   0.012
 5189W        W 8933   2.686   3.209   0.811
 5190W        W 8934   8.526   8.130   2.044
 5191W        W 8935   6.541   0.443   9.239
 5192W        W 8936   3.095   3.133  11.920
 5193W        W 8937   2.381   2.978  11.520
 5194W        W 8938   0.302   2.339   0.196
 5195W        W 8939   4.869   8.837   0.412
 5196W        W 8940   6.684   7.728   2.499
 5197W        W 8941   4.783   0.815  11.333
 5198W        W 8942   1.933   1.377  10.897
 5199W        W 8943   9.571   4.210  10.926
 5200W        W 8944   3.754   1.877  10.059
 5201W        W 8945   0.950  10.287  10.541
 5202W        W 8946   7.448   1.332   1.202
 5203W        W 8947   5.129   8.808  10.545
 5204W        W 8948   5.801   8.447   8.623
 5205W        W 8949   8.151   0.889   0.708
 5206W        W 8950   4.548   4.277   3.197
 5207W        W 8951   8.451  10.010   2.495
 5208W        W 8952  10.407   8.801   0.306
 5209W        W 8953   1.891   9.024   2.292
 5210W        W 8954   5.741   6.909  11.917
 5211W        W 8955   4.641   2.327   1.492
 5212W        W 8956   5.132   4.796   9.786
 5213W        W 8957   3.375   8.887  10.306
 5214W        W 8958   2.906   0.965   9.894
 5215W        W 8959   6.971   3.754  11.550
 5216W        W 8960   1.368   2.463   8.831
 5217W        W 8961   3.740   7.087   1.807
 5218W        W 8962  10.354   9.931   0.670
 5219W        W 8963   2.683  10.360   1.252
 5220W        W 8964   3.629   9.652   2.005
 5221W        W 8965   5.472   4.603  11.891
 5222W        W 8966   1.658   4.095   2.139
 5223W        W 8967  10.451   5.549   1.869
 5224W        W 8968   0.448   7.164   9.784
 5225W        W 8969   2.451   7.418   8.635
 5226W        W 8970   2.620   4.963  10.692
 5227W        W 8971   5.332   0.324   9.633
 5228W        W 8972   0.764   8.790  10.850
 5229W        W 8973   9.499   0.969   2.467
 5230W        W 8974   4.271   0.400   9.264
 5231W        W 8975   9.761   1.823   1.956
 5232W        W 8976   8.090   6.638   1.082
 5233W        W 8977   6.553   6.710  11.725
 5234W        W 8978   0.521   5.552   8.834
 5235W        W 8979   3.274   1.991   0.402
 5236W        W 8980   5.443   8.891  10.993
 5237W        W 8981   0.939   8.954   8.635
 5238W        W 8982   9.324   8.940  11.506
 5239W        W 8983   6.109   0.877   0.663
 5240W        W 8984   6.125   6.615   1.731
 5241W        W 8985   1.194   1.776   9.336
 5242W        W 8986   5.475   8.011   8.584
 5243W        W 8987   4.794   3.152   1.831
 5244W        W 8988   0.024   1.310   9.001
 5245W        W 8989   2.897   5.739   2.610
 5246W        W 8990   9.395   7.039   1.943
 5247W        W 8991   0.064   7.573   2.790
 5248W        W 8992   0.340   0.011   2.725
 5249W        W 8993   2.421   8.957  10.486
 5250W        W 8994   9.615   9.437   9.487
 5251W        W 8995   7.685   7.962   9.337
 5252W        W 8996   6.385   3.901   8.711
 5253W        W 8997   8.851   2.375  10.097
 5254W        W 8998   2.935   3.743   0.189
 5255W        W 8999   3.481   2.998   1.404
 5256W        W 9000   7.580   0.046   3.376
 5257W        W 9001   1.323   3.795   3.212
 5258W        W 9002   8.715   0.872   9.551
 5259W        W 9003   4.619   5.955   2.276
 5260W        W 9004   2.695   5.353   9.453
 5261W        W 9005   6.477   1.796  10.992
 5262W        W 9006   5.673   9.976  10.600
 5263W        W 9007   1.690   9.903   2.127
 5264W        W 9008   4.232   5.278   2.079
 5265W        W 9009   5.543   8.871  10.074
 5266W        W 9010   5.416   7.136   8.251
 5267W        W 9011   5.535   8.899  11.921
 5268W        W 9012   3.075   4.252   1.867
 5269W        W 9013   1.675   5.997   3.035
 5270W        W 9014   3.009   7.440   9.383
 5271W        W 9015   3.599   6.111   3.616
 5272W        W 9016   9.424   8.911   1.404
 5273W        W 9017   0.325  10.257   9.515
 5274W        W 9018   1.479   7.379   2.636
 5275W        W 9019   8.827   2.216   2.677
 5276W        W 9020   6.591   1.086   2.515
 5277W        W 9021   6.184  10.178   9.482
 5278W        W 9022   8.338   9.045  10.752
 5279W        W 9023   0.576   8.224   0.144
 5280W        W 9024   2.314   1.687   1.371
 5281W        W 9025  10.492   6.734   0.090
 5282W        W 9026   4.337   6.077   0.237
 5283W        W 9027   2.921   9.894   9.525
 5284W        W 9028   7.001   5.814   2.162
 5285W        W 9029   9.066   5.080  10.042
 5286W        W 9030  10.284   4.857   0.854
 5287W        W 9031   2.519   9.933   0.977
 5288W        W 9032   4.286   2.092   0.941
 5289W        W 9033   0.804   1.852   8.890
 5290W        W 9034   6.485   3.233   1.509
 5291W        W 9035   5.301   3.331   8.575
 5292W        W 9036   5.459   9.873   3.796
 5293W        W 9037   5.105   9.009   1.453
 5294W        W 9038   5.213   2.868   3.908
 5295W        W 9039   7.933   1.809   0.259
 5296W        W 9040   7.861   6.372   2.018
 5297W        W 9041   1.651   6.039  10.857
 5298W        W 9042   0.296   0.886   8.886
 5299W        W 9043   5.772   2.866   1.099
 5300W        W 9044   8.653   5.613   8.390
 5301W        W 9045   0.549   5.495   0.456
 5302W        W 9046   7.504   4.710   3.598
 5303W        W 9047   7.967   5.714   0.862
 5304W        W 9048   7.894   2.319   0.964
 5305W        W 9049   0.294  10.378  11.186
 5306W        W 9050   8.182   5.867   3.361
 5307W        W 9051   7.011   8.074  10.422
 5308W        W 9052   7.946  10.256   1.742
 5309W        W 9053   6.118  10.387   0.684
 5310W        W 9054   7.319   4.527   9.985
 5311W        W 9055   3.554   2.629   0.963
 5312W        W 9056   4.727   2.265   3.396
 5313W        W 9057   3.907   3.949   2.409
 5314W        W 9058   2.346   7.040  10.112
 5315W        W 9059   7.451  10.060   9.766
 5316W        W 9060   1.344   1.876   2.502
 5317W        W 9061   5.783   4.650   1.897
 5318W        W 9062   9.496   2.655  11.470
 5319W        W 9063   3.180   3.495   0.741
 5320W        W 9064   9.518   3.875   2.903
 5321W        W 9065   5.725   4.642   2.409
 5322W        W 9066   0.495   3.827   2.585
 5323W        W 9067   4.147   7.318  11.470
 5324W        W 9068   8.413   4.303   2.319
 5325W        W 9069   0.012   5.691   0.701
 5326W        W 9070   0.903   0.141   9.584
 5327W        W 9071   8.488   5.731  10.063
 5328W        W 9072  10.489   2.618  10.432
 5329W        W 9073   5.629   1.503   1.767
 5330W        W 9074   8.907   6.481   8.715
 5331W        W 9075   7.914   4.927   1.089
 5332W        W 9076   7.500   4.426   4.014
 5333W        W 9077   3.774   5.408   2.213
 5334W        W 9078  10.298   1.385  11.959
 5335W        W 9079   8.982   8.393   2.054
 5336W        W 9080   5.555   3.934   9.065
 5337W        W 9081   8.075   9.361   1.345
 5338W        W 9082   8.919   4.192   9.545
 5339W        W 9083   9.049   8.589   9.949
 5340W        W 9084   3.763   3.106   8.729
 5341W        W 9085   7.022   6.938   2.477
 5342W        W 9086   5.454  10.051   8.616
 5343W        W 9087   7.652   9.268  11.446
 5344W        W 9088   9.217   7.000   1.464
 5345W        W 9089   0.158   5.068   2.891
 5346W        W 9090   6.752   6.554   9.774
 5347W        W 9091   9.768   9.312   3.119
 5348W        W 9092   9.564   6.947   2.607
 5349W        W 9093   4.212   6.371  10.634
 5350W        W 9094   3.784   0.506   1.991
 5351W        W 9095   5.845   3.262   8.551
 5352W        W 9096   8.543   4.315   0.299
 5353W        W 9097   8.589   5.196  10.936
 5354W        W 9098   0.253   5.098   9.283
 5355W        W 9099   5.520   6.173   9.231
 5356W        W 9100   9.310   0.088   2.498
 5357W        W 9101   7.140   8.948   1.483
 5358W        W 9102   9.421   4.696   3.294
 5359W        W 9103   5.055   6.011  10.584
 5360W        W 9104   1.396   4.616   1.661
 5361W        W 9105   9.195  10.483   1.229
 5362W        W 9106   0.264   3.184   1.422
 5363W        W 9107   6.996   0.701  11.832
 5364W        W 9108   0.284   3.652   1.196
 5365W        W 9109   0.893   6.524  11.912
 5366W        W 9110   0.503   3.572   0.743
 5367W        W 9111   0.568   9.629  11.271
 5368W        W 9112   3.323   1.805   9.266
 5369W        W 9113   1.424  10.477  10.771
 5370W        W 9114   4.954   1.945   1.471
 5371W        W 9115   4.896   8.061   3.200
 5372W        W 9116   3.196   2.291   9.112
 5373W        W 9117   5.410   5.614  10.495
 5374W        W 9118  10.386   3.993   1.305
 5375W        W 9119   7.584   5.324   0.885
 5376W        W 9120   1.984   6.381  10.272
 5377W        W 9121   6.982   4.712  10.882
 5378W        W 9122   0.779  10.037   1.539
 5379W        W 9123   5.635   3.620   9.470
 5380W        W 9124  10.317   0.360  11.397
 5381W        W 9125   6.478   1.124   1.478
 5382W        W 9126   3.695   8.547   9.483
 5383W        W 9127   6.439   0.927  11.008
 5384W        W 9128   0.968   1.858   0.810
 5385W        W 9129   1.293   2.695   9.831
 5386W        W 9130   6.162   6.429   0.697
 5387W        W 9131   2.791   6.522   1.212
 5388W        W 9132   3.004   3.190   3.603
 5389W        W 9133  10.358   1.296  11.447
 5390W        W 9134   9.170   6.214   0.477
 5391W        W 9135  10.074   1.068   3.090
 5392W        W 9136   8.555   5.220  10.067
 5393W        W 9137   3.740   7.385  11.025
 5394W        W 9138   7.996   0.881  11.747
 5395W        W 9139   8.872   4.054   2.147
 5396W        W 9140   7.979  10.224   3.197
 5397W        W 9141   3.605  10.439   9.802
 5398W        W 9142   0.891   7.204  11.999
 5399W        W 9143   7.444   8.375   9.560
 5400W        W 9144   3.673   4.588   9.770
 5401W        W 9145   9.022   1.365  11.196
 5402W        W 9146   7.645   8.635   2.711
 5403W        W 9147   1.890   6.866   0.974
 5404W        W 9148   3.837   0.372  10.326
 5405W        W 9149   9.129   4.005  10.968
 5406W        W 9150   9.815   9.635  10.287
 5407W        W 9151   5.046   6.024   2.954
 5408W        W 9152   3.713   9.199   0.519
 5409W        W 9153   8.479   7.938   0.466
 5410W        W 9154   9.744   4.725   9.412
 5411W        W 9155   7.508   2.455   2.198
 5412W        W 9156   7.810   4.381  11.335
 5413W        W 9157   8.451   4.781   2.126
 5414W        W 9158   8.921   1.816   2.314
 5415W        W 9159   1.587   4.188   9.440
 5416W        W 9160   5.545   5.363   1.766
 5417W        W 9161   5.433   4.141   0.274
 5418W        W 9162   8.980   1.290  10.693
 5419W        W 9163   3.082   6.872  11.268
 5420W        W 9164   9.764   7.781   2.791
 5421W        W 9165   4.128   3.549   1.183
 5422W        W 9166   1.330   4.817  10.127
 5423W        W 9167   2.353   9.202   0.250
 5424W        W 9168   5.675   2.713   0.417
 5425W        W 9169   3.115   5.182   0.942
 5426W        W 9170   8.776   6.313   0.814
 5427W        W 9171   7.643  10.057   2.852
 5428W        W 9172   1.833   5.459   9.685
 5429W        W 9173   8.744   8.333   3.567
 5430W        W 9174   9.201   0.288  11.944
 5431W        W 9175   4.174   1.263   2.773
 5432W        W 9176   0.725   9.988   0.282
 5433W        W 9177   7.882   0.492   0.523
 5434W        W 9178   1.854  10.409  11.019
 5435W        W 9179   0.417   2.465   2.671
 5436W        W 9180   4.303   5.525   0.939
 5437W        W 9181   5.517   8.858   9.575
 5438W        W 9182   5.619   5.435   8.965
 5439W        W 9183   3.413   4.090   2.266
 5440W        W 9184   6.668   7.942  11.266
 5441W        W 9185   7.786   5.201  10.507
 5442W        W 9186   3.255   9.514   1.156
 5443W        W 9187   1.668   0.224  10.020
 5444W        W 9188   4.941   5.773  11.398
 5445W        W 9189   6.475   8.091   3.297
 5446W        W 9190   2.329   4.637   1.661
 5447W        W 9191   9.986   0.966   0.010
 5448W        W 9192   4.975   7.582  11.584
 5449W        W 9193   5.382   1.675   1.328
 5450W        W 9194   2.826   3.390   1.572
 5451W        W 9195   1.403   0.382  10.435
 5452W        W 9196   4.675   8.083  10.543
 5453W        W 9197   1.610   3.022   0.242
 5454W        W 9198   5.563   8.314  10.865
 5455W        W 9199   7.626   7.402   1.699
 5456W        W 9200   2.715   8.440   2.367
 5457W        W 9201   1.805   2.205   0.975
 5458W        W 9202   3.396   3.825   0.383
 5459W        W 9203   8.504   2.298   9.274
 5460W        W 9204   1.622   1.337  11.320
 5461W        W 9205   3.590   1.897   3.013
 5462W        W 9206   1.159   9.515  10.417
 5463W        W 9207   1.788   0.182   8.618
 5464W        W 9208   0.182   9.218  10.467
 5465W        W 9209   3.900  10.442   2.666
 5466W        W 9210   4.400   7.640   2.745
 5467W        W 9211   0.706   3.314   1.155
 5468W        W 9212   3.650   5.708   1.737
 5469W        W 9213   4.100   9.353   9.359
 5470W        W 9214   4.064   7.509  10.627
 5471W        W 9215   1.902   1.373   3.423
 5472W        W 9216   5.074   9.996   3.415
 5473W        W 9217   0.218   7.387   2.312
 5474W        W 9218   1.804   5.444   2.182
 5475W        W 9219   4.672   0.632   9.049
 5476W        W 9220   0.473   3.877   3.092
 5477W        W 9221   4.318   5.142   9.562
 5478W        W 9222   1.870   2.896   8.352
 5479W        W 9223   8.179   5.043  11.801
 5480W        W 9224   8.067   8.639   0.761
 5481W        W 9225   3.242   7.382  10.342
 5482W        W 9226   7.048   0.718   3.135
 5483W        W 9227   0.709   3.084  10.920
 5484W        W 9228  10.477   9.436   1.982
 5485W        W 9229   6.140   9.110   3.425
 5486W        W 9230   1.097   0.428   9.172
 5487W        W 9231   6.174   6.196   2.038
 5488W        W 9232   4.105   9.700   3.357
 5489W        W 9233   7.030   4.586   3.753
 5490W        W 9234   9.260   3.391   9.818
 5491W        W 9235   4.575   4.152  10.897
 5492W        W 9236   5.045   2.388   9.504
 5493W        W 9237   1.219   4.228  11.023
 5494W        W 9238   8.679   6.985   8.687
 5495W        W 9239   9.335   0.852   8.916
 5496W        W 9240   8.911   1.720   8.838
 5497W        W 9241   5.074   6.110   9.553
 5498W        W 9242   6.124   1.959   0.234
 5499W        W 9243   0.861   6.342   2.984
 5500W        W 9244   4.218   3.608  11.735
 5501W        W 9245   3.283   6.187   8.564
 5502W        W 9246   0.681   8.891   9.099
 5503W        W 9247   6.295   1.412   8.403
 5504W        W 9248   4.574   9.261   0.457
 5505W        W 9249   0.965   1.746   0.101
 5506W        W 9250  10.382   4.481   2.539
 5507W        W 9251   8.625   7.563   0.830
 5508W        W 9252   9.385   1.519   9.529
 5509W        W 9253   9.887   1.347  11.183
 5510W        W 9254   4.293   3.127   2.755
 5511W        W 9255   2.879   2.160  10.343
 5512W        W 9256   4.272   5.230   1.406
 5513W        W 9257   7.618   8.807   0.575
 5514W        W 9258   4.768   1.711  10.365
 5515W        W 9259   6.172   7.578   8.083
 5516W        W 9260   9.283   6.238   0.962
 5517W        W 9261   8.478   6.080   2.647
 5518W        W 9262   3.205   7.142   1.154
 5519W        W 9263   2.806   9.758   2.252
 5520W        W 9264   9.444   3.551   2.488
 5521W        W 9265   6.430   2.303  10.976
 5522W        W 9266   6.166   9.669  11.836
 5523W        W 9267   6.465   2.153  11.454
 5524W        W 9268   5.961   4.658  11.750
 5525W        W 9269   7.195   6.679   8.363
 5526W        W 9270   7.135   1.969  11.496
 5527W        W 9271   1.473   7.899   1.944
 5528W        W 9272   9.076   7.001  11.726
 5529W        W 9273   9.175   2.244  10.943
 5530W        W 9274   0.444   6.940  11.877
 5531W        W 9275   7.431   8.004   2.249
 5532W        W 9276   1.181   9.924   0.501
 5533W        W 9277   0.455   7.639   1.853
 5534W        W 9278   3.392   3.657  10.881
 5535W        W 9279   5.759  10.324  10.976
 5536W        W 9280   2.654   8.821  11.969
 5537W        W 9281   1.309   0.924   2.623
 5538W        W 9282   4.606  10.468   3.310
 5539W        W 9283   9.107   8.894  11.055
 5540W        W 9284   2.210   2.527   9.239
 5541W        W 9285   9.408   8.156   3.091
 5542W        W 9286   6.400   5.351  10.423
 5543W        W 9287   6.558   1.737   0.387
 5544W        W 9288   3.268   2.368  10.645
 5545W        W 9289   5.663   8.370   9.935
 5546W        W 9290   7.444   1.481   2.677
 5547W        W 9291   7.891   7.992  10.250
 5548W        W 9292  10.259   2.750   9.354
 5549W        W 9293   1.671   5.043  10.960
 5550W        W 9294   7.104   9.780   3.653
 5551W        W 9295   1.250   4.167   0.930
 5552W        W 9296   9.786   2.807   9.542
 5553W        W 9297   0.852   0.425   1.421
 5554W        W 9298   6.460   0.771   8.825
 5555W        W 9299   4.765  10.082   1.713
 5556W        W 9300   7.501   9.026   3.489
 5557W        W 9301   9.214   1.224   3.370
 5558W        W 9302   8.043   8.000   2.271
 5559W        W 9303   5.731   2.769   2.491
 5560W        W 9304   2.048   9.099   3.349
 5561W        W 9305   7.160   9.723  11.971
 5562W        W 9306   0.694   0.064  11.434
 5563W        W 9307   8.519   3.207   1.392
 5564W        W 9308   9.026   6.051  11.464
 5565W        W 9309   8.321   2.455  10.777
 5566W        W 9310   3.261   7.297   0.214
 5567W        W 9311   8.307   7.138   0.722
 5568W        W 9312   4.204   0.339   1.721
 5569W        W 9313   0.823   4.772   1.507
 5570W        W 9314   0.953  10.223   8.557
 5571W        W 9315   3.418  10.003   0.964
 5572W        W 9316   5.647   4.114   1.211
 5573W        W 9317   7.375   3.168  10.686
 5574W        W 9318   3.636   3.523   2.428
 5575W        W 9319   7.967   9.752   3.389
 5576W        W 9320   9.824   4.727   2.391
 5577W        W 9321   6.532   6.078   0.649
 5578W        W 9322   9.979   4.489  10.987
 5579W        W 9323  10.320   6.121  11.209
 5580W        W 9324   4.186   0.848   8.974
 5581W        W 9325   1.820   7.357   0.912
 5582W        W 9326   4.272   9.492   1.052
 5583W        W 9327   0.865   2.251  11.976
 5584W        W 9328   5.606   7.249   2.805
 5585W        W 9329   4.731   6.462  10.811
 5586W        W 9330   5.558   2.694  11.395
 5587W        W 9331   7.472   8.944   1.049
 5588W        W 9332   2.831   9.061   0.393
 5589W        W 9333   8.121   4.222   3.153
 5590W        W 9334   8.094   5.115   2.585
 5591W        W 9335   6.559   2.655  11.359
 5592W        W 9336   8.101   4.977   1.580
 5593W        W 9337   1.390   1.693   1.193
 5594W        W 9338   9.738   2.241   2.240
 5595W        W 9339   8.367   2.429  10.278
 5596W        W 9340   3.735   0.438   9.833
 5597W        W 9341   8.860   3.177   2.467
 5598W        W 9342   4.017   9.463   8.476
 5599W        W 9343   7.509   1.942   2.139
 5600W        W 9344   8.952   2.635   0.243
 5601W        W 9345   7.047   6.944  11.716
 5602W        W 9346   5.056   2.367  10.496
 5603W        W 9347   5.991   7.919   2.405
 5604W        W 9348   0.043   2.399   0.962
 5605W        W 9349   6.249   4.650   1.598
 5606W        W 9350   2.475   3.410   2.927
 5607W        W 9351   1.984   4.567   3.295
 5608W        W 9352   7.652   6.447   3.398
 5609W        W 9353   7.085  10.190  10.920
 5610W        W 9354   2.221  10.293   9.264
 5611W        W 9355   7.875   0.243   9.505
 5612W        W 9356   2.962   8.595   3.281
 5613W        W 9357   3.131   0.695  10.925
 5614W        W 9358   2.408  10.251   1.670
 5615W        W 9359   8.594   9.331   9.075
 5616W        W 9360   0.729  10.084  11.341
 5617W        W 9361   7.588   2.823  10.369
 5618W        W 9362   8.538   6.425   9.560
 5619W        W 9363   6.949  10.420   1.209
 5620W        W 9364   4.553   0.349  11.055
 5621W        W 9365   0.382   4.516   1.436
 5622W        W 9366   0.722  10.267  11.840
 5623W        W 9367   2.762   8.575   9.173
 5624W        W 9368   3.040   4.222   0.336
 5625W        W 9369   4.599   0.105   1.521
 5626W        W 9370   0.439   9.382   1.761
 5627W        W 9371   1.000   4.647   9.186
 5628W        W 9372  10.197   2.240  10.652
 5629W        W 9373   7.024   9.917  10.013
 5630W        W 9374   4.628   7.206  11.589
 5631W        W 9375   5.549   3.076  10.636
 5632W        W 9376  10.308   1.543   1.321
 5633W        W 9377   4.095   2.593   0.949
 5634W        W 9378   0.932   2.191   3.251
 5635W        W 9379   1.775   0.748  11.404
 5636W        W 9380   3.182   8.701  11.959
 5637W        W 9381   5.827   8.059   4.063
 5638W        W 9382   8.445   8.494   1.244
 5639W        W 9383   8.631   5.292  11.800
 5640W        W 9384   2.277   4.545  11.689
 5641W        W 9385   9.365   4.211  10.462
 5642W        W 9386   2.428   2.874   8.495
 5643W        W 9387   5.605   7.542   9.355
 5644W        W 9388   6.519   3.421   1.030
 5645W        W 9389   8.070   1.651   9.794
 5646W        W 9390   3.281   3.287   1.770
 5647W        W 9391   4.834  10.338   0.724
 5648W        W 9392   1.780   4.693   0.936
 5649W        W 9393   2.606   4.282   2.857
 5650W        W 9394   1.323   1.949   8.870
 5651W        W 9395   4.737   0.455   2.413
 5652W        W 9396   5.724   5.972   3.145
 5653W        W 9397   1.753   4.356  11.764
 5654W        W 9398   4.700   8.026  11.081
 5655W        W 9399   0.850   5.720  10.236
 5656W        W 9400   0.448  10.214  10.387
 5657W        W 9401   2.364   6.957   1.730
 5658W        W 9402   9.771   8.600  10.454
 5659W        W 9403   3.859  10.027   1.671
 5660W        W 9404   5.060   2.577   2.715
 5661W        W 9405   5.195   1.648   8.729
 5662W        W 9406   8.325   0.718   3.159
 5663W        W 9407   7.009   1.216   1.876
 5664W        W 9408   9.111   2.201  11.987
 5665W        W 9409   2.295   9.468   2.243
 5666W        W 9410   3.371   0.943   8.691
 5667W        W 9411   5.292   8.491   1.499
 5668W        W 9412   2.489   6.149   0.460
 5669W        W 9413   3.098   0.791  11.920
 5670W        W 9414   7.460   0.653  11.394
 5671W        W 9415   0.533   6.055   2.206
 5672W        W 9416   7.316   6.114   3.178
 5673W        W 9417   5.635   4.097  10.980
 5674W        W 9418   4.351   8.567   1.330
 5675W        W 9419  10.388   7.027  11.239
 5676W        W 9420   5.897   7.090  10.465
 5677W        W 9421   4.994   8.017   0.805
 5678W        W 9422   6.441   3.654   9.919
 5679W        W 9423   1.710   3.542   9.345
 5680W        W 9424   2.769   1.913   0.424
 5681W        W 9425   2.878   6.934   9.397
 5682W        W 9426   0.892   6.641   8.949
 5683W        W 9427   7.957   2.681   2.358
 5684W        W 9428   4.011   2.671   2.718
 5685W        W 9429   0.936   6.180   2.474
 5686W        W 9430  10.290   7.912   0.417
 5687W        W 9431   8.574   0.261   3.238
 5688W        W 9432   0.101   0.840   3.188
 5689W        W 9433   3.514   0.477   3.513
 5690W        W 9434   4.634   4.114   7.879
 5691W        W 9435   7.359   6.538   0.311
 5692W        W 9436   3.231   9.989   2.950
 5693W        W 9437   6.979   9.833   2.610
 5694W        W 9438   7.659   1.874   2.925
 5695W        W 9439  10.396   8.912   9.686
 5696W        W 9440   3.825   2.762  10.552
 5697W        W 9441   9.378   9.100   0.014
 5698W        W 9442   0.025   2.639   8.645
 5699W        W 9443   8.869   5.816   0.325
 5700W        W 9444   5.032   0.976   2.503
 5701W        W 9445   6.633   6.456   1.817
 5702W        W 9446   8.962   7.438   1.576
 5703W        W 9447   5.346   2.753   3.428
 5704W        W 9448  10.024   0.836   9.571
 5705W        W 9449   2.390   5.746   3.199
 5706W        W 9450   6.512   1.083   2.004
 5707W        W 9451   2.692   8.383   2.895
 5708W        W 9452   7.880   7.434  11.523
 5709W        W 9453   6.218   1.978   2.876
 5710W        W 9454   4.136   7.103   1.487
 5711W        W 9455   8.873   8.841   3.371
 5712W        W 9456   3.397   2.684   2.542
 5713W        W 9457   2.946   0.659   8.544
 5714W        W 9458   9.317   3.036   9.413
 5715W        W 9459   8.810   7.529   3.070
 5716W        W 9460   5.133   5.254   9.056
 5717W        W 9461   9.734   5.599  11.689
 5718W        W 9462  10.153   2.082   3.181
 5719W        W 9463  10.459   2.705   2.623
 5720W        W 9464   6.421   6.062  10.858
 5721W        W 9465   7.235   9.704   8.518
 5722W        W 9466   8.601   4.495   0.794
 5723W        W 9467   4.204   3.115   0.905
 5724W        W 9468   4.393   9.435   2.838
 5725W        W 9469   6.148   8.580   3.377
 5726W        W 9470   7.416  10.213   8.747
 5727W        W 9471   9.400   7.949   0.979
 5728W        W 9472   4.754   4.531   9.070
 5729W        W 9473   2.894   6.697  10.305
 5730W        W 9474   3.551   2.396   0.489
 5731W        W 9475   1.409   8.564   0.148
 5732W        W 9476  10.048   6.477   0.139
 5733W        W 9477   6.205  10.035  10.886
 5734W        W 9478   1.720   8.373   3.600
 5735W        W 9479   4.571   9.074   1.325
 5736W        W 9480   9.024   9.102   0.439
 5737W        W 9481   7.379   3.236   1.367
 5738W        W 9482   5.915   2.616   9.408
 5739W        W 9483   3.650   6.270   8.936
 5740W        W 9484   8.047   2.851   9.727
 5741W        W 9485   0.231   3.036  11.413
 5742W        W 9486   2.094   3.444  10.144
 5743W        W 9487   0.874   2.379  11.449
 5744W        W 9488   1.828   3.381   1.035
 5745W        W 9489   1.726   4.154   1.118
 5746W        W 9490   9.735   4.291   2.113
 5747W        W 9491   0.961   0.445   3.222
 5748W        W 9492   2.621   5.869   8.573
 5749W        W 9493   6.146   1.729   8.801
 5750W        W 9494   9.459   5.455   8.855
 5751W        W 9495   4.075   0.939   2.363
 5752W        W 9496   2.408   4.243   2.384
 5753W        W 9497   8.912   9.957   9.539
 5754W        W 9498   8.710   2.375  11.082
 5755W        W 9499   6.010   3.854   9.246
 5756W        W 9500   1.581   0.741   3.132
 5757W        W 9501   1.455   4.595   2.189
 5758W        W 9502   2.264   2.329  10.649
 5759W        W 9503   6.158   9.394  10.016
 5760W        W 9504   8.994   8.865   2.290
 5761W        W 9505   9.410   7.286  11.484
 5762W        W 9506   1.107   7.918   9.991
 5763W        W 9507   9.283   5.053   0.746
 5764W        W 9508   3.687   3.659   0.914
 5765W        W 9509   9.919   9.549   2.132
 5766W        W 9510   9.571   4.838   3.792
 5767W        W 9511   6.908   6.568   3.775
 5768W        W 9512   9.465   4.830   2.781
 5769W        W 9513   3.348   3.215   9.583
 5770W        W 9514   7.435   2.332   3.076
 5771W        W 9515   4.070   8.239  11.787
 5772W        W 9516   8.958   7.438   8.891
 5773W        W 9517   2.510   0.721  10.091
 5774W        W 9518   9.441   9.069   2.820
 5775W        W 9519   0.204   9.534   2.799
 5776W        W 9520   8.360   6.235  10.011
 5777W        W 9521  10.014   4.539   9.028
 5778W        W 9522   8.399   6.987   1.890
 5779W        W 9523  10.284   4.070   1.861
 5780W        W 9524   1.803   0.763   2.672
 5781W        W 9525   0.987   9.969   1.021
 5782W        W 9526   5.822   0.333   9.712
 5783W        W 9527   3.689   2.254   2.660
 5784W        W 9528   2.356   6.226   1.283
 5785W        W 9529   2.318   2.998   9.380
 5786W        W 9530   9.744   7.668  10.622
 5787W        W 9531   4.623   1.351   1.582
 5788W        W 9532   2.413   9.391  10.748
 5789W        W 9533   9.370   5.865   2.722
 5790W        W 9534   9.468   0.280   1.533
 5791W        W 9535   5.921   6.887   0.744
 5792W        W 9536   7.567   4.589   8.634
 5793W        W 9537   3.144   7.033   9.983
 5794W        W 9538   1.831   9.423   1.968
 5795W        W 9539   5.571   9.959   2.219
 5796W        W 9540   9.109   7.213   0.188
 5797W        W 9541   5.095   5.576   2.669
 5798W        W 9542   6.533   0.314  10.456
 5799W        W 9543   2.249   4.974  10.311
 5800W        W 9544   8.527   8.398   0.707
 5801W        W 9545   9.851   2.657   0.407
 5802W        W 9546   9.582   0.777   1.406
 5803W        W 9547   8.334   0.514  11.804
 5804W        W 9548   7.555   0.592  10.375
 5805W        W 9549   8.182   7.976   9.304
 5806W        W 9550   2.265   0.198  10.914
 5807W        W 9551   2.311   1.585   2.217
 5808W        W 9552   1.891   9.595   3.463
 5809W        W 9553   1.164   9.063  10.692
 5810W        W 9554   6.469   7.806  10.305
 5811W        W 9555   3.619   5.130   0.225
 5812W        W 9556   8.062   6.934  10.814
 5813W        W 9557   6.528   3.233   9.136
 5814W        W 9558   8.995   4.059   8.632
 5815W        W 9559   4.166   5.728   2.334
 5816W        W 9560   0.749   7.485   3.143
 5817W        W 9561   0.687   2.129   0.452
 5818W        W 9562   7.582   1.831   1.140
 5819W        W 9563   3.271   4.185   3.578
 5820W        W 9564   5.950   8.044   8.335
 5821W        W 9565   9.613   5.067  10.044
 5822W        W 9566   8.659   5.817   3.555
 5823W        W 9567   4.898   9.507   9.960
 5824W        W 9568   9.751   3.368  10.184
 5825W        W 9569   4.462   1.834   1.377
 5826W        W 9570   4.281   0.685  11.341
 5827W        W 9571   4.143   7.744  11.808
 5828W        W 9572   2.543   1.713   9.467
 5829W        W 9573   8.098   4.660   9.418
 5830W        W 9574   0.466   5.579   2.423
 5831W        W 9575   6.436   7.420  11.767
 5832W        W 9576   3.320   9.502   3.128
 5833W        W 9577   0.849   8.326   9.071
 5834W        W 9578   8.502   9.934   1.013
 5835W        W 9579   9.068   5.024  11.835
 5836W        W 9580   8.160   4.247   9.099
 5837W        W 9581   3.471   8.450  10.020
 5838W        W 9582   9.477   5.828   9.554
 5839W        W 9583   9.602   9.401   1.446
 5840W        W 9584   6.026   2.961   2.875
 5841W        W 9585   5.756   7.838  11.752
 5842W        W 9586   1.452   3.241  11.342
 5843W        W 9587   9.131   6.636   2.144
 5844W        W 9588   5.225   1.905   0.274
 5845W        W 9589   0.723   4.263   2.759
 5846W        W 9590  10.151   9.075  10.937
 5847W        W 9591   0.377   0.300   9.531
 5848W        W 9592   3.253   7.165   2.588
 5849W        W 9593   7.847   6.924   1.905
 5850W        W 9594   9.096   0.369   3.269
 5851W        W 9595   8.936   3.682   2.489
 5852W        W 9596   4.107   0.915   9.487
 5853W        W 9597   4.474   7.188  10.511
 5854W        W 9598   3.353   3.608  11.895
 5855W        W 9599   2.780   9.942   2.730
 5856W        W 9600   3.657   9.874   3.224
 5857W        W 9601   6.440   9.552   8.888
 5858W        W 9602   3.154   9.773   0.286
 5859W        W 9603   0.176   8.045   1.753
 5860W        W 9604   4.378   5.716   2.794
 5861W        W 9605   6.261   1.119   3.508
 5862W        W 9606   1.838   7.788  10.455
 5863W        W 9607   9.376   2.514   9.452
 5864W        W 9608   8.073   7.671   8.588
 5865W        W 9609   2.726   6.372   4.102
 5866W        W 9610   5.468   5.497   2.258
 5867W        W 9611   5.971  10.151   3.618
 5868W        W 9612   3.183   9.395   2.148
 5869W        W 9613   0.248   5.436  11.815
 5870W        W 9614  10.443   2.605   3.619
 5871W        W 9615   5.415  10.397   2.489
 5872W        W 9616   1.034   0.894   2.195
 5873W        W 9617   0.833   3.582   9.862
 5874W        W 9618   8.284   1.416   2.195
 5875W        W 9619   3.806   4.127   3.242
 5876W        W 9620   8.775  10.274   1.401
 5877W        W 9621   4.063   6.224   2.385
 5878W        W 9622   7.511   3.122   8.645
 5879W        W 9623   4.127   4.124   8.664
 5880W        W 9624   6.916   8.941  10.962
 5881W        W 9625   5.454   2.683   9.661
 5882W        W 9626   3.236   9.350   9.543
 5883W        W 9627   8.907   7.933  11.149
 5884W        W 9628   6.462   5.159   9.861
 5885W        W 9629   1.192  10.023   2.364
 5886W        W 9630   1.187   6.689   9.361
 5887W        W 9631   6.495   7.548   9.552
 5888W        W 9632   8.562   3.041   0.901
 5889W        W 9633   7.382   4.994  10.723
 5890W        W 9634  10.047   2.238   3.669
 5891W        W 9635   3.282   7.093   3.357
 5892W        W 9636   7.143   4.700   2.891
 5893W        W 9637  10.309   6.530   0.572
 5894W        W 9638   0.309   8.465   0.890
 5895W        W 9639   2.053   8.719   3.686
 5896W        W 9640   7.001   7.486   2.863
 5897W        W 9641   6.062  10.088   2.044
 5898W        W 9642   1.646   8.974  11.928
 5899W        W 9643   4.825   6.970  10.830
 5900W        W 9644   0.573   3.138  10.008
 5901W        W 9645   0.248   8.535   1.853
 5902W        W 9646   5.132   3.677  11.653
 5903W        W 9647   5.661   2.826  11.872
 5904W        W 9648   2.272   6.008  11.282
 5905W        W 9649   4.707   5.556  10.715
 5906W        W 9650   4.274   3.350   0.202
 5907W        W 9651   5.454   9.610   9.325
 5908W        W 9652   3.873   5.265   1.722
 5909W        W 9653   4.159   7.422   3.567
 5910W        W 9654   4.173   7.908   9.214
 5911W        W 9655   0.832   1.889  11.614
 5912W        W 9656   5.541   2.922  10.133
 5913W        W 9657   3.472   2.190  11.871
 5914W        W 9658   9.104   7.176   9.834
 5915W        W 9659   3.842   7.171   9.357
 5916W        W 9660   6.731   7.990   1.513
 5917W        W 9661   6.176   9.352   0.826
 5918W        W 9662   0.974   7.458   0.425
 5919W        W 9663   8.609   8.685   0.294
 5920W        W 9664   2.677  10.421   0.100
 5921W        W 9665   8.806   3.287  10.553
 5922W        W 9666   1.223   7.727  11.786
 5923W        W 9667   7.373   5.648   2.573
 5924W        W 9668   8.369  10.219   9.778
 5925W        W 9669   6.726  10.445   3.026
 5926W        W 9670   5.562   9.143   9.172
 5927W        W 9671   4.082   0.743   3.441
 5928W        W 9672   2.088   1.136  11.313
 5929W        W 9673   3.926  10.239   0.823
 5930W        W 9674   6.811   7.931   9.412
 5931W        W 9675   8.824   5.038  11.390
 5932W        W 9676   6.123   0.849   2.282
 5933W        W 9677  10.475   3.725   2.684
 5934W        W 9678  10.020   0.902   2.260
 5935W        W 9679   9.370   1.625   8.603
 5936W        W 9680   2.757   4.080   8.964
 5937W        W 9681   2.802   5.089   0.499
 5938W        W 9682   0.855   3.143  10.437
 5939W        W 9683   8.949   6.423  10.702
 5940W        W 9684   4.763   8.979   3.422
 5941W        W 9685   0.847   2.298  10.531
 5942W        W 9686   0.952   9.770   3.034
 5943W        W 9687   7.567  10.446  10.901
 5944W        W 9688   2.572   0.805   1.010
 5945W        W 9689   0.874   8.903   2.980
 5946W        W 9690   1.855   7.388   2.986
 5947W        W 9691  10.367   0.444   9.478
 5948W        W 9692   2.849   0.366  10.314
 5949W        W 9693   8.945   9.819   2.719
 5950W        W 9694   6.114   8.489   9.032
 5951W        W 9695   5.582   5.376  11.378
 5952W        W 9696   2.273   2.381   8.722
 5953W        W 9697   0.419  10.481   9.947
 5954W        W 9698   2.828   3.159   9.415
 5955W        W 9699   5.062   1.808  11.262
 5956W        W 9700   5.766   5.552  11.820
 5957W        W 9701   2.239   0.265   2.328
 5958W        W 9702   7.466   6.586   2.956
 5959W        W 9703   5.206   9.214  10.236
 5960W        W 9704   5.565   5.590   9.456
 5961W        W 9705   6.939   8.369  11.487
 5962W        W 9706   7.032   1.721   9.054
 5963W        W 9707   5.619   1.239   9.778
 5964W        W 9708   2.342   6.918  11.992
 5965W        W 9709   7.531   9.392  11.924
 5966W        W 9710   0.842   3.605   3.263
 5967W        W 9711   4.024   3.580  10.025
 5968W        W 9712   3.639   5.131  10.246
 5969W        W 9713   8.866   9.460   0.814
 5970W        W 9714   4.966   8.186   9.262
 5971W        W 9715   0.904   5.556  10.716
 5972W        W 9716   1.874   6.513  10.757
 5973W        W 9717   9.789   7.668   1.280
 5974W        W 9718   6.608   7.263   9.145
 5975W        W 9719   2.665   5.140  11.994
 5976W        W 9720   7.580   7.586   8.433
 5977W        W 9721   3.559   0.004   0.223
 5978W        W 9722  10.270   8.668  11.846
 5979W        W 9723   4.235   7.236   1.010
 5980W        W 9724   0.965   3.329  11.277
 5981W        W 9725   2.144   4.933   1.295
 5982W        W 9726   4.296   8.830   8.926
 5983W        W 9727   9.547   2.201  11.273
 5984W        W 9728   1.840   5.966   2.061
 5985W        W 9729   5.615  10.051   9.105
 5986W        W 9730   0.204   8.285  10.427
 5987W        W 9731   0.786   7.405  11.535
 5988W        W 9732   9.228   2.251   2.252
 5989W        W 9733   8.571   1.959  10.144
 5990W        W 9734   7.922   1.437   1.466
 5991W        W 9735   3.378   4.704   2.707
 5992W        W 9736   7.873   7.089  11.892
 5993W        W 9737   8.629   3.883   0.575
 5994W        W 9738   5.550   5.853   1.566
 5995W        W 9739   0.446   6.661   0.861
 5996W        W 9740   6.081   4.790   9.836
 5997W        W 9741   6.423   7.012   9.599
 5998W        W 9742   8.805   3.692   9.570
 5999W        W 9743   7.128   3.634   1.581
 6000W        W 9744   2.512   0.712   2.424
 6001W        W 9745   9.854   8.737   2.536
 6002W        W 9746   8.754   8.381  10.349
 6003W        W 9747   4.077   5.582   0.053
 6004W        W 9748   1.385   0.885   9.022
 6005W        W 9749   8.347   3.275   2.418
 6006W        W 9750   2.888   2.636   2.680
 6007W        W 9751   4.710   8.487   3.583
 6008W        W 9752   4.786   2.112  10.042
 6009W        W 9753   9.953   7.467   0.390
 6010W        W 9754   7.512   9.999   3.352
 6011W        W 9755   0.624  10.410   1.237
 6012W        W 9756   3.945   4.765   9.365
 6013W        W 9757   0.727   5.438   1.306
 6014W        W 9758   0.337   3.853   0.348
 6015W        W 9759   6.616   1.008   0.831
 6016W        W 9760   9.523   9.403  11.543
 6017W        W 9761   7.439   9.049  10.894
 6018W        W 9762   3.336   6.080   0.241
 6019W        W 9763   8.965   1.280   9.751
 6020W        W 9764   3.238   0.180  10.891
 6021W        W 9765   4.693   4.987   1.613
 6022W        W 9766   0.432   5.736   0.986
 6023W        W 9767   4.927   8.890  11.045
 6024W        W 9768   9.973   6.914   9.906
 6025W        W 9769   8.591   7.790  11.976
 6026W        W 9770   5.811   4.333   9.999
 6027W        W 9771   8.104   4.266  10.916
 6028W        W 9772   0.404   9.002   3.495
 6029W        W 9773  10.233   2.268  10.123
 6030W        W 9774   0.915   9.014   0.480
 6031W        W 9775   8.387   8.957   1.491
 6032W        W 9776   3.949   4.525   1.032
 6033W        W 9777   1.118   1.800   3.540
 6034W        W 9778  10.230   3.679   0.501
 6035W        W 9779   6.812   0.795   1.241
 6036W        W 9780   3.014   1.701   0.818
 6037W        W 9781   4.304   8.715   3.300
 6038W        W 9782   3.075   9.237  10.049
 6039W        W 9783   0.099   5.422   8.531
 6040W        W 9784   1.558   3.366  11.847
 6041W        W 9785   7.605   1.262   9.027
 6042W        W 9786   5.229   3.588  10.719
 6043W        W 9787   4.826   3.707  11.011
 6044W        W 9788   1.035   5.875   1.227
 6045W        W 9789   1.948   1.761   3.751
 6046W        W 9790   7.865   5.594   2.670
 6047W        W 9791   1.350   6.008  11.347
 6048W        W 9792   0.629   3.873   3.618
 6049W        W 9793   0.963   3.332   0.708
 6050W        W 9794   5.247   8.428   0.981
 6051W        W 9795   4.408   1.155  11.485
 6052W        W 9796   3.111   3.983   0.787
 6053W        W 9797   2.810   8.947   1.654
 6054W        W 9798   0.303   1.091   0.978
 6055W        W 9799   7.668   6.837   9.996
 6056W        W 9800   6.915   3.781   8.554
 6057W        W 9801   8.323   7.548   3.217
 6058W        W 9802   5.692   9.191   2.624
 6059W        W 9803   1.091   0.038   1.001
 6060W        W 9804   0.059   1.119   1.435
 6061W        W 9805   0.665   5.235  10.368
 6062W        W 9806   6.209   5.603  10.850
 6063W        W 9807   3.161   9.172  10.899
 6064W        W 9808   9.154   6.920  11.226
 6065W        W 9809   9.788  10.463   2.311
 6066W        W 9810   3.147   7.063   8.561
 6067W        W 9811   4.983   6.617   9.436
 6068W        W 9812  10.125   4.058   2.362
 6069W        W 9813   0.083   3.673   1.673
 6070W        W 9814   7.865   7.324   3.212
 6071W        W 9815   1.349   6.404   3.190
 6072W        W 9816   0.884   4.456   0.708
 6073W        W 9817   7.944   2.116   3.305
 6074W        W 9818   7.686   7.913   8.831
 6075W        W 9819   3.604   8.068   1.198
 6076W        W 9820   7.644   5.244   2.356
 6077W        W 9821   6.110   2.233   3.318
 6078W        W 9822   2.439   2.439  10.177
 6079W        W 9823   8.593   7.310   9.962
 6080W        W 9824   4.559   8.056   9.514
 6081W        W 9825   3.644   4.064  11.981
 6082W        W 9826   2.603   2.790  11.105
 6083W        W 9827   3.378   4.161   9.844
 6084W        W 9828   0.403   8.142  11.275
 6085W        W 9829   6.617   4.337   1.424
 6086W        W 9830   3.004   6.767   1.670
 6087W        W 9831   1.219   9.895  10.069
 6088W        W 9832   0.742   1.434   8.550
 6089W        W 9833   1.461  10.225   0.850
 6090W        W 9834   8.925   4.841   1.050
 6091W        W 9835   5.299   4.293   9.865
 6092W        W 9836   4.593   2.264   0.582
 6093W        W 9837   3.166   6.571   3.298
 6094W        W 9838   8.925   2.256   9.595
 6095W        W 9839  10.163   1.742  10.961
 6096W        W 9840   1.248   7.434   3.589
 6097W        W 9841   8.368   4.211  10.474
 6098W        W 9842   0.507   9.991   9.122
 6099W        W 9843   6.199   7.636  10.823
 6100W        W 9844   0.272   7.550   9.082
 6101W        W 9845   6.251   7.823   2.850
 6102W        W 9846   8.853   1.783   0.156
 6103W        W 9847   2.595   5.074   1.005
 6104W        W 9848   8.844   6.247   2.327
 6105W        W 9849   2.719   7.209  11.122
 6106W        W 9850   4.531   0.641   1.407
 6107W        W 9851   1.930   4.656  10.697
 6108W        W 9852   0.740   5.076   3.278
 6109W        W 9853   9.356   4.045   3.367
 6110W        W 9854   0.907   5.650   0.784
 6111W        W 9855   8.605   2.781   2.704
 6112W        W 9856   1.665   6.443   1.972
 6113W        W 9857   3.751   6.598   0.377
 6114W        W 9858   8.878   4.229   3.352
 6115W        W 9859   2.387   3.386   1.318
 6116W        W 9860   7.612   9.584   3.067
 6117W        W 9861   9.630   9.614   3.500
 6118W        W 9862   6.591  10.025   9.762
 6119W        W 9863   3.124   4.087  11.831
 6120W        W 9864   8.882   0.978   1.707
 6121W        W 9865   7.838  10.327   2.266
 6122W        W 9866   6.181   0.269   2.980
 6123W        W 9867   5.944   3.081   3.701
 6124W        W 9868   9.933   0.790   0.490
 6125W        W 9869   3.321   8.879   9.792
 6126W        W 9870   7.587   9.949   2.022
 6127W        W 9871   8.784   2.196   0.982
 6128W        W 9872   0.449   8.508   9.985
 6129W        W 9873   3.286   3.598  11.389
 6130W        W 9874   1.421   4.658  10.635
 6131W        W 9875   3.851   1.834   1.255
 6132W        W 9876   5.891   3.605   3.752
 6133W        W 9877   1.324   5.060   0.224
 6134W        W 9878   1.314   3.281   9.096
 6135W        W 9879   7.634   7.516   0.767
 6136W        W 9880   3.816   4.436   2.251
 6137W        W 9881   6.187   7.697   3.469
 6138W        W 9882   6.585   9.462   0.160
 6139W        W 9883   8.075   0.716  10.204
 6140W        W 9884   4.164   7.655  11.097
 6141W        W 9885   6.684   0.686   1.731
 6142W        W 9886   7.707   8.659   0.086
 6143W        W 9887   7.477   8.359   9.043
 6144W        W 9888   8.467   2.822   3.228
 6145W        W 9889   9.305   5.726  11.150
 6146W        W 9890   3.740   4.362   9.062
 6147W        W 9891   3.317   8.513   2.310
 6148W        W 9892   1.784   8.970   1.731
 6149W        W 9893   9.805   8.990   8.918
 6150W        W 9894   5.613   0.599   0.816
 6151W        W 9895   3.720   8.361   0.774
 6152W        W 9896   8.461   2.389   9.775
 6153W        W 9897   2.334   9.810  11.033
 6154W        W 9898   8.608   1.189  11.402
 6155W        W 9899   4.067   0.780   2.925
 6156W        W 9900   6.951   7.457   0.224
 6157W        W 9901   6.532   8.300  11.863
 6158W        W 9902   4.112   4.163   2.835
 6159W        W 9903   3.319   4.591   2.165
 6160W        W 9904   7.349  10.282   2.401
 6161W        W 9905   6.025   6.685   0.280
 6162W        W 9906   3.373   4.492   9.385
 6163W        W 9907   6.533   1.679   9.167
 6164W        W 9908   5.782   5.958   0.736
 6165W        W 9909   0.246   3.410   3.024
 6166W        W 9910   9.984   1.724   0.956
 6167W        W 9911   8.392   1.367   3.172
 6168W        W 9912   6.773   0.755  10.221
 6169W        W 9913   8.756   9.335   3.446
 6170W        W 9914   4.883   2.701   3.169
 6171W        W 9915   0.409   9.571   0.268
 6172W        W 9916   4.818   2.808   1.443
 6173W        W 9917   7.482   3.733   3.345
 6174W        W 9918   6.088   0.701  11.795
 6175W        W 9919   5.947   9.364   2.206
 6176W        W 9920   8.762   2.264  10.586
 6177W        W 9921   7.611   4.116  10.892
 6178W        W 9922   9.064   8.460  11.346
 6179W        W 9923   7.428   6.137   2.242
 6180W        W 9924   2.571   7.485   1.456
 6181W        W 9925   5.266   6.464   0.673
 6182W        W 9926   1.611   9.885  11.540
 6183W        W 9927   0.859   7.520   9.797
 6184W        W 9928  10.012   5.347   0.038
 6185W        W 9929  10.306   2.317   0.050
 6186W        W 9930   6.838   6.139  10.102
 6187W        W 9931   2.458  10.367   0.731
 6188W        W 9932   3.354   2.823  10.419
 6189W        W 9933   0.351   0.285   1.472
 6190W        W 9934   5.251   6.253  11.534
 6191W        W 9935   1.733   1.607   2.878
 6192W        W 9936   3.260   7.934   9.538
 6193W        W 9937   5.325   6.045   0.347
 6194W        W 9938   1.094   3.157   9.970
 6195W        W 9939   7.349  10.161   0.184
 6196W        W 9940   7.426   0.714   2.498
 6197W        W 9941   3.663  10.429  11.726
 6198W        W 9942   0.415   6.130  10.306
 6199W        W 9943   2.734   0.799  10.555
 6200W        W 9944   4.050   5.075  11.964
 6201W        W 9945   1.126   9.811   3.793
 6202W        W 9946  10.051   9.000   1.388
 6203W        W 9947   5.790   1.575   1.020
 6204W        W 9948   1.503   5.997   0.295
 6205W        W 9949   9.590   8.129  10.288
 6206W        W 9950   4.719   4.112   3.654
 6207W        W 9951   7.299   2.804   9.952
 6208W        W 9952   5.726   7.341  10.871
 6209W        W 9953   1.165   6.132   0.717
 6210W        W 9954   2.698   5.540   3.539
 6211W        W 9955  10.208   4.263   3.365
 6212W        W 9956   2.335   5.234   9.855
 6213W        W 9957   6.764   0.306   9.992
 6214W        W 9958   5.147   3.867  10.271
 6215W        W 9959   3.785   3.740   2.880
 6216W        W 9960   0.304   6.484   2.392
 6217W        W 9961   8.799   1.390   2.013
 6218W        W 9962  10.123   1.611   3.011
 6219W        W 9963   6.982   6.527   2.785
 6220W        W 9964   9.515   1.325   9.018
 6221W        W 9965   3.790   2.652   3.502
 6222W        W 9966   6.485   8.802  11.917
 6223W        W 9967   2.047   1.704   9.584
 6224W        W 9968   3.287   8.561   0.972
 6225W        W 9969  10.435   7.617   1.864
 6226W        W 9970   1.192   2.127   0.353
 6227W        W 9971   6.207   4.206   2.618
 6228W        W 9972   9.602   8.492  11.387
 6229W        W 9973   8.430   2.614  11.444
 6230W        W 9974   9.335   7.364  10.599
 6231W        W 9975   3.754   9.312   3.362
 6232W        W 9976   5.941   8.064   3.207
 6233W        W 9977   3.515   4.842   0.996
 6234W        W 9978   4.310   9.828   9.369
 6235W        W 9979   2.243   3.501   9.333
 6236W        W 9980   7.487   1.924   3.425
 6237W        W 9981   2.240   8.969   9.027
 6238W        W 9982   9.449   1.738  10.004
 6239W        W 9983   5.927   7.364  11.783
 6240W        W 9984   7.877  10.366  11.445
 6241W        W 9985   0.606   8.188   2.001
 6242W        W 9986  10.336   7.739   2.354
 6243W        W 9987   9.011   4.526   0.095
 6244W        W 9988   3.860   6.175   1.818
 6245W        W 9989   0.863   2.606   2.490
 6246W        W 9990  10.347   9.545  10.978
 6247W        W 9991   2.842   1.083   1.784
 6248W        W 9992   9.639   5.995  10.014
 6249W        W 9993   9.455   1.204  11.427
 6250W        W 9994   1.514   5.447   3.474
 6251W        W 9995   1.448   3.219   1.641
 6252W        W 9996   5.998   9.805   2.455
 6253W        W 9997   5.792   8.713   2.730
 6254W        W 9998   7.179   0.812   1.612
 6255W        W 9999   6.955   5.652   9.371
 6256W        W10000   7.618   1.562  10.540
 6257W        W10001   2.125   2.979   3.010
 6258W        W10002   8.851  10.211   2.241
 6259W        W10003   1.020   7.936  10.493
 6260W        W10004   0.409   6.657   9.835
 6261W        W10005   4.077   7.020  10.826
 6262W        W10006  10.018   0.895  11.448
 6263W        W10007   5.172   1.684   9.252
 6264W        W10008   5.060   6.082  10.071
 6265W        W10009   2.822   7.640  10.600
 6266W        W10010   3.514   7.675   8.527
 6267W        W10011   6.452   4.160   3.132
 6268W        W10012   5.907  10.337   2.460
 6269W        W10013  10.243   4.087   9.182
 6270W        W10014   9.791   5.176   2.976
 6271W        W10015   9.855   3.181   1.990
 6272W        W10016   1.817   9.386   9.497
 6273W        W10017   0.397   0.835  11.562
 6274W        W10018  10.289   3.250   2.483
 6275W        W10019   9.278   6.614   3.578
 6276W        W10020  10.500   4.700   9.061
 6277W        W10021   0.799   1.457   9.459
 6278W        W10022   8.084   7.891   1.299
 6279W        W10023   6.271   7.869   1.754
 6280W        W10024   9.242   0.745  10.947
 6281W        W10025   6.506   6.900  10.090
 6282W        W10026   7.087  10.260   3.355
 6283W        W10027   4.296   4.287   2.380
 6284W        W10028   0.902   0.803  10.746
 6285W        W10029   0.925   4.671   3.525
 6286W        W10030   8.476   7.701   2.309
 6287W        W10031   0.447   2.552   0.693
 6288W        W10032   8.576   7.460   1.871
 6289W        W10033   2.256   1.433   2.751
 6290W        W10034   9.555   1.946  10.479
 6291W        W10035   9.088   7.641  11.904
 6292W        W10036   9.384   8.416   1.267
 6293W        W10037   1.347   8.011   1.438
 6294W        W10038   4.437   8.897   2.809
 6295W        W10039   6.747   1.357  11.032
 6296W        W10040   0.411   3.748   2.054
 6297W        W10041   9.365   6.644   8.930
 6298W        W10042  10.437   2.271  11.567
 6299W        W10043   1.607   0.820  11.894
 6300W        W10044   5.209   3.332  10.300
 6301W        W10045   3.787   7.394  11.887
 6302W        W10046  10.487   3.586  10.439
 6303W        W10047   1.925   0.043   0.055
 6304W        W10048   7.444   1.667   0.268
 6305W        W10049   7.425   9.284   0.683
 6306W        W10050  10.458   9.625   9.037
 6307W        W10051   7.816   6.972   2.417
 6308W        W10052   2.650   1.652   3.153
 6309W        W10053   7.071   0.627   2.118
 6310W        W10054  10.232   4.670   9.508
 6311W        W10055   7.940   5.651  11.295
 6312W        W10056   5.739   0.771   1.968
 6313W        W10057  10.225   5.751   8.541
 6314W        W10058   1.728   1.194  10.356
 6315W        W10059   9.441   1.600  11.811
 6316W        W10060   8.159   4.550  11.676
 6317W        W10061   1.621   8.974  10.955
 6318W        W10062   7.368   4.328  10.478
 6319W        W10063  10.474   1.900   0.978
 6320W        W10064   2.381   9.093   9.526
 6321W        W10065   6.791   5.088  10.608
 6322W        W10066   7.432   3.633  10.939
 6323W        W10067   8.924   7.473  11.409
 6324W        W10068   7.880   5.092   9.562
 6325W        W10069   7.422   4.230   2.157
 6326W        W10070   1.933   8.432   0.827
 6327W        W10071   4.572   0.708   9.556
 6328W        W10072   9.966   1.789  11.944
 6329W        W10073   3.703   9.094   9.538
 6330W        W10074   2.207   9.929  10.076
 6331W        W10075   4.813   1.833   2.422
 6332W        W10076   9.071   3.722   0.767
 6333W        W10077   0.394   3.168   1.948
 6334W        W10078  10.462   5.066   0.081
 6335W        W10079   8.883   6.483  11.227
 6336W        W10080   8.842   8.480   8.917
 6337W        W10081   1.448   7.004   2.309
 6338W        W10082   2.630   7.330   8.171
 6339W        W10083   0.311   7.643  11.354
 6340W        W10084   2.225  10.208   0.290
 6341W        W10085   4.064   1.810   1.715
 6342W        W10086   5.621   2.257   2.477
 6343W        W10087   7.569   7.472   9.447
 6344W        W10088   5.080   2.124   9.033
 6345W        W10089   9.041   6.195  11.983
 6346W        W10090   5.333   6.765   3.593
 6347W        W10091   9.309   3.860   9.638
 6348W        W10092   5.355   4.761  10.628
 6349W        W10093   2.171   9.833   1.919
 6350W        W10094   3.472   6.646   1.822
 6351W        W10095   6.634   3.277   9.633
 6352W        W10096   5.997   0.757   9.063
 6353W        W10097   1.626   1.808   3.339
 6354W        W10098   4.328  10.419   8.646
 6355W        W10099   4.609   7.622  11.960
 6356W        W10100   2.257   6.472  11.104
 6357W        W10101   1.005  10.439  11.053
 6358W        W10102   2.191   2.035  11.633
 6359W        W10103   2.384   3.343   1.856
 6360W        W10104   6.547   1.997   3.519
 6361W        W10105   5.118   6.897   1.838
 6362W        W10106   5.438   2.545   0.842
 6363W        W10107   1.876   6.688   8.814
 6364W        W10108   5.585   9.759   0.452
 6365W        W10109   1.840   2.309   1.861
 6366W        W10110   6.486   4.039  11.371
 6367W        W10111   5.051  10.369  10.274
 6368W        W10112   7.978   4.585   3.458
 6369W        W10113   8.537   3.163   8.705
 6370W        W10114   1.330  10.489   8.780
 6371W        W10115  10.340  10.039   9.603
 6372W        W10116   0.809   0.719   2.713
 6373W        W10117   5.974   9.065   1.224
 6374W        W10118   4.308   0.435   0.209
 6375W        W10119   1.066   4.721  10.994
 6376W        W10120   7.564   6.386  10.883
 6377W        W10121   0.418   5.657  10.501
 6378W        W10122   7.692   5.766   3.130
 6379W        W10123   3.987   9.641   2.418
 6380W        W10124   1.792   5.088   0.416
 6381W        W10125   1.600   7.590   9.113
 6382W        W10126   6.177   2.802   1.644
 6383W        W10127   3.186  10.203  10.011
 6384W        W10128   6.639   8.869  10.529
 6385W        W10129   8.932  10.362   3.250
 6386W        W10130   6.277   7.068   2.318
 6387W        W10131   1.422   2.258   3.221
 6388W        W10132   8.778   9.999  10.023
 6389W        W10133   1.562   1.194   0.396
 6390W        W10134   3.634   8.962   0.073
 6391W        W10135   5.931   7.179   8.683
 6392W        W10136   8.312   4.169  11.368
 6393W        W10137   7.573   6.943  10.915
 6394W        W10138   0.021   8.439   9.600
 6395W        W10139   8.257   0.958   2.426
 6396W        W10140   9.787   7.599  11.406
 6397W        W10141  10.242   2.247   9.573
 6398W        W10142   4.000   0.919   8.472
 6399W        W10143   6.577   0.432  11.047
 6400W        W10144   7.563   1.775   9.003
 6401W        W10145   8.469   1.787   9.120
 6402W        W10146   2.690   6.104  11.548
 6403W        W10147   0.899   6.949   3.043
 6404W        W10148  10.243   5.383   2.835
 6405W        W10149   3.614   0.961   9.604
 6406W        W10150   9.930   4.939   1.704
 6407W        W10151   8.136   7.075   9.961
 6408W        W10152   7.260   8.711  11.270
 6409W        W10153   1.884  10.007  11.959
 6410W        W10154   8.062   7.511   8.096
 6411W        W10155   4.617   8.494  10.833
 6412W        W10156   3.033   8.506   1.879
 6413W        W10157   9.780   6.493   2.715
 6414W        W10158   0.823   3.765  10.354
 6415W        W10159   1.412   6.764   1.265
 6416W        W10160   5.226   1.379   0.515
 6417W        W10161  10.422   4.154   0.300
 6418W        W10162   0.681   1.666  11.170
 6419W        W10163   3.678   4.593  10.265
 6420W        W10164   4.406   2.359   9.826
 6421W        W10165   3.924   2.315   3.103
 6422W        W10166   1.153   6.681  10.286
 6423W        W10167   8.889   7.946   8.832
 6424W        W10168   0.637   8.041   9.946
 6425W        W10169   8.481  10.020   9.272
 6426W        W10170   1.333   8.726   0.613
 6427W        W10171   5.535   2.874   8.693
 6428W        W10172   4.389   8.062   1.472
 6429W        W10173   8.276   3.246   2.940
 6430W        W10174  10.363   5.163   1.517
 6431W        W10175   3.552   1.845   1.702
 6432W        W10176   0.954   6.911  11.588
 6433W        W10177   8.329   2.149   0.799
 6434W        W10178   4.615   5.988  10.953
 6435W        W10179   8.290   8.880  11.369
 6436W        W10180   1.881   9.910   2.661
 6437W        W10181   7.202   1.356  10.801
 6438W        W10182   4.628   9.609   1.853
 6439W        W10183   7.624   0.067   2.782
 6440W        W10184   6.944   6.309   0.491
 6441W        W10185   2.971   6.441   0.245
 6442W        W10186   5.130   7.158   3.318
 6443W        W10187   4.265  10.325  10.942
 6444W        W10188   0.733  10.441   2.366
 6445W        W10189   5.324   8.798   2.914
 6446W        W10190   6.086   4.204   8.387
 6447W        W10191   3.331   0.593   9.074
 6448W        W10192   0.837   4.350   1.213
 6449W        W10193   1.682   1.342  11.869
 6450W        W10194   0.549   6.636  11.469
 6451W        W10195   0.491   2.431   9.490
 6452W        W10196   8.127  10.040  11.750
 6453W        W10197   5.127   2.853  10.434
 6454W        W10198  10.475   3.789  10.955
 6455W        W10199   8.042   1.944   1.337
 6456W        W10200   6.727   2.710  10.860
 6457W        W10201   2.297   8.088   0.971
 6458W        W10202   3.182   6.625  10.810
 6459W        W10203   1.891   9.076  11.479
 6460W        W10204   6.692   9.840  10.929
 6461W        W10205   4.242   2.013  11.577
 6462W        W10206   1.639   7.021   0.522
 6463W        W10207   8.962   3.133  11.532
 6464W        W10208   1.332   0.237   1.418
 6465W        W10209   4.684   3.542   3.954
 6466W        W10210   2.281   8.757  11.361
 6467W        W10211   2.794   2.347   1.942
 6468W        W10212   1.400   5.706   0.929
 6469W        W10213   9.143   4.194   9.999
 6470W        W10214   9.858   2.366   9.261
 6471W        W10215   0.562   2.729  10.528
 6472W        W10216   0.863   2.169   2.752
 6473W        W10217   0.937   5.706   2.223
 6474W        W10218   4.857   8.660   1.206
 6475W        W10219   7.548   0.491   1.811
 6476W        W10220   2.155   6.012   0.859
 6477W        W10221   9.333   6.810   9.417
 6478W        W10222   7.024   9.753   9.504
 6479W        W10223   3.250   5.777   1.421
 6480W        W10224   8.432   4.105   1.850
 6481W        W10225   2.286   0.924   9.165
 6482W        W10226   2.416   4.532  10.812
 6483W        W10227   1.800   9.499  11.876
 6484W        W10228   4.324   8.431   8.518
 6485W        W10229   6.033   2.452   2.797
 6486W        W10230   7.265   0.384  10.916
 6487W        W10231   0.158  10.249   1.458
 6488W        W10232   0.252  10.231   2.245
 6489W        W10233   1.325   4.762   0.662
 6490W        W10234   8.071   9.761   1.865
 6491W        W10235   8.871   3.020   1.958
 6492W        W10236   7.422   9.482   1.169
 6493W        W10237   6.259   9.623   9.552
 6494W        W10238   3.594   9.371   9.951
 6495W        W10239   1.671   2.467   1.381
 6496W        W10240   7.377   7.043   9.657
 6497W        W10241   4.265   7.471   9.475
 6498W        W10242   1.905   7.244   2.414
 6499W        W10243   6.389   7.394   0.861
 6500W        W10244   1.403   9.339   8.742
 6501W        W10245   4.611   4.138   1.707
 6502W        W10246   6.657   9.518   9.860
 6503W        W10247   0.510   5.559   3.307
 6504W        W10248   2.281  10.301  11.774
 6505W        W10249   6.075   1.446   1.459
 6506W        W10250   6.209   5.202   0.508
 6507W        W10251   5.294   6.110   8.235
 6508W        W10252   0.909   3.876  11.260
 6509W        W10253   3.073   7.594   1.383
 6510W        W10254   7.517   5.275  11.927
 6511W        W10255   5.719   1.283  11.291
 6512W        W10256   7.811   2.265   1.840
 6513W        W10257   4.489   7.696   3.234
 6514W        W10258   3.808   4.527  10.768
 6515W        W10259   9.543   5.658  10.629
 6516W        W10260   5.982   2.324   1.739
 6517W        W10261   2.149   7.497   9.024
 6518W        W10262   0.187   7.338   1.499
 6519W        W10263   2.003   6.043   0.352
 6520W        W10264   5.662   4.364  10.516
 6521W        W10265   2.191   8.219   3.066
 6522W        W10266   7.426   1.450   2.181
 6523W        W10267   2.374   3.251   8.900
 6524W        W10268   6.434   5.697   1.398
 6525W        W10269   5.089   9.971   0.434
 6526W        W10270   4.623   2.360   2.362
 6527W        W10271  10.081   9.529   0.683
 6528W        W10272   4.209   7.634   2.292
 6529W        W10273   8.940   6.706   9.715
 6530W        W10274   7.905   8.448  10.418
 6531W        W10275   8.137   3.655   1.921
 6532W        W10276   8.347   5.245  11.370
 6533W        W10277   3.286   2.299   1.794
 6534W        W10278   0.371   9.477  11.753
 6535W        W10279   5.971   3.308   0.428
 6536W        W10280   3.840   6.557   1.455
 6537W        W10281   5.582   7.545   2.359
 6538W        W10282   7.468   6.051   0.333
 6539W        W10283   6.567   9.851  10.271
 6540W        W10284   7.395   0.660   0.322
 6541W        W10285   0.842   7.326   1.742
 6542W        W10286   5.083   3.733   3.684
 6543W        W10287   0.994   9.492   0.810
 6544W        W10288   5.038   5.142   2.411
 6545W        W10289   5.163   6.553   3.141
 6546W        W10290   4.753   6.256  11.390
 6547W        W10291   9.174   7.495   3.882
 6548W        W10292  10.313   4.118  11.721
 6549W        W10293   3.578   2.703   8.998
 6550W        W10294   2.095   5.120   0.834
 6551W        W10295   6.617   0.720   3.470
 6552W        W10296   1.808   9.997   3.173
 6553W        W10297   6.714   1.707  11.453
 6554W        W10298   1.209   5.149  10.773
 6555W        W10299   9.862   0.774   2.735
 6556W        W10300   0.679   9.363   3.243
 6557W        W10301   6.086   9.171  10.499
 6558W        W10302   7.415   1.171   0.334
 6559W        W10303   9.903   2.655   1.323
 6560W        W10304   9.731   4.277   2.631
 6561W        W10305   9.073   6.537   1.647
 6562W        W10306   8.851   3.113   3.008
 6563W        W10307   3.697   2.279   9.246
 6564W        W10308   1.285   6.266   9.955
 6565W        W10309   0.289  10.021   2.711
 6566W        W10310   8.983   0.747   8.506
 6567W        W10311   8.488   3.206  11.390
 6568W        W10312  10.373   0.396  10.477
 6569W        W10313   5.080   5.084   2.917
 6570W        W10314   6.465   0.859   9.825
 6571W        W10315   9.418   9.033   9.241
 6572W        W10316   8.936   5.541  10.242
 6573W        W10317  10.488   7.155  11.726
 6574W        W10318   3.842   1.913   2.173
 6575W        W10319   4.410   8.213   3.206
 6576W        W10320   7.951   8.378   1.189
 6577W        W10321   5.535   2.669   2.938
 6578W        W10322   5.186   4.017  11.255
 6579W        W10323   7.984   7.887   0.349
 6580W        W10324   7.167   9.672  11.022
 6581W        W10325   7.618   4.937   2.761
 6582W        W10326   5.689  10.417   9.451
 6583W        W10327   0.043   7.657   1.098
 6584W        W10328   6.217   1.580  11.516
 6585W        W10329   0.484   9.280   9.632
 6586W        W10330   0.478  10.395   1.815
 6587W        W10331   5.613   2.253   3.465
 6588W        W10332   8.337   4.927   3.419
 6589W        W10333   0.825   4.851   1.010
 6590W        W10334   4.594   1.324   3.061
 6591W        W10335   5.505   0.861   9.003
 6592W        W10336   5.116   7.568   4.011
 6593W        W10337   6.106   1.913   2.386
 6594W        W10338   2.165   2.411   2.800
 6595W        W10339   5.244   1.880   3.356
 6596W        W10340   8.677   6.933   0.197
 6597W        W10341   9.430   0.504   2.817
 6598W        W10342   9.395   3.086  11.781
 6599W        W10343   0.887   4.189   8.413
 6600W        W10344   4.789   5.604   0.800
 6601W        W10345   2.313   8.050   9.303
 6602W        W10346   4.995   5.623   2.160
 6603W        W10347  10.031   7.903  11.722
 6604W        W10348  10.209   8.683   8.716
 6605W        W10349   6.703   8.060   0.986
 6606W        W10350   1.285   9.456   9.753
 6607W        W10351   0.653   4.347  10.357
 6608W        W10352   5.631   3.084   4.105
 6609W        W10353   1.491   6.303  10.448
 6610W        W10354   8.171   4.223   8.164
 6611W        W10355   6.921   4.790  11.370
 6612W        W10356   0.062   8.849   1.205
 6613W        W10357   7.670   4.118   8.854
 6614W        W10358   9.037   5.267   1.473
 6615W        W10359   0.929   9.371   8.959
 6616W        W10360   6.949   8.891   2.354
 6617W        W10361   3.080   3.699   8.787
 6618W        W10362   4.134   2.638  10.140
 6619W        W10363   4.327   1.929   2.322
 6620W        W10364   0.320   9.065   2.977
 6621W        W10365   1.842   4.120  11.239
 6622W        W10366   9.293   7.043   0.949
 6623W        W10367   6.128   0.391   2.003
 6624W        W10368   7.459   3.774   1.197
 6625W        W10369   0.767   8.113   1.538
 6626W        W10370   5.589   3.873  10.509
 6627W        W10371  10.293   8.713   9.225
 6628W        W10372   8.077  10.288   2.705
 6629W        W10373   2.300   5.275   9.113
 6630W        W10374   8.557   6.114  11.826
 6631W        W10375   4.766   8.035   1.844
 6632W        W10376   2.372   4.959   8.599
 6633W        W10377   0.336   2.132  10.309
 6634W        W10378   6.414   6.515   9.386
 6635W        W10379   6.093  10.203  10.409
 6636W        W10380   8.884   0.387   9.655
 6637W        W10381   1.879   7.890   3.284
 6638W        W10382   2.620   6.103   2.387
 6639W        W10383   5.214   2.883   1.137
 6640W        W10384   2.808   1.516  11.199
 6641W        W10385   3.514   1.028  10.977
 6642W        W10386   5.524   3.816   3.445
 6643W        W10387  10.067   3.406  11.791
 6644W        W10388   3.096   8.999   1.241
 6645W        W10389   1.690   8.059  11.002
 6646W        W10390   8.741   6.015  10.439
 6647W        W10391   7.962   5.882   9.979
 6648W        W10392   3.524   1.919  11.028
 6649W        W10393   5.278   9.033   3.399
 6650W        W10394   9.350   9.873  11.644
 6651W        W10395   4.977   9.710   9.496
 6652W        W10396   3.398   5.937  11.337
 6653W        W10397   8.494   0.983  10.004
 6654W        W10398   5.249   2.629  10.929
 6655W        W10399   7.970   9.861   1.325
 6656W        W10400   4.871   7.808   2.761
 6657W        W10401   1.421   1.338  10.793
 6658W        W10402   4.187   8.678   2.336
 6659W        W10403   6.529   2.743   0.396
 6660W        W10404   2.242   5.613  10.967
 6661W        W10405   5.979   5.160  10.644
 6662W        W10406   1.441   9.724   0.881
 6663W        W10407   7.372   2.848   3.220
 6664W        W10408   1.904   5.396   1.244
 6665W        W10409   4.593   9.459  11.439
 6666W        W10410  10.091   0.013  10.963
 6667W        W10411   7.406   0.341  11.820
 6668W        W10412   3.696   5.848  10.939
 6669W        W10413   0.771   0.816   1.750
 6670W        W10414   3.953   1.794   2.668
 6671W        W10415  10.070   3.644   9.396
 6672W        W10416   9.450   6.016  11.753
 6673W        W10417   4.003   0.091   0.445
 6674W        W10418   7.954   9.218   1.844
 6675W        W10419   7.507   3.536  11.456
 6676W        W10420   6.197   4.708   2.557
 6677W        W10421  10.208   7.451   1.429
 6678W        W10422   8.037   1.298  10.621
 6679W        W10423   6.733   3.890   2.807
 6680W        W10424   2.598   9.932  10.478
 6681W        W10425   9.396   2.028   9.582
 6682W        W10426   0.241   0.681   1.814
 6683W        W10427   8.928   6.074   1.842
 6684W        W10428   4.613   5.957   9.845
 6685W        W10429   7.040   6.044   2.624
 6686W        W10430   1.468   6.255   9.482
 6687W        W10431   2.821   1.858   2.179
 6688W        W10432   7.306   2.339  10.268
 6689W        W10433   3.338   6.307  10.439
 6690W        W10434   0.805   4.093  10.768
 6691W        W10435   9.682   5.871   9.067
 6692W        W10436   8.535   6.579   2.851
 6693W        W10437   2.135   0.469   1.796
 6694W        W10438   9.444  10.262   1.661
 6695W        W10439   9.817   8.161   1.232
 6696W        W10440   6.339   9.116   9.631
 6697W        W10441   3.157   8.784   8.789
 6698W        W10442   1.727   2.681   2.740
 6699W        W10443   9.334   8.505   0.768
 6700W        W10444   4.306   0.356   3.218
 6701W        W10445   2.226   5.256   2.382
 6702W        W10446   1.748   0.688   9.833
 6703W        W10447   3.050   2.293  11.611
 6704W        W10448   2.514   4.066   8.506
 6705W        W10449   8.010   9.579  11.921
 6706W        W10450   5.057   0.800  10.416
 6707W        W10451   9.337   3.038   2.289
 6708W        W10452   1.495   8.415   9.760
 6709W        W10453   2.691   4.184   1.007
 6710W        W10454  10.384   1.265   9.487
 6711W        W10455   7.142   0.242   2.633
 6712W        W10456   1.387   6.976  11.226
 6713W        W10457   5.893   5.738   1.959
 6714W        W10458   2.723   7.021   1.335
 6715W        W10459   2.184   1.447  10.455
 6716W        W10460   4.950   4.588  11.967
 6717W        W10461   4.251   3.281   9.482
 6718W        W10462   8.072   0.179  10.090
 6719W        W10463   8.971   8.398   1.558
 6720W        W10464   6.669   2.743   1.481
 6721W        W10465   4.378   8.763   0.368
 6722W        W10466   2.327   9.055   2.529
 6723W        W10467   1.274   0.921   1.640
 6724W        W10468   7.135   5.699  11.113
 6725W        W10469   8.378   2.325   3.022
 6726W        W10470  10.158  10.452   9.321
 6727W        W10471   1.174   9.535   2.600
 6728W        W10472   2.630   2.852   9.897
 6729W        W10473   3.356   7.623  10.784
 6730W        W10474   0.984   1.072   9.744
 6731W        W10475   3.881   8.713   0.433
 6732W        W10476   6.088  10.186  11.829
 6733W        W10477   5.215   9.059   2.489
 6734W        W10478   5.144   2.415   2.255
 6735W        W10479   7.074   6.180   1.832
 6736W        W10480   1.408   0.198   3.284
 6737W        W10481   4.989   7.631   3.509
 6738W        W10482   5.212   5.679   9.819
 6739W        W10483   7.575   3.263   3.558
 6740W        W10484  10.144   0.304   2.179
 6741W        W10485   6.516   9.269   1.577
 6742W        W10486   5.103   9.979   9.954
 6743W        W10487   3.763   0.513   1.471
 6744W        W10488   5.728   5.058  11.990
 6745W        W10489   4.198   1.899   9.757
 6746W        W10490   8.058   5.241   0.694
 6747W        W10491   2.169   4.279   8.956
 6748W        W10492   7.051   3.304   9.907
 6749W        W10493   7.012   0.610   9.103
 6750W        W10494   5.674   7.356  10.076
 6751W        W10495   5.924   0.895  11.004
 6752W        W10496   4.977   7.063   8.527
 6753W        W10497   1.790   0.470   3.495
 6754W        W10498   5.529   6.001  11.886
 6755W        W10499   7.445   5.910   9.886
 6756W        W10500   9.222   4.155   9.099
 6757W        W10501   4.778   2.719   3.661
 6758W        W10502   5.139   5.097   3.426
 6759W        W10503   3.422   3.314   0.317
 6760W        W10504   0.884   4.583   9.967
 6761W        W10505   2.832   6.192   9.995
 6762W        W10506   8.297   5.069  10.510
 6763W        W10507   2.347   9.463   1.105
 6764W        W10508   6.170   0.748   3.183
 6765W        W10509   7.952   4.057   1.651
 6766W        W10510   1.754   7.429   3.486
 6767W        W10511   8.934   8.949   9.125
 6768W        W10512   5.151   4.014   1.903
 6769W        W10513  10.235   0.056  11.842
 6770W        W10514   7.934   6.102   0.514
 6771W        W10515   1.858   4.680   1.894
 6772W        W10516   9.884   8.616   2.038
 6773W        W10517   0.591   5.461   9.335
 6774W        W10518   4.040   2.762  10.995
 6775W        W10519   4.718   1.534   9.426
 6776W        W10520   8.742   0.015  10.015
 6777W        W10521   1.384   5.920   9.090
 6778W        W10522   0.425   3.977  11.456
 6779W        W10523   1.314   7.503   1.680
 6780W        W10524   8.043   2.782   9.228
 6781W        W10525   4.947   1.013  10.864
 6782W        W10526   4.099  10.416  10.445
 6783W        W10527   2.662   2.899   1.777
 6784W        W10528   3.218   3.633   9.298
 6785W        W10529   3.692   3.094   2.702
 6786W        W10530   6.609   7.999  10.761
 6787W        W10531   0.286   5.025   2.371
 6788W        W10532   7.024   6.442   2.277
 6789W        W10533   8.319   8.426  10.096
 6790W        W10534   0.419   3.739   9.062
 6791W        W10535   9.709   2.319  10.804
 6792W        W10536   2.220   2.949  10.187
 6793W        W10537   0.724   4.876  11.339
 6794W        W10538   2.254   1.931   2.654
 6795W        W10539   0.990   5.459   2.707
 6796W        W10540   3.592   5.340   1.280
 6797W        W10541   5.677   0.495   8.670
 6798W        W10542   5.617   0.383  10.155
 6799W        W10543   5.538   8.001   0.774
 6800W        W10544   5.262   0.784   1.164
 6801W        W10545   1.278   4.641   1.164
 6802W        W10546   1.454   6.594   0.783
 6803W        W10547   5.609   8.576   9.146
 6804W        W10548   4.265   2.222   2.740
 6805W        W10549   9.583   5.127  11.838
 6806W        W10550   0.686   0.321   0.938
 6807W        W10551   9.470   1.419   0.622
 6808W        W10552   6.440   3.685   9.419
 6809W        W10553   5.021   8.192   2.404
 6810W        W10554   9.389   1.297   2.884
 6811W        W10555   3.292   7.402   0.720
 6812W        W10556   7.979   3.852   8.519
 6813W        W10557   5.714   1.725   3.514
 6814W        W10558   8.439   0.821  10.540
 6815W        W10559   0.179   2.040   9.378
 6816W        W10560   3.841   7.599   8.964
 6817W        W10561   0.975   6.601  11.190
 6818W        W10562   6.357   8.785   1.669
 6819W        W10563   7.132   8.201  11.046
 6820W        W10564   0.307   9.758   9.574
 6821W        W10565   8.366   4.614   9.856
 6822W        W10566   2.116  10.377   2.674
 6823W        W10567   5.554   1.669  10.032
 6824W        W10568   0.451  10.336   3.249
 6825W        W10569   5.071   7.463   0.068
 6826W        W10570   2.662  10.329   9.513
 6827W        W10571   3.738   7.158   0.334
 6828W        W10572   4.043   5.689   1.380
 6829W        W10573   4.054   5.799   0.556
 6830W        W10574   1.373   0.499   8.676
 6831W        W10575   4.757   8.575   3.067
 6832W        W10576   9.051   5.387   2.347
 6833W        W10577   4.732   6.460   9.926
 6834W        W10578   8.481   9.828   1.517
 6835W        W10579   1.377   4.672   2.677
 6836W        W10580   1.673   5.508  10.182
 6837W        W10581   6.364   4.649   1.014
 6838W        W10582   3.017   7.682   8.154
 6839W        W10583   7.356   6.183   1.283
 6840W        W10584   6.896   1.309   9.349
 6841W        W10585   0.881   8.817  11.389
 6842W        W10586   3.071   0.302  11.343
 6843W        W10587   5.100   5.223  10.602
 6844W        W10588   3.504   0.033   2.298
 6845W        W10589   3.685  10.354   1.248
 6846W        W10590   8.984   2.746   9.749
 6847W        W10591   7.058   9.413   0.360
 6848W        W10592   7.656   8.367   1.911
 6849W        W10593   2.832   6.416   0.731
 6850W        W10594   5.745   0.866   3.510
 6851W        W10595   3.129   5.531   9.232
 6852W        W10596   6.194   3.462  10.348
 6853W        W10597   2.141   6.293   2.348
 6854W        W10598   6.479   9.722   0.601
 6855W        W10599   1.831   3.621   3.243
 6856W        W10600   2.674   9.992   0.410
 6857W        W10601   1.771   0.907  10.813
 6858W        W10602   4.174   1.419   1.276
 6859W        W10603   3.481   9.046  11.614
 6860W        W10604   1.070   2.738  10.705
 6861W        W10605   0.765   6.027   9.008
 6862W        W10606   0.571   8.618   0.495
 6863W        W10607   7.730   7.863   1.869
 6864W        W10608   8.911   9.360   2.971
 6865W        W10609   6.315   7.560   2.156
 6866W        W10610   0.392   6.381   1.308
 6867W        W10611   9.794   4.928   0.268
 6868W        W10612  10.250  10.049  10.410
 6869W        W10613   6.494   3.187   0.046
 6870W        W10614   0.708   1.317   2.299
 6871W        W10615   6.916   2.204   2.718
 6872W        W10616   6.728   5.222   2.172
 6873W        W10617   7.955   8.379   8.788
 6874W        W10618   3.208   4.475   0.767
 6875W        W10619   0.768   6.290   0.376
 6876W        W10620   1.499   2.453   0.585
 6877W        W10621   7.060   4.721   8.634
 6878W        W10622   6.828   7.083  10.440
 6879W        W10623   1.389   6.407   8.978
 6880W        W10624   2.322   9.008   2.015
 6881W        W10625   9.801   4.233   1.220
 6882W        W10626   9.577   8.470   9.928
 6883W        W10627   8.805   0.426  11.115
 6884W        W10628   2.089   6.895  10.508
 6885W        W10629   3.875   5.718  11.432
 6886W        W10630   1.989   7.658  10.916
 6887W        W10631   9.847   8.357   0.752
 6888W        W10632   4.497   4.532   1.986
 6889W        W10633   4.920  10.466   2.494
 6890W        W10634   9.736   7.935   9.834
 6891W        W10635   7.707   1.336  11.938
 6892W        W10636   7.584   9.141  10.231
 6893W        W10637  10.388   2.483   1.446
 6894W        W10638   0.483   0.713  10.454
 6895W        W10639   2.112   6.476   0.105
 6896W        W10640   4.191   9.819   1.988
 6897W        W10641   7.997   8.840  10.097
 6898W        W10642   2.247   6.902  11.498
 6899W        W10643   7.087   4.493   2.426
 6900W        W10644   4.618   4.090   2.725
 6901W        W10645   8.931   0.366   2.798
 6902W        W10646   9.020   1.820   1.189
 6903W        W10647   9.430   2.739  10.897
 6904W        W10648   0.378   7.124  11.391
 6905W        W10649   6.990   3.620   1.072
 6906W        W10650   3.060   0.219   8.818
 6907W        W10651   9.868   9.976   2.417
 6908W        W10652   9.612   8.152   9.378
 6909W        W10653   5.035   4.106   1.424
 6910W        W10654   9.712   9.230   0.851
 6911W        W10655   6.524   1.237   0.389
 6912W        W10656   1.406   7.364   0.156
 6913W        W10657  10.115   9.067   2.188
 6914W        W10658  10.416   6.943   1.692
 6915W        W10659   2.556   0.514   8.974
 6916W        W10660   0.420   1.187   1.841
 6917W        W10661   3.332   7.561  11.765
 6918W        W10662   8.784   0.927   2.319
 6919W        W10663   4.103   4.540   3.207
 6920W        W10664   8.975   1.114   3.822
 6921W        W10665   2.810   5.551   1.245
 6922W        W10666   8.462   6.176  10.836
 6923W        W10667   9.435   7.509   1.757
 6924W        W10668   1.665   5.075  10.460
 6925W        W10669   5.571   2.253  11.687
 6926W        W10670   2.712  10.451  10.025
 6927W        W10671   9.070   9.018   9.646
 6928W        W10672   7.209   4.055   3.750
 6929W        W10673   3.883   1.045  11.421
 6930W        W10674   2.618   1.633  10.711
 6931W        W10675   0.677   5.846   2.873
 6932W        W10676   7.616   9.122   1.495
 6933W        W10677   5.973   9.918   8.609
 6934W        W10678   6.803   6.153   3.090
 6935W        W10679   6.352   2.353   9.393
 6936W        W10680   6.320   4.343  10.028
 6937W        W10681   7.167   0.919  10.504
 6938W        W10682   7.903   0.843  11.237
 6939W        W10683   3.104   3.221   1.166
 6940W        W10684   8.381   1.400   1.696
 6941W        W10685   9.128   0.777  11.900
 6942W        W10686   7.913   1.274   0.983
 6943W        W10687   5.323   5.672   0.682
 6944W        W10688   4.558   5.152   0.622
 6945W        W10689   9.679   3.186  10.673
 6946W        W10690   3.868   4.908   1.364
 6947W        W10691   8.808   0.422  11.621
 6948W        W10692   2.582   2.475   1.308
 6949W        W10693   9.427  10.023   1.172
 6950W        W10694   5.255   7.004  11.997
 6951W        W10695   5.839   6.807   3.713
 6952W        W10696   9.443   2.925   9.904
 6953W        W10697   9.031   4.051  11.881
 6954W        W10698   6.925   2.419   0.750
 6955W        W10699   4.849   2.137   1.941
 6956W        W10700   2.467   8.296   8.238
 6957W        W10701  10.022   6.870  10.914
 6958W        W10702   1.754   7.693   1.532
 6959W        W10703   2.839   9.932  10.925
 6960W        W10704   1.130   7.181   1.350
 6961W        W10705   1.925   7.439   0.419
 6962W        W10706  10.193   3.151  10.345
 6963W        W10707   4.590   1.652  11.537
 6964W        W10708   3.562   6.348  11.031
 6965W        W10709   7.208   6.583   8.872
 6966W        W10710   2.372   8.734   0.418
 6967W        W10711   0.288   9.713   2.301
 6968W        W10712   2.326   7.454   0.755
 6969W        W10713   0.187   2.682  11.802
 6970W        W10714   6.037   8.198  11.993
 6971W        W10715   9.322   1.746  11.326
 6972W        W10716   5.029   0.529  10.970
 6973W        W10717   9.741   6.654   8.577
 6974W        W10718   1.696   7.847   0.277
 6975W        W10719   7.965   9.839   2.376
 6976W        W10720   4.796   1.626   8.350
 6977W        W10721  10.041   1.439   1.757
 6978W        W10722   6.425   8.023   9.811
 6979W        W10723  10.422   5.595  10.500
 6980W        W10724   7.075   9.921   1.274
 6981W        W10725   3.047   4.613   9.014
 6982W        W10726   5.343   2.878   2.087
 6983W        W10727   1.216   7.993   0.899
 6984W        W10728   8.987   3.978   2.914
 6985W        W10729   1.275   1.949  11.342
 6986W        W10730   7.104   1.118   2.398
 6987W        W10731   5.925   1.578   2.818
 6988W        W10732   5.731   9.050   3.122
 6989W        W10733   0.495   3.069   0.729
 6990W        W10734   8.619   2.273   1.608
 6991W        W10735   4.388   1.209  11.977
 6992W        W10736   8.992   6.957   9.074
 6993W        W10737   5.216   3.065   3.051
 6994W        W10738   5.821   1.394  11.789
 6995W        W10739   3.269   6.652   1.074
 6996W        W10740   0.400   7.610  10.033
 6997W        W10741   8.950   7.832   1.232
 6998W        W10742   0.617   0.818   3.207
 6999W        W10743   7.102   1.779   2.452
 7000W        W10744   0.178   9.921  11.420
 7001W        W10745   0.779   4.161   0.213
 7002W        W10746  10.449   2.894   2.140
 7003W        W10747   8.051   3.746  10.288
 7004W        W10748   7.023  10.362  10.387
 7005W        W10749   7.945   5.651  10.723
 7006W        W10750   7.676   3.595   0.339
 7007W        W10751   9.838   7.862   0.712
 7008W        W10752   3.277   9.276   0.275
 7009W        W10753   0.021   3.223  11.851
 7010W        W10754   9.471  10.016   0.293
 7011W        W10755   3.151   4.607   8.172
 7012W        W10756   3.403   4.455   3.163
 7013W        W10757   1.003   3.801   2.780
 7014W        W10758   9.167  10.332   9.798
 7015W        W10759   2.599   6.458   1.669
 7016W        W10760   1.387   9.763   1.409
 7017W        W10761   4.261   0.493   2.218
 7018W        W10762   9.992   6.695   1.421
 7019W        W10763   4.955   7.121   3.792
 7020W        W10764   3.841   9.036  11.231
 7021W        W10765   4.600   0.910   2.200
 7022W        W10766   0.674   9.983   9.954
 7023W        W10767   3.162   7.149  10.801
 7024W        W10768   5.782   4.685  10.908
 7025W        W10769   7.317   0.855   1.119
 7026W        W10770   4.679   6.476   0.792
 7027W        W10771   5.424   5.425   0.215
 7028W        W10772  10.325   0.809  10.203
 7029W        W10773   6.916  10.272   9.454
 7030W        W10774   3.796   1.456  10.891
 7031W        W10775   9.892   4.076   0.381
 7032W        W10776   2.833   6.680   9.816
 7033W        W10777   2.362   8.549  10.862
 7034W        W10778   9.772   3.605   0.767
 7035W        W10779   5.206   9.811   2.964
 7036W        W10780   9.194   7.399   3.394
 7037W        W10781   4.722   3.634   2.956
 7038W        W10782   9.858   6.376  10.945
 7039W        W10783   2.715   1.662   2.633
 7040W        W10784   0.373   3.598  10.090
 7041W        W10785   7.565   4.429   2.641
 7042W        W10786   2.193   2.910   2.024
 7043W        W10787   1.568   3.667   1.383
 7044W        W10788   8.972   8.354  10.836
 7045W        W10789   1.783   3.152  10.462
 7046W        W10790   7.158   3.342   3.224
 7047W        W10791   1.908   8.869   9.568
 7048W        W10792   7.356   4.532  11.526
 7049W        W10793   2.228   5.552   1.916
 7050W        W10794   8.084   1.587  11.039
 7051W        W10795   2.646   4.682  10.038
 7052W        W10796   2.926  10.237   1.695
 7053W        W10797   8.963   1.806   9.839
 7054W        W10798   6.081   3.319   9.415
 7055W        W10799  10.065   0.415   9.046
 7056W        W10800   6.163   0.567   3.678
 7057W        W10801  10.331   1.390  10.466
 7058W        W10802   3.583   9.944  11.532
 7059W        W10803   5.008   9.980  11.208
 7060W        W10804   7.556   5.043   1.852
 7061W        W10805   8.671   3.693   9.049
 7062W        W10806   6.278   0.799  10.330
 7063W        W10807   2.507   4.016   9.414
 7064W        W10808   8.514   3.353   0.007
 7065W        W10809   3.788   0.340   3.022
 7066W        W10810   9.716   0.355  10.797
 7067W        W10811   6.928   5.985  10.649
 7068W        W10812   0.881   3.840   1.852
 7069W        W10813   8.130   4.627  10.311
 7070W        W10814   1.297   3.779   2.351
 7071W        W10815   6.978   8.302   9.752
 7072W        W10816  10.046   1.827  10.428
 7073W        W10817  10.260   5.993   1.762
 7074W        W10818   5.829   0.676   2.800
 7075W        W10819   0.962   9.010   3.489
 7076W        W10820   4.078   4.091  10.803
 7077W        W10821   4.704   8.589   1.696
 7078W        W10822  10.476   3.852   3.194
 7079W        W10823   1.647   1.970   1.506
 7080W        W10824   6.624   6.215   4.033
 7081W        W10825   8.592   1.721   0.918
 7082W        W10826   0.149   0.844   0.561
 7083W        W10827   0.998   4.662   0.264
 7084W        W10828   0.165   2.200   2.313
 7085W        W10829   1.809   7.162  10.877
 7086W        W10830   8.948   7.503  10.324
 7087W        W10831   8.564   2.125  11.490
 7088W        W10832   6.545   0.977  11.941
 7089W        W10833   9.677   8.954  11.109
 7090W        W10834   2.781   9.557  11.655
 7091W        W10835   7.802   6.579   0.656
 7092W        W10836   8.488   3.719  11.551
 7093W        W10837   0.379   5.032   1.369
 7094W        W10838   3.640   4.094  11.046
 7095W        W10839   6.182   7.097  10.944
 7096W        W10840   0.788   2.194   1.747
 7097W        W10841   2.374   3.796   1.641
 7098W        W10842   0.327   1.565   3.513
 7099W        W10843   8.397   7.418  11.423
 7100W        W10844   7.586   3.761   2.044
 7101W        W10845   6.609   1.219  11.499
 7102W        W10846   2.802   7.369   2.860
 7103W        W10847   0.615   4.603  10.796
 7104W        W10848   0.801   0.922   8.724
 7105W        W10849   6.256   4.952   0.047
 7106W        W10850   3.956   2.092  11.991
 7107W        W10851   2.866  10.336   3.070
 7108W        W10852   5.766   0.418   3.247
 7109W        W10853   2.175   8.692   8.425
 7110W        W10854   1.469   1.251   3.198
 7111W        W10855   0.155   8.957  10.907
 7112W        W10856   1.106   0.914   3.101
 7113W        W10857   3.277   4.150   8.983
 7114W        W10858   8.656   1.344   0.328
 7115W        W10859   6.610   6.498   0.906
 7116W        W10860   7.404   2.261  10.869
 7117W        W10861   3.409  10.264   1.863
 7118W        W10862   9.352   1.835   0.263
 7119W        W10863   6.269   7.872   0.786
 7120W        W10864   2.695   0.563   0.219
 7121W        W10865   5.772   4.924   0.476
 7122W        W10866   6.401   8.978  10.980
 7123W        W10867   6.262   0.390   9.974
 7124W        W10868   3.126   9.299  11.382
 7125W        W10869   6.548  10.417   9.118
 7126W        W10870   6.837   4.365  10.086
 7127W        W10871  10.015   2.157   8.793
 7128W        W10872   7.567   2.212   9.300
 7129W        W10873   1.276   7.986   9.045
 7130W        W10874   8.596   1.281   8.942
 7131W        W10875   7.862   3.840   9.258
 7132W        W10876   4.280   1.801   9.258
 7133W        W10877  10.426   4.716   3.521
 7134W        W10878   9.961   1.825   2.490
 7135W        W10879   2.580   9.010   1.172
 7136W        W10880   3.702   7.598  10.279
 7137W        W10881   8.417   3.732   9.937
 7138W        W10882   2.864   2.397   9.862
 7139W        W10883  10.347   1.596   8.628
 7140W        W10884   6.560   1.950   2.085
 7141W        W10885   4.082   7.814   0.323
 7142W        W10886   0.804   3.285   8.988
 7143W        W10887   3.586   5.512   9.890
 7144W        W10888   1.744  10.341   9.545
 7145W        W10889   9.891   0.168   0.840
 7146W        W10890   6.013   0.933   8.581
 7147W        W10891   7.274   7.755  11.958
 7148W        W10892   6.728   2.676   2.326
 7149W        W10893   3.689   0.834  10.535
 7150W        W10894   2.196   8.182   3.569
 7151W        W10895   8.314   3.687   9.431
 7152W        W10896   7.910   3.215   2.102
 7153W        W10897   0.931   3.223   1.873
 7154W        W10898   7.439   8.624  10.455
 7155W        W10899   0.805   0.630   9.583
 7156W        W10900   9.081   1.956  10.310
 7157W        W10901   9.097   9.285   1.373
 7158W        W10902   4.333   2.898  10.520
 7159W        W10903   8.431   1.313   1.200
 7160W        W10904   6.726   2.547   3.507
 7161W        W10905   4.133   6.121   9.641
 7162W        W10906   2.316  10.329  11.265
 7163W        W10907   2.939   3.260   9.933
 7164W        W10908   9.034   1.269  11.718
 7165W        W10909   1.873   0.191  10.551
 7166W        W10910   1.128   2.641   3.388
 7167W        W10911   9.530   2.611  11.989
 7168W        W10912   7.157   4.196   2.854
 7169W        W10913   0.690   6.020  10.711
 7170W        W10914   6.541   1.931  11.911
 7171W        W10915   2.650   4.079  10.922
 7172W        W10916   8.277   6.970   2.615
 7173W        W10917   0.963   8.492   0.902
 7174W        W10918   1.417   0.265   9.571
 7175W        W10919   1.528   5.065   9.329
 7176W        W10920   4.079   4.361   0.563
 7177W        W10921   4.202   8.334   3.663
 7178W        W10922   6.451   6.089   9.757
 7179W        W10923   8.103   2.111   9.998
 7180W        W10924   3.203   9.004   2.464
 7181W        W10925   8.106   0.126   3.472
 7182W        W10926   3.100   3.734   9.998
 7183W        W10927   4.026  10.225  11.417
 7184W        W10928   1.186   5.954   2.868
 7185W        W10929   0.940   1.282   1.861
 7186W        W10930   8.836   8.553   9.453
 7187W        W10931   4.285   6.624   2.921
 7188W        W10932   7.534   6.117   8.908
 7189W        W10933   0.687   1.961   9.372
 7190W        W10934   3.775   0.968   1.773
 7191W        W10935   7.004   0.095   2.149
 7192W        W10936   5.858   2.863   2.030
 7193W        W10937   9.837   8.843   0.065
 7194W        W10938   1.803  10.184  10.537
 7195W        W10939   3.095   2.282   2.373
 7196W        W10940   0.663   1.339   0.074
 7197W        W10941   2.141   2.398   0.632
 7198W        W10942   7.454   4.133   9.351
 7199W        W10943   3.363   0.751  11.393
 7200W        W10944   2.630  10.409   2.604
 7201W        W10945   0.018   5.524   9.035
 7202W        W10946   4.928   1.701   2.938
 7203W        W10947   3.913   4.511   0.100
 7204W        W10948   9.321   4.546   2.363
 7205W        W10949   9.217  10.125  10.372
 7206W        W10950   9.406   0.937   0.408
 7207W        W10951   1.236   2.748   9.286
 7208W        W10952   2.576   4.206   1.902
 7209W        W10953   3.106   5.557   9.730
 7210W        W10954   2.884   8.984   9.518
 7211W        W10955   5.527   6.053  10.751
 7212W        W10956   7.721   7.826   9.819
 7213W        W10957   3.073   2.716   8.851
 7214W        W10958   5.049  10.395   8.727
 7215W        W10959   6.509  10.459   0.013
 7216W        W10960   3.829   3.171   9.760
 7217W        W10961   7.829   6.469   0.162
 7218W        W10962   6.069   2.184   8.538
 7219W        W10963   3.219   3.202  11.051
 7220W        W10964   4.755  10.151   9.363
 7221W        W10965   4.118   7.052   9.770
 7222W        W10966  10.291   9.907   2.730
 7223W        W10967   4.082   2.663   1.858
 7224W        W10968   0.528   0.850   2.218
 7225W        W10969   1.343   1.468   0.760
 7226W        W10970   2.021   1.782   1.790
 7227W        W10971   3.772  10.101   2.187
 7228W        W10972   5.640   4.873  11.390
 7229W        W10973   9.842   7.730   2.267
 7230ION    NA+10974   7.895   7.045   9.004
 7231ION    NA+10975   8.798  10.447  11.935
 7232ION    NA+10976   0.304   6.700   3.626
 7233ION    NA+10977   6.672   1.804   3.078
 7234ION    NA+10978   0.004   3.687  11.509
 7235ION    NA+10979   1.371   8.653   2.939
 7236ION    NA+10980   9.966   6.478   0.957
 7237ION    NA+10981   4.889   0.336   9.408
 7238ION    NA+10982   2.954   4.703   0.209
 7239ION    NA+10983   0.087   0.437   9.017
 7240ION    NA+10984   7.313   4.567   8.188
 7241ION    NA+10985   0.200   9.043   9.227
 7242ION    NA+10986   5.273   7.102  11.048
 7243ION    NA+10987   5.206   3.078   9.045
 7244ION    NA+10988   6.358   8.918  10.117
 7245ION    NA+10989   1.453   6.739   9.804
 7246ION    NA+10990   4.064   1.976  11.064
 7247ION    NA+10991   1.558   0.257   0.923
 7248ION    NA+10992   2.754   0.364  10.832
 7249ION    NA+10993   2.320   2.508   1.754
 7250ION    NA+10994   9.405   0.171   2.017
 7251ION    NA+10995   0.475   7.720   1.341
 7252ION    NA+10996   7.743   0.810   3.794
 7253ION    NA+10997   7.914   3.756   9.767
 7254ION    NA+10998   0.233   5.318  10.823
 7255ION    NA+10999   3.825   4.768  11.216
 7256ION    NA+11000   7.062   1.980   0.514
 7257ION    NA+11001   3.613   9.297   2.407
 7258ION    NA+11002   6.615   3.522   1.899
 7259ION    NA+11003   3.259   6.588   9.459
 7260ION    NA+11004   1.630   4.979   1.358
 7261ION    NA+11005  10.493  10.292   3.040
 7262ION    NA+11006   2.668   1.983  11.107
 7263ION    NA+11007   7.000  10.068   9.002
 7264ION    NA+11008   9.368   3.274   0.790
 7265ION    NA+11009   1.687   1.794  11.064
 7266ION    NA+11010   1.732   2.981   9.183
 7267ION    NA+11011   4.537   6.798   9.598
 7268ION    NA+11012   1.783   7.161  11.532
 7269ION    NA+11013   3.843   0.947   0.622
 7270ION    NA+11014   0.360   9.049   0.313
 7271ION    NA+11015   9.402   1.466  10.438
 7272ION    NA+11016   7.594   2.102  11.356
 7273ION    NA+11017   9.611   5.233   3.454
 7274ION    NA+11018   4.537   5.173   0.089
 7275ION    NA+11019   0.926   5.395   0.125
 7276ION    NA+11020  10.113   9.596   9.547
 7277ION    NA+11021   3.298   6.626   2.611
 7278ION    NA+11022   2.718   9.352   1.943
 7279ION    NA+11023   5.909   9.125  10.986
 7280ION    NA+11024   4.945   3.275   8.100
 7281ION    NA+11025   5.381   4.863   1.642
 7282ION    NA+11026   9.656   3.730  11.134
 7283ION    NA+11027   0.262   5.161   1.863
 7284ION    NA+11028   1.147  10.062  11.645
 7285ION    NA+11029   1.708   0.410  11.002
 7286ION    NA+11030   4.108   8.152   1.050
 7287ION    NA+11031   5.118   2.375   1.225
 7288ION    NA+11032   1.112   9.024  11.838
 7289ION    NA+11033   0.273   8.058   2.843
 7290ION    NA+11034   6.292   9.634   1.898
 7291ION    NA+11035   4.974   4.739   0.892
 7292ION    NA+11036   0.682   0.802   0.791
 7293ION    NA+11037   1.386   9.728   3.343
 7294ION    NA+11038   3.822   0.908  10.055
 7295ION    NA+11039   1.918   7.679   9.942
 7296ION    NA+11040   5.264   5.585  11.744
 7297ION    NA+11041   3.925   0.072   9.448
 7298ION    NA+11042   2.804   0.184   0.537
 7299ION    NA+11043   7.864   0.682   2.218
 7300ION    NA+11044   2.016   0.542   0.021
 7301ION    NA+11045   4.761   3.662   1.928
 7302ION    NA+11046   1.019   8.183  11.885
 7303ION    NA+11047   6.803   7.588   0.707
 7304ION    NA+11048   2.798   7.952   2.291
 7305ION    NA+11049   4.367   8.610   9.918
 7306ION    CL-11050   5.132   4.947   1.271
 7307ION    CL-11051   4.872   5.395  11.874
 7308ION    CL-11052   9.017   2.824  10.247
 7309ION    CL-11053   8.570   1.386   9.441
 7310ION    CL-11054  10.373   3.217   1.762
 7311ION    CL-11055   5.450   6.877   1.461
 7312ION    CL-11056   1.694  10.167   8.601
 7313ION    CL-11057   8.570   8.809   9.813
 7314ION    CL-11058   9.224   0.216  10.893
 7315ION    CL-11059   3.190   2.766   3.363
 7316ION    CL-11060   1.961   8.073   9.727
 7317ION    CL-11061   2.785   3.630   1.095
 7318ION    CL-11062   7.362  10.079   9.272
 7319ION    CL-11063   0.635   7.310   1.253
 7320ION    CL-11064   2.683   1.880  11.542
 7321ION    CL-11065   1.177   8.571  11.711
 7322ION    CL-11066   1.307   2.950  11.730
 7323ION    CL-11067   3.701   8.881   2.269
 7324ION    CL-11068   4.663   0.493   1.893
 7325ION    CL-11069   9.030   2.600   8.768
 7326ION    CL-11070   2.851   0.567   2.008
 7327ION    CL-11071   3.932   0.810   1.041
 7328ION    CL-11072   6.773   9.021   9.989
 7329ION    CL-11073   8.520   9.148   0.528
 7330ION    CL-11074   9.432   4.343   9.563
 7331ION    CL-11075   6.741   9.575   1.936
 7332ION    CL-11076   9.334   3.507  10.905
 7333ION    CL-11077   7.859   8.910  10.608
 7334ION    CL-11078   2.893   4.540   3.228
 7335ION    CL-11079   2.663   1.261   1.313
 7336ION    CL-11080   0.690   9.145   0.011
 7337ION    CL-11081   0.176   8.945   0.714
 7338ION    CL-11082   2.085   3.814   0.406
 7339ION    CL-11083   1.567   2.929   8.760
 7340ION    CL-11084   4.436  10.007  11.974
 7341ION    CL-11085   1.282   8.622   2.495
 7342ION    CL-11086   2.465   7.695   2.439
 7343ION    CL-11087   5.114   9.218   9.510
 7344ION    CL-11088   4.752   9.911  10.300
 7345ION    CL-11089   8.350   5.367   8.760
 7346ION    CL-11090   6.638   1.424   3.315
 7347ION    CL-11091  10.078   3.723  11.350
 7348ION    CL-11092   9.851   8.015   1.778
 7349ION    CL-11093   6.820   7.180   0.943
 7350ION    CL-11094   2.252   1.880   0.506
 7351ION    CL-11095   5.059   2.900   9.426
 7352ION    CL-11096  10.484   9.355   9.468
 7353ION    CL-11097   4.198   3.553   3.720
 7354ION    CL-11098   5.856   7.823   1.142
 7355ION    CL-11099   2.509   4.697   0.205
 7356ION    CL-11100   3.119   5.205   8.842
 7357ION    CL-11101   4.849   4.562  10.702
 7358ION    CL-11102   7.159   8.431   1.781
 7359ION    CL-11103   4.012   2.355  11.296
 7360ION    CL-11104   1.220   9.106  10.122
 7361ION    CL-11105   6.812   9.992   8.590
 7362ION    CL-11106   7.981   4.503   1.386
 7363ION    CL-11107   0.257  10.104   0.435
 7364ION    CL-11108   2.589   6.470  11.919
 7365ION    CL-11109   8.014   6.138   9.520
 7366ION    CL-11110   1.376   8.694   3.420
 7367ION    CL-11111   9.279   4.996   8.738
 7368ION    CL-11112   0.639   5.140  10.889
 7369ION    CL-11113   5.187   3.425   4.091
 7370ION    CL-11114   6.921   7.928   0.423
 7371ION    CL-11115   5.845   9.683   1.819
 7372ION    CL-11116   4.016   5.061  10.941
 7373ION    CL-11117   3.487   6.848   2.948
 7374ION    CL-11118   0.554   1.143   0.534
 7375ION    CL-11119   8.467   8.211  10.991
 7376ION    CL-11120   8.912   6.941  10.773
 7377ION    CL-11121   8.508  10.084   2.987
 7378ION    CL-11122   4.185   2.282   9.386
 7379ION    CL-11123   2.908   0.878   9.014
 7380ION    CL-11124   2.233   2.871   1.504
 7381ION    CL-11125   1.348   9.830  11.973
  10.50000  10.50000  12.00000
