generated by VMD, t= 0.000000
445
   22AUC    AUC    1   0.000   0.054   0.000
   23AUC    AUC    2   0.246   0.054  -0.152
   24AUC    AUC    3   0.246   0.054   0.151
   25AUC    AUC    4  -0.245   0.054  -0.152
   26AUC    AUC    5  -0.245   0.054   0.151
   27AUC    AUC    6  -0.151   0.299   0.000
   28AUC    AUC    7   0.152   0.299   0.000
   29AUC    AUC    8  -0.151  -0.192   0.000
   30AUC    AUC    9   0.152  -0.192   0.000
   31AUC    AUC   10   0.000  -0.098   0.245
   32AUC    AUC   11   0.000   0.205   0.245
   33AUC    AUC   12   0.000  -0.098  -0.246
   34AUC    AUC   13   0.000   0.205  -0.246
   35AUC    AUC   14   0.491   0.054  -0.304
   36AUC    AUC   15   0.491   0.054   0.000
   37AUC    AUC   16   0.491   0.054   0.303
   38AUC    AUC   17  -0.491   0.054  -0.304
   39AUC    AUC   18  -0.491   0.054   0.000
   40AUC    AUC   19  -0.491   0.054   0.303
   41AUC    AUC   20  -0.303   0.544   0.000
   42AUC    AUC   21   0.000   0.544   0.000
   43AUC    AUC   22   0.304   0.544   0.000
   44AUC    AUC   23  -0.303  -0.437   0.000
   45AUC    AUC   24   0.000  -0.437   0.000
   46AUC    AUC   25   0.304  -0.437   0.000
   47AUC    AUC   26   0.000  -0.250   0.491
   48AUC    AUC   27   0.000   0.054   0.491
   49AUC    AUC   28   0.000   0.357   0.491
   50AUC    AUC   29   0.000  -0.250  -0.491
   51AUC    AUC   30   0.000   0.054  -0.491
   52AUC    AUC   31   0.000   0.357  -0.491
   53AUC    AUC   32   0.246  -0.098   0.397
   54AUC    AUC   33   0.246   0.205   0.397
   55AUC    AUC   34   0.246  -0.098  -0.397
   56AUC    AUC   35   0.246   0.205  -0.397
   57AUC    AUC   36  -0.245  -0.098   0.397
   58AUC    AUC   37  -0.245   0.205   0.397
   59AUC    AUC   38  -0.245  -0.098  -0.397
   60AUC    AUC   39  -0.245   0.205  -0.397
   61AUC    AUC   40   0.397   0.299  -0.152
   62AUC    AUC   41   0.397   0.299   0.151
   63AUC    AUC   42  -0.397   0.299  -0.152
   64AUC    AUC   43  -0.397   0.299   0.151
   65AUC    AUC   44   0.397  -0.192  -0.152
   66AUC    AUC   45   0.397  -0.192   0.151
   67AUC    AUC   46  -0.397  -0.192  -0.152
   68AUC    AUC   47  -0.397  -0.192   0.151
   69AUC    AUC   48  -0.151   0.451   0.245
   70AUC    AUC   49   0.152   0.451   0.245
   71AUC    AUC   50  -0.151  -0.344   0.245
   72AUC    AUC   51   0.152  -0.344   0.245
   73AUC    AUC   52  -0.151   0.451  -0.246
   74AUC    AUC   53   0.152   0.451  -0.246
   75AUC    AUC   54  -0.151  -0.344  -0.246
   76AUC    AUC   55   0.152  -0.344  -0.246
    1AUSL   AUS   56   0.409   0.054   0.580
    2AUSL   AUS   57   0.265  -0.363   0.510
    3AUL    AUL   58   0.491  -0.250   0.794
    4THSLK  S     59   0.383  -0.551   0.656
    5ETHY   C1    60   0.479  -0.919   0.911
    7ETHY   C1    61   0.657  -1.302   1.253
    9ETHY   C1    62   0.899  -1.602   1.630
   11ETHY   C1    63   1.195  -1.821   2.033
   13THSLK  S     64   0.508   0.007   0.827
   14ETHY   C1    65   0.735  -0.143   1.194
   16ETHY   C1    66   1.019  -0.231   1.648
   18ETHY   C1    67   1.303  -0.209   2.107
   20ETHY   C1    68   1.580  -0.087   2.561
    1AUSL   AUS   69   0.164  -0.098   0.673
    2AUSL   AUS   70  -0.163   0.205   0.673
    3AUL    AUL   71   0.000   0.054   0.981
    4THSLK  S     72   0.245  -0.149   0.918
    5ETHY   C1    73   0.335  -0.367   1.310
    7ETHY   C1    74   0.463  -0.541   1.808
    9ETHY   C1    75   0.609  -0.606   2.323
   11ETHY   C1    76   0.766  -0.572   2.846
   13THSLK  S     77  -0.250   0.165   0.932
   14ETHY   C1    78  -0.339   0.091   1.374
   16ETHY   C1    79  -0.463   0.093   1.903
   18ETHY   C1    80  -0.608   0.202   2.411
   20ETHY   C1    81  -0.771   0.406   2.891
    1AUSL   AUS   82   0.164   0.205   0.673
    2AUSL   AUS   83   0.510   0.318   0.416
    3AUL    AUL   84   0.491   0.357   0.794
    4THSLK  S     85   0.251   0.257   0.916
    5ETHY   C1    86   0.339   0.474   1.309
    7ETHY   C1    87   0.464   0.647   1.808
    9ETHY   C1    88   0.609   0.713   2.323
   11ETHY   C1    89   0.772   0.680   2.844
   13THSLK  S     90   0.686   0.424   0.579
   14ETHY   C1    91   1.048   0.474   0.855
   16ETHY   C1    92   1.455   0.623   1.181
   18ETHY   C1    93   1.817   0.872   1.495
   20ETHY   C1    94   2.129   1.208   1.792
    1AUSL   AUS   95   0.409   0.054  -0.580
    2AUSL   AUS   96   0.265   0.470  -0.510
    3AUL    AUL   97   0.491   0.357  -0.794
    4THSLK  S     98   0.513   0.007  -0.824
    5ETHY   C1    99   0.740  -0.143  -1.192
    7ETHY   C1   100   1.019  -0.231  -1.649
    9ETHY   C1   101   1.303  -0.209  -2.107
   11ETHY   C1   102   1.585  -0.087  -2.559
   13THSLK  S    103   0.442   0.589  -0.680
   14ETHY   C1   104   0.714   0.730  -1.020
   16ETHY   C1   105   0.992   0.977  -1.415
   18ETHY   C1   106   1.208   1.310  -1.780
   20ETHY   C1   107   1.365   1.717  -2.109
    1AUSL   AUS  108   0.164  -0.098  -0.674
    2AUSL   AUS  109   0.510  -0.211  -0.417
    3AUL    AUL  110   0.491  -0.250  -0.794
    4THSLK  S    111   0.650  -0.402  -0.561
    5ETHY   C1   112   0.883  -0.719  -0.793
    7ETHY   C1   113   1.213  -1.026  -1.097
    9ETHY   C1   114   1.593  -1.235  -1.417
   11ETHY   C1   115   2.014  -1.352  -1.746
   13THSLK  S    116   0.251  -0.150  -0.917
   14ETHY   C1   117   0.339  -0.367  -1.309
   16ETHY   C1   118   0.464  -0.540  -1.808
   18ETHY   C1   119   0.609  -0.606  -2.324
   20ETHY   C1   120   0.772  -0.573  -2.844
    1AUSL   AUS  121   0.164   0.205  -0.674
    2AUSL   AUS  122  -0.163  -0.098  -0.674
    3AUL    AUL  123   0.000   0.054  -0.982
    4THSLK  S    124  -0.259  -0.150  -0.914
    5ETHY   C1   125  -0.398  -0.365  -1.294
    7ETHY   C1   126  -0.555  -0.536  -1.783
    9ETHY   C1   127  -0.694  -0.602  -2.301
   11ETHY   C1   128  -0.810  -0.571  -2.834
   13THSLK  S    129   0.266   0.166  -0.928
   14ETHY   C1   130   0.403   0.089  -1.358
   16ETHY   C1   131   0.556   0.089  -1.878
   18ETHY   C1   132   0.694   0.198  -2.388
   20ETHY   C1   133   0.817   0.405  -2.879
    1AUSL   AUS  134  -0.409   0.054   0.580
    2AUSL   AUS  135  -0.264   0.470   0.510
    3AUL    AUL  136  -0.491   0.357   0.794
    4THSLK  S    137  -0.513   0.007   0.824
    5ETHY   C1   138  -0.739  -0.143   1.191
    7ETHY   C1   139  -1.019  -0.231   1.648
    9ETHY   C1   140  -1.302  -0.209   2.107
   11ETHY   C1   141  -1.585  -0.087   2.558
   13THSLK  S    142  -0.387   0.603   0.701
   14ETHY   C1   143  -0.483   0.798   1.104
   16ETHY   C1   144  -0.656   1.079   1.534
   18ETHY   C1   145  -0.899   1.405   1.890
   20ETHY   C1   146  -1.200   1.764   2.170
    1AUSL   AUS  147  -0.163  -0.098   0.673
    2AUSL   AUS  148  -0.510  -0.211   0.416
    3AUL    AUL  149  -0.491  -0.250   0.794
    4THSLK  S    150  -0.689  -0.377   0.532
    5ETHY   C1   151  -1.050  -0.624   0.666
    7ETHY   C1   152  -1.455  -0.890   0.910
    9ETHY   C1   153  -1.816  -1.110   1.245
   11ETHY   C1   154  -2.132  -1.283   1.656
   13THSLK  S    155  -0.265  -0.148   0.913
   14ETHY   C1   156  -0.403  -0.363   1.292
   16ETHY   C1   157  -0.556  -0.536   1.783
   18ETHY   C1   158  -0.693  -0.602   2.300
   20ETHY   C1   159  -0.817  -0.570   2.831
    1AUSL   AUS  160  -0.409   0.054  -0.580
    2AUSL   AUS  161  -0.264  -0.363  -0.510
    3AUL    AUL  162  -0.491  -0.250  -0.794
    4THSLK  S    163  -0.508   0.007  -0.827
    5ETHY   C1   164  -0.735  -0.143  -1.195
    7ETHY   C1   165  -1.018  -0.231  -1.649
    9ETHY   C1   166  -1.302  -0.209  -2.107
   11ETHY   C1   167  -1.579  -0.087  -2.562
   13THSLK  S    168  -0.438  -0.538  -0.635
   14ETHY   C1   169  -0.710  -0.851  -0.827
   16ETHY   C1   170  -0.991  -1.199  -1.133
   18ETHY   C1   171  -1.208  -1.507  -1.520
   20ETHY   C1   172  -1.360  -1.774  -1.972
    1AUSL   AUS  173  -0.163   0.205  -0.674
    2AUSL   AUS  174  -0.510   0.318  -0.417
    3AUL    AUL  175  -0.491   0.357  -0.794
    4THSLK  S    176  -0.646   0.449  -0.608
    5ETHY   C1   177  -0.880   0.570  -0.982
    7ETHY   C1   178  -1.212   0.758  -1.368
    9ETHY   C1   179  -1.592   0.997  -1.667
   11ETHY   C1   180  -2.009   1.277  -1.882
   13THSLK  S    181  -0.244   0.167  -0.934
   14ETHY   C1   182  -0.334   0.092  -1.376
   16ETHY   C1   183  -0.462   0.093  -1.903
   18ETHY   C1   184  -0.608   0.202  -2.411
   20ETHY   C1   185  -0.765   0.408  -2.892
    1AUSL   AUS  186   0.580   0.463   0.000
    2AUSL   AUS  187   0.510   0.318  -0.417
    3AUL    AUL  188   0.794   0.544  -0.304
    4THSLK  S    189   0.690   0.425  -0.575
    5ETHY   C1   190   1.051   0.475  -0.852
    7ETHY   C1   191   1.455   0.623  -1.181
    9ETHY   C1   192   1.817   0.872  -1.495
   11ETHY   C1   193   2.133   1.209  -1.787
   13THSLK  S    194   0.850   0.524   0.003
   14ETHY   C1   195   1.297   0.624   0.002
   16ETHY   C1   196   1.799   0.830   0.000
   18ETHY   C1   197   2.246   1.132   0.000
   20ETHY   C1   198   2.634   1.516   0.003
    1AUSL   AUS  199   0.674   0.217  -0.152
    2AUSL   AUS  200   0.674  -0.110   0.151
    3AUL    AUL  201   0.982   0.054   0.000
    4THSLK  S    202   0.936   0.264  -0.156
    5ETHY   C1   203   1.386   0.233  -0.230
    7ETHY   C1   204   1.918   0.288  -0.321
    9ETHY   C1   205   2.425   0.451  -0.409
   11ETHY   C1   206   2.900   0.709  -0.489
   13THSLK  S    207   0.911  -0.247   0.159
   14ETHY   C1   208   1.282  -0.505   0.226
   16ETHY   C1   209   1.768  -0.731   0.308
   18ETHY   C1   210   2.287  -0.851   0.396
   20ETHY   C1   211   2.825  -0.873   0.489
    1AUSL   AUS  212   0.674   0.217   0.151
    2AUSL   AUS  213   0.417   0.564   0.264
    3AUL    AUL  214   0.794   0.544   0.303
    4THSLK  S    215   0.602   0.688   0.424
    5ETHY   C1   216   0.959   0.880   0.635
    7ETHY   C1   217   1.336   1.187   0.877
    9ETHY   C1   218   1.637   1.574   1.102
   11ETHY   C1   219   1.864   2.025   1.309
   13THSLK  S    220   0.935   0.263   0.161
   14ETHY   C1   221   1.386   0.233   0.234
   16ETHY   C1   222   1.919   0.288   0.321
   18ETHY   C1   223   2.425   0.451   0.408
   20ETHY   C1   224   2.899   0.709   0.495
    1AUSL   AUS  225  -0.580   0.463   0.000
    2AUSL   AUS  226  -0.510   0.318   0.416
    3AUL    AUL  227  -0.794   0.544   0.303
    4THSLK  S    228  -0.650   0.444   0.607
    5ETHY   C1   229  -0.883   0.565   0.981
    7ETHY   C1   230  -1.212   0.758   1.368
    9ETHY   C1   231  -1.592   0.997   1.666
   11ETHY   C1   232  -2.013   1.272   1.881
   13THSLK  S    233  -0.801   0.603   0.003
   14ETHY   C1   234  -1.090   0.958   0.002
   16ETHY   C1   235  -1.498   1.315   0.000
   18ETHY   C1   236  -1.968   1.579   0.000
   20ETHY   C1   237  -2.486   1.755   0.003
    1AUSL   AUS  238  -0.673   0.217  -0.152
    2AUSL   AUS  239  -0.416   0.564  -0.265
    3AUL    AUL  240  -0.794   0.544  -0.304
    4THSLK  S    241  -0.910   0.331  -0.197
    5ETHY   C1   242  -1.282   0.505  -0.399
    7ETHY   C1   243  -1.768   0.681  -0.564
    9ETHY   C1   244  -2.286   0.813  -0.632
   11ETHY   C1   245  -2.824   0.905  -0.610
   13THSLK  S    246  -0.536   0.731  -0.444
   14ETHY   C1   247  -0.688   1.050  -0.735
   16ETHY   C1   248  -0.942   1.430  -1.027
   18ETHY   C1   249  -1.275   1.798  -1.240
   20ETHY   C1   250  -1.671   2.148  -1.378
    1AUSL   AUS  251  -0.673   0.217   0.151
    2AUSL   AUS  252  -0.673  -0.110  -0.152
    3AUL    AUL  253  -0.981   0.054   0.000
    4THSLK  S    254  -0.935  -0.185  -0.116
    5ETHY   C1   255  -1.385  -0.236  -0.055
    7ETHY   C1   256  -1.918  -0.339  -0.066
    9ETHY   C1   257  -2.425  -0.489  -0.173
   11ETHY   C1   258  -2.898  -0.682  -0.365
   13THSLK  S    259  -0.911   0.325   0.199
   14ETHY   C1   260  -1.282   0.501   0.401
   16ETHY   C1   261  -1.768   0.680   0.563
   18ETHY   C1   262  -2.286   0.813   0.632
   20ETHY   C1   263  -2.825   0.899   0.613
    1AUSL   AUS  264   0.580  -0.356   0.000
    2AUSL   AUS  265   0.510  -0.211   0.416
    3AUL    AUL  266   0.794  -0.437   0.303
    4THSLK  S    267   0.801  -0.496   0.003
    5ETHY   C1   268   1.090  -0.851   0.002
    7ETHY   C1   269   1.499  -1.208   0.000
    9ETHY   C1   270   1.969  -1.472   0.000
   11ETHY   C1   271   2.486  -1.648   0.003
   13THSLK  S    272   0.647  -0.401   0.566
   14ETHY   C1   273   0.880  -0.718   0.797
   16ETHY   C1   274   1.213  -1.025   1.097
   18ETHY   C1   275   1.593  -1.235   1.417
   20ETHY   C1   276   2.010  -1.351   1.750
    1AUSL   AUS  277   0.674  -0.110  -0.152
    2AUSL   AUS  278   0.417  -0.457  -0.265
    3AUL    AUL  279   0.794  -0.437  -0.304
    4THSLK  S    280   0.912  -0.247  -0.154
    5ETHY   C1   281   1.283  -0.505  -0.221
    7ETHY   C1   282   1.768  -0.731  -0.308
    9ETHY   C1   283   2.287  -0.851  -0.397
   11ETHY   C1   284   2.826  -0.873  -0.483
   13THSLK  S    285   0.540  -0.648  -0.401
   14ETHY   C1   286   0.690  -1.050  -0.558
   16ETHY   C1   287   0.943  -1.480  -0.772
   18ETHY   C1   288   1.275  -1.836  -1.005
   20ETHY   C1   289   1.674  -2.117  -1.251
    1AUSL   AUS  290  -0.580  -0.356   0.000
    2AUSL   AUS  291  -0.510  -0.211  -0.417
    3AUL    AUL  292  -0.794  -0.437  -0.304
    4THSLK  S    293  -0.685  -0.382  -0.534
    5ETHY   C1   294  -1.047  -0.628  -0.667
    7ETHY   C1   295  -1.455  -0.891  -0.911
    9ETHY   C1   296  -1.816  -1.110  -1.245
   11ETHY   C1   297  -2.128  -1.288  -1.657
   13THSLK  S    298  -0.850  -0.417   0.003
   14ETHY   C1   299  -1.296  -0.517   0.002
   16ETHY   C1   300  -1.798  -0.723   0.000
   18ETHY   C1   301  -2.245  -1.025   0.000
   20ETHY   C1   302  -2.633  -1.409   0.003
    1AUSL   AUS  303  -0.673  -0.110   0.151
    2AUSL   AUS  304  -0.416  -0.457   0.264
    3AUL    AUL  305  -0.794  -0.437   0.303
    4THSLK  S    306  -0.604  -0.605   0.381
    5ETHY   C1   307  -0.960  -0.881   0.458
    7ETHY   C1   308  -1.335  -1.238   0.622
    9ETHY   C1   309  -1.636  -1.612   0.866
   11ETHY   C1   310  -1.867  -1.994   1.182
   13THSLK  S    311  -0.936  -0.180   0.118
   14ETHY   C1   312  -1.386  -0.232   0.057
   16ETHY   C1   313  -1.918  -0.338   0.066
   18ETHY   C1   314  -2.425  -0.489   0.173
   20ETHY   C1   315  -2.899  -0.677   0.367
    1AUSL   AUS  316   0.000   0.634   0.409
    2AUSL   AUS  317  -0.416   0.564   0.264
    3AUL    AUL  318  -0.303   0.848   0.491
    4THSLK  S    319  -0.539   0.726   0.448
    5ETHY   C1   320  -0.690   1.046   0.737
    7ETHY   C1   321  -0.943   1.429   1.027
    9ETHY   C1   322  -1.275   1.797   1.240
   11ETHY   C1   323  -1.674   2.143   1.381
   13THSLK  S    324   0.038   0.865   0.534
   14ETHY   C1   325   0.166   1.191   0.827
   16ETHY   C1   326   0.243   1.623   1.146
   18ETHY   C1   327   0.224   2.088   1.420
   20ETHY   C1   328   0.118   2.573   1.647
    1AUSL   AUS  329  -0.151   0.727   0.163
    2AUSL   AUS  330   0.152   0.727  -0.164
    3AUL    AUL  331   0.000   1.035   0.000
    4THSLK  S    332  -0.114   0.979   0.272
    5ETHY   C1   333  -0.041   1.403   0.429
    7ETHY   C1   334  -0.044   1.919   0.595
    9ETHY   C1   335  -0.152   2.430   0.729
   11ETHY   C1   336  -0.356   2.926   0.836
   13THSLK  S    337   0.203   0.967  -0.263
   14ETHY   C1   338   0.416   1.344  -0.409
   16ETHY   C1   339   0.586   1.833  -0.571
   18ETHY   C1   340   0.653   2.351  -0.708
   20ETHY   C1   341   0.624   2.885  -0.818
    1AUSL   AUS  342   0.152   0.727   0.163
    2AUSL   AUS  343   0.265   0.470   0.510
    3AUL    AUL  344   0.304   0.848   0.491
    4THSLK  S    345   0.438   0.587   0.683
    5ETHY   C1   346   0.711   0.728   1.022
    7ETHY   C1   347   0.992   0.977   1.415
    9ETHY   C1   348   1.208   1.310   1.779
   11ETHY   C1   349   1.360   1.715   2.113
   13THSLK  S    350   0.202   0.965   0.268
   14ETHY   C1   351   0.415   1.344   0.413
   16ETHY   C1   352   0.586   1.833   0.571
   18ETHY   C1   353   0.653   2.351   0.707
   20ETHY   C1   354   0.622   2.884   0.824
    1AUSL   AUS  355   0.000  -0.527   0.409
    2AUSL   AUS  356   0.417  -0.457   0.264
    3AUL    AUL  357   0.304  -0.741   0.491
    4THSLK  S    358  -0.041  -0.784   0.492
    5ETHY   C1   359  -0.168  -1.193   0.651
    7ETHY   C1   360  -0.242  -1.674   0.891
    9ETHY   C1   361  -0.223  -2.126   1.184
   11ETHY   C1   362  -0.121  -2.544   1.521
   13THSLK  S    363   0.537  -0.647   0.407
   14ETHY   C1   364   0.688  -1.049   0.562
   16ETHY   C1   365   0.943  -1.480   0.772
   18ETHY   C1   366   1.275  -1.836   1.005
   20ETHY   C1   367   1.671  -2.115   1.257
    1AUSL   AUS  368  -0.151  -0.620   0.163
    2AUSL   AUS  369  -0.264  -0.363   0.510
    3AUL    AUL  370  -0.303  -0.741   0.491
    4THSLK  S    371  -0.202  -0.865   0.244
    5ETHY   C1   372  -0.415  -1.264   0.312
    7ETHY   C1   373  -0.586  -1.767   0.425
    9ETHY   C1   374  -0.652  -2.281   0.572
   11ETHY   C1   375  -0.623  -2.796   0.752
   13THSLK  S    376  -0.442  -0.533   0.635
   14ETHY   C1   377  -0.714  -0.848   0.827
   16ETHY   C1   378  -0.992  -1.199   1.133
   18ETHY   C1   379  -1.208  -1.507   1.519
   20ETHY   C1   380  -1.364  -1.769   1.973
    1AUSL   AUS  381   0.152  -0.620   0.163
    2AUSL   AUS  382  -0.151  -0.620  -0.164
    3AUL    AUL  383   0.000  -0.928   0.000
    4THSLK  S    384  -0.201  -0.867  -0.239
    5ETHY   C1   385  -0.414  -1.265  -0.308
    7ETHY   C1   386  -0.586  -1.767  -0.424
    9ETHY   C1   387  -0.652  -2.281  -0.573
   11ETHY   C1   388  -0.621  -2.798  -0.746
   13THSLK  S    389   0.113  -0.879   0.248
   14ETHY   C1   390   0.041  -1.324   0.328
   16ETHY   C1   391   0.044  -1.853   0.448
   18ETHY   C1   392   0.153  -2.361   0.594
   20ETHY   C1   393   0.355  -2.839   0.764
    1AUSL   AUS  394   0.000   0.634  -0.409
    2AUSL   AUS  395   0.417   0.564  -0.265
    3AUL    AUL  396   0.304   0.848  -0.491
    4THSLK  S    397   0.042   0.868  -0.529
    5ETHY   C1   398   0.169   1.193  -0.824
    7ETHY   C1   399   0.243   1.623  -1.147
    9ETHY   C1   400   0.224   2.088  -1.420
   11ETHY   C1   401   0.121   2.576  -1.643
   13THSLK  S    402   0.604   0.689  -0.419
   14ETHY   C1   403   0.961   0.881  -0.631
   16ETHY   C1   404   1.336   1.187  -0.877
   18ETHY   C1   405   1.637   1.574  -1.102
   20ETHY   C1   406   1.867   2.026  -1.303
    1AUSL   AUS  407  -0.151   0.727  -0.164
    2AUSL   AUS  408  -0.264   0.470  -0.510
    3AUL    AUL  409  -0.303   0.848  -0.491
    4THSLK  S    410  -0.112   0.981  -0.267
    5ETHY   C1   411  -0.040   1.404  -0.426
    7ETHY   C1   412  -0.043   1.920  -0.594
    9ETHY   C1   413  -0.152   2.430  -0.730
   11ETHY   C1   414  -0.354   2.928  -0.830
   13THSLK  S    415  -0.383   0.607  -0.701
   14ETHY   C1   416  -0.479   0.801  -1.104
   16ETHY   C1   417  -0.656   1.079  -1.534
   18ETHY   C1   418  -0.899   1.404  -1.890
   20ETHY   C1   419  -1.195   1.769  -2.170
    1AUSL   AUS  420   0.000  -0.527  -0.409
    2AUSL   AUS  421  -0.416  -0.457  -0.265
    3AUL    AUL  422  -0.303  -0.741  -0.491
    4THSLK  S    423  -0.601  -0.610  -0.378
    5ETHY   C1   424  -0.958  -0.884  -0.456
    7ETHY   C1   425  -1.335  -1.238  -0.622
    9ETHY   C1   426  -1.637  -1.612  -0.867
   11ETHY   C1   427  -1.864  -1.999  -1.179
   13THSLK  S    428  -0.038  -0.787  -0.487
   14ETHY   C1   429  -0.166  -1.195  -0.648
   16ETHY   C1   430  -0.242  -1.674  -0.891
   18ETHY   C1   431  -0.223  -2.126  -1.185
   20ETHY   C1   432  -0.117  -2.547  -1.517
    1AUSL   AUS  433   0.152  -0.620  -0.164
    2AUSL   AUS  434   0.265  -0.363  -0.510
    3AUL    AUL  435   0.304  -0.741  -0.491
    4THSLK  S    436   0.115  -0.880  -0.242
    5ETHY   C1   437   0.042  -1.325  -0.325
    7ETHY   C1   438   0.044  -1.853  -0.448
    9ETHY   C1   439   0.152  -2.361  -0.595
   11ETHY   C1   440   0.357  -2.840  -0.758
   13THSLK  S    441   0.388  -0.553  -0.653
   14ETHY   C1   442   0.483  -0.921  -0.908
   16ETHY   C1   443   0.657  -1.302  -1.253
   18ETHY   C1   444   0.899  -1.602  -1.630
   20ETHY   C1   445   1.200  -1.823  -2.029
   9.29855   9.27900   9.28944   0.00000   0.00000   0.00000   0.00000   0.00000   0.00000
