Protein in INSANE! Membrane UpperLeaflet>POPC=1.0 LowerLeaflet>POPC=1.0
11125
    1AU     AUC    1   7.311   2.266   6.555  0.0770 -0.0094 -0.0185
    1AU     AUC    2   7.470   2.294   6.848  0.0183 -0.0223 -0.0434
    1AU     AUC    3   7.287   2.015   6.782 -0.0599 -0.0284  0.0423
    1AU     AUC    4   7.377   2.436   6.278 -0.0733 -0.0433 -0.0029
    1AU     AUC    5   7.125   2.179   6.294  0.0070 -0.0203  0.0441
    1AU     AUC    6   7.065   2.431   6.476  0.0150  0.0075  0.0659
    1AU     AUC    7   7.141   2.342   6.816 -0.0592  0.0871  0.0860
    1AU     AUC    8   7.490   2.136   6.307 -0.0431  0.0291 -0.0410
    1AU     AUC    9   7.572   2.034   6.615  0.0978  0.0611  0.0525
    1AU     AUC   10   7.282   1.923   6.466  0.0843 -0.0471  0.0609
    1AU     AUC   11   7.021   2.148   6.590  0.0160  0.0662 -0.0633
    1AU     AUC   12   7.624   2.366   6.544 -0.0141  0.0298 -0.0855
    1AU     AUC   13   7.393   2.538   6.667 -0.0452  0.0143 -0.0084
    1AU     AUC   14   7.658   2.375   7.184 -0.0169 -0.0413  0.0149
    1AU     AUC   15   7.463   2.067   7.112 -0.0177 -0.0128  0.0511
    1AU     AUC   16   7.205   1.794   7.030 -0.1028 -0.1258  0.0053
    1AU     AUC   17   7.411   2.678   6.022  0.0438 -0.0351 -0.0082
    1AU     AUC   18   7.164   2.392   6.003 -0.0472 -0.0161 -0.0154
    1AU     AUC   19   6.924   2.128   6.015  0.0618 -0.0213 -0.0427
    1AU     AUC   20   6.808   2.689   6.424  0.0957 -0.0086 -0.0366
    1AU     AUC   21   6.904   2.619   6.781 -0.0425 -0.0297  0.1113
    1AU     AUC   22   6.965   2.466   7.077  0.0292 -0.0455 -0.0455
    1AU     AUC   23   7.639   2.029   6.026 -0.0618 -0.0656  0.0691
    1AU     AUC   24   7.757   1.905   6.344 -0.0337  0.0333  0.0454
    1AU     AUC   25   7.842   1.805   6.677 -0.0261 -0.0386 -0.0382
    1AU     AUC   26   7.215   1.599   6.350 -0.0504 -0.0318  0.0300
    1AU     AUC   27   6.939   1.776   6.486  0.0195 -0.0295  0.0146
    1AU     AUC   28   6.709   2.007   6.646 -0.0791 -0.0428  0.0798
    1AU     AUC   29   7.937   2.477   6.540  0.0026  0.0438 -0.0331
    1AU     AUC   30   7.701   2.705   6.648 -0.0112 -0.0597 -0.0188
    1AU     AUC   31   7.426   2.884   6.736 -0.0911  0.0231  0.0511
    1AU     AUC   32   7.240   1.652   6.681  0.0210  0.0210  0.1186
    1AU     AUC   33   6.950   1.864   6.847 -0.0438 -0.0051  0.0525
    1AU     AUC   34   7.838   2.480   6.878  0.0097 -0.0085 -0.0101
    1AU     AUC   35   7.517   2.624   6.989 -0.0357  0.0531 -0.0241
    1AU     AUC   36   7.031   1.844   6.175 -0.0154 -0.0020 -0.0636
    1AU     AUC   37   6.745   2.071   6.314 -0.0004  0.0639  0.0991
    1AU     AUC   38   7.713   2.579   6.251 -0.0123 -0.0170 -0.0413
    1AU     AUC   39   7.466   2.782   6.346 -0.0264 -0.0299 -0.0458
    1AU     AUC   40   7.315   2.371   7.153  0.0213 -0.0769  0.0508
    1AU     AUC   41   7.095   2.110   7.067 -0.0748 -0.0028  0.0248
    1AU     AUC   42   7.103   2.652   6.211  0.0022 -0.0573  0.0162
    1AU     AUC   43   6.853   2.423   6.222  0.0706  0.0488 -0.0682
    1AU     AUC   44   7.758   2.101   6.922  0.0894  0.0208 -0.0511
    1AU     AUC   45   7.566   1.792   6.857 -0.0070 -0.0136  0.0108
    1AU     AUC   46   7.546   2.333   5.984  0.0640  0.0027  0.1054
    1AU     AUC   47   7.267   2.068   6.006  0.0464  0.0676  0.0028
    1AU     AUC   48   6.708   2.373   6.563  0.0448  0.0212  0.0124
    1AU     AUC   49   6.843   2.250   6.843  0.0259  0.0025 -0.0066
    1AU     AUC   50   7.442   1.799   6.186  0.0162  0.0551 -0.0153
    1AU     AUC   51   7.563   1.681   6.502  0.0627  0.0367 -0.0492
    1AU     AUC   52   7.149   2.785   6.560 -0.0829  0.1149  0.0601
    1AU     AUC   53   7.211   2.695   6.913  0.0022  0.0796  0.0229
    1AU     AUC   54   7.815   2.255   6.265  0.0963 -0.0048 -0.0127
    1AU     AUC   55   7.907   2.185   6.646 -0.0386  0.0582  0.0700
    1AU    AUSL   56   7.041   1.468   6.949 -0.0401 -0.0408  0.0048
    1AU    AUSL   57   7.347   1.336   6.626  0.0031 -0.0180 -0.0167
    1AU     AUL   58   7.262   1.187   6.963 -0.0021 -0.0541 -0.0711
    1AU       S   59   7.675   1.035   6.813  0.3539  0.0879 -0.1401
    1AU     LIG   60   7.735   0.772   6.442  0.0564  0.1165 -0.4463
    1AU     LIG   61   7.457   0.775   6.042 -0.0145  0.0635  0.0640
    1AU     LIG   62   7.654   0.999   5.726  0.4041 -0.0623 -0.0128
    1AU     LIG   63   7.655   0.893   5.261 -0.2996 -0.3358  0.0758
    1AU       S   64   6.841   1.006   6.771 -0.0601  0.0103 -0.1413
    1AU     LIG   65   6.474   0.769   6.628 -0.1343  0.0013  0.3156
    1AU     LIG   66   6.105   0.569   6.764 -0.1945  0.1433  0.2353
    1AU     LIG   67   5.882   0.169   6.952  0.0817 -0.2947  0.1097
    1AU     LIG   68   5.859  -0.206   7.105 -0.2259 -0.2880 -0.0207
    1AU    AUSL   69   6.944   1.382   6.514  0.0307  0.1021  0.0019
    1AU    AUSL   70   6.556   1.658   6.415 -0.0333  0.1002  0.0305
    1AU     AUL   71   6.574   1.302   6.544  0.0354  0.0037 -0.0227
    1AU       S   72   6.966   1.134   6.382 -0.3338  0.1328 -0.4769
    1AU     LIG   73   7.257   0.767   6.561  0.1791  0.1381 -0.2233
    1AU     LIG   74   7.535   0.436   6.814 -0.2043  0.3567 -0.0004
    1AU     LIG   75   7.712   0.036   6.658 -0.0748  0.1791 -0.1321
    1AU     LIG   76   7.702  -0.380   6.886  0.0515 -0.1157 -0.5729
    1AU       S   77   6.531   1.420   6.117 -0.0755  0.2984 -0.1030
    1AU     LIG   78   6.157   1.362   6.226 -0.1068  0.0832  0.0223
    1AU     LIG   79   5.813   1.128   6.117  0.1814 -0.2440 -0.1536
    1AU     LIG   80   5.696   0.682   5.975 -0.0981  0.0983 -0.5134
    1AU     LIG   81   5.364   0.483   5.643 -0.2796  0.3879  0.0312
    1AU    AUSL   82   6.816   1.776   6.711  0.0595  0.0228  0.0030
    1AU    AUSL   83   6.830   1.747   7.197 -0.0144 -0.0191 -0.0507
    1AU     AUL   84   6.702   1.468   6.976 -0.1260 -0.0287  0.0476
    1AU       S   85   6.296   1.630   6.793  0.2989  0.5529  0.0895
    1AU     LIG   86   5.950   1.830   6.898 -0.2716 -0.3532  0.2239
    1AU     LIG   87   5.685   1.466   6.987 -0.0431 -0.1345 -0.0274
    1AU     LIG   88   5.477   1.126   6.918 -0.1682  0.0403  0.2276
    1AU     LIG   89   5.068   1.081   6.994  0.5107  0.3264 -0.2560
    1AU       S   90   6.650   1.661   7.394  0.2261 -0.1725  0.0696
    1AU     LIG   91   6.612   1.289   7.606 -0.1206  0.0126  0.2190
    1AU     LIG   92   6.448   1.165   7.953 -0.3198  0.0614 -0.0798
    1AU     LIG   93   5.948   1.219   7.999  0.2093 -0.1373  0.0454
    1AU     LIG   94   5.740   0.858   7.820  0.1280 -0.3839 -0.1687
    1AU    AUSL   95   7.739   2.669   7.169 -0.0731  0.0369  0.0266
    1AU    AUSL   96   7.382   2.910   7.159 -0.1191 -0.0934  0.0225
    1AU     AUL   97   7.674   2.957   7.386 -0.0617  0.0124  0.0297
    1AU       S   98   7.909   3.217   7.086  0.4285  0.2917  0.2404
    1AU     LIG   99   8.096   3.142   7.598 -0.2511  0.2600  0.1750
    1AU     LIG  100   8.426   3.068   7.655  0.1860 -0.2791 -0.2048
    1AU     LIG  101   8.665   2.583   7.666  0.1326 -0.2217 -0.1256
    1AU     LIG  102   8.308   2.308   7.659 -0.1745  0.2146  0.3718
    1AU       S  103   7.130   2.937   7.577  0.0519  0.3759  0.1402
    1AU     LIG  104   6.793   3.303   7.397 -0.1452  0.0680  0.1695
    1AU     LIG  105   6.431   3.471   7.262 -0.2926  0.1547 -0.4171
    1AU     LIG  106   6.123   3.679   7.255 -0.2832  0.4090 -0.4484
    1AU     LIG  107   5.921   3.832   6.937 -0.1993 -0.4879  0.1175
    1AU    AUSL  108   8.052   2.787   6.901 -0.0874 -0.0511 -0.0951
    1AU    AUSL  109   8.050   2.383   7.198 -0.0696 -0.0769 -0.0263
    1AU     AUL  110   8.070   2.715   7.293  0.0487 -0.0569 -0.0801
    1AU       S  111   8.386   2.426   7.107  0.3401  0.2218  0.2040
    1AU     LIG  112   8.618   2.897   7.098 -0.0261  0.2807  0.0481
    1AU     LIG  113   8.979   3.180   7.145  0.0544  0.0288  0.4413
    1AU     LIG  114   9.085   3.620   7.007  0.0503  0.0585  0.0844
    1AU     LIG  115   9.446   4.038   7.153  0.0064  0.2239 -0.1062
    1AU       S  116   8.065   3.177   7.076  0.4961  0.3831  0.0575
    1AU     LIG  117   8.079   3.612   6.926 -0.1539  0.1394  0.0056
    1AU     LIG  118   8.031   3.884   6.634 -0.3041  0.0691  0.4127
    1AU     LIG  119   8.093   4.185   6.540  0.3275 -0.1449  0.4356
    1AU     LIG  120   8.167   4.565   6.478  0.1252 -0.2744  0.3062
    1AU    AUSL  121   7.645   2.916   6.818 -0.0649 -0.0922 -0.0103
    1AU    AUSL  122   7.965   2.768   6.481  0.0611  0.0807 -0.0240
    1AU     AUL  123   8.084   3.005   6.659 -0.0808 -0.0554  0.0723
    1AU       S  124   8.102   3.226   6.239  0.0776 -0.2142 -0.0366
    1AU     LIG  125   8.385   3.627   6.345  0.1605 -0.1186 -0.0135
    1AU     LIG  126   8.503   4.106   6.318 -0.1722  0.0908 -0.2767
    1AU     LIG  127   8.520   4.624   6.123 -0.1991 -0.0340 -0.1325
    1AU     LIG  128   8.616   4.957   5.827  0.0564 -0.1918  0.1043
    1AU       S  129   7.722   3.209   6.959  0.1494  0.0476 -0.5029
    1AU     LIG  130   7.603   3.525   6.772  0.3270  0.3200  0.1659
    1AU     LIG  131   7.604   3.913   6.950  0.2576 -0.0697 -0.0060
    1AU     LIG  132   7.322   4.193   7.074 -0.2530  0.1766 -0.1492
    1AU     LIG  133   7.000   4.461   7.289  0.0888  0.0003 -0.2496
    1AU    AUSL  134   6.633   1.880   6.036  0.1947  0.0493  0.0078
    1AU    AUSL  135   6.467   2.073   6.404  0.0810 -0.0472 -0.0404
    1AU     AUL  136   6.302   1.821   6.233  0.0463  0.0153  0.0099
    1AU       S  137   6.612   1.400   5.956  0.2999  0.0097 -0.0042
    1AU     LIG  138   6.238   1.578   5.776 -0.0356 -0.4059  0.4179
    1AU     LIG  139   5.849   1.645   5.927  0.2984  0.0015 -0.3811
    1AU     LIG  140   5.545   1.984   6.004  0.2633  0.0772  0.2331
    1AU     LIG  141   5.225   2.180   6.337 -0.1147 -0.1250  0.2703
    1AU       S  142   6.135   2.226   6.147 -0.0469 -0.0225  0.3234
    1AU     LIG  143   5.799   1.980   6.394 -0.0254 -0.0948 -0.0235
    1AU     LIG  144   5.506   1.830   6.602 -0.2230  0.0925  0.2699
    1AU     LIG  145   5.291   1.582   6.757 -0.0809 -0.1529  0.0368
    1AU     LIG  146   4.926   1.562   7.056  0.1105 -0.2976  0.0600
    1AU    AUSL  147   6.965   1.696   6.225 -0.0249 -0.0298  0.0100
    1AU    AUSL  148   6.996   1.760   5.796  0.0420  0.0405 -0.0970
    1AU     AUL  149   6.724   1.798   5.774 -0.0261 -0.0194  0.0319
    1AU       S  150   6.996   1.469   5.569 -0.1914 -0.0380  0.0218
    1AU     LIG  151   6.718   1.150   5.527 -0.1103  0.1059 -0.2688
    1AU     LIG  152   6.605   0.745   5.591  0.2187  0.1815  0.1374
    1AU     LIG  153   6.399   0.482   5.300  0.2781 -0.0917 -0.0564
    1AU     LIG  154   6.552   0.016   5.400  0.4404  0.2756 -0.0555
    1AU       S  155   6.737   1.385   6.084 -0.1152  0.0747  0.0802
    1AU     LIG  156   6.521   0.931   6.154  0.0022 -0.1984  0.0051
    1AU     LIG  157   6.056   0.824   6.359 -0.3739  0.0973 -0.1099
    1AU     LIG  158   5.679   0.840   6.537 -0.0994  0.1858 -0.1416
    1AU     LIG  159   5.235   0.799   6.610  0.0923  0.0426  0.0189
    1AU    AUSL  160   7.741   2.886   6.124  0.0583 -0.0365  0.0491
    1AU    AUSL  161   7.980   2.498   6.155 -0.0049  0.0481  0.0401
    1AU     AUL  162   8.138   2.759   6.220 -0.1507 -0.0384 -0.0246
    1AU       S  163   7.999   3.191   6.098 -0.2887  0.0023  0.4020
    1AU     LIG  164   8.205   3.470   5.854  0.1762 -0.4791  0.3725
    1AU     LIG  165   8.580   3.610   5.911 -0.4214 -0.2518  0.0914
    1AU     LIG  166   8.992   3.820   6.167  0.1029 -0.1456  0.1139
    1AU     LIG  167   9.330   4.194   6.163  0.0942  0.1351  0.2062
    1AU       S  168   8.130   2.678   5.737  0.1210  0.0138 -0.0964
    1AU     LIG  169   8.397   3.030   5.845 -0.0463  0.1325 -0.2312
    1AU     LIG  170   8.613   3.129   6.236 -0.1243  0.0297  0.0019
    1AU     LIG  171   8.849   3.484   6.566 -0.1499  0.5613 -0.0066
    1AU     LIG  172   9.360   3.752   6.548 -0.1189 -0.1657  0.1130
    1AU    AUSL  173   7.699   3.139   6.482  0.0155 -0.0145  0.0338
    1AU    AUSL  174   7.347   3.043   6.022  0.0048 -0.1177  0.0897
    1AU     AUL  175   7.556   3.264   6.189  0.0139 -0.0163  0.0725
    1AU       S  176   7.225   3.371   5.849 -0.0893 -0.1955 -0.3403
    1AU     LIG  177   7.200   3.663   5.577  0.0097 -0.0708  0.1149
    1AU     LIG  178   7.246   4.004   5.427 -0.0580  0.1965  0.2371
    1AU     LIG  179   7.097   4.434   5.382  0.0911 -0.1426  0.1181
    1AU     LIG  180   6.925   4.638   5.813  0.1602 -0.0286 -0.0396
    1AU       S  181   7.946   3.393   6.423  0.0836 -0.0332  0.0694
    1AU     LIG  182   7.905   3.725   6.163 -0.0776 -0.0166 -0.4075
    1AU     LIG  183   8.148   4.012   5.964 -0.1291  0.1908 -0.0467
    1AU     LIG  184   8.042   4.125   5.497  0.0381  0.0857 -0.0190
    1AU     LIG  185   8.132   4.457   5.191  0.3072 -0.0179  0.0593
    1AU    AUSL  186   7.101   2.273   7.466  0.0115 -0.0333 -0.0504
    1AU    AUSL  187   7.453   2.572   7.441 -0.1054 -0.0044 -0.0791
    1AU     AUL  188   7.245   2.432   7.760  0.0929  0.0175 -0.0701
    1AU       S  189   7.286   2.867   7.615  0.1184  0.4499  0.1007
    1AU     LIG  190   7.380   3.318   7.445 -0.3017 -0.3566  0.1667
    1AU     LIG  191   7.167   3.589   7.238  0.0283 -0.0207  0.1006
    1AU     LIG  192   6.897   3.900   7.051  0.0465  0.1848 -0.2103
    1AU     LIG  193   6.615   4.307   7.015 -0.2715  0.1659  0.1506
    1AU       S  194   7.120   1.964   7.798 -0.2135 -0.3901 -0.1037
    1AU     LIG  195   6.710   2.078   7.944  0.0412  0.0665 -0.2543
    1AU     LIG  196   6.273   1.944   7.999  0.0103 -0.2658 -0.0538
    1AU     LIG  197   5.963   1.976   8.364 -0.0761 -0.1708 -0.0949
    1AU     LIG  198   5.840   1.854   8.764  0.1013  0.2046 -0.3059
    1AU    AUSL  199   7.523   2.160   7.464  0.0703 -0.0142  0.0254
    1AU    AUSL  200   7.595   1.742   7.324 -0.0409  0.0161 -0.0760
    1AU     AUL  201   7.777   1.962   7.639 -0.0808  0.0403  0.0702
    1AU       S  202   7.309   1.922   7.749 -0.0609  0.1922 -0.0807
    1AU     LIG  203   7.548   1.544   7.887  0.2383 -0.2109  0.2581
    1AU     LIG  204   7.841   1.136   7.965  0.1881 -0.1456 -0.3228
    1AU     LIG  205   8.066   0.750   8.242  0.3419 -0.3054 -0.1754
    1AU     LIG  206   8.556   0.596   8.228 -0.0696  0.2911  0.2637
    1AU       S  207   7.904   1.537   7.489  0.1069  0.4258 -0.1300
    1AU     LIG  208   8.194   1.136   7.554 -0.1641 -0.0850  0.1428
    1AU     LIG  209   8.074   0.744   7.642  0.0089  0.0508  0.0538
    1AU     LIG  210   7.642   0.636   7.731 -0.0264  0.1099  0.1179
    1AU     LIG  211   7.249   0.630   8.042  0.1135 -0.1096  0.0011
    1AU    AUSL  212   7.215   1.927   7.255  0.0064  0.0279  0.0272
    1AU    AUSL  213   6.854   2.182   7.133 -0.0133  0.0112 -0.0080
    1AU     AUL  214   6.846   2.060   7.453  0.0220  0.0421 -0.0073
    1AU       S  215   6.451   1.895   7.496  0.3147 -0.0107  0.2138
    1AU     LIG  216   6.037   2.119   7.336  0.1247 -0.2331 -0.0435
    1AU     LIG  217   5.764   1.691   7.416  0.4324 -0.1599  0.1340
    1AU     LIG  218   5.787   1.266   7.459  0.5737 -0.4472 -0.0929
    1AU     LIG  219   6.123   1.087   7.562  0.2055 -0.0205 -0.0072
    1AU       S  220   7.197   1.755   7.525 -0.0344  0.0531 -0.4437
    1AU     LIG  221   7.070   1.323   7.470  0.3692 -0.0239 -0.0958
    1AU     LIG  222   6.935   0.928   7.348  0.3557 -0.0334  0.2090
    1AU     LIG  223   6.932   0.595   7.039 -0.0216 -0.0923 -0.1640
    1AU     LIG  224   6.784   0.320   6.690  0.0933  0.0551  0.2647
    1AU    AUSL  225   6.739   2.735   6.130  0.0560  0.0394  0.0503
    1AU    AUSL  226   6.679   2.295   6.076 -0.0774 -0.0555 -0.1564
    1AU     AUL  227   6.452   2.642   5.916 -0.0165  0.0681 -0.0707
    1AU       S  228   6.258   2.197   5.968  0.1288  0.4819  0.1904
    1AU     LIG  229   6.198   2.069   5.644 -0.3305 -0.0021 -0.0708
    1AU     LIG  230   6.148   2.042   5.287 -0.0237  0.2274 -0.1142
    1AU     LIG  231   6.043   1.971   4.825 -0.1051  0.0355 -0.2578
    1AU     LIG  232   5.752   2.071   4.571 -0.0320 -0.0145  0.3641
    1AU       S  233   6.488   3.024   6.225  0.2076  0.3375 -0.4426
    1AU     LIG  234   6.214   3.356   6.148 -0.1372 -0.0674  0.3530
    1AU     LIG  235   6.072   3.774   6.408  0.0846  0.0631 -0.2205
    1AU     LIG  236   6.038   4.099   6.322  0.1562  0.1050 -0.3091
    1AU     LIG  237   5.888   4.509   6.233  0.2289  0.0572 -0.0020
    1AU    AUSL  238   7.140   2.687   5.968 -0.0088 -0.0178  0.0595
    1AU    AUSL  239   6.971   3.045   6.261  0.0698  0.0563  0.0089
    1AU     AUL  240   6.945   2.997   5.892  0.0361 -0.0713 -0.0512
    1AU       S  241   7.471   2.923   5.606  0.3105 -0.7253 -0.0523
    1AU     LIG  242   7.113   3.127   5.404  0.0540  0.1574 -0.1802
    1AU     LIG  243   6.782   3.287   5.552 -0.2698 -0.1494  0.0118
    1AU     LIG  244   6.656   3.636   5.767  0.1446 -0.5071  0.0035
    1AU     LIG  245   6.421   3.793   5.949  0.3799  0.0910  0.1834
    1AU       S  246   6.821   3.356   6.232 -0.1581 -0.3972 -0.1789
    1AU     LIG  247   6.652   3.691   6.381  0.0688 -0.2543  0.4754
    1AU     LIG  248   6.813   4.071   6.520 -0.1372  0.0762 -0.0284
    1AU     LIG  249   7.132   4.382   6.630 -0.2359 -0.2325  0.2609
    1AU     LIG  250   7.070   4.701   6.283  0.1335  0.1858 -0.0290
    1AU    AUSL  251   6.854   2.441   5.744 -0.0072 -0.0472 -0.0709
    1AU    AUSL  252   7.302   2.487   5.633  0.0728  0.0989 -0.0618
    1AU     AUL  253   7.079   2.661   5.595 -0.0398 -0.0898 -0.0492
    1AU       S  254   7.149   2.229   5.377 -0.1245 -0.2597  0.1670
    1AU     LIG  255   6.765   2.379   5.089  0.0630  0.2828  0.1770
    1AU     LIG  256   6.385   2.493   5.099  0.0553  0.2324 -0.1367
    1AU     LIG  257   6.374   2.841   4.923  0.1718  0.0948 -0.1735
    1AU     LIG  258   6.185   3.277   4.878 -0.6287  0.0539 -0.1752
    1AU       S  259   6.607   2.382   5.551  0.1837 -0.1424  0.2691
    1AU     LIG  260   6.157   2.572   5.529 -0.1095 -0.2554 -0.2138
    1AU     LIG  261   5.890   2.862   5.707  0.1489 -0.0112 -0.1325
    1AU     LIG  262   5.793   3.258   5.834 -0.0407  0.0696 -0.0431
    1AU     LIG  263   5.718   3.529   6.159  0.3081 -0.0465  0.0261
    1AU    AUSL  264   7.860   1.729   6.986 -0.0336  0.0161 -0.0000
    1AU    AUSL  265   7.432   1.629   6.936  0.0217 -0.0229 -0.0108
    1AU     AUL  266   7.523   1.459   7.218 -0.0847  0.0106 -0.0089
    1AU       S  267   8.022   1.565   7.084  0.1459 -0.3709  0.1669
    1AU     LIG  268   8.279   1.309   6.986  0.2133 -0.1698 -0.0743
    1AU     LIG  269   8.173   0.857   7.060  0.0601  0.2741  0.4900
    1AU     LIG  270   8.074   0.493   6.817  0.1801 -0.2493 -0.0686
    1AU     LIG  271   8.015   0.350   6.434 -0.1101 -0.3064  0.0885
    1AU       S  272   7.767   1.154   6.974 -0.1167 -0.3668  0.3364
    1AU     LIG  273   7.694   1.087   7.444 -0.0829  0.1664  0.2551
    1AU     LIG  274   7.314   0.960   7.716 -0.0561  0.2615  0.5119
    1AU     LIG  275   7.012   1.139   7.906 -0.0757 -0.0051 -0.0414
    1AU     LIG  276   6.997   1.478   7.968 -0.1446 -0.4617  0.2829
    1AU    AUSL  277   7.745   2.106   7.117 -0.0291  0.0495 -0.0032
    1AU    AUSL  278   8.167   2.028   6.946 -0.0379 -0.0385 -0.0333
    1AU     AUL  279   8.068   2.043   7.247  0.0674 -0.0305 -0.0370
    1AU       S  280   8.063   1.600   7.390 -0.3812 -0.0164 -0.3366
    1AU     LIG  281   8.431   1.779   7.395  0.2036 -0.0601  0.1930
    1AU     LIG  282   8.657   1.703   6.982 -0.2050  0.1896 -0.3996
    1AU     LIG  283   8.816   2.032   6.730  0.0088  0.0194 -0.0286
    1AU     LIG  284   9.037   2.287   6.371 -0.0009  0.2555  0.0493
    1AU       S  285   8.503   2.241   7.119 -0.0807  0.4856  0.2430
    1AU     LIG  286   8.846   2.152   7.329  0.1721 -0.2387 -0.1647
    1AU     LIG  287   9.263   2.146   7.363  0.2754  0.0944 -0.5283
    1AU     LIG  288   9.561   1.841   7.254 -0.1488  0.2843 -0.5419
    1AU     LIG  289   9.551   1.386   7.116  0.4714  0.1596  0.5083
    1AU    AUSL  290   7.534   2.136   5.659  0.0305 -0.0175  0.0867
    1AU    AUSL  291   7.627   2.566   5.874  0.0306  0.0591  0.0502
    1AU     AUL  292   7.603   2.438   5.472  0.0833  0.0378  0.0414
    1AU       S  293   7.895   2.701   5.722  0.0393  0.2832  0.5638
    1AU     LIG  294   7.970   3.128   5.527  0.2324  0.2741  0.0448
    1AU     LIG  295   7.660   3.372   5.700 -0.0244 -0.0229 -0.2227
    1AU     LIG  296   7.551   3.787   5.893 -0.2179  0.1875  0.1471
    1AU     LIG  297   7.629   4.133   5.709  0.1753 -0.1917  0.0580
    1AU       S  298   7.293   2.166   5.250  0.1755 -0.1943  0.0274
    1AU     LIG  299   7.566   2.466   4.915  0.0356  0.2360  0.1343
    1AU     LIG  300   7.763   2.618   4.535 -0.2998  0.1857  0.5557
    1AU     LIG  301   7.689   2.934   4.204  0.0145  0.3538 -0.2328
    1AU     LIG  302   7.473   2.858   3.825 -0.3767 -0.3988 -0.1398
    1AU    AUSL  303   7.126   2.155   5.858  0.0790 -0.0200 -0.0445
    1AU    AUSL  304   7.398   1.819   5.935 -0.0054 -0.1060 -0.0791
    1AU     AUL  305   7.339   1.847   5.616 -0.0899 -0.0537 -0.0325
    1AU       S  306   7.202   1.399   5.590 -0.4851 -0.0637  0.5274
    1AU     LIG  307   7.522   1.404   5.289 -0.0893 -0.2003  0.0977
    1AU     LIG  308   7.926   1.371   4.974 -0.1539  0.3046 -0.4991
    1AU     LIG  309   8.192   1.662   5.035  0.2708  0.0161  0.2363
    1AU     LIG  310   8.625   1.891   5.175 -0.0989  0.1009 -0.0985
    1AU       S  311   6.988   2.096   5.444  0.1760 -0.3846 -0.0701
    1AU     LIG  312   7.043   1.770   5.182  0.3833  0.0220 -0.0372
    1AU     LIG  313   7.050   1.274   5.121  0.0550  0.0541 -0.4010
    1AU     LIG  314   7.029   0.840   4.960 -0.1050  0.1706 -0.1721
    1AU     LIG  315   6.670   0.519   4.858 -0.0905  0.1931 -0.2574
    1AU    AUSL  316   6.539   2.313   6.757  0.0553 -0.0176  0.0728
    1AU    AUSL  317   6.477   2.509   6.381 -0.0210 -0.0286  0.0146
    1AU     AUL  318   6.239   2.188   6.604 -0.0326  0.0085 -0.0430
    1AU       S  319   6.204   2.570   6.288 -0.0483 -0.0061 -0.0277
    1AU     LIG  320   6.035   2.864   6.267 -0.2934 -0.3000 -0.1182
    1AU     LIG  321   5.636   2.976   6.238  0.0282 -0.2191 -0.2888
    1AU     LIG  322   5.219   3.076   6.501 -0.5785 -0.4737 -0.2032
    1AU     LIG  323   4.910   2.850   6.676 -0.2788 -0.1330  0.2484
    1AU       S  324   6.153   2.470   6.979  0.2648  0.1396  0.0307
    1AU     LIG  325   5.791   2.369   6.807  0.1078 -0.0635 -0.0924
    1AU     LIG  326   5.512   2.187   6.877  0.1111 -0.5196  0.1086
    1AU     LIG  327   5.071   2.218   6.852  0.0169  0.2547  0.2765
    1AU     LIG  328   4.788   2.288   6.629  0.0565  0.1187 -0.1781
    1AU    AUSL  329   6.541   2.758   6.722 -0.0472  0.0364  0.0284
    1AU    AUSL  330   6.882   2.915   7.015  0.0239 -0.0237 -0.0061
    1AU     AUL  331   6.545   3.009   7.079 -0.1304  0.0530 -0.0125
    1AU       S  332   6.254   2.725   6.776  0.1164  0.0034  0.3609
    1AU     LIG  333   5.798   2.861   6.721  0.0361 -0.1596 -0.2010
    1AU     LIG  334   5.713   3.208   6.654 -0.4771 -0.2727 -0.0408
    1AU     LIG  335   5.574   3.633   6.665 -0.0719  0.1212 -0.2184
    1AU     LIG  336   5.356   3.835   7.024 -0.0003  0.4264 -0.2061
    1AU       S  337   6.764   3.306   6.845 -0.1770 -0.1551  0.3431
    1AU     LIG  338   6.488   3.674   6.840  0.3215  0.2497  0.5938
    1AU     LIG  339   6.347   4.071   6.696 -0.0534  0.3167 -0.0783
    1AU     LIG  340   6.142   4.493   6.611 -0.0141 -0.2272 -0.3967
    1AU     LIG  341   5.854   4.747   6.768  0.2344 -0.1724  0.1220
    1AU    AUSL  342   6.649   2.558   7.106  0.0215 -0.0260 -0.0202
    1AU    AUSL  343   6.524   1.953   6.966 -0.0119  0.0843 -0.0249
    1AU     AUL  344   6.507   2.230   7.149  0.0125  0.0123  0.1004
    1AU       S  345   6.371   1.775   7.279  0.3082 -0.1215  0.1498
    1AU     LIG  346   6.292   1.343   7.180  0.1657 -0.3051 -0.0457
    1AU     LIG  347   5.971   1.201   6.735 -0.0394 -0.0616  0.0196
    1AU     LIG  348   5.707   1.398   6.497 -0.1373 -0.0126 -0.1788
    1AU     LIG  349   5.358   1.280   6.312 -0.2949  0.2404  0.0386
    1AU       S  350   6.287   2.635   7.130 -0.3788  0.2763 -0.1133
    1AU     LIG  351   5.880   2.783   7.213 -0.3352  0.3560 -0.0363
    1AU     LIG  352   5.450   2.935   7.172 -0.3423  0.0672  0.0950
    1AU     LIG  353   5.239   3.295   6.922  0.1613 -0.2863 -0.2359
    1AU     LIG  354   5.011   3.496   6.595 -0.0224 -0.0159 -0.2183
    1AU    AUSL  355   7.518   1.536   6.270 -0.0454 -0.0645 -0.1101
    1AU    AUSL  356   7.743   1.497   6.646  0.0356  0.1103 -0.0250
    1AU     AUL  357   7.533   1.179   6.401 -0.0088 -0.0604  0.0024
    1AU       S  358   7.916   1.150   6.163  0.1031 -0.4462  0.2014
    1AU     LIG  359   7.963   0.703   6.024 -0.2550  0.2898 -0.1065
    1AU     LIG  360   8.393   0.612   6.300 -0.4283 -0.1880  0.0124
    1AU     LIG  361   8.795   0.367   6.355  0.4182  0.5092 -0.0117
    1AU     LIG  362   9.190   0.103   6.128  0.2542  0.0412 -0.0014
    1AU       S  363   7.887   1.222   6.698 -0.0558  0.3880  0.0609
    1AU     LIG  364   8.235   1.039   6.556  0.2155 -0.1681 -0.4353
    1AU     LIG  365   8.603   0.988   6.766 -0.0128  0.1131  0.1479
    1AU     LIG  366   8.617   0.942   7.168 -0.1541  0.1387 -0.0375
    1AU     LIG  367   8.712   1.287   7.405 -0.1895 -0.0211 -0.1782
    1AU    AUSL  368   7.794   1.699   5.901  0.0006 -0.0500  0.0292
    1AU    AUSL  369   7.197   1.420   6.034 -0.0060 -0.0549 -0.0679
    1AU     AUL  370   7.564   1.421   5.920  0.0656  0.0975  0.0104
    1AU       S  371   8.002   1.299   5.950 -0.5806  0.2704  0.0959
    1AU     LIG  372   8.151   0.999   5.692  0.0378 -0.1982  0.1683
    1AU     LIG  373   8.416   0.663   5.779  0.0225  0.2724  0.1529
    1AU     LIG  374   8.859   0.769   6.046  0.1103  0.1101  0.0786
    1AU     LIG  375   9.029   0.873   6.487 -0.2311 -0.3517  0.0252
    1AU       S  376   7.117   1.292   5.817 -0.2435 -0.2024 -0.2535
    1AU     LIG  377   6.982   0.931   5.919 -0.1981 -0.0192  0.1030
    1AU     LIG  378   6.849   0.545   6.254  0.2704 -0.2237 -0.1030
    1AU     LIG  379   7.242   0.301   6.431 -0.0755 -0.0550 -0.0725
    1AU     LIG  380   7.609   0.255   6.159 -0.1968  0.1974  0.1477
    1AU    AUSL  381   7.939   1.592   6.305 -0.0533 -0.0509  0.0234
    1AU    AUSL  382   7.919   2.013   6.186 -0.0673 -0.0663 -0.0842
    1AU     AUL  383   8.098   1.761   5.947 -0.0400 -0.0330  0.0007
    1AU       S  384   8.419   1.790   6.302 -0.1504 -0.2262  0.1600
    1AU     LIG  385   8.952   1.764   6.312 -0.0745 -0.3379  0.0683
    1AU     LIG  386   9.425   1.884   6.278 -0.2044 -0.1862  0.0378
    1AU     LIG  387   9.795   2.076   6.469 -0.0984 -0.2922 -0.2556
    1AU     LIG  388   9.993   2.499   6.443  0.2264 -0.0346  0.1939
    1AU       S  389   8.098   1.347   6.256  0.1861 -0.4071 -0.0659
    1AU     LIG  390   8.491   1.127   6.117 -0.2944  0.0161  0.0953
    1AU     LIG  391   8.960   1.257   6.148 -0.1716 -0.1513  0.1083
    1AU     LIG  392   9.395   1.094   6.296 -0.0283  0.0191 -0.2532
    1AU     LIG  393   9.683   0.767   6.486  0.0764  0.0462  0.0893
    1AU    AUSL  394   7.232   3.101   6.804 -0.0305  0.0509  0.0606
    1AU    AUSL  395   7.100   2.607   7.200 -0.0319 -0.0319  0.0213
    1AU     AUL  396   7.120   3.069   7.134  0.0345  0.0570 -0.0617
    1AU       S  397   6.943   3.467   6.825  0.2580  0.0438 -0.3104
    1AU     LIG  398   7.181   3.748   6.588 -0.2679  0.2504  0.1942
    1AU     LIG  399   7.525   4.061   6.477 -0.1396  0.0254 -0.2589
    1AU     LIG  400   7.803   4.238   6.191  0.0347  0.0981  0.3097
    1AU     LIG  401   7.982   4.476   5.854  0.0445 -0.2409 -0.4389
    1AU       S  402   6.991   2.773   7.513 -0.4019 -0.4490 -0.0616
    1AU     LIG  403   6.549   2.800   7.569 -0.0103  0.2263  0.3510
    1AU     LIG  404   6.198   3.111   7.522 -0.1338  0.0016  0.0861
    1AU     LIG  405   5.876   3.406   7.691 -0.0375 -0.0451 -0.0969
    1AU     LIG  406   5.650   3.771   7.522  0.0152 -0.4209  0.1387
    1AU    AUSL  407   6.939   2.838   6.612 -0.0346 -0.0337  0.0502
    1AU    AUSL  408   7.345   2.930   6.426  0.1598 -0.0822  0.0001
    1AU     AUL  409   7.181   3.233   6.509 -0.0630  0.0116  0.1196
    1AU       S  410   6.728   3.200   6.665  0.4580  0.2879  0.4172
    1AU     LIG  411   6.306   3.277   6.639 -0.1413 -0.1510 -0.1938
    1AU     LIG  412   6.080   3.205   7.036  0.1304 -0.1450  0.1967
    1AU     LIG  413   5.721   3.380   7.162 -0.0197  0.0630  0.3011
    1AU     LIG  414   5.240   3.313   7.426 -0.0620 -0.0304  0.0067
    1AU       S  415   7.154   3.479   6.130  0.1614 -0.1049  0.3788
    1AU     LIG  416   7.091   3.820   6.034  0.3096  0.0159 -0.4809
    1AU     LIG  417   7.185   4.274   6.049 -0.5182  0.2940 -0.1780
    1AU     LIG  418   7.485   4.625   5.985 -0.3912 -0.1114 -0.0861
    1AU     LIG  419   7.728   4.795   6.343  0.0986 -0.2554  0.2737
    1AU    AUSL  420   8.225   2.253   6.397 -0.0292 -0.0457  0.0504
    1AU    AUSL  421   7.909   2.226   5.826 -0.0584  0.0817 -0.0849
    1AU     AUL  422   8.219   2.226   6.034  0.0369 -0.0093 -0.0355
    1AU       S  423   8.074   2.415   5.615  0.2411 -0.1741 -0.0865
    1AU     LIG  424   8.260   2.245   5.378 -0.1845 -0.2135  0.1226
    1AU     LIG  425   8.277   1.816   5.534 -0.4018 -0.3349  0.3539
    1AU     LIG  426   8.484   1.391   5.529  0.2946  0.2917  0.0685
    1AU     LIG  427   8.775   1.100   5.704  0.4511 -0.2213 -0.3601
    1AU       S  428   8.473   1.925   6.295  0.0891 -0.0664  0.3061
    1AU     LIG  429   8.648   2.069   5.915  0.3536  0.2990 -0.2380
    1AU     LIG  430   8.846   1.648   5.804 -0.1263 -0.0035  0.2688
    1AU     LIG  431   9.215   1.643   5.785  0.2073  0.3039  0.1063
    1AU     LIG  432   9.537   1.540   5.913 -0.0879  0.0147 -0.0575
    1AU    AUSL  433   8.009   1.907   6.576 -0.0575  0.0900  0.0049
    1AU    AUSL  434   8.055   2.397   6.744  0.0744  0.0247 -0.0338
    1AU     AUL  435   8.341   2.112   6.700  0.0497  0.0238 -0.0452
    1AU       S  436   8.318   1.711   6.562 -0.0219 -0.2475 -0.2942
    1AU     LIG  437   8.675   1.410   6.526 -0.0146 -0.0305  0.0818
    1AU     LIG  438   9.083   1.359   6.738 -0.1014  0.2274  0.2963
    1AU     LIG  439   9.373   1.738   6.791 -0.0514  0.0219 -0.1933
    1AU     LIG  440   9.400   2.074   6.791  0.3290  0.1725 -0.1622
    1AU       S  441   8.441   2.523   6.941 -0.5393  0.1304 -0.1284
    1AU     LIG  442   8.603   2.520   6.508 -0.4816 -0.4217 -0.0216
    1AU     LIG  443   8.593   2.552   6.096  0.1412  0.1177 -0.0772
    1AU     LIG  444   8.578   2.616   5.677 -0.2940  0.2336 -0.1082
    1AU     LIG  445   8.367   2.762   5.321  0.2215 -0.1692 -0.2138
    2POPC   NC3  446   3.035   0.595   8.500  0.0973  0.0054 -0.1504
    2POPC   PO4  447   2.659   0.602   8.253 -0.0013 -0.1446 -0.1817
    2POPC   GL1  448   2.915   0.749   8.005 -0.1342 -0.0410 -0.0791
    2POPC   GL2  449   3.133   0.966   8.069  0.0267 -0.2579  0.1364
    2POPC   C1A  450   3.040   0.654   7.661  0.3059 -0.2192  0.3576
    2POPC   D2A  451   3.410   0.954   7.517  0.1701  0.1989  0.1030
    2POPC   C3A  452   3.807   0.944   7.545 -0.1788  0.4296  0.0977
    2POPC   C4A  453   4.175   1.182   7.413  0.2464  0.0169 -0.0263
    2POPC   C1B  454   2.996   1.145   7.635  0.0874  0.2040 -0.3676
    2POPC   C2B  455   3.019   1.067   7.144  0.0262  0.1272 -0.2572
    2POPC   C3B  456   3.002   1.038   6.726  0.3036  0.2430 -0.2489
    2POPC   C4B  457   3.244   1.203   6.268 -0.0760 -0.0633 -0.1062
    3POPC   NC3  458   0.733   0.620   8.855  0.2129 -0.1120 -0.3227
    3POPC   PO4  459   0.930   0.248   8.568 -0.0403 -0.3247 -0.0263
    3POPC   GL1  460   0.962   0.314   8.058 -0.0026  0.0592 -0.0335
    3POPC   GL2  461   1.058   0.534   7.965  0.0077 -0.1265 -0.2189
    3POPC   C1A  462   0.780   0.149   7.729 -0.1761  0.0519  0.0960
    3POPC   D2A  463   0.834   0.209   7.256 -0.2063  0.0953 -0.0886
    3POPC   C3A  464   0.406   0.320   7.097 -0.2778 -0.0913 -0.1717
    3POPC   C4A  465   0.082   0.553   6.860 -0.0504  0.0721  0.2097
    3POPC   C1B  466   1.247   0.393   7.618 -0.1831 -0.4531  0.0274
    3POPC   C2B  467   1.350   0.341   7.141 -0.1171 -0.0197 -0.1213
    3POPC   C3B  468   1.642   0.044   6.858  0.0244 -0.2282  0.0840
    3POPC   C4B  469   2.134  -0.077   6.664 -0.0706  0.1299  0.0779
    4POPC   NC3  470   1.935   3.103   8.788  0.1163 -0.0401 -0.1999
    4POPC   PO4  471   1.820   2.757   8.385  0.2224  0.0681  0.1744
    4POPC   GL1  472   1.845   2.795   7.998 -0.0807 -0.0350  0.0121
    4POPC   GL2  473   2.039   3.075   7.965  0.0274 -0.0471 -0.1265
    4POPC   C1A  474   1.721   2.600   7.618  0.0786 -0.2091 -0.2466
    4POPC   D2A  475   1.613   2.373   7.265 -0.3450 -0.1185  0.0175
    4POPC   C3A  476   1.510   2.519   6.821 -0.0663 -0.0996 -0.0310
    4POPC   C4A  477   1.680   2.658   6.459 -0.0528 -0.3292  0.0863
    4POPC   C1B  478   2.181   2.913   7.628  0.1374  0.2023 -0.0248
    4POPC   C2B  479   2.587   3.080   7.485  0.1856  0.0955 -0.4743
    4POPC   C3B  480   2.506   3.360   7.088  0.1313 -0.0416  0.0090
    4POPC   C4B  481   2.372   3.357   6.717 -0.2028  0.0813  0.0479
    5POPC   NC3  482   5.989   6.685   8.465 -0.0197  0.1908 -0.4191
    5POPC   PO4  483   5.675   6.512   8.656  0.1527  0.0424  0.1098
    5POPC   GL1  484   5.617   6.524   8.115  0.0072  0.1622 -0.0673
    5POPC   GL2  485   5.856   6.280   8.053  0.3113 -0.0191 -0.1941
    5POPC   C1A  486   5.848   6.614   7.699  0.0660 -0.1659 -0.2734
    5POPC   D2A  487   6.089   6.731   7.422 -0.0586  0.2544  0.4567
    5POPC   C3A  488   5.865   6.768   7.049 -0.0178  0.3495  0.1718
    5POPC   C4A  489   5.670   6.620   6.701 -0.1366  0.0213  0.1737
    5POPC   C1B  490   5.660   6.012   7.659 -0.2824  0.2542  0.1687
    5POPC   C2B  491   5.278   6.004   7.513 -0.2635  0.2743 -0.0193
    5POPC   C3B  492   5.175   5.970   7.003 -0.0403  0.5250 -0.3268
    5POPC   C4B  493   5.174   5.841   6.536  0.0191 -0.1042  0.1470
    6POPC   NC3  494   4.527   4.411   8.976 -0.2450  0.0152  0.3798
    6POPC   PO4  495   4.186   4.735   8.773 -0.0733  0.1990 -0.0124
    6POPC   GL1  496   4.149   4.449   8.413 -0.0815  0.0066 -0.4585
    6POPC   GL2  497   4.551   4.384   8.446  0.1523 -0.0786 -0.0362
    6POPC   C1A  498   4.232   4.418   8.036  0.1203  0.1392  0.3217
    6POPC   D2A  499   4.267   4.332   7.700 -0.1151  0.2812  0.3037
    6POPC   C3A  500   4.255   4.703   7.411 -0.5251 -0.0338 -0.0693
    6POPC   C4A  501   4.560   5.049   7.181  0.0331 -0.0298  0.0095
    6POPC   C1B  502   4.560   4.041   8.095 -0.0880  0.2183  0.2138
    6POPC   C2B  503   4.749   3.917   7.659 -0.2761  0.0827 -0.2941
    6POPC   C3B  504   4.830   3.682   7.315  0.2638  0.0161  0.0244
    6POPC   C4B  505   4.786   3.803   6.922 -0.0030 -0.1010 -0.1376
    7POPC   NC3  506   4.740   9.223   8.957 -0.2530  0.1824 -0.2128
    7POPC   PO4  507   4.619   9.626   8.790  0.1059 -0.0611 -0.0922
    7POPC   GL1  508   4.731   9.907   8.536 -0.3974  0.0338  0.1138
    7POPC   GL2  509   4.786   9.758   8.283 -0.2935 -0.0767 -0.1914
    7POPC   C1A  510   4.788  10.279   8.201  0.0466 -0.0766  0.0385
    7POPC   D2A  511   4.910  10.208   7.671  0.2867  0.2924  0.2571
    7POPC   C3A  512   5.014  10.435   7.215 -0.1227  0.3438 -0.1134
    7POPC   C4A  513   4.769  10.549   6.852 -0.1255 -0.1170 -0.3548
    7POPC   C1B  514   4.708   9.743   7.897 -0.1319  0.2999 -0.2668
    7POPC   C2B  515   4.928   9.351   7.488  0.1096  0.0944 -0.2940
    7POPC   C3B  516   5.011   9.398   7.072  0.0464 -0.1413 -0.0287
    7POPC   C4B  517   4.762   9.306   6.757  0.0034  0.3374  0.3688
    8POPC   NC3  518   9.492   6.841   8.164 -0.0616  0.1133  0.0881
    8POPC   PO4  519   9.895   6.826   8.278 -0.0211  0.0628  0.3728
    8POPC   GL1  520   9.910   6.961   7.852  0.0252 -0.0475  0.1396
    8POPC   GL2  521  10.190   7.087   7.724 -0.1111 -0.0327 -0.0557
    8POPC   C1A  522   9.753   6.860   7.429 -0.0657 -0.0843  0.1786
    8POPC   D2A  523   9.489   6.545   7.115  0.1978  0.0497  0.3156
    8POPC   C3A  524   9.672   6.277   6.927 -0.2441 -0.1387 -0.0486
    8POPC   C4A  525   9.847   5.908   6.818  0.2309  0.2992  0.4703
    8POPC   C1B  526  10.359   7.119   7.315 -0.0913 -0.2775  0.2909
    8POPC   C2B  527  10.160   6.909   7.090 -0.1426  0.0917  0.1989
    8POPC   C3B  528   9.922   6.663   6.814 -0.0099 -0.1199  0.0243
    8POPC   C4B  529   9.875   6.329   6.482 -0.0269 -0.1955  0.0051
    9POPC   NC3  530   4.842   5.842   8.730  0.0978 -0.2103 -0.0604
    9POPC   PO4  531   4.761   5.405   8.565  0.0240 -0.2183 -0.1685
    9POPC   GL1  532   4.819   5.310   8.075 -0.2156 -0.0197  0.1337
    9POPC   GL2  533   4.950   4.959   8.146  0.0265 -0.1379 -0.1622
    9POPC   C1A  534   4.649   5.467   7.684 -0.1654  0.4029 -0.1751
    9POPC   D2A  535   4.634   5.501   7.257  0.1834 -0.1350 -0.3205
    9POPC   C3A  536   4.403   5.822   7.187 -0.2635  0.1472 -0.0260
    9POPC   C4A  537   3.971   5.907   7.112  0.0985  0.0529  0.0527
    9POPC   C1B  538   4.683   4.579   7.981  0.1597  0.2710  0.0695
    9POPC   C2B  539   4.724   4.428   7.547 -0.0180  0.3138 -0.0851
    9POPC   C3B  540   4.889   4.192   7.262  0.3076 -0.0358 -0.1305
    9POPC   C4B  541   5.164   4.383   6.888 -0.0999 -0.0191 -0.1843
   10POPC   NC3  542   4.977   7.576   8.446  0.1526 -0.3410  0.0758
   10POPC   PO4  543   5.396   7.626   8.406  0.1986 -0.2976 -0.1219
   10POPC   GL1  544   5.418   7.325   8.079 -0.1188 -0.3221  0.0561
   10POPC   GL2  545   5.480   7.426   7.759 -0.1653 -0.0387 -0.2748
   10POPC   C1A  546   5.490   6.909   7.819  0.0645  0.2907 -0.0547
   10POPC   D2A  547   5.221   6.782   7.482  0.2870  0.2321  0.3211
   10POPC   C3A  548   5.336   6.419   7.186 -0.2201 -0.2967 -0.0301
   10POPC   C4A  549   5.194   6.415   6.777  0.0172 -0.1577  0.2584
   10POPC   C1B  550   5.678   7.595   7.427 -0.0551 -0.2971 -0.1240
   10POPC   C2B  551   5.960   7.736   7.060  0.2850 -0.4155  0.2007
   10POPC   C3B  552   6.169   7.807   6.653 -0.1416  0.1024 -0.0261
   10POPC   C4B  553   6.188   7.994   6.362  0.0759 -0.1707 -0.1371
   11POPC   NC3  554   4.732   1.992   8.929 -0.2969  0.3255 -0.0311
   11POPC   PO4  555   4.335   1.831   8.728  0.1199  0.1037  0.3648
   11POPC   GL1  556   4.428   1.993   8.261  0.1061  0.0782  0.1332
   11POPC   GL2  557   4.320   2.322   8.247 -0.2352  0.0690 -0.0613
   11POPC   C1A  558   4.556   2.009   7.812  0.1467 -0.0703 -0.1528
   11POPC   D2A  559   4.903   2.056   7.515  0.0417 -0.0779 -0.4996
   11POPC   C3A  560   4.719   1.986   7.065 -0.2409  0.0022 -0.0082
   11POPC   C4A  561   4.535   1.651   6.782 -0.1178  0.1765  0.0004
   11POPC   C1B  562   4.597   2.584   7.982 -0.2137  0.2863 -0.2529
   11POPC   C2B  563   4.594   3.034   7.857 -0.0122  0.1379 -0.3518
   11POPC   C3B  564   4.849   3.451   7.719  0.0262  0.0930 -0.0076
   11POPC   C4B  565   5.243   3.691   7.705  0.1047  0.2554  0.0821
   12POPC   NC3  566   2.311   2.607   8.162 -0.0229  0.0350  0.1359
   12POPC   PO4  567   2.401   2.156   8.335 -0.0999 -0.1909 -0.0070
   12POPC   GL1  568   2.329   2.076   7.910  0.1416 -0.0419 -0.0692
   12POPC   GL2  569   2.287   1.893   7.780  0.3694 -0.2337  0.0211
   12POPC   C1A  570   2.155   2.267   7.473 -0.1396  0.2094  0.1070
   12POPC   D2A  571   2.092   2.650   7.169  0.1731 -0.1258 -0.2518
   12POPC   C3A  572   2.452   2.785   6.945  0.3501 -0.2587  0.1356
   12POPC   C4A  573   2.777   2.976   6.834  0.3271 -0.0036 -0.1690
   12POPC   C1B  574   2.314   1.826   7.381  0.2948  0.2009 -0.2965
   12POPC   C2B  575   2.371   1.803   7.007 -0.0695  0.0954 -0.2034
   12POPC   C3B  576   2.146   1.718   6.708  0.0137  0.2696 -0.0357
   12POPC   C4B  577   1.816   1.638   6.335  0.0379  0.0469  0.1806
   13POPC   NC3  578   5.213   9.700   8.644 -0.1223 -0.0282 -0.0834
   13POPC   PO4  579   4.930   9.320   8.503  0.0904  0.0140 -0.1181
   13POPC   GL1  580   5.329   9.348   8.239  0.5187 -0.2131  0.4038
   13POPC   GL2  581   5.189   9.596   8.075 -0.1781  0.2239  0.0349
   13POPC   C1A  582   5.333   9.222   7.797 -0.0236 -0.1481 -0.5076
   13POPC   D2A  583   5.434   9.427   7.340  0.0415 -0.1294  0.0102
   13POPC   C3A  584   5.475   9.316   6.969  0.1017 -0.0376 -0.3293
   13POPC   C4A  585   5.847   9.306   6.611 -0.0985  0.2247 -0.0215
   13POPC   C1B  586   5.184   9.774   7.637  0.0682 -0.0203  0.0182
   13POPC   C2B  587   4.875   9.872   7.272 -0.1369 -0.3261  0.1558
   13POPC   C3B  588   4.803  10.009   6.944 -0.2018  0.2068 -0.0104
   13POPC   C4B  589   4.965  10.217   6.532 -0.3074 -0.2664 -0.2904
   14POPC   NC3  590   0.236   5.803   8.503 -0.3423  0.1470 -0.1561
   14POPC   PO4  591   0.282   5.900   8.088  0.0915 -0.0364  0.0771
   14POPC   GL1  592   0.265   5.797   7.725 -0.2345 -0.0417 -0.0651
   14POPC   GL2  593   0.546   5.771   7.599  0.1519  0.0337  0.1052
   14POPC   C1A  594   0.188   5.470   7.452 -0.1012  0.2163  0.0887
   14POPC   D2A  595  -0.040   5.298   7.114  0.5214 -0.1151 -0.2003
   14POPC   C3A  596   0.089   5.089   6.900 -0.1149 -0.2455  0.1206
   14POPC   C4A  597  -0.106   4.881   6.581 -0.0988 -0.1341  0.0121
   14POPC   C1B  598   0.583   6.218   7.454  0.1229  0.2124 -0.2555
   14POPC   C2B  599   0.601   6.440   7.156  0.1768  0.4917 -0.1992
   14POPC   C3B  600   0.387   6.259   6.792  0.0655  0.4374 -0.0370
   14POPC   C4B  601   0.491   6.053   6.493 -0.0759  0.0219 -0.1592
   15POPC   NC3  602   0.938   6.479   8.445 -0.2873 -0.2551 -0.0562
   15POPC   PO4  603   0.784   6.902   8.369 -0.1301  0.2195  0.1257
   15POPC   GL1  604   0.822   6.956   7.986  0.1036  0.2029 -0.2739
   15POPC   GL2  605   0.836   7.354   7.943  0.3232  0.3176 -0.0931
   15POPC   C1A  606   0.800   6.837   7.565  0.0820  0.0143  0.3237
   15POPC   D2A  607   0.953   6.883   7.099  0.0077  0.0058  0.1751
   15POPC   C3A  608   0.618   7.085   6.766  0.0189  0.1846 -0.2446
   15POPC   C4A  609   0.215   7.153   6.611  0.1534 -0.1432  0.0885
   15POPC   C1B  610   0.793   7.362   7.600  0.4486 -0.2340  0.0365
   15POPC   C2B  611   0.584   7.634   7.511  0.1789 -0.2439 -0.1954
   15POPC   C3B  612   0.217   7.813   7.433 -0.1875  0.0001  0.2826
   15POPC   C4B  613   0.153   8.264   7.499 -0.1681 -0.2219  0.0196
   16POPC   NC3  614   3.403   2.730   8.502 -0.0030  0.1372 -0.3524
   16POPC   PO4  615   3.829   2.914   8.690 -0.0552  0.0186  0.1753
   16POPC   GL1  616   3.997   2.782   8.241 -0.1545  0.0769 -0.2570
   16POPC   GL2  617   3.746   2.525   8.132  0.1918 -0.0780 -0.0012
   16POPC   C1A  618   4.091   2.739   7.837  0.0008  0.3005 -0.0921
   16POPC   D2A  619   4.378   2.836   7.465 -0.1447 -0.0940 -0.3092
   16POPC   C3A  620   4.751   2.533   7.491  0.0472 -0.0600  0.2165
   16POPC   C4A  621   5.140   2.516   7.243 -0.0392 -0.2976 -0.5616
   16POPC   C1B  622   3.629   2.987   7.878 -0.1390  0.0087 -0.1000
   16POPC   C2B  623   3.455   3.163   7.512 -0.2651 -0.0980  0.2684
   16POPC   C3B  624   3.588   3.031   7.060 -0.0559 -0.1316 -0.2189
   16POPC   C4B  625   3.568   3.103   6.687  0.1074 -0.0545 -0.2403
   17POPC   NC3  626   8.826   1.791   9.526  0.1409 -0.2039  0.0350
   17POPC   PO4  627   8.941   1.602   9.165 -0.0245 -0.1436  0.1795
   17POPC   GL1  628   8.738   1.601   8.758 -0.3784  0.2084 -0.1061
   17POPC   GL2  629   9.009   1.464   8.499  0.1563  0.2461 -0.0031
   17POPC   C1A  630   8.532   1.158   8.432  0.2392  0.0322  0.0480
   17POPC   D2A  631   8.357   1.095   8.002 -0.1994  0.1896 -0.2440
   17POPC   C3A  632   8.590   0.774   7.719  0.1215  0.5395  0.6362
   17POPC   C4A  633   8.994   0.617   7.809 -0.1387 -0.0244 -0.0871
   17POPC   C1B  634   8.972   1.117   8.146  0.1627 -0.1311  0.2689
   17POPC   C2B  635   9.174   1.122   7.705 -0.0843 -0.1497 -0.0509
   17POPC   C3B  636   9.181   1.093   7.268 -0.0254 -0.0043  0.3127
   17POPC   C4B  637   9.380   0.968   6.866 -0.0798  0.0578 -0.1762
   18POPC   NC3  638   7.617   4.218   9.416  0.0857 -0.2173 -0.3541
   18POPC   PO4  639   7.788   4.553   9.029  0.1791 -0.1928 -0.1134
   18POPC   GL1  640   7.543   4.420   8.567 -0.0971  0.0876  0.0349
   18POPC   GL2  641   7.245   4.644   8.508 -0.3135  0.1405  0.0872
   18POPC   C1A  642   7.691   4.535   8.061 -0.0806 -0.1235 -0.1222
   18POPC   D2A  643   7.832   4.683   7.678 -0.1250 -0.0127  0.0973
   18POPC   C3A  644   7.965   4.409   7.362 -0.3129 -0.0643  0.0171
   18POPC   C4A  645   7.995   4.168   7.034  0.0166  0.0102 -0.0256
   18POPC   C1B  646   7.084   4.381   8.177  0.2494  0.0896 -0.2471
   18POPC   C2B  647   6.995   4.252   7.813  0.2181 -0.1285 -0.2098
   18POPC   C3B  648   7.135   4.056   7.534  0.0160 -0.2973  0.1068
   18POPC   C4B  649   7.572   4.058   7.455 -0.1703  0.1948  0.0815
   19POPC   NC3  650   3.419   8.052   8.479  0.1932  0.0951  0.1819
   19POPC   PO4  651   3.752   8.159   8.303  0.2685 -0.0681  0.1326
   19POPC   GL1  652   3.541   8.171   7.880 -0.1026  0.1923  0.3613
   19POPC   GL2  653   3.786   8.231   7.827 -0.0494 -0.0965 -0.2946
   19POPC   C1A  654   3.471   8.048   7.480 -0.0058  0.1488  0.1503
   19POPC   D2A  655   3.114   8.083   7.182  0.1187  0.1881 -0.0702
   19POPC   C3A  656   2.888   8.466   7.307 -0.1816 -0.1582 -0.0264
   19POPC   C4A  657   2.743   8.628   7.701  0.0551  0.3570 -0.0186
   19POPC   C1B  658   3.861   8.441   7.476  0.1136  0.0769 -0.3673
   19POPC   C2B  659   3.865   8.716   7.113  0.2325 -0.3383  0.0740
   19POPC   C3B  660   3.633   8.912   6.727  0.3171 -0.1293 -0.2789
   19POPC   C4B  661   3.362   9.168   6.621  0.0005 -0.2082 -0.0066
   20POPC   NC3  662   1.812   5.646   8.310  0.0051 -0.0512  0.1878
   20POPC   PO4  663   1.721   6.021   8.330 -0.0689 -0.3057  0.0749
   20POPC   GL1  664   1.920   5.974   7.916  0.2969  0.2758  0.1919
   20POPC   GL2  665   2.150   5.856   8.014  0.0168  0.0474 -0.1843
   20POPC   C1A  666   2.094   6.260   7.689 -0.2404  0.1541  0.3976
   20POPC   D2A  667   2.495   6.453   7.580 -0.0221  0.1966 -0.0363
   20POPC   C3A  668   2.619   6.686   7.230 -0.2151  0.0966  0.2713
   20POPC   C4A  669   2.544   7.087   7.018  0.1939 -0.1602  0.1030
   20POPC   C1B  670   2.393   5.861   7.617  0.0378 -0.1940 -0.1044
   20POPC   C2B  671   2.424   6.128   7.213  0.1695 -0.0125 -0.1190
   20POPC   C3B  672   2.219   6.092   6.845 -0.0549  0.0825 -0.0096
   20POPC   C4B  673   2.318   5.973   6.317  0.2927  0.0397  0.0385
   21POPC   NC3  674   7.430   3.523   9.861  0.2584  0.0967 -0.1114
   21POPC   PO4  675   7.183   3.235   9.837 -0.0249  0.0162 -0.3069
   21POPC   GL1  676   7.292   3.147   9.389 -0.2854 -0.2546  0.0907
   21POPC   GL2  677   7.680   3.188   9.454 -0.1831  0.0695 -0.1756
   21POPC   C1A  678   7.454   3.055   8.994 -0.4297 -0.1297 -0.2561
   21POPC   D2A  679   7.636   3.109   8.652 -0.0477  0.0688  0.0284
   21POPC   C3A  680   7.514   3.402   8.268  0.0786  0.1074  0.0477
   21POPC   C4A  681   7.200   3.309   7.920  0.2005  0.2717  0.2572
   21POPC   C1B  682   7.722   3.460   8.998 -0.1138  0.1283 -0.2309
   21POPC   C2B  683   7.757   3.744   8.535 -0.0255 -0.1505  0.3781
   21POPC   C3B  684   7.659   4.058   8.226 -0.0890  0.3019 -0.2551
   21POPC   C4B  685   7.470   4.134   7.981 -0.1707  0.1420 -0.1623
   22POPC   NC3  686   1.062   5.571   8.346  0.1429 -0.0648  0.2067
   22POPC   PO4  687   1.194   6.028   8.267  0.0305  0.1725  0.0757
   22POPC   GL1  688   1.408   5.923   7.959 -0.1233  0.0971  0.0040
   22POPC   GL2  689   1.490   6.236   7.883  0.3231 -0.0809  0.0827
   22POPC   C1A  690   1.167   5.947   7.554 -0.1854  0.2614  0.4425
   22POPC   D2A  691   1.137   6.301   7.209  0.0852  0.2921  0.0521
   22POPC   C3A  692   1.251   6.593   7.522  0.0904 -0.0270 -0.3581
   22POPC   C4A  693   1.272   7.032   7.764  0.3921  0.1177 -0.0799
   22POPC   C1B  694   1.679   5.951   7.542  0.0684  0.4378  0.0082
   22POPC   C2B  695   1.532   5.611   7.447 -0.2862  0.2773 -0.1465
   22POPC   C3B  696   1.396   5.233   7.120 -0.2712  0.1140  0.0119
   22POPC   C4B  697   1.096   5.130   6.698  0.2871 -0.1664 -0.1014
   23POPC   NC3  698   9.241   6.357   8.334  0.1783 -0.2432  0.2618
   23POPC   PO4  699   8.840   6.687   8.185  0.0619 -0.2061 -0.0946
   23POPC   GL1  700   8.900   6.364   7.896 -0.0748 -0.0049  0.4327
   23POPC   GL2  701   9.193   6.120   7.809  0.1844  0.0179  0.1507
   23POPC   C1A  702   9.174   6.477   7.531  0.2249 -0.2948 -0.0961
   23POPC   D2A  703   8.969   6.566   7.075 -0.1776 -0.3783  0.0138
   23POPC   C3A  704   9.036   6.527   6.633 -0.1602 -0.3860  0.0065
   23POPC   C4A  705   8.965   6.316   6.190  0.2033 -0.0400  0.1912
   23POPC   C1B  706   8.831   6.104   7.420 -0.2506  0.2669 -0.0513
   23POPC   C2B  707   8.606   5.848   7.093 -0.1360 -0.1826 -0.1213
   23POPC   C3B  708   8.254   5.915   6.787  0.0336 -0.1047 -0.0667
   23POPC   C4B  709   8.368   5.826   6.301  0.1154 -0.0027 -0.1976
   24POPC   NC3  710   5.180   2.056   9.693 -0.1068 -0.0159 -0.2485
   24POPC   PO4  711   5.191   2.274   9.330  0.2261 -0.3297 -0.1254
   24POPC   GL1  712   5.200   2.154   8.784 -0.0793 -0.0247 -0.1482
   24POPC   GL2  713   5.514   2.158   8.907  0.2042 -0.0838  0.0774
   24POPC   C1A  714   5.428   1.919   8.482  0.0005 -0.0650  0.1710
   24POPC   D2A  715   5.535   1.619   8.114  0.0944 -0.1104 -0.2006
   24POPC   C3A  716   5.809   1.659   7.887 -0.0974 -0.1069 -0.0997
   24POPC   C4A  717   6.214   1.555   7.697  0.1320  0.1094  0.1406
   24POPC   C1B  718   5.621   2.364   8.548 -0.1949 -0.2364 -0.1699
   24POPC   C2B  719   5.476   2.246   8.130  0.2165 -0.0848  0.1460
   24POPC   C3B  720   5.468   2.475   7.741  0.1765  0.0878  0.0938
   24POPC   C4B  721   5.611   2.424   7.330 -0.2758  0.2390  0.2778
   25POPC   NC3  722   6.038   2.507  10.097  0.0799  0.2439 -0.0492
   25POPC   PO4  723   5.912   2.115  10.007  0.5134 -0.1084 -0.1495
   25POPC   GL1  724   6.214   2.240   9.658  0.1039  0.1946  0.1455
   25POPC   GL2  725   6.480   1.908   9.641  0.2936 -0.1825  0.1138
   25POPC   C1A  726   6.518   2.516   9.367 -0.1240  0.2973 -0.2484
   25POPC   D2A  727   6.668   2.592   8.955 -0.4032  0.0255 -0.1144
   25POPC   C3A  728   6.527   2.922   8.721 -0.0215  0.3788 -0.2183
   25POPC   C4A  729   6.367   2.883   8.175 -0.1074  0.0715  0.0867
   25POPC   C1B  730   6.697   1.630   9.305 -0.1256  0.0005  0.0845
   25POPC   C2B  731   6.936   1.265   9.082 -0.2100  0.2176  0.0446
   25POPC   C3B  732   7.153   1.157   8.664  0.0848  0.2085 -0.0186
   25POPC   C4B  733   7.007   0.853   8.417  0.0918 -0.1979 -0.0508
   26POPC   NC3  734   1.147   3.660   8.838 -0.0562  0.2863  0.1904
   26POPC   PO4  735   1.294   3.467   8.392  0.0610  0.1558  0.0187
   26POPC   GL1  736   1.151   3.333   7.961  0.4043 -0.1451 -0.1664
   26POPC   GL2  737   0.846   3.086   8.007 -0.3923  0.0639  0.1914
   26POPC   C1A  738   0.811   3.580   7.686  0.3631  0.2602  0.0984
   26POPC   D2A  739   0.853   3.757   7.292  0.1781 -0.0149  0.2915
   26POPC   C3A  740   1.280   3.712   7.010  0.0676  0.2621 -0.1490
   26POPC   C4A  741   1.322   3.653   6.582 -0.1571 -0.1888 -0.1605
   26POPC   C1B  742   0.785   3.042   7.555 -0.1979 -0.1346  0.0409
   26POPC   C2B  743   0.701   2.880   7.242  0.3602 -0.2101 -0.1152
   26POPC   C3B  744   0.594   3.050   6.906 -0.2007 -0.1298 -0.0211
   26POPC   C4B  745   0.326   3.012   6.523 -0.0260 -0.1953  0.0235
   27POPC   NC3  746   1.450   8.931   8.219 -0.2397  0.1961  0.0948
   27POPC   PO4  747   1.427   9.157   8.501  0.2637 -0.0016 -0.2679
   27POPC   GL1  748   1.567   9.376   8.061  0.0952 -0.0330 -0.0966
   27POPC   GL2  749   1.196   9.387   7.983  0.3452  0.0189 -0.4350
   27POPC   C1A  750   1.622   9.409   7.547 -0.2293 -0.2332 -0.3374
   27POPC   D2A  751   2.004   9.187   7.219  0.1234  0.0727 -0.4587
   27POPC   C3A  752   2.029   9.320   6.786  0.0239 -0.2642 -0.4786
   27POPC   C4A  753   1.973   9.322   6.349  0.1819 -0.2789  0.1235
   27POPC   C1B  754   1.116   9.234   7.604  0.1997  0.2666 -0.2072
   27POPC   C2B  755   1.266   9.117   7.208 -0.1312  0.1723 -0.2238
   27POPC   C3B  756   1.097   9.244   6.853  0.1429  0.0246  0.2126
   27POPC   C4B  757   0.702   9.337   6.919 -0.3106 -0.1256  0.2896
   28POPC   NC3  758   2.751   1.422   8.754  0.3494 -0.4267  0.1520
   28POPC   PO4  759   2.639   1.158   8.362 -0.0759  0.1112  0.0158
   28POPC   GL1  760   2.593   1.218   7.898  0.1797 -0.1560 -0.0616
   28POPC   GL2  761   2.639   1.568   7.770  0.1417  0.1716 -0.0971
   28POPC   C1A  762   2.251   1.348   7.612  0.3670  0.0742 -0.0523
   28POPC   D2A  763   1.739   1.276   7.551  0.0003 -0.3298 -0.1130
   28POPC   C3A  764   1.502   1.580   7.290 -0.0393 -0.0408  0.0412
   28POPC   C4A  765   1.194   1.690   6.890 -0.0145  0.3350 -0.2907
   28POPC   C1B  766   2.849   1.652   7.383 -0.1063 -0.3031  0.0672
   28POPC   C2B  767   3.183   1.548   7.047 -0.2305 -0.0304 -0.0143
   28POPC   C3B  768   3.515   1.835   6.847 -0.0085  0.0761 -0.1633
   28POPC   C4B  769   3.806   2.080   6.960 -0.1262  0.3165 -0.3359
   29POPC   NC3  770   6.122   8.767   8.553  0.2313  0.0944  0.0068
   29POPC   PO4  771   6.379   8.773   8.300  0.0712 -0.0697 -0.2779
   29POPC   GL1  772   6.307   8.758   7.884 -0.0571 -0.2067  0.1974
   29POPC   GL2  773   6.567   8.807   7.715 -0.0740  0.0375  0.2174
   29POPC   C1A  774   6.014   8.585   7.650  0.2000  0.0897 -0.0318
   29POPC   D2A  775   5.813   9.017   7.441 -0.1707 -0.1146  0.1636
   29POPC   C3A  776   5.800   9.445   7.668 -0.0421  0.1901  0.1771
   29POPC   C4A  777   5.721   9.709   7.920 -0.3400  0.0150 -0.0345
   29POPC   C1B  778   6.453   8.918   7.330  0.2528 -0.3665  0.1508
   29POPC   C2B  779   6.107   9.238   7.058  0.3756  0.0759 -0.0944
   29POPC   C3B  780   6.217   9.581   6.757 -0.1024  0.0727  0.2813
   29POPC   C4B  781   6.298  10.019   6.707 -0.1335  0.0566 -0.2406
   30POPC   NC3  782   5.199   3.036   8.564  0.1202 -0.3833  0.0539
   30POPC   PO4  783   5.383   3.264   8.917 -0.3406  0.2670 -0.3552
   30POPC   GL1  784   5.547   3.459   8.542 -0.0569  0.0556 -0.3132
   30POPC   GL2  785   5.316   3.475   8.242 -0.0711  0.0251 -0.0446
   30POPC   C1A  786   5.765   3.704   8.157 -0.0755 -0.2529 -0.1166
   30POPC   D2A  787   5.951   4.020   7.937  0.1907  0.2406  0.2568
   30POPC   C3A  788   6.080   4.070   7.567  0.0078 -0.2004  0.1923
   30POPC   C4A  789   6.113   4.323   7.212  0.0394 -0.0056  0.1762
   30POPC   C1B  790   5.500   3.264   8.019 -0.4782  0.1688 -0.2214
   30POPC   C2B  791   5.685   2.978   7.636  0.0457 -0.3458 -0.0764
   30POPC   C3B  792   5.958   2.599   7.659 -0.1753 -0.1056 -0.1892
   30POPC   C4B  793   6.354   2.336   7.651  0.0198 -0.5605  0.0654
   31POPC   NC3  794   7.956   8.381   8.086 -0.0995 -0.0786  0.1010
   31POPC   PO4  795   8.421   8.390   8.094  0.3223 -0.0983 -0.1864
   31POPC   GL1  796   8.641   8.707   7.920  0.0318 -0.2766 -0.0688
   31POPC   GL2  797   8.556   8.924   7.732 -0.2336 -0.3192  0.2290
   31POPC   C1A  798   8.990   8.699   7.654  0.0537  0.1212  0.0545
   31POPC   D2A  799   9.343   8.683   7.492  0.0247  0.2073  0.1050
   31POPC   C3A  800   9.524   8.337   7.305 -0.1893 -0.0026 -0.2244
   31POPC   C4A  801   9.743   8.006   7.149 -0.2257  0.1647  0.0594
   31POPC   C1B  802   8.433   8.982   7.217  0.0464 -0.3797 -0.3377
   31POPC   C2B  803   8.095   9.166   6.831  0.0185 -0.0713 -0.3565
   31POPC   C3B  804   8.013   9.379   6.498 -0.3876  0.1724  0.2335
   31POPC   C4B  805   7.763   9.609   6.263 -0.2836 -0.1415  0.0689
   32POPC   NC3  806   6.623   9.599   8.794  0.1111  0.0670  0.2339
   32POPC   PO4  807   6.377   9.190   8.767 -0.0784 -0.0125 -0.2985
   32POPC   GL1  808   6.668   9.259   8.416  0.1151  0.1199 -0.0216
   32POPC   GL2  809   6.619   9.644   8.287 -0.2374 -0.0851  0.0854
   32POPC   C1A  810   7.095   9.441   8.358 -0.3116  0.0792  0.0780
   32POPC   D2A  811   7.258   9.845   8.255 -0.1519  0.0968  0.2268
   32POPC   C3A  812   7.333   9.979   7.838 -0.2816  0.1662 -0.0851
   32POPC   C4A  813   7.569  10.003   7.488  0.5079 -0.2398 -0.1926
   32POPC   C1B  814   6.882   9.688   7.886 -0.0634  0.2716 -0.0145
   32POPC   C2B  815   6.849   9.877   7.446 -0.2460 -0.0333  0.1566
   32POPC   C3B  816   6.750   9.865   7.088 -0.0200 -0.1757  0.3975
   32POPC   C4B  817   6.880   9.765   6.754 -0.0351 -0.0206  0.0407
   33POPC   NC3  818   2.603   1.699   8.246 -0.1544  0.1169 -0.1199
   33POPC   PO4  819   3.075   1.735   8.476  0.1782 -0.0109  0.0074
   33POPC   GL1  820   2.965   2.071   8.188  0.2783  0.1681  0.0501
   33POPC   GL2  821   2.814   1.960   7.894  0.0992 -0.0839 -0.1826
   33POPC   C1A  822   3.199   2.318   7.697 -0.0926 -0.1580 -0.2187
   33POPC   D2A  823   3.466   2.610   7.629  0.0714 -0.1408 -0.3155
   33POPC   C3A  824   3.892   2.678   7.334 -0.0212  0.0555 -0.3471
   33POPC   C4A  825   3.982   2.523   6.964 -0.0095 -0.0029 -0.2782
   33POPC   C1B  826   2.739   2.109   7.523  0.0114  0.0959  0.3464
   33POPC   C2B  827   2.755   2.579   7.317  0.0117 -0.0972 -0.0849
   33POPC   C3B  828   2.931   2.506   6.938 -0.3783  0.1855  0.1301
   33POPC   C4B  829   3.168   2.799   6.625  0.0915  0.0348 -0.2655
   34POPC   NC3  830   5.145   5.618   8.315 -0.3354  0.2409 -0.0591
   34POPC   PO4  831   5.664   5.780   8.483  0.2859 -0.0742  0.0402
   34POPC   GL1  832   5.738   5.626   8.094 -0.1040 -0.0614  0.2630
   34POPC   GL2  833   5.520   5.315   8.103  0.1141 -0.1655  0.4710
   34POPC   C1A  834   5.502   5.547   7.637  0.0580 -0.0166 -0.1239
   34POPC   D2A  835   5.589   5.737   7.251  0.0342 -0.0770  0.3431
   34POPC   C3A  836   5.533   5.630   6.816  0.0951 -0.2871  0.0884
   34POPC   C4A  837   5.335   5.400   6.471  0.0741 -0.0495  0.1782
   34POPC   C1B  838   5.290   5.143   7.727 -0.1916  0.2016  0.0881
   34POPC   C2B  839   5.362   5.045   7.333  0.2881 -0.0352 -0.1315
   34POPC   C3B  840   5.542   4.635   7.156  0.2139  0.1621  0.2917
   34POPC   C4B  841   5.665   4.261   6.962  0.2087  0.0934  0.0989
   35POPC   NC3  842   1.784   8.918   8.743 -0.0149  0.2827 -0.1635
   35POPC   PO4  843   1.998   8.751   8.352  0.0280 -0.1525  0.0432
   35POPC   GL1  844   1.830   8.584   7.981 -0.0770  0.1460  0.0656
   35POPC   GL2  845   1.827   8.908   7.843 -0.3485 -0.2586 -0.3594
   35POPC   C1A  846   1.903   8.302   7.615 -0.1292  0.0713  0.0072
   35POPC   D2A  847   2.081   8.100   7.223  0.0943 -0.0744 -0.2442
   35POPC   C3A  848   1.832   8.063   6.897 -0.1310  0.5545 -0.0465
   35POPC   C4A  849   1.642   8.300   6.586 -0.0988  0.0648 -0.0029
   35POPC   C1B  850   1.735   8.864   7.461  0.0592  0.1084 -0.0062
   35POPC   C2B  851   1.655   8.432   7.169  0.3514 -0.3845  0.3278
   35POPC   C3B  852   1.354   8.165   7.008 -0.2215 -0.0326 -0.0304
   35POPC   C4B  853   1.233   7.708   6.829  0.0751  0.2334 -0.0287
   36POPC   NC3  854   7.748   7.508   8.239  0.0755 -0.0154 -0.0481
   36POPC   PO4  855   7.749   7.963   8.275  0.0485  0.0654 -0.1219
   36POPC   GL1  856   7.611   8.132   7.852  0.1593 -0.2196 -0.3678
   36POPC   GL2  857   7.304   8.053   7.787 -0.1407 -0.0959  0.1628
   36POPC   C1A  858   7.807   8.250   7.491  0.2782  0.1354  0.0243
   36POPC   D2A  859   7.867   8.052   7.088 -0.3098 -0.1235 -0.0624
   36POPC   C3A  860   7.758   8.402   6.721 -0.0228  0.0444  0.0141
   36POPC   C4A  861   7.638   8.528   6.275  0.2947  0.0747 -0.0913
   36POPC   C1B  862   7.329   8.233   7.365  0.1088  0.0233  0.0181
   36POPC   C2B  863   7.365   8.634   7.071 -0.0583 -0.0732  0.1208
   36POPC   C3B  864   7.275   8.698   6.631 -0.1235 -0.1836  0.2438
   36POPC   C4B  865   7.073   8.641   6.253  0.4616 -0.0352  0.1869
   37POPC   NC3  866   6.833   4.010   9.641 -0.1201 -0.0991 -0.1152
   37POPC   PO4  867   7.239   3.943   9.653  0.2569  0.1883 -0.0990
   37POPC   GL1  868   7.141   4.069   9.212  0.0046  0.1535 -0.0210
   37POPC   GL2  869   7.437   4.015   8.986 -0.0160  0.0231  0.1184
   37POPC   C1A  870   6.915   3.823   8.914 -0.1509 -0.1394 -0.1478
   37POPC   D2A  871   6.674   3.523   8.614 -0.1747  0.4863  0.2552
   37POPC   C3A  872   6.664   3.429   8.219 -0.0985  0.2776  0.1954
   37POPC   C4A  873   6.732   3.118   7.863 -0.2952 -0.0980 -0.2600
   37POPC   C1B  874   7.352   3.568   8.711  0.0795  0.2903  0.2296
   37POPC   C2B  875   7.047   3.211   8.453 -0.2477 -0.3830 -0.1507
   37POPC   C3B  876   6.867   2.812   8.324  0.1071  0.0287 -0.6102
   37POPC   C4B  877   6.831   2.630   7.977 -0.0841 -0.1053 -0.0734
   38POPC   NC3  878   6.088   5.138   8.721 -0.0577 -0.3022  0.1266
   38POPC   PO4  879   5.731   5.267   8.546  0.0903 -0.0623 -0.0507
   38POPC   GL1  880   5.993   5.208   8.241 -0.2683 -0.0193 -0.3615
   38POPC   GL2  881   6.331   5.392   8.142 -0.1181  0.2979  0.1743
   38POPC   C1A  882   5.956   5.272   7.824 -0.2867 -0.1689 -0.0455
   38POPC   D2A  883   5.832   5.231   7.445 -0.0846  0.1416 -0.3705
   38POPC   C3A  884   5.931   4.892   7.229 -0.2327  0.1930 -0.1006
   38POPC   C4A  885   6.452   4.755   7.075 -0.1832 -0.3905  0.0584
   38POPC   C1B  886   6.505   5.426   7.776 -0.2713 -0.2691 -0.2653
   38POPC   C2B  887   6.673   5.402   7.357  0.0212 -0.1923 -0.3386
   38POPC   C3B  888   6.990   5.555   7.099 -0.2520 -0.4121 -0.0322
   38POPC   C4B  889   7.076   5.967   6.728 -0.0419  0.3584  0.1815
   39POPC   NC3  890   2.458   8.577   8.525  0.1736  0.0711  0.1607
   39POPC   PO4  891   2.399   8.148   8.702 -0.4772  0.1848  0.0719
   39POPC   GL1  892   2.392   7.856   8.324  0.0277 -0.1585  0.0304
   39POPC   GL2  893   2.333   7.490   8.244 -0.1531  0.0596 -0.5410
   39POPC   C1A  894   2.462   7.953   7.800 -0.0396 -0.0858  0.0057
   39POPC   D2A  895   2.439   8.289   7.523 -0.3852  0.0124 -0.2469
   39POPC   C3A  896   2.552   8.165   7.019 -0.0550 -0.0330 -0.3910
   39POPC   C4A  897   2.571   7.884   6.701 -0.0910 -0.1018  0.4492
   39POPC   C1B  898   2.207   7.364   7.861  0.0451 -0.2668 -0.1788
   39POPC   C2B  899   1.893   7.252   7.575  0.2091 -0.3000 -0.1824
   39POPC   C3B  900   1.646   7.168   7.324  0.1267 -0.0166 -0.1345
   39POPC   C4B  901   1.383   7.220   6.867 -0.1415  0.0942  0.1624
   40POPC   NC3  902   6.287   9.459   9.220 -0.2943  0.1089 -0.0578
   40POPC   PO4  903   6.074   9.592   8.976  0.1827 -0.0594  0.0464
   40POPC   GL1  904   6.198   9.660   8.561 -0.0246 -0.1629  0.0364
   40POPC   GL2  905   6.054   9.674   8.325 -0.1441  0.0607 -0.0649
   40POPC   C1A  906   6.346  10.135   8.364  0.0145 -0.3704  0.3962
   40POPC   D2A  907   6.515  10.576   8.146 -0.1418  0.1275  0.1577
   40POPC   C3A  908   6.763  10.596   7.763  0.2679  0.1031 -0.1566
   40POPC   C4A  909   7.136  10.337   7.590 -0.1040  0.0376  0.0432
   40POPC   C1B  910   6.261   9.690   7.939 -0.1692  0.0657 -0.0470
   40POPC   C2B  911   6.510  10.028   7.804 -0.1877  0.2600  0.1502
   40POPC   C3B  912   6.624  10.353   7.382 -0.0622  0.0106  0.0377
   40POPC   C4B  913   6.413  10.633   7.142 -0.1943 -0.0206 -0.1532
   41POPC   NC3  914   5.579   9.667   9.030  0.2313 -0.1453  0.0358
   41POPC   PO4  915   5.294  10.035   9.060 -0.1787 -0.0863  0.0100
   41POPC   GL1  916   5.253  10.218   8.629  0.0861 -0.0119  0.2144
   41POPC   GL2  917   5.525  10.455   8.348 -0.2304 -0.3186  0.0685
   41POPC   C1A  918   5.251  10.070   8.117 -0.1350  0.1532 -0.0239
   41POPC   D2A  919   5.417  10.221   7.677  0.4702 -0.1925  0.2089
   41POPC   C3A  920   5.460  10.073   7.349 -0.1970  0.1114 -0.2122
   41POPC   C4A  921   5.335   9.871   7.018 -0.3425 -0.0931  0.0273
   41POPC   C1B  922   5.564  10.931   8.232  0.2197  0.1856  0.2750
   41POPC   C2B  923   5.345  11.129   7.828  0.0098  0.0119  0.4115
   41POPC   C3B  924   5.270  11.324   7.412  0.2498  0.1195  0.0631
   41POPC   C4B  925   5.316  11.724   7.233  0.3967 -0.1723 -0.0965
   42POPC   NC3  926   1.433   0.402   8.282 -0.0415 -0.0139 -0.0881
   42POPC   PO4  927   1.383   0.780   8.269 -0.0525  0.0666 -0.1947
   42POPC   GL1  928   1.664   0.803   7.968  0.4162  0.2815  0.0236
   42POPC   GL2  929   1.365   0.896   7.775  0.0520  0.1334  0.1355
   42POPC   C1A  930   2.012   0.859   7.633 -0.0368  0.1875  0.1818
   42POPC   D2A  931   2.054   1.080   7.195 -0.0789  0.1408 -0.3414
   42POPC   C3A  932   1.934   1.405   7.088  0.0356  0.0292 -0.1665
   42POPC   C4A  933   1.746   1.471   6.836  0.1161  0.1188 -0.2136
   42POPC   C1B  934   1.573   0.893   7.311 -0.2100 -0.1850 -0.0501
   42POPC   C2B  935   1.597   0.910   6.836 -0.2695 -0.2976 -0.2347
   42POPC   C3B  936   1.468   0.548   6.484  0.1371  0.2628  0.1969
   42POPC   C4B  937   1.407   0.155   6.386 -0.1921  0.3643 -0.0901
   43POPC   NC3  938   6.878   7.431   8.227  0.0387  0.2442 -0.0221
   43POPC   PO4  939   7.275   7.219   8.264  0.0901  0.0055  0.0309
   43POPC   GL1  940   7.371   7.289   7.847  0.2535 -0.0341  0.0897
   43POPC   GL2  941   7.477   7.611   7.778 -0.1421  0.2235  0.2230
   43POPC   C1A  942   7.272   7.355   7.312 -0.2023  0.0645  0.0367
   43POPC   D2A  943   7.138   7.437   6.963 -0.0085 -0.1085 -0.0980
   43POPC   C3A  944   7.060   7.283   6.518  0.0093  0.4411  0.2726
   43POPC   C4A  945   7.034   7.418   6.158 -0.1048 -0.0974  0.0673
   43POPC   C1B  946   7.593   7.767   7.386 -0.1582  0.0315 -0.0999
   43POPC   C2B  947   7.714   7.504   7.157  0.0788  0.0323  0.1161
   43POPC   C3B  948   7.517   7.198   6.705 -0.2625 -0.0283  0.2318
   43POPC   C4B  949   7.346   6.875   6.420  0.0926  0.3225 -0.1519
   44POPC   NC3  950   0.498   1.285   8.857  0.0222 -0.0399 -0.1362
   44POPC   PO4  951   0.744   1.659   8.894  0.0284  0.0345 -0.0745
   44POPC   GL1  952   0.642   1.824   8.497  0.0258 -0.2897  0.1206
   44POPC   GL2  953   0.705   2.137   8.375  0.0294  0.1187 -0.0383
   44POPC   C1A  954   0.213   1.964   8.391 -0.2515  0.3167 -0.1250
   44POPC   D2A  955  -0.151   1.937   8.171  0.1420  0.0050 -0.0825
   44POPC   C3A  956  -0.344   2.361   8.031 -0.0365  0.1891  0.1181
   44POPC   C4A  957  -0.485   2.567   7.710 -0.2155  0.0717 -0.1072
   44POPC   C1B  958   0.648   2.028   7.992  0.3563 -0.0624 -0.1164
   44POPC   C2B  959   0.728   2.159   7.562 -0.0850 -0.0091 -0.1725
   44POPC   C3B  960   0.537   2.417   7.155 -0.2007  0.0352  0.0820
   44POPC   C4B  961   0.395   2.630   6.850  0.0135  0.0980  0.0836
   45POPC   NC3  962   7.101   8.243   8.343 -0.0112 -0.0748  0.0797
   45POPC   PO4  963   6.779   7.947   8.160 -0.1778 -0.0818 -0.0770
   45POPC   GL1  964   6.862   7.910   7.735  0.1690 -0.4878 -0.1640
   45POPC   GL2  965   6.969   7.654   7.807  0.0009 -0.1979  0.2527
   45POPC   C1A  966   7.088   7.811   7.327 -0.0776 -0.0979 -0.6687
   45POPC   D2A  967   7.239   7.949   6.946 -0.3079  0.0203 -0.1636
   45POPC   C3A  968   7.062   7.742   6.537  0.1483  0.1405  0.1296
   45POPC   C4A  969   6.727   7.975   6.364  0.0655 -0.1792  0.3364
   45POPC   C1B  970   6.835   7.392   7.435 -0.2849  0.1072  0.0670
   45POPC   C2B  971   6.723   7.165   7.131  0.0044 -0.1612 -0.1514
   45POPC   C3B  972   6.622   7.231   6.752 -0.0563  0.0844  0.1018
   45POPC   C4B  973   6.591   7.479   6.437 -0.0864  0.0272  0.1846
   46POPC   NC3  974   3.508   9.787   8.855  0.1702 -0.3089  0.3022
   46POPC   PO4  975   3.409  10.242   8.687  0.3593  0.0103  0.0061
   46POPC   GL1  976   3.427  10.213   8.267  0.1411 -0.0321 -0.3028
   46POPC   GL2  977   3.141  10.163   8.141 -0.3391 -0.1732 -0.0222
   46POPC   C1A  978   3.537  10.524   7.921 -0.1538  0.0238  0.1471
   46POPC   D2A  979   3.732  10.855   8.082 -0.0431 -0.0174  0.1175
   46POPC   C3A  980   4.211  10.906   7.891 -0.2089 -0.2331  0.1597
   46POPC   C4A  981   4.600  10.553   7.862 -0.1453 -0.1421  0.0309
   46POPC   C1B  982   2.981   9.977   7.726 -0.1957  0.1341  0.0880
   46POPC   C2B  983   2.995  10.189   7.293  0.0606  0.1965  0.0208
   46POPC   C3B  984   2.849  10.512   7.143  0.0215 -0.0741 -0.2850
   46POPC   C4B  985   2.305  10.525   7.111 -0.2701  0.2739  0.2632
   47POPC   NC3  986   0.272   6.646   8.644  0.0288  0.0620  0.3309
   47POPC   PO4  987   0.203   6.332   8.371 -0.2443 -0.0310  0.0350
   47POPC   GL1  988   0.032   6.389   8.044 -0.0500  0.1033  0.1022
   47POPC   GL2  989  -0.231   6.423   7.923  0.1088 -0.0450  0.0121
   47POPC   C1A  990   0.145   6.488   7.611  0.2611  0.0788  0.0286
   47POPC   D2A  991   0.133   6.434   7.239  0.0564 -0.1146  0.0961
   47POPC   C3A  992   0.203   5.963   7.220 -0.1128 -0.0826  0.1009
   47POPC   C4A  993   0.362   5.572   6.964  0.0516 -0.3577  0.0232
   47POPC   C1B  994  -0.297   6.228   7.483  0.0406  0.0798  0.0465
   47POPC   C2B  995  -0.587   6.113   7.197 -0.1333  0.1468 -0.3368
   47POPC   C3B  996  -0.811   6.083   6.850  0.2978  0.1712 -0.1972
   47POPC   C4B  997  -1.158   6.098   6.618 -0.1006 -0.0209 -0.0734
   48POPC   NC3  998   5.991   1.739   9.661  0.0783 -0.0987 -0.1102
   48POPC   PO4  999   5.897   1.327   9.456  0.1737  0.1347 -0.3597
   48POPC   GL1 1000   6.185   1.501   9.250 -0.0940 -0.0276 -0.3622
   48POPC   GL2 1001   6.116   1.942   9.178 -0.1265 -0.0466  0.0480
   48POPC   C1A 1002   6.301   1.591   8.757  0.2133  0.3002  0.3343
   48POPC   D2A 1003   6.397   1.854   8.541  0.0333 -0.0169  0.0348
   48POPC   C3A 1004   6.823   1.992   8.453 -0.1128 -0.0332  0.0798
   48POPC   C4A 1005   7.191   2.265   8.313  0.2629  0.2376 -0.2021
   48POPC   C1B 1006   6.635   2.035   8.964 -0.3851  0.1345 -0.1354
   48POPC   C2B 1007   6.998   2.299   8.771  0.2436 -0.0568 -0.0577
   48POPC   C3B 1008   7.295   2.708   8.615  0.1887 -0.0176  0.1303
   48POPC   C4B 1009   7.329   2.871   8.197  0.0582 -0.0036  0.0233
   49POPC   NC3 1010   6.097   0.819   9.811  0.2205  0.0990 -0.0126
   49POPC   PO4 1011   6.457   0.505   9.665  0.0393  0.3090 -0.0125
   49POPC   GL1 1012   6.666   0.906   9.463  0.2698  0.1379 -0.1246
   49POPC   GL2 1013   6.456   1.022   9.253  0.2067 -0.1011  0.1342
   49POPC   C1A 1014   7.085   0.786   9.153 -0.2845 -0.0192 -0.2755
   49POPC   D2A 1015   7.334   0.740   8.888  0.1338  0.0450 -0.2693
   49POPC   C3A 1016   7.294   0.412   8.521 -0.3332  0.2253 -0.1276
   49POPC   C4A 1017   7.646   0.405   8.202 -0.0545  0.0728  0.0230
   49POPC   C1B 1018   6.303   1.087   8.881  0.0887  0.1160 -0.0543
   49POPC   C2B 1019   6.154   0.999   8.467  0.1041  0.1985  0.1888
   49POPC   C3B 1020   6.028   0.675   8.266  0.0552  0.3470 -0.0535
   49POPC   C4B 1021   6.220   0.583   7.769 -0.0309 -0.1423 -0.1604
   50POPC   NC3 1022   9.501   1.479   8.807 -0.2390  0.2346  0.3070
   50POPC   PO4 1023   9.875   1.184   8.862 -0.0356  0.1051 -0.0571
   50POPC   GL1 1024  10.001   1.282   8.418 -0.3407 -0.3014 -0.0256
   50POPC   GL2 1025  10.241   1.490   8.392 -0.0908 -0.0101  0.0774
   50POPC   C1A 1026   9.932   1.184   7.990 -0.4419 -0.1768  0.2030
   50POPC   D2A 1027   9.809   1.133   7.575 -0.1185  0.0402 -0.0698
   50POPC   C3A 1028  10.046   1.436   7.235 -0.1621  0.2092  0.1629
   50POPC   C4A 1029   9.867   1.665   6.897 -0.0682 -0.1155  0.1019
   50POPC   C1B 1030  10.149   1.628   7.921  0.3280  0.0301 -0.1850
   50POPC   C2B 1031   9.748   1.676   7.717 -0.1693 -0.4317 -0.2981
   50POPC   C3B 1032   9.347   1.555   7.648  0.0027 -0.1620 -0.1754
   50POPC   C4B 1033   9.089   1.595   7.218  0.2439  0.0016 -0.4200
   51POPC   NC3 1034   6.924   6.020   8.375 -0.0362  0.0813 -0.0079
   51POPC   PO4 1035   6.477   5.993   8.635 -0.1909  0.0669 -0.3019
   51POPC   GL1 1036   6.435   5.880   8.196  0.3155  0.2325  0.0485
   51POPC   GL2 1037   6.409   6.220   7.976 -0.0792  0.0158 -0.1649
   51POPC   C1A 1038   6.094   5.826   7.853  0.2271 -0.0748 -0.3447
   51POPC   D2A 1039   6.161   5.673   7.393 -0.1458  0.0307 -0.1924
   51POPC   C3A 1040   6.032   5.791   7.046  0.0543  0.2248 -0.2240
   51POPC   C4A 1041   6.187   5.809   6.595 -0.4113  0.1530 -0.1144
   51POPC   C1B 1042   6.126   6.231   7.579 -0.0675 -0.1020  0.1105
   51POPC   C2B 1043   5.845   6.214   7.202  0.2380 -0.2388  0.1576
   51POPC   C3B 1044   5.724   6.097   6.787  0.4573  0.1286  0.1764
   51POPC   C4B 1045   5.518   6.231   6.333 -0.0948  0.0449  0.1698
   52POPC   NC3 1046   8.286   2.168  10.370 -0.0423  0.0031 -0.0592
   52POPC   PO4 1047   8.155   2.341   9.881  0.2088 -0.1763  0.0569
   52POPC   GL1 1048   7.964   2.737   9.730  0.1111 -0.0804 -0.0598
   52POPC   GL2 1049   8.108   2.833   9.477  0.1042  0.0000  0.1025
   52POPC   C1A 1050   7.671   2.691   9.281  0.2230 -0.0910  0.0667
   52POPC   D2A 1051   7.637   2.510   8.950 -0.0175 -0.0340  0.4175
   52POPC   C3A 1052   7.564   2.149   8.674 -0.0073 -0.0324  0.0961
   52POPC   C4A 1053   7.583   1.811   8.757  0.0788  0.1759  0.0700
   52POPC   C1B 1054   8.071   2.467   9.279 -0.0324  0.1006  0.0810
   52POPC   C2B 1055   8.182   2.129   9.005  0.0304  0.1363 -0.1460
   52POPC   C3B 1056   8.408   2.160   8.594 -0.0636  0.1933 -0.0970
   52POPC   C4B 1057   8.796   1.988   8.430 -0.0206  0.0702 -0.0237
   53POPC   NC3 1058   6.653   8.811   8.733 -0.1575  0.1626 -0.2342
   53POPC   PO4 1059   6.918   8.750   8.458  0.2831 -0.3061 -0.0216
   53POPC   GL1 1060   6.880   8.993   8.041  0.0549 -0.0508 -0.0734
   53POPC   GL2 1061   7.123   8.989   7.873  0.0043  0.0609  0.1309
   53POPC   C1A 1062   6.577   9.290   7.874 -0.1941 -0.0846 -0.5699
   53POPC   D2A 1063   6.345   9.381   7.524  0.2932 -0.0284  0.3074
   53POPC   C3A 1064   6.198   9.710   7.470  0.0475 -0.2873 -0.0187
   53POPC   C4A 1065   6.257  10.070   7.225 -0.0838  0.0218  0.0736
   53POPC   C1B 1066   6.918   9.127   7.526 -0.4287  0.1971  0.1077
   53POPC   C2B 1067   6.781   9.385   7.230  0.2852  0.1987  0.2072
   53POPC   C3B 1068   6.645   9.296   6.772 -0.3880 -0.0126 -0.1653
   53POPC   C4B 1069   6.769   8.969   6.494  0.2104  0.2393  0.1140
   54POPC   NC3 1070   3.216   4.706   8.525  0.0504  0.0068 -0.0405
   54POPC   PO4 1071   2.795   4.798   8.676 -0.1543 -0.0637 -0.1115
   54POPC   GL1 1072   2.772   4.825   8.244  0.1688  0.3536  0.0770
   54POPC   GL2 1073   2.956   5.174   8.143 -0.5293  0.1793 -0.0240
   54POPC   C1A 1074   2.698   4.773   7.775  0.0773  0.0549 -0.2665
   54POPC   D2A 1075   2.457   4.855   7.366 -0.0382 -0.0220 -0.0644
   54POPC   C3A 1076   2.402   5.157   7.041  0.0907 -0.2743 -0.5151
   54POPC   C4A 1077   2.674   5.267   6.682 -0.1555  0.1544 -0.0357
   54POPC   C1B 1078   3.167   4.937   7.922  0.0259  0.2555  0.1353
   54POPC   C2B 1079   3.577   4.894   7.743  0.1260  0.1167  0.3181
   54POPC   C3B 1080   3.822   4.883   7.379  0.1516  0.2436 -0.3693
   54POPC   C4B 1081   3.970   4.924   6.957  0.0026  0.0787  0.1821
   55POPC   NC3 1082   8.514   7.087   8.123 -0.4373 -0.0924 -0.1623
   55POPC   PO4 1083   8.324   7.405   8.449  0.0310  0.0033  0.2230
   55POPC   GL1 1084   8.357   7.562   7.959  0.1201 -0.1837  0.2629
   55POPC   GL2 1085   8.552   7.493   7.689  0.0889 -0.1881 -0.0088
   55POPC   C1A 1086   7.986   7.542   7.640  0.0102 -0.0380 -0.2232
   55POPC   D2A 1087   7.706   7.147   7.510  0.0199  0.1360  0.0943
   55POPC   C3A 1088   7.802   7.026   7.063  0.1882 -0.0803 -0.4928
   55POPC   C4A 1089   7.934   6.618   6.982  0.2387  0.3178  0.1869
   55POPC   C1B 1090   8.447   7.447   7.263 -0.0460  0.0713 -0.0235
   55POPC   C2B 1091   8.182   7.518   6.921 -0.1609  0.2205  0.0301
   55POPC   C3B 1092   8.011   7.370   6.647 -0.3188 -0.3536 -0.1612
   55POPC   C4B 1093   7.954   7.023   6.556  0.0678  0.0554 -0.0541
   56POPC   NC3 1094   9.639   0.413   8.833 -0.1410  0.4783  0.3226
   56POPC   PO4 1095   9.529   0.095   8.598 -0.2419 -0.2152 -0.1206
   56POPC   GL1 1096   9.475   0.149   8.200 -0.1579 -0.1864  0.1315
   56POPC   GL2 1097   9.276   0.273   8.045  0.3385  0.0054  0.1425
   56POPC   C1A 1098   9.690   0.049   7.757 -0.1994  0.1684 -0.2880
   56POPC   D2A 1099   9.726  -0.231   7.365  0.1382  0.2278 -0.3060
   56POPC   C3A 1100   9.669  -0.363   6.933  0.0304  0.2370 -0.1154
   56POPC   C4A 1101   9.667  -0.522   6.616  0.0039 -0.2936  0.0900
   56POPC   C1B 1102   9.240   0.211   7.656 -0.2981  0.0033  0.0572
   56POPC   C2B 1103   9.332   0.090   7.117  0.4467 -0.0650  0.2082
   56POPC   C3B 1104   8.913   0.188   6.835  0.2696  0.2673 -0.1710
   56POPC   C4B 1105   8.531   0.427   6.819 -0.1413 -0.3011  0.3024
   57POPC   NC3 1106   2.417   4.494   8.634  0.2267 -0.2720  0.0593
   57POPC   PO4 1107   2.361   4.063   8.332  0.3797  0.1241 -0.3192
   57POPC   GL1 1108   2.233   4.054   7.951  0.0211  0.0373 -0.2992
   57POPC   GL2 1109   1.818   4.120   7.839 -0.0465  0.0038 -0.4639
   57POPC   C1A 1110   2.129   3.971   7.558 -0.2057  0.0421  0.1238
   57POPC   D2A 1111   2.215   3.763   7.170 -0.0096  0.0189  0.2914
   57POPC   C3A 1112   1.790   3.503   7.055 -0.2494 -0.1644 -0.2550
   57POPC   C4A 1113   1.454   3.232   6.872 -0.0830 -0.1854 -0.1131
   57POPC   C1B 1114   1.679   3.793   7.479  0.2566 -0.2613 -0.2367
   57POPC   C2B 1115   1.327   3.572   7.490  0.0719 -0.0435 -0.0838
   57POPC   C3B 1116   1.055   3.309   7.201 -0.1672  0.1517 -0.0851
   57POPC   C4B 1117   0.876   3.468   6.883 -0.0510  0.4036  0.0457
   58POPC   NC3 1118   0.066   0.209   8.467 -0.0195 -0.0836  0.1462
   58POPC   PO4 1119   0.448   0.433   8.423  0.1499  0.1402 -0.0257
   58POPC   GL1 1120   0.112   0.523   8.084  0.2761  0.0534 -0.0805
   58POPC   GL2 1121  -0.088   0.494   8.062  0.2007  0.1104  0.3159
   58POPC   C1A 1122   0.188   0.625   7.615  0.1747 -0.1330 -0.2544
   58POPC   D2A 1123   0.297   0.835   7.295  0.0176  0.1266 -0.1173
   58POPC   C3A 1124   0.007   1.010   6.960  0.0419  0.0097 -0.1943
   58POPC   C4A 1125  -0.229   1.319   6.637 -0.1202 -0.1441 -0.0296
   58POPC   C1B 1126  -0.351   0.704   7.739  0.1226  0.0237 -0.0780
   58POPC   C2B 1127  -0.481   0.587   7.303  0.5411  0.2382 -0.2501
   58POPC   C3B 1128  -0.390   0.504   6.955 -0.2287 -0.2302 -0.1165
   58POPC   C4B 1129  -0.603   0.442   6.561 -0.4297 -0.2787  0.0279
   59POPC   NC3 1130   7.597   5.548   8.736  0.0421 -0.0928 -0.0293
   59POPC   PO4 1131   7.271   5.655   8.273  0.0300 -0.3026 -0.5502
   59POPC   GL1 1132   7.177   5.789   7.891 -0.1007 -0.1161 -0.2451
   59POPC   GL2 1133   6.873   5.945   7.898 -0.2588  0.0027 -0.0618
   59POPC   C1A 1134   7.022   5.987   7.429  0.0562 -0.1118 -0.1121
   59POPC   D2A 1135   7.186   6.310   7.130  0.0021 -0.0385  0.1734
   59POPC   C3A 1136   6.867   6.453   6.851 -0.0698  0.2834  0.1051
   59POPC   C4A 1137   6.541   6.423   6.506 -0.0781  0.0293  0.1053
   59POPC   C1B 1138   6.599   5.939   7.547 -0.1714 -0.1089 -0.0296
   59POPC   C2B 1139   6.572   5.968   7.104 -0.1523  0.5154 -0.0425
   59POPC   C3B 1140   6.501   5.600   6.921  0.0593 -0.3105 -0.0410
   59POPC   C4B 1141   6.741   5.345   6.741 -0.0449 -0.1579  0.1088
   60POPC   NC3 1142   4.529   6.177   8.618  0.1284 -0.0115  0.2336
   60POPC   PO4 1143   4.875   6.189   8.358  0.2516  0.2446 -0.0350
   60POPC   GL1 1144   4.917   6.036   8.001 -0.0767  0.1425 -0.3162
   60POPC   GL2 1145   5.030   5.714   7.813 -0.3908 -0.3946 -0.0054
   60POPC   C1A 1146   4.673   5.955   7.583  0.0606  0.0835  0.2121
   60POPC   D2A 1147   4.771   6.160   7.177  0.0253 -0.1763  0.3788
   60POPC   C3A 1148   4.676   5.947   6.739 -0.0735  0.1951  0.0102
   60POPC   C4A 1149   4.248   5.792   6.635 -0.3630 -0.0881 -0.2172
   60POPC   C1B 1150   5.049   5.537   7.417 -0.1871 -0.2827 -0.1623
   60POPC   C2B 1151   5.130   5.305   6.954  0.0878 -0.0013  0.0991
   60POPC   C3B 1152   5.254   4.929   6.748  0.2871 -0.2096 -0.0125
   60POPC   C4B 1153   5.432   4.565   6.490 -0.0512  0.0197 -0.0191
   61POPC   NC3 1154   1.419   3.033   8.244  0.0350 -0.1606 -0.2776
   61POPC   PO4 1155   1.810   3.345   8.363  0.1132 -0.0395  0.1835
   61POPC   GL1 1156   1.654   3.363   7.948  0.2016  0.0937 -0.2348
   61POPC   GL2 1157   1.971   3.628   7.857  0.1714  0.0076 -0.0319
   61POPC   C1A 1158   1.574   3.155   7.573 -0.0633 -0.0022 -0.0484
   61POPC   D2A 1159   1.507   2.879   7.243  0.0889  0.1925 -0.1395
   61POPC   C3A 1160   1.117   2.779   7.041  0.0482 -0.1248 -0.0923
   61POPC   C4A 1161   0.951   2.753   6.650  0.0368 -0.1394  0.0440
   61POPC   C1B 1162   2.079   3.404   7.544 -0.1418 -0.0653  0.0469
   61POPC   C2B 1163   2.070   3.150   7.203 -0.1413  0.1230  0.0454
   61POPC   C3B 1164   1.956   3.081   6.844 -0.0574  0.0136 -0.0365
   61POPC   C4B 1165   2.123   2.909   6.497  0.0160  0.1636 -0.1394
   62POPC   NC3 1166   9.661   7.552   8.672 -0.1208 -0.2831  0.2007
   62POPC   PO4 1167   9.820   7.304   8.234 -0.1532 -0.3836  0.0798
   62POPC   GL1 1168   9.726   7.465   7.833 -0.0068 -0.3134  0.0124
   62POPC   GL2 1169   9.617   7.343   7.682  0.0893 -0.0712  0.0847
   62POPC   C1A 1170   9.481   7.727   7.456  0.4446  0.0839 -0.1467
   62POPC   D2A 1171   9.166   7.936   7.185 -0.0517 -0.0308  0.0517
   62POPC   C3A 1172   8.755   7.965   7.338 -0.0561  0.2066 -0.2175
   62POPC   C4A 1173   8.299   7.924   7.327  0.1046 -0.0040 -0.0146
   62POPC   C1B 1174   9.774   7.348   7.254 -0.2576 -0.2269 -0.3646
   62POPC   C2B 1175   9.662   7.145   6.827 -0.0441 -0.3224  0.0954
   62POPC   C3B 1176   9.482   6.793   6.581 -0.0272  0.1977  0.0270
   62POPC   C4B 1177   9.322   6.669   6.230 -0.0155  0.2194 -0.0429
   63POPC   NC3 1178   6.911   4.881   8.773 -0.2172  0.3407  0.0082
   63POPC   PO4 1179   7.130   5.295   8.701 -0.0253 -0.1963  0.2322
   63POPC   GL1 1180   7.167   5.134   8.296  0.0332  0.0087  0.2164
   63POPC   GL2 1181   6.936   5.107   8.096 -0.0924 -0.0388 -0.1538
   63POPC   C1A 1182   7.388   4.889   7.922  0.2685 -0.1266  0.0247
   63POPC   D2A 1183   7.337   4.563   7.551  0.1858  0.2637 -0.0029
   63POPC   C3A 1184   7.461   4.638   7.098 -0.0551 -0.1460  0.0297
   63POPC   C4A 1185   7.665   4.456   6.693  0.2589  0.0335  0.3041
   63POPC   C1B 1186   7.105   5.336   7.760 -0.1434 -0.0077 -0.0126
   63POPC   C2B 1187   7.379   5.519   7.434  0.1904  0.1733 -0.0576
   63POPC   C3B 1188   7.497   5.716   6.937 -0.0997 -0.1104  0.1006
   63POPC   C4B 1189   7.683   5.614   6.594  0.3404  0.0268 -0.0401
   64POPC   NC3 1190   3.809   0.039   8.463 -0.1822  0.0527 -0.1712
   64POPC   PO4 1191   4.224  -0.074   8.491 -0.1694  0.3933 -0.0935
   64POPC   GL1 1192   4.266   0.294   8.142  0.1183  0.1614  0.0168
   64POPC   GL2 1193   3.974   0.474   8.081  0.3504 -0.0665 -0.0566
   64POPC   C1A 1194   4.373   0.172   7.717  0.1782  0.0331 -0.1446
   64POPC   D2A 1195   4.535   0.433   7.329  0.0904 -0.0214 -0.1548
   64POPC   C3A 1196   4.340   0.746   7.088 -0.2774 -0.1610  0.5243
   64POPC   C4A 1197   4.522   1.158   6.961 -0.0827 -0.1383  0.1325
   64POPC   C1B 1198   4.051   0.545   7.680 -0.1956  0.2156  0.1306
   64POPC   C2B 1199   4.014   0.504   7.345 -0.0476  0.1144 -0.0214
   64POPC   C3B 1200   3.876   0.599   6.946 -0.1071  0.2180  0.2835
   64POPC   C4B 1201   4.291   0.563   6.627  0.2503 -0.0748  0.3142
   65POPC   NC3 1202   7.856   9.361   8.969  0.3789 -0.0668  0.1135
   65POPC   PO4 1203   8.105   9.616   8.714 -0.3335  0.0755 -0.0199
   65POPC   GL1 1204   7.853   9.847   8.350 -0.2532 -0.0906  0.0817
   65POPC   GL2 1205   8.152   9.738   8.179 -0.2467 -0.0043 -0.0283
   65POPC   C1A 1206   7.741   9.751   7.893 -0.1410 -0.1701 -0.1189
   65POPC   D2A 1207   7.847   9.585   7.453 -0.1901 -0.3505 -0.0428
   65POPC   C3A 1208   8.089   9.899   7.219 -0.2501 -0.1011 -0.0426
   65POPC   C4A 1209   8.281  10.242   7.218  0.0690  0.0659 -0.3401
   65POPC   C1B 1210   8.307   9.757   7.761  0.7466 -0.2364 -0.1528
   65POPC   C2B 1211   8.386   9.528   7.431 -0.3781 -0.4174  0.0352
   65POPC   C3B 1212   8.685   9.362   7.120 -0.1094  0.0702 -0.0183
   65POPC   C4B 1213   8.838   9.582   6.740 -0.1110 -0.1538 -0.0073
   66POPC   NC3 1214   2.231   0.701   8.537 -0.1592 -0.0276  0.2244
   66POPC   PO4 1215   2.370   0.229   8.399 -0.2172  0.2363  0.0915
   66POPC   GL1 1216   2.670   0.103   8.077  0.2369  0.1038  0.4268
   66POPC   GL2 1217   2.568   0.330   7.889  0.0541 -0.1768 -0.3141
   66POPC   C1A 1218   2.592  -0.240   7.760  0.1671 -0.1253  0.0072
   66POPC   D2A 1219   2.525  -0.543   7.464  0.0392 -0.1942 -0.0457
   66POPC   C3A 1220   2.396  -0.382   7.051  0.0596 -0.2976 -0.1979
   66POPC   C4A 1221   2.606   0.023   6.900 -0.0536  0.0143  0.1246
   66POPC   C1B 1222   2.565   0.676   7.563  0.2719  0.0495  0.1391
   66POPC   C2B 1223   2.564   1.079   7.304 -0.0644 -0.0237 -0.1559
   66POPC   C3B 1224   2.595   1.355   6.966 -0.2456  0.4475 -0.0775
   66POPC   C4B 1225   2.653   1.525   6.590  0.0169 -0.2430  0.0763
   67POPC   NC3 1226   9.260   4.377   8.849 -0.1655  0.1006 -0.4601
   67POPC   PO4 1227   9.225   4.315   8.360 -0.0529  0.0012 -0.1133
   67POPC   GL1 1228   8.840   4.364   8.149 -0.3221 -0.0631 -0.1618
   67POPC   GL2 1229   8.994   4.416   7.835 -0.0594 -0.0586  0.0829
   67POPC   C1A 1230   8.467   4.198   8.032  0.0425  0.3335  0.2659
   67POPC   D2A 1231   8.436   4.008   7.670 -0.1656  0.1665  0.2001
   67POPC   C3A 1232   8.394   4.005   7.219 -0.0995 -0.0621 -0.1017
   67POPC   C4A 1233   8.581   3.830   6.839  0.0135  0.2467  0.0584
   67POPC   C1B 1234   8.761   4.382   7.555  0.1616 -0.0885  0.0537
   67POPC   C2B 1235   8.556   4.700   7.351 -0.0289 -0.0090  0.0466
   67POPC   C3B 1236   8.423   4.928   7.039  0.0122 -0.0688 -0.0950
   67POPC   C4B 1237   8.489   4.991   6.532  0.1637  0.2028 -0.1006
   68POPC   NC3 1238   4.991   3.533   9.148 -0.3194  0.1574 -0.0856
   68POPC   PO4 1239   4.574   3.531   8.865 -0.0174 -0.0988  0.2046
   68POPC   GL1 1240   4.458   3.670   8.412 -0.0305 -0.0118 -0.4696
   68POPC   GL2 1241   4.199   3.830   8.345 -0.2300  0.0364 -0.1430
   68POPC   C1A 1242   4.436   3.572   7.922  0.0684 -0.1515  0.1325
   68POPC   D2A 1243   4.424   3.312   7.496  0.3618 -0.3214  0.0942
   68POPC   C3A 1244   4.335   3.541   7.154 -0.3924 -0.0140  0.0179
   68POPC   C4A 1245   4.146   3.465   6.672  0.0047 -0.3490  0.0198
   68POPC   C1B 1246   4.054   3.888   7.913  0.2847 -0.1581  0.0732
   68POPC   C2B 1247   4.287   3.903   7.509  0.1490  0.3023  0.1335
   68POPC   C3B 1248   4.407   4.106   7.122  0.0706  0.1142  0.0573
   68POPC   C4B 1249   4.503   4.569   7.028 -0.1947 -0.0916  0.0326
   69POPC   NC3 1250   8.643   0.012   8.833 -0.0017 -0.1503  0.2013
   69POPC   PO4 1251   8.619  -0.423   8.750 -0.0244 -0.0166  0.1068
   69POPC   GL1 1252   8.679  -0.379   8.297 -0.0589 -0.1458  0.3019
   69POPC   GL2 1253   8.679  -0.727   8.188  0.2282  0.0929  0.1331
   69POPC   C1A 1254   8.786  -0.337   7.818  0.0351  0.2406 -0.2634
   69POPC   D2A 1255   8.870  -0.122   7.414 -0.0839 -0.1556 -0.0802
   69POPC   C3A 1256   8.570   0.001   7.125 -0.0357 -0.0035  0.1097
   69POPC   C4A 1257   8.341  -0.259   6.835 -0.0596 -0.0185  0.1749
   69POPC   C1B 1258   8.319  -0.594   7.885 -0.4284  0.2240 -0.1922
   69POPC   C2B 1259   8.050  -0.715   7.649 -0.1963 -0.0741 -0.0240
   69POPC   C3B 1260   7.821  -0.860   7.217  0.1405 -0.0275  0.0886
   69POPC   C4B 1261   7.591  -0.866   6.844 -0.0084 -0.1842  0.1689
   70POPC   NC3 1262   5.497   4.546   9.020 -0.2188 -0.1428 -0.2127
   70POPC   PO4 1263   5.094   4.449   8.882 -0.3164  0.0952  0.1884
   70POPC   GL1 1264   5.267   4.636   8.536  0.0797 -0.0210  0.2425
   70POPC   GL2 1265   5.034   4.400   8.349 -0.0564 -0.0555  0.1448
   70POPC   C1A 1266   5.470   4.776   8.126 -0.1305 -0.3919 -0.0894
   70POPC   D2A 1267   5.692   4.857   7.759 -0.2708 -0.1389  0.2196
   70POPC   C3A 1268   6.148   4.590   7.655 -0.3550 -0.0892 -0.0598
   70POPC   C4A 1269   6.514   4.489   7.481  0.5835  0.1389 -0.0371
   70POPC   C1B 1270   5.509   4.296   8.404 -0.0928  0.0778 -0.2611
   70POPC   C2B 1271   5.904   4.120   8.470 -0.2354  0.1193  0.4445
   70POPC   C3B 1272   6.021   3.767   8.662 -0.2406  0.0407  0.1150
   70POPC   C4B 1273   6.253   3.344   8.717  0.1654 -0.0165 -0.0583
   71POPC   NC3 1274   3.238   8.950   8.671  0.0174  0.4002  0.0489
   71POPC   PO4 1275   2.797   8.974   8.660  0.3664  0.0109 -0.0255
   71POPC   GL1 1276   2.520   9.062   8.262 -0.0178  0.1615  0.1087
   71POPC   GL2 1277   2.415   8.743   8.073  0.0242  0.3009  0.0208
   71POPC   C1A 1278   2.800   9.133   7.894  0.3698  0.0389  0.1249
   71POPC   D2A 1279   3.061   9.371   7.706  0.2095 -0.1777  0.3339
   71POPC   C3A 1280   3.530   9.164   7.685 -0.1383 -0.3292 -0.1797
   71POPC   C4A 1281   3.893   9.066   7.453 -0.2335 -0.0160  0.3630
   71POPC   C1B 1282   2.227   8.715   7.639 -0.1167 -0.0305 -0.0095
   71POPC   C2B 1283   2.142   8.597   7.255 -0.0882  0.2062 -0.1597
   71POPC   C3B 1284   2.198   8.485   6.799  0.0626  0.2255  0.1854
   71POPC   C4B 1285   2.074   8.563   6.267 -0.2529  0.0379 -0.0871
   72POPC   NC3 1286   1.930   5.173   8.217 -0.0707 -0.0975  0.0213
   72POPC   PO4 1287   1.504   5.261   8.217 -0.2342  0.0704 -0.2529
   72POPC   GL1 1288   1.220   5.444   7.910 -0.1313 -0.1029 -0.1069
   72POPC   GL2 1289   1.195   5.134   7.785 -0.1613  0.2238  0.0572
   72POPC   C1A 1290   0.963   5.477   7.547 -0.1241  0.0637 -0.1379
   72POPC   D2A 1291   0.935   5.426   7.099 -0.0555 -0.1267  0.0475
   72POPC   C3A 1292   0.796   5.858   7.100  0.1858 -0.3209  0.0377
   72POPC   C4A 1293   1.007   6.077   6.713  0.2226 -0.1050  0.2106
   72POPC   C1B 1294   1.376   4.848   7.510 -0.2710 -0.2338  0.0080
   72POPC   C2B 1295   1.427   4.746   7.070 -0.1055 -0.0791  0.0296
   72POPC   C3B 1296   1.548   4.899   6.668 -0.1827 -0.0337 -0.0081
   72POPC   C4B 1297   1.341   4.979   6.299 -0.0645 -0.0994 -0.1242
   73POPC   NC3 1298   6.891   4.741   9.361  0.0588 -0.1771 -0.0339
   73POPC   PO4 1299   6.710   4.413   9.179 -0.0126  0.0851  0.0250
   73POPC   GL1 1300   6.743   4.411   8.685  0.0726 -0.3227 -0.2460
   73POPC   GL2 1301   7.028   4.304   8.760 -0.0151  0.0040  0.1314
   73POPC   C1A 1302   6.698   4.098   8.347  0.3912  0.0194 -0.2978
   73POPC   D2A 1303   6.330   3.883   8.247 -0.0365  0.0865 -0.0858
   73POPC   C3A 1304   6.173   3.388   8.243  0.4277  0.1645  0.0287
   73POPC   C4A 1305   5.969   3.059   8.009 -0.2052 -0.0320 -0.0194
   73POPC   C1B 1306   7.195   3.956   8.458  0.0723  0.1248 -0.2334
   73POPC   C2B 1307   7.113   3.804   8.132 -0.0770  0.0122 -0.4748
   73POPC   C3B 1308   6.846   3.639   7.815  0.2850  0.1230  0.1493
   73POPC   C4B 1309   6.395   3.535   7.777  0.0317  0.3105  0.0473
   74POPC   NC3 1310   8.265   7.922   8.273  0.1589  0.0653  0.3484
   74POPC   PO4 1311   8.776   7.900   8.397  0.0458  0.0704 -0.1486
   74POPC   GL1 1312   9.155   7.899   7.996 -0.1080 -0.0954 -0.1055
   74POPC   GL2 1313   9.077   7.634   7.738  0.3523  0.0894  0.1124
   74POPC   C1A 1314   9.072   8.193   7.658 -0.0849 -0.0642  0.1136
   74POPC   D2A 1315   9.020   8.386   7.222  0.1930 -0.3152 -0.2058
   74POPC   C3A 1316   8.683   8.400   7.069 -0.0865  0.0775  0.2616
   74POPC   C4A 1317   8.521   8.041   6.895  0.1004 -0.2330 -0.1558
   74POPC   C1B 1318   8.933   7.539   7.249  0.0783  0.2312 -0.0264
   74POPC   C2B 1319   8.858   7.508   6.808  0.3255 -0.0331  0.6185
   74POPC   C3B 1320   8.633   7.257   6.568 -0.2856  0.0677 -0.1141
   74POPC   C4B 1321   8.309   7.193   6.276 -0.1871 -0.1482  0.1063
   75POPC   NC3 1322   1.801   7.949   8.492  0.0280 -0.1199 -0.1111
   75POPC   PO4 1323   1.957   7.584   8.570  0.0434 -0.0017  0.2590
   75POPC   GL1 1324   1.789   7.558   8.131  0.0949  0.0244  0.0923
   75POPC   GL2 1325   1.455   7.464   8.100 -0.0895 -0.3573  0.0828
   75POPC   C1A 1326   1.954   7.808   7.755  0.0072 -0.0515  0.3166
   75POPC   D2A 1327   2.196   7.656   7.407  0.1566  0.2481 -0.1132
   75POPC   C3A 1328   2.453   7.393   7.465  0.0636  0.4899  0.0882
   75POPC   C4A 1329   2.606   6.961   7.638 -0.0944 -0.0127  0.0173
   75POPC   C1B 1330   1.474   7.537   7.644  0.2393  0.0024  0.1123
   75POPC   C2B 1331   1.210   7.479   7.321  0.0406 -0.0572  0.0385
   75POPC   C3B 1332   0.777   7.462   7.043  0.2211 -0.0626 -0.2982
   75POPC   C4B 1333   0.332   7.624   7.020 -0.3289  0.1329 -0.2038
   76POPC   NC3 1334   3.293   8.179   8.906 -0.1427 -0.2726  0.3013
   76POPC   PO4 1335   2.953   8.119   8.682  0.3349  0.2690  0.1606
   76POPC   GL1 1336   2.921   7.950   8.347 -0.0457  0.0529 -0.0231
   76POPC   GL2 1337   3.050   8.100   8.077 -0.1087  0.0164  0.1814
   76POPC   C1A 1338   2.811   7.571   7.979 -0.1575 -0.2521 -0.1180
   76POPC   D2A 1339   2.876   7.344   7.641  0.0459  0.0177  0.1121
   76POPC   C3A 1340   3.235   7.536   7.302 -0.0112 -0.0392 -0.0889
   76POPC   C4A 1341   3.491   7.426   6.931  0.4808  0.0210  0.1116
   76POPC   C1B 1342   2.983   8.088   7.682 -0.4251 -0.2147  0.0304
   76POPC   C2B 1343   2.730   7.812   7.381 -0.0366  0.0653 -0.1429
   76POPC   C3B 1344   2.737   7.533   7.130 -0.0715  0.2393 -0.2537
   76POPC   C4B 1345   3.029   7.186   7.027 -0.0299  0.3039  0.1941
   77POPC   NC3 1346   1.272   4.484   8.671 -0.0540 -0.0521  0.2755
   77POPC   PO4 1347   1.523   4.041   8.650 -0.4503 -0.0822  0.2217
   77POPC   GL1 1348   1.473   4.178   8.177 -0.0179 -0.1056 -0.3103
   77POPC   GL2 1349   1.140   4.173   8.130  0.1347 -0.0445  0.4042
   77POPC   C1A 1350   1.430   4.454   7.820 -0.2084 -0.1138 -0.0214
   77POPC   D2A 1351   1.652   4.312   7.465 -0.1257 -0.0704  0.3410
   77POPC   C3A 1352   1.707   4.053   7.086 -0.3262  0.0141 -0.1070
   77POPC   C4A 1353   1.736   3.863   6.766 -0.1375 -0.1294  0.1361
   77POPC   C1B 1354   1.248   3.954   7.802  0.0071  0.0529 -0.1097
   77POPC   C2B 1355   1.223   4.071   7.435 -0.4200 -0.0054 -0.2174
   77POPC   C3B 1356   1.249   4.276   7.086  0.4311  0.4614  0.1297
   77POPC   C4B 1357   1.337   4.116   6.684  0.2012 -0.4491  0.2297
   78POPC   NC3 1358   1.902   2.257   8.115 -0.1416 -0.1090 -0.0613
   78POPC   PO4 1359   1.485   2.431   8.223 -0.3402  0.1022 -0.0060
   78POPC   GL1 1360   1.199   2.582   8.020 -0.0663  0.0535 -0.2219
   78POPC   GL2 1361   1.250   2.862   7.794  0.0051 -0.1692  0.0694
   78POPC   C1A 1362   0.727   2.565   7.931 -0.1362 -0.0927 -0.1679
   78POPC   D2A 1363   0.436   2.576   7.650  0.0311 -0.1107  0.0105
   78POPC   C3A 1364   0.051   2.616   7.766 -0.0808 -0.0285  0.0161
   78POPC   C4A 1365  -0.100   2.780   8.128 -0.0294 -0.4405 -0.0195
   78POPC   C1B 1366   1.102   2.543   7.536  0.0744 -0.0230  0.0588
   78POPC   C2B 1367   1.105   2.285   7.175  0.0446 -0.1010  0.1425
   78POPC   C3B 1368   0.767   2.109   6.863 -0.1724  0.0862  0.3478
   78POPC   C4B 1369   0.401   2.082   6.612  0.3788  0.1431 -0.1379
   79POPC   NC3 1370   7.537   9.793   9.530  0.3121 -0.0244  0.4113
   79POPC   PO4 1371   7.477  10.197   9.764  0.2328  0.0988  0.2565
   79POPC   GL1 1372   7.690  10.609   9.664 -0.1114  0.2436  0.0951
   79POPC   GL2 1373   7.566  10.979   9.650  0.0564  0.0229 -0.0659
   79POPC   C1A 1374   7.789  10.720   9.155 -0.3351  0.1896  0.3917
   79POPC   D2A 1375   8.140  10.944   8.860 -0.0087 -0.2550 -0.0896
   79POPC   C3A 1376   8.085  11.107   8.429  0.0174 -0.2353  0.0160
   79POPC   C4A 1377   8.120  11.452   7.944 -0.0641  0.2036 -0.2449
   79POPC   C1B 1378   7.452  11.111   9.168  0.0561  0.2148 -0.0125
   79POPC   C2B 1379   7.676  11.211   8.761  0.0806  0.0230 -0.1536
   79POPC   C3B 1380   7.732  11.430   8.365  0.2820 -0.0475 -0.1071
   79POPC   C4B 1381   7.595  11.819   8.192 -0.1982  0.1159  0.0969
   80POPC   NC3 1382   9.132   5.944   8.598  0.0888  0.0494 -0.4847
   80POPC   PO4 1383   8.829   5.547   8.453  0.1727 -0.0626 -0.1282
   80POPC   GL1 1384   8.827   5.465   7.949  0.0502  0.2812 -0.1559
   80POPC   GL2 1385   9.066   5.661   7.699 -0.6608  0.0315 -0.3321
   80POPC   C1A 1386   8.730   5.286   7.547 -0.0126 -0.4093  0.0949
   80POPC   D2A 1387   8.844   5.041   7.137  0.0721 -0.2477  0.0226
   80POPC   C3A 1388   9.142   4.668   7.204  0.0022  0.1281  0.0334
   80POPC   C4A 1389   9.390   4.406   7.507  0.1047 -0.1231 -0.3585
   80POPC   C1B 1390   9.026   5.578   7.283 -0.0620  0.2438 -0.0439
   80POPC   C2B 1391   8.898   5.528   6.827  0.0310  0.1870 -0.1523
   80POPC   C3B 1392   8.665   5.459   6.452  0.0990 -0.0393 -0.0895
   80POPC   C4B 1393   8.734   5.448   6.024  0.3512  0.0505  0.0863
   81POPC   NC3 1394   1.111   8.219   8.712 -0.2015  0.1804 -0.3935
   81POPC   PO4 1395   1.119   8.277   8.355  0.2626 -0.1305 -0.4377
   81POPC   GL1 1396   1.243   8.371   7.985 -0.0136 -0.0059  0.1084
   81POPC   GL2 1397   1.287   8.644   7.853  0.0441 -0.3800 -0.2297
   81POPC   C1A 1398   1.382   8.285   7.536 -0.1374  0.0206  0.0839
   81POPC   D2A 1399   1.644   7.889   7.352 -0.1825  0.2477 -0.0655
   81POPC   C3A 1400   1.710   7.608   7.067  0.5145  0.2471  0.2831
   81POPC   C4A 1401   1.698   7.666   6.605  0.0051 -0.0473  0.0581
   81POPC   C1B 1402   1.096   8.735   7.473  0.0486 -0.1528  0.2134
   81POPC   C2B 1403   1.207   8.632   6.975  0.0432 -0.2306 -0.2218
   81POPC   C3B 1404   1.299   8.796   6.568 -0.0450 -0.1718  0.2298
   81POPC   C4B 1405   1.574   8.942   6.301 -0.1644 -0.1636 -0.0138
   82POPC   NC3 1406   3.356   5.915   8.466  0.2502  0.0203 -0.0280
   82POPC   PO4 1407   3.653   5.671   8.585  0.0492  0.3569 -0.3110
   82POPC   GL1 1408   3.716   5.385   8.159  0.0842  0.1145 -0.0690
   82POPC   GL2 1409   3.373   5.551   8.054 -0.2857 -0.1186  0.1767
   82POPC   C1A 1410   3.821   5.409   7.732  0.2236 -0.1094 -0.0478
   82POPC   D2A 1411   4.189   5.319   7.468  0.1311 -0.1007 -0.1381
   82POPC   C3A 1412   4.158   5.384   7.053 -0.1393 -0.0446  0.0529
   82POPC   C4A 1413   3.933   5.370   6.670  0.0418 -0.0043 -0.1113
   82POPC   C1B 1414   3.285   5.561   7.614 -0.2407 -0.0747 -0.0846
   82POPC   C2B 1415   3.209   5.767   7.212  0.0255  0.0522 -0.1771
   82POPC   C3B 1416   3.161   5.572   6.772  0.0816  0.1228  0.2222
   82POPC   C4B 1417   3.452   5.444   6.542  0.4303 -0.0698 -0.1206
   83POPC   NC3 1418   2.010   6.506   8.704  0.0244 -0.1503  0.0597
   83POPC   PO4 1419   2.368   6.616   8.544 -0.1685 -0.0856  0.1483
   83POPC   GL1 1420   2.084   6.571   8.181 -0.3025  0.1703 -0.1463
   83POPC   GL2 1421   1.790   6.516   8.240  0.0114 -0.1048 -0.0387
   83POPC   C1A 1422   2.088   6.847   7.796  0.4647  0.3064 -0.0410
   83POPC   D2A 1423   2.126   6.820   7.348  0.1369  0.0951  0.0912
   83POPC   C3A 1424   2.076   7.202   7.086  0.2981  0.0441 -0.0311
   83POPC   C4A 1425   2.124   7.556   6.807  0.0714  0.0162 -0.1601
   83POPC   C1B 1426   1.618   6.670   7.882  0.0543 -0.2232  0.0614
   83POPC   C2B 1427   1.673   6.621   7.492  0.0791  0.0795 -0.0684
   83POPC   C3B 1428   1.822   6.310   7.192  0.1855 -0.0001  0.2067
   83POPC   C4B 1429   1.799   6.335   6.718 -0.1674  0.1222 -0.5399
   84POPC   NC3 1430   8.677   2.677   9.657 -0.0124  0.4387 -0.0384
   84POPC   PO4 1431   8.710   2.270   9.740  0.1167 -0.2311  0.0741
   84POPC   GL1 1432   8.502   2.291   9.327 -0.0149  0.0168  0.0493
   84POPC   GL2 1433   8.687   2.046   9.002 -0.0989 -0.2037 -0.0798
   84POPC   C1A 1434   8.486   2.520   8.892 -0.4319 -0.0744 -0.3988
   84POPC   D2A 1435   8.619   2.610   8.463  0.2869 -0.2520 -0.3077
   84POPC   C3A 1436   8.671   2.383   8.112  0.2081  0.1687 -0.2861
   84POPC   C4A 1437   8.494   1.980   7.996 -0.1796  0.0850 -0.3560
   84POPC   C1B 1438   8.973   2.351   8.726 -0.5739 -0.2405  0.0226
   84POPC   C2B 1439   9.147   2.342   8.297  0.3307 -0.1292 -0.3751
   84POPC   C3B 1440   9.037   2.212   7.870  0.0087 -0.0943  0.1735
   84POPC   C4B 1441   8.893   1.753   7.718  0.0799  0.0496  0.0107
   85POPC   NC3 1442   8.371   6.432   8.208  0.1737  0.0706 -0.1793
   85POPC   PO4 1443   8.165   6.823   8.351 -0.0404  0.1532 -0.3623
   85POPC   GL1 1444   8.224   6.845   7.822  0.1451 -0.0230  0.1568
   85POPC   GL2 1445   8.584   6.732   7.764  0.0254 -0.3887 -0.1116
   85POPC   C1A 1446   8.258   7.055   7.444 -0.0101  0.1378  0.0183
   85POPC   D2A 1447   8.323   7.014   7.011 -0.3042 -0.0318  0.0319
   85POPC   C3A 1448   8.659   6.738   6.749 -0.0496  0.0144  0.0015
   85POPC   C4A 1449   8.824   6.843   6.319  0.1073 -0.1044 -0.2094
   85POPC   C1B 1450   8.527   6.600   7.276 -0.0067  0.1221  0.2512
   85POPC   C2B 1451   8.505   6.317   7.002  0.0939 -0.1323  0.2444
   85POPC   C3B 1452   8.279   6.376   6.617  0.0622 -0.1611  0.0447
   85POPC   C4B 1453   8.327   6.677   6.218 -0.0553 -0.1578 -0.1464
   86POPC   NC3 1454   1.937   4.697   8.949  0.0118  0.3320  0.1730
   86POPC   PO4 1455   1.875   4.731   8.498 -0.1534 -0.0113 -0.2293
   86POPC   GL1 1456   1.832   4.647   8.089  0.0998  0.2180 -0.3706
   86POPC   GL2 1457   1.646   4.898   7.869  0.3681  0.0516  0.2053
   86POPC   C1A 1458   2.067   4.654   7.688 -0.0520  0.0857  0.0670
   86POPC   D2A 1459   2.014   4.584   7.166 -0.1702  0.2885 -0.3027
   86POPC   C3A 1460   2.410   4.669   6.917  0.3225  0.2476 -0.0732
   86POPC   C4A 1461   2.674   4.718   6.573 -0.1283  0.0509 -0.1359
   86POPC   C1B 1462   1.800   5.097   7.448  0.1127  0.1388  0.1371
   86POPC   C2B 1463   1.935   5.158   7.029  0.0191 -0.0873  0.1044
   86POPC   C3B 1464   1.927   5.335   6.652 -0.1141  0.2089 -0.1740
   86POPC   C4B 1465   1.887   5.752   6.548  0.2417 -0.0310  0.0043
   87POPC   NC3 1466   9.223   5.234   8.220  0.1124  0.1372  0.1556
   87POPC   PO4 1467   9.494   5.325   7.837  0.1811  0.2513 -0.2134
   87POPC   GL1 1468   9.429   5.398   7.425  0.2820  0.4779  0.0193
   87POPC   GL2 1469   9.543   5.713   7.354  0.0370  0.2142  0.0126
   87POPC   C1A 1470   9.288   5.164   6.982 -0.2055  0.0717  0.0913
   87POPC   D2A 1471   9.130   5.200   6.609 -0.0347 -0.3978  0.2263
   87POPC   C3A 1472   8.972   4.831   6.571 -0.1365 -0.0183  0.3196
   87POPC   C4A 1473   8.907   4.403   6.444 -0.1175 -0.2345  0.0211
   87POPC   C1B 1474   9.475   5.650   6.951  0.3052  0.3059  0.0919
   87POPC   C2B 1475   9.425   5.565   6.513  0.1626 -0.2260 -0.2461
   87POPC   C3B 1476   9.525   5.190   6.215 -0.3416 -0.0807  0.1861
   87POPC   C4B 1477   9.549   4.941   5.883 -0.1200 -0.1571 -0.3692
   88POPC   NC3 1478   4.257   7.821   8.783 -0.2313 -0.3109 -0.1359
   88POPC   PO4 1479   4.697   7.896   8.715 -0.0667  0.0654  0.1920
   88POPC   GL1 1480   4.464   7.867   8.316  0.2615 -0.0456  0.3403
   88POPC   GL2 1481   4.187   7.881   8.114 -0.0574  0.1141 -0.0831
   88POPC   C1A 1482   4.686   7.781   7.925 -0.1023 -0.0735 -0.0820
   88POPC   D2A 1483   5.037   7.738   7.892  0.1701  0.2324 -0.1102
   88POPC   C3A 1484   5.212   7.817   7.514  0.2099  0.0150 -0.3301
   88POPC   C4A 1485   4.956   7.766   7.009  0.0767 -0.1124 -0.0100
   88POPC   C1B 1486   4.266   8.079   7.723  0.0320 -0.0237 -0.1201
   88POPC   C2B 1487   3.994   7.968   7.373  0.1474 -0.1232 -0.0816
   88POPC   C3B 1488   3.919   8.231   6.949 -0.0444  0.2152  0.2935
   88POPC   C4B 1489   3.878   8.487   6.615  0.0473 -0.0044 -0.0109
   89POPC   NC3 1490   7.718   8.431   9.000 -0.1325  0.3638  0.0608
   89POPC   PO4 1491   7.555   8.450   8.476 -0.0425  0.1565  0.1361
   89POPC   GL1 1492   7.388   8.631   8.098 -0.0012 -0.1462  0.0563
   89POPC   GL2 1493   7.617   8.720   7.838 -0.1360 -0.1446  0.1147
   89POPC   C1A 1494   7.190   8.518   7.766  0.1140 -0.2565  0.0956
   89POPC   D2A 1495   6.855   8.409   7.560 -0.0929 -0.1438 -0.2888
   89POPC   C3A 1496   6.854   8.700   7.291 -0.2305 -0.0429  0.1187
   89POPC   C4A 1497   6.946   8.818   6.957 -0.0686  0.3293  0.0205
   89POPC   C1B 1498   7.429   8.892   7.545  0.0418  0.3075 -0.1678
   89POPC   C2B 1499   7.286   9.119   7.214  0.0136  0.1040  0.1702
   89POPC   C3B 1500   7.147   9.239   6.737 -0.2168  0.1134 -0.0599
   89POPC   C4B 1501   7.299   9.632   6.458 -0.1182 -0.1439 -0.0500
   90POPC   NC3 1502   5.249   6.655   8.439 -0.1068  0.2443  0.1382
   90POPC   PO4 1503   5.115   7.069   8.430 -0.2143 -0.1458  0.0418
   90POPC   GL1 1504   4.847   7.229   8.077  0.1380 -0.4615 -0.0562
   90POPC   GL2 1505   4.801   6.983   7.894  0.0359 -0.0309  0.1940
   90POPC   C1A 1506   4.451   7.374   7.809 -0.0417 -0.1058 -0.0485
   90POPC   D2A 1507   4.315   7.595   7.398  0.2320  0.1287 -0.3142
   90POPC   C3A 1508   4.408   7.786   7.017  0.2918  0.2419  0.0486
   90POPC   C4A 1509   4.176   7.937   6.661 -0.2785 -0.1421  0.0326
   90POPC   C1B 1510   5.072   7.216   7.649  0.0297  0.0802  0.1730
   90POPC   C2B 1511   5.212   7.378   7.265  0.0107  0.1415  0.0045
   90POPC   C3B 1512   5.330   7.502   6.898 -0.0942 -0.0803  0.1518
   90POPC   C4B 1513   5.200   7.895   6.624  0.0678 -0.2277 -0.1475
   91POPC   NC3 1514   2.965   2.321   8.645 -0.1492 -0.0552  0.2756
   91POPC   PO4 1515   2.857   2.575   8.361  0.1137  0.3025  0.3910
   91POPC   GL1 1516   3.209   2.716   8.101 -0.1975  0.1866  0.4141
   91POPC   GL2 1517   3.113   3.064   8.189  0.1702  0.1004  0.2565
   91POPC   C1A 1518   3.068   2.941   7.713  0.3338 -0.3210  0.0921
   91POPC   D2A 1519   3.166   2.838   7.297  0.3654  0.2774  0.3775
   91POPC   C3A 1520   3.455   2.434   7.137 -0.0651 -0.2023 -0.3173
   91POPC   C4A 1521   3.729   2.172   7.456 -0.5314  0.1259  0.2184
   91POPC   C1B 1522   3.458   3.374   8.292 -0.0563  0.0876  0.0803
   91POPC   C2B 1523   3.692   3.592   7.928  0.2867  0.1009  0.0532
   91POPC   C3B 1524   3.802   3.752   7.466 -0.2033 -0.1298  0.3421
   91POPC   C4B 1525   4.007   3.878   6.984  0.0625  0.3895  0.0738
   92POPC   NC3 1526   3.444   4.217   9.063  0.3009  0.0123 -0.2481
   92POPC   PO4 1527   3.323   4.244   8.669 -0.1720  0.1229 -0.0102
   92POPC   GL1 1528   3.324   4.192   8.290  0.2576  0.2212 -0.0898
   92POPC   GL2 1529   3.207   4.439   8.095  0.0588  0.2540  0.4169
   92POPC   C1A 1530   3.262   3.867   7.959 -0.1504  0.1570 -0.1977
   92POPC   D2A 1531   3.310   3.677   7.612  0.0517  0.2279  0.3356
   92POPC   C3A 1532   3.401   3.614   7.216 -0.0649  0.1787 -0.0423
   92POPC   C4A 1533   3.723   3.486   6.988  0.4037  0.2767  0.1328
   92POPC   C1B 1534   3.259   4.422   7.728 -0.1333 -0.2066 -0.0122
   92POPC   C2B 1535   3.358   4.585   7.356 -0.4094 -0.0946  0.5146
   92POPC   C3B 1536   3.276   4.553   6.942 -0.0441 -0.1937 -0.1400
   92POPC   C4B 1537   3.147   4.442   6.528  0.0131 -0.3166 -0.1788
   93POPC   NC3 1538   8.667   1.094   9.005  0.2780 -0.5167 -0.0910
   93POPC   PO4 1539   8.425   0.682   9.137 -0.2031 -0.0347 -0.2528
   93POPC   GL1 1540   8.120   0.581   8.794 -0.0237  0.0537  0.1580
   93POPC   GL2 1541   8.253   0.229   8.518 -0.0355  0.2978  0.1706
   93POPC   C1A 1542   7.743   0.856   8.620 -0.1020  0.3409  0.0500
   93POPC   D2A 1543   7.558   0.878   8.328 -0.0662 -0.1085 -0.1047
   93POPC   C3A 1544   7.374   1.197   8.226 -0.0900  0.4427 -0.1260
   93POPC   C4A 1545   7.278   1.616   8.375  0.0748 -0.0313  0.0137
   93POPC   C1B 1546   8.239   0.290   7.959 -0.1177  0.0077  0.1361
   93POPC   C2B 1547   8.016   0.248   7.663  0.2439 -0.1870 -0.2707
   93POPC   C3B 1548   7.818   0.487   7.274  0.2183  0.1871 -0.0266
   93POPC   C4B 1549   7.424   0.790   7.224  0.0801 -0.2963  0.2209
   94POPC   NC3 1550   9.308   4.744   8.071  0.2718  0.0353  0.1122
   94POPC   PO4 1551   9.669   5.033   8.225  0.0377  0.1197  0.0667
   94POPC   GL1 1552   9.841   4.945   7.874 -0.0243  0.3057  0.1385
   94POPC   GL2 1553   9.794   4.640   7.802  0.0145  0.2011 -0.0700
   94POPC   C1A 1554  10.147   4.944   7.516 -0.2309  0.0912  0.0008
   94POPC   D2A 1555  10.364   4.746   7.223  0.1347  0.1682  0.1453
   94POPC   C3A 1556  10.186   4.618   6.931 -0.3372 -0.0957  0.1729
   94POPC   C4A 1557  10.364   4.648   6.685 -0.4720  0.0662 -0.0304
   94POPC   C1B 1558   9.690   4.789   7.372 -0.2223 -0.1227  0.0581
   94POPC   C2B 1559   9.637   4.751   7.032 -0.2192  0.0030  0.1110
   94POPC   C3B 1560   9.387   4.609   6.718 -0.1754  0.4992 -0.2248
   94POPC   C4B 1561   9.382   4.681   6.282 -0.1544 -0.1570  0.1193
   95POPC   NC3 1562   7.675   5.290   8.340  0.1033 -0.3455  0.0879
   95POPC   PO4 1563   7.788   5.772   8.324 -0.0031  0.0154 -0.1407
   95POPC   GL1 1564   7.728   5.577   7.881  0.3487  0.0145 -0.1626
   95POPC   GL2 1565   7.691   5.860   7.672  0.2001  0.0718  0.0274
   95POPC   C1A 1566   7.712   5.199   7.701  0.0162  0.0911 -0.1185
   95POPC   D2A 1567   7.384   5.049   7.369 -0.3350 -0.1404  0.2798
   95POPC   C3A 1568   7.336   5.236   6.904 -0.0291 -0.2457 -0.1833
   95POPC   C4A 1569   7.364   5.034   6.569  0.0496 -0.1562  0.2872
   95POPC   C1B 1570   7.503   5.987   7.385 -0.0247 -0.3250 -0.2595
   95POPC   C2B 1571   7.645   6.186   7.005  0.1299 -0.2021 -0.2083
   95POPC   C3B 1572   7.846   6.112   6.616  0.0744 -0.0207  0.1390
   95POPC   C4B 1573   7.887   5.812   6.227  0.0179 -0.0122 -0.0270
   96POPC   NC3 1574   6.107   3.350  10.024  0.2361 -0.0734  0.3849
   96POPC   PO4 1575   6.314   2.974  10.172 -0.2527 -0.2638  0.0497
   96POPC   GL1 1576   6.343   2.887   9.738  0.2014  0.0667  0.2753
   96POPC   GL2 1577   6.108   2.728   9.642 -0.1294 -0.0764 -0.2481
   96POPC   C1A 1578   6.409   2.969   9.260 -0.4317 -0.1850 -0.1964
   96POPC   D2A 1579   6.131   2.899   8.951  0.1088 -0.1354 -0.2540
   96POPC   C3A 1580   5.948   2.949   8.562 -0.2821 -0.0753 -0.2465
   96POPC   C4A 1581   5.618   2.777   8.234 -0.0188 -0.1365  0.5016
   96POPC   C1B 1582   5.952   2.490   9.327 -0.0419 -0.0457 -0.1460
   96POPC   C2B 1583   6.064   2.336   8.876 -0.0083 -0.0150  0.1149
   96POPC   C3B 1584   6.265   2.521   8.584  0.0709  0.1487  0.0473
   96POPC   C4B 1585   6.535   2.392   8.340 -0.1766  0.2420 -0.1697
   97POPC   NC3 1586   8.480   4.902   8.694 -0.1365 -0.1058  0.2560
   97POPC   PO4 1587   8.501   5.127   8.293 -0.1206 -0.1841 -0.0046
   97POPC   GL1 1588   8.521   5.015   7.928  0.0204 -0.2545  0.0543
   97POPC   GL2 1589   8.607   4.769   7.800  0.1754  0.2817  0.1557
   97POPC   C1A 1590   8.148   5.002   7.619 -0.2884 -0.0780 -0.1490
   97POPC   D2A 1591   7.872   4.932   7.248  0.1550 -0.1608 -0.0959
   97POPC   C3A 1592   8.039   4.634   6.929 -0.0147  0.2189  0.0359
   97POPC   C4A 1593   8.447   4.393   6.850  0.0567 -0.0221 -0.1925
   97POPC   C1B 1594   8.289   4.574   7.774  0.0658  0.0663  0.3071
   97POPC   C2B 1595   7.967   4.226   7.826 -0.0609 -0.3206  0.0079
   97POPC   C3B 1596   7.972   3.815   7.743 -0.1179  0.0024  0.0324
   97POPC   C4B 1597   7.893   3.574   7.389  0.0683  0.1165  0.1499
   98POPC   NC3 1598   3.088   0.005   8.558  0.0634  0.2874 -0.1410
   98POPC   PO4 1599   3.357  -0.255   8.296 -0.0923 -0.1413 -0.0085
   98POPC   GL1 1600   3.423  -0.129   7.830  0.0616  0.0810  0.1011
   98POPC   GL2 1601   3.745  -0.062   7.842  0.1015  0.2447 -0.2214
   98POPC   C1A 1602   3.464  -0.290   7.418 -0.4952 -0.2658  0.1646
   98POPC   D2A 1603   3.509  -0.647   7.175 -0.1687 -0.0102  0.4694
   98POPC   C3A 1604   3.890  -0.687   6.967  0.2125 -0.0185 -0.3525
   98POPC   C4A 1605   4.281  -0.833   6.718 -0.1129 -0.2229 -0.1113
   98POPC   C1B 1606   3.510   0.316   7.476 -0.3117  0.2396 -0.1217
   98POPC   C2B 1607   3.399   0.549   7.107  0.0452 -0.2577 -0.0154
   98POPC   C3B 1608   3.533   1.031   7.025  0.0459 -0.2474 -0.0017
   98POPC   C4B 1609   3.562   1.304   6.837  0.0799  0.0386  0.1963
   99POPC   NC3 1610   5.763   7.267   8.669 -0.0453 -0.0184  0.0420
   99POPC   PO4 1611   6.073   7.164   8.420  0.0924 -0.0913 -0.0622
   99POPC   GL1 1612   5.881   7.243   8.053  0.1667 -0.1599  0.1602
   99POPC   GL2 1613   5.994   7.553   7.800  0.0300 -0.1236 -0.1051
   99POPC   C1A 1614   5.950   7.137   7.643 -0.2573  0.0507 -0.3461
   99POPC   D2A 1615   5.627   7.114   7.372 -0.2240  0.0326  0.0091
   99POPC   C3A 1616   5.794   7.272   6.932 -0.1469  0.3734 -0.2635
   99POPC   C4A 1617   6.115   7.308   6.680 -0.0795  0.2838  0.3495
   99POPC   C1B 1618   6.274   7.607   7.498 -0.2293  0.0089 -0.1740
   99POPC   C2B 1619   6.484   7.918   7.355 -0.2119 -0.0960 -0.1080
   99POPC   C3B 1620   6.390   8.397   7.348 -0.0263  0.1275 -0.3037
   99POPC   C4B 1621   6.075   8.703   7.175  0.1102  0.1360  0.1352
  100POPC   NC3 1622   4.356   1.410   9.488  0.0512  0.0618 -0.0967
  100POPC   PO4 1623   4.649   1.486   9.066 -0.1197 -0.0315 -0.1516
  100POPC   GL1 1624   4.862   1.579   8.677  0.1942  0.0233 -0.1596
  100POPC   GL2 1625   5.207   1.560   8.734  0.4734  0.0047 -0.1675
  100POPC   C1A 1626   4.898   1.773   8.266  0.2052 -0.1104 -0.1778
  100POPC   D2A 1627   5.011   1.642   7.878 -0.4069 -0.1352 -0.1237
  100POPC   C3A 1628   4.904   1.255   7.622  0.0376 -0.1690 -0.1688
  100POPC   C4A 1629   4.763   0.952   7.353  0.1949  0.1273  0.1677
  100POPC   C1B 1630   5.144   1.340   8.355  0.2209 -0.1019  0.0083
  100POPC   C2B 1631   4.701   1.183   8.097 -0.0137  0.2591 -0.0285
  100POPC   C3B 1632   4.415   1.451   7.916  0.1687 -0.0460  0.3065
  100POPC   C4B 1633   4.554   1.635   7.439  0.3223  0.0403  0.0070
  101POPC   NC3 1634   6.055   8.396   8.242  0.2456 -0.2514 -0.0819
  101POPC   PO4 1635   5.646   8.619   8.384  0.0030  0.3722 -0.2781
  101POPC   GL1 1636   5.606   8.597   8.058  0.0372 -0.2392  0.2822
  101POPC   GL2 1637   5.308   8.438   7.963  0.2683  0.2444  0.2090
  101POPC   C1A 1638   5.444   8.789   7.660  0.0126  0.2589  0.1683
  101POPC   D2A 1639   5.290   8.951   7.325  0.0405 -0.3188 -0.0688
  101POPC   C3A 1640   4.914   8.916   7.113  0.1927  0.0949  0.1297
  101POPC   C4A 1641   4.751   8.805   6.767 -0.1180 -0.3591 -0.1184
  101POPC   C1B 1642   4.995   8.228   7.789 -0.3355  0.3308 -0.0663
  101POPC   C2B 1643   4.693   7.944   7.454 -0.1010 -0.0436 -0.0883
  101POPC   C3B 1644   4.793   7.550   7.438  0.0367  0.1060  0.1083
  101POPC   C4B 1645   4.574   7.126   7.404  0.0222 -0.1360  0.0820
  102POPC   NC3 1646   8.610   3.697   9.292  0.1392  0.2757  0.0047
  102POPC   PO4 1647   8.462   3.907   9.032 -0.0491 -0.3287  0.2152
  102POPC   GL1 1648   8.342   3.760   8.684 -0.3536 -0.0618  0.2163
  102POPC   GL2 1649   8.473   3.558   8.548  0.1472 -0.0985 -0.1475
  102POPC   C1A 1650   8.170   3.814   8.210  0.0959 -0.4706 -0.2140
  102POPC   D2A 1651   8.122   3.426   8.077 -0.0401 -0.1067 -0.0339
  102POPC   C3A 1652   7.755   3.371   7.848 -0.3501 -0.1968  0.0705
  102POPC   C4A 1653   7.467   3.673   7.794 -0.0966 -0.0836  0.0864
  102POPC   C1B 1654   8.487   3.159   8.297  0.0383  0.1218  0.0390
  102POPC   C2B 1655   8.396   2.836   8.053  0.1077  0.0193  0.0269
  102POPC   C3B 1656   8.173   2.477   8.161  0.0458  0.0613 -0.1986
  102POPC   C4B 1657   8.029   2.138   8.166 -0.0066  0.1494  0.2262
  103POPC   NC3 1658   3.995   5.584   9.058  0.1021  0.1503  0.5211
  103POPC   PO4 1659   4.183   6.030   8.939 -0.0845 -0.2107 -0.0116
  103POPC   GL1 1660   4.063   6.036   8.509  0.2791  0.0178  0.0731
  103POPC   GL2 1661   3.834   6.128   8.412 -0.1247 -0.0514 -0.0878
  103POPC   C1A 1662   4.088   5.808   8.048 -0.3359 -0.1295 -0.1420
  103POPC   D2A 1663   4.031   5.820   7.587  0.0775  0.0568  0.3824
  103POPC   C3A 1664   3.675   5.830   7.505 -0.1663 -0.4649 -0.1135
  103POPC   C4A 1665   3.637   5.434   7.202  0.3109 -0.0388  0.1022
  103POPC   C1B 1666   3.635   6.040   7.944 -0.0179 -0.0907  0.2238
  103POPC   C2B 1667   3.449   6.264   7.595 -0.0206  0.1015 -0.4610
  103POPC   C3B 1668   3.554   6.165   7.145  0.0822 -0.1194 -0.1232
  103POPC   C4B 1669   3.666   5.901   6.715  0.3036  0.1907 -0.0337
  104POPC   NC3 1670   1.781   1.493   8.431  0.0467  0.1936 -0.0912
  104POPC   PO4 1671   1.992   1.789   8.207 -0.0012 -0.1404 -0.0710
  104POPC   GL1 1672   1.672   1.836   7.894  0.0560  0.2186 -0.1033
  104POPC   GL2 1673   1.564   2.146   7.815 -0.0885 -0.3752  0.0781
  104POPC   C1A 1674   1.800   1.903   7.488 -0.3268 -0.1116 -0.0642
  104POPC   D2A 1675   1.877   1.958   7.127  0.1192 -0.2335 -0.1903
  104POPC   C3A 1676   1.978   2.248   6.883  0.1650  0.1488 -0.1297
  104POPC   C4A 1677   2.181   2.331   6.495  0.1667 -0.1234 -0.0099
  104POPC   C1B 1678   1.254   1.963   7.599 -0.2293  0.2784 -0.2285
  104POPC   C2B 1679   1.029   1.706   7.330 -0.1810  0.3443  0.1730
  104POPC   C3B 1680   0.694   1.621   7.012  0.0306  0.3150 -0.2137
  104POPC   C4B 1681   0.346   1.570   6.670 -0.1038  0.0840 -0.0484
  105POPC   NC3 1682   0.228   4.569   8.292  0.0200 -0.0939  0.0338
  105POPC   PO4 1683   0.111   4.186   8.204  0.0336 -0.3158 -0.3219
  105POPC   GL1 1684   0.282   4.039   7.874 -0.2977 -0.3419 -0.2419
  105POPC   GL2 1685   0.640   4.048   7.750  0.1778 -0.1566  0.2004
  105POPC   C1A 1686   0.252   3.674   7.689  0.1802 -0.1371 -0.1676
  105POPC   D2A 1687   0.494   3.383   7.286  0.1460  0.2148 -0.1861
  105POPC   C3A 1688   0.176   3.328   6.871  0.1820  0.3026 -0.0359
  105POPC   C4A 1689  -0.018   3.721   6.705 -0.1887  0.2075  0.1125
  105POPC   C1B 1690   0.427   3.969   7.335  0.1177 -0.0512 -0.1998
  105POPC   C2B 1691   0.475   3.836   6.924  0.2067  0.1971 -0.2668
  105POPC   C3B 1692   0.458   3.590   6.529 -0.0644 -0.0198 -0.0306
  105POPC   C4B 1693   0.123   3.470   6.306 -0.0465 -0.0129  0.0868
  106POPC   NC3 1694   8.221   9.138   8.487 -0.1042 -0.2350 -0.0667
  106POPC   PO4 1695   8.164   8.650   8.445  0.2681 -0.1422 -0.3967
  106POPC   GL1 1696   8.138   8.882   8.094  0.3080  0.0722 -0.0809
  106POPC   GL2 1697   7.845   9.136   8.148  0.1698 -0.0298  0.1921
  106POPC   C1A 1698   8.105   8.694   7.578 -0.1095 -0.2168  0.1073
  106POPC   D2A 1699   8.102   8.491   7.183  0.4025  0.0815  0.0951
  106POPC   C3A 1700   8.277   8.468   6.805 -0.0694 -0.3918  0.1940
  106POPC   C4A 1701   8.647   8.525   6.577 -0.0039  0.0664  0.0698
  106POPC   C1B 1702   7.583   9.188   7.880  0.1098 -0.1026 -0.2101
  106POPC   C2B 1703   7.250   9.441   7.596 -0.1162  0.1730  0.2922
  106POPC   C3B 1704   7.228   9.641   7.192 -0.0800  0.0275  0.0259
  106POPC   C4B 1705   7.227  10.032   7.064  0.0215  0.0300  0.0406
  107POPC   NC3 1706   4.449   2.729   8.535 -0.2629  0.2960 -0.0019
  107POPC   PO4 1707   4.753   3.011   8.882 -0.1286 -0.1619  0.1948
  107POPC   GL1 1708   4.675   3.174   8.364  0.1751 -0.3713 -0.1539
  107POPC   GL2 1709   4.283   3.195   8.242  0.0813 -0.1234  0.0263
  107POPC   C1A 1710   4.870   3.607   8.182 -0.1935 -0.0716 -0.2115
  107POPC   D2A 1711   5.209   3.955   8.197 -0.1958  0.3247 -0.0252
  107POPC   C3A 1712   5.107   4.295   7.856  0.0872 -0.0698 -0.0449
  107POPC   C4A 1713   5.235   4.653   7.613  0.1903  0.2503 -0.2000
  107POPC   C1B 1714   4.077   3.232   7.856  0.0175 -0.0577  0.0555
  107POPC   C2B 1715   3.939   3.235   7.454  0.2386  0.1104 -0.1248
  107POPC   C3B 1716   4.045   3.062   6.987  0.1257  0.1545 -0.0683
  107POPC   C4B 1717   4.101   2.897   6.611  0.0312  0.1449  0.3810
  108POPC   NC3 1718   8.613   3.067   9.306 -0.0227 -0.0779  0.2600
  108POPC   PO4 1719   8.505   3.225   9.635  0.0418 -0.0639  0.0068
  108POPC   GL1 1720   8.199   3.333   9.345  0.2441 -0.0486 -0.2880
  108POPC   GL2 1721   8.232   3.465   9.071  0.1365  0.0770  0.1018
  108POPC   C1A 1722   7.984   3.009   9.023 -0.1793  0.3016  0.2624
  108POPC   D2A 1723   8.048   2.639   8.683 -0.1219  0.1868  0.1840
  108POPC   C3A 1724   7.696   2.628   8.463 -0.0078  0.0249  0.1140
  108POPC   C4A 1725   7.612   2.401   8.068  0.0048 -0.1651 -0.0067
  108POPC   C1B 1726   8.078   3.354   8.595  0.3555 -0.2685 -0.0555
  108POPC   C2B 1727   7.995   2.995   8.315 -0.0298  0.3703  0.0080
  108POPC   C3B 1728   7.804   2.922   7.923 -0.0996  0.1817  0.1297
  108POPC   C4B 1729   7.908   2.566   7.733  0.1753  0.0037  0.2051
  109POPC   NC3 1730   8.713   7.418   8.711 -0.0351 -0.0846 -0.0774
  109POPC   PO4 1731   9.028   7.137   8.440 -0.0382 -0.0710  0.1911
  109POPC   GL1 1732   8.992   7.096   7.917  0.0291  0.2369  0.0418
  109POPC   GL2 1733   9.217   6.953   7.723 -0.0115  0.5257 -0.1375
  109POPC   C1A 1734   8.807   7.097   7.505 -0.3983 -0.0025 -0.0473
  109POPC   D2A 1735   8.797   7.049   7.104 -0.3825 -0.0715 -0.1410
  109POPC   C3A 1736   9.057   7.048   6.727 -0.1785 -0.0661  0.3165
  109POPC   C4A 1737   9.322   7.325   6.510 -0.3100 -0.0342 -0.1868
  109POPC   C1B 1738   9.317   7.209   7.298  0.0573  0.0561 -0.1578
  109POPC   C2B 1739   9.371   7.493   7.004  0.1111  0.0097  0.1541
  109POPC   C3B 1740   9.410   7.808   6.751 -0.1061 -0.1031  0.0370
  109POPC   C4B 1741   9.532   8.027   6.302  0.2371 -0.1407 -0.3746
  110POPC   NC3 1742   3.765   6.559   8.685  0.2146  0.1249 -0.1206
  110POPC   PO4 1743   4.213   6.541   8.521 -0.1138  0.1002 -0.0354
  110POPC   GL1 1744   4.348   6.321   8.165 -0.0945  0.0951  0.1038
  110POPC   GL2 1745   4.530   6.351   7.921 -0.3611 -0.1484 -0.0743
  110POPC   C1A 1746   4.120   6.338   7.683 -0.0493 -0.1992  0.1938
  110POPC   D2A 1747   4.246   6.288   7.372  0.3649  0.0014 -0.0455
  110POPC   C3A 1748   4.281   6.226   6.872  0.1025 -0.3348 -0.0572
  110POPC   C4A 1749   4.055   6.276   6.491  0.1174  0.0633 -0.0701
  110POPC   C1B 1750   4.728   6.546   7.538  0.2901  0.0182 -0.1435
  110POPC   C2B 1751   4.872   6.709   7.176  0.1192 -0.2241 -0.1058
  110POPC   C3B 1752   4.886   7.093   6.953  0.1350  0.1545 -0.3097
  110POPC   C4B 1753   4.868   7.434   6.634 -0.2377 -0.0045  0.2754
  111POPC   NC3 1754   2.295   9.531   8.400 -0.0780 -0.0540  0.1510
  111POPC   PO4 1755   2.069   9.225   8.133  0.0590 -0.0729  0.1720
  111POPC   GL1 1756   2.030   9.528   7.793 -0.1611 -0.0796  0.1054
  111POPC   GL2 1757   2.118   9.849   8.015  0.1956  0.0835 -0.1379
  111POPC   C1A 1758   2.071   9.642   7.361  0.3241 -0.1444 -0.1981
  111POPC   D2A 1759   2.079   9.988   7.119  0.4009  0.1642 -0.0625
  111POPC   C3A 1760   1.850  10.325   7.191 -0.0662 -0.0700  0.0278
  111POPC   C4A 1761   1.688  10.359   7.557  0.1569 -0.0667 -0.0726
  111POPC   C1B 1762   2.137  10.098   7.610 -0.0971 -0.0743  0.0428
  111POPC   C2B 1763   2.522  10.102   7.385 -0.1064  0.1020 -0.2282
  111POPC   C3B 1764   2.810   9.716   7.331  0.1933 -0.1598  0.1027
  111POPC   C4B 1765   3.053   9.466   7.147  0.0432 -0.2027  0.1862
  112POPC   NC3 1766   8.403   5.814   8.249 -0.2940  0.1116 -0.3129
  112POPC   PO4 1767   8.834   6.062   8.259 -0.0629  0.0248  0.2598
  112POPC   GL1 1768   8.533   5.992   7.818  0.1306 -0.0053  0.0471
  112POPC   GL2 1769   8.354   6.297   7.717  0.0134 -0.0757  0.2147
  112POPC   C1A 1770   8.439   5.699   7.551 -0.0075  0.0785  0.0736
  112POPC   D2A 1771   8.284   5.393   7.301 -0.1834  0.0297  0.0700
  112POPC   C3A 1772   8.386   5.416   6.937 -0.2080  0.1011 -0.3554
  112POPC   C4A 1773   8.139   5.431   6.489  0.0894 -0.0781 -0.0670
  112POPC   C1B 1774   8.110   6.136   7.415  0.1540  0.2098  0.0606
  112POPC   C2B 1775   7.900   5.798   7.218 -0.2674  0.1433 -0.4364
  112POPC   C3B 1776   7.865   5.413   7.034 -0.0026 -0.1322 -0.1597
  112POPC   C4B 1777   7.887   5.066   6.775 -0.1088  0.0775 -0.0808
  113POPC   NC3 1778   0.584   9.780   8.463  0.2619  0.1783 -0.3459
  113POPC   PO4 1779   0.222   9.552   8.426  0.1274  0.0234 -0.0868
  113POPC   GL1 1780   0.344   9.499   8.093 -0.1867 -0.2461 -0.1173
  113POPC   GL2 1781   0.580   9.264   8.089 -0.0780  0.3836  0.2478
  113POPC   C1A 1782   0.193   9.617   7.731  0.0419 -0.1977  0.0332
  113POPC   D2A 1783   0.266   9.992   7.498 -0.1008  0.2309 -0.6363
  113POPC   C3A 1784  -0.088  10.103   7.267  0.3571 -0.1444  0.1543
  113POPC   C4A 1785  -0.132  10.006   6.850  0.0519 -0.0277 -0.0204
  113POPC   C1B 1786   0.712   9.475   7.698  0.0584 -0.0660 -0.1339
  113POPC   C2B 1787   0.591   9.583   7.392 -0.0479  0.3516 -0.0714
  113POPC   C3B 1788   0.291   9.596   7.114 -0.0237  0.1146  0.1889
  113POPC   C4B 1789   0.190   9.706   6.648  0.1434  0.1671 -0.3983
  114POPC   NC3 1790   2.878   6.748   8.536 -0.4303 -0.1611 -0.0466
  114POPC   PO4 1791   3.254   6.544   8.614 -0.0080  0.1151  0.2503
  114POPC   GL1 1792   3.407   6.454   8.265  0.2191 -0.0283  0.0655
  114POPC   GL2 1793   3.772   6.650   8.194  0.0163  0.1377 -0.2906
  114POPC   C1A 1794   3.367   6.667   7.868  0.0289 -0.0239 -0.2430
  114POPC   D2A 1795   3.248   7.018   7.534  0.3125  0.0806  0.0690
  114POPC   C3A 1796   3.607   7.102   7.256 -0.1235 -0.1636 -0.0791
  114POPC   C4A 1797   3.799   6.738   7.379 -0.1595 -0.1243 -0.2772
  114POPC   C1B 1798   3.860   6.818   7.841 -0.4349 -0.0125  0.3764
  114POPC   C2B 1799   4.281   6.786   7.580  0.2156 -0.2540 -0.4265
  114POPC   C3B 1800   4.361   6.735   7.167  0.0071 -0.0912  0.0636
  114POPC   C4B 1801   4.254   6.882   6.669 -0.2723 -0.1129 -0.1720
  115POPC   NC3 1802   7.636   6.648   8.361  0.1277 -0.1467  0.0694
  115POPC   PO4 1803   7.867   6.532   8.025 -0.2625  0.0380  0.1959
  115POPC   GL1 1804   7.652   6.389   7.636  0.3033  0.1794 -0.0335
  115POPC   GL2 1805   7.264   6.374   7.799  0.1990 -0.0501  0.2188
  115POPC   C1A 1806   7.456   6.642   7.380 -0.5324  0.0332  0.0660
  115POPC   D2A 1807   7.450   6.640   6.876  0.3513 -0.3070 -0.3463
  115POPC   C3A 1808   7.346   6.386   6.675  0.1396  0.0518  0.1380
  115POPC   C4A 1809   6.998   6.326   6.368 -0.0974 -0.2439 -0.2488
  115POPC   C1B 1810   6.889   6.456   7.531  0.0247 -0.1930 -0.1220
  115POPC   C2B 1811   6.551   6.448   7.301 -0.1952  0.0665 -0.2150
  115POPC   C3B 1812   6.212   6.315   6.884 -0.1882  0.2335  0.1713
  115POPC   C4B 1813   6.005   6.316   6.443 -0.2857  0.0794 -0.0780
  116POPC   NC3 1814   8.625   4.174   8.607  0.0321  0.0008  0.1113
  116POPC   PO4 1815   8.991   3.942   8.634  0.1290 -0.1196  0.1380
  116POPC   GL1 1816   8.837   3.860   8.252 -0.1946 -0.0397 -0.0523
  116POPC   GL2 1817   8.853   3.936   7.861  0.0914  0.1006 -0.4001
  116POPC   C1A 1818   8.643   3.528   7.993  0.0596 -0.1592  0.0353
  116POPC   D2A 1819   8.391   3.541   7.591 -0.0161  0.2976  0.0196
  116POPC   C3A 1820   8.574   3.473   7.183 -0.1973 -0.3118  0.1130
  116POPC   C4A 1821   8.467   3.304   6.774 -0.0516 -0.2066  0.1807
  116POPC   C1B 1822   9.269   3.963   7.703 -0.1931 -0.3036  0.0837
  116POPC   C2B 1823   9.756   3.978   7.528  0.1855  0.0637  0.1166
  116POPC   C3B 1824   9.879   3.678   7.216  0.0375 -0.0968 -0.1202
  116POPC   C4B 1825   9.844   3.313   7.327  0.0782  0.2928 -0.0459
  117POPC   NC3 1826   0.229   5.169   8.389 -0.3590 -0.0228 -0.0911
  117POPC   PO4 1827   0.554   5.509   8.313  0.3333 -0.1730 -0.0772
  117POPC   GL1 1828   0.503   5.309   7.799 -0.1238  0.0681  0.1442
  117POPC   GL2 1829   0.619   5.004   7.795  0.1009 -0.0335  0.1407
  117POPC   C1A 1830   0.568   5.236   7.296  0.2607 -0.1242 -0.0103
  117POPC   D2A 1831   0.644   5.106   6.830  0.3254  0.1735  0.0140
  117POPC   C3A 1832   0.372   5.179   6.532  0.0670 -0.1389 -0.1479
  117POPC   C4A 1833  -0.036   5.375   6.501 -0.1288  0.2560  0.2560
  117POPC   C1B 1834   0.809   4.952   7.620 -0.0182  0.3043 -0.0280
  117POPC   C2B 1835   0.982   4.808   7.228  0.3732 -0.0262 -0.0246
  117POPC   C3B 1836   0.962   4.661   6.763  0.2307 -0.1591 -0.1209
  117POPC   C4B 1837   1.231   4.531   6.497  0.1722  0.0750  0.3698
  118POPC   NC3 1838   5.167   8.427   8.561 -0.0494  0.1101 -0.0664
  118POPC   PO4 1839   5.229   8.934   8.506 -0.0469 -0.0068  0.0957
  118POPC   GL1 1840   4.974   8.894   8.182 -0.1328  0.1759 -0.0754
  118POPC   GL2 1841   4.676   8.999   8.143 -0.1014 -0.0833  0.1721
  118POPC   C1A 1842   4.918   8.780   7.770 -0.1590  0.0643 -0.1266
  118POPC   D2A 1843   5.084   8.502   7.386 -0.2390 -0.3055 -0.3410
  118POPC   C3A 1844   5.237   8.181   7.125 -0.0428  0.1127  0.1556
  118POPC   C4A 1845   5.472   7.948   7.081 -0.4032 -0.3161  0.2591
  118POPC   C1B 1846   4.546   9.192   7.822  0.0868  0.1839  0.1264
  118POPC   C2B 1847   4.284   9.381   7.542 -0.1984  0.2969 -0.1243
  118POPC   C3B 1848   4.003   9.685   7.432 -0.3283 -0.0460 -0.1863
  118POPC   C4B 1849   3.807   9.947   7.141 -0.1484  0.1303  0.2118
  119POPC   NC3 1850   3.488   1.816   8.704  0.1460  0.1777 -0.2012
  119POPC   PO4 1851   3.401   2.182   8.446 -0.0624  0.2688 -0.0924
  119POPC   GL1 1852   3.396   1.939   7.951 -0.1204 -0.0035 -0.2176
  119POPC   GL2 1853   3.710   1.894   7.856 -0.0083 -0.2824 -0.5090
  119POPC   C1A 1854   3.283   1.878   7.545  0.2876  0.1313  0.2239
  119POPC   D2A 1855   3.156   2.032   7.164 -0.2386 -0.0085  0.2653
  119POPC   C3A 1856   2.884   1.972   7.000  0.0475  0.0996 -0.2180
  119POPC   C4A 1857   2.473   2.287   6.940 -0.0806  0.2452  0.2252
  119POPC   C1B 1858   4.046   2.199   7.828  0.1608  0.2607  0.0117
  119POPC   C2B 1859   4.253   2.301   7.450 -0.4367  0.0954 -0.1099
  119POPC   C3B 1860   4.554   2.449   7.031  0.1662 -0.1478 -0.0895
  119POPC   C4B 1861   4.474   2.848   6.950 -0.0732 -0.0499  0.2269
  120POPC   NC3 1862   1.082   7.329   8.390  0.1763  0.0253 -0.1362
  120POPC   PO4 1863   0.593   7.559   8.390  0.0458  0.1490  0.6799
  120POPC   GL1 1864   0.777   7.844   8.039 -0.1649 -0.0744  0.0420
  120POPC   GL2 1865   1.074   7.846   8.060  0.0575 -0.0606  0.1137
  120POPC   C1A 1866   0.582   8.096   7.706  0.0460 -0.2998  0.1880
  120POPC   D2A 1867   0.769   8.393   7.445  0.0796  0.1720  0.2960
  120POPC   C3A 1868   0.464   8.574   7.201  0.2564 -0.1940  0.0570
  120POPC   C4A 1869   0.376   8.134   7.098 -0.0566 -0.1535  0.0182
  120POPC   C1B 1870   1.151   7.873   7.679  0.1656  0.0807 -0.1775
  120POPC   C2B 1871   0.916   7.882   7.304 -0.3062  0.1436 -0.0653
  120POPC   C3B 1872   0.816   7.991   6.881 -0.3204 -0.1189  0.2719
  120POPC   C4B 1873   0.702   8.374   6.809  0.2515 -0.1721  0.0454
  121POPC   NC3 1874   6.740   5.481   8.410  0.0909 -0.1368  0.0198
  121POPC   PO4 1875   6.539   5.222   8.735  0.1734 -0.1663 -0.0760
  121POPC   GL1 1876   6.466   4.826   8.468  0.3553  0.2133  0.0913
  121POPC   GL2 1877   6.728   4.643   8.264  0.2056  0.0986  0.1222
  121POPC   C1A 1878   6.409   4.925   7.961 -0.1101  0.1099 -0.1848
  121POPC   D2A 1879   6.291   5.087   7.496 -0.4510  0.2542  0.1643
  121POPC   C3A 1880   6.244   5.264   7.122  0.0168  0.1495  0.1089
  121POPC   C4A 1881   5.900   5.305   6.908  0.0562 -0.2047  0.0377
  121POPC   C1B 1882   6.807   4.671   7.911 -0.1482 -0.0584  0.1755
  121POPC   C2B 1883   6.893   4.897   7.511  0.0487  0.1613 -0.3501
  121POPC   C3B 1884   6.891   4.980   7.092  0.2117  0.2008  0.1145
  121POPC   C4B 1885   6.829   4.778   6.765 -0.2452 -0.0291 -0.0504
  122POPC   NC3 1886   5.175   2.651   8.998  0.2136 -0.1128 -0.1307
  122POPC   PO4 1887   4.821   2.477   8.766  0.0889 -0.1729  0.0667
  122POPC   GL1 1888   4.935   2.257   8.396 -0.0741 -0.1165  0.2774
  122POPC   GL2 1889   5.178   2.587   8.418 -0.2042  0.0385  0.1988
  122POPC   C1A 1890   5.023   2.192   7.969 -0.1677  0.0787 -0.0146
  122POPC   D2A 1891   5.362   2.006   7.688 -0.2716 -0.0440  0.0137
  122POPC   C3A 1892   5.861   2.118   7.789  0.3356  0.1982 -0.2472
  122POPC   C4A 1893   6.095   2.431   8.156  0.0111 -0.2606 -0.0702
  122POPC   C1B 1894   5.063   2.732   7.981  0.1209  0.2428  0.1214
  122POPC   C2B 1895   5.119   2.916   7.665 -0.2131 -0.0078  0.0537
  122POPC   C3B 1896   4.860   3.088   7.309  0.0079 -0.0248 -0.0710
  122POPC   C4B 1897   4.698   3.287   6.891  0.1447  0.0358 -0.1229
  123POPC   NC3 1898   8.593   1.271  10.302 -0.2504 -0.1208  0.1100
  123POPC   PO4 1899   8.205   1.457  10.108 -0.1044  0.0818 -0.0732
  123POPC   GL1 1900   8.051   1.459   9.651  0.0732  0.0073 -0.0169
  123POPC   GL2 1901   8.161   1.083   9.537 -0.0053  0.2262 -0.0063
  123POPC   C1A 1902   7.707   1.654   9.438  0.1346  0.1231 -0.1366
  123POPC   D2A 1903   7.734   1.882   9.246  0.0247 -0.0466  0.1813
  123POPC   C3A 1904   7.322   2.200   9.232 -0.1277  0.0255 -0.3189
  123POPC   C4A 1905   6.877   2.162   9.380  0.0062  0.2066  0.0767
  123POPC   C1B 1906   7.999   1.373   9.195  0.0211  0.2103 -0.1077
  123POPC   C2B 1907   8.058   1.573   8.792 -0.5559  0.0513  0.2353
  123POPC   C3B 1908   8.367   1.681   8.453  0.0119  0.1023 -0.1284
  123POPC   C4B 1909   8.654   1.520   8.124 -0.0285 -0.2175  0.0289
  124POPC   NC3 1910   3.905   1.547   8.682 -0.0148 -0.0718  0.0541
  124POPC   PO4 1911   3.545   1.336   8.590  0.2094 -0.0528 -0.2006
  124POPC   GL1 1912   3.429   1.486   8.206  0.0652  0.1865 -0.1271
  124POPC   GL2 1913   3.770   1.525   8.164  0.1887  0.2192  0.1008
  124POPC   C1A 1914   3.418   1.425   7.743  0.1475 -0.0968 -0.3094
  124POPC   D2A 1915   3.573   1.524   7.363  0.0472  0.0459 -0.2458
  124POPC   C3A 1916   3.915   1.537   7.072  0.2205  0.0680 -0.0546
  124POPC   C4A 1917   4.051   1.649   6.734  0.0410  0.2914  0.1262
  124POPC   C1B 1918   3.933   1.495   7.779  0.0987 -0.3693 -0.0463
  124POPC   C2B 1919   4.077   1.820   7.481 -0.0732  0.1124  0.3362
  124POPC   C3B 1920   4.296   1.898   7.137 -0.2327 -0.0188  0.2589
  124POPC   C4B 1921   4.252   2.058   6.694 -0.0297 -0.1835  0.0026
  125POPC   NC3 1922   6.909   6.748   8.709 -0.1474 -0.4533 -0.3977
  125POPC   PO4 1923   7.138   6.641   8.275  0.1975 -0.0917 -0.3918
  125POPC   GL1 1924   6.865   6.787   7.955  0.1515 -0.4408  0.1309
  125POPC   GL2 1925   6.905   7.105   7.855  0.0282  0.2448 -0.0448
  125POPC   C1A 1926   6.592   6.918   7.545  0.0515  0.1619  0.0027
  125POPC   D2A 1927   6.294   7.144   7.274 -0.2058  0.2514 -0.2632
  125POPC   C3A 1928   6.406   7.534   7.017  0.3203 -0.0783 -0.0483
  125POPC   C4A 1929   6.668   7.746   6.826 -0.0256 -0.3723  0.0269
  125POPC   C1B 1930   7.090   6.961   7.541  0.1157 -0.1528  0.0332
  125POPC   C2B 1931   7.037   6.793   7.184 -0.0664 -0.0217  0.2134
  125POPC   C3B 1932   6.973   6.890   6.767  0.0378  0.0215  0.0817
  125POPC   C4B 1933   6.777   6.885   6.357 -0.1835 -0.0272 -0.0769
  126POPC   NC3 1934   9.106   9.579   8.763  0.0840 -0.3119  0.0393
  126POPC   PO4 1935   9.116  10.032   8.854  0.0332  0.0534 -0.0718
  126POPC   GL1 1936   9.062  10.225   8.507  0.1866 -0.1773  0.0804
  126POPC   GL2 1937   9.016   9.909   8.365  0.1555  0.0361 -0.0185
  126POPC   C1A 1938   9.206  10.584   8.316  0.0184  0.1227  0.1709
  126POPC   D2A 1939   9.519  10.840   8.136 -0.1924 -0.3913  0.0259
  126POPC   C3A 1940   9.456  11.291   8.172  0.0332  0.3830 -0.0219
  126POPC   C4A 1941   9.180  11.653   8.155 -0.1264  0.1092 -0.0507
  126POPC   C1B 1942   8.746   9.989   8.038  0.0239  0.0100  0.1371
  126POPC   C2B 1943   8.643  10.155   7.618  0.4933  0.2631  0.0637
  126POPC   C3B 1944   8.944  10.293   7.346  0.2128  0.1465  0.2769
  126POPC   C4B 1945   8.981  10.577   6.954 -0.0980  0.1070 -0.2289
  127POPC   NC3 1946   0.905   0.741   8.393  0.1504  0.0617 -0.0319
  127POPC   PO4 1947   0.554   0.961   8.514  0.0261 -0.0275  0.0929
  127POPC   GL1 1948   0.446   0.900   8.127 -0.1880  0.3862  0.0962
  127POPC   GL2 1949   0.596   0.691   7.981  0.1362  0.0275 -0.0904
  127POPC   C1A 1950   0.473   1.162   7.738  0.1076 -0.2601  0.0906
  127POPC   D2A 1951   0.692   1.181   7.338 -0.0380  0.1476  0.0085
  127POPC   C3A 1952   0.433   1.079   6.813 -0.1944  0.1110 -0.1943
  127POPC   C4A 1953   0.313   1.002   6.501  0.0821 -0.0289 -0.1758
  127POPC   C1B 1954   0.710   0.736   7.587 -0.1239  0.2877  0.1368
  127POPC   C2B 1955   1.084   0.759   7.288 -0.2304  0.0543 -0.2964
  127POPC   C3B 1956   1.156   0.701   6.827 -0.0081 -0.0859  0.1211
  127POPC   C4B 1957   1.244   0.961   6.469  0.1925 -0.1804  0.2056
  128POPC   NC3 1958   4.183   8.217   8.539 -0.0738  0.2255  0.3182
  128POPC   PO4 1959   4.654   8.372   8.501  0.4254  0.3644  0.0473
  128POPC   GL1 1960   4.619   8.406   8.062 -0.1139 -0.0601 -0.2128
  128POPC   GL2 1961   4.180   8.408   8.068 -0.1709 -0.1964 -0.4570
  128POPC   C1A 1962   4.565   8.447   7.625 -0.0349 -0.0179  0.1826
  128POPC   D2A 1963   4.350   8.422   7.143 -0.1144  0.0595 -0.1116
  128POPC   C3A 1964   4.381   8.442   6.712  0.1048 -0.1025 -0.1856
  128POPC   C4A 1965   4.333   8.358   6.354 -0.1121  0.1276 -0.0347
  128POPC   C1B 1966   4.204   8.709   7.779  0.1026 -0.2068  0.0131
  128POPC   C2B 1967   4.306   8.826   7.456  0.1849 -0.1930 -0.0025
  128POPC   C3B 1968   4.534   9.183   7.189 -0.0973 -0.1224 -0.1383
  128POPC   C4B 1969   4.514   9.595   7.115  0.0634  0.1481  0.2067
  129POPC   NC3 1970   0.428   3.303   8.426  0.2290  0.4206  0.1011
  129POPC   PO4 1971   0.352   3.726   8.266 -0.0395 -0.1479 -0.1906
  129POPC   GL1 1972  -0.039   3.630   8.149 -0.0378  0.0172  0.3937
  129POPC   GL2 1973   0.095   3.333   7.992  0.0919  0.1058  0.0054
  129POPC   C1A 1974  -0.311   3.611   7.848  0.0921  0.0772 -0.3315
  129POPC   D2A 1975  -0.517   3.478   7.399 -0.1891  0.1674 -0.0955
  129POPC   C3A 1976  -0.314   3.399   6.977  0.0616 -0.1057  0.0518
  129POPC   C4A 1977  -0.272   3.330   6.598  0.1364  0.0726 -0.3313
  129POPC   C1B 1978  -0.292   3.116   7.765 -0.0115  0.1158  0.2612
  129POPC   C2B 1979  -0.412   2.993   7.366  0.0275 -0.1188  0.1828
  129POPC   C3B 1980  -0.548   2.866   6.981  0.4667 -0.1974  0.1955
  129POPC   C4B 1981  -0.912   2.888   6.587 -0.0021 -0.2896 -0.0372
  130POPC   NC3 1982   6.820   1.811  10.457  0.1190  0.1066  0.2610
  130POPC   PO4 1983   7.047   1.486  10.161 -0.0665 -0.2212  0.2710
  130POPC   GL1 1984   7.291   1.683   9.809 -0.0386 -0.1005  0.1493
  130POPC   GL2 1985   7.283   2.087   9.757  0.0481 -0.1431  0.1403
  130POPC   C1A 1986   7.221   1.718   9.327 -0.0882  0.0524 -0.0244
  130POPC   D2A 1987   7.094   1.788   8.891 -0.2449 -0.0182 -0.1913
  130POPC   C3A 1988   6.816   1.599   8.656  0.0983 -0.2695 -0.2101
  130POPC   C4A 1989   6.655   1.207   8.476  0.1959 -0.2440  0.0896
  130POPC   C1B 1990   7.104   2.491   9.695  0.0898 -0.2665  0.1638
  130POPC   C2B 1991   7.098   2.651   9.245  0.2851  0.3580 -0.0804
  130POPC   C3B 1992   6.908   3.041   9.065 -0.0657  0.1939  0.0169
  130POPC   C4B 1993   6.628   3.352   9.050 -0.0445 -0.0938  0.1157
  131POPC   NC3 1994   2.879   3.192   9.036 -0.5754 -0.0838  0.1595
  131POPC   PO4 1995   2.799   3.103   8.571  0.1046 -0.0202  0.0551
  131POPC   GL1 1996   2.664   3.386   8.271 -0.0193  0.1741 -0.0212
  131POPC   GL2 1997   2.982   3.541   8.249  0.1733  0.1101 -0.2533
  131POPC   C1A 1998   2.449   3.352   7.861 -0.1975 -0.1017 -0.1920
  131POPC   D2A 1999   2.587   3.622   7.567  0.2433 -0.0016  0.1404
  131POPC   C3A 2000   2.832   3.752   7.098 -0.1496  0.1148 -0.1127
  131POPC   C4A 2001   2.576   3.875   6.706 -0.0333 -0.3583  0.1117
  131POPC   C1B 2002   2.915   3.399   7.895 -0.1269 -0.0457  0.1272
  131POPC   C2B 2003   3.003   3.335   7.420  0.1087  0.2875  0.0724
  131POPC   C3B 2004   3.110   3.282   6.994 -0.1038 -0.0041 -0.2496
  131POPC   C4B 2005   2.891   3.433   6.721  0.2672  0.0952  0.1928
  132POPC   NC3 2006   2.953   5.606   9.071  0.1120 -0.1676 -0.2155
  132POPC   PO4 2007   3.075   5.556   8.665 -0.2711  0.1750  0.1651
  132POPC   GL1 2008   2.893   5.707   8.368  0.0844 -0.0735 -0.0924
  132POPC   GL2 2009   2.905   6.111   8.335 -0.1802 -0.2622  0.1925
  132POPC   C1A 2010   2.850   5.729   7.927 -0.0275  0.0861  0.1936
  132POPC   D2A 2011   2.845   6.006   7.486 -0.1492 -0.1330 -0.1844
  132POPC   C3A 2012   2.915   6.238   7.151 -0.1813  0.2448  0.0800
  132POPC   C4A 2013   3.084   6.067   6.749 -0.0227  0.3907  0.0915
  132POPC   C1B 2014   3.108   6.230   7.942  0.1485  0.2456 -0.2835
  132POPC   C2B 2015   3.041   6.527   7.517  0.0575 -0.3263 -0.2451
  132POPC   C3B 2016   3.278   6.578   7.199 -0.1533 -0.0950 -0.1773
  132POPC   C4B 2017   3.419   6.882   6.896 -0.1291  0.0382 -0.1962
  133POPC   NC3 2018   3.901   5.239   8.620  0.0224  0.1200  0.0167
  133POPC   PO4 2019   3.411   5.159   8.617  0.0132 -0.0994 -0.0461
  133POPC   GL1 2020   3.544   4.870   8.214 -0.2054  0.3448  0.0559
  133POPC   GL2 2021   3.924   4.869   8.284  0.0208  0.2298  0.2680
  133POPC   C1A 2022   3.709   4.456   7.941  0.4161  0.3988 -0.0926
  133POPC   D2A 2023   3.787   4.253   7.498 -0.2956 -0.2920 -0.0863
  133POPC   C3A 2024   3.974   4.392   7.132  0.1144 -0.2100  0.2704
  133POPC   C4A 2025   4.258   4.331   6.708 -0.1468  0.0537 -0.0643
  133POPC   C1B 2026   4.049   4.855   7.884 -0.0024 -0.1119  0.0434
  133POPC   C2B 2027   4.485   5.004   7.755 -0.0182 -0.2140 -0.1461
  133POPC   C3B 2028   4.838   4.953   7.613  0.2946  0.1770  0.3070
  133POPC   C4B 2029   4.979   4.732   7.201 -0.2876 -0.0866  0.1162
  134POPC   NC3 2030   2.719   5.262   8.549  0.1031 -0.2392 -0.0759
  134POPC   PO4 2031   2.341   5.495   8.442 -0.3977  0.0208 -0.0637
  134POPC   GL1 2032   2.475   5.362   8.050  0.2969  0.1759  0.3070
  134POPC   GL2 2033   2.419   5.095   8.025 -0.0263 -0.2853 -0.0093
  134POPC   C1A 2034   2.766   5.337   7.631 -0.1743 -0.1712 -0.3120
  134POPC   D2A 2035   2.913   5.256   7.092 -0.1112  0.2108 -0.5111
  134POPC   C3A 2036   2.912   4.817   7.042  0.5192 -0.0675 -0.0940
  134POPC   C4A 2037   2.893   4.589   7.361 -0.0303  0.2114 -0.2334
  134POPC   C1B 2038   2.284   5.288   7.622  0.0432 -0.2560  0.0070
  134POPC   C2B 2039   2.164   5.570   7.251 -0.1422 -0.0960  0.2177
  134POPC   C3B 2040   1.798   5.787   7.042  0.3569 -0.3306  0.1193
  134POPC   C4B 2041   1.397   5.919   7.069 -0.1971  0.2538  0.3361
  135POPC   NC3 2042   0.674   2.486   8.839 -0.1669 -0.1813  0.1057
  135POPC   PO4 2043   0.591   2.854   8.868  0.0337  0.2186 -0.0692
  135POPC   GL1 2044   0.558   2.793   8.371 -0.2196 -0.1529 -0.1384
  135POPC   GL2 2045   0.390   2.927   8.096 -0.0220  0.3079 -0.0385
  135POPC   C1A 2046   0.284   2.429   8.212 -0.2186 -0.3183 -0.2253
  135POPC   D2A 2047   0.158   2.120   7.775  0.0821 -0.2447 -0.1267
  135POPC   C3A 2048  -0.175   2.152   7.551 -0.4040  0.0484  0.0081
  135POPC   C4A 2049  -0.266   2.496   7.232  0.4612 -0.1920  0.1431
  135POPC   C1B 2050   0.282   3.110   7.641 -0.1382  0.1616 -0.0815
  135POPC   C2B 2051   0.127   2.839   7.258 -0.3401 -0.0792  0.3898
  135POPC   C3B 2052  -0.053   2.832   6.954  0.1262 -0.2279  0.0241
  135POPC   C4B 2053  -0.326   2.499   6.690  0.4971  0.2721 -0.1547
  136POPC   NC3 2054   8.977   8.455   8.706 -0.2751 -0.1926 -0.2674
  136POPC   PO4 2055   9.210   8.676   8.428  0.1482  0.0376  0.0849
  136POPC   GL1 2056   9.486   8.931   8.034  0.1344 -0.2290  0.0074
  136POPC   GL2 2057   9.710   9.098   8.271  0.0724 -0.0680 -0.3118
  136POPC   C1A 2058   9.621   9.193   7.648  0.1728  0.2999 -0.1844
  136POPC   D2A 2059   9.545   9.167   7.248  0.1090  0.1074  0.4631
  136POPC   C3A 2060   9.502   8.777   7.038  0.2805 -0.0848 -0.1081
  136POPC   C4A 2061   9.043   8.688   6.760 -0.1361  0.0321 -0.1913
  136POPC   C1B 2062  10.007   9.051   7.940  0.1803 -0.0426 -0.0155
  136POPC   C2B 2063  10.096   9.163   7.502 -0.0615 -0.0703 -0.2224
  136POPC   C3B 2064  10.115   9.078   7.105 -0.1857 -0.1438 -0.2309
  136POPC   C4B 2065  10.096   9.206   6.749 -0.0694  0.2802  0.0361
  137POPC   NC3 2066   1.240   1.807   9.134  0.0523  0.3852  0.0200
  137POPC   PO4 2067   1.238   1.710   8.621 -0.0451  0.3305 -0.1011
  137POPC   GL1 2068   1.359   1.552   8.238  0.0958  0.2444  0.3275
  137POPC   GL2 2069   1.117   1.800   8.111  0.0986 -0.0186 -0.1253
  137POPC   C1A 2070   1.288   1.465   7.772 -0.1348  0.0538 -0.2156
  137POPC   D2A 2071   1.108   1.199   7.553 -0.0130 -0.0830  0.1761
  137POPC   C3A 2072   1.086   1.243   7.097 -0.2045  0.1327 -0.2108
  137POPC   C4A 2073   0.926   1.141   6.821 -0.0803 -0.0596 -0.1683
  137POPC   C1B 2074   0.775   1.509   7.941 -0.0418  0.1901 -0.2171
  137POPC   C2B 2075   0.553   1.646   7.502  0.0502  0.3799 -0.0955
  137POPC   C3B 2076   0.246   2.028   7.275 -0.1028  0.0847  0.1422
  137POPC   C4B 2077   0.090   2.273   6.924  0.0181 -0.0583  0.1723
  138POPC   NC3 2078   5.914   7.691   8.331  0.1063  0.2750  0.2629
  138POPC   PO4 2079   5.577   8.103   8.276  0.2326  0.1966 -0.1245
  138POPC   GL1 2080   5.842   8.103   7.890  0.0194  0.1630 -0.2075
  138POPC   GL2 2081   5.565   8.015   7.806  0.0571  0.5131 -0.3010
  138POPC   C1A 2082   5.961   8.103   7.439 -0.0322  0.2014 -0.2241
  138POPC   D2A 2083   5.922   8.243   6.966 -0.3528 -0.2581 -0.2172
  138POPC   C3A 2084   6.324   8.253   6.821  0.1327  0.1127 -0.2109
  138POPC   C4A 2085   6.816   8.217   7.110 -0.2893  0.1928  0.2753
  138POPC   C1B 2086   5.488   8.282   7.540 -0.2909  0.1680 -0.3911
  138POPC   C2B 2087   5.570   8.516   7.232  0.2062 -0.1214 -0.1311
  138POPC   C3B 2088   5.713   8.895   6.956  0.0693  0.0776  0.3706
  138POPC   C4B 2089   5.596   8.910   6.536 -0.0802 -0.1161 -0.1544
  139POPC   NC3 2090   2.840   3.980   8.440  0.4083 -0.2760  0.1251
  139POPC   PO4 2091   2.840   4.377   8.395  0.2189 -0.0377  0.0119
  139POPC   GL1 2092   2.734   4.218   7.982  0.1877 -0.1185 -0.2826
  139POPC   GL2 2093   2.777   3.921   7.884 -0.0171  0.2590 -0.1886
  139POPC   C1A 2094   2.454   4.369   7.632 -0.0684 -0.3715  0.2257
  139POPC   D2A 2095   2.464   4.199   7.203  0.0856 -0.1440  0.0613
  139POPC   C3A 2096   2.797   4.295   6.857  0.1230 -0.0617 -0.0797
  139POPC   C4A 2097   3.076   3.977   6.762 -0.0324 -0.1226  0.1979
  139POPC   C1B 2098   2.964   4.038   7.531 -0.2181 -0.0789 -0.1299
  139POPC   C2B 2099   3.317   4.093   7.230 -0.0664 -0.3043 -0.0642
  139POPC   C3B 2100   3.578   4.160   6.939 -0.1783  0.1937  0.1345
  139POPC   C4B 2101   3.720   4.391   6.551 -0.3857 -0.0029  0.1684
  140POPC   NC3 2102   0.642   4.152   8.231 -0.0258  0.2026 -0.1612
  140POPC   PO4 2103   0.820   4.607   8.411  0.0640 -0.3304  0.0614
  140POPC   GL1 2104   0.786   4.525   7.925 -0.1078  0.0074  0.0713
  140POPC   GL2 2105   0.432   4.496   7.825  0.0301 -0.4647  0.1369
  140POPC   C1A 2106   0.955   4.435   7.592  0.3694 -0.0536 -0.1056
  140POPC   D2A 2107   0.744   4.300   7.237 -0.3371 -0.2924  0.1944
  140POPC   C3A 2108   0.788   4.204   6.842  0.0764 -0.1711 -0.4353
  140POPC   C4A 2109   0.840   3.953   6.485  0.0271 -0.2730 -0.1521
  140POPC   C1B 2110   0.189   4.380   7.452  0.0755  0.0594  0.2174
  140POPC   C2B 2111   0.017   4.208   7.030  0.0882 -0.1819 -0.1868
  140POPC   C3B 2112  -0.194   4.213   6.646 -0.1358 -0.4012 -0.1869
  140POPC   C4B 2113  -0.123   3.875   6.248 -0.3867  0.2381  0.1152
  141POPC   NC3 2114   5.689   5.002   9.535  0.0776  0.2070 -0.2049
  141POPC   PO4 2115   5.894   4.739   9.155 -0.0788 -0.1708  0.0904
  141POPC   GL1 2116   5.945   4.582   8.773 -0.0436  0.1492 -0.1904
  141POPC   GL2 2117   5.756   4.768   8.511  0.1152 -0.1578 -0.1034
  141POPC   C1A 2118   6.296   4.396   8.436  0.0823 -0.0366 -0.0171
  141POPC   D2A 2119   6.353   4.372   8.059 -0.0355  0.0450 -0.3120
  141POPC   C3A 2120   6.525   4.104   7.787  0.0450  0.0670  0.2330
  141POPC   C4A 2121   6.536   3.968   7.420 -0.0200  0.1196 -0.2653
  141POPC   C1B 2122   5.965   4.698   8.257 -0.1969  0.2527 -0.1241
  141POPC   C2B 2123   5.720   4.427   7.959  0.0928 -0.2430  0.0933
  141POPC   C3B 2124   5.662   4.414   7.556  0.0454 -0.0315 -0.2438
  141POPC   C4B 2125   5.364   4.211   7.370 -0.1142  0.0152 -0.1305
  142POPC   NC3 2126   1.410   0.140   8.712 -0.0251  0.2103 -0.1786
  142POPC   PO4 2127   1.319  -0.083   8.347 -0.1839 -0.1725  0.0282
  142POPC   GL1 2128   1.415   0.012   7.919  0.1552  0.0466  0.2945
  142POPC   GL2 2129   1.655  -0.002   7.864 -0.1376 -0.0752 -0.0301
  142POPC   C1A 2130   1.192  -0.124   7.582 -0.1076 -0.0732 -0.2394
  142POPC   D2A 2131   1.033  -0.260   7.145  0.2099  0.2403  0.0555
  142POPC   C3A 2132   1.177  -0.110   6.821 -0.2186  0.0385  0.0019
  142POPC   C4A 2133   1.010   0.255   6.592  0.1270 -0.1064 -0.0534
  142POPC   C1B 2134   1.639   0.001   7.396 -0.2039 -0.2031  0.0014
  142POPC   C2B 2135   1.614  -0.382   7.073  0.1761 -0.0818 -0.1744
  142POPC   C3B 2136   1.641  -0.863   6.920  0.1937 -0.2539  0.0521
  142POPC   C4B 2137   1.833  -1.085   6.676 -0.2605 -0.0332 -0.0792
  143POPC   NC3 2138   5.733   9.093   8.481  0.1033  0.1859  0.1393
  143POPC   PO4 2139   5.672   9.534   8.557 -0.2397 -0.1361 -0.0044
  143POPC   GL1 2140   5.645   9.968   8.437 -0.0139 -0.0291  0.1067
  143POPC   GL2 2141   5.881  10.119   8.620  0.0551  0.2625 -0.1189
  143POPC   C1A 2142   5.758  10.202   8.029 -0.0255 -0.4284 -0.2824
  143POPC   D2A 2143   5.911  10.074   7.658  0.1382  0.1943  0.0156
  143POPC   C3A 2144   5.857  10.433   7.354  0.0009 -0.1699 -0.2760
  143POPC   C4A 2145   5.946  10.766   7.101 -0.3959  0.0054 -0.1975
  143POPC   C1B 2146   6.148  10.461   8.797  0.3030 -0.0611 -0.0144
  143POPC   C2B 2147   6.523  10.517   8.729  0.1237  0.3121 -0.0570
  143POPC   C3B 2148   6.750  10.295   8.487 -0.0619 -0.1602 -0.1253
  143POPC   C4B 2149   6.871  10.176   8.157 -0.0218  0.0033  0.1931
  144POPC   NC3 2150   4.601   1.117   8.743  0.0446 -0.2353 -0.0103
  144POPC   PO4 2151   4.643   0.777   8.831  0.3560  0.0010 -0.0552
  144POPC   GL1 2152   4.957   0.755   8.587 -0.0704  0.0523  0.1733
  144POPC   GL2 2153   5.262   0.858   8.617  0.3774  0.0174 -0.3227
  144POPC   C1A 2154   5.113   0.728   8.156  0.0794  0.1080  0.2636
  144POPC   D2A 2155   5.091   0.771   7.749 -0.0451 -0.2718  0.1427
  144POPC   C3A 2156   5.406   0.809   7.423 -0.0459 -0.2376  0.1044
  144POPC   C4A 2157   5.497   0.614   7.015 -0.0570 -0.1683  0.1552
  144POPC   C1B 2158   5.511   1.127   8.700 -0.0202 -0.1055 -0.0690
  144POPC   C2B 2159   5.732   1.459   8.478 -0.0848  0.0550 -0.0684
  144POPC   C3B 2160   6.192   1.465   8.305  0.1169 -0.3845  0.2008
  144POPC   C4B 2161   6.603   1.599   8.173  0.0474 -0.1704  0.1535
  145POPC   NC3 2162   9.703   3.293   9.001  0.1586  0.0850 -0.2565
  145POPC   PO4 2163   9.411   3.098   8.780 -0.1577 -0.1317 -0.2914
  145POPC   GL1 2164   9.029   3.127   8.416  0.1178 -0.2919  0.1031
  145POPC   GL2 2165   9.026   3.386   8.304 -0.0616 -0.1644  0.0847
  145POPC   C1A 2166   8.925   2.963   8.043 -0.0978 -0.0820 -0.1213
  145POPC   D2A 2167   8.991   2.999   7.597 -0.1851 -0.2091  0.1560
  145POPC   C3A 2168   9.025   2.637   7.319 -0.0591 -0.0159  0.0488
  145POPC   C4A 2169   9.051   2.465   6.861 -0.2896 -0.2460  0.3785
  145POPC   C1B 2170   9.129   3.489   7.923 -0.1545  0.1542  0.3573
  145POPC   C2B 2171   8.956   3.598   7.529  0.1228 -0.0717 -0.2105
  145POPC   C3B 2172   8.896   3.977   7.292 -0.4223  0.2302  0.1100
  145POPC   C4B 2173   9.006   4.172   6.862  0.0156  0.1647 -0.1488
  146POPC   NC3 2174   8.725   8.752   8.437  0.0789  0.1059 -0.0395
  146POPC   PO4 2175   8.990   9.081   8.677 -0.1749 -0.0225  0.0318
  146POPC   GL1 2176   9.210   9.178   8.410  0.1956 -0.1579  0.2609
  146POPC   GL2 2177   9.257   9.519   8.293  0.0268  0.0921 -0.1012
  146POPC   C1A 2178   9.057   9.159   7.874  0.3842 -0.1341 -0.2286
  146POPC   D2A 2179   9.103   9.177   7.489 -0.0510  0.1842  0.2030
  146POPC   C3A 2180   8.930   8.889   7.182 -0.1996 -0.2414 -0.0939
  146POPC   C4A 2181   8.703   9.021   6.791 -0.3730 -0.1073  0.1686
  146POPC   C1B 2182   9.303   9.639   7.972 -0.3680 -0.2653 -0.0595
  146POPC   C2B 2183   9.282   9.614   7.556  0.3414  0.0348  0.0189
  146POPC   C3B 2184   9.147   9.491   7.120 -0.3582 -0.0281 -0.2165
  146POPC   C4B 2185   9.173   9.155   6.759  0.0110 -0.0258 -0.2615
  147POPC   NC3 2186   9.710   8.613   8.373  0.1857 -0.1379 -0.1348
  147POPC   PO4 2187   9.736   8.262   8.263 -0.2780 -0.0710 -0.1016
  147POPC   GL1 2188  10.076   8.448   8.052 -0.0884  0.0258  0.1996
  147POPC   GL2 2189   9.806   8.573   7.833 -0.2178  0.1371  0.0723
  147POPC   C1A 2190  10.341   8.647   7.781 -0.0933  0.0442 -0.1419
  147POPC   D2A 2191  10.684   8.925   7.794 -0.1498  0.2144 -0.0967
  147POPC   C3A 2192  10.573   9.028   7.352  0.1469  0.3331 -0.1122
  147POPC   C4A 2193  10.652   8.862   7.045  0.3912  0.0015 -0.0480
  147POPC   C1B 2194   9.862   8.750   7.418 -0.0224 -0.0684  0.1727
  147POPC   C2B 2195   9.878   8.493   6.959 -0.1644 -0.1360 -0.1508
  147POPC   C3B 2196   9.457   8.344   6.774 -0.1724  0.2985  0.2283
  147POPC   C4B 2197   8.972   8.021   6.733  0.0563  0.1865  0.2066
  148POPC   NC3 2198   3.892   8.606   8.427 -0.3053  0.1882  0.1100
  148POPC   PO4 2199   3.419   8.557   8.258  0.4718 -0.1413 -0.3217
  148POPC   GL1 2200   3.180   8.747   7.861  0.2225 -0.0252  0.0558
  148POPC   GL2 2201   3.259   8.510   7.644 -0.2716 -0.0059 -0.0606
  148POPC   C1A 2202   2.955   8.982   7.415 -0.2069  0.0320 -0.0424
  148POPC   D2A 2203   2.639   8.961   7.164  0.1680  0.0001  0.2359
  148POPC   C3A 2204   2.331   8.938   6.869  0.1638  0.0109  0.2109
  148POPC   C4A 2205   2.274   8.958   6.489  0.0763 -0.1471 -0.0438
  148POPC   C1B 2206   3.426   8.765   7.291  0.1271  0.0875  0.2279
  148POPC   C2B 2207   3.114   8.859   6.917  0.1115 -0.1865 -0.2248
  148POPC   C3B 2208   2.813   9.063   6.615 -0.1347 -0.1290 -0.0267
  148POPC   C4B 2209   2.459   9.422   6.528 -0.0144  0.3508 -0.1714
  149POPC   NC3 2210   4.485   7.044   8.550  0.0168 -0.0206 -0.0316
  149POPC   PO4 2211   4.211   7.431   8.491 -0.1156  0.1933  0.0039
  149POPC   GL1 2212   4.053   7.375   8.110 -0.0179  0.2199  0.1181
  149POPC   GL2 2213   3.668   7.269   8.199  0.0277 -0.2089 -0.1050
  149POPC   C1A 2214   3.997   7.258   7.673  0.2931  0.5293 -0.2017
  149POPC   D2A 2215   4.124   7.201   7.211  0.0309  0.1798  0.0400
  149POPC   C3A 2216   4.361   7.328   6.801  0.0473 -0.1763  0.4542
  149POPC   C4A 2217   4.444   7.426   6.439  0.0798  0.0478  0.1444
  149POPC   C1B 2218   3.508   7.287   7.790  0.0818  0.0023  0.0977
  149POPC   C2B 2219   3.708   7.582   7.454 -0.0823  0.2617  0.4224
  149POPC   C3B 2220   3.900   7.580   7.079 -0.0413 -0.0051 -0.3256
  149POPC   C4B 2221   3.881   7.588   6.652  0.0415  0.0836 -0.1172
  150POPC   NC3 2222   0.445   7.507   4.599  0.1705  0.3551  0.2410
  150POPC   PO4 2223   0.648   7.164   4.515 -0.4374 -0.2708  0.0387
  150POPC   GL1 2224   0.495   7.174   4.962  0.0019 -0.1754 -0.0081
  150POPC   GL2 2225   0.233   7.131   4.949  0.0405 -0.2545 -0.2113
  150POPC   C1A 2226   0.528   6.858   5.340 -0.0047  0.0383  0.1754
  150POPC   D2A 2227   0.477   6.698   5.754 -0.5623 -0.0686 -0.1277
  150POPC   C3A 2228   0.829   6.698   6.178  0.2675  0.0776 -0.1454
  150POPC   C4A 2229   0.780   6.557   6.673  0.0901  0.2591 -0.2841
  150POPC   C1B 2230   0.264   7.258   5.457 -0.2246  0.1373 -0.0297
  150POPC   C2B 2231   0.297   7.475   5.852  0.0312  0.0404 -0.0677
  150POPC   C3B 2232   0.041   7.649   6.203  0.0452 -0.0093 -0.1489
  150POPC   C4B 2233  -0.008   7.589   6.585 -0.0482  0.0942 -0.1003
  151POPC   NC3 2234   2.977   9.888   4.895  0.2363 -0.4602 -0.2346
  151POPC   PO4 2235   3.334   9.874   5.154  0.0238  0.0203 -0.0446
  151POPC   GL1 2236   3.105   9.877   5.481  0.2876  0.2755 -0.1014
  151POPC   GL2 2237   3.089  10.225   5.497 -0.1145  0.2336 -0.2634
  151POPC   C1A 2238   3.087   9.827   5.966 -0.1766 -0.0270 -0.0873
  151POPC   D2A 2239   3.013   9.517   6.339  0.0135  0.3457  0.0547
  151POPC   C3A 2240   3.079   9.794   6.666  0.0388  0.0390  0.0798
  151POPC   C4A 2241   3.315   9.901   7.021 -0.1298 -0.2012 -0.0591
  151POPC   C1B 2242   2.605  10.022   5.459 -0.1463 -0.0896 -0.1013
  151POPC   C2B 2243   2.324   9.838   5.665 -0.0864 -0.6405  0.1733
  151POPC   C3B 2244   1.955  10.069   5.978  0.1278  0.0433  0.3475
  151POPC   C4B 2245   1.918  10.254   6.330 -0.3703  0.1345  0.0348
  152POPC   NC3 2246   9.322   9.395   4.452  0.0051  0.0074  0.2217
  152POPC   PO4 2247   8.842   9.332   4.545 -0.3099 -0.0523  0.1858
  152POPC   GL1 2248   8.680   9.362   4.953 -0.0734 -0.0826 -0.1084
  152POPC   GL2 2249   8.318   9.297   5.024  0.2062 -0.0680 -0.0038
  152POPC   C1A 2250   8.434   9.622   5.341  0.0281 -0.2643 -0.0310
  152POPC   D2A 2251   8.180   9.981   5.562 -0.3711 -0.1151  0.1369
  152POPC   C3A 2252   8.209  10.080   6.022 -0.3610 -0.2025  0.2787
  152POPC   C4A 2253   8.380   9.897   6.418 -0.0118  0.0479 -0.1038
  152POPC   C1B 2254   8.099   9.215   5.499  0.1083 -0.0029 -0.1805
  152POPC   C2B 2255   7.863   9.323   5.780  0.0022 -0.1103 -0.0407
  152POPC   C3B 2256   7.763   9.152   6.106  0.0431 -0.0791  0.2730
  152POPC   C4B 2257   7.904   8.881   6.502 -0.0513 -0.3196  0.1814
  153POPC   NC3 2258   7.861   8.747   4.473  0.3910  0.1385  0.1522
  153POPC   PO4 2259   7.689   8.403   4.632 -0.0087  0.1114 -0.0101
  153POPC   GL1 2260   7.762   8.314   5.052 -0.4577 -0.0802 -0.1085
  153POPC   GL2 2261   7.959   8.482   5.318  0.2246  0.1678 -0.0655
  153POPC   C1A 2262   7.510   8.284   5.489 -0.3771  0.2937 -0.1145
  153POPC   D2A 2263   7.354   8.342   5.918 -0.3712 -0.2596  0.0820
  153POPC   C3A 2264   6.891   8.243   5.957 -0.1315 -0.4200 -0.1506
  153POPC   C4A 2265   6.408   8.150   5.948 -0.1404 -0.3104  0.2453
  153POPC   C1B 2266   7.794   8.647   5.738  0.2285  0.1737 -0.1688
  153POPC   C2B 2267   8.097   8.654   6.107  0.0668  0.0207  0.0108
  153POPC   C3B 2268   8.371   8.958   6.387  0.0903 -0.0323 -0.1467
  153POPC   C4B 2269   8.525   9.375   6.422  0.0277  0.1140 -0.1531
  154POPC   NC3 2270   9.062   7.246   4.379 -0.4184  0.0662  0.1234
  154POPC   PO4 2271   9.313   7.087   4.123 -0.1396  0.0999  0.2186
  154POPC   GL1 2272   9.278   6.760   4.545 -0.3240 -0.1323 -0.0144
  154POPC   GL2 2273   9.660   6.730   4.580  0.1148  0.1990  0.0418
  154POPC   C1A 2274   9.086   6.864   4.929  0.1502  0.1239 -0.0348
  154POPC   D2A 2275   8.867   7.150   5.064 -0.0622  0.2745 -0.3557
  154POPC   C3A 2276   8.377   7.079   5.216 -0.0434  0.0187 -0.2719
  154POPC   C4A 2277   8.139   7.025   4.970  0.2389 -0.3326  0.1208
  154POPC   C1B 2278   9.696   6.932   5.053 -0.1725  0.1404 -0.1316
  154POPC   C2B 2279   9.386   6.983   5.386  0.0240 -0.2963  0.1127
  154POPC   C3B 2280   9.412   7.015   5.919  0.0503 -0.6222  0.0852
  154POPC   C4B 2281   9.694   7.185   6.276  0.1235  0.0515  0.0211
  155POPC   NC3 2282   1.762   6.384   4.790 -0.6096  0.0488 -0.1167
  155POPC   PO4 2283   1.255   6.271   4.905 -0.6098 -0.1478  0.3375
  155POPC   GL1 2284   0.891   6.153   5.100  0.0724 -0.2765  0.0360
  155POPC   GL2 2285   0.660   6.325   5.183 -0.2683 -0.0855 -0.2256
  155POPC   C1A 2286   0.771   5.901   5.457  0.1880 -0.1612 -0.1675
  155POPC   D2A 2287   0.701   5.654   5.749 -0.0791  0.0885 -0.1726
  155POPC   C3A 2288   0.395   5.231   5.769 -0.1452  0.2747  0.0429
  155POPC   C4A 2289   0.111   5.093   6.107 -0.1579  0.1189  0.0164
  155POPC   C1B 2290   0.375   6.191   5.482  0.0018 -0.0588 -0.2232
  155POPC   C2B 2291   0.498   6.064   5.993  0.3471 -0.4070 -0.1443
  155POPC   C3B 2292   0.362   6.398   6.120 -0.0480  0.0221 -0.1738
  155POPC   C4B 2293   0.357   6.689   6.400 -0.1861 -0.3029 -0.2005
  156POPC   NC3 2294   8.327   9.284   4.536  0.2665  0.2167  0.2032
  156POPC   PO4 2295   8.337   8.830   4.591 -0.0425 -0.0890 -0.0483
  156POPC   GL1 2296   8.278   8.690   5.041  0.0796 -0.1578 -0.1484
  156POPC   GL2 2297   8.006   8.868   5.015 -0.2969 -0.2065  0.1561
  156POPC   C1A 2298   8.294   8.717   5.525  0.0193 -0.4275  0.0329
  156POPC   D2A 2299   8.434   8.960   5.834  0.0695 -0.2717  0.0924
  156POPC   C3A 2300   8.250   9.270   6.038 -0.1142  0.1818 -0.0951
  156POPC   C4A 2301   8.269   9.592   5.938 -0.1847 -0.3279  0.3604
  156POPC   C1B 2302   7.613   8.988   5.126  0.1449 -0.0925 -0.0524
  156POPC   C2B 2303   7.428   8.839   5.473  0.4524 -0.1821 -0.0301
  156POPC   C3B 2304   7.396   8.910   5.919 -0.0650 -0.1538  0.1789
  156POPC   C4B 2305   7.326   9.090   6.312  0.0145 -0.0211  0.1668
  157POPC   NC3 2306   9.219   5.795   4.265  0.1300  0.0223  0.0724
  157POPC   PO4 2307   8.733   5.630   4.379 -0.0943 -0.4136 -0.2502
  157POPC   GL1 2308   8.779   5.838   4.616  0.0513 -0.1669 -0.1767
  157POPC   GL2 2309   9.069   5.949   4.690  0.1873 -0.0701  0.0009
  157POPC   C1A 2310   8.730   5.995   5.087  0.1823 -0.0519  0.0166
  157POPC   D2A 2311   8.899   5.803   5.520 -0.2137 -0.5934  0.1431
  157POPC   C3A 2312   8.505   5.743   5.593  0.1014 -0.0626  0.2750
  157POPC   C4A 2313   8.166   5.898   5.856 -0.2668  0.1930 -0.0058
  157POPC   C1B 2314   9.198   6.033   5.087 -0.0315 -0.0284  0.2136
  157POPC   C2B 2315   9.321   6.088   5.547  0.3508 -0.1405 -0.0409
  157POPC   C3B 2316   9.365   6.103   6.010 -0.1800  0.0792  0.4325
  157POPC   C4B 2317   9.368   6.213   6.354  0.0328  0.2047 -0.0777
  158POPC   NC3 2318   7.030   9.150   4.280  0.0653  0.3225  0.1417
  158POPC   PO4 2319   6.648   9.328   4.058 -0.0518 -0.0242  0.1214
  158POPC   GL1 2320   6.675   9.646   4.366  0.1911 -0.0219  0.0901
  158POPC   GL2 2321   6.611   9.438   4.701  0.0046 -0.1699 -0.1885
  158POPC   C1A 2322   6.809   9.955   4.631 -0.0121  0.2086  0.0922
  158POPC   D2A 2323   7.092  10.237   4.816  0.1923  0.0252  0.0230
  158POPC   C3A 2324   6.920  10.280   5.334  0.0238  0.0263 -0.0338
  158POPC   C4A 2325   7.037  10.339   5.773  0.1713  0.1368 -0.1234
  158POPC   C1B 2326   6.429   9.710   4.938  0.0244 -0.2527  0.1313
  158POPC   C2B 2327   6.195   9.542   5.304 -0.3494 -0.2195  0.2749
  158POPC   C3B 2328   6.226   9.277   5.653  0.1115 -0.1595 -0.2710
  158POPC   C4B 2329   6.479   9.208   6.106  0.2362  0.2550  0.0185
  159POPC   NC3 2330   2.625   3.896   4.438  0.0992  0.0744  0.0163
  159POPC   PO4 2331   2.563   3.609   4.733  0.0726  0.0254  0.2059
  159POPC   GL1 2332   2.371   3.789   5.116 -0.3662  0.0888 -0.1480
  159POPC   GL2 2333   2.359   4.202   5.015 -0.0226  0.0910 -0.0551
  159POPC   C1A 2334   2.446   3.592   5.531  0.0965  0.0860  0.0955
  159POPC   D2A 2335   2.299   3.252   5.756  0.0268  0.0006 -0.0538
  159POPC   C3A 2336   2.172   3.347   6.189  0.1952  0.1372  0.2363
  159POPC   C4A 2337   2.123   3.747   6.552  0.0658  0.2230 -0.1163
  159POPC   C1B 2338   2.424   4.236   5.501  0.2667  0.1072  0.2055
  159POPC   C2B 2339   2.496   4.113   5.883  0.1925  0.1493 -0.1499
  159POPC   C3B 2340   2.347   3.931   6.138 -0.0799  0.1637  0.1378
  159POPC   C4B 2341   2.606   3.526   6.298 -0.0160 -0.0357 -0.0735
  160POPC   NC3 2342   2.293   9.034   4.263  0.1605 -0.0167  0.1227
  160POPC   PO4 2343   2.538   9.411   4.432 -0.1191 -0.1917  0.0002
  160POPC   GL1 2344   2.408   9.539   4.876  0.0413  0.0245  0.1408
  160POPC   GL2 2345   2.687   9.404   5.018 -0.0017  0.0894  0.0402
  160POPC   C1A 2346   2.215   9.268   5.334  0.1011 -0.1253  0.0040
  160POPC   D2A 2347   2.289   9.108   5.825  0.1473 -0.1241  0.0391
  160POPC   C3A 2348   1.931   8.899   5.965 -0.3595 -0.2345 -0.2142
  160POPC   C4A 2349   1.675   8.549   5.937 -0.0669  0.2018 -0.0708
  160POPC   C1B 2350   2.637   9.526   5.473  0.1292  0.2374  0.0184
  160POPC   C2B 2351   2.684   9.601   5.918  0.0947  0.0433 -0.1362
  160POPC   C3B 2352   2.680   9.165   6.109 -0.2254 -0.3970  0.1300
  160POPC   C4B 2353   3.095   8.990   6.214 -0.1013 -0.1772 -0.0724
  161POPC   NC3 2354   2.338   7.161   4.773  0.0453 -0.1315 -0.1614
  161POPC   PO4 2355   2.720   7.291   4.717  0.1594  0.1938 -0.0919
  161POPC   GL1 2356   2.913   7.409   5.067  0.0030 -0.0996 -0.0914
  161POPC   GL2 2357   2.930   7.042   5.112 -0.1661  0.0279  0.0511
  161POPC   C1A 2358   3.067   7.548   5.422 -0.4228 -0.0819 -0.1882
  161POPC   D2A 2359   3.002   7.728   5.793  0.1389  0.1578  0.0250
  161POPC   C3A 2360   3.427   7.838   5.937  0.0958 -0.2416 -0.0540
  161POPC   C4A 2361   3.378   7.651   6.330  0.2178  0.2550 -0.1467
  161POPC   C1B 2362   2.926   7.038   5.595  0.1761 -0.1033 -0.0972
  161POPC   C2B 2363   3.202   6.838   5.833  0.0543  0.0583  0.1356
  161POPC   C3B 2364   3.351   6.695   6.270 -0.1507  0.1445  0.0522
  161POPC   C4B 2365   3.464   6.362   6.626 -0.2174  0.0359 -0.0316
  162POPC   NC3 2366   4.272   9.625   4.923 -0.2135 -0.5591  0.2087
  162POPC   PO4 2367   4.259  10.099   4.940 -0.2177  0.1507  0.0215
  162POPC   GL1 2368   4.207  10.242   5.308  0.1520  0.1017  0.1144
  162POPC   GL2 2369   4.489  10.238   5.462  0.1236  0.1586 -0.1335
  162POPC   C1A 2370   3.921  10.093   5.799 -0.1766 -0.4663  0.1025
  162POPC   D2A 2371   3.971  10.323   6.132  0.3889  0.2694  0.1424
  162POPC   C3A 2372   3.714  10.495   6.474  0.1381  0.1143  0.2459
  162POPC   C4A 2373   3.426  10.664   6.596 -0.1095 -0.0579 -0.0337
  162POPC   C1B 2374   4.400  10.092   5.750  0.2078  0.1679  0.2042
  162POPC   C2B 2375   4.422   9.993   6.155  0.0172  0.3556 -0.2722
  162POPC   C3B 2376   4.367   9.951   6.550  0.3115  0.0523  0.0711
  162POPC   C4B 2377   4.243  10.022   6.931 -0.0142 -0.0835  0.0853
  163POPC   NC3 2378   6.917   7.128   4.545 -0.0279 -0.0838 -0.3580
  163POPC   PO4 2379   6.695   6.758   4.705 -0.0252 -0.1975  0.1236
  163POPC   GL1 2380   6.814   6.773   5.179 -0.3407  0.0555  0.1596
  163POPC   GL2 2381   6.717   6.475   5.335 -0.0649  0.1245 -0.1360
  163POPC   C1A 2382   7.052   6.878   5.579  0.0123  0.3179 -0.1227
  163POPC   D2A 2383   7.072   6.941   5.952  0.2319  0.0806 -0.0828
  163POPC   C3A 2384   7.466   7.208   6.083 -0.0538  0.2701 -0.3231
  163POPC   C4A 2385   7.535   7.537   6.326 -0.0479 -0.0365  0.0300
  163POPC   C1B 2386   6.478   6.701   5.653 -0.1159  0.4073 -0.0995
  163POPC   C2B 2387   6.621   7.097   5.653  0.0634 -0.2088 -0.1969
  163POPC   C3B 2388   7.027   7.381   5.605  0.0251  0.1475 -0.2466
  163POPC   C4B 2389   7.513   7.411   5.611 -0.1886  0.1958  0.2085
  164POPC   NC3 2390   4.169   5.601   3.943 -0.1931  0.0273  0.0668
  164POPC   PO4 2391   4.440   5.670   4.367 -0.0476  0.2733 -0.0122
  164POPC   GL1 2392   4.406   5.703   4.823  0.1584  0.2150  0.1715
  164POPC   GL2 2393   4.126   5.452   4.998  0.5133  0.1457 -0.0168
  164POPC   C1A 2394   4.443   5.754   5.336  0.2829 -0.1079  0.0194
  164POPC   D2A 2395   4.122   5.902   5.559 -0.2129 -0.0416 -0.3556
  164POPC   C3A 2396   3.806   5.781   5.870  0.0466 -0.3179  0.2263
  164POPC   C4A 2397   3.860   5.707   6.299 -0.1013  0.2790  0.3456
  164POPC   C1B 2398   3.981   5.439   5.451 -0.3523 -0.0826  0.2416
  164POPC   C2B 2399   4.086   5.357   5.899 -0.0168  0.2863 -0.1517
  164POPC   C3B 2400   4.243   5.331   6.293  0.0423 -0.0841 -0.1645
  164POPC   C4B 2401   4.296   5.032   6.569  0.0241 -0.1278  0.3039
  165POPC   NC3 2402   2.316   8.269   4.945  0.1262 -0.0751 -0.1935
  165POPC   PO4 2403   1.944   8.280   4.802  0.0895 -0.1987  0.0874
  165POPC   GL1 2404   1.681   8.409   5.246  0.1681 -0.2323  0.0811
  165POPC   GL2 2405   1.350   8.301   5.292  0.2326  0.0067 -0.1106
  165POPC   C1A 2406   1.779   8.735   5.426  0.1290 -0.2472  0.2831
  165POPC   D2A 2407   1.796   9.168   5.579 -0.2623  0.1358 -0.1725
  165POPC   C3A 2408   1.576   9.320   5.996  0.0508  0.0922  0.1919
  165POPC   C4A 2409   1.669   9.695   6.192 -0.0871  0.4240 -0.2400
  165POPC   C1B 2410   1.245   8.548   5.688  0.3152  0.0849  0.0294
  165POPC   C2B 2411   1.272   8.901   5.929  0.0113 -0.0956 -0.0989
  165POPC   C3B 2412   1.134   9.118   6.202  0.0511  0.2203 -0.1326
  165POPC   C4B 2413   1.449   9.360   6.508  0.0905 -0.0337 -0.0280
  166POPC   NC3 2414   6.268   7.668   5.005 -0.0179  0.1461  0.3545
  166POPC   PO4 2415   5.914   7.910   4.862  0.0748 -0.0464 -0.0176
  166POPC   GL1 2416   5.791   7.715   5.269 -0.1079 -0.3660  0.1086
  166POPC   GL2 2417   5.536   7.889   5.427  0.0494 -0.2117  0.1689
  166POPC   C1A 2418   5.731   7.597   5.732 -0.2630  0.1135 -0.2647
  166POPC   D2A 2419   5.925   7.641   6.112 -0.1696  0.2064  0.0896
  166POPC   C3A 2420   6.367   7.520   6.011  0.1002  0.1365  0.0472
  166POPC   C4A 2421   6.661   7.748   5.872 -0.0277 -0.0005  0.1911
  166POPC   C1B 2422   5.290   7.939   5.789  0.0396  0.0236 -0.0531
  166POPC   C2B 2423   5.258   7.693   6.093 -0.0629  0.1369 -0.2549
  166POPC   C3B 2424   5.532   7.474   6.400 -0.1014 -0.1650 -0.2787
  166POPC   C4B 2425   5.733   7.099   6.462 -0.0176  0.0285 -0.0904
  167POPC   NC3 2426   7.573   6.206   4.585 -0.0280 -0.1417  0.1675
  167POPC   PO4 2427   7.581   6.636   4.519  0.3309  0.0887  0.1846
  167POPC   GL1 2428   7.763   6.559   4.888 -0.2032 -0.0208  0.2941
  167POPC   GL2 2429   8.005   6.370   5.041 -0.1629 -0.0920 -0.0332
  167POPC   C1A 2430   7.626   6.381   5.347 -0.2319  0.1596 -0.1618
  167POPC   D2A 2431   7.274   6.465   5.635  0.1914  0.3898  0.0347
  167POPC   C3A 2432   7.415   6.501   6.042 -0.1979  0.1560  0.1190
  167POPC   C4A 2433   7.431   6.074   6.271 -0.6202 -0.0214  0.0877
  167POPC   C1B 2434   8.050   6.685   5.417 -0.2115  0.2730  0.3200
  167POPC   C2B 2435   8.013   6.438   5.825  0.0905 -0.0414 -0.0548
  167POPC   C3B 2436   7.901   6.327   6.191  0.0961 -0.0159 -0.2756
  167POPC   C4B 2437   7.807   6.581   6.508 -0.5719  0.0600 -0.2404
  168POPC   NC3 2438   9.363   3.522   3.681 -0.1824  0.3614 -0.1782
  168POPC   PO4 2439   9.708   3.731   3.941 -0.1148 -0.1447  0.2281
  168POPC   GL1 2440   9.688   3.750   4.310  0.1053  0.1994 -0.1557
  168POPC   GL2 2441   9.441   3.469   4.231  0.0610 -0.1025 -0.1804
  168POPC   C1A 2442   9.813   3.771   4.661  0.1139  0.1639 -0.3081
  168POPC   D2A 2443   9.682   3.814   5.060  0.0508  0.0499  0.2573
  168POPC   C3A 2444   9.319   4.158   5.122 -0.1280 -0.0266  0.2543
  168POPC   C4A 2445   8.893   4.190   5.386 -0.2866 -0.2709  0.0676
  168POPC   C1B 2446   9.311   3.287   4.530  0.1494  0.4333  0.2293
  168POPC   C2B 2447   9.165   3.441   5.007 -0.2310  0.3411 -0.1155
  168POPC   C3B 2448   9.095   3.529   5.387 -0.0607 -0.0944  0.2641
  168POPC   C4B 2449   9.200   3.564   5.806  0.1845 -0.0296  0.1890
  169POPC   NC3 2450   5.683   1.848   3.398  0.0068 -0.0509 -0.1296
  169POPC   PO4 2451   5.801   1.394   3.386 -0.2080 -0.2909 -0.0977
  169POPC   GL1 2452   5.797   1.417   3.822  0.1368 -0.0525  0.2124
  169POPC   GL2 2453   5.957   1.708   3.916 -0.1384 -0.4317  0.1493
  169POPC   C1A 2454   6.159   1.325   4.017 -0.0817  0.0910  0.1475
  169POPC   D2A 2455   6.617   1.255   3.914 -0.0781 -0.1018  0.0513
  169POPC   C3A 2456   6.763   0.946   4.121  0.0752  0.1172 -0.0606
  169POPC   C4A 2457   6.737   1.027   4.539  0.0009  0.1420 -0.1481
  169POPC   C1B 2458   5.997   1.673   4.428  0.0014 -0.0035 -0.0787
  169POPC   C2B 2459   5.661   1.631   4.765  0.1316  0.1610 -0.0705
  169POPC   C3B 2460   5.359   1.588   5.078 -0.0623 -0.1355  0.4418
  169POPC   C4B 2461   4.914   1.735   5.409 -0.0217  0.3403 -0.0509
  170POPC   NC3 2462   3.227   8.405   5.092 -0.1117 -0.0749 -0.2297
  170POPC   PO4 2463   2.927   8.103   5.104 -0.4926 -0.0851 -0.2553
  170POPC   GL1 2464   2.832   8.274   5.495 -0.1500  0.1869 -0.5312
  170POPC   GL2 2465   2.473   8.284   5.419  0.2269 -0.1776 -0.4182
  170POPC   C1A 2466   2.857   8.159   5.967  0.1663  0.3099 -0.0221
  170POPC   D2A 2467   2.954   8.016   6.371 -0.0783  0.3662 -0.2631
  170POPC   C3A 2468   2.893   8.338   6.706  0.0762 -0.1961  0.5654
  170POPC   C4A 2469   2.679   8.603   6.832 -0.0789  0.2213 -0.2937
  170POPC   C1B 2470   2.476   7.820   5.647  0.0707  0.0744 -0.0264
  170POPC   C2B 2471   2.068   7.587   5.871 -0.2235  0.0053  0.2384
  170POPC   C3B 2472   2.055   7.442   6.291  0.3315  0.2854 -0.0368
  170POPC   C4B 2473   1.948   7.104   6.468  0.0359  0.0467 -0.3842
  171POPC   NC3 2474   2.911   7.745   4.687  0.0172 -0.0504  0.2611
  171POPC   PO4 2475   2.603   7.964   4.664 -0.0097  0.0304  0.1746
  171POPC   GL1 2476   2.486   7.752   5.079 -0.0046 -0.0692 -0.1830
  171POPC   GL2 2477   2.322   7.544   5.084 -0.0189  0.1766 -0.0521
  171POPC   C1A 2478   2.049   7.847   5.360  0.1320 -0.0285  0.1627
  171POPC   D2A 2479   1.680   7.668   5.519 -0.2004  0.2035 -0.2267
  171POPC   C3A 2480   1.603   7.174   5.468  0.1192  0.0960  0.0202
  171POPC   C4A 2481   1.375   6.704   5.514 -0.0969  0.1048  0.2347
  171POPC   C1B 2482   2.559   7.363   5.392  0.0943 -0.1052 -0.1988
  171POPC   C2B 2483   2.474   7.333   5.823 -0.2507  0.0104  0.2452
  171POPC   C3B 2484   2.519   7.248   6.197  0.3509 -0.0925 -0.0185
  171POPC   C4B 2485   2.562   7.382   6.642  0.1437 -0.1794  0.1926
  172POPC   NC3 2486   8.274   5.430   4.291 -0.0690  0.2496  0.0559
  172POPC   PO4 2487   7.922   5.241   4.394 -0.5138  0.1406  0.0927
  172POPC   GL1 2488   8.160   5.300   4.786 -0.0256  0.2787  0.0339
  172POPC   GL2 2489   8.508   5.406   4.716 -0.1488  0.0552  0.1737
  172POPC   C1A 2490   7.972   5.476   5.152 -0.1715 -0.2473  0.2080
  172POPC   D2A 2491   7.967   5.496   5.531  0.3423 -0.1579 -0.0778
  172POPC   C3A 2492   8.123   5.338   5.884  0.0323  0.0290 -0.0428
  172POPC   C4A 2493   8.148   4.946   6.065 -0.4637 -0.0703 -0.2570
  172POPC   C1B 2494   8.567   5.523   5.120 -0.0166  0.1481 -0.1149
  172POPC   C2B 2495   8.456   5.285   5.434  0.0061 -0.1504 -0.0348
  172POPC   C3B 2496   8.105   5.003   5.537  0.3600 -0.0351 -0.0086
  172POPC   C4B 2497   7.745   5.019   5.752  0.0261  0.0015  0.0719
  173POPC   NC3 2498   1.084   2.787   4.569 -0.2593 -0.1410 -0.2559
  173POPC   PO4 2499   1.454   3.041   4.667  0.1422  0.2483 -0.1036
  173POPC   GL1 2500   1.087   3.234   4.923  0.0651 -0.0431 -0.3666
  173POPC   GL2 2501   0.985   3.096   5.182  0.0427 -0.4080  0.2262
  173POPC   C1A 2502   0.621   3.366   5.012 -0.0393  0.1229  0.4164
  173POPC   D2A 2503   0.333   3.245   4.856  0.0736 -0.0210  0.1583
  173POPC   C3A 2504  -0.071   3.334   4.889  0.0503  0.2656  0.0090
  173POPC   C4A 2505  -0.339   3.099   5.201  0.0769  0.1257 -0.1198
  173POPC   C1B 2506   0.678   2.973   5.439 -0.4055 -0.2152  0.0460
  173POPC   C2B 2507   0.340   3.055   5.765 -0.0672 -0.2112  0.1413
  173POPC   C3B 2508   0.005   2.962   6.132  0.1253  0.3167 -0.1417
  173POPC   C4B 2509  -0.326   2.916   6.414 -0.1937  0.1919  0.0863
  174POPC   NC3 2510   2.640   0.015   4.164 -0.1661 -0.0246  0.1106
  174POPC   PO4 2511   2.594   0.050   4.601 -0.0144 -0.1527 -0.0471
  174POPC   GL1 2512   2.530   0.267   4.969  0.1262 -0.1202 -0.0897
  174POPC   GL2 2513   2.365   0.512   5.130 -0.1890  0.1320 -0.3227
  174POPC   C1A 2514   2.175  -0.028   5.159 -0.2206  0.1011  0.0022
  174POPC   D2A 2515   1.915  -0.248   5.438 -0.0484 -0.0538 -0.0972
  174POPC   C3A 2516   2.008  -0.362   5.861  0.4062 -0.0414 -0.0819
  174POPC   C4A 2517   2.262  -0.160   6.144  0.0774  0.0133  0.0849
  174POPC   C1B 2518   2.300   0.484   5.512 -0.3639 -0.2069  0.2424
  174POPC   C2B 2519   2.305   0.581   5.894  0.1963  0.0987 -0.0476
  174POPC   C3B 2520   2.134   0.790   6.274  0.1567 -0.1443  0.1053
  174POPC   C4B 2521   1.992   0.669   6.740 -0.5996 -0.2291 -0.0881
  175POPC   NC3 2522   9.082   0.143   3.684 -0.1145 -0.1179  0.4010
  175POPC   PO4 2523   8.836   0.396   3.756 -0.1402 -0.1400 -0.0434
  175POPC   GL1 2524   8.384   0.316   4.104  0.0778 -0.2290  0.0107
  175POPC   GL2 2525   8.075   0.521   4.022  0.2121  0.0625  0.0156
  175POPC   C1A 2526   8.185   0.189   4.499 -0.0003  0.0053  0.0052
  175POPC   D2A 2527   7.978  -0.083   4.634  0.4088  0.0421 -0.0663
  175POPC   C3A 2528   7.901  -0.182   5.086  0.2668  0.2559  0.0436
  175POPC   C4A 2529   7.597  -0.313   5.405 -0.2094  0.0596  0.2509
  175POPC   C1B 2530   8.098   0.688   4.438 -0.1257 -0.0140 -0.0902
  175POPC   C2B 2531   8.224   0.932   4.733 -0.0315  0.0660  0.3002
  175POPC   C3B 2532   8.148   1.003   5.187 -0.0834  0.1586  0.1090
  175POPC   C4B 2533   7.985   1.431   5.493  0.0563  0.1003  0.4956
  176POPC   NC3 2534   7.771   4.764   3.297  0.2194 -0.0811  0.1264
  176POPC   PO4 2535   8.166   4.871   3.500  0.2358  0.0302  0.3040
  176POPC   GL1 2536   8.270   4.748   3.822 -0.1024  0.0248  0.0852
  176POPC   GL2 2537   8.431   4.405   3.911  0.1247  0.1432 -0.0945
  176POPC   C1A 2538   8.308   4.714   4.360  0.3945  0.0633  0.1417
  176POPC   D2A 2539   8.037   4.575   4.725 -0.2222 -0.0258  0.3765
  176POPC   C3A 2540   7.654   4.489   4.725  0.3179 -0.0246  0.2069
  176POPC   C4A 2541   7.389   4.713   4.970  0.2123  0.0708  0.1382
  176POPC   C1B 2542   8.529   3.969   4.081  0.0276 -0.2157 -0.0022
  176POPC   C2B 2543   8.597   3.559   4.334  0.1343  0.3497  0.0340
  176POPC   C3B 2544   8.877   3.480   4.603 -0.1374  0.0000  0.2445
  176POPC   C4B 2545   9.319   3.754   4.631  0.1229 -0.1629  0.3549
  177POPC   NC3 2546   5.277   6.728   4.505  0.1186 -0.0228 -0.0006
  177POPC   PO4 2547   5.639   6.478   4.672  0.3157  0.0576 -0.0247
  177POPC   GL1 2548   5.736   6.567   5.086 -0.1219  0.1665  0.2260
  177POPC   GL2 2549   5.678   6.608   5.410  0.2077 -0.3450  0.0753
  177POPC   C1A 2550   5.926   6.227   5.425  0.0468  0.2253  0.0165
  177POPC   D2A 2551   6.242   6.273   5.698  0.2242  0.0172  0.1498
  177POPC   C3A 2552   6.526   6.057   6.054  0.0119 -0.2803 -0.1958
  177POPC   C4A 2553   6.766   5.888   6.390  0.2519 -0.0646 -0.1025
  177POPC   C1B 2554   5.902   6.694   5.702  0.0020 -0.3253  0.2806
  177POPC   C2B 2555   5.903   6.769   6.185  0.2536  0.1930 -0.1901
  177POPC   C3B 2556   6.190   6.857   6.548 -0.1541  0.0853 -0.0598
  177POPC   C4B 2557   6.520   6.771   6.935  0.1585 -0.1363  0.2772
  178POPC   NC3 2558   9.487   6.549   4.122  0.1528  0.2081  0.2783
  178POPC   PO4 2559   9.219   6.226   4.037  0.1793  0.0170  0.3024
  178POPC   GL1 2560   9.266   6.287   4.452 -0.0570  0.0743 -0.0551
  178POPC   GL2 2561   9.544   6.121   4.484 -0.1174  0.4370  0.1637
  178POPC   C1A 2562   9.448   6.392   4.854  0.0802 -0.2772  0.1621
  178POPC   D2A 2563   9.498   6.518   5.288  0.1707  0.2405  0.0879
  178POPC   C3A 2564   9.310   6.562   5.723 -0.0788 -0.1280  0.1944
  178POPC   C4A 2565   8.992   6.764   5.858  0.3845  0.4076 -0.1104
  178POPC   C1B 2566   9.693   6.016   4.849  0.0646  0.2042 -0.1280
  178POPC   C2B 2567   9.755   6.084   5.307 -0.3487 -0.2015 -0.0956
  178POPC   C3B 2568   9.820   6.226   5.732  0.0622  0.1141 -0.2745
  178POPC   C4B 2569   9.793   6.596   6.033 -0.0609 -0.0165  0.0066
  179POPC   NC3 2570   2.826   4.014   4.864 -0.4634  0.0584  0.1541
  179POPC   PO4 2571   3.068   3.669   4.618 -0.1178  0.0304 -0.1496
  179POPC   GL1 2572   3.022   3.577   5.044 -0.1268  0.6133 -0.0068
  179POPC   GL2 2573   2.882   3.888   5.333  0.1567 -0.2487  0.2523
  179POPC   C1A 2574   2.718   3.205   5.398  0.0748  0.2487 -0.0894
  179POPC   D2A 2575   2.790   3.258   5.918 -0.0793 -0.0658  0.0395
  179POPC   C3A 2576   2.759   3.068   6.352  0.2658  0.0270 -0.1118
  179POPC   C4A 2577   2.640   2.601   6.495  0.2200 -0.2763 -0.0668
  179POPC   C1B 2578   2.903   3.671   5.705  0.0375 -0.1629 -0.2596
  179POPC   C2B 2579   3.096   3.649   6.052 -0.0686  0.0510  0.0448
  179POPC   C3B 2580   3.619   3.611   6.202 -0.0333  0.0497  0.1384
  179POPC   C4B 2581   3.762   3.192   6.162  0.1735  0.1602  0.1217
  180POPC   NC3 2582   9.761   2.971   3.275 -0.1241 -0.0170 -0.0754
  180POPC   PO4 2583   9.407   2.867   3.492  0.0275 -0.1714 -0.1258
  180POPC   GL1 2584   9.267   3.079   3.901 -0.2697  0.1207  0.1156
  180POPC   GL2 2585   9.230   2.881   4.193 -0.0649 -0.3611  0.0068
  180POPC   C1A 2586   8.795   3.129   4.032  0.1213 -0.1785 -0.0151
  180POPC   D2A 2587   8.629   3.025   4.499  0.1589 -0.2314  0.3130
  180POPC   C3A 2588   8.697   3.202   4.994 -0.1458 -0.2958  0.1938
  180POPC   C4A 2589   8.771   3.014   5.299 -0.2632  0.2415  0.0077
  180POPC   C1B 2590   9.058   2.787   4.520  0.0099 -0.0975 -0.4649
  180POPC   C2B 2591   9.043   2.345   4.624  0.4011  0.1380 -0.0756
  180POPC   C3B 2592   9.106   2.229   5.065  0.2477 -0.3050 -0.4127
  180POPC   C4B 2593   8.811   2.241   5.399 -0.1736  0.0919  0.0362
  181POPC   NC3 2594   0.203   8.789   4.915 -0.4454  0.0128  0.0829
  181POPC   PO4 2595   0.647   8.831   4.770  0.4104 -0.2313  0.2313
  181POPC   GL1 2596   0.831   8.824   5.088 -0.3496 -0.3077 -0.0971
  181POPC   GL2 2597   0.847   8.530   5.158  0.2406 -0.6613 -0.2782
  181POPC   C1A 2598   0.831   8.792   5.590  0.1326  0.1707  0.2407
  181POPC   D2A 2599   0.765   8.879   6.011 -0.2747  0.2051 -0.0291
  181POPC   C3A 2600   0.987   8.504   6.166 -0.0489  0.2326  0.3698
  181POPC   C4A 2601   1.304   8.236   6.116  0.0183  0.0007 -0.1430
  181POPC   C1B 2602   0.593   8.278   5.438  0.0678  0.1700  0.1774
  181POPC   C2B 2603   0.476   8.510   5.848  0.0859 -0.3252  0.2119
  181POPC   C3B 2604   0.494   8.547   6.238  0.0333  0.1079 -0.2517
  181POPC   C4B 2605   0.806   8.863   6.543  0.1695 -0.0220  0.2252
  182POPC   NC3 2606   4.463   9.679   4.457  0.1164  0.0310 -0.0639
  182POPC   PO4 2607   4.683   9.776   4.749 -0.3035  0.1245  0.0049
  182POPC   GL1 2608   4.699   9.856   5.177 -0.0437  0.1011  0.0819
  182POPC   GL2 2609   4.309   9.720   5.369 -0.1616 -0.2431  0.1636
  182POPC   C1A 2610   4.941  10.004   5.530  0.3775  0.0470  0.1500
  182POPC   D2A 2611   4.860  10.214   5.962 -0.1161  0.0831  0.3415
  182POPC   C3A 2612   4.505  10.495   6.039  0.0903  0.2206 -0.0116
  182POPC   C4A 2613   4.201  10.732   6.105  0.3987 -0.5006  0.0404
  182POPC   C1B 2614   4.617   9.590   5.768 -0.0591  0.1156 -0.0193
  182POPC   C2B 2615   4.901   9.719   6.037  0.0096  0.1803 -0.2002
  182POPC   C3B 2616   5.255   9.945   6.187  0.0864  0.0515  0.3529
  182POPC   C4B 2617   5.273  10.402   6.146  0.0731 -0.2142 -0.1006
  183POPC   NC3 2618   5.816   7.409   4.848 -0.0834 -0.1116 -0.0068
  183POPC   PO4 2619   5.942   7.176   5.098  0.4025  0.0391  0.0618
  183POPC   GL1 2620   5.824   7.133   5.492 -0.0662  0.0843  0.2331
  183POPC   GL2 2621   5.523   7.203   5.450  0.1377  0.1289 -0.1737
  183POPC   C1A 2622   6.120   7.179   5.719  0.0901 -0.2725  0.1956
  183POPC   D2A 2623   6.408   6.998   6.115  0.1047  0.0375 -0.1371
  183POPC   C3A 2624   6.358   6.561   6.112  0.0386 -0.0494 -0.0778
  183POPC   C4A 2625   6.818   6.438   5.886  0.1305  0.0025  0.1973
  183POPC   C1B 2626   5.611   7.137   5.926  0.0366 -0.0576  0.0473
  183POPC   C2B 2627   5.403   6.773   6.175  0.0209 -0.0302  0.0893
  183POPC   C3B 2628   5.029   6.562   6.262  0.0683  0.0988 -0.0398
  183POPC   C4B 2629   4.886   6.201   6.387 -0.1095  0.2809  0.0579
  184POPC   NC3 2630   2.958   2.786   4.531 -0.1007  0.0969 -0.2460
  184POPC   PO4 2631   2.764   2.689   4.860  0.0964  0.0697  0.0881
  184POPC   GL1 2632   2.732   2.714   5.318  0.0236  0.1310 -0.0832
  184POPC   GL2 2633   2.718   2.408   5.430 -0.0727  0.1095 -0.0427
  184POPC   C1A 2634   2.946   2.841   5.689 -0.0339 -0.0748 -0.0833
  184POPC   D2A 2635   3.186   2.820   6.066 -0.0490 -0.0572 -0.2981
  184POPC   C3A 2636   3.065   2.454   6.307  0.1460 -0.0724 -0.0379
  184POPC   C4A 2637   3.178   2.144   6.634  0.2005 -0.1000  0.3282
  184POPC   C1B 2638   3.161   2.419   5.539  0.0570  0.0190  0.0496
  184POPC   C2B 2639   3.488   2.386   5.748 -0.0455  0.0788 -0.1861
  184POPC   C3B 2640   3.788   2.256   6.010 -0.3047  0.1014  0.0483
  184POPC   C4B 2641   3.905   1.886   6.300  0.0431 -0.1131 -0.1654
  185POPC   NC3 2642   3.989   8.799   4.825  0.0402 -0.1532 -0.1480
  185POPC   PO4 2643   3.956   9.247   5.009  0.0255  0.0743  0.3228
  185POPC   GL1 2644   3.842   9.371   5.415  0.0828 -0.2345  0.0897
  185POPC   GL2 2645   3.517   9.543   5.506 -0.0168  0.1382 -0.0972
  185POPC   C1A 2646   3.978   9.530   5.666 -0.0186 -0.2152  0.0661
  185POPC   D2A 2647   3.924   9.472   6.018  0.0212 -0.0214 -0.1350
  185POPC   C3A 2648   3.911   9.862   6.335 -0.1080 -0.3830  0.4370
  185POPC   C4A 2649   3.701  10.062   6.660  0.2422 -0.3056 -0.1353
  185POPC   C1B 2650   3.560   9.776   5.886 -0.0285 -0.1849 -0.2616
  185POPC   C2B 2651   3.501  10.065   6.150  0.0716  0.1941  0.3555
  185POPC   C3B 2652   3.245  10.164   6.380  0.1121  0.2209 -0.0414
  185POPC   C4B 2653   3.047  10.354   6.709 -0.1296  0.1307  0.0711
  186POPC   NC3 2654   9.386   7.603   3.903  0.0845 -0.0841 -0.0511
  186POPC   PO4 2655   9.065   7.703   4.232 -0.0750 -0.0230  0.1043
  186POPC   GL1 2656   8.950   7.667   4.723  0.1695 -0.0318 -0.1402
  186POPC   GL2 2657   9.155   7.683   4.799 -0.0033  0.2583 -0.1741
  186POPC   C1A 2658   8.858   7.643   5.196  0.2404 -0.0763  0.3412
  186POPC   D2A 2659   8.526   7.469   5.455 -0.0150  0.0671 -0.2596
  186POPC   C3A 2660   8.203   7.634   5.712  0.0586  0.0250  0.0244
  186POPC   C4A 2661   7.946   7.528   6.058  0.0127  0.2484  0.2655
  186POPC   C1B 2662   9.352   7.487   5.196  0.1924  0.0921  0.3682
  186POPC   C2B 2663   9.602   7.349   5.658 -0.0647  0.1549  0.1482
  186POPC   C3B 2664   9.457   7.526   6.059 -0.0953 -0.0072  0.1532
  186POPC   C4B 2665   9.056   7.737   6.312  0.2010 -0.0380  0.1781
  187POPC   NC3 2666   0.223   9.173   4.234  0.2279 -0.2298  0.1655
  187POPC   PO4 2667  -0.081   9.492   4.364 -0.2148  0.1403  0.2082
  187POPC   GL1 2668  -0.184   9.534   4.818  0.0809 -0.1208  0.0147
  187POPC   GL2 2669  -0.278   9.231   5.028 -0.0557  0.0288  0.1696
  187POPC   C1A 2670  -0.068   9.894   5.126 -0.0277  0.2536 -0.0419
  187POPC   D2A 2671   0.036  10.086   5.463  0.0025 -0.2462 -0.0712
  187POPC   C3A 2672  -0.140  10.118   5.888 -0.0901 -0.0765 -0.0671
  187POPC   C4A 2673  -0.066  10.130   6.376 -0.2462  0.1108  0.0216
  187POPC   C1B 2674  -0.394   9.493   5.364 -0.1897  0.2641  0.0190
  187POPC   C2B 2675  -0.186   9.579   5.749 -0.4006 -0.2496  0.0001
  187POPC   C3B 2676  -0.282   9.648   6.184  0.0529  0.1395 -0.0954
  187POPC   C4B 2677  -0.643   9.758   6.548 -0.0515 -0.2474 -0.0052
  188POPC   NC3 2678   7.179   2.637   3.231  0.3303  0.1388  0.3302
  188POPC   PO4 2679   6.692   2.549   3.306  0.2261  0.2571  0.1014
  188POPC   GL1 2680   6.511   2.341   3.655  0.0252  0.1076 -0.3040
  188POPC   GL2 2681   6.452   2.058   3.696  0.0597  0.0202 -0.1964
  188POPC   C1A 2682   6.576   2.363   4.106  0.1956  0.0629 -0.0885
  188POPC   D2A 2683   6.785   2.440   4.541  0.0452  0.4291  0.3040
  188POPC   C3A 2684   7.098   2.195   4.839 -0.0649 -0.0463  0.1075
  188POPC   C4A 2685   7.427   1.808   4.975  0.0468  0.0925  0.0814
  188POPC   C1B 2686   6.416   1.837   4.021 -0.0468 -0.0125 -0.1342
  188POPC   C2B 2687   6.491   1.594   4.350 -0.1106 -0.1461  0.0576
  188POPC   C3B 2688   6.471   1.505   4.761  0.1060 -0.1345  0.0975
  188POPC   C4B 2689   6.574   1.136   4.997 -0.0053  0.1405  0.2465
  189POPC   NC3 2690   5.007   1.762   4.103 -0.0009 -0.0579  0.2328
  189POPC   PO4 2691   5.221   2.254   3.956 -0.1407  0.0796 -0.0482
  189POPC   GL1 2692   5.608   2.393   4.250  0.3019 -0.0060  0.1790
  189POPC   GL2 2693   5.583   2.746   4.411  0.0084 -0.2232  0.0552
  189POPC   C1A 2694   5.477   2.417   4.715  0.0720 -0.0950  0.0597
  189POPC   D2A 2695   5.341   2.497   5.153  0.3742 -0.0346 -0.0380
  189POPC   C3A 2696   5.518   2.466   5.448  0.2988  0.1989  0.1787
  189POPC   C4A 2697   5.805   2.295   5.749  0.1305  0.2014 -0.0035
  189POPC   C1B 2698   5.581   2.864   4.904 -0.1422 -0.3032 -0.1501
  189POPC   C2B 2699   5.950   2.908   5.209  0.0769  0.0861  0.2581
  189POPC   C3B 2700   6.224   3.138   5.354  0.1272  0.0349 -0.2099
  189POPC   C4B 2701   6.342   3.066   5.760 -0.4402 -0.0198 -0.0325
  190POPC   NC3 2702   1.236   1.834   4.310 -0.1146 -0.0550 -0.0615
  190POPC   PO4 2703   0.744   1.941   4.385 -0.2778 -0.3810 -0.1808
  190POPC   GL1 2704   0.469   1.934   4.712  0.0147  0.2054 -0.0561
  190POPC   GL2 2705   0.700   1.844   5.008  0.0261  0.0121  0.1544
  190POPC   C1A 2706   0.304   1.570   4.916  0.0342  0.0001 -0.0839
  190POPC   D2A 2707   0.187   1.217   5.253 -0.2408 -0.3002  0.0963
  190POPC   C3A 2708  -0.025   1.249   5.624  0.0027  0.0908  0.2457
  190POPC   C4A 2709  -0.031   1.173   6.054 -0.0724  0.2884 -0.2204
  190POPC   C1B 2710   0.596   2.037   5.421 -0.4254  0.4283  0.2504
  190POPC   C2B 2711   0.511   1.706   5.685 -0.0016  0.0858 -0.2417
  190POPC   C3B 2712   0.507   1.588   6.159 -0.1791  0.1405 -0.2335
  190POPC   C4B 2713   0.857   1.645   6.536 -0.2276 -0.0681 -0.0551
  191POPC   NC3 2714   8.753   1.763   3.003  0.5237 -0.1878  0.0119
  191POPC   PO4 2715   8.498   1.314   3.063 -0.1871 -0.0603 -0.0100
  191POPC   GL1 2716   8.547   1.483   3.521 -0.2108 -0.1060 -0.3293
  191POPC   GL2 2717   8.691   1.638   3.824  0.0912 -0.2109  0.1746
  191POPC   C1A 2718   8.219   1.424   3.849 -0.0484  0.0060 -0.1229
  191POPC   D2A 2719   8.082   1.094   4.171  0.0825 -0.0298 -0.0702
  191POPC   C3A 2720   7.827   1.180   4.481  0.1440 -0.0365 -0.0123
  191POPC   C4A 2721   7.580   0.822   4.737 -0.0474  0.3339  0.5178
  191POPC   C1B 2722   8.522   1.812   4.202 -0.0921 -0.0590 -0.3305
  191POPC   C2B 2723   8.470   1.968   4.699 -0.1269 -0.2894 -0.2051
  191POPC   C3B 2724   8.576   2.324   4.973  0.2044  0.2576 -0.1528
  191POPC   C4B 2725   8.742   2.684   4.885 -0.1702 -0.0990  0.3751
  192POPC   NC3 2726   3.737   4.768   4.334  0.0590 -0.2956 -0.1047
  192POPC   PO4 2727   4.262   4.812   4.485  0.1732 -0.0142  0.0140
  192POPC   GL1 2728   4.206   4.930   4.909  0.2310 -0.1289  0.4713
  192POPC   GL2 2729   4.620   4.913   4.957 -0.0126  0.2156 -0.3102
  192POPC   C1A 2730   4.061   4.908   5.265  0.0537 -0.0012 -0.0047
  192POPC   D2A 2731   3.649   4.950   5.540  0.0219  0.1115  0.1189
  192POPC   C3A 2732   3.791   4.683   5.867 -0.0840 -0.3070 -0.0988
  192POPC   C4A 2733   4.029   4.527   6.217  0.3303 -0.2081  0.3561
  192POPC   C1B 2734   4.476   4.537   5.277 -0.0583 -0.0661  0.1402
  192POPC   C2B 2735   4.731   4.251   5.559  0.1971  0.0177  0.2616
  192POPC   C3B 2736   4.790   3.759   5.439 -0.1680  0.2863 -0.2604
  192POPC   C4B 2737   5.040   3.406   5.611 -0.0427 -0.1566 -0.1072
  193POPC   NC3 2738   5.992   2.559   3.444  0.1303 -0.2626  0.0934
  193POPC   PO4 2739   5.702   2.225   3.734 -0.0502 -0.0333 -0.0901
  193POPC   GL1 2740   6.056   2.343   3.973  0.1978  0.0366 -0.1620
  193POPC   GL2 2741   6.006   2.651   4.060 -0.2395  0.3590 -0.1452
  193POPC   C1A 2742   6.185   2.202   4.413 -0.3747  0.2953  0.2220
  193POPC   D2A 2743   6.461   2.046   4.556  0.1339 -0.0568  0.3006
  193POPC   C3A 2744   6.515   1.943   4.908 -0.1231  0.2585 -0.2053
  193POPC   C4A 2745   6.530   1.729   5.304  0.2556 -0.0652  0.3227
  193POPC   C1B 2746   6.399   2.686   4.374 -0.2063 -0.0431 -0.3024
  193POPC   C2B 2747   6.794   2.921   4.671 -0.2822  0.0632 -0.1576
  193POPC   C3B 2748   7.187   3.146   4.874  0.1476  0.0345 -0.1510
  193POPC   C4B 2749   7.579   3.087   4.674  0.0241  0.0903  0.2670
  194POPC   NC3 2750   7.061   2.217   2.930  0.0576 -0.3061  0.0386
  194POPC   PO4 2751   7.460   2.275   3.173 -0.0520 -0.0155  0.1184
  194POPC   GL1 2752   7.389   1.951   3.367 -0.5107  0.3381  0.0148
  194POPC   GL2 2753   7.668   1.841   3.511 -0.0524 -0.3988 -0.1782
  194POPC   C1A 2754   7.271   1.683   3.794  0.2009 -0.0693  0.2043
  194POPC   D2A 2755   6.982   1.541   4.118  0.1110  0.1073 -0.1435
  194POPC   C3A 2756   7.156   1.279   4.422 -0.1236 -0.1753  0.2130
  194POPC   C4A 2757   7.407   1.379   4.738  0.0647  0.1608  0.6205
  194POPC   C1B 2758   7.550   2.054   3.904  0.0720 -0.0666 -0.0214
  194POPC   C2B 2759   7.812   2.423   4.107  0.0007  0.1043 -0.0397
  194POPC   C3B 2760   8.223   2.715   4.102  0.1632  0.1048 -0.3322
  194POPC   C4B 2761   8.523   2.767   3.969  0.0638 -0.0639 -0.0406
  195POPC   NC3 2762   7.177   4.508   2.972 -0.0238 -0.1462  0.1934
  195POPC   PO4 2763   7.257   4.528   3.397  0.2875 -0.3669  0.0227
  195POPC   GL1 2764   7.467   4.431   3.781 -0.3201  0.0309 -0.3230
  195POPC   GL2 2765   7.290   4.624   3.898 -0.1279  0.1034  0.3411
  195POPC   C1A 2766   7.700   4.522   4.145  0.1395  0.2686 -0.1725
  195POPC   D2A 2767   7.485   4.841   4.370 -0.1384  0.0414 -0.0418
  195POPC   C3A 2768   7.146   4.846   4.545  0.3768 -0.0391  0.1369
  195POPC   C4A 2769   6.908   4.781   4.941  0.0341 -0.0329 -0.3286
  195POPC   C1B 2770   7.177   4.412   4.293  0.2576 -0.2484  0.1895
  195POPC   C2B 2771   7.222   4.191   4.621  0.2916  0.4276 -0.2738
  195POPC   C3B 2772   6.982   4.100   4.969  0.1577 -0.1107 -0.1707
  195POPC   C4B 2773   6.747   4.073   5.353 -0.1589 -0.0050 -0.0908
  196POPC   NC3 2774   7.568   9.583   3.788 -0.0972 -0.2454  0.1368
  196POPC   PO4 2775   7.508   9.238   4.266  0.1334  0.3892 -0.3048
  196POPC   GL1 2776   7.452   9.522   4.690 -0.2323 -0.0369  0.0055
  196POPC   GL2 2777   7.151   9.467   4.734  0.1974  0.1390 -0.0422
  196POPC   C1A 2778   7.489   9.814   4.836 -0.0119  0.2219 -0.1322
  196POPC   D2A 2779   7.474  10.054   5.258 -0.0057 -0.0357 -0.0039
  196POPC   C3A 2780   7.392  10.375   5.217 -0.4038 -0.3381  0.0649
  196POPC   C4A 2781   7.208  10.721   5.476 -0.1133  0.0931 -0.0583
  196POPC   C1B 2782   6.958   9.747   5.089  0.1272  0.0350 -0.1970
  196POPC   C2B 2783   7.078   9.811   5.419  0.2411  0.2262 -0.3063
  196POPC   C3B 2784   7.358   9.946   5.708  0.0732 -0.0804 -0.1958
  196POPC   C4B 2785   7.751   9.821   5.826 -0.0434  0.2436  0.0227
  197POPC   NC3 2786   6.596   6.429   4.261  0.4017  0.1011  0.2162
  197POPC   PO4 2787   6.494   6.083   4.575 -0.2176 -0.0753  0.0252
  197POPC   GL1 2788   6.395   5.832   5.047 -0.2660 -0.0700  0.0556
  197POPC   GL2 2789   6.370   6.037   5.283  0.3825 -0.0201  0.1463
  197POPC   C1A 2790   6.552   5.589   5.358 -0.0388 -0.0231 -0.1132
  197POPC   D2A 2791   6.816   5.532   5.650  0.0724  0.0706 -0.4270
  197POPC   C3A 2792   6.863   5.498   6.093 -0.1070 -0.0888  0.1237
  197POPC   C4A 2793   7.107   5.439   6.453 -0.0156  0.0225 -0.0333
  197POPC   C1B 2794   6.737   6.063   5.589  0.1687  0.0504 -0.1123
  197POPC   C2B 2795   7.100   5.938   5.849 -0.0718  0.1582  0.2160
  197POPC   C3B 2796   7.382   5.601   6.085 -0.0006  0.0929  0.0365
  197POPC   C4B 2797   7.765   5.350   6.210  0.1219  0.1786  0.4872
  198POPC   NC3 2798   9.890   0.536   4.036 -0.1852 -0.2249  0.1742
  198POPC   PO4 2799  10.196   0.379   4.349  0.1804 -0.0593  0.0831
  198POPC   GL1 2800   9.700   0.410   4.504 -0.3926 -0.2127 -0.3071
  198POPC   GL2 2801   9.631   0.673   4.624  0.1594 -0.2103 -0.0007
  198POPC   C1A 2802   9.470   0.205   4.801 -0.0217 -0.2612 -0.0382
  198POPC   D2A 2803   9.061  -0.113   4.903  0.0954 -0.0962  0.2936
  198POPC   C3A 2804   8.738   0.014   5.070  0.1729 -0.1680 -0.0975
  198POPC   C4A 2805   8.310   0.124   5.014 -0.0236 -0.2461  0.0701
  198POPC   C1B 2806   9.279   0.753   4.760 -0.3280  0.0196  0.0973
  198POPC   C2B 2807   9.130   0.448   5.071 -0.0387 -0.0076  0.1175
  198POPC   C3B 2808   9.310   0.042   5.258 -0.0314 -0.2234 -0.0586
  198POPC   C4B 2809   9.280  -0.028   5.664 -0.1125 -0.2101  0.0046
  199POPC   NC3 2810   2.776   6.656   4.706  0.1007 -0.0128 -0.0489
  199POPC   PO4 2811   2.267   6.680   4.750  0.1835 -0.1495 -0.1908
  199POPC   GL1 2812   2.222   6.426   5.011  0.0270  0.0329  0.0025
  199POPC   GL2 2813   1.893   6.525   5.305 -0.1544  0.1322 -0.1038
  199POPC   C1A 2814   2.442   6.362   5.472  0.0217  0.0421 -0.2921
  199POPC   D2A 2815   2.277   6.253   5.861  0.1415 -0.2695 -0.0279
  199POPC   C3A 2816   1.910   6.246   6.165  0.0634  0.1849 -0.4389
  199POPC   C4A 2817   1.495   5.997   6.364 -0.0337 -0.0731 -0.0909
  199POPC   C1B 2818   1.832   6.794   5.681  0.1120  0.1771 -0.0335
  199POPC   C2B 2819   1.637   6.745   6.130 -0.1632  0.2294  0.0572
  199POPC   C3B 2820   1.659   6.737   6.523 -0.1797  0.0002  0.2497
  199POPC   C4B 2821   1.824   6.748   6.923  0.1249  0.2731 -0.2245
  200POPC   NC3 2822   3.040   8.734   4.661  0.0562 -0.2100  0.1574
  200POPC   PO4 2823   3.021   8.946   5.058  0.2515  0.1021  0.2091
  200POPC   GL1 2824   3.039   8.726   5.467 -0.0709  0.0389 -0.0368
  200POPC   GL2 2825   2.702   8.941   5.488 -0.2196 -0.0567 -0.2629
  200POPC   C1A 2826   2.883   8.655   5.894  0.1631 -0.0032  0.2599
  200POPC   D2A 2827   2.771   8.632   6.321 -0.0665 -0.0074 -0.1350
  200POPC   C3A 2828   2.498   8.336   6.401 -0.0046 -0.1751 -0.1728
  200POPC   C4A 2829   2.140   8.069   6.516 -0.2643 -0.1054  0.1542
  200POPC   C1B 2830   2.987   9.193   5.748 -0.0692  0.2112 -0.3342
  200POPC   C2B 2831   3.325   9.360   6.011 -0.0223 -0.0823  0.1727
  200POPC   C3B 2832   3.509   9.590   6.372  0.1573 -0.0384 -0.2360
  200POPC   C4B 2833   3.576   9.612   6.773 -0.1139 -0.1997  0.0003
  201POPC   NC3 2834   1.498   6.776   4.879 -0.0995  0.1237  0.1618
  201POPC   PO4 2835   1.888   6.919   4.984  0.1530 -0.0146  0.0605
  201POPC   GL1 2836   2.146   7.015   5.191 -0.2024  0.0286  0.0814
  201POPC   GL2 2837   2.458   6.825   5.169 -0.0767  0.1825  0.0857
  201POPC   C1A 2838   2.064   7.302   5.521  0.2723  0.0049 -0.0254
  201POPC   D2A 2839   1.724   7.202   5.991  0.1653 -0.0962  0.1427
  201POPC   C3A 2840   1.600   7.709   6.018  0.2010 -0.1928 -0.4299
  201POPC   C4A 2841   1.811   8.135   6.173 -0.0712 -0.1052  0.1145
  201POPC   C1B 2842   2.435   6.810   5.640 -0.1743  0.2167  0.0228
  201POPC   C2B 2843   2.202   6.750   6.073 -0.1370 -0.0204 -0.2435
  201POPC   C3B 2844   2.224   6.533   6.505  0.0405  0.3090  0.2523
  201POPC   C4B 2845   2.318   6.550   6.908  0.0673 -0.0005 -0.1933
  202POPC   NC3 2846   9.587   4.010   3.187 -0.1491  0.1707 -0.4829
  202POPC   PO4 2847   9.436   4.012   3.591  0.0936 -0.2227 -0.1933
  202POPC   GL1 2848   9.263   4.041   4.078  0.3945  0.0411  0.0333
  202POPC   GL2 2849   9.387   4.129   4.270  0.1883 -0.1592 -0.0363
  202POPC   C1A 2850   8.941   4.010   4.325  0.1392 -0.2501 -0.1333
  202POPC   D2A 2851   8.817   3.994   4.788 -0.0581 -0.2687  0.4259
  202POPC   C3A 2852   8.706   3.686   5.114 -0.1316 -0.0513 -0.0123
  202POPC   C4A 2853   8.568   3.414   5.463 -0.2022  0.1507  0.0289
  202POPC   C1B 2854   9.164   4.442   4.639  0.1949 -0.2363 -0.3616
  202POPC   C2B 2855   9.118   4.667   5.124 -0.0360  0.0522  0.1383
  202POPC   C3B 2856   8.779   4.673   5.387 -0.0160  0.2392 -0.0822
  202POPC   C4B 2857   8.470   4.417   5.541 -0.0818  0.2098  0.2759
  203POPC   NC3 2858   5.876   0.147   4.115 -0.2529 -0.1814  0.1948
  203POPC   PO4 2859   5.820  -0.218   4.399 -0.1222 -0.1265  0.1305
  203POPC   GL1 2860   5.942  -0.052   4.805 -0.0755 -0.1316  0.3382
  203POPC   GL2 2861   5.723  -0.220   5.173  0.7138  0.2323 -0.1753
  203POPC   C1A 2862   6.088   0.106   5.223  0.0493  0.0974  0.1624
  203POPC   D2A 2863   6.160  -0.054   5.723 -0.0555 -0.0390 -0.0406
  203POPC   C3A 2864   6.140   0.134   6.112 -0.1127  0.0761 -0.1056
  203POPC   C4A 2865   6.363   0.392   6.304  0.1837  0.2251  0.3354
  203POPC   C1B 2866   5.711   0.106   5.551 -0.0311  0.1042  0.0142
  203POPC   C2B 2867   5.698   0.193   5.910 -0.0148 -0.1632 -0.0693
  203POPC   C3B 2868   5.781   0.298   6.360 -0.0021 -0.3321 -0.0091
  203POPC   C4B 2869   5.494   0.313   6.588  0.0740  0.1060 -0.1304
  204POPC   NC3 2870   1.321   7.705   4.767  0.1279  0.0327  0.2586
  204POPC   PO4 2871   0.936   7.442   4.811 -0.1259  0.2300 -0.0476
  204POPC   GL1 2872   0.853   7.417   5.247  0.0546  0.0022  0.0520
  204POPC   GL2 2873   1.245   7.539   5.289  0.1318  0.0328  0.0447
  204POPC   C1A 2874   0.718   7.603   5.681 -0.0301  0.0201  0.2438
  204POPC   D2A 2875   0.655   7.605   6.129 -0.0917  0.0692 -0.0170
  204POPC   C3A 2876   0.922   7.396   6.401 -0.2450 -0.1533 -0.2076
  204POPC   C4A 2877   1.093   6.965   6.557  0.0597 -0.3063  0.2095
  204POPC   C1B 2878   1.204   7.434   5.659  0.0370  0.0331  0.0355
  204POPC   C2B 2879   1.147   7.506   5.975  0.2355 -0.0929  0.0398
  204POPC   C3B 2880   1.123   7.836   6.275 -0.3429 -0.0062 -0.1580
  204POPC   C4B 2881   1.144   8.279   6.574  0.0395  0.0989  0.3312
  205POPC   NC3 2882   7.546   0.379   3.349 -0.4724  0.2052  0.0168
  205POPC   PO4 2883   7.206   0.199   3.641  0.0515  0.0529 -0.2198
  205POPC   GL1 2884   7.374   0.129   3.974  0.2458 -0.0553  0.0965
  205POPC   GL2 2885   7.606   0.328   3.975  0.0641 -0.0568  0.1842
  205POPC   C1A 2886   7.209   0.192   4.373 -0.1941 -0.2166 -0.0805
  205POPC   D2A 2887   6.910   0.557   4.419  0.0251 -0.2457  0.2206
  205POPC   C3A 2888   7.229   0.783   4.180 -0.3286  0.2629  0.2665
  205POPC   C4A 2889   7.668   0.830   4.182  0.0958 -0.2444 -0.1211
  205POPC   C1B 2890   7.713   0.343   4.401  0.2610 -0.3084  0.0333
  205POPC   C2B 2891   7.824   0.317   4.857  0.0988  0.0051 -0.2918
  205POPC   C3B 2892   7.945   0.430   5.267 -0.0229  0.0029 -0.1293
  205POPC   C4B 2893   7.685   0.478   5.632  0.3802 -0.0463  0.2922
  206POPC   NC3 2894   3.958   1.495   4.326 -0.0362  0.1137 -0.0086
  206POPC   PO4 2895   4.281   1.731   4.602 -0.2854 -0.3311 -0.0049
  206POPC   GL1 2896   4.018   1.581   5.004 -0.1273  0.0507 -0.0275
  206POPC   GL2 2897   4.134   1.676   5.243  0.0458  0.3407 -0.1459
  206POPC   C1A 2898   3.603   1.379   5.086  0.0641  0.2019  0.1626
  206POPC   D2A 2899   3.208   1.265   5.444 -0.1181 -0.0833 -0.2401
  206POPC   C3A 2900   3.382   1.021   5.839 -0.2175  0.1563 -0.0078
  206POPC   C4A 2901   3.687   0.906   6.094  0.3331  0.0066 -0.1038
  206POPC   C1B 2902   3.852   1.509   5.512 -0.0272 -0.1370 -0.2202
  206POPC   C2B 2903   3.661   1.796   5.856  0.1662 -0.1716 -0.2057
  206POPC   C3B 2904   3.169   2.061   5.987  0.0090 -0.1738 -0.1193
  206POPC   C4B 2905   2.729   2.266   5.981 -0.1962 -0.2491  0.0012
  207POPC   NC3 2906   2.860   1.240   4.589 -0.3150 -0.5852  0.3688
  207POPC   PO4 2907   3.137   0.840   4.610 -0.1617 -0.0546  0.1216
  207POPC   GL1 2908   3.117   0.968   5.015 -0.1518 -0.0060  0.0227
  207POPC   GL2 2909   2.828   1.172   5.111 -0.0383 -0.1968  0.3140
  207POPC   C1A 2910   3.139   0.779   5.496 -0.2712 -0.0444  0.0033
  207POPC   D2A 2911   2.802   0.683   5.719  0.0573 -0.2744  0.1673
  207POPC   C3A 2912   2.742   0.318   5.854  0.2062 -0.1525 -0.3624
  207POPC   C4A 2913   2.682   0.022   6.280 -0.2166 -0.3828 -0.0827
  207POPC   C1B 2914   2.570   0.933   5.341 -0.1496  0.5487 -0.3648
  207POPC   C2B 2915   2.244   1.029   5.587 -0.0484  0.2773  0.2324
  207POPC   C3B 2916   1.914   1.243   5.932  0.0109 -0.2138 -0.1490
  207POPC   C4B 2917   1.802   1.166   6.423 -0.2547  0.1259 -0.0207
  208POPC   NC3 2918   6.669   5.352   4.138  0.3562  0.2070 -0.1822
  208POPC   PO4 2919   6.352   5.123   4.087  0.0500  0.3412 -0.0375
  208POPC   GL1 2920   6.527   4.935   4.406  0.1148 -0.2313  0.0460
  208POPC   GL2 2921   6.676   5.174   4.567 -0.0349  0.1483 -0.2160
  208POPC   C1A 2922   6.710   4.438   4.533  0.1197  0.2111  0.1439
  208POPC   D2A 2923   6.769   3.946   4.526  0.1629  0.1635  0.2150
  208POPC   C3A 2924   7.195   3.866   4.242  0.0883  0.0010  0.2389
  208POPC   C4A 2925   7.505   3.540   4.346 -0.0466  0.0795  0.2291
  208POPC   C1B 2926   6.760   5.319   4.969  0.3000 -0.0619 -0.1955
  208POPC   C2B 2927   7.024   5.624   5.188 -0.0692  0.1512  0.2083
  208POPC   C3B 2928   7.284   6.059   5.394  0.0202  0.1795  0.0903
  208POPC   C4B 2929   7.663   6.020   5.724 -0.0465 -0.1060  0.0732
  209POPC   NC3 2930   7.555   7.542   4.478 -0.1482 -0.2454  0.1054
  209POPC   PO4 2931   7.062   7.642   4.426 -0.0967 -0.1357  0.1017
  209POPC   GL1 2932   7.223   7.527   4.811  0.0807 -0.0861  0.2783
  209POPC   GL2 2933   7.159   7.706   5.198 -0.1562 -0.1433 -0.1475
  209POPC   C1A 2934   7.547   7.259   5.105 -0.2272 -0.1360 -0.3439
  209POPC   D2A 2935   7.615   6.878   5.287  0.2029  0.2188  0.0145
  209POPC   C3A 2936   7.570   6.839   5.696 -0.2252  0.0657 -0.0262
  209POPC   C4A 2937   7.810   6.823   6.108 -0.0320 -0.2617  0.0494
  209POPC   C1B 2938   7.096   7.891   5.543  0.2092 -0.2345  0.0663
  209POPC   C2B 2939   7.220   7.836   5.975  0.3193  0.0950 -0.2422
  209POPC   C3B 2940   7.394   8.021   6.379 -0.3716 -0.0587 -0.0129
  209POPC   C4B 2941   7.658   7.786   6.698  0.2262  0.0829 -0.1494
  210POPC   NC3 2942   1.762   1.942   4.732  0.1271  0.2574  0.1052
  210POPC   PO4 2943   2.144   2.180   4.674  0.2074 -0.1158  0.0829
  210POPC   GL1 2944   2.123   2.158   5.072  0.0057  0.3315 -0.0796
  210POPC   GL2 2945   2.339   1.880   5.200 -0.1371  0.1257 -0.2168
  210POPC   C1A 2946   1.921   2.117   5.497  0.0720  0.1028  0.1737
  210POPC   D2A 2947   1.668   2.128   5.932  0.0660 -0.3556  0.2616
  210POPC   C3A 2948   1.780   2.093   6.314  0.2182 -0.3731  0.0524
  210POPC   C4A 2949   1.555   1.991   6.716  0.0900  0.0455  0.1814
  210POPC   C1B 2950   2.398   1.972   5.594  0.0775  0.2368 -0.0541
  210POPC   C2B 2951   2.267   2.219   5.958  0.0096  0.0534 -0.2840
  210POPC   C3B 2952   1.996   2.633   6.047 -0.0192  0.5285 -0.1577
  210POPC   C4B 2953   1.916   3.034   5.843  0.5007 -0.1202 -0.2548
  211POPC   NC3 2954   0.295   6.839   4.506 -0.1090  0.1032 -0.0534
  211POPC   PO4 2955   0.117   6.432   4.208 -0.0938 -0.0740 -0.2185
  211POPC   GL1 2956   0.181   6.220   4.571  0.0375 -0.3681 -0.0408
  211POPC   GL2 2957   0.158   6.414   4.826  0.1221  0.0342  0.1982
  211POPC   C1A 2958   0.250   5.948   5.020 -0.1588  0.0483  0.1380
  211POPC   D2A 2959   0.367   5.640   5.353 -0.0337  0.0821  0.3251
  211POPC   C3A 2960   0.233   5.776   5.710  0.0557  0.1246 -0.2507
  211POPC   C4A 2961   0.331   5.619   6.128  0.1621 -0.1340 -0.2905
  211POPC   C1B 2962   0.138   6.586   5.242  0.0165 -0.0753  0.3244
  211POPC   C2B 2963   0.025   6.847   5.609  0.1172  0.1034  0.0571
  211POPC   C3B 2964   0.136   7.036   5.906 -0.1669  0.0667 -0.2073
  211POPC   C4B 2965   0.444   7.144   6.159 -0.1169  0.0488 -0.2210
  212POPC   NC3 2966   6.399   5.582   4.450 -0.1895 -0.2293 -0.0261
  212POPC   PO4 2967   6.060   5.738   4.566 -0.0143  0.2074  0.1368
  212POPC   GL1 2968   5.860   5.585   4.909 -0.1031 -0.1067  0.0444
  212POPC   GL2 2969   5.624   5.347   4.801 -0.4102 -0.0930  0.2328
  212POPC   C1A 2970   6.005   5.719   5.290 -0.1233 -0.3789  0.1955
  212POPC   D2A 2971   6.102   5.824   5.683  0.0391 -0.2102 -0.1402
  212POPC   C3A 2972   6.295   5.628   5.997 -0.0376  0.0910 -0.1126
  212POPC   C4A 2973   6.417   5.399   6.373  0.5817 -0.2614  0.1816
  212POPC   C1B 2974   5.810   5.116   5.191 -0.0122  0.0608 -0.0677
  212POPC   C2B 2975   5.643   4.969   5.585 -0.1013 -0.0125  0.3383
  212POPC   C3B 2976   5.626   4.825   6.004 -0.0579 -0.0625 -0.0377
  212POPC   C4B 2977   5.647   5.041   6.368  0.4057 -0.1336  0.2632
  213POPC   NC3 2978   3.872   1.952   4.556 -0.0066  0.0032  0.0654
  213POPC   PO4 2979   3.444   1.960   4.785 -0.0695  0.1195  0.0080
  213POPC   GL1 2980   3.734   1.975   5.072 -0.1753  0.0173  0.0512
  213POPC   GL2 2981   3.559   2.167   5.309 -0.0003  0.0376 -0.1079
  213POPC   C1A 2982   3.962   2.068   5.523 -0.4184 -0.3268 -0.0208
  213POPC   D2A 2983   4.265   2.182   5.809 -0.2318  0.0870 -0.1039
  213POPC   C3A 2984   4.483   2.068   6.221 -0.0395  0.0116 -0.2565
  213POPC   C4A 2985   4.761   1.866   6.384 -0.0575  0.2420 -0.0617
  213POPC   C1B 2986   3.824   2.614   5.333 -0.0181  0.0118  0.0294
  213POPC   C2B 2987   4.147   2.676   5.692  0.1281 -0.0156  0.3382
  213POPC   C3B 2988   4.120   2.561   6.161 -0.4585 -0.4683 -0.2789
  213POPC   C4B 2989   4.378   2.563   6.388 -0.2306  0.0360 -0.0966
  214POPC   NC3 2990   1.859   1.358   4.601 -0.1128  0.2155  0.1165
  214POPC   PO4 2991   1.616   1.023   4.413 -0.1900  0.0089 -0.0354
  214POPC   GL1 2992   1.605   1.041   4.892 -0.1190 -0.2055 -0.1656
  214POPC   GL2 2993   1.329   0.925   5.148 -0.2038  0.0464  0.0569
  214POPC   C1A 2994   1.832   1.249   5.200  0.0119  0.0790  0.1812
  214POPC   D2A 2995   1.785   1.662   5.144 -0.0940  0.0884  0.1879
  214POPC   C3A 2996   1.564   1.766   5.538  0.2300 -0.3079  0.2841
  214POPC   C4A 2997   1.546   1.632   5.877  0.3606  0.3589  0.0655
  214POPC   C1B 2998   1.017   1.069   5.461  0.0020  0.2476  0.4776
  214POPC   C2B 2999   0.981   1.431   5.704 -0.0030  0.1932  0.2175
  214POPC   C3B 3000   1.064   1.567   6.053  0.2692  0.0187  0.2313
  214POPC   C4B 3001   1.259   1.895   6.236  0.1819 -0.2401 -0.1449
  215POPC   NC3 3002   8.724   8.011   4.517  0.3279 -0.0378  0.0571
  215POPC   PO4 3003   8.325   7.882   4.744  0.0176  0.0091  0.1230
  215POPC   GL1 3004   8.435   7.880   5.140  0.1286  0.2416 -0.4585
  215POPC   GL2 3005   8.364   8.197   5.300  0.1043  0.1416 -0.0380
  215POPC   C1A 3006   8.642   7.974   5.583 -0.4877  0.0074 -0.0612
  215POPC   D2A 3007   8.873   7.770   5.861 -0.1234 -0.0079  0.1135
  215POPC   C3A 3008   8.525   7.644   6.069  0.1117  0.1061  0.2348
  215POPC   C4A 3009   8.424   7.745   6.542  0.1932 -0.0219  0.0516
  215POPC   C1B 3010   8.177   8.217   5.792  0.2656 -0.1583  0.0448
  215POPC   C2B 3011   8.356   8.216   6.251 -0.4089 -0.0684 -0.1952
  215POPC   C3B 3012   8.776   8.183   6.273 -0.1635 -0.0899 -0.2279
  215POPC   C4B 3013   9.138   8.127   5.986 -0.0765  0.4024  0.0508
  216POPC   NC3 3014   4.653   1.166   4.529 -0.2775  0.2242 -0.1825
  216POPC   PO4 3015   4.836   1.576   4.501  0.0667 -0.2187  0.2853
  216POPC   GL1 3016   4.870   1.795   4.808 -0.1339  0.0887 -0.0991
  216POPC   GL2 3017   4.611   1.952   4.968  0.0959 -0.1175  0.3135
  216POPC   C1A 3018   5.155   2.026   5.088 -0.2027 -0.0754  0.4051
  216POPC   D2A 3019   5.606   2.038   5.069 -0.2199 -0.2108  0.1360
  216POPC   C3A 3020   5.822   1.722   5.409  0.1860  0.0214  0.1295
  216POPC   C4A 3021   5.822   1.318   5.568  0.1480  0.2198  0.0715
  216POPC   C1B 3022   4.499   2.031   5.405 -0.2201  0.1072  0.0765
  216POPC   C2B 3023   4.732   1.976   5.775  0.2393  0.4569 -0.2367
  216POPC   C3B 3024   5.034   1.835   5.885 -0.0040 -0.0289 -0.0321
  216POPC   C4B 3025   5.207   1.698   6.200  0.1538  0.1494  0.0355
  217POPC   NC3 3026   6.756   0.013   3.960 -0.0339  0.2621  0.1945
  217POPC   PO4 3027   6.381   0.218   3.668  0.0344  0.1611  0.2139
  217POPC   GL1 3028   6.403   0.359   4.116  0.1082 -0.1370  0.2262
  217POPC   GL2 3029   6.281   0.084   4.436 -0.1086  0.2045 -0.0518
  217POPC   C1A 3030   6.409   0.617   4.440  0.1542 -0.2698 -0.3495
  217POPC   D2A 3031   6.213   0.990   4.488  0.0501  0.2239 -0.3739
  217POPC   C3A 3032   6.039   1.155   4.829 -0.0019  0.1687  0.2603
  217POPC   C4A 3033   6.097   1.459   5.082 -0.0737  0.0022  0.0412
  217POPC   C1B 3034   6.234   0.297   4.746 -0.4325 -0.0336  0.2239
  217POPC   C2B 3035   6.201   0.744   4.972  0.1679  0.2160 -0.2056
  217POPC   C3B 3036   6.134   1.052   5.318  0.0575  0.0225  0.0709
  217POPC   C4B 3037   6.188   1.027   5.772  0.1571 -0.2493  0.1298
  218POPC   NC3 3038   4.442   3.641   3.951  0.0980  0.2248  0.1836
  218POPC   PO4 3039   4.413   3.872   4.330  0.1260  0.0531 -0.0064
  218POPC   GL1 3040   4.686   3.968   4.696  0.1405  0.2849  0.0275
  218POPC   GL2 3041   4.739   4.121   5.040 -0.1385 -0.1009  0.1497
  218POPC   C1A 3042   4.899   3.578   4.960  0.3928 -0.0906  0.1191
  218POPC   D2A 3043   5.141   3.272   5.073  0.2388 -0.0541 -0.0106
  218POPC   C3A 3044   5.414   3.189   5.353 -0.1297 -0.1377 -0.0003
  218POPC   C4A 3045   5.753   3.392   5.189 -0.3657 -0.1316  0.1994
  218POPC   C1B 3046   4.386   3.996   5.261 -0.2100 -0.0714  0.1553
  218POPC   C2B 3047   4.236   4.060   5.709 -0.3671  0.0919 -0.1603
  218POPC   C3B 3048   4.175   4.079   6.070 -0.0238  0.0915  0.0326
  218POPC   C4B 3049   4.003   3.906   6.486 -0.0226  0.2563  0.0209
  219POPC   NC3 3050   4.824   8.062   4.722  0.1312 -0.2548 -0.2283
  219POPC   PO4 3051   5.060   7.977   5.052 -0.0447 -0.1183 -0.0840
  219POPC   GL1 3052   4.991   7.899   5.397 -0.0282 -0.0622 -0.3278
  219POPC   GL2 3053   4.659   7.691   5.540  0.2114  0.1034 -0.0158
  219POPC   C1A 3054   4.883   8.158   5.708 -0.2838  0.0770 -0.1675
  219POPC   D2A 3055   5.122   8.260   6.145 -0.2454  0.2924  0.0176
  219POPC   C3A 3056   4.937   8.352   6.490  0.2712 -0.0037  0.0589
  219POPC   C4A 3057   4.749   8.189   6.921 -0.1917 -0.2758  0.0718
  219POPC   C1B 3058   5.083   7.395   5.739 -0.0888 -0.1403  0.2768
  219POPC   C2B 3059   5.110   7.184   6.206  0.1392  0.1350  0.1776
  219POPC   C3B 3060   5.266   6.967   6.600  0.0247 -0.1174 -0.1098
  219POPC   C4B 3061   5.389   6.892   6.952  0.5570 -0.1383 -0.3403
  220POPC   NC3 3062   9.834   4.600   3.775 -0.2948 -0.0348  0.1236
  220POPC   PO4 3063  10.142   4.596   4.149 -0.1967 -0.1958 -0.0169
  220POPC   GL1 3064  10.050   4.684   4.527  0.1860  0.5134 -0.2075
  220POPC   GL2 3065  10.048   5.069   4.733  0.1534 -0.0156  0.0978
  220POPC   C1A 3066  10.089   4.498   4.967 -0.0693 -0.1037 -0.1662
  220POPC   D2A 3067  10.018   4.193   5.288 -0.0543  0.1582  0.0134
  220POPC   C3A 3068   9.714   4.144   5.510  0.1336  0.0752 -0.1483
  220POPC   C4A 3069   9.263   4.071   5.651 -0.2487  0.0957  0.1121
  220POPC   C1B 3070  10.014   4.999   5.211  0.0300  0.0090 -0.0722
  220POPC   C2B 3071   9.832   5.194   5.568  0.1243 -0.1077 -0.1388
  220POPC   C3B 3072   9.725   5.496   5.873 -0.1970  0.0360 -0.1048
  220POPC   C4B 3073   9.745   5.798   6.234 -0.0871 -0.1302  0.1466
  221POPC   NC3 3074   1.407   0.611   4.527  0.0019 -0.5644  0.0427
  221POPC   PO4 3075   1.537   0.169   4.744  0.1298  0.0474  0.5186
  221POPC   GL1 3076   1.349   0.356   5.055  0.0276 -0.2210  0.0401
  221POPC   GL2 3077   1.390   0.093   5.276 -0.3171  0.2595 -0.0974
  221POPC   C1A 3078   1.461   0.567   5.456  0.0686  0.0225  0.1894
  221POPC   D2A 3079   1.560   1.061   5.591  0.0670  0.0659 -0.2245
  221POPC   C3A 3080   1.426   1.179   6.011 -0.3083  0.0609  0.0383
  221POPC   C4A 3081   1.371   1.421   6.446 -0.2030 -0.2584 -0.0050
  221POPC   C1B 3082   1.239  -0.181   5.571 -0.0978 -0.0766  0.1832
  221POPC   C2B 3083   1.188  -0.215   5.975 -0.0372  0.0331  0.1947
  221POPC   C3B 3084   1.022  -0.269   6.345  0.1718 -0.1871  0.3111
  221POPC   C4B 3085   0.672  -0.098   6.681  0.2093 -0.0702  0.2658
  222POPC   NC3 3086   3.943   3.430   4.724 -0.1217  0.0779 -0.0354
  222POPC   PO4 3087   3.751   3.093   4.560  0.1985 -0.0334 -0.3542
  222POPC   GL1 3088   3.860   3.015   5.005  0.3765  0.1763 -0.1558
  222POPC   GL2 3089   3.630   3.163   5.119 -0.0198  0.0603  0.0023
  222POPC   C1A 3090   4.146   3.014   5.293 -0.1993  0.1479  0.0608
  222POPC   D2A 3091   4.467   2.724   5.316  0.2117  0.0674  0.1370
  222POPC   C3A 3092   4.674   2.533   5.667 -0.1257 -0.2513  0.1614
  222POPC   C4A 3093   4.807   2.348   6.054  0.1376  0.1463 -0.0108
  222POPC   C1B 3094   3.747   3.303   5.526  0.2698 -0.2548  0.1813
  222POPC   C2B 3095   4.130   3.160   5.792  0.1413 -0.1512 -0.1228
  222POPC   C3B 3096   4.358   2.976   6.066 -0.1449  0.2251 -0.1296
  222POPC   C4B 3097   4.529   3.103   6.415 -0.1128  0.2485 -0.2305
  223POPC   NC3 3098   1.000   8.336   4.660  0.1749 -0.0709  0.3018
  223POPC   PO4 3099   1.057   8.004   5.069 -0.0102 -0.0165  0.6837
  223POPC   GL1 3100   1.001   7.969   5.536 -0.2108 -0.0722  0.1441
  223POPC   GL2 3101   1.256   7.954   5.682 -0.1244  0.0186 -0.2950
  223POPC   C1A 3102   0.785   8.085   5.946  0.2927  0.0857  0.2244
  223POPC   D2A 3103   0.685   8.079   6.399  0.0419 -0.0957 -0.2792
  223POPC   C3A 3104   0.370   7.987   6.640 -0.2033  0.2972  0.0144
  223POPC   C4A 3105  -0.038   8.044   6.657  0.2292 -0.4305 -0.3286
  223POPC   C1B 3106   1.588   8.101   5.721  0.1363 -0.0116 -0.2711
  223POPC   C2B 3107   1.991   8.249   5.621  0.2990  0.1148  0.1764
  223POPC   C3B 3108   2.286   8.158   5.956  0.1350  0.0037 -0.0721
  223POPC   C4B 3109   2.470   7.792   6.160  0.2754  0.1173  0.0531
  224POPC   NC3 3110   4.778   8.775   4.762 -0.0133 -0.0052 -0.3189
  224POPC   PO4 3111   4.440   8.465   4.869 -0.1842  0.3164  0.2985
  224POPC   GL1 3112   4.436   8.719   5.225  0.1811  0.0578 -0.0467
  224POPC   GL2 3113   4.162   8.872   5.236  0.3177  0.2015 -0.0862
  224POPC   C1A 3114   4.604   8.846   5.618  0.0675  0.3725  0.0212
  224POPC   D2A 3115   4.720   8.548   5.952  0.0439  0.0877  0.0839
  224POPC   C3A 3116   4.331   8.220   5.890 -0.0168  0.0198 -0.1234
  224POPC   C4A 3117   4.255   7.690   5.901 -0.0012  0.1078  0.1736
  224POPC   C1B 3118   4.331   9.231   5.512 -0.2019  0.1762 -0.0528
  224POPC   C2B 3119   4.345   9.225   5.908 -0.0625  0.0916 -0.1444
  224POPC   C3B 3120   4.387   9.427   6.276 -0.3131  0.0384  0.0577
  224POPC   C4B 3121   4.206   9.546   6.686 -0.1374 -0.0861  0.0807
  225POPC   NC3 3122   4.730   6.014   4.523 -0.2225 -0.0817 -0.4152
  225POPC   PO4 3123   4.405   6.307   4.533 -0.3057 -0.1233 -0.0309
  225POPC   GL1 3124   4.416   6.230   5.003 -0.2560 -0.1055 -0.4507
  225POPC   GL2 3125   4.742   6.092   5.148  0.0534 -0.0837 -0.2595
  225POPC   C1A 3126   4.424   6.306   5.421  0.3892 -0.2596 -0.1163
  225POPC   D2A 3127   4.480   6.714   5.748  0.1553  0.0385 -0.2593
  225POPC   C3A 3128   4.751   6.881   6.009  0.0568  0.1247  0.0964
  225POPC   C4A 3129   4.685   6.952   6.443 -0.1781 -0.0112 -0.0997
  225POPC   C1B 3130   4.865   6.045   5.543 -0.1768 -0.1363  0.3278
  225POPC   C2B 3131   5.141   6.015   5.992 -0.1846  0.1976 -0.2568
  225POPC   C3B 3132   5.509   5.790   6.161 -0.1468 -0.1381 -0.0178
  225POPC   C4B 3133   5.824   5.523   6.285 -0.2705 -0.0131 -0.0170
  226POPC   NC3 3134   0.224   0.911   4.345 -0.0010  0.1263 -0.1127
  226POPC   PO4 3135   0.048   1.211   4.091  0.0101 -0.1910 -0.2668
  226POPC   GL1 3136  -0.051   1.327   4.549 -0.0960 -0.0110  0.2864
  226POPC   GL2 3137   0.122   1.083   4.793  0.0799 -0.1357 -0.0975
  226POPC   C1A 3138  -0.175   1.615   4.883  0.3273  0.1538  0.1023
  226POPC   D2A 3139  -0.216   2.003   5.114 -0.2479 -0.1360  0.1457
  226POPC   C3A 3140  -0.369   2.063   5.638 -0.0577  0.4191  0.0932
  226POPC   C4A 3141  -0.783   2.197   5.879  0.0782  0.0307  0.0866
  226POPC   C1B 3142  -0.045   0.821   5.018 -0.2579  0.1025 -0.0140
  226POPC   C2B 3143  -0.277   0.531   5.203 -0.3413  0.1805 -0.0250
  226POPC   C3B 3144  -0.442   0.507   5.534  0.3216 -0.1358 -0.2233
  226POPC   C4B 3145  -0.847   0.607   5.569 -0.0700 -0.1353 -0.5411
  227POPC   NC3 3146   0.888   5.356   4.486 -0.2504  0.1061  0.3397
  227POPC   PO4 3147   0.524   5.430   4.487 -0.0221 -0.0542  0.1737
  227POPC   GL1 3148   0.546   5.427   4.905  0.0209  0.2662 -0.2960
  227POPC   GL2 3149   0.785   5.616   4.963  0.1108  0.3337 -0.3136
  227POPC   C1A 3150   0.604   5.148   5.248 -0.0051 -0.0813 -0.1946
  227POPC   D2A 3151   0.395   4.708   5.530  0.1222  0.1147  0.0071
  227POPC   C3A 3152   0.538   4.755   5.926 -0.2248  0.0523 -0.0859
  227POPC   C4A 3153   0.827   4.865   6.322 -0.0205 -0.1174  0.0720
  227POPC   C1B 3154   1.018   5.442   5.292  0.2640 -0.0389  0.2474
  227POPC   C2B 3155   1.233   5.670   5.680 -0.0831 -0.0675  0.1644
  227POPC   C3B 3156   1.547   5.877   5.890  0.1344  0.0332 -0.0763
  227POPC   C4B 3157   1.890   5.757   6.091 -0.3988  0.1658 -0.0330
  228POPC   NC3 3158   7.494   5.305   4.154  0.0032  0.3049  0.1041
  228POPC   PO4 3159   7.058   5.567   4.279 -0.3673 -0.0669 -0.2717
  228POPC   GL1 3160   7.164   5.304   4.702 -0.1718  0.1667 -0.0468
  228POPC   GL2 3161   7.521   5.299   4.660 -0.1718  0.2954 -0.1182
  228POPC   C1A 3162   7.193   5.191   5.182 -0.0201  0.0375  0.1210
  228POPC   D2A 3163   7.299   4.887   5.519  0.1910 -0.0012 -0.0164
  228POPC   C3A 3164   7.612   4.605   5.501 -0.2815  0.2090  0.0349
  228POPC   C4A 3165   7.609   4.277   5.241 -0.0968 -0.1063 -0.0066
  228POPC   C1B 3166   7.518   5.521   5.031  0.1238  0.0380  0.3954
  228POPC   C2B 3167   7.434   5.616   5.503 -0.1236 -0.0091  0.1353
  228POPC   C3B 3168   7.292   5.356   5.664 -0.0185  0.2462 -0.0895
  228POPC   C4B 3169   7.263   5.078   6.066  0.1622  0.0123  0.4169
  229POPC   NC3 3170   0.244   9.830   4.480 -0.0686  0.2883  0.2075
  229POPC   PO4 3171   0.366   9.353   4.647 -0.0020  0.4545  0.0928
  229POPC   GL1 3172   0.404   9.273   5.082  0.0518  0.0820 -0.3951
  229POPC   GL2 3173   0.790   9.464   5.237 -0.0369 -0.2432 -0.0398
  229POPC   C1A 3174   0.337   9.650   5.340 -0.1470  0.1167 -0.0105
  229POPC   D2A 3175   0.295   9.786   5.832 -0.0799  0.0575 -0.0922
  229POPC   C3A 3176   0.178   9.501   6.167  0.0323  0.1892 -0.0401
  229POPC   C4A 3177  -0.113   9.209   6.145 -0.1319  0.1720  0.1611
  229POPC   C1B 3178   0.530   9.237   5.551  0.0487  0.3412 -0.1070
  229POPC   C2B 3179   0.344   9.071   5.925  0.0987  0.3654  0.0269
  229POPC   C3B 3180   0.266   8.967   6.314  0.1671  0.5241  0.0128
  229POPC   C4B 3181   0.357   8.735   6.737  0.1662  0.0708 -0.3251
  230POPC   NC3 3182   6.796   7.314   5.066 -0.0125 -0.0702  0.3144
  230POPC   PO4 3183   6.753   7.729   4.956  0.0008 -0.0947 -0.0653
  230POPC   GL1 3184   6.633   7.907   5.348  0.0183  0.1017 -0.0598
  230POPC   GL2 3185   6.505   7.580   5.450  0.1496  0.0506 -0.0329
  230POPC   C1A 3186   6.542   8.323   5.521 -0.0655 -0.2336  0.4249
  230POPC   D2A 3187   6.074   8.465   5.693 -0.3933  0.1246  0.0146
  230POPC   C3A 3188   6.043   8.477   6.050 -0.0544  0.2513  0.2709
  230POPC   C4A 3189   5.934   8.556   6.524 -0.2138 -0.1286 -0.2055
  230POPC   C1B 3190   6.175   7.811   5.619 -0.1278 -0.3052 -0.2047
  230POPC   C2B 3191   5.802   8.038   5.794 -0.2915  0.0189  0.0224
  230POPC   C3B 3192   5.577   8.061   6.184 -0.2661 -0.0773 -0.0953
  230POPC   C4B 3193   5.675   7.965   6.565  0.1870  0.2093  0.2754
  231POPC   NC3 3194   5.497   8.268   4.889 -0.1064  0.1712 -0.0081
  231POPC   PO4 3195   5.146   8.485   4.695  0.2354 -0.1041  0.0805
  231POPC   GL1 3196   4.964   8.501   5.162  0.1869  0.1437  0.1291
  231POPC   GL2 3197   5.257   8.369   5.321 -0.2629  0.4741 -0.3806
  231POPC   C1A 3198   5.055   8.688   5.597  0.1998  0.0803  0.1138
  231POPC   D2A 3199   5.232   8.897   5.918  0.2224  0.2414  0.0660
  231POPC   C3A 3200   5.124   8.791   6.298  0.0201  0.3903 -0.0485
  231POPC   C4A 3201   5.192   9.072   6.711  0.1117  0.0053  0.1422
  231POPC   C1B 3202   5.466   8.484   5.658  0.1135 -0.0069 -0.3204
  231POPC   C2B 3203   5.546   8.536   6.109 -0.1404  0.0031  0.1907
  231POPC   C3B 3204   5.449   8.376   6.539  0.1360 -0.1647  0.1001
  231POPC   C4B 3205   5.243   8.585   6.765 -0.2496 -0.1658  0.1564
  232POPC   NC3 3206   4.168   0.690   4.968  0.0238 -0.2704  0.1287
  232POPC   PO4 3207   4.128   1.175   4.667  0.0300 -0.0392  0.3558
  232POPC   GL1 3208   4.187   1.162   5.145  0.1557  0.0508 -0.0618
  232POPC   GL2 3209   3.972   1.090   5.264  0.1086 -0.3182 -0.2618
  232POPC   C1A 3210   4.481   1.382   5.421 -0.3066  0.1676 -0.1009
  232POPC   D2A 3211   4.376   1.646   5.689  0.2666  0.0873 -0.3090
  232POPC   C3A 3212   4.320   1.597   6.169 -0.0126 -0.0080  0.0075
  232POPC   C4A 3213   4.370   1.238   6.454 -0.0921  0.1374  0.2542
  232POPC   C1B 3214   3.967   1.128   5.749 -0.0436 -0.0650  0.0654
  232POPC   C2B 3215   3.914   1.425   6.040  0.2043 -0.1699  0.1540
  232POPC   C3B 3216   3.875   1.263   6.462  0.1633  0.1705  0.2138
  232POPC   C4B 3217   3.963   1.063   6.830  0.0386  0.2013  0.3937
  233POPC   NC3 3218   2.427   5.283   4.592 -0.1439  0.0673  0.0702
  233POPC   PO4 3219   2.608   5.438   4.914  0.0326 -0.0578  0.0867
  233POPC   GL1 3220   2.867   5.361   5.375  0.2971  0.1581  0.0397
  233POPC   GL2 3221   2.697   5.113   5.579 -0.3299 -0.0656 -0.0533
  233POPC   C1A 3222   2.953   5.512   5.719 -0.0053 -0.1771 -0.1444
  233POPC   D2A 3223   2.994   5.497   6.152  0.1070  0.0217  0.3264
  233POPC   C3A 3224   3.339   5.845   6.271  0.2382  0.1942 -0.1822
  233POPC   C4A 3225   3.652   6.142   6.247  0.2533 -0.2185 -0.1898
  233POPC   C1B 3226   2.646   5.118   6.056 -0.1183 -0.0986  0.1389
  233POPC   C2B 3227   2.307   5.031   6.397 -0.3313  0.2539  0.0591
  233POPC   C3B 3228   2.009   4.768   6.584 -0.0709  0.0555  0.0706
  233POPC   C4B 3229   1.760   4.428   6.770 -0.2193 -0.0579  0.0547
  234POPC   NC3 3230   2.085   0.030   4.488  0.0719 -0.1880  0.1902
  234POPC   PO4 3231   1.909   0.460   4.443  0.1633 -0.1706 -0.0434
  234POPC   GL1 3232   1.890   0.539   4.823  0.0682  0.0744  0.0606
  234POPC   GL2 3233   1.842   0.332   5.062 -0.0995 -0.1316 -0.4063
  234POPC   C1A 3234   1.866   0.750   5.295  0.2543  0.3596 -0.1860
  234POPC   D2A 3235   1.841   0.651   5.796  0.1722 -0.2716  0.1751
  234POPC   C3A 3236   1.316   0.734   5.896  0.0758  0.0277 -0.1684
  234POPC   C4A 3237   0.984   0.946   5.968  0.2478  0.1961  0.0960
  234POPC   C1B 3238   1.853   0.253   5.460  0.2900  0.0804  0.1704
  234POPC   C2B 3239   1.491   0.177   5.832  0.1767 -0.1846  0.0709
  234POPC   C3B 3240   1.083   0.314   6.068  0.1042  0.0893 -0.0898
  234POPC   C4B 3241   0.830   0.663   6.323 -0.0255  0.1505  0.2801
  235POPC   NC3 3242   5.563   2.689   3.857 -0.2792  0.1837  0.1504
  235POPC   PO4 3243   5.925   2.987   3.721  0.2255  0.2675  0.1312
  235POPC   GL1 3244   6.209   3.105   4.091  0.1209  0.1139 -0.0687
  235POPC   GL2 3245   6.063   3.340   4.257  0.3378 -0.0780  0.0457
  235POPC   C1A 3246   6.506   3.207   4.436 -0.0041 -0.0858 -0.1329
  235POPC   D2A 3247   6.671   3.468   4.771  0.3208 -0.0966 -0.1741
  235POPC   C3A 3248   6.689   3.179   5.085  0.1545  0.0678  0.1065
  235POPC   C4A 3249   6.693   2.833   5.378  0.1660 -0.0618 -0.0011
  235POPC   C1B 3250   6.319   3.737   4.539 -0.1443  0.0519  0.0050
  235POPC   C2B 3251   6.503   3.960   4.912  0.0575 -0.0052  0.0249
  235POPC   C3B 3252   6.273   4.117   5.257  0.1885  0.2753 -0.1700
  235POPC   C4B 3253   6.169   4.158   5.718 -0.2296  0.1710  0.2050
  236POPC   NC3 3254   8.800   8.909   4.318 -0.2941 -0.2367 -0.3932
  236POPC   PO4 3255   9.221   8.905   4.524 -0.3582  0.1547 -0.1780
  236POPC   GL1 3256   9.262   8.854   5.013  0.0118 -0.0835  0.1020
  236POPC   GL2 3257   9.553   8.712   5.089 -0.1622 -0.0378 -0.0687
  236POPC   C1A 3258   9.174   9.004   5.399  0.1149 -0.0221  0.0277
  236POPC   D2A 3259   8.943   9.029   5.765  0.1853  0.3031 -0.1757
  236POPC   C3A 3260   8.747   9.436   5.960  0.1537  0.4847  0.1252
  236POPC   C4A 3261   8.821   9.692   6.212 -0.1933  0.1480  0.4275
  236POPC   C1B 3262   9.480   8.563   5.496  0.3601  0.0299  0.1041
  236POPC   C2B 3263   9.257   8.620   5.888  0.0256  0.0854 -0.1953
  236POPC   C3B 3264   9.307   8.534   6.303 -0.0203  0.1065  0.0860
  236POPC   C4B 3265   9.573   8.832   6.543 -0.0684  0.0455  0.0705
  237POPC   NC3 3266   5.840   5.012   4.052  0.0144 -0.2279 -0.2000
  237POPC   PO4 3267   6.026   5.164   4.476  0.0740  0.0518  0.0165
  237POPC   GL1 3268   6.159   5.164   4.833 -0.0536 -0.0031 -0.0897
  237POPC   GL2 3269   6.233   5.345   5.069  0.0376 -0.3106  0.1311
  237POPC   C1A 3270   6.380   4.921   5.198  0.0218 -0.2058  0.1261
  237POPC   D2A 3271   6.744   5.068   5.428 -0.1072 -0.3143  0.2851
  237POPC   C3A 3272   6.647   5.010   5.945 -0.2622  0.0905  0.0334
  237POPC   C4A 3273   6.757   5.072   6.346 -0.1214  0.1478 -0.0591
  237POPC   C1B 3274   6.115   5.287   5.558  0.0603  0.5267 -0.0365
  237POPC   C2B 3275   5.992   5.184   5.965  0.4521 -0.2172  0.2072
  237POPC   C3B 3276   6.167   4.941   6.308  0.5346 -0.0162  0.0854
  237POPC   C4B 3277   6.294   5.047   6.686 -0.2773  0.1524  0.0505
  238POPC   NC3 3278   4.428   6.860   4.658 -0.1053  0.2874 -0.0387
  238POPC   PO4 3279   4.832   6.537   4.549 -0.1083  0.1411 -0.1735
  238POPC   GL1 3280   4.830   6.586   5.096 -0.1783 -0.1606  0.0092
  238POPC   GL2 3281   5.233   6.686   5.113 -0.0341  0.1824  0.0683
  238POPC   C1A 3282   4.853   6.544   5.460  0.1355  0.0503 -0.2485
  238POPC   D2A 3283   4.932   6.474   5.812 -0.3320 -0.0479 -0.0815
  238POPC   C3A 3284   4.652   6.297   5.935 -0.6936  0.0567 -0.1578
  238POPC   C4A 3285   4.229   6.155   5.996  0.1373 -0.0280 -0.3312
  238POPC   C1B 3286   5.295   6.268   5.374 -0.3819 -0.1452  0.1699
  238POPC   C2B 3287   5.573   5.933   5.642  0.1230 -0.3009  0.3220
  238POPC   C3B 3288   5.705   5.589   5.737  0.0026  0.0121 -0.0229
  238POPC   C4B 3289   5.503   5.326   5.976  0.1356  0.1946 -0.1818
  239POPC   NC3 3290   4.024   6.045   4.774  0.0898 -0.3075 -0.0195
  239POPC   PO4 3291   3.866   5.781   4.698 -0.0801  0.0062  0.0847
  239POPC   GL1 3292   3.694   5.797   5.106 -0.0985  0.2150  0.2005
  239POPC   GL2 3293   3.444   5.635   5.120  0.4008  0.0175 -0.1365
  239POPC   C1A 3294   3.501   5.946   5.491  0.1673 -0.1658  0.0934
  239POPC   D2A 3295   3.113   6.002   5.834 -0.1044  0.3239  0.2781
  239POPC   C3A 3296   2.704   5.941   6.042 -0.3244  0.1362 -0.4020
  239POPC   C4A 3297   2.757   5.731   6.561  0.3623  0.0560  0.0562
  239POPC   C1B 3298   3.434   5.436   5.549 -0.1401 -0.1911  0.1473
  239POPC   C2B 3299   3.647   5.191   5.976 -0.0845 -0.4420  0.2928
  239POPC   C3B 3300   3.813   5.093   6.221 -0.2519 -0.1927 -0.2291
  239POPC   C4B 3301   3.606   4.862   6.515  0.2137 -0.3357 -0.0514
  240POPC   NC3 3302   7.016   3.640   3.262 -0.1328  0.0019 -0.1186
  240POPC   PO4 3303   7.329   3.582   2.988  0.0746 -0.4554 -0.1248
  240POPC   GL1 3304   7.452   3.487   3.452 -0.1377 -0.0398 -0.0336
  240POPC   GL2 3305   7.223   3.333   3.604 -0.3340  0.0640 -0.1738
  240POPC   C1A 3306   7.536   3.670   3.907  0.2569 -0.0637 -0.0869
  240POPC   D2A 3307   7.588   4.006   3.987  0.1057 -0.3385 -0.4328
  240POPC   C3A 3308   7.632   4.038   4.426 -0.0838  0.3400 -0.2038
  240POPC   C4A 3309   7.953   4.062   4.875 -0.0317 -0.0362 -0.2897
  240POPC   C1B 3310   7.124   3.249   3.977 -0.0921  0.0293 -0.0910
  240POPC   C2B 3311   7.226   2.994   4.350 -0.0406  0.1707  0.0582
  240POPC   C3B 3312   7.216   2.694   4.655 -0.0515 -0.0640 -0.2239
  240POPC   C4B 3313   7.205   2.685   5.099  0.0679  0.1808  0.1462
  241POPC   NC3 3314   5.936   8.508   4.915 -0.2964  0.0507  0.1039
  241POPC   PO4 3315   5.803   8.856   5.084 -0.2493  0.3279  0.2204
  241POPC   GL1 3316   5.757   9.165   5.349 -0.1517 -0.2681  0.3990
  241POPC   GL2 3317   5.497   9.020   5.564 -0.1217 -0.0921 -0.0013
  241POPC   C1A 3318   5.750   9.538   5.713 -0.0316  0.0080  0.3701
  241POPC   D2A 3319   5.735   9.632   6.125 -0.0168 -0.0853  0.2594
  241POPC   C3A 3320   6.037   9.544   6.228 -0.0965 -0.2561 -0.1873
  241POPC   C4A 3321   6.457   9.688   6.261  0.0778  0.0242  0.0789
  241POPC   C1B 3322   5.720   9.020   5.952  0.0314  0.2125  0.2196
  241POPC   C2B 3323   6.064   8.951   6.075 -0.4815  0.0094 -0.1507
  241POPC   C3B 3324   6.243   8.979   6.541 -0.1209  0.0777  0.3154
  241POPC   C4B 3325   6.430   8.752   6.852  0.0832 -0.1382  0.0636
  242POPC   NC3 3326   0.436   2.387   4.412  0.0221 -0.0123 -0.0798
  242POPC   PO4 3327   0.689   2.372   4.664  0.0625  0.0418 -0.2255
  242POPC   GL1 3328   1.014   2.334   4.993  0.1490 -0.0254 -0.0783
  242POPC   GL2 3329   1.245   2.637   5.107  0.0205  0.0246  0.5029
  242POPC   C1A 3330   0.900   2.509   5.369  0.0406  0.4090  0.0496
  242POPC   D2A 3331   0.623   2.458   5.765 -0.0772  0.0346  0.1648
  242POPC   C3A 3332   0.129   2.579   5.835 -0.2488  0.0467 -0.0625
  242POPC   C4A 3333  -0.300   2.421   6.004 -0.0225 -0.1207 -0.2446
  242POPC   C1B 3334   1.303   2.875   5.527  0.5195  0.0632  0.0585
  242POPC   C2B 3335   1.020   3.033   5.796 -0.0113  0.3254  0.1336
  242POPC   C3B 3336   0.847   2.751   6.151 -0.0539 -0.0338  0.2855
  242POPC   C4B 3337   0.637   2.464   6.310  0.2479  0.0207  0.0178
  243POPC   NC3 3338   0.270   3.832   4.094 -0.0412  0.1696  0.0288
  243POPC   PO4 3339   0.655   3.942   4.322  0.3814 -0.2280 -0.0696
  243POPC   GL1 3340   0.705   3.895   4.811 -0.0946  0.1124 -0.0792
  243POPC   GL2 3341   0.626   4.216   4.867  0.0134  0.0208  0.0763
  243POPC   C1A 3342   0.314   3.769   5.124 -0.4623  0.0549 -0.0190
  243POPC   D2A 3343   0.226   3.373   5.364 -0.0695 -0.1190  0.2878
  243POPC   C3A 3344  -0.014   3.446   5.779  0.0014 -0.2320  0.0716
  243POPC   C4A 3345  -0.260   3.685   5.835 -0.1966 -0.2344  0.2960
  243POPC   C1B 3346   0.623   4.183   5.260 -0.0816  0.1063 -0.3338
  243POPC   C2B 3347   0.345   3.857   5.652 -0.0090  0.0684 -0.0167
  243POPC   C3B 3348   0.486   3.946   6.085 -0.1352 -0.1462 -0.2672
  243POPC   C4B 3349   0.375   4.134   6.570  0.0706  0.0802 -0.1675
  244POPC   NC3 3350   4.742   2.310   4.077  0.0475 -0.2257  0.1081
  244POPC   PO4 3351   4.974   2.714   4.076 -0.0614  0.1270 -0.4736
  244POPC   GL1 3352   4.966   2.494   4.433 -0.0308 -0.3763  0.1741
  244POPC   GL2 3353   5.161   2.776   4.636 -0.0519  0.1126  0.0605
  244POPC   C1A 3354   4.876   2.342   4.778 -0.1224  0.2554 -0.0116
  244POPC   D2A 3355   4.833   2.371   5.190  0.1220  0.3250 -0.2118
  244POPC   C3A 3356   5.058   2.245   5.524  0.0065  0.0452  0.3464
  244POPC   C4A 3357   5.196   2.334   5.834 -0.3395 -0.1330  0.1048
  244POPC   C1B 3358   4.944   2.809   5.005 -0.1366  0.0956 -0.0874
  244POPC   C2B 3359   5.084   2.809   5.430 -0.0189 -0.2204 -0.0972
  244POPC   C3B 3360   5.350   2.804   5.824 -0.0366  0.0948 -0.2179
  244POPC   C4B 3361   5.611   2.535   6.114 -0.1610 -0.3595  0.1068
  245POPC   NC3 3362   9.642   1.663   3.910  0.1699 -0.1401  0.1248
  245POPC   PO4 3363   9.407   1.896   3.723 -0.1225  0.1932 -0.1751
  245POPC   GL1 3364   9.286   2.021   4.013  0.0743 -0.0726 -0.0909
  245POPC   GL2 3365   9.364   2.303   4.157  0.0621  0.3252 -0.0208
  245POPC   C1A 3366   9.068   1.854   4.390  0.1486  0.1944 -0.1063
  245POPC   D2A 3367   8.942   1.479   4.380  0.2792 -0.2598 -0.0385
  245POPC   C3A 3368   8.743   1.558   4.741 -0.0709 -0.0179 -0.1816
  245POPC   C4A 3369   8.526   1.355   5.036 -0.2249  0.3453 -0.0131
  245POPC   C1B 3370   9.446   2.121   4.597 -0.0413  0.1516  0.0401
  245POPC   C2B 3371   9.220   1.822   4.857  0.0972  0.0540  0.0538
  245POPC   C3B 3372   9.118   1.455   5.049  0.1141  0.2827  0.1797
  245POPC   C4B 3373   9.016   1.352   5.376  0.0208 -0.3570 -0.0871
  246POPC   NC3 3374   3.077   1.762   4.511 -0.0322  0.0058 -0.1581
  246POPC   PO4 3375   2.722   1.709   4.889  0.0993  0.2055 -0.1517
  246POPC   GL1 3376   2.787   1.860   5.213  0.3704  0.0257  0.3384
  246POPC   GL2 3377   3.075   2.018   5.207  0.0156 -0.0387  0.0982
  246POPC   C1A 3378   2.877   1.794   5.634  0.0565  0.0746  0.0482
  246POPC   D2A 3379   2.738   1.786   6.118  0.0065  0.3365 -0.0231
  246POPC   C3A 3380   3.036   1.749   6.379  0.1659 -0.0515 -0.0882
  246POPC   C4A 3381   3.481   1.622   6.330 -0.4576 -0.3240  0.0097
  246POPC   C1B 3382   3.354   1.752   5.465 -0.1743  0.1262 -0.0121
  246POPC   C2B 3383   3.141   1.539   5.900 -0.3056 -0.1096  0.0103
  246POPC   C3B 3384   2.881   1.169   5.916 -0.0798 -0.1876  0.0566
  246POPC   C4B 3385   2.714   1.073   6.334  0.0979  0.1401  0.1461
  247POPC   NC3 3386   9.735   2.214   3.778 -0.0166  0.2655 -0.1796
  247POPC   PO4 3387   9.915   2.368   4.183 -0.0110  0.2537  0.2448
  247POPC   GL1 3388   9.773   2.463   4.491 -0.0811  0.1666  0.2652
  247POPC   GL2 3389   9.887   2.308   4.802  0.1059  0.2392 -0.0689
  247POPC   C1A 3390   9.461   2.653   4.752  0.1772  0.1719 -0.0714
  247POPC   D2A 3391   9.162   2.828   5.016  0.2515 -0.0931 -0.2551
  247POPC   C3A 3392   9.158   3.032   5.586  0.0371  0.0849 -0.1495
  247POPC   C4A 3393   8.867   3.214   5.851  0.3442  0.0966  0.0421
  247POPC   C1B 3394  10.114   2.324   5.176  0.0760 -0.2425 -0.1349
  247POPC   C2B 3395   9.981   2.175   5.607  0.0327 -0.2063  0.4123
  247POPC   C3B 3396   9.955   1.821   5.881  0.1453  0.0908  0.0110
  247POPC   C4B 3397   9.914   1.645   6.258  0.0004 -0.1196 -0.1511
  248POPC   NC3 3398   4.930   4.479   4.732 -0.2164 -0.0489 -0.1710
  248POPC   PO4 3399   5.182   4.612   4.414 -0.0040 -0.0326  0.0458
  248POPC   GL1 3400   5.444   4.612   4.876 -0.2510  0.0112 -0.0937
  248POPC   GL2 3401   5.845   4.716   4.937 -0.0417  0.3451  0.1201
  248POPC   C1A 3402   5.509   4.616   5.263  0.0592  0.1645  0.1043
  248POPC   D2A 3403   5.162   4.465   5.516 -0.3323 -0.0711 -0.0562
  248POPC   C3A 3404   5.194   4.345   6.056  0.1829 -0.0038  0.2727
  248POPC   C4A 3405   5.386   4.013   6.329  0.0954  0.1747 -0.1081
  248POPC   C1B 3406   6.016   4.542   5.356 -0.0051  0.0722  0.2652
  248POPC   C2B 3407   6.125   4.658   5.780 -0.0343  0.2468 -0.0568
  248POPC   C3B 3408   6.385   4.548   6.004 -0.0900 -0.2246  0.0756
  248POPC   C4B 3409   6.556   4.500   6.378  0.0376 -0.0479 -0.2494
  249POPC   NC3 3410   2.868   4.366   4.421  0.3171 -0.0965 -0.3154
  249POPC   PO4 3411   3.305   4.579   4.560 -0.0915  0.0230  0.1729
  249POPC   GL1 3412   3.137   4.454   4.942  0.1127  0.0955  0.0314
  249POPC   GL2 3413   2.847   4.526   4.908 -0.1463  0.0717 -0.1095
  249POPC   C1A 3414   3.306   4.176   5.321 -0.3121  0.1397  0.1536
  249POPC   D2A 3415   3.666   4.216   5.630  0.3414  0.2718  0.0646
  249POPC   C3A 3416   3.644   4.051   5.985 -0.2680  0.2366 -0.1215
  249POPC   C4A 3417   3.337   4.032   6.274  0.1095  0.0899 -0.4545
  249POPC   C1B 3418   2.858   4.540   5.378  0.4061  0.0017  0.1465
  249POPC   C2B 3419   2.838   4.730   5.770  0.3540 -0.2345 -0.0254
  249POPC   C3B 3420   2.862   4.469   6.119 -0.0894  0.4164 -0.1960
  249POPC   C4B 3421   2.768   4.162   6.363 -0.1006  0.0244  0.0256
  250POPC   NC3 3422   5.782   3.508   3.784 -0.0466 -0.0233  0.0218
  250POPC   PO4 3423   5.345   3.515   3.972 -0.0372 -0.0439  0.0673
  250POPC   GL1 3424   5.446   3.616   4.359  0.2530  0.2377  0.1194
  250POPC   GL2 3425   5.315   3.500   4.608  0.1373  0.0051 -0.2540
  250POPC   C1A 3426   5.797   3.695   4.711  0.2584 -0.1995  0.0080
  250POPC   D2A 3427   6.106   3.702   5.090  0.3602  0.0796 -0.0127
  250POPC   C3A 3428   6.478   3.623   5.306  0.0533 -0.1807  0.0219
  250POPC   C4A 3429   6.927   3.613   5.156  0.1975 -0.1067 -0.1000
  250POPC   C1B 3430   5.720   3.267   4.573  0.1393  0.1041 -0.3665
  250POPC   C2B 3431   6.015   2.946   4.531 -0.3840 -0.0212 -0.1548
  250POPC   C3B 3432   5.972   2.570   4.694  0.1802 -0.0228  0.0670
  250POPC   C4B 3433   5.911   2.427   5.079  0.0255  0.3538 -0.2491
  251POPC   NC3 3434   3.459   7.240   4.889  0.0028 -0.0511  0.0659
  251POPC   PO4 3435   3.684   7.416   5.152 -0.0507  0.2937  0.3855
  251POPC   GL1 3436   3.557   7.505   5.518 -0.2458 -0.2070 -0.0099
  251POPC   GL2 3437   3.873   7.481   5.601  0.1154  0.0214 -0.1579
  251POPC   C1A 3438   3.312   7.315   5.829 -0.1528  0.0454  0.0083
  251POPC   D2A 3439   2.988   7.197   6.082  0.2039 -0.1300 -0.0199
  251POPC   C3A 3440   2.923   7.501   6.261  0.0381  0.1305 -0.2604
  251POPC   C4A 3441   3.009   7.593   6.703 -0.2220 -0.2370 -0.4213
  251POPC   C1B 3442   3.759   7.472   6.031 -0.0968 -0.1763 -0.0243
  251POPC   C2B 3443   3.490   7.186   6.386 -0.0229 -0.1666 -0.0848
  251POPC   C3B 3444   3.159   7.102   6.586  0.2128 -0.0762  0.2506
  251POPC   C4B 3445   2.956   6.676   6.785 -0.1086 -0.1119 -0.1905
  252POPC   NC3 3446   2.035   2.576   4.408  0.0670 -0.2378 -0.3237
  252POPC   PO4 3447   1.629   2.468   4.688  0.1512  0.0920  0.1571
  252POPC   GL1 3448   1.588   2.295   5.075  0.0902  0.3103 -0.1327
  252POPC   GL2 3449   1.786   2.561   5.189 -0.0020  0.2007  0.0536
  252POPC   C1A 3450   1.287   2.215   5.528  0.0857 -0.0508  0.1881
  252POPC   D2A 3451   1.207   2.406   5.730 -0.1228  0.1728  0.1025
  252POPC   C3A 3452   1.318   2.424   6.161 -0.1742  0.0979 -0.0394
  252POPC   C4A 3453   1.200   2.273   6.555  0.0090  0.0125  0.2095
  252POPC   C1B 3454   1.689   2.549   5.693 -0.1502 -0.2064  0.0155
  252POPC   C2B 3455   1.517   2.832   5.979  0.1974 -0.0224  0.1482
  252POPC   C3B 3456   1.293   2.945   6.367 -0.1147 -0.3055  0.0066
  252POPC   C4B 3457   1.061   3.225   6.491  0.3291  0.0326 -0.1941
  253POPC   NC3 3458   6.182   9.288   4.370  0.0558  0.0664 -0.0429
  253POPC   PO4 3459   6.093   8.895   4.547  0.5267  0.0427 -0.1437
  253POPC   GL1 3460   6.298   8.895   4.941 -0.0931 -0.0523  0.3989
  253POPC   GL2 3461   6.234   8.702   5.296  0.1429  0.0566  0.1446
  253POPC   C1A 3462   6.633   9.154   5.097  0.2471  0.0667  0.1081
  253POPC   D2A 3463   6.720   9.156   5.537 -0.1022 -0.0963  0.1492
  253POPC   C3A 3464   6.691   9.596   5.779  0.2030 -0.4154 -0.0127
  253POPC   C4A 3465   6.982   9.825   6.034  0.1511 -0.0100 -0.0079
  253POPC   C1B 3466   6.423   8.813   5.762 -0.1346 -0.1448  0.0130
  253POPC   C2B 3467   6.567   8.630   6.189 -0.0254  0.1615  0.2164
  253POPC   C3B 3468   6.667   8.440   6.544 -0.0194 -0.0669 -0.0183
  253POPC   C4B 3469   7.039   8.284   6.634 -0.1588  0.0999  0.0493
  254POPC   NC3 3470   5.577   6.010   4.588  0.1072  0.0978 -0.2405
  254POPC   PO4 3471   5.191   5.809   4.520  0.0079 -0.0402 -0.0491
  254POPC   GL1 3472   4.947   5.698   4.842  0.2352  0.2064  0.0212
  254POPC   GL2 3473   5.244   5.649   5.132 -0.3122  0.3069  0.0601
  254POPC   C1A 3474   4.772   5.393   5.248 -0.2351 -0.2221  0.3567
  254POPC   D2A 3475   4.496   5.300   5.572  0.0727  0.0661  0.1035
  254POPC   C3A 3476   4.560   5.672   5.828 -0.1912  0.2441  0.0145
  254POPC   C4A 3477   4.543   5.845   6.236 -0.4479 -0.0344 -0.3836
  254POPC   C1B 3478   5.238   5.606   5.537  0.2056 -0.1160  0.0794
  254POPC   C2B 3479   5.009   5.495   5.928  0.3871 -0.3229 -0.0004
  254POPC   C3B 3480   4.754   5.313   6.260 -0.2602  0.0778 -0.0993
  254POPC   C4B 3481   4.661   5.350   6.734 -0.0228  0.3942 -0.0747
  255POPC   NC3 3482   1.826   7.289   4.569 -0.0735 -0.2267  0.2757
  255POPC   PO4 3483   1.376   7.216   4.714  0.0500  0.1396  0.1324
  255POPC   GL1 3484   1.097   6.975   5.091  0.1281  0.0882  0.0364
  255POPC   GL2 3485   1.035   6.686   5.059 -0.1735 -0.0190 -0.0795
  255POPC   C1A 3486   0.992   7.030   5.516 -0.0429 -0.0384  0.2777
  255POPC   D2A 3487   0.803   7.124   5.893 -0.3258  0.2110 -0.0709
  255POPC   C3A 3488   1.155   7.046   6.077 -0.1842  0.1967  0.2263
  255POPC   C4A 3489   1.464   7.238   6.370  0.0545 -0.0911  0.0424
  255POPC   C1B 3490   0.945   6.533   5.556  0.2509 -0.1781  0.1973
  255POPC   C2B 3491   0.894   6.246   5.780 -0.0099  0.2198 -0.1801
  255POPC   C3B 3492   1.002   6.104   6.191 -0.1685 -0.2068 -0.2295
  255POPC   C4B 3493   1.122   5.611   6.226  0.0413 -0.2373  0.0359
  256POPC   NC3 3494   9.832   7.062   4.096  0.1710 -0.2266  0.1657
  256POPC   PO4 3495   9.916   7.251   4.465 -0.3351  0.0706  0.1694
  256POPC   GL1 3496   9.893   7.591   4.853  0.2375 -0.3075  0.1427
  256POPC   GL2 3497  10.038   7.809   4.809  0.1828 -0.0553 -0.0475
  256POPC   C1A 3498   9.861   7.653   5.331 -0.2550 -0.0513 -0.0901
  256POPC   D2A 3499   9.696   7.907   5.774 -0.1195 -0.0660  0.0263
  256POPC   C3A 3500   9.649   8.415   5.958 -0.2156  0.0273  0.0544
  256POPC   C4A 3501   9.842   8.757   5.939 -0.0057  0.0434 -0.2874
  256POPC   C1B 3502  10.304   7.644   5.208  0.0073  0.1347  0.0629
  256POPC   C2B 3503  10.162   7.925   5.600 -0.0061 -0.1027  0.3660
  256POPC   C3B 3504  10.089   8.128   6.076 -0.1990  0.1854  0.0294
  256POPC   C4B 3505   9.944   8.476   6.401 -0.0836  0.1739 -0.1864
  257POPC   NC3 3506   5.049   0.185   4.694  0.1336  0.1214 -0.0399
  257POPC   PO4 3507   4.916   0.695   4.524  0.1001 -0.4177  0.2370
  257POPC   GL1 3508   5.060   0.769   4.940  0.0401 -0.1458 -0.0381
  257POPC   GL2 3509   5.250   0.654   5.167  0.0026 -0.0979 -0.1939
  257POPC   C1A 3510   4.927   1.163   5.266 -0.0333  0.0749  0.0448
  257POPC   D2A 3511   4.982   1.242   5.613  0.3184  0.1166 -0.3147
  257POPC   C3A 3512   5.379   1.553   5.687 -0.3938  0.1316  0.1001
  257POPC   C4A 3513   5.388   1.960   5.516  0.1241  0.0911  0.0079
  257POPC   C1B 3514   4.960   0.695   5.547 -0.1687 -0.2323  0.0856
  257POPC   C2B 3515   4.959   0.782   5.847  0.1046 -0.1353 -0.2083
  257POPC   C3B 3516   4.907   0.860   6.204  0.1197  0.0870 -0.0352
  257POPC   C4B 3517   4.886   1.171   6.510 -0.0909 -0.2740 -0.1969
  258POPC   NC3 3518   2.449   5.781   4.508 -0.1029  0.1340 -0.1273
  258POPC   PO4 3519   2.098   5.595   4.833  0.0572 -0.0813 -0.0178
  258POPC   GL1 3520   1.994   5.502   5.302 -0.2303 -0.0435  0.2079
  258POPC   GL2 3521   2.340   5.487   5.405  0.4153 -0.0102 -0.2055
  258POPC   C1A 3522   1.929   5.405   5.745  0.0160  0.0321  0.2700
  258POPC   D2A 3523   2.086   5.161   6.006 -0.2554  0.1386  0.0797
  258POPC   C3A 3524   1.903   4.871   6.106  0.1938  0.2296 -0.3816
  258POPC   C4A 3525   1.586   4.551   6.172  0.3239  0.1339  0.2007
  258POPC   C1B 3526   2.346   5.555   5.863 -0.3099  0.2957 -0.0248
  258POPC   C2B 3527   2.320   5.472   6.348  0.0271  0.1593  0.0518
  258POPC   C3B 3528   2.352   5.632   6.796  0.1987  0.1579  0.0085
  258POPC   C4B 3529   2.664   5.681   7.194  0.1750 -0.0024 -0.1166
  259POPC   NC3 3530   2.793   6.061   4.273 -0.1340  0.2317 -0.0003
  259POPC   PO4 3531   3.091   6.281   4.558 -0.0068  0.0802  0.3655
  259POPC   GL1 3532   2.999   6.348   5.042 -0.1376 -0.1416  0.2111
  259POPC   GL2 3533   3.295   6.128   5.033  0.2248  0.0969  0.3059
  259POPC   C1A 3534   2.900   6.592   5.355 -0.2129  0.0039 -0.2925
  259POPC   D2A 3535   2.858   6.434   5.831 -0.0520 -0.3645 -0.2932
  259POPC   C3A 3536   2.829   6.723   6.216 -0.2527  0.4315 -0.2810
  259POPC   C4A 3537   2.592   6.872   6.520  0.1039  0.2287  0.0646
  259POPC   C1B 3538   2.986   5.902   5.300  0.0257  0.1834 -0.1758
  259POPC   C2B 3539   2.548   5.873   5.590 -0.0307 -0.2488 -0.0683
  259POPC   C3B 3540   2.086   5.928   5.528 -0.1710 -0.4198  0.3066
  259POPC   C4B 3541   1.795   6.192   5.622 -0.1590  0.2488 -0.2668
  260POPC   NC3 3542   5.544   3.983   3.885  0.1990  0.1678  0.1471
  260POPC   PO4 3543   5.930   4.156   3.793  0.1340  0.1411 -0.3049
  260POPC   GL1 3544   6.058   4.431   4.235  0.1309  0.3225 -0.1879
  260POPC   GL2 3545   5.954   4.637   4.410 -0.1208 -0.0635  0.0737
  260POPC   C1A 3546   6.072   4.209   4.670  0.0037  0.0229 -0.1819
  260POPC   D2A 3547   5.791   4.075   4.997  0.2457 -0.3727 -0.2856
  260POPC   C3A 3548   5.811   3.964   5.418  0.2350 -0.2257  0.1182
  260POPC   C4A 3549   6.052   3.666   5.569 -0.0383  0.0510 -0.1657
  260POPC   C1B 3550   6.330   4.669   4.761  0.0980 -0.0807 -0.1074
  260POPC   C2B 3551   6.569   4.463   5.126  0.1820 -0.0447 -0.1728
  260POPC   C3B 3552   6.520   4.468   5.563  0.1607  0.1159 -0.2235
  260POPC   C4B 3553   6.738   4.215   5.866  0.1227 -0.1468  0.0026
  261POPC   NC3 3554   0.151   2.864   4.152  0.3367 -0.0592  0.1476
  261POPC   PO4 3555   0.528   2.874   4.371 -0.0971  0.0419 -0.0991
  261POPC   GL1 3556   0.308   2.731   4.765 -0.0986  0.2855  0.0969
  261POPC   GL2 3557   0.616   2.764   4.993 -0.4008 -0.1052 -0.0705
  261POPC   C1A 3558   0.015   2.810   4.924 -0.1456 -0.0436  0.1195
  261POPC   D2A 3559  -0.311   2.557   5.227 -0.0155  0.2100  0.3108
  261POPC   C3A 3560  -0.538   2.559   5.604 -0.0575  0.1456  0.0625
  261POPC   C4A 3561  -0.833   2.710   5.962  0.0761  0.1137 -0.0925
  261POPC   C1B 3562   0.217   2.789   5.347 -0.1165  0.2498  0.1979
  261POPC   C2B 3563  -0.173   2.932   5.660  0.1248  0.0440  0.3144
  261POPC   C3B 3564  -0.426   3.149   5.985  0.3448 -0.0234  0.5142
  261POPC   C4B 3565  -0.687   3.265   6.280  0.0817  0.0155 -0.0221
  262POPC   NC3 3566   3.632   7.359   4.306  0.0616  0.0758  0.0730
  262POPC   PO4 3567   3.689   6.893   4.594  0.0256  0.2312  0.0277
  262POPC   GL1 3568   3.642   6.786   5.099 -0.0250  0.1237  0.1253
  262POPC   GL2 3569   3.356   6.653   5.200 -0.0930  0.2286  0.2365
  262POPC   C1A 3570   3.660   6.846   5.540  0.3627 -0.0973  0.2348
  262POPC   D2A 3571   3.710   6.886   5.998  0.0839  0.1343  0.0012
  262POPC   C3A 3572   3.819   6.699   6.475  0.0386  0.0302 -0.0812
  262POPC   C4A 3573   3.877   6.562   6.859  0.1545 -0.0575 -0.1202
  262POPC   C1B 3574   3.251   6.386   5.519 -0.3581  0.2849 -0.0496
  262POPC   C2B 3575   3.426   6.378   5.896  0.2804  0.0610 -0.1621
  262POPC   C3B 3576   3.061   6.253   6.268  0.0876  0.1252 -0.1957
  262POPC   C4B 3577   2.681   6.305   6.472 -0.1957 -0.0372  0.0060
  263POPC   NC3 3578   9.018   4.917   3.840  0.1472  0.0501  0.0883
  263POPC   PO4 3579   8.871   4.548   3.672  0.0146 -0.0871 -0.1055
  263POPC   GL1 3580   8.952   4.552   4.159 -0.0248  0.1134 -0.0997
  263POPC   GL2 3581   9.104   4.871   4.365  0.0512 -0.0406 -0.0608
  263POPC   C1A 3582   8.622   4.432   4.571  0.0793  0.2683  0.3636
  263POPC   D2A 3583   8.561   4.382   4.976 -0.2147  0.0070  0.1745
  263POPC   C3A 3584   8.418   4.050   5.134 -0.2025 -0.0392 -0.0553
  263POPC   C4A 3585   8.451   3.869   5.461 -0.4349  0.0441 -0.2471
  263POPC   C1B 3586   8.732   4.933   4.643 -0.1748 -0.0425 -0.1706
  263POPC   C2B 3587   8.363   4.890   4.960 -0.1898  0.2887 -0.0016
  263POPC   C3B 3588   7.971   4.913   5.047  0.2991 -0.0957  0.1325
  263POPC   C4B 3589   7.673   5.064   5.243 -0.4120 -0.0456 -0.3402
  264POPC   NC3 3590   5.578   4.950   4.525 -0.0290  0.0643 -0.0692
  264POPC   PO4 3591   5.154   5.167   4.654  0.0131  0.0230 -0.1317
  264POPC   GL1 3592   5.109   4.986   5.073 -0.3574  0.3930 -0.2292
  264POPC   GL2 3593   5.323   5.122   5.252  0.1323  0.1180 -0.4331
  264POPC   C1A 3594   4.804   4.823   5.427 -0.1319 -0.0755  0.3602
  264POPC   D2A 3595   4.812   4.663   5.849 -0.0239  0.2652 -0.2669
  264POPC   C3A 3596   4.685   4.398   6.218  0.0556 -0.1135  0.0679
  264POPC   C4A 3597   4.771   4.225   6.569  0.0494 -0.1941 -0.1297
  264POPC   C1B 3598   5.121   5.066   5.642 -0.1178  0.1327 -0.0540
  264POPC   C2B 3599   5.097   5.031   6.071  0.0695  0.2342 -0.0152
  264POPC   C3B 3600   4.933   4.826   6.385 -0.0868  0.4461 -0.0181
  264POPC   C4B 3601   4.701   4.797   6.653 -0.4290  0.1377  0.2029
  265POPC   NC3 3602   1.400   3.352   4.237  0.1747 -0.1512  0.0814
  265POPC   PO4 3603   1.577   3.498   4.700  0.0844  0.1171 -0.0214
  265POPC   GL1 3604   1.348   3.645   5.045  0.2194 -0.0070  0.2993
  265POPC   GL2 3605   1.174   4.002   5.104  0.1371  0.3316 -0.2381
  265POPC   C1A 3606   1.389   3.431   5.323  0.0784 -0.0219 -0.2510
  265POPC   D2A 3607   1.549   3.406   5.723  0.2803 -0.2428 -0.0030
  265POPC   C3A 3608   1.453   3.341   6.043 -0.0778  0.1119  0.0596
  265POPC   C4A 3609   1.732   3.214   6.333  0.0387  0.1231 -0.0640
  265POPC   C1B 3610   0.924   3.662   5.318 -0.0537 -0.0408 -0.1507
  265POPC   C2B 3611   0.763   3.455   5.593  0.1289  0.3874 -0.1350
  265POPC   C3B 3612   0.554   3.497   5.923 -0.1754  0.3095  0.2302
  265POPC   C4B 3613   0.654   3.195   6.178 -0.1294 -0.0202  0.2691
  266POPC   NC3 3614   3.645   6.423   4.730  0.1561 -0.2851  0.1727
  266POPC   PO4 3615   4.051   6.609   4.828 -0.0116  0.0669  0.2413
  266POPC   GL1 3616   4.131   6.611   5.204  0.2505  0.0735 -0.0532
  266POPC   GL2 3617   4.401   6.823   5.255  0.0373  0.2472  0.1235
  266POPC   C1A 3618   4.016   6.528   5.681 -0.0750  0.3011  0.0306
  266POPC   D2A 3619   4.160   6.644   6.101  0.0323 -0.0152 -0.0870
  266POPC   C3A 3620   4.465   6.471   6.334 -0.0404 -0.0805  0.0221
  266POPC   C4A 3621   4.693   6.542   6.720  0.0501 -0.2225 -0.0471
  266POPC   C1B 3622   4.105   6.983   5.539  0.1418 -0.2085  0.0982
  266POPC   C2B 3623   4.153   7.129   5.962  0.3713  0.0902  0.0217
  266POPC   C3B 3624   3.981   7.139   6.307 -0.1648 -0.1995 -0.4219
  266POPC   C4B 3625   3.842   7.113   6.794  0.1748  0.1287 -0.0322
  267POPC   NC3 3626   6.822   8.114   4.680 -0.1502  0.1856  0.0395
  267POPC   PO4 3627   6.513   8.478   4.716  0.0796  0.2577  0.1201
  267POPC   GL1 3628   6.834   8.691   4.859  0.0846  0.1031 -0.4360
  267POPC   GL2 3629   6.782   8.602   5.199 -0.0836 -0.0734 -0.2412
  267POPC   C1A 3630   7.105   9.028   4.988  0.0077 -0.0629  0.3200
  267POPC   D2A 3631   7.267   9.350   5.194  0.0372  0.0326  0.1053
  267POPC   C3A 3632   7.214   9.376   5.636 -0.1333  0.0194  0.1077
  267POPC   C4A 3633   7.407   9.471   5.934 -0.0315  0.0146  0.2197
  267POPC   C1B 3634   7.063   8.506   5.517 -0.0100  0.0694 -0.1660
  267POPC   C2B 3635   6.912   8.704   5.793 -0.0073  0.1316 -0.0421
  267POPC   C3B 3636   6.961   9.134   5.975  0.1481  0.2554  0.1382
  267POPC   C4B 3637   6.904   9.391   6.332  0.0364  0.0771 -0.1847
  268POPC   NC3 3638   1.900   4.351   4.597 -0.2771  0.0760  0.2663
  268POPC   PO4 3639   2.047   3.963   4.597 -0.2370  0.1928  0.0086
  268POPC   GL1 3640   1.842   3.996   4.989 -0.1733 -0.0721  0.0223
  268POPC   GL2 3641   1.877   3.714   5.093  0.0862 -0.1841  0.2212
  268POPC   C1A 3642   1.560   3.952   5.434 -0.1783 -0.2225  0.0904
  268POPC   D2A 3643   1.513   4.170   5.858  0.1429 -0.0052  0.3939
  268POPC   C3A 3644   1.097   4.128   6.072  0.0303 -0.0470 -0.1120
  268POPC   C4A 3645   0.715   4.306   5.788  0.1842 -0.0953  0.3023
  268POPC   C1B 3646   1.899   3.419   5.393  0.2569 -0.2479  0.0806
  268POPC   C2B 3647   1.808   3.008   5.316 -0.0325 -0.2893 -0.0609
  268POPC   C3B 3648   2.103   2.731   5.517  0.0624  0.1050 -0.0187
  268POPC   C4B 3649   2.387   2.761   5.808  0.0837 -0.0164  0.4974
  269POPC   NC3 3650   6.231   3.780   3.893 -0.1306  0.1748  0.1600
  269POPC   PO4 3651   6.281   3.356   3.670 -0.1537 -0.2450 -0.0600
  269POPC   GL1 3652   6.610   3.312   3.928 -0.2024 -0.0363 -0.0970
  269POPC   GL2 3653   6.676   3.608   4.174  0.1549  0.0473  0.3314
  269POPC   C1A 3654   6.809   2.873   4.159  0.0940  0.2324  0.1153
  269POPC   D2A 3655   7.208   2.541   4.070  0.1865 -0.2712 -0.0622
  269POPC   C3A 3656   7.264   2.355   4.373 -0.0392 -0.3534  0.1535
  269POPC   C4A 3657   7.611   2.138   4.509  0.0262 -0.0334  0.0811
  269POPC   C1B 3658   6.972   3.434   4.410  0.1811 -0.0103 -0.3536
  269POPC   C2B 3659   7.202   3.581   4.729 -0.4015 -0.1876 -0.3776
  269POPC   C3B 3660   7.452   3.890   5.005  0.3508 -0.1206  0.0536
  269POPC   C4B 3661   7.667   3.786   5.310  0.1732 -0.0833 -0.0600
  270POPC   NC3 3662   9.595   0.641   3.445 -0.3181  0.0680 -0.1704
  270POPC   PO4 3663   9.512   0.315   3.692 -0.0189 -0.2484 -0.3154
  270POPC   GL1 3664   9.318   0.386   4.049  0.0490  0.0693  0.0158
  270POPC   GL2 3665   9.374   0.650   4.129  0.1876 -0.1697 -0.2536
  270POPC   C1A 3666   9.049   0.387   4.434 -0.1409 -0.0361 -0.0188
  270POPC   D2A 3667   8.650   0.461   4.614 -0.0115 -0.1732  0.1120
  270POPC   C3A 3668   8.498   0.615   4.981  0.1841 -0.0230 -0.2551
  270POPC   C4A 3669   8.600   0.365   5.389  0.2324 -0.1291  0.1062
  270POPC   C1B 3670   9.364   1.058   4.413 -0.1506 -0.4015  0.0448
  270POPC   C2B 3671   9.498   1.187   4.882 -0.0525  0.1053  0.0233
  270POPC   C3B 3672   9.480   0.959   5.302  0.0824  0.0028 -0.0818
  270POPC   C4B 3673   9.325   1.091   5.785 -0.0473 -0.0229 -0.1303
  271POPC   NC3 3674   8.220   7.027   4.394 -0.4097  0.0143  0.1361
  271POPC   PO4 3675   8.642   7.029   4.276  0.0945 -0.1395  0.1647
  271POPC   GL1 3676   8.569   6.593   4.521  0.0799 -0.2860 -0.1596
  271POPC   GL2 3677   8.502   6.793   4.812 -0.0237  0.0837 -0.0534
  271POPC   C1A 3678   8.891   6.388   4.799 -0.1064 -0.1707  0.0696
  271POPC   D2A 3679   9.025   6.433   5.325  0.0258 -0.0006  0.3101
  271POPC   C3A 3680   8.782   6.262   5.672  0.0409 -0.5216 -0.1604
  271POPC   C4A 3681   8.526   6.229   5.993  0.2263 -0.1934  0.1515
  271POPC   C1B 3682   8.504   6.463   5.220  0.2796 -0.0104 -0.0261
  271POPC   C2B 3683   8.306   6.177   5.432  0.0921  0.0197 -0.1192
  271POPC   C3B 3684   8.189   5.894   5.205 -0.1842 -0.1547 -0.0447
  271POPC   C4B 3685   7.749   5.940   5.189 -0.1321  0.2812  0.3697
  272POPC   NC3 3686   4.124   3.074   4.270 -0.3733 -0.3724 -0.3798
  272POPC   PO4 3687   4.399   3.391   4.514 -0.1192  0.2515  0.2027
  272POPC   GL1 3688   4.411   3.335   4.989  0.3797  0.0347  0.0438
  272POPC   GL2 3689   4.674   3.184   5.223  0.0934 -0.0691 -0.0247
  272POPC   C1A 3690   4.317   3.457   5.440  0.0815 -0.0097  0.2492
  272POPC   D2A 3691   4.449   3.621   5.835 -0.0841 -0.1045  0.0089
  272POPC   C3A 3692   4.752   3.502   6.064  0.0743 -0.1145 -0.2206
  272POPC   C4A 3693   5.201   3.402   6.132  0.0529  0.0653 -0.3913
  272POPC   C1B 3694   4.601   3.127   5.658  0.0252  0.1905 -0.0169
  272POPC   C2B 3695   4.863   3.033   5.963  0.1691  0.3220 -0.1134
  272POPC   C3B 3696   5.139   2.625   6.294 -0.4013  0.0974  0.4212
  272POPC   C4B 3697   5.341   2.647   6.710 -0.1739  0.3286 -0.3145
  273POPC   NC3 3698   3.971   7.817   5.156  0.1619  0.1681  0.2192
  273POPC   PO4 3699   3.674   8.035   4.882 -0.1227 -0.1521 -0.1508
  273POPC   GL1 3700   3.602   8.076   5.389  0.1220  0.3314 -0.0569
  273POPC   GL2 3701   3.272   8.057   5.530 -0.0231 -0.3786 -0.2543
  273POPC   C1A 3702   3.879   7.994   5.735  0.0375  0.0285 -0.0200
  273POPC   D2A 3703   3.926   8.144   6.193  0.2928 -0.1988  0.2057
  273POPC   C3A 3704   3.486   8.162   6.490 -0.0475 -0.0161 -0.1086
  273POPC   C4A 3705   3.478   7.906   6.914 -0.0356 -0.1659 -0.1342
  273POPC   C1B 3706   3.414   8.299   5.763 -0.0910  0.0638 -0.4398
  273POPC   C2B 3707   3.425   8.469   6.143 -0.1092 -0.1389 -0.1524
  273POPC   C3B 3708   3.238   8.594   6.494 -0.1562  0.0985 -0.0572
  273POPC   C4B 3709   3.406   8.463   6.867 -0.1738  0.2305  0.1187
  274POPC   NC3 3710   7.154   1.456   2.619  0.0096 -0.1142  0.3939
  274POPC   PO4 3711   6.850   1.608   2.885 -0.0132 -0.2637 -0.0709
  274POPC   GL1 3712   6.694   1.554   3.252  0.1826 -0.2031 -0.2469
  274POPC   GL2 3713   6.766   1.164   3.396  0.0188 -0.2513 -0.1734
  274POPC   C1A 3714   6.795   1.655   3.604 -0.0410  0.0558 -0.1557
  274POPC   D2A 3715   6.948   2.049   3.997  0.2068 -0.2322  0.4158
  274POPC   C3A 3716   6.926   1.981   4.387 -0.1789  0.1121  0.0614
  274POPC   C4A 3717   6.964   1.688   4.685 -0.0538  0.1256 -0.2302
  274POPC   C1B 3718   7.044   1.097   3.672 -0.0005 -0.1058 -0.3755
  274POPC   C2B 3719   7.379   1.224   3.965 -0.0082  0.1176  0.2816
  274POPC   C3B 3720   7.681   1.438   4.052  0.0470  0.1131  0.2395
  274POPC   C4B 3721   7.939   1.762   4.064  0.3629 -0.0142 -0.0734
  275POPC   NC3 3722   9.231   2.420   3.576  0.5042  0.1826  0.0348
  275POPC   PO4 3723   8.929   2.013   3.561 -0.0777  0.0236  0.1437
  275POPC   GL1 3724   8.668   2.223   3.739 -0.1767 -0.1938 -0.0101
  275POPC   GL2 3725   8.891   2.422   4.113  0.3308 -0.3105 -0.2471
  275POPC   C1A 3726   8.295   2.237   4.027 -0.2178 -0.2560  0.2315
  275POPC   D2A 3727   8.107   2.182   4.467  0.0266  0.3072 -0.0749
  275POPC   C3A 3728   7.946   2.099   4.909  0.0850  0.0733  0.1678
  275POPC   C4A 3729   7.827   1.977   5.299  0.2183  0.2027 -0.0344
  275POPC   C1B 3730   8.588   2.396   4.422  0.0049  0.0753  0.1888
  275POPC   C2B 3731   8.293   2.686   4.626  0.0732  0.1876 -0.0021
  275POPC   C3B 3732   7.990   2.704   5.000  0.1180 -0.0497 -0.0727
  275POPC   C4B 3733   7.700   2.844   5.167  0.0405  0.2477  0.0447
  276POPC   NC3 3734   3.398   0.467   4.391 -0.0086 -0.2340  0.1631
  276POPC   PO4 3735   3.363   0.462   4.883 -0.1408  0.0008 -0.0250
  276POPC   GL1 3736   3.750   0.614   5.212 -0.1654  0.2747  0.1763
  276POPC   GL2 3737   3.721   0.333   5.367 -0.0654 -0.2892  0.0833
  276POPC   C1A 3738   4.023   0.675   5.589 -0.0372 -0.2021 -0.2957
  276POPC   D2A 3739   4.415   0.897   5.595  0.2683  0.0139 -0.0949
  276POPC   C3A 3740   4.553   1.177   5.874  0.1504 -0.1963  0.0441
  276POPC   C4A 3741   4.855   1.382   6.020 -0.1660  0.0654  0.0607
  276POPC   C1B 3742   3.480   0.515   5.777 -0.2759 -0.1287  0.1222
  276POPC   C2B 3743   3.182   0.660   6.101  0.0870 -0.2019  0.0411
  276POPC   C3B 3744   2.791   0.557   6.347  0.0644  0.2803  0.5068
  276POPC   C4B 3745   2.355   0.413   6.546 -0.3993  0.0388 -0.2948
  277POPC   NC3 3746   8.266   7.900   4.193 -0.1222 -0.0531  0.1195
  277POPC   PO4 3747   8.041   7.507   4.393 -0.1738 -0.2141 -0.0055
  277POPC   GL1 3748   7.966   7.491   4.907 -0.0263 -0.1320  0.1358
  277POPC   GL2 3749   7.795   7.798   5.037  0.1154 -0.2606  0.3123
  277POPC   C1A 3750   7.954   7.350   5.418  0.2587  0.1280  0.0619
  277POPC   D2A 3751   8.165   7.099   5.733  0.1377 -0.3145  0.2044
  277POPC   C3A 3752   8.596   7.174   5.858 -0.1460  0.0763 -0.0943
  277POPC   C4A 3753   8.980   7.308   6.128  0.1338  0.3297  0.3110
  277POPC   C1B 3754   7.875   7.925   5.473  0.1384  0.3052  0.0579
  277POPC   C2B 3755   7.746   7.936   5.862  0.1936 -0.2811  0.2091
  277POPC   C3B 3756   7.877   8.034   6.288  0.1507  0.0260  0.1999
  277POPC   C4B 3757   8.073   8.036   6.648 -0.1876 -0.2529 -0.3272
  278POPC   NC3 3758   2.256   5.129   5.103  0.2076 -0.0810 -0.1471
  278POPC   PO4 3759   2.287   4.756   4.859 -0.2499 -0.1584 -0.2069
  278POPC   GL1 3760   2.032   4.677   5.148 -0.1216  0.2663 -0.0579
  278POPC   GL2 3761   2.290   4.729   5.420 -0.1424  0.0113  0.0685
  278POPC   C1A 3762   1.962   4.276   5.341  0.1777 -0.2683  0.2039
  278POPC   D2A 3763   1.998   3.854   5.604  0.0271 -0.1733  0.3849
  278POPC   C3A 3764   1.836   3.759   5.928 -0.0478  0.0879  0.3416
  278POPC   C4A 3765   1.701   3.721   6.279  0.2705  0.2372  0.2990
  278POPC   C1B 3766   2.367   4.704   5.864  0.1667  0.0292  0.1652
  278POPC   C2B 3767   2.312   4.534   6.228 -0.0349 -0.1692 -0.4445
  278POPC   C3B 3768   2.254   4.347   6.468  0.1156  0.0077  0.1307
  278POPC   C4B 3769   2.172   4.198   6.820  0.3149 -0.0633 -0.0330
  279POPC   NC3 3770   2.123   0.912   4.475  0.0095  0.2085 -0.0433
  279POPC   PO4 3771   2.420   1.227   4.701  0.1976  0.0008  0.1712
  279POPC   GL1 3772   2.318   1.380   5.118  0.0121  0.2520  0.1145
  279POPC   GL2 3773   2.586   1.443   5.460  0.3366 -0.3586 -0.1626
  279POPC   C1A 3774   2.113   1.520   5.512  0.1130  0.2720  0.0698
  279POPC   D2A 3775   2.029   1.771   5.883  0.0189  0.0700 -0.2229
  279POPC   C3A 3776   2.262   1.822   6.255 -0.0980 -0.0605 -0.0350
  279POPC   C4A 3777   2.655   2.087   6.483  0.0199 -0.0271 -0.2545
  279POPC   C1B 3778   2.423   1.392   5.949 -0.4129  0.1942 -0.4865
  279POPC   C2B 3779   2.260   1.339   6.332  0.0820  0.0120 -0.0356
  279POPC   C3B 3780   2.197   1.155   6.709  0.0582  0.2590 -0.1620
  279POPC   C4B 3781   2.547   0.849   6.738  0.0294  0.5368  0.0852
  280POPC   NC3 3782   1.331   9.539   4.601  0.3183 -0.0609  0.0157
  280POPC   PO4 3783   1.070   9.745   4.960 -0.3110 -0.0651  0.1215
  280POPC   GL1 3784   0.854  10.025   5.307  0.2240  0.2085  0.0265
  280POPC   GL2 3785   0.533  10.195   5.223  0.1908 -0.2827 -0.1222
  280POPC   C1A 3786   0.741   9.956   5.755  0.0202  0.1301 -0.0924
  280POPC   D2A 3787   0.623   9.866   6.206  0.1237 -0.0643  0.4165
  280POPC   C3A 3788   0.493  10.203   6.445  0.0938 -0.1615 -0.1500
  280POPC   C4A 3789   0.626  10.511   6.793 -0.1659  0.2311 -0.0854
  280POPC   C1B 3790   0.417  10.438   5.465 -0.0703  0.0121  0.1658
  280POPC   C2B 3791   0.023  10.602   5.561  0.2336  0.0064  0.0885
  280POPC   C3B 3792  -0.244  10.642   5.930  0.2072 -0.0692  0.1765
  280POPC   C4B 3793  -0.557  10.436   6.040 -0.1233 -0.1543 -0.0022
  281POPC   NC3 3794   8.430   3.635   3.360 -0.0033 -0.1666 -0.1378
  281POPC   PO4 3795   8.375   3.155   3.258  0.1010  0.2102 -0.1435
  281POPC   GL1 3796   8.418   3.126   3.670  0.0537 -0.3565 -0.3405
  281POPC   GL2 3797   8.442   3.461   3.819  0.1573 -0.3026  0.0019
  281POPC   C1A 3798   8.276   3.176   4.181 -0.1045 -0.0455 -0.1853
  281POPC   D2A 3799   8.048   3.077   4.603 -0.3234 -0.1717 -0.2152
  281POPC   C3A 3800   8.113   3.232   5.007 -0.1403  0.0090 -0.1201
  281POPC   C4A 3801   8.079   3.555   5.325 -0.2781 -0.2188  0.0065
  281POPC   C1B 3802   8.004   3.713   4.076 -0.1861 -0.1646  0.1953
  281POPC   C2B 3803   7.922   3.645   4.533  0.3350 -0.1167  0.0351
  281POPC   C3B 3804   7.680   3.516   4.868  0.0433 -0.0274 -0.0366
  281POPC   C4B 3805   7.593   3.303   5.175  0.1316  0.3306  0.0179
  282POPC   NC3 3806   0.809   0.228   4.653 -0.0011  0.1297  0.1231
  282POPC   PO4 3807   0.926   0.544   4.401 -0.3192 -0.0884 -0.1070
  282POPC   GL1 3808   0.942   0.684   4.841  0.1051  0.1611 -0.0965
  282POPC   GL2 3809   0.547   0.626   4.760  0.1696  0.2214 -0.6142
  282POPC   C1A 3810   0.943   0.570   5.247 -0.1544 -0.1202 -0.0504
  282POPC   D2A 3811   0.895   0.540   5.676 -0.2689 -0.0448 -0.1288
  282POPC   C3A 3812   0.453   0.443   5.935 -0.2202 -0.3062 -0.0812
  282POPC   C4A 3813   0.208   0.618   6.165 -0.0681 -0.2589 -0.3742
  282POPC   C1B 3814   0.542   0.872   5.124 -0.3810 -0.0175  0.0699
  282POPC   C2B 3815   0.532   1.033   5.625 -0.1534  0.0492 -0.0689
  282POPC   C3B 3816   0.489   1.043   6.011  0.3010 -0.1103  0.3841
  282POPC   C4B 3817   0.796   1.190   6.316  0.0911 -0.2167 -0.1566
  283POPC   NC3 3818   0.147   5.229   4.235  0.0838 -0.0297 -0.1000
  283POPC   PO4 3819  -0.293   5.110   4.458 -0.0790 -0.0722  0.3330
  283POPC   GL1 3820  -0.358   4.850   4.769  0.0911  0.1411 -0.2174
  283POPC   GL2 3821  -0.552   5.090   4.935  0.1257 -0.1457 -0.1003
  283POPC   C1A 3822  -0.285   4.562   5.150  0.1417  0.4192 -0.3139
  283POPC   D2A 3823  -0.087   4.635   5.561 -0.1059 -0.1683  0.1276
  283POPC   C3A 3824   0.139   4.394   5.842  0.2031  0.0545 -0.2596
  283POPC   C4A 3825   0.074   4.549   6.232 -0.1482  0.2247 -0.3622
  283POPC   C1B 3826  -0.465   4.986   5.362 -0.4903 -0.1202  0.0429
  283POPC   C2B 3827  -0.575   4.588   5.575  0.4129 -0.0065  0.0302
  283POPC   C3B 3828  -0.935   4.453   5.837 -0.0935  0.0504  0.0110
  283POPC   C4B 3829  -1.193   4.146   5.827  0.0537  0.2854 -0.1174
  284POPC   NC3 3830   9.542   7.925   4.690  0.2248  0.0063 -0.3118
  284POPC   PO4 3831   9.992   8.248   4.616 -0.0397  0.0245  0.2279
  284POPC   GL1 3832   9.805   8.129   5.094 -0.0734  0.1123 -0.0929
  284POPC   GL2 3833   9.503   8.121   5.340 -0.1622 -0.0896 -0.2932
  284POPC   C1A 3834   9.956   8.377   5.454  0.3448 -0.0097  0.1798
  284POPC   D2A 3835  10.235   8.734   5.435 -0.1195  0.1906  0.2816
  284POPC   C3A 3836   9.785   9.047   5.500  0.3202  0.2810 -0.2321
  284POPC   C4A 3837   9.442   9.154   5.767  0.1851  0.2163  0.2546
  284POPC   C1B 3838   9.231   7.829   5.549  0.0666  0.0053  0.0385
  284POPC   C2B 3839   9.037   7.363   5.630  0.3692  0.0158  0.0539
  284POPC   C3B 3840   8.759   6.877   5.426 -0.0430  0.4291  0.2501
  284POPC   C4B 3841   8.437   6.686   5.699  0.0239  0.0390  0.1582
  285POPC   NC3 3842   7.808   3.725   3.105  0.2274  0.2937  0.3155
  285POPC   PO4 3843   8.090   4.000   3.044 -0.5313  0.4697 -0.2430
  285POPC   GL1 3844   8.095   3.940   3.477 -0.0463 -0.0338  0.4108
  285POPC   GL2 3845   7.917   3.654   3.564  0.2895 -0.2994  0.0369
  285POPC   C1A 3846   8.024   4.185   3.833  0.2116  0.0598  0.1288
  285POPC   D2A 3847   8.106   4.168   4.292  0.3383  0.4967 -0.1938
  285POPC   C3A 3848   8.272   4.011   4.513  0.3163 -0.1068 -0.1012
  285POPC   C4A 3849   8.397   3.664   4.737 -0.3105  0.1688 -0.2351
  285POPC   C1B 3850   7.910   3.195   3.845 -0.0348 -0.1498  0.3450
  285POPC   C2B 3851   7.957   2.731   3.689 -0.3754  0.0978 -0.3552
  285POPC   C3B 3852   8.026   2.245   3.624  0.3841  0.3750  0.0124
  285POPC   C4B 3853   8.241   1.866   3.685 -0.1194  0.1663  0.3747
  286POPC   NC3 3854   4.024   7.121   4.947 -0.0013 -0.2275 -0.1127
  286POPC   PO4 3855   4.379   7.312   4.787 -0.0138 -0.2071  0.2611
  286POPC   GL1 3856   4.636   7.219   5.110 -0.4146  0.0532  0.1016
  286POPC   GL2 3857   4.963   7.436   5.241 -0.2296 -0.0708  0.2805
  286POPC   C1A 3858   4.566   7.202   5.570 -0.2219  0.0249  0.0409
  286POPC   D2A 3859   4.650   7.406   5.986 -0.0175  0.1923  0.1995
  286POPC   C3A 3860   4.731   7.836   6.110  0.0455 -0.0300 -0.0320
  286POPC   C4A 3861   4.648   7.883   6.492 -0.1553 -0.2669 -0.1173
  286POPC   C1B 3862   5.047   7.036   5.404 -0.3592 -0.0054  0.3451
  286POPC   C2B 3863   5.308   6.785   5.686  0.0599  0.0657  0.0327
  286POPC   C3B 3864   5.434   6.422   5.817 -0.1059 -0.2656  0.0154
  286POPC   C4B 3865   5.837   6.188   5.956  0.0094  0.1929  0.0689
  287POPC   NC3 3866   1.162   1.056   4.573 -0.1246 -0.3610 -0.0246
  287POPC   PO4 3867   1.395   1.486   4.650  0.1699 -0.0286 -0.3657
  287POPC   GL1 3868   1.218   1.437   5.063  0.2703 -0.0093  0.0039
  287POPC   GL2 3869   0.973   1.307   5.035 -0.1873 -0.2033 -0.2522
  287POPC   C1A 3870   1.071   1.730   5.343  0.1831 -0.0796 -0.0579
  287POPC   D2A 3871   1.002   1.946   5.761 -0.2178 -0.2600 -0.1611
  287POPC   C3A 3872   0.750   2.028   6.108  0.2561  0.3160  0.2170
  287POPC   C4A 3873   0.298   2.173   6.112 -0.2974  0.2099  0.1320
  287POPC   C1B 3874   0.651   1.436   5.319  0.1213  0.4577 -0.3479
  287POPC   C2B 3875   0.100   1.678   5.377  0.0040  0.0126 -0.1056
  287POPC   C3B 3876  -0.321   1.564   5.337  0.1440 -0.1457  0.0968
  287POPC   C4B 3877  -0.736   1.853   5.392  0.0946 -0.2053  0.1977
  288POPC   NC3 3878   4.921   3.669   4.345 -0.1617 -0.0959  0.1729
  288POPC   PO4 3879   5.105   4.074   4.380  0.2419  0.0269  0.0693
  288POPC   GL1 3880   5.201   3.977   4.751  0.0350 -0.0874 -0.3327
  288POPC   GL2 3881   5.310   4.138   5.092  0.0685 -0.1196 -0.0903
  288POPC   C1A 3882   5.370   3.667   5.103 -0.1819 -0.0946 -0.1057
  288POPC   D2A 3883   5.515   3.603   5.558 -0.0513  0.2282 -0.0083
  288POPC   C3A 3884   5.663   3.982   5.863  0.1281  0.1270 -0.0053
  288POPC   C4A 3885   5.662   4.414   5.698  0.0345  0.1895 -0.1894
  288POPC   C1B 3886   5.325   3.997   5.486  0.0434 -0.0551  0.1527
  288POPC   C2B 3887   5.133   3.825   5.901 -0.0422  0.0737  0.2715
  288POPC   C3B 3888   4.939   3.911   6.233 -0.0474  0.4639  0.1483
  288POPC   C4B 3889   4.510   3.838   6.357  0.2171  0.4755  0.0126
  289POPC   NC3 3890   1.571   5.092   4.210 -0.1516 -0.0787  0.0641
  289POPC   PO4 3891   1.620   4.799   4.614 -0.0285 -0.1579 -0.2219
  289POPC   GL1 3892   1.547   4.922   4.982  0.4214  0.1552  0.1300
  289POPC   GL2 3893   1.756   5.135   5.079 -0.0189 -0.1279  0.1155
  289POPC   C1A 3894   1.320   4.932   5.377 -0.0555  0.1932  0.1962
  289POPC   D2A 3895   1.351   4.817   5.722  0.0223 -0.2665 -0.0894
  289POPC   C3A 3896   1.059   4.619   6.008 -0.0899 -0.1570 -0.0470
  289POPC   C4A 3897   0.678   4.402   6.280  0.0692  0.0547 -0.1739
  289POPC   C1B 3898   1.837   4.971   5.501 -0.2273  0.1178  0.3680
  289POPC   C2B 3899   1.816   4.651   5.661 -0.2060 -0.1171  0.0570
  289POPC   C3B 3900   1.994   4.435   5.871 -0.0332  0.1849 -0.0952
  289POPC   C4B 3901   1.825   4.184   6.299 -0.1977 -0.1558 -0.0160
  290POPC   NC3 3902   3.108   5.357   4.920 -0.2482 -0.2348  0.1599
  290POPC   PO4 3903   3.004   5.000   4.688  0.0675 -0.2364  0.1236
  290POPC   GL1 3904   3.300   4.898   5.076 -0.3361 -0.0461  0.1647
  290POPC   GL2 3905   3.184   4.975   5.355 -0.2625 -0.0195 -0.2563
  290POPC   C1A 3906   3.664   4.554   5.189  0.3764  0.0545  0.1006
  290POPC   D2A 3907   4.045   4.392   5.377  0.1648  0.0841 -0.4045
  290POPC   C3A 3908   4.306   4.553   5.769  0.0301 -0.1023 -0.1287
  290POPC   C4A 3909   4.462   4.965   6.004  0.1254  0.3218 -0.1264
  290POPC   C1B 3910   3.231   5.021   5.782  0.3077  0.1695  0.2904
  290POPC   C2B 3911   3.194   4.961   6.194 -0.3225  0.0188 -0.0707
  290POPC   C3B 3912   3.105   5.016   6.568  0.0986 -0.3589  0.0459
  290POPC   C4B 3913   3.396   5.053   6.928  0.0727  0.0542  0.0593
  291POPC   NC3 3914   5.590   9.267   4.818  0.4586 -0.1743  0.0979
  291POPC   PO4 3915   5.369   9.680   4.783  0.2258 -0.1755 -0.0293
  291POPC   GL1 3916   5.287   9.401   5.218  0.0727 -0.1152  0.1240
  291POPC   GL2 3917   5.107   9.619   5.248  0.3087  0.1641  0.4730
  291POPC   C1A 3918   4.909   9.188   5.526 -0.1125  0.0707 -0.0207
  291POPC   D2A 3919   4.817   9.155   5.932  0.0729 -0.1296  0.2332
  291POPC   C3A 3920   4.921   9.266   6.289 -0.1855 -0.0585  0.2187
  291POPC   C4A 3921   5.180   9.611   6.660  0.0958 -0.1611  0.2003
  291POPC   C1B 3922   5.251   9.643   5.656  0.3409 -0.4083 -0.0206
  291POPC   C2B 3923   5.324   9.415   5.978  0.0553 -0.1632  0.1679
  291POPC   C3B 3924   5.391   9.350   6.360 -0.1088  0.1641 -0.0436
  291POPC   C4B 3925   5.634   9.758   6.602  0.1947 -0.1451 -0.1892
  292POPC   NC3 3926   1.144   5.846   4.620  0.1343  0.0474 -0.1369
  292POPC   PO4 3927   1.564   5.915   4.635  0.1267  0.1767 -0.2784
  292POPC   GL1 3928   1.534   5.667   5.075  0.0838  0.2470  0.1234
  292POPC   GL2 3929   1.286   5.810   5.186 -0.0014  0.2266  0.3201
  292POPC   C1A 3930   1.521   5.412   5.416 -0.0081  0.0356  0.2155
  292POPC   D2A 3931   1.469   5.249   5.869 -0.0188  0.1844 -0.1379
  292POPC   C3A 3932   1.630   5.408   6.256 -0.0144 -0.0712  0.2495
  292POPC   C4A 3933   1.385   5.599   6.685 -0.0305  0.2065  0.1142
  292POPC   C1B 3934   1.353   6.117   5.532  0.1151 -0.1057 -0.1487
  292POPC   C2B 3935   1.338   6.398   5.919 -0.1812  0.2744  0.2304
  292POPC   C3B 3936   1.237   6.518   6.422 -0.2341  0.2719  0.0902
  292POPC   C4B 3937   1.283   6.512   6.800  0.2737  0.0484 -0.2399
  293POPC   NC3 3938   2.617   2.202   4.975  0.0057 -0.0679  0.2211
  293POPC   PO4 3939   3.078   2.303   4.753  0.3219 -0.1839  0.0207
  293POPC   GL1 3940   3.314   2.639   5.084  0.0927 -0.0742  0.0057
  293POPC   GL2 3941   3.128   2.935   5.087  0.1371  0.2306 -0.0764
  293POPC   C1A 3942   3.454   2.835   5.543  0.2413  0.1362 -0.0036
  293POPC   D2A 3943   3.723   2.854   5.867  0.1402  0.1126  0.0919
  293POPC   C3A 3944   3.587   2.663   6.310  0.1005  0.0480 -0.1205
  293POPC   C4A 3945   3.746   2.314   6.565  0.1178  0.0277 -0.0693
  293POPC   C1B 3946   3.240   3.282   5.412  0.1405  0.3164 -0.3638
  293POPC   C2B 3947   3.328   3.219   5.878 -0.0873 -0.0745 -0.1072
  293POPC   C3B 3948   3.228   3.238   6.341  0.1684  0.0944  0.1376
  293POPC   C4B 3949   3.383   3.583   6.635 -0.0004 -0.0950  0.0351
  294POPC   NC3 3950   8.641   8.308   4.902  0.0702  0.1027  0.0887
  294POPC   PO4 3951   9.147   8.178   4.950  0.1734 -0.3536  0.1424
  294POPC   GL1 3952   8.958   8.332   5.370  0.0582  0.3378  0.3506
  294POPC   GL2 3953   8.770   8.601   5.400 -0.0826  0.0433 -0.0625
  294POPC   C1A 3954   8.748   8.392   5.849 -0.1340 -0.2818  0.2130
  294POPC   D2A 3955   8.755   8.691   6.121 -0.0665  0.1855  0.2382
  294POPC   C3A 3956   8.948   9.061   6.303 -0.0701  0.2583  0.0879
  294POPC   C4A 3957   9.189   9.408   6.210  0.2556 -0.0641  0.2610
  294POPC   C1B 3958   8.675   9.101   5.348 -0.1522  0.0121  0.1793
  294POPC   C2B 3959   8.949   9.533   5.430 -0.3407 -0.1005 -0.3122
  294POPC   C3B 3960   8.785   9.826   5.589  0.1876 -0.3671 -0.1371
  294POPC   C4B 3961   8.735  10.151   5.853  0.0954 -0.3306 -0.0704
  295POPC   NC3 3962   0.655   4.511   4.439 -0.4484  0.1898  0.0347
  295POPC   PO4 3963   1.088   4.806   4.603 -0.0077  0.0293  0.2144
  295POPC   GL1 3964   1.159   4.629   4.977 -0.0362 -0.1089 -0.0350
  295POPC   GL2 3965   0.911   4.516   5.134  0.2570  0.1009  0.1903
  295POPC   C1A 3966   1.329   4.415   5.419  0.1519  0.0065 -0.0390
  295POPC   D2A 3967   1.105   4.060   5.576  0.0089  0.0122  0.1714
  295POPC   C3A 3968   1.198   3.733   5.796  0.3714 -0.1105 -0.4188
  295POPC   C4A 3969   1.008   3.529   6.076 -0.0067  0.2859 -0.0039
  295POPC   C1B 3970   0.870   4.837   5.492  0.0654 -0.2385  0.1682
  295POPC   C2B 3971   0.932   5.116   5.870 -0.2200  0.2681 -0.0563
  295POPC   C3B 3972   0.750   5.331   6.238  0.4079 -0.2380  0.3944
  295POPC   C4B 3973   0.749   5.541   6.626  0.1384 -0.1416 -0.0407
  296POPC   NC3 3974   1.142   8.837   4.555 -0.0279  0.3789  0.2310
  296POPC   PO4 3975   1.330   9.126   4.256  0.0326 -0.3365 -0.1702
  296POPC   GL1 3976   1.578   9.076   4.712 -0.2202 -0.1735  0.1873
  296POPC   GL2 3977   1.400   9.208   4.977 -0.0579 -0.1187  0.0159
  296POPC   C1A 3978   1.928   9.035   5.025  0.0596  0.0929 -0.2697
  296POPC   D2A 3979   2.257   8.830   5.113  0.1174  0.0460 -0.0778
  296POPC   C3A 3980   2.237   8.691   5.494 -0.1096 -0.0957  0.1100
  296POPC   C4A 3981   2.418   8.601   5.903 -0.0471 -0.1239  0.3819
  296POPC   C1B 3982   1.315   9.153   5.444 -0.0440 -0.0620  0.3689
  296POPC   C2B 3983   0.984   9.283   5.700 -0.0394 -0.2456 -0.0893
  296POPC   C3B 3984   0.729   9.419   6.012  0.1501  0.2299  0.2197
  296POPC   C4B 3985   0.649   9.290   6.384 -0.0006 -0.2338  0.3504
  297POPC   NC3 3986   3.467   3.851   4.026  0.0099  0.0516 -0.1998
  297POPC   PO4 3987   3.494   3.502   4.337 -0.2122 -0.0043 -0.1193
  297POPC   GL1 3988   3.510   3.756   4.725 -0.1195 -0.0262 -0.1423
  297POPC   GL2 3989   3.454   4.063   4.816 -0.0398 -0.0083 -0.0076
  297POPC   C1A 3990   3.468   3.674   5.239 -0.1248 -0.1798  0.1579
  297POPC   D2A 3991   3.448   3.734   5.611 -0.2884 -0.3390  0.2447
  297POPC   C3A 3992   3.196   4.063   5.795  0.0289 -0.0012 -0.1272
  297POPC   C4A 3993   3.274   4.475   5.726 -0.0591  0.1684  0.0742
  297POPC   C1B 3994   3.837   4.025   5.041  0.0435  0.0532 -0.2253
  297POPC   C2B 3995   3.969   3.860   5.394 -0.1832 -0.2104 -0.1545
  297POPC   C3B 3996   3.993   3.637   5.799  0.0449  0.1938 -0.4273
  297POPC   C4B 3997   4.178   3.525   6.200 -0.1699  0.1177 -0.2518
  298POPC   NC3 3998   3.534   9.473   4.962  0.3529 -0.0511 -0.2202
  298POPC   PO4 3999   3.524   9.100   4.741  0.0608 -0.1543  0.0562
  298POPC   GL1 4000   3.523   9.012   5.139  0.1799 -0.2453  0.0002
  298POPC   GL2 4001   3.607   8.728   5.204  0.0809 -0.0476 -0.0569
  298POPC   C1A 4002   3.475   9.048   5.557 -0.1652  0.0206  0.1005
  298POPC   D2A 4003   3.384   8.840   5.854  0.0707  0.1846  0.1322
  298POPC   C3A 4004   3.579   8.887   6.201  0.3974 -0.0834  0.0769
  298POPC   C4A 4005   3.807   9.174   6.387 -0.1171 -0.3356  0.1323
  298POPC   C1B 4006   3.874   8.671   5.512  0.0199  0.0910  0.1705
  298POPC   C2B 4007   3.912   8.599   5.856 -0.1152 -0.3271  0.0534
  298POPC   C3B 4008   4.154   8.782   6.177 -0.2331 -0.0450 -0.0759
  298POPC   C4B 4009   4.564   8.903   6.301 -0.1075  0.1135 -0.1011
  299POPC   NC3 4010   9.710   5.918   4.040  0.0974  0.2711  0.0131
  299POPC   PO4 4011   9.618   5.504   4.142  0.0441  0.0953  0.3364
  299POPC   GL1 4012   9.490   5.586   4.637 -0.0311  0.3004  0.0904
  299POPC   GL2 4013   9.710   5.471   4.830 -0.0948  0.0615  0.1225
  299POPC   C1A 4014   9.202   5.558   4.987 -0.2142 -0.0177 -0.0546
  299POPC   D2A 4015   8.952   5.202   5.303 -0.1141 -0.0622 -0.0357
  299POPC   C3A 4016   9.096   5.138   5.708 -0.3467  0.4123 -0.1657
  299POPC   C4A 4017   9.071   5.051   6.155  0.0291 -0.3043 -0.4329
  299POPC   C1B 4018   9.667   5.622   5.174 -0.0476  0.3065 -0.1231
  299POPC   C2B 4019   9.333   5.583   5.505  0.0871 -0.0472  0.0608
  299POPC   C3B 4020   9.190   5.618   5.957  0.0905 -0.0848  0.3913
  299POPC   C4B 4021   9.050   5.816   6.353  0.1304 -0.0842  0.2484
  300POPC   NC3 4022   8.912   0.587   3.300  0.0899 -0.3490 -0.0589
  300POPC   PO4 4023   9.153   0.853   3.516  0.2432 -0.2948 -0.0888
  300POPC   GL1 4024   8.867   0.942   3.803 -0.1873 -0.1098 -0.1480
  300POPC   GL2 4025   8.831   1.168   3.862  0.3407  0.5060 -0.2842
  300POPC   C1A 4026   8.904   0.850   4.315  0.2198 -0.3792 -0.0118
  300POPC   D2A 4027   8.752   0.954   4.621  0.0982  0.1608  0.0653
  300POPC   C3A 4028   8.937   0.977   5.038 -0.0368  0.1680  0.1433
  300POPC   C4A 4029   8.591   0.920   5.343 -0.1462 -0.0089  0.1072
  300POPC   C1B 4030   8.528   1.252   4.272 -0.0248 -0.2129 -0.0663
  300POPC   C2B 4031   8.255   1.454   4.565  0.2686  0.2372  0.0342
  300POPC   C3B 4032   7.841   1.709   4.551 -0.0151 -0.1785 -0.1005
  300POPC   C4B 4033   7.385   1.725   4.308  0.3541 -0.1551 -0.1003
  301POPC   NC3 4034   5.081   0.480   4.124 -0.1037 -0.1362  0.1589
  301POPC   PO4 4035   5.467   0.431   3.982  0.0310  0.1516  0.0912
  301POPC   GL1 4036   5.501   0.528   4.417  0.2364 -0.2503  0.0591
  301POPC   GL2 4037   5.603   0.317   4.633 -0.0427 -0.0203  0.0440
  301POPC   C1A 4038   5.644   0.896   4.713  0.2346  0.1960  0.1149
  301POPC   D2A 4039   5.621   1.168   5.040 -0.0492  0.0372  0.1145
  301POPC   C3A 4040   5.390   1.051   5.334 -0.1174 -0.0154 -0.1643
  301POPC   C4A 4041   5.399   1.099   5.821 -0.0784 -0.0135  0.0007
  301POPC   C1B 4042   5.708   0.487   5.079  0.0440  0.4484 -0.1585
  301POPC   C2B 4043   5.899   0.611   5.501 -0.0749 -0.2918  0.0974
  301POPC   C3B 4044   6.196   0.533   5.813 -0.0184  0.0154 -0.0664
  301POPC   C4B 4045   6.596   0.246   5.850  0.0446 -0.0960 -0.0345
  302W        W 4046   7.572   8.755   9.502  0.1583  0.3382  0.2152
  303W        W 4047   3.701   9.297  11.854 -0.1225 -0.0593  0.0257
  304W        W 4048   1.484   1.585   1.626 -0.1077 -0.2564 -0.0264
  305W        W 4049   4.444   0.828   8.321  0.1281  0.0005 -0.4288
  306W        W 4050   8.489   7.430  12.309  0.0040  0.1820  0.3790
  307W        W 4051   2.831   3.511   3.358  0.1150 -0.0158  0.1428
  308W        W 4052   5.966   6.286  10.936  0.1871  0.1894 -0.2532
  309W        W 4053   2.812   4.571   3.946 -0.1060  0.2631 -0.1055
  310W        W 4054   4.687   2.007   3.690  0.1957  0.0688 -0.2656
  311W        W 4055   8.293   2.930  10.966  0.2612  0.3863  0.3390
  312W        W 4056   8.335   1.877   9.669  0.2391 -0.0082 -0.1679
  313W        W 4057   1.288   7.979   2.436 -0.1167 -0.1788 -0.3957
  314W        W 4058   5.603   0.446   0.897 -0.1216 -0.0037  0.0900
  315W        W 4059   1.552   0.300   0.610  0.1995 -0.0058 -0.2954
  316W        W 4060   1.030   2.498  11.261 -0.2194  0.0589  0.3015
  317W        W 4061   4.160   7.786   0.436  0.0703  0.2034 -0.3687
  318W        W 4062   4.922   4.594  11.232 -0.2755 -0.4313  0.0825
  319W        W 4063   4.277   0.737  10.717 -0.4149  0.0768 -0.0365
  320W        W 4064   3.808   8.647   0.806 -0.2249  0.1332  0.0469
  321W        W 4065   3.037   5.145   3.388 -0.3404 -0.2930  0.2345
  322W        W 4066   6.844   7.280   0.884  0.3478 -0.2211  0.1703
  323W        W 4067   6.174   1.168   3.016 -0.1250  0.1308 -0.2160
  324W        W 4068   8.140   2.477  11.388  0.3879  0.1417  0.1568
  325W        W 4069   7.066   8.596  10.214  0.1838  0.0280 -0.1550
  326W        W 4070   0.469   4.856  12.670  0.1037 -0.0038 -0.0577
  327W        W 4071   6.690   5.864   4.127  0.4784  0.2118  0.0764
  328W        W 4072   0.570   4.262   2.809 -0.0856 -0.0799 -0.2233
  329W        W 4073   9.866   1.030   2.282 -0.1574  0.1168 -0.0040
  330W        W 4074   7.584   6.624   0.913 -0.0241  0.0224  0.3017
  331W        W 4075   3.139   2.083   9.447 -0.1036  0.0065  0.2628
  332W        W 4076   0.651   3.600   8.784  0.3562 -0.0443 -0.1958
  333W        W 4077   3.599   9.265  10.933 -0.1025  0.0693  0.1702
  334W        W 4078   1.458   1.082   3.438 -0.0572  0.0136  0.0136
  335W        W 4079   1.202   9.781   2.839 -0.0485  0.0656  0.0568
  336W        W 4080   0.431   5.152   3.248  0.1413  0.1132 -0.1217
  337W        W 4081   6.583   7.119  12.582 -0.2511 -0.0910  0.2464
  338W        W 4082   9.473   3.434   1.472 -0.2211  0.0558 -0.2186
  339W        W 4083   9.360   4.526  11.256 -0.0326  0.1305  0.4887
  340W        W 4084   7.021   5.013   1.170 -0.0271  0.2637  0.1393
  341W        W 4085   7.543   0.792  12.126 -0.1441 -0.2486  0.2213
  342W        W 4086   3.047   9.426   8.806  0.2088  0.2698 -0.0028
  343W        W 4087   7.602   8.412   0.762 -0.0024 -0.1735  0.2426
  344W        W 4088   2.779   3.213   9.530  0.2257 -0.0440  0.2426
  345W        W 4089   0.674   2.509   3.453  0.1047  0.1981 -0.2350
  346W        W 4090   3.274   6.105  12.414 -0.4429  0.0028 -0.1544
  347W        W 4091   9.851   8.809   2.708  0.3747 -0.0739  0.0230
  348W        W 4092   3.497   8.046  10.415 -0.1502 -0.1164 -0.1390
  349W        W 4093   4.161   9.019  11.752 -0.0981 -0.0973 -0.2981
  350W        W 4094   1.040   3.555  12.182 -0.1250  0.0045  0.3809
  351W        W 4095   6.984   2.219   3.455 -0.0473  0.0157 -0.1881
  352W        W 4096   4.980   7.616  10.510  0.2391  0.5874 -0.0796
  353W        W 4097   2.983   5.442   9.983 -0.4045 -0.1913 -0.4257
  354W        W 4098   3.164   3.227  11.879 -0.4010 -0.0587  0.2323
  355W        W 4099   0.176   0.553   2.420 -0.0078 -0.0958 -0.1444
  356W        W 4100   1.632   0.552   3.940 -0.3380 -0.1322  0.3537
  357W        W 4101   8.746   8.854   4.883 -0.0099 -0.0376 -0.2323
  358W        W 4102   7.696   6.827  10.655  0.0066  0.2354 -0.2921
  359W        W 4103   4.647   2.819  12.148  0.2132  0.0644  0.0893
  360W        W 4104   2.505   8.178  11.122 -0.1598  0.4207  0.0641
  361W        W 4105   8.495   1.905  12.895 -0.0571 -0.3899  0.0919
  362W        W 4106   5.907   8.092   1.324  0.0392 -0.1787  0.0347
  363W        W 4107   0.511   0.237  11.644 -0.2030  0.3279  0.2220
  364W        W 4108   2.992   1.277  11.222  0.1206 -0.3233 -0.1983
  365W        W 4109   1.204   5.576   0.595 -0.0016  0.2128  0.0789
  366W        W 4110   1.196   2.885   0.826 -0.2558  0.0414  0.0808
  367W        W 4111   2.614   7.878   2.461 -0.5624  0.2766  0.1347
  368W        W 4112   1.303   3.060   9.463  0.1319  0.2373  0.1886
  369W        W 4113   8.661   8.809   8.923 -0.1176  0.1144 -0.4303
  370W        W 4114   4.388   3.737  12.959 -0.0252 -0.0599 -0.1169
  371W        W 4115   4.573   2.910   1.815 -0.0813 -0.1881  0.0820
  372W        W 4116   2.901   1.324  10.293  0.0946 -0.4072 -0.1817
  373W        W 4117   1.594   3.323   9.190  0.0585 -0.0624  0.0888
  374W        W 4118   2.596   3.670   0.584 -0.2276 -0.1600  0.0468
  375W        W 4119   0.668   9.884   3.137  0.0190 -0.0115  0.0467
  376W        W 4120   4.487   3.474   1.323 -0.0281 -0.2208 -0.0015
  377W        W 4121   7.823   4.553  10.476 -0.3184  0.2433 -0.0005
  378W        W 4122   1.066   6.482   8.930 -0.0639 -0.0334  0.0190
  379W        W 4123   6.868   7.941  11.349 -0.1073 -0.0206  0.1888
  380W        W 4124   2.571   5.125   1.959  0.0150  0.1287  0.1792
  381W        W 4125   1.831   0.949   8.433 -0.1076 -0.0469  0.0663
  382W        W 4126   2.389   5.946   5.019  0.0956 -0.0242 -0.0520
  383W        W 4127   4.501   8.705   0.101 -0.3861 -0.0239 -0.2766
  384W        W 4128   9.115   5.287   1.380 -0.0946 -0.1340 -0.0945
  385W        W 4129   6.428   1.032   0.122 -0.2573 -0.2890  0.2818
  386W        W 4130   2.202   7.244   9.641 -0.1419  0.0604 -0.1570
  387W        W 4131   6.463   6.757   3.874  0.0686 -0.0752  0.4170
  388W        W 4132   1.121   7.518   2.022  0.1408 -0.1925  0.2318
  389W        W 4133   8.386   4.769  10.311 -0.0014  0.0548 -0.3027
  390W        W 4134   6.640   3.721   3.611 -0.1430 -0.0438  0.2251
  391W        W 4135   6.792   9.651   0.422 -0.0266  0.1401  0.1437
  392W        W 4136   0.416   4.301   9.268  0.3214 -0.1539 -0.0275
  393W        W 4137   3.566   0.835   2.097 -0.0882  0.0896  0.1719
  394W        W 4138   7.191   0.317  11.915  0.1955 -0.0724  0.2511
  395W        W 4139   5.699   5.878  12.484 -0.0786  0.2908 -0.0344
  396W        W 4140   0.429   6.634  12.824  0.1331 -0.0861  0.2935
  397W        W 4141   4.106   9.417   0.360  0.4469  0.2585 -0.0567
  398W        W 4142   5.735   4.946  10.162 -0.0600  0.0513 -0.0926
  399W        W 4143   3.189   9.487   9.852  0.0466 -0.3125  0.0827
  400W        W 4144   4.093   4.020  11.697 -0.2512  0.2614  0.1956
  401W        W 4145   7.076   0.912   0.057  0.1293 -0.0516  0.1316
  402W        W 4146   1.715   3.997  10.000 -0.2417 -0.0522 -0.0918
  403W        W 4147   3.150   9.510   0.786 -0.0281  0.0200  0.0584
  404W        W 4148   0.752   5.824   3.131  0.1566  0.0583  0.0344
  405W        W 4149   4.640   8.763   2.929  0.0992 -0.4574  0.3526
  406W        W 4150   1.976   5.303   8.734  0.0910  0.1513 -0.0192
  407W        W 4151   3.216   2.990   1.524 -0.3303 -0.5062  0.2660
  408W        W 4152   0.433   4.663  10.702  0.3569  0.0449 -0.0033
  409W        W 4153   2.927   4.441  10.460  0.2040  0.0048 -0.1425
  410W        W 4154   9.321   3.567   8.677  0.0359 -0.2177 -0.0697
  411W        W 4155   2.425   6.246  12.154 -0.2281 -0.0759  0.0194
  412W        W 4156   7.333   6.310   8.622 -0.1258  0.1601  0.1250
  413W        W 4157   6.987   0.094   2.001 -0.0378 -0.2402  0.0233
  414W        W 4158   5.822   3.578  11.582 -0.0451  0.0046 -0.1185
  415W        W 4159   0.708   1.243  11.112  0.0450  0.2160  0.2045
  416W        W 4160   4.864   1.091   2.462 -0.1677  0.0485 -0.2331
  417W        W 4161   8.829   3.973   9.630  0.2550 -0.0268 -0.1231
  418W        W 4162   1.647   6.248   3.226 -0.0632  0.0916 -0.0334
  419W        W 4163   3.902   9.684   4.105  0.0399 -0.2575 -0.0995
  420W        W 4164   5.797   9.042   7.937 -0.1720  0.0168  0.0130
  421W        W 4165   7.480   2.056  12.884 -0.1474  0.0054  0.5059
  422W        W 4166   3.969   2.229  11.238  0.3138  0.3459  0.3391
  423W        W 4167   4.727   8.895   8.616 -0.2283  0.1115  0.1686
  424W        W 4168   9.696   4.283   4.771  0.0661  0.1546  0.2722
  425W        W 4169   8.416   5.330   3.284  0.0295 -0.3522  0.0014
  426W        W 4170   9.689   3.912   0.199 -0.0245 -0.1640  0.0277
  427W        W 4171   0.019   0.834   8.438 -0.0867 -0.0387  0.1998
  428W        W 4172   8.312   3.868  12.131  0.1759 -0.0876  0.0399
  429W        W 4173   4.618   3.205   0.840 -0.1601  0.0601 -0.2529
  430W        W 4174   8.376   9.306  10.608  0.0194  0.0251 -0.1545
  431W        W 4175   4.081   2.037   0.237  0.0130 -0.2045 -0.4103
  432W        W 4176   8.722   3.921   2.836  0.0744  0.1600 -0.1501
  433W        W 4177   5.729   4.168   1.292 -0.0349 -0.0957 -0.1520
  434W        W 4178   7.658   1.926   1.403  0.1068  0.3407  0.2903
  435W        W 4179   7.719   4.698  11.772  0.3216  0.1613 -0.2407
  436W        W 4180   8.912   9.326   2.530  0.0234  0.0884  0.0252
  437W        W 4181   5.494   2.938   3.439 -0.0808 -0.2667  0.0206
  438W        W 4182   7.715   6.355  11.095 -0.1137 -0.0405  0.1022
  439W        W 4183   2.750   9.146   2.521  0.2011 -0.2582 -0.2798
  440W        W 4184   2.081   6.535  10.544 -0.2166 -0.0386 -0.2251
  441W        W 4185   8.324   7.910  12.503  0.1793 -0.0795 -0.0770
  442W        W 4186   5.322   0.820  12.305 -0.0167 -0.4335  0.2463
  443W        W 4187   2.675   0.949   3.288 -0.4184  0.1924 -0.2499
  444W        W 4188   5.053   0.847   9.557 -0.0082 -0.4409 -0.1294
  445W        W 4189   5.661   1.085   2.884 -0.2897  0.3011  0.1064
  446W        W 4190   4.833   3.288   9.633 -0.0672 -0.0619 -0.0919
  447W        W 4191   2.227   1.719   2.757  0.0794 -0.3403  0.1136
  448W        W 4192   0.369   3.391   0.652  0.0126 -0.3207  0.1029
  449W        W 4193   2.646   8.321   3.950 -0.3821 -0.1346  0.1662
  450W        W 4194   8.632   9.701  11.789  0.3389  0.0632 -0.1452
  451W        W 4195   9.278   8.088   8.534 -0.1085  0.0427  0.2775
  452W        W 4196   0.037   0.805   9.991 -0.1179  0.1774 -0.0363
  453W        W 4197   4.756   1.519   0.612  0.1795  0.2167 -0.2106
  454W        W 4198   0.341   8.035   2.747  0.1231 -0.2443 -0.1593
  455W        W 4199   8.440   0.825   3.927  0.0848  0.2236  0.0991
  456W        W 4200   4.378   0.701   2.531 -0.2827  0.1001  0.1371
  457W        W 4201   5.643   5.452   3.340 -0.2920 -0.0161  0.0773
  458W        W 4202   2.957   2.120   0.982 -0.2292  0.2437 -0.1014
  459W        W 4203   8.905   1.874  12.601  0.0119  0.3226 -0.1254
  460W        W 4204   7.897   4.094  11.496 -0.2828  0.0955 -0.0965
  461W        W 4205   2.952   0.058   2.260  0.0148  0.1786 -0.0680
  462W        W 4206   6.357   8.046   2.532  0.0239  0.1307  0.1762
  463W        W 4207   9.573   3.691   2.798 -0.3175  0.2273  0.2460
  464W        W 4208   4.430   9.439   8.209  0.3627  0.0803  0.1288
  465W        W 4209   3.151   7.203   8.820 -0.1336 -0.0434 -0.3026
  466W        W 4210   4.106   4.376   4.268  0.1520  0.1220 -0.1796
  467W        W 4211   6.871   3.476   2.802  0.1244  0.0324 -0.0795
  468W        W 4212   9.858   6.973  10.074  0.0103 -0.1343 -0.0120
  469W        W 4213   7.802   6.578   8.852 -0.2069  0.0175 -0.0753
  470W        W 4214   0.847   4.779   0.019  0.2333  0.1245 -0.1878
  471W        W 4215   3.621   3.968   1.288  0.1287  0.0716 -0.0349
  472W        W 4216   2.740   3.272   3.889  0.0157  0.1834  0.0072
  473W        W 4217   8.844   1.377   2.672 -0.0593  0.6108 -0.1475
  474W        W 4218   0.579   5.639   2.200  0.0432 -0.1895 -0.0199
  475W        W 4219   5.017   3.471   8.655  0.0678  0.1344 -0.0595
  476W        W 4220   3.699   0.376  10.215  0.1350 -0.2568  0.1119
  477W        W 4221   9.837   1.108  10.962 -0.1693 -0.3626 -0.0111
  478W        W 4222   0.829   5.799   7.966  0.0445  0.2134  0.2475
  479W        W 4223   5.698   7.606  12.774 -0.3006  0.0017  0.4490
  480W        W 4224   5.413   0.350  11.321  0.0538  0.1416 -0.2296
  481W        W 4225   3.101   8.220   4.640 -0.0095 -0.1725 -0.1969
  482W        W 4226   5.375   5.375  11.809 -0.2635  0.1947  0.1628
  483W        W 4227   1.856   1.368  11.176 -0.0861 -0.1259  0.2190
  484W        W 4228   3.427   2.279  10.753  0.1690 -0.1097  0.0623
  485W        W 4229   9.781   1.513  10.051  0.0933  0.2086 -0.1542
  486W        W 4230   5.099   3.039   9.981  0.1965  0.0474  0.1154
  487W        W 4231   0.778   8.666   4.257 -0.1708  0.0975  0.2801
  488W        W 4232   2.281   3.670   1.410  0.0734  0.1157 -0.0275
  489W        W 4233   4.857   1.126  12.164 -0.1658  0.2460  0.0619
  490W        W 4234   9.731   4.194   0.844 -0.0834  0.2455 -0.2843
  491W        W 4235   8.792   9.391   1.083  0.2662  0.1674  0.1034
  492W        W 4236   9.141   8.913  12.948  0.1751  0.0380  0.0277
  493W        W 4237   3.756   0.065   9.779 -0.1458  0.0647 -0.0702
  494W        W 4238   7.254   4.847  11.166  0.0992  0.3371  0.1684
  495W        W 4239   3.292   2.518   1.322  0.3265  0.1760 -0.1214
  496W        W 4240   6.860   9.885  12.736  0.1117  0.0659  0.1869
  497W        W 4241   0.178   5.417  10.753 -0.1345 -0.5068 -0.1339
  498W        W 4242   4.260   8.395   3.567  0.2400  0.2422  0.1140
  499W        W 4243   9.513   7.315   3.037  0.1317  0.0496 -0.1622
  500W        W 4244   5.203   1.813   3.652 -0.0876  0.2501 -0.1342
  501W        W 4245   5.281   7.361  12.558  0.1368  0.0261  0.0944
  502W        W 4246   5.109   4.869   3.992  0.2678 -0.0301 -0.3940
  503W        W 4247   3.845   7.867  12.581 -0.2294 -0.0333  0.0006
  504W        W 4248   2.564   6.504   3.412 -0.1886  0.0183  0.0017
  505W        W 4249   9.153   4.316  12.138 -0.0353  0.1575 -0.0124
  506W        W 4250   5.570   0.999   2.167  0.1908  0.0470  0.2385
  507W        W 4251   8.457   8.193   9.594  0.0759 -0.2008 -0.1409
  508W        W 4252   4.988   6.817  12.805 -0.1705 -0.3069 -0.5012
  509W        W 4253   1.431   6.521   4.441  0.1419 -0.0184 -0.1123
  510W        W 4254   0.211   7.397   0.240 -0.1943  0.0495  0.1772
  511W        W 4255   4.712   5.816  10.228  0.0964 -0.0046  0.4462
  512W        W 4256   7.223   8.152  11.674  0.1509 -0.1454  0.1436
  513W        W 4257   7.934   4.786   0.906 -0.2085 -0.4324  0.1611
  514W        W 4258   4.298   3.343   0.405  0.2354  0.2285  0.4367
  515W        W 4259   9.608   9.458   8.620 -0.3078  0.2986  0.1424
  516W        W 4260   9.402   1.580   9.709 -0.2356 -0.0712  0.1527
  517W        W 4261   7.937   5.703   3.311 -0.1413  0.3619  0.0658
  518W        W 4262   0.696   4.707   2.578 -0.0735  0.0852  0.0905
  519W        W 4263   2.922   9.596  12.815  0.0787 -0.0713  0.0951
  520W        W 4264   5.839   8.308   5.348  0.0580  0.3526 -0.0347
  521W        W 4265   5.913   9.265   1.711  0.1209  0.1529  0.2021
  522W        W 4266   2.065   7.559  12.835 -0.2342  0.0329 -0.1289
  523W        W 4267   9.128   4.094   1.887 -0.1624  0.0406  0.4186
  524W        W 4268   2.124   1.868   9.206 -0.1788  0.0822  0.1150
  525W        W 4269   7.233   4.205   1.643 -0.0750  0.3981 -0.1230
  526W        W 4270   4.748   1.094   4.027 -0.4331  0.2977  0.0446
  527W        W 4271   3.044   1.058  10.712  0.1614  0.1377 -0.1645
  528W        W 4272   2.076   9.114  12.876  0.1386  0.1224  0.0144
  529W        W 4273   7.773   7.967   4.391  0.1637 -0.0663 -0.0293
  530W        W 4274   7.742   2.209  11.132 -0.5000 -0.2306 -0.0503
  531W        W 4275   2.669   0.831   8.793  0.0689  0.0212 -0.2548
  532W        W 4276   2.622   8.744   1.825 -0.0571 -0.2217 -0.1036
  533W        W 4277   9.006   1.541  10.112  0.1472  0.0244  0.1596
  534W        W 4278   2.326   6.081  10.334 -0.1298 -0.0014 -0.1328
  535W        W 4279   2.978   0.244  12.887  0.1061  0.3599 -0.2313
  536W        W 4280   4.670   1.248   0.184 -0.0385 -0.0665  0.3525
  537W        W 4281   1.065   9.093   8.837  0.2873 -0.3071  0.4312
  538W        W 4282   2.244   2.772   0.365  0.1555  0.0843  0.1786
  539W        W 4283   1.983   0.468   2.972 -0.2374 -0.0783  0.2913
  540W        W 4284   3.934   1.782   1.634  0.0321  0.3008  0.0384
  541W        W 4285   3.225   3.864   3.535  0.0343 -0.0092  0.1604
  542W        W 4286   6.415   7.591   8.547 -0.1621 -0.0296  0.2918
  543W        W 4287   7.014   4.719  12.903  0.1410  0.0124  0.0753
  544W        W 4288   6.188   9.493   9.915  0.2225 -0.2897  0.2540
  545W        W 4289   1.393   2.613   1.327  0.0745  0.0485  0.2620
  546W        W 4290   7.813   9.857   2.812 -0.1691  0.2714  0.0799
  547W        W 4291   7.979   1.626   2.031  0.5273  0.2932  0.0140
  548W        W 4292   3.762   8.949   9.995  0.3152 -0.0597 -0.0210
  549W        W 4293   5.462   3.573   1.519  0.1195 -0.2213 -0.0494
  550W        W 4294   6.165   6.262   1.386  0.0428 -0.0439  0.3902
  551W        W 4295   4.773   8.464  10.384 -0.0797 -0.1316 -0.0673
  552W        W 4296   7.480   4.138   0.744  0.0170 -0.1513 -0.0207
  553W        W 4297   7.780   0.981   1.118 -0.3874 -0.0726  0.2101
  554W        W 4298   6.146   4.581   3.208 -0.0960 -0.0645  0.2690
  555W        W 4299   5.077   1.644   1.094 -0.3738 -0.5246 -0.1584
  556W        W 4300   9.689   8.993   1.775  0.1361 -0.0785  0.0445
  557W        W 4301   9.241   1.701   3.270  0.0747 -0.3211 -0.1003
  558W        W 4302   2.176   1.088   8.789  0.1055 -0.1365 -0.1383
  559W        W 4303   6.848   1.314   0.292  0.0523 -0.0707 -0.0761
  560W        W 4304   7.931   2.515   3.195  0.1088 -0.2110  0.1589
  561W        W 4305   9.539   5.152   1.588 -0.1993 -0.1816  0.0755
  562W        W 4306   8.093   5.106   1.285 -0.2249 -0.3461 -0.1061
  563W        W 4307   4.288   1.829  11.499  0.0615  0.1975  0.0263
  564W        W 4308   1.563   9.398   2.054  0.2047  0.1552 -0.1218
  565W        W 4309   7.691   2.181   0.362 -0.0684  0.2416  0.1370
  566W        W 4310   8.905   5.627   9.015 -0.1242  0.1172 -0.1536
  567W        W 4311   4.599   2.361  11.339  0.0042  0.1205  0.3076
  568W        W 4312   8.906   3.913  12.307  0.2454 -0.1342 -0.1326
  569W        W 4313   6.298   9.185   0.757 -0.3156  0.3670 -0.2156
  570W        W 4314   4.317   6.709  12.318 -0.4171 -0.3357  0.3894
  571W        W 4315   3.983   8.428   2.660 -0.0253 -0.1735 -0.0130
  572W        W 4316   1.493   2.609  12.203 -0.0016  0.2067 -0.2851
  573W        W 4317   9.092   2.268   1.526 -0.1861  0.1998  0.0924
  574W        W 4318   9.696   6.701   1.706  0.0215 -0.1991 -0.2025
  575W        W 4319   2.517   9.885  12.754  0.0060  0.2357  0.0149
  576W        W 4320   3.552   7.272   9.727 -0.2338 -0.3310 -0.1079
  577W        W 4321   1.388   0.713  11.694  0.0942 -0.3424 -0.0226
  578W        W 4322   2.669   1.481   2.657 -0.2314  0.0112  0.1810
  579W        W 4323   5.349   6.475   9.119  0.0308 -0.0715  0.0236
  580W        W 4324   1.637   3.174  11.460  0.0565  0.1458 -0.0087
  581W        W 4325   6.901   8.165   1.869  0.0116  0.2220 -0.1364
  582W        W 4326   6.372   5.923  10.924  0.3073 -0.1525 -0.2885
  583W        W 4327   6.208   2.455  12.740 -0.0040  0.1758  0.3641
  584W        W 4328   9.885   9.226   9.028 -0.1044  0.0294 -0.1373
  585W        W 4329   4.753   1.517   3.718 -0.0872 -0.0050  0.0008
  586W        W 4330   6.118   0.742  10.587 -0.1550 -0.1575 -0.1165
  587W        W 4331   0.182   8.572   1.784  0.1347 -0.3246 -0.2906
  588W        W 4332   3.486   9.751   2.113 -0.0810 -0.2368 -0.0395
  589W        W 4333   5.315   0.581   1.246 -0.0185  0.4546 -0.2173
  590W        W 4334   8.030   0.564   1.219 -0.1089  0.1818 -0.1562
  591W        W 4335   5.892   8.080   9.151 -0.1596  0.2207  0.0495
  592W        W 4336   0.431   2.878  11.987  0.1669 -0.1000 -0.2953
  593W        W 4337   7.292   8.178   9.258  0.1096  0.0715 -0.1280
  594W        W 4338   1.155   0.095  10.523 -0.0155  0.2475 -0.2786
  595W        W 4339   6.604   6.700  11.759  0.2722 -0.0352  0.0305
  596W        W 4340   9.452   7.785   1.801  0.0194 -0.3507 -0.0657
  597W        W 4341   7.995   8.373   4.144 -0.1370 -0.1724 -0.1506
  598W        W 4342   1.288   1.897  10.863 -0.2031  0.2489  0.0738
  599W        W 4343   7.830   5.552   1.151  0.1335  0.3393  0.0301
  600W        W 4344   4.628   6.326  11.044 -0.0090 -0.1009 -0.4150
  601W        W 4345   4.046   4.086   1.478  0.0717  0.1199  0.2157
  602W        W 4346   2.414   0.900  12.300  0.0411 -0.2236 -0.1421
  603W        W 4347   8.698   8.124   0.489 -0.0750  0.0052 -0.1896
  604W        W 4348   1.241   5.625  10.168  0.1541 -0.2153  0.2439
  605W        W 4349   1.493   4.232  12.337  0.1994 -0.2280 -0.4679
  606W        W 4350   3.850   0.325  10.709  0.2131  0.1333  0.1912
  607W        W 4351   9.428   8.120   0.340 -0.0297 -0.0961 -0.0184
  608W        W 4352   6.568   7.840   0.072 -0.1515  0.0552 -0.0180
  609W        W 4353   6.425   0.580  11.542  0.0559  0.2011  0.1137
  610W        W 4354   7.801   7.705   2.542  0.0659 -0.1869  0.0819
  611W        W 4355   4.138   7.945   3.342  0.2390  0.1601 -0.0371
  612W        W 4356   4.088   2.247  10.696  0.0136 -0.1633 -0.1528
  613W        W 4357   4.566   9.477   9.348  0.0170 -0.0167 -0.1189
  614W        W 4358   6.654   6.091   1.492 -0.0336 -0.0303 -0.0663
  615W        W 4359   1.455   4.666   2.038  0.1191  0.3136  0.1963
  616W        W 4360   4.647   6.544   1.325  0.1543  0.0435 -0.1738
  617W        W 4361   6.814   0.864  11.581  0.2269 -0.0024  0.0857
  618W        W 4362   0.294   5.095   0.751 -0.0404 -0.1622 -0.1976
  619W        W 4363   0.573   5.485  11.013  0.0082  0.1912 -0.0213
  620W        W 4364   1.349   6.464   1.134  0.0541 -0.0227  0.1383
  621W        W 4365   0.625   7.131  11.501  0.0018 -0.0434  0.1374
  622W        W 4366   5.290   4.567   0.625 -0.1627  0.0223 -0.1744
  623W        W 4367   4.361   2.559   1.484 -0.1224  0.0166 -0.1027
  624W        W 4368   7.900   1.047  10.033 -0.0490  0.0954  0.2222
  625W        W 4369   5.989   6.032   3.023 -0.5495 -0.0837 -0.1747
  626W        W 4370   8.744   3.447   3.032  0.0247  0.3505  0.0115
  627W        W 4371   7.062   1.253   9.632  0.1054 -0.0809 -0.0492
  628W        W 4372   2.015   6.812  10.152 -0.3406 -0.2890  0.2722
  629W        W 4373   8.452   7.347   4.781  0.0665  0.0704 -0.1824
  630W        W 4374   4.903   5.285  11.019  0.0735  0.1177  0.2218
  631W        W 4375   8.262   1.465  11.028 -0.3440  0.4674 -0.0390
  632W        W 4376   9.691   5.264   2.587 -0.1936  0.1200 -0.2137
  633W        W 4377   7.346   9.355  11.347 -0.0261  0.1637 -0.1893
  634W        W 4378   3.538   8.964  11.361  0.3041  0.2637 -0.2082
  635W        W 4379   7.239   6.560   9.010 -0.0458 -0.0161  0.1433
  636W        W 4380   5.223   7.085   9.293 -0.0346  0.1485  0.0941
  637W        W 4381   2.791   8.021   1.369  0.0674  0.4162 -0.1637
  638W        W 4382   9.628   7.648   2.217  0.2295  0.2821 -0.3086
  639W        W 4383   8.755   2.432  10.426  0.0876 -0.0424  0.0674
  640W        W 4384   0.426   7.308   1.049  0.0914 -0.0821  0.0582
  641W        W 4385   5.845   2.352   0.154  0.0327 -0.1072  0.0007
  642W        W 4386   6.297   6.951  12.081 -0.1611  0.0339 -0.0820
  643W        W 4387   4.946   9.323   2.981 -0.0247  0.0521 -0.3993
  644W        W 4388   2.250   8.855  11.757 -0.0804 -0.5240  0.3099
  645W        W 4389   6.554   2.010  12.343  0.2124  0.2948 -0.0303
  646W        W 4390   5.370   4.708   9.847 -0.1955 -0.1853  0.0594
  647W        W 4391   2.858   7.627   8.807  0.4928  0.1258  0.0741
  648W        W 4392   4.298   8.304  11.373 -0.4277 -0.1561  0.0640
  649W        W 4393   5.813   0.241   9.187 -0.2216  0.0323  0.0180
  650W        W 4394   2.805   5.451  12.512  0.2165  0.1110  0.1119
  651W        W 4395   0.148   8.016   1.575 -0.1665  0.0158 -0.0439
  652W        W 4396   3.088   9.219   0.187  0.0888 -0.2192 -0.1664
  653W        W 4397   0.322   7.677   7.950 -0.0476 -0.1479 -0.0625
  654W        W 4398   5.157   2.689   2.487 -0.1211 -0.2662  0.1345
  655W        W 4399   6.130   4.508   1.178  0.1903 -0.1667  0.2499
  656W        W 4400   6.879   2.946   9.622  0.3373 -0.0279  0.0593
  657W        W 4401   0.204   9.670  10.749 -0.0488  0.0566  0.1604
  658W        W 4402   1.604   8.363   8.377 -0.2019  0.0070 -0.1879
  659W        W 4403   6.576   3.805   9.281 -0.2981 -0.3100 -0.1052
  660W        W 4404   9.357   5.093   2.971 -0.1139 -0.3679  0.0977
  661W        W 4405   0.292   8.721   4.431  0.0600  0.0320 -0.0462
  662W        W 4406   7.995   4.719   8.503 -0.2093  0.1312 -0.0516
  663W        W 4407   7.316   7.933  12.406 -0.3510  0.0032  0.0490
  664W        W 4408   7.139   5.528  11.500 -0.1004 -0.1795  0.1781
  665W        W 4409   2.568   6.850   0.962 -0.1850 -0.3462 -0.3200
  666W        W 4410   5.220   2.286   2.723  0.0183  0.0629 -0.1194
  667W        W 4411   9.862   0.172   1.569  0.3585  0.0330 -0.1260
  668W        W 4412   3.699   4.890  10.500 -0.0520 -0.0592 -0.2255
  669W        W 4413   1.734   9.555   4.341 -0.0689 -0.1928  0.0036
  670W        W 4414   6.312   4.725   2.751 -0.3829  0.0206  0.2252
  671W        W 4415   6.046   7.500   3.588  0.1345 -0.2605 -0.1821
  672W        W 4416   6.773   8.963  12.464 -0.3114  0.2451  0.0411
  673W        W 4417   4.151   2.402   9.324  0.0968 -0.0482 -0.1700
  674W        W 4418   6.590   8.599  12.775  0.1552  0.0929 -0.1269
  675W        W 4419   2.508   5.811   9.283  0.1530  0.0251  0.0302
  676W        W 4420   5.354   4.412   3.656  0.1657  0.1392 -0.0812
  677W        W 4421   8.530   4.334  10.481  0.1373  0.2978  0.1311
  678W        W 4422   5.203   2.845  10.476 -0.0692 -0.0695  0.1611
  679W        W 4423   6.427   0.510   2.063  0.2059 -0.0066  0.0553
  680W        W 4424   5.196   6.118  12.726  0.1543 -0.0185 -0.1228
  681W        W 4425   3.912   7.731  10.473 -0.0728 -0.3151  0.1671
  682W        W 4426   3.247   7.496   3.937  0.0420 -0.0966 -0.1694
  683W        W 4427   8.138   5.217  12.931 -0.1079  0.0711  0.1270
  684W        W 4428   4.004   9.530   0.820  0.2210  0.3630 -0.1245
  685W        W 4429   9.067   8.052   3.240 -0.0506  0.1191  0.0861
  686W        W 4430   1.436   7.029   9.288 -0.1260  0.2485 -0.0912
  687W        W 4431   8.000   5.233   9.845  0.0716  0.1103  0.2379
  688W        W 4432   9.676   2.441  12.453 -0.0107 -0.0418 -0.0297
  689W        W 4433   1.211   8.483  10.270 -0.1687  0.2534 -0.0520
  690W        W 4434   0.223   2.915  11.524  0.0594  0.1009 -0.3409
  691W        W 4435   2.565   1.854   2.309  0.0144  0.3620  0.0598
  692W        W 4436   8.203   1.540   0.190  0.2914 -0.0436  0.0973
  693W        W 4437   6.421   7.638   0.929  0.0347  0.0908 -0.0713
  694W        W 4438   6.038   1.967  12.504 -0.3458  0.0198 -0.3565
  695W        W 4439   2.505   7.034   4.257  0.4019  0.3527 -0.1534
  696W        W 4440   0.161   8.119  12.258 -0.0488  0.0941 -0.0494
  697W        W 4441   3.130   2.183   3.147  0.1001  0.0321  0.0953
  698W        W 4442   2.517   2.690   8.656  0.1888  0.0095  0.6471
  699W        W 4443   0.001   1.925   2.660  0.2022 -0.0172 -0.2239
  700W        W 4444   4.739   8.679  12.568  0.0424  0.2956 -0.1994
  701W        W 4445   5.136   8.874  11.004 -0.0999 -0.1485  0.0355
  702W        W 4446   1.045   8.419   1.596  0.0723  0.2418  0.1397
  703W        W 4447   2.316   6.703   9.797  0.0389 -0.0232 -0.1355
  704W        W 4448   4.572   6.296  12.087 -0.0499  0.2038  0.1057
  705W        W 4449   1.885   0.301   1.913  0.4825  0.2526  0.4367
  706W        W 4450   1.095   0.685  12.165 -0.0093  0.0288  0.0919
  707W        W 4451   8.840   7.602   3.167  0.1302  0.0026  0.1330
  708W        W 4452   1.281   0.633   8.747  0.0311 -0.2899 -0.1380
  709W        W 4453   1.295   8.094   0.025  0.0355  0.1011 -0.2730
  710W        W 4454   4.422   9.789  10.073 -0.1585  0.0607 -0.2470
  711W        W 4455   3.131   5.903   0.344  0.0685  0.2317  0.0202
  712W        W 4456   4.049   5.925   9.455  0.2721 -0.0742 -0.1091
  713W        W 4457   1.699   2.975   3.834  0.0730  0.2155  0.1985
  714W        W 4458   2.154   8.151   3.777 -0.0771 -0.0308  0.1462
  715W        W 4459   2.321   2.973  10.802  0.0521  0.1531  0.5422
  716W        W 4460   7.047   7.522  12.300 -0.1328 -0.1814  0.1097
  717W        W 4461   1.388   2.866   0.124  0.0465  0.0060 -0.0012
  718W        W 4462   7.992   3.476   9.866 -0.0516 -0.2386  0.2428
  719W        W 4463   9.169   8.680   1.782  0.3744 -0.0515 -0.3567
  720W        W 4464   1.078   5.599   2.307  0.1285  0.0376 -0.1215
  721W        W 4465   7.511   6.212   8.167  0.0974  0.3196 -0.0562
  722W        W 4466   1.244   1.267   9.158  0.0507  0.1843  0.1064
  723W        W 4467   8.849   5.121   2.900  0.0907 -0.1663  0.0062
  724W        W 4468   7.930   5.576   3.964 -0.1898  0.3275 -0.0997
  725W        W 4469   3.097   4.215  11.470 -0.1108  0.0450 -0.1411
  726W        W 4470   3.348   2.728  10.515 -0.4943  0.4654 -0.1757
  727W        W 4471   2.654   2.608   0.727  0.0820 -0.1002  0.2728
  728W        W 4472   9.015   0.017  11.445 -0.1927 -0.0379 -0.2608
  729W        W 4473   8.745   2.546   2.287  0.2325  0.1794  0.2552
  730W        W 4474   1.619   1.529   8.914 -0.0590  0.0555  0.1073
  731W        W 4475   5.167   5.008   9.467 -0.0278 -0.2128  0.0084
  732W        W 4476   8.528   2.955  10.496  0.0282  0.0470 -0.1921
  733W        W 4477   2.234   1.630   1.228 -0.1216  0.0445  0.0952
  734W        W 4478   5.898   0.145   2.235 -0.0691  0.2884 -0.0330
  735W        W 4479   7.850   6.607  12.875 -0.0397 -0.0794 -0.1303
  736W        W 4480   8.990   8.380   0.168 -0.1513 -0.0267  0.0831
  737W        W 4481   6.226   4.698   1.885  0.2400 -0.1597 -0.1548
  738W        W 4482   3.139   1.436  12.633  0.3264 -0.1633 -0.0995
  739W        W 4483   9.519   9.118   3.692  0.2106 -0.2904  0.0651
  740W        W 4484   4.555   5.491   2.992 -0.0869 -0.1883  0.3461
  741W        W 4485   3.329   1.188   3.143 -0.1656  0.3421  0.0338
  742W        W 4486   3.772   6.024  12.676 -0.0770 -0.1461  0.0631
  743W        W 4487   2.942   7.104   3.937  0.3112  0.3203 -0.3551
  744W        W 4488   7.996   6.219   1.555  0.2910  0.1701  0.0165
  745W        W 4489   7.508   8.670   2.674 -0.1486 -0.0705  0.1635
  746W        W 4490   3.089   3.845   9.013 -0.0320  0.0447 -0.1657
  747W        W 4491   0.500   3.257   1.387  0.1020  0.2442  0.0472
  748W        W 4492   4.513   6.180  10.521 -0.1469  0.2221 -0.2467
  749W        W 4493   7.452   9.083   9.067 -0.1466  0.0279 -0.1072
  750W        W 4494   1.209   6.014   2.135  0.0291 -0.0214 -0.0046
  751W        W 4495   6.510   6.743   1.861  0.1016  0.3755  0.1727
  752W        W 4496   2.744   2.500   7.906 -0.0470  0.1665 -0.2813
  753W        W 4497   5.083   5.705   0.691 -0.2364  0.1646  0.0009
  754W        W 4498   0.506   7.794   0.307  0.0739  0.0946 -0.2109
  755W        W 4499   3.539   8.575  10.268  0.1321 -0.3306 -0.2252
  756W        W 4500   5.701   9.066  10.754  0.0411  0.2857  0.1347
  757W        W 4501   0.291   8.469  11.635  0.3088 -0.0296  0.0372
  758W        W 4502   1.345   8.102  10.725 -0.3823  0.2574 -0.0159
  759W        W 4503   9.849   3.042  10.749 -0.0492 -0.0877  0.2469
  760W        W 4504   5.465   0.970   0.998 -0.1351  0.2351 -0.0881
  761W        W 4505   0.460   9.083   2.667  0.2022  0.1197 -0.1617
  762W        W 4506   1.860   5.291   0.387 -0.1171  0.1900  0.2235
  763W        W 4507   9.221   7.701  11.797 -0.0025 -0.0227  0.1710
  764W        W 4508   3.291   3.755   8.576  0.0246 -0.1247 -0.0681
  765W        W 4509   5.846   2.942  10.395 -0.0789 -0.1866 -0.0574
  766W        W 4510   4.568   9.007   0.508  0.1012  0.3299 -0.0607
  767W        W 4511   1.754   7.159   2.476 -0.3061 -0.2164  0.2247
  768W        W 4512   4.688   0.447   4.978  0.0520  0.1240  0.0475
  769W        W 4513   6.998   5.025  12.441 -0.1942  0.0984  0.1990
  770W        W 4514   3.951   2.586   2.702  0.1551 -0.1101 -0.1774
  771W        W 4515   2.953   7.693  10.171  0.1422  0.1411  0.0397
  772W        W 4516   2.394   9.161  11.019  0.2553  0.0818  0.2181
  773W        W 4517   5.618   4.079  11.634  0.2442 -0.3461 -0.1770
  774W        W 4518   2.048   2.070   2.278 -0.0986 -0.4210 -0.3806
  775W        W 4519   0.631   1.796  12.765 -0.2123 -0.2643  0.0127
  776W        W 4520   4.936   7.584   9.554 -0.1679 -0.0261  0.2116
  777W        W 4521   3.455   0.123  12.617  0.2841  0.1317  0.1188
  778W        W 4522   5.392   6.455   2.378 -0.0065 -0.0264  0.1894
  779W        W 4523   7.766   8.476   9.967  0.1274  0.1492 -0.2225
  780W        W 4524   4.111   0.214   1.864 -0.2130 -0.1457 -0.1108
  781W        W 4525   9.676   8.866  12.438 -0.1351 -0.2818 -0.0964
  782W        W 4526   1.986   7.084   1.696  0.1370 -0.1471 -0.2165
  783W        W 4527   4.105   1.139  10.422 -0.1071 -0.3126  0.1944
  784W        W 4528   7.197   8.687  10.728 -0.3029 -0.1154  0.0544
  785W        W 4529   1.278   4.635   0.269 -0.1663  0.1933  0.0963
  786W        W 4530   2.797   3.544   1.520  0.2374 -0.1035 -0.2415
  787W        W 4531   5.528   8.278   1.533  0.2611 -0.1362 -0.0802
  788W        W 4532   7.662   9.429   8.529  0.2155 -0.2279  0.0100
  789W        W 4533   8.332   9.077   3.385 -0.3152 -0.1843  0.0128
  790W        W 4534   9.391   7.191   9.803 -0.1341  0.2853 -0.1067
  791W        W 4535   6.422   3.421   1.075  0.0106  0.2909 -0.1782
  792W        W 4536   3.242   8.081   3.134 -0.1076  0.0543 -0.1931
  793W        W 4537   4.925   5.652   3.296  0.0820  0.0846 -0.0921
  794W        W 4538   9.586   8.464   1.711 -0.4504 -0.0845 -0.2045
  795W        W 4539   2.103   8.701  10.165  0.1351 -0.3026 -0.0986
  796W        W 4540   1.637   6.059   2.377 -0.0245 -0.3203  0.2414
  797W        W 4541   1.285   8.872   1.478  0.2248 -0.0315 -0.1510
  798W        W 4542   4.324   0.986  12.243 -0.0331  0.2789 -0.2876
  799W        W 4543   4.652   2.269   0.105 -0.1080  0.0589  0.0429
  800W        W 4544   2.692   2.224   2.710  0.0364 -0.1750  0.0655
  801W        W 4545   0.450   4.869   8.735 -0.0277 -0.0156 -0.2411
  802W        W 4546   5.853   8.564   9.314  0.4773  0.2744 -0.1333
  803W        W 4547   6.452   2.108  10.164  0.0278 -0.0477 -0.0960
  804W        W 4548   4.139   9.593   9.643 -0.0671  0.0423 -0.1380
  805W        W 4549   4.467   7.953   1.274 -0.0101 -0.2028  0.3000
  806W        W 4550   5.096   3.343   0.197 -0.1097 -0.0118  0.0479
  807W        W 4551   3.121   1.330   2.655  0.4125 -0.1553 -0.1295
  808W        W 4552   3.026   4.345   0.857  0.1397 -0.0377  0.2792
  809W        W 4553   7.370   8.106   2.342 -0.2339 -0.0487  0.1059
  810W        W 4554   0.808   5.780   4.174  0.0486 -0.0663  0.0896
  811W        W 4555   2.836   5.837  10.313 -0.0699  0.1693  0.0726
  812W        W 4556   5.625   4.291   4.461 -0.0846 -0.0464 -0.1884
  813W        W 4557   2.587   2.635   3.694 -0.0595  0.0069 -0.0837
  814W        W 4558   2.169   7.818   2.103  0.1500 -0.2039  0.1871
  815W        W 4559   5.346   6.250   3.767  0.1487  0.0700 -0.3209
  816W        W 4560   2.314   6.504   4.246 -0.0572 -0.1115 -0.1989
  817W        W 4561   1.265   2.577   2.593 -0.4605  0.2159  0.0521
  818W        W 4562   2.306   0.534   1.706 -0.0766 -0.0484  0.3027
  819W        W 4563   5.516   0.615  11.759 -0.0763 -0.1764 -0.1169
  820W        W 4564   5.880   0.848   0.085 -0.0645  0.3202  0.0086
  821W        W 4565   5.608   8.044   2.127 -0.0036  0.2700  0.0048
  822W        W 4566   1.729   5.164  10.610  0.0223 -0.1030 -0.0952
  823W        W 4567   7.409   6.505  12.498 -0.3334 -0.3002  0.0202
  824W        W 4568   1.907   7.272  12.035 -0.2000 -0.0748 -0.3037
  825W        W 4569   4.294   1.729   9.980 -0.0105 -0.0172 -0.0894
  826W        W 4570   2.338   3.835  11.780  0.3407  0.1655 -0.1827
  827W        W 4571   5.062   4.044   2.694  0.0674 -0.0305 -0.3323
  828W        W 4572   5.330   1.415   2.679 -0.2388  0.0475  0.3238
  829W        W 4573   7.172   7.049   2.466 -0.3725  0.1754 -0.1585
  830W        W 4574   5.832   1.261  12.132  0.1353  0.1565  0.2743
  831W        W 4575   5.623   5.966   4.105 -0.1361 -0.2068  0.1354
  832W        W 4576   1.707   8.301  12.876  0.1738  0.0129  0.0304
  833W        W 4577   6.410   7.685  11.806 -0.2854 -0.0397  0.1514
  834W        W 4578   8.740   9.222  12.016 -0.2097 -0.3748  0.0745
  835W        W 4579   4.871   4.081  11.004  0.0840 -0.2554  0.1259
  836W        W 4580   1.589   6.345   0.291  0.1595 -0.0003 -0.1909
  837W        W 4581   9.014   5.618  10.169 -0.0863  0.0935 -0.2673
  838W        W 4582   3.289   9.477   9.306  0.0795 -0.3338  0.1023
  839W        W 4583   4.334   8.262   0.266  0.1868 -0.1443  0.0416
  840W        W 4584   3.790   1.546   2.097 -0.0335  0.0231  0.1037
  841W        W 4585   4.640   4.824  12.723  0.3207  0.2261 -0.2157
  842W        W 4586   8.859   8.850  10.159  0.3064  0.2225 -0.2750
  843W        W 4587   4.297   0.083   4.089 -0.2182 -0.2260 -0.0998
  844W        W 4588   1.471   6.106   0.751 -0.0330 -0.0822  0.0969
  845W        W 4589   5.323   4.489   1.366  0.1662 -0.0775  0.1297
  846W        W 4590   1.656   9.430  11.371 -0.2226  0.1449 -0.0731
  847W        W 4591   3.393   9.368  12.799 -0.0676  0.0330  0.3140
  848W        W 4592   6.683   9.878   2.685 -0.0697 -0.2868 -0.0469
  849W        W 4593   3.685   2.366   0.542 -0.1957  0.2881  0.3118
  850W        W 4594   1.951   6.971   9.206 -0.1133 -0.2207  0.1710
  851W        W 4595   6.845   6.258   8.844 -0.4164  0.0491  0.1069
  852W        W 4596   4.964   4.752   3.271  0.1435 -0.0912  0.1022
  853W        W 4597   2.966   2.182   2.068 -0.0538 -0.0810 -0.1363
  854W        W 4598   9.345   1.716  12.258  0.0533 -0.0527 -0.1608
  855W        W 4599   8.907   6.077   9.131 -0.0607  0.0872  0.4337
  856W        W 4600   7.017   3.201   1.844  0.2497  0.1261 -0.1474
  857W        W 4601   7.956   3.524  12.255 -0.0429 -0.2855  0.1083
  858W        W 4602   3.193   3.393   0.276 -0.1648 -0.3175 -0.1023
  859W        W 4603   0.852   0.505   1.350  0.0318  0.0414  0.0137
  860W        W 4604   0.499   2.657   0.555 -0.1227  0.0964  0.0250
  861W        W 4605   0.430   2.076   8.909  0.2523  0.2521 -0.3076
  862W        W 4606   6.450   7.941   9.930 -0.3222 -0.1869  0.0433
  863W        W 4607   0.697   6.104   8.347 -0.0360 -0.1695 -0.0815
  864W        W 4608   7.371   7.806   9.567 -0.1742 -0.1014  0.2169
  865W        W 4609   0.231   1.752   3.977 -0.3195  0.1351  0.0445
  866W        W 4610   7.448   2.148  12.338 -0.1602 -0.2802 -0.0560
  867W        W 4611   3.265   5.294  12.396  0.0698 -0.1295 -0.1093
  868W        W 4612   1.507   1.071  12.892 -0.0766  0.0428 -0.4282
  869W        W 4613   0.854   5.848  12.798  0.1898  0.1761 -0.0324
  870W        W 4614   3.120   6.394   1.801  0.1624 -0.0720 -0.0474
  871W        W 4615   0.518   3.117  12.807  0.2762  0.2207  0.0447
  872W        W 4616   5.841   5.443   3.820 -0.1462  0.3760 -0.1103
  873W        W 4617   1.156   0.244   2.456  0.1172  0.3661 -0.3387
  874W        W 4618   8.527   0.527  12.367  0.1342 -0.2131 -0.0234
  875W        W 4619   5.582   1.711   0.831 -0.1041  0.0369 -0.3662
  876W        W 4620   1.669   9.729   9.153  0.2452 -0.1127  0.1285
  877W        W 4621   4.176   8.414   1.143 -0.1713 -0.3474 -0.1480
  878W        W 4622   0.877   9.711   8.887 -0.2275  0.3558 -0.1435
  879W        W 4623   1.198   6.781   9.664  0.1636  0.2252  0.2855
  880W        W 4624   2.790   3.265   4.441  0.0008 -0.1409 -0.4711
  881W        W 4625   9.669   5.833   7.807 -0.1784 -0.0877  0.0387
  882W        W 4626   0.046   1.936  10.253 -0.1353 -0.0749 -0.3314
  883W        W 4627   7.695   0.069   0.929 -0.2208  0.0672  0.3312
  884W        W 4628   4.542   2.126   3.243  0.4275 -0.1115  0.5149
  885W        W 4629   9.585   0.044   0.096  0.1114  0.0972 -0.1434
  886W        W 4630   5.412   6.031   8.122 -0.0043 -0.0110  0.0066
  887W        W 4631   2.472   9.264   2.907  0.1692  0.0652  0.0621
  888W        W 4632   6.733   9.707   9.279 -0.2453 -0.2137 -0.0934
  889W        W 4633   8.102   9.807   1.766  0.2303  0.3615  0.0966
  890W        W 4634   6.894   9.288   1.471  0.0709 -0.3547 -0.1637
  891W        W 4635   3.462   7.301   1.281 -0.0969  0.1853 -0.2458
  892W        W 4636   2.008   3.755   0.625  0.3457 -0.0159  0.0062
  893W        W 4637   5.392   3.468  12.733  0.2339 -0.0380  0.1721
  894W        W 4638   6.639   2.536  10.430  0.0048  0.1651  0.1355
  895W        W 4639   0.194   9.689  10.233 -0.0265  0.2261  0.2342
  896W        W 4640   6.000   1.392  11.216 -0.0918 -0.2302  0.5298
  897W        W 4641   3.360   2.548   4.114  0.1729 -0.0835 -0.1995
  898W        W 4642   4.594   7.031   2.034  0.2063 -0.0861  0.1583
  899W        W 4643   0.943   9.279   4.783 -0.0126  0.4439  0.2350
  900W        W 4644   3.192   7.191  10.087  0.1062  0.1916  0.2012
  901W        W 4645   7.609   5.915   9.507 -0.3068 -0.0550 -0.2165
  902W        W 4646   6.628   0.113  11.706  0.0819  0.0971 -0.3421
  903W        W 4647   8.786   5.222   9.862 -0.2063 -0.1321  0.3074
  904W        W 4648   9.443   9.777   1.499  0.0219  0.0567  0.2209
  905W        W 4649   2.430   9.153   1.669 -0.0046  0.2903  0.0401
  906W        W 4650   7.419   7.548   0.646  0.0930  0.3400  0.2532
  907W        W 4651   3.854   2.025  10.312  0.0183 -0.2857  0.0241
  908W        W 4652   4.098   6.074  11.803  0.2669 -0.3212 -0.1501
  909W        W 4653   3.204   8.861   3.180 -0.0319  0.0183  0.1503
  910W        W 4654   6.084   4.109   0.861 -0.0362 -0.2904  0.0905
  911W        W 4655   8.793   8.570   9.470 -0.2786 -0.2833  0.0548
  912W        W 4656   8.454   2.975  12.339  0.0470  0.0398  0.1023
  913W        W 4657   6.151   7.546   8.951 -0.0374 -0.1548 -0.0799
  914W        W 4658   0.735   3.890   9.370  0.0191  0.2768  0.0658
  915W        W 4659   2.980   0.745  11.137  0.4394  0.2228  0.0438
  916W        W 4660   8.804   5.897  12.810 -0.1864  0.3664 -0.2027
  917W        W 4661   2.793   6.857  10.419 -0.1807 -0.1410  0.0029
  918W        W 4662   1.927   6.842   4.436  0.0757 -0.1089  0.2597
  919W        W 4663   3.600   9.789   0.586  0.3650 -0.0757 -0.0850
  920W        W 4664   8.937   6.238  11.699  0.1518 -0.0970 -0.2165
  921W        W 4665   1.810   6.277  11.054 -0.3640 -0.0469 -0.0237
  922W        W 4666   4.986   4.175  12.341 -0.1482  0.1956 -0.2476
  923W        W 4667   2.721   3.133   2.993  0.1805 -0.0427 -0.1025
  924W        W 4668   3.061   7.403  12.355  0.1316 -0.0264  0.2632
  925W        W 4669   2.439   9.777   9.184  0.2311 -0.1240  0.1654
  926W        W 4670   2.049   9.208  10.320 -0.1033 -0.0144  0.0397
  927W        W 4671   7.652   2.569   1.747  0.1516  0.1324  0.1667
  928W        W 4672   9.298   6.568  11.837  0.0877  0.2050 -0.1712
  929W        W 4673   3.502   8.583   8.791  0.2750  0.0374  0.1574
  930W        W 4674   9.585   3.946   1.846 -0.0516 -0.0733  0.0039
  931W        W 4675   6.285   5.729   9.540  0.0157 -0.0379  0.1871
  932W        W 4676   4.014   7.069   3.436  0.2538  0.0521  0.1159
  933W        W 4677   0.318   3.307   8.976  0.4399  0.0019 -0.1634
  934W        W 4678   5.154   5.053  11.407 -0.4621 -0.2367 -0.0777
  935W        W 4679   6.426   9.300   2.464  0.1853 -0.0683  0.0515
  936W        W 4680   7.811   5.215   3.496  0.5055  0.3449 -0.1506
  937W        W 4681   8.366   7.124  11.800 -0.0115 -0.0211 -0.0208
  938W        W 4682   2.796   3.179   2.461  0.1292  0.0927 -0.1191
  939W        W 4683   7.327   3.397  11.687 -0.3884 -0.0504 -0.0729
  940W        W 4684   8.136   4.321  11.862 -0.0288  0.0522 -0.2043
  941W        W 4685   9.119   6.741   0.831 -0.1243 -0.0760  0.0740
  942W        W 4686   5.029   6.767   2.218  0.2077  0.0929  0.2257
  943W        W 4687   1.695   2.105   4.268  0.2418  0.0118 -0.0245
  944W        W 4688   0.687   0.515   2.537 -0.3223  0.2009  0.1576
  945W        W 4689   7.916   6.208   8.509  0.0794 -0.1340  0.1116
  946W        W 4690   4.025   4.319  10.203  0.2646  0.1377 -0.0664
  947W        W 4691   5.861   4.810   1.471  0.1009 -0.0303 -0.1134
  948W        W 4692   6.163   8.056   8.720  0.0130  0.1650  0.0193
  949W        W 4693   2.282   5.055  11.243 -0.1171 -0.0501  0.2216
  950W        W 4694   3.720   6.281   5.264  0.1028  0.0018 -0.0988
  951W        W 4695   4.547   3.154  11.679  0.3146 -0.2050 -0.0891
  952W        W 4696   3.810   3.495   8.632 -0.4335 -0.1406 -0.2366
  953W        W 4697   4.895   7.100   3.642 -0.1798 -0.0250  0.0040
  954W        W 4698   4.375   1.506   8.376 -0.1545  0.0807 -0.3662
  955W        W 4699   3.997   3.754   0.468  0.1578 -0.4711 -0.0537
  956W        W 4700   7.375   3.208  10.334 -0.2117 -0.2713  0.2475
  957W        W 4701   2.095   3.793   3.862 -0.2092  0.1036  0.1810
  958W        W 4702   3.348   6.756   9.887  0.1495 -0.3693  0.0873
  959W        W 4703   1.631   7.741  10.600 -0.2886  0.0381  0.3867
  960W        W 4704   5.613   2.496  10.434 -0.2268 -0.0206  0.1402
  961W        W 4705   6.414   9.091  12.047  0.0199 -0.2483  0.1031
  962W        W 4706   3.908   8.113   0.874 -0.0916 -0.4469  0.0025
  963W        W 4707   5.871   2.402  12.319  0.1728  0.0750  0.0605
  964W        W 4708   3.123   1.311  12.136  0.2756  0.0773 -0.0093
  965W        W 4709   4.725   7.483   3.943 -0.0259  0.2606 -0.0799
  966W        W 4710   2.570   5.448  10.396 -0.1784  0.0069 -0.0148
  967W        W 4711   8.212   5.387   8.017 -0.0027  0.2840  0.3810
  968W        W 4712   5.914   8.090   2.796 -0.1495  0.2625 -0.0363
  969W        W 4713   3.438   1.749  10.339  0.0438  0.4476 -0.0020
  970W        W 4714   3.665   4.953   2.876 -0.2508 -0.3049 -0.2017
  971W        W 4715   1.444   8.872   3.782  0.3990  0.1189 -0.1495
  972W        W 4716   4.189   2.949   0.794 -0.0305  0.2172  0.0838
  973W        W 4717   5.431   8.146  11.831 -0.1451 -0.0732  0.2960
  974W        W 4718   1.889   0.712   1.373 -0.3491 -0.0190  0.2657
  975W        W 4719   1.079   9.584   2.357  0.0986 -0.3462  0.1500
  976W        W 4720   9.502   2.359  11.080  0.4112 -0.0475 -0.1834
  977W        W 4721   7.832   4.449  10.971  0.0873 -0.1295 -0.3789
  978W        W 4722   0.729   3.372   4.517 -0.0019 -0.0825 -0.0512
  979W        W 4723   7.674   5.252   2.659  0.1256 -0.0553  0.1266
  980W        W 4724   9.005   2.586   2.711 -0.0583 -0.3388  0.1570
  981W        W 4725   2.348   4.908   9.487 -0.1773 -0.1118 -0.0636
  982W        W 4726   2.748   2.381  12.611 -0.0962  0.2992  0.1956
  983W        W 4727   4.961   6.352   8.822 -0.1014 -0.1442 -0.0148
  984W        W 4728   3.556   7.653  11.770  0.2444  0.1299 -0.0093
  985W        W 4729   6.270   7.175   9.378 -0.0898  0.3194  0.2502
  986W        W 4730   0.735   3.817   3.751  0.1584 -0.1053  0.1790
  987W        W 4731   2.534   2.383   2.222  0.2146 -0.1929  0.1736
  988W        W 4732   8.353   2.886  12.870 -0.0116 -0.2714  0.3073
  989W        W 4733   2.797   5.706  11.379 -0.2349  0.0293 -0.0633
  990W        W 4734   6.528   7.559   4.487  0.0440 -0.0986 -0.1411
  991W        W 4735   9.202   8.172  10.126  0.3165 -0.1224  0.1598
  992W        W 4736   3.454   6.193  10.197 -0.0439  0.0041 -0.1784
  993W        W 4737   3.054   9.868   9.081  0.3161  0.0496 -0.3443
  994W        W 4738   1.980   7.048   0.918 -0.0163 -0.0548  0.0901
  995W        W 4739   4.023   8.396   4.520  0.2109  0.4193  0.2915
  996W        W 4740   5.548   8.950   3.357 -0.0551 -0.2567  0.1468
  997W        W 4741   2.040   3.549   9.132  0.2825  0.1026 -0.1048
  998W        W 4742   5.280   6.068   8.582  0.0799 -0.2045 -0.1924
  999W        W 4743   3.525   6.126   2.043  0.2813 -0.0190 -0.1154
 1000W        W 4744   1.244   2.389   0.071 -0.0102  0.0269 -0.0713
 1001W        W 4745   2.692   3.162   0.239 -0.1035 -0.2260 -0.0063
 1002W        W 4746   5.577   8.462   9.735  0.2313  0.0209 -0.1058
 1003W        W 4747   2.531   9.370   8.912 -0.2545 -0.1786  0.0487
 1004W        W 4748   7.086   6.411   4.726 -0.1620 -0.2065  0.2282
 1005W        W 4749   3.306   3.163  12.535 -0.0117  0.0638  0.3098
 1006W        W 4750   8.316   8.846  12.691 -0.1305  0.0869  0.0374
 1007W        W 4751   6.974   8.389   8.876  0.1571 -0.1619 -0.0350
 1008W        W 4752   2.985   2.273  10.088 -0.0061  0.0770  0.1043
 1009W        W 4753   6.108   8.818   0.479 -0.0013  0.1954 -0.1867
 1010W        W 4754   2.624   6.628   2.484 -0.1415  0.0162 -0.0058
 1011W        W 4755   6.365   4.757   8.943 -0.0770  0.0873  0.0104
 1012W        W 4756   8.408   8.495   0.112  0.0566  0.1216  0.1454
 1013W        W 4757   5.874   2.074  10.549 -0.1892 -0.2671 -0.2726
 1014W        W 4758   6.095   2.977   1.977 -0.2103 -0.1353  0.2635
 1015W        W 4759   7.437   5.749  10.457  0.2557 -0.0430  0.0339
 1016W        W 4760   8.434   5.636   2.331 -0.0441  0.0860  0.0082
 1017W        W 4761   8.499   2.394   0.287 -0.1814  0.1539  0.2559
 1018W        W 4762   9.101   7.378  11.385 -0.0051 -0.1058  0.0316
 1019W        W 4763   5.576   6.461   9.585 -0.2560 -0.4164  0.2905
 1020W        W 4764   3.207   0.676   0.045 -0.0514 -0.2267  0.0489
 1021W        W 4765   9.860   6.478  12.585 -0.0908 -0.1895 -0.0185
 1022W        W 4766   3.235   4.657   9.047  0.1580  0.1006 -0.0827
 1023W        W 4767   6.426   5.581   0.465  0.0882  0.1184 -0.1281
 1024W        W 4768   3.425   2.727   4.596 -0.3512  0.1063 -0.3144
 1025W        W 4769   7.220   5.990  10.074  0.2803 -0.1617  0.0301
 1026W        W 4770   4.450   9.466   2.222  0.2207 -0.0693 -0.0077
 1027W        W 4771   1.140   0.328   3.934 -0.3035 -0.2515  0.0509
 1028W        W 4772   5.674   4.588   1.874 -0.3970  0.3004  0.0113
 1029W        W 4773   9.712   9.383   3.320  0.0530 -0.0431 -0.2764
 1030W        W 4774   4.511   8.971  11.308 -0.3372  0.1534 -0.1332
 1031W        W 4775   6.874   4.443   1.943  0.1153 -0.0961 -0.0656
 1032W        W 4776   4.580   4.496  10.931  0.0230  0.0202 -0.1550
 1033W        W 4777   3.352   7.690   8.874 -0.1477  0.1282 -0.0384
 1034W        W 4778   7.430   5.477   0.240 -0.5424 -0.2596  0.1331
 1035W        W 4779   4.528   5.735   1.389 -0.2074 -0.3274  0.1384
 1036W        W 4780   5.155   8.599   1.269  0.2604  0.1294  0.0887
 1037W        W 4781   0.683   9.573  10.104  0.1743 -0.0178 -0.2093
 1038W        W 4782   8.891   4.317   2.519 -0.0357  0.0476  0.2354
 1039W        W 4783   8.014   9.217   4.026 -0.0371 -0.1484  0.0133
 1040W        W 4784   9.620   3.656  10.342  0.0864  0.2934 -0.1809
 1041W        W 4785   7.856   3.673  11.775 -0.1888  0.1665 -0.0354
 1042W        W 4786   1.746   1.622  10.713  0.1437 -0.2846 -0.2588
 1043W        W 4787   6.348   6.220   1.851 -0.3881 -0.1334 -0.4747
 1044W        W 4788   7.873   2.431   2.195  0.1825 -0.2430 -0.2545
 1045W        W 4789   3.997   6.983   8.477 -0.2272 -0.0785 -0.0715
 1046W        W 4790   0.402   5.763   9.708  0.3788  0.0492  0.1326
 1047W        W 4791   6.724   8.326  11.810  0.0470  0.0952 -0.2150
 1048W        W 4792   2.107   0.250   4.012 -0.2395 -0.0086  0.1827
 1049W        W 4793   9.521   8.969   8.719 -0.0996 -0.0763  0.0058
 1050W        W 4794   7.833   4.023  10.715  0.1623 -0.2174  0.0224
 1051W        W 4795   0.994   9.595   0.563 -0.1519  0.0983  0.2393
 1052W        W 4796   5.139   9.216   3.526  0.1827  0.0673  0.0956
 1053W        W 4797   0.565   9.641  11.830  0.4005 -0.0164  0.2738
 1054W        W 4798   6.110   6.759   4.814 -0.1550 -0.0460  0.0825
 1055W        W 4799   0.556   5.369   0.414 -0.0517  0.1678  0.0243
 1056W        W 4800   3.194   2.356   0.607 -0.1104  0.5183  0.2363
 1057W        W 4801   5.063   8.657   0.772 -0.1272 -0.2166  0.1972
 1058W        W 4802   4.266   3.491   3.018  0.2271 -0.0032 -0.1495
 1059W        W 4803   9.100   9.072   0.430  0.1160 -0.2864  0.0084
 1060W        W 4804   8.440   1.738   1.673  0.2571 -0.0041  0.2330
 1061W        W 4805   1.183   2.035   9.571  0.0867 -0.3814  0.2428
 1062W        W 4806   7.235   2.366   0.219  0.0119  0.1296 -0.0206
 1063W        W 4807   0.219   7.698  11.026  0.1140 -0.0551 -0.0771
 1064W        W 4808   3.981   4.234   0.589  0.1410  0.0186  0.2644
 1065W        W 4809   8.417   4.631   1.851 -0.0510 -0.3003 -0.1175
 1066W        W 4810   5.013   1.016   1.116  0.0753 -0.3118 -0.0522
 1067W        W 4811   4.837   5.988  12.415  0.2518  0.1647 -0.2479
 1068W        W 4812   7.553   3.815  12.568  0.0164  0.0533  0.1172
 1069W        W 4813   4.718   7.527   2.172 -0.1061  0.0123 -0.2211
 1070W        W 4814   9.713   8.057   8.757 -0.2753 -0.1073 -0.4596
 1071W        W 4815   8.561   1.379   9.773 -0.0366 -0.1754  0.1548
 1072W        W 4816   1.684   9.229   9.919 -0.0615 -0.0128 -0.0331
 1073W        W 4817   5.308   0.044  11.810  0.0181  0.0209  0.0107
 1074W        W 4818   0.557   7.730   1.319  0.0121 -0.2961  0.3424
 1075W        W 4819   0.937   3.787   9.852 -0.3754 -0.3697 -0.1517
 1076W        W 4820   1.090   6.227  11.922 -0.2988 -0.1828 -0.2603
 1077W        W 4821   4.470   1.464   4.197 -0.4561  0.3555  0.1317
 1078W        W 4822   5.417   4.147   1.727  0.0226 -0.0651 -0.1616
 1079W        W 4823   5.799   2.701   3.000 -0.1340  0.0781  0.1425
 1080W        W 4824   7.187   9.104   9.572  0.0843  0.2708 -0.1470
 1081W        W 4825   0.605   5.200  11.694 -0.1555 -0.2185 -0.0745
 1082W        W 4826   7.770   4.536  12.228  0.0499  0.0589  0.1771
 1083W        W 4827   4.775   1.662   1.487  0.1281 -0.1119  0.3122
 1084W        W 4828   3.350   0.779  10.144 -0.1103  0.1699 -0.1043
 1085W        W 4829   0.508   0.463   9.292  0.3531  0.4226 -0.1038
 1086W        W 4830   0.780   9.243  11.670 -0.1986  0.3687  0.0182
 1087W        W 4831   5.805   1.562  12.547  0.3468 -0.0790 -0.1215
 1088W        W 4832   7.083   7.888  10.896  0.1770  0.1405 -0.1410
 1089W        W 4833   4.019   7.258   9.953  0.1353 -0.1722 -0.1538
 1090W        W 4834   5.122   9.834  10.572  0.0750  0.0837  0.0929
 1091W        W 4835   0.059   6.310   0.948  0.0949  0.2101 -0.1184
 1092W        W 4836   4.394   7.588  10.603  0.0835  0.4489  0.0895
 1093W        W 4837   0.593   2.430  11.946 -0.1656 -0.3012 -0.4344
 1094W        W 4838   8.017   3.289   0.608  0.1206 -0.0408 -0.1509
 1095W        W 4839   8.036   7.159   9.432 -0.0062 -0.2299 -0.1128
 1096W        W 4840   1.010   0.307   9.069 -0.3905 -0.1229  0.2109
 1097W        W 4841   9.855   3.324  11.328  0.1541  0.0658 -0.1656
 1098W        W 4842   2.061   3.069   9.313 -0.1945 -0.0991 -0.1304
 1099W        W 4843   6.628   0.316   1.156  0.0013 -0.2534  0.0006
 1100W        W 4844   1.535   8.777   2.776  0.0695  0.2543 -0.1090
 1101W        W 4845   7.405   7.191  10.798  0.3526 -0.0756  0.0372
 1102W        W 4846   7.298   5.024   9.240  0.0145  0.1417  0.0293
 1103W        W 4847   3.031   1.241   0.892 -0.2771  0.2095  0.1675
 1104W        W 4848   4.857   4.409   1.161  0.1652  0.0493  0.0592
 1105W        W 4849   9.276   1.933  10.861  0.4068  0.2711 -0.1333
 1106W        W 4850   3.642   7.990   3.355  0.0440 -0.0217  0.4292
 1107W        W 4851   2.215   6.941   2.567  0.0494 -0.0392  0.1849
 1108W        W 4852   8.317   6.983   8.994  0.0844  0.1550  0.0782
 1109W        W 4853   6.508   0.148  11.154 -0.1930  0.1189  0.0902
 1110W        W 4854   0.748   4.098   1.872  0.0808 -0.2461  0.1097
 1111W        W 4855   7.350   3.975   3.481 -0.0626  0.0447  0.2682
 1112W        W 4856   8.896   4.897   8.269 -0.1442  0.0014 -0.0299
 1113W        W 4857   3.293   1.839  11.871 -0.1556 -0.1520  0.3000
 1114W        W 4858   4.238   5.058  12.473 -0.3620 -0.0428  0.1031
 1115W        W 4859   3.371   5.707  10.231  0.0276 -0.0814 -0.0006
 1116W        W 4860   9.268   3.300   3.208  0.1471  0.0694  0.0066
 1117W        W 4861   8.588   8.420  12.231  0.1780  0.3248  0.1302
 1118W        W 4862   7.781   9.615  12.948  0.1041 -0.2716  0.2093
 1119W        W 4863   6.849   4.934   1.727  0.2144 -0.3558 -0.4084
 1120W        W 4864   3.701   6.011  10.679  0.0256  0.1296  0.1773
 1121W        W 4865   0.519   0.434   0.605  0.0296 -0.1206 -0.0341
 1122W        W 4866   7.852   7.362  11.009  0.0561 -0.2276  0.5550
 1123W        W 4867   7.450   7.125  11.974  0.0665  0.1795 -0.4798
 1124W        W 4868   8.515   8.993   0.809 -0.1369  0.0882  0.2551
 1125W        W 4869   9.136   6.371   2.483 -0.0262 -0.0538 -0.4344
 1126W        W 4870   3.196   4.536  12.855 -0.3225 -0.2356 -0.3831
 1127W        W 4871   9.797   5.527  11.204 -0.3505 -0.3515  0.1001
 1128W        W 4872   2.548   2.044   3.665  0.3102 -0.0582 -0.3391
 1129W        W 4873   9.700   2.813  11.226  0.0664 -0.1225 -0.2268
 1130W        W 4874   7.902   7.859  10.392  0.1090  0.3711 -0.0670
 1131W        W 4875   3.045   1.921   8.898 -0.0071 -0.1983 -0.1285
 1132W        W 4876   1.822   9.457   8.597 -0.0815  0.2637  0.1846
 1133W        W 4877   0.916   4.460   1.473 -0.1731 -0.0764  0.1827
 1134W        W 4878   5.038   6.233  10.799  0.0391 -0.1283 -0.1015
 1135W        W 4879   0.185   2.193   9.651 -0.4915  0.1099  0.4521
 1136W        W 4880   9.096   0.064   9.638 -0.0222  0.1062 -0.4015
 1137W        W 4881   8.263   0.220   9.096  0.3125  0.1473 -0.2923
 1138W        W 4882   0.698   0.032   1.528  0.2053 -0.0315 -0.1264
 1139W        W 4883   2.148   9.691   1.665 -0.0685  0.5163  0.0566
 1140W        W 4884   3.760   5.547   4.196  0.1649 -0.1652 -0.0357
 1141W        W 4885   4.597   0.952   4.973 -0.0265  0.2014 -0.1736
 1142W        W 4886   1.779   0.695  10.504 -0.3475 -0.0781  0.0199
 1143W        W 4887   4.830   0.114  12.223 -0.0083 -0.1424 -0.1318
 1144W        W 4888   3.779   3.507   3.743 -0.0361  0.1024  0.2607
 1145W        W 4889   2.198   2.493   2.628  0.0545  0.2331  0.1269
 1146W        W 4890   3.634   0.899   4.837 -0.1174 -0.0637 -0.2127
 1147W        W 4891   8.322   4.739  12.664  0.0175  0.2014  0.0784
 1148W        W 4892   2.813   9.502   8.392  0.0760 -0.0263  0.3672
 1149W        W 4893   6.907   3.143   1.135 -0.1355  0.0491 -0.1007
 1150W        W 4894   2.823   7.031  11.540 -0.0547 -0.0578  0.1231
 1151W        W 4895   1.554   3.073   3.369  0.0641 -0.1607 -0.0378
 1152W        W 4896   1.892   8.214   2.162 -0.2395  0.2200 -0.1371
 1153W        W 4897   4.074   3.397   2.359  0.0395  0.0658 -0.1204
 1154W        W 4898   6.822   9.306   2.722 -0.0583  0.0875  0.0078
 1155W        W 4899   2.619   5.835   8.758 -0.1249  0.0693  0.1691
 1156W        W 4900   9.251   2.575   0.034 -0.1636  0.0090  0.0423
 1157W        W 4901   5.687   0.153   1.378 -0.0716 -0.1519 -0.1229
 1158W        W 4902   8.843   1.854   2.471 -0.2329  0.1500 -0.2425
 1159W        W 4903   4.383   3.180  10.742 -0.1690  0.0917  0.2205
 1160W        W 4904   9.198   1.497   2.329 -0.1333  0.1117  0.1129
 1161W        W 4905   1.474   4.084  11.470  0.0425 -0.0001  0.1187
 1162W        W 4906   2.370   7.419   1.714 -0.1440 -0.1897  0.1332
 1163W        W 4907   2.349   8.416  10.757 -0.1554  0.1264  0.1235
 1164W        W 4908   6.837   4.105   3.363  0.0925 -0.2065 -0.2369
 1165W        W 4909   3.868   8.393   3.175  0.1681  0.1847 -0.2585
 1166W        W 4910   9.514   4.261  10.180  0.0481 -0.0949 -0.2706
 1167W        W 4911   8.450   5.112  11.957 -0.2048 -0.2151  0.1095
 1168W        W 4912   0.432   2.096  10.526  0.1104 -0.1673  0.0682
 1169W        W 4913   1.716   8.162   2.638 -0.2181  0.3346 -0.1550
 1170W        W 4914   2.264   7.317   9.154 -0.1477 -0.0764  0.0390
 1171W        W 4915   0.246   4.028  12.921  0.2474  0.0750 -0.2479
 1172W        W 4916   5.108   7.499  11.170  0.1484 -0.1025 -0.1826
 1173W        W 4917   9.573   8.358  12.398  0.4703  0.0561  0.0117
 1174W        W 4918   5.119   9.207   1.484  0.1188 -0.0256  0.2286
 1175W        W 4919   3.743   7.688   8.472  0.0158  0.0789 -0.1759
 1176W        W 4920   8.428   2.149   3.157 -0.0708  0.1304 -0.3085
 1177W        W 4921   1.316   1.591  10.433  0.0764 -0.1414 -0.1551
 1178W        W 4922   8.449   5.026  11.188  0.1753 -0.0562 -0.1867
 1179W        W 4923   7.985   5.695   9.226 -0.3326  0.1749  0.2976
 1180W        W 4924   1.813   8.441   9.460 -0.2752 -0.4309 -0.1492
 1181W        W 4925   9.586   5.162   2.099 -0.1602  0.0734 -0.1470
 1182W        W 4926   6.427   6.067   0.153 -0.1368 -0.0286 -0.0313
 1183W        W 4927   1.572   2.258   0.918 -0.0556 -0.0942  0.3520
 1184W        W 4928   6.274   0.361   2.509 -0.4812  0.2072  0.1380
 1185W        W 4929   8.322   6.504   4.055  0.0634 -0.0880 -0.0588
 1186W        W 4930   3.219   7.620   9.725 -0.1193  0.2610  0.0036
 1187W        W 4931   7.640   2.273  10.620  0.0539  0.0109 -0.1312
 1188W        W 4932   6.759   0.529  11.936  0.0397 -0.0133 -0.0637
 1189W        W 4933   4.782   7.403   9.089 -0.3672  0.2731  0.1107
 1190W        W 4934   7.118   5.625   9.718  0.0463 -0.1068 -0.1773
 1191W        W 4935   3.476   9.524  11.391 -0.5036  0.3796  0.1275
 1192W        W 4936   9.594   8.436   9.916 -0.0252 -0.0338  0.1809
 1193W        W 4937   1.094   4.080   0.541  0.1591 -0.2532 -0.1006
 1194W        W 4938   0.973   0.735   2.194  0.0522 -0.3743  0.2025
 1195W        W 4939   0.813   5.317   3.817  0.0954  0.3463  0.0631
 1196W        W 4940   5.312   0.834   2.586 -0.0261 -0.0460  0.6816
 1197W        W 4941   1.945   8.411   8.736 -0.1652  0.2814  0.0862
 1198W        W 4942   5.102   0.638   9.100  0.0578  0.0734  0.0614
 1199W        W 4943   2.881   9.707   3.248 -0.1135 -0.3918 -0.0697
 1200W        W 4944   7.437   3.132   0.915 -0.0266 -0.0080  0.2069
 1201W        W 4945   2.327   1.447  10.063 -0.2674  0.3488 -0.2475
 1202W        W 4946   8.978   0.605   1.082 -0.0488 -0.0830  0.1609
 1203W        W 4947   1.134   0.385   1.808  0.1339 -0.0340 -0.1936
 1204W        W 4948   4.685   8.991   3.393  0.0679  0.1345  0.1827
 1205W        W 4949   3.955   4.806  10.090 -0.0542 -0.0481  0.1857
 1206W        W 4950   0.793   8.318  10.560  0.3247  0.4355  0.1861
 1207W        W 4951   9.489   4.651  12.342 -0.4042 -0.0200 -0.2069
 1208W        W 4952   8.860   4.615   8.641  0.0718  0.3494 -0.0002
 1209W        W 4953   1.387   0.638   9.634  0.1067  0.2377 -0.1395
 1210W        W 4954   8.373   0.752  11.912 -0.0647 -0.1564  0.1104
 1211W        W 4955   8.143   3.436  11.380  0.0211  0.0115 -0.1396
 1212W        W 4956   4.028   5.091   4.064 -0.1963 -0.0520  0.2308
 1213W        W 4957   1.675   9.271  12.555 -0.3056  0.0045 -0.2125
 1214W        W 4958   3.604   2.957   3.587 -0.2694 -0.2669 -0.1134
 1215W        W 4959   7.882   9.756   2.253 -0.0158 -0.2505  0.0707
 1216W        W 4960   6.304   3.948   1.263 -0.1557  0.1567  0.0125
 1217W        W 4961   0.086   2.676   1.897  0.2320 -0.3057 -0.1388
 1218W        W 4962   2.445   3.327  12.733 -0.0436 -0.2373 -0.2515
 1219W        W 4963   9.743   5.658   2.057 -0.0994 -0.3128  0.0500
 1220W        W 4964   1.801   8.070  12.191 -0.1363 -0.1029 -0.0024
 1221W        W 4965   2.605   5.034   3.158  0.4180 -0.1945  0.2229
 1222W        W 4966   6.690   0.429   2.908  0.2220 -0.0696 -0.2012
 1223W        W 4967   9.858   1.967  11.571  0.3104 -0.2051  0.1435
 1224W        W 4968   8.844   6.333   8.716  0.2296  0.2882 -0.0038
 1225W        W 4969   3.360   5.057   9.407 -0.1270 -0.2798  0.4459
 1226W        W 4970   9.656   5.803  12.122 -0.1179  0.0147 -0.0184
 1227W        W 4971   0.635   7.495  11.124  0.0833 -0.0704  0.1789
 1228W        W 4972   0.407   0.898   2.134 -0.0256  0.0236  0.0893
 1229W        W 4973   4.691   7.644  10.932 -0.3084  0.0995 -0.0480
 1230W        W 4974   2.106   7.139  12.461 -0.1224  0.1421 -0.0836
 1231W        W 4975   1.113   9.534  11.867 -0.1313 -0.1845 -0.1100
 1232W        W 4976   7.989   0.550   3.188  0.0432 -0.0357 -0.0747
 1233W        W 4977   5.519   2.594  11.562 -0.1692  0.0805  0.1620
 1234W        W 4978   3.310   0.874   1.692  0.1583 -0.0137 -0.2532
 1235W        W 4979   8.773   6.265  10.145 -0.2482  0.3234  0.1696
 1236W        W 4980   7.433   6.785   7.911 -0.0727 -0.1045  0.0705
 1237W        W 4981   8.825   6.461   1.739 -0.1913  0.1429  0.1602
 1238W        W 4982   0.832   3.747  10.722 -0.0984  0.2034  0.2576
 1239W        W 4983   7.979   9.716   9.269 -0.1149 -0.1989 -0.0750
 1240W        W 4984   8.665   2.975   2.641  0.2478 -0.0413 -0.0723
 1241W        W 4985   0.724   6.430   4.675 -0.1594 -0.2243 -0.0474
 1242W        W 4986   0.359   5.856   9.071 -0.0156 -0.0899 -0.2190
 1243W        W 4987   5.861   8.442   3.204  0.0611  0.0886 -0.0608
 1244W        W 4988   4.534   7.457   2.670 -0.0800  0.2699 -0.1284
 1245W        W 4989   0.038   2.864  12.630  0.0204 -0.1684  0.1308
 1246W        W 4990   1.947   1.527   0.033 -0.3816 -0.1486  0.2566
 1247W        W 4991   7.956   6.176   4.137 -0.1956 -0.3277  0.1171
 1248W        W 4992   5.247   0.817  10.937 -0.0654 -0.2188 -0.0153
 1249W        W 4993   7.189   8.455   4.570  0.0475  0.3423  0.2839
 1250W        W 4994   5.709   6.131   2.632  0.0254 -0.2252 -0.4471
 1251W        W 4995   5.878   3.210  12.625 -0.1137 -0.0999 -0.1165
 1252W        W 4996   5.977   3.183  12.062  0.1725  0.1299 -0.3447
 1253W        W 4997   6.612   3.604  11.365  0.1242  0.0532 -0.1263
 1254W        W 4998   8.842   4.231  11.295  0.0434 -0.0812  0.2431
 1255W        W 4999   0.884   7.464  10.661 -0.0252 -0.0434 -0.1087
 1256W        W 5000   5.111   1.059   2.947  0.1424 -0.1519 -0.1295
 1257W        W 5001   2.642   7.436   1.213 -0.0482  0.2099  0.1986
 1258W        W 5002   2.233   5.814   1.757  0.4010  0.2116 -0.1498
 1259W        W 5003   0.373   0.287   3.809  0.0443 -0.1565 -0.1486
 1260W        W 5004   9.143   0.604   9.989 -0.1660  0.1894 -0.1127
 1261W        W 5005   9.700   7.940   0.867  0.0340 -0.0652  0.0876
 1262W        W 5006   1.316   1.996  11.972  0.0513 -0.0330  0.0691
 1263W        W 5007   5.309   4.801  12.461  0.1474 -0.0097 -0.0221
 1264W        W 5008   3.984   5.173   1.940 -0.1520  0.3039 -0.0331
 1265W        W 5009   9.819   5.870  11.553 -0.0750  0.0762 -0.3364
 1266W        W 5010   1.201   7.768   9.957  0.1235  0.0527  0.2003
 1267W        W 5011   1.875   9.215   3.381  0.0954  0.1916  0.1502
 1268W        W 5012   4.861   1.476  11.801 -0.0438 -0.0955  0.0203
 1269W        W 5013   6.032   6.915   8.939  0.0201 -0.4681 -0.1064
 1270W        W 5014   6.466   5.680   1.713 -0.0479  0.2335  0.2730
 1271W        W 5015   8.265   7.921   0.397  0.0250  0.0637  0.0160
 1272W        W 5016   4.780   4.705   0.695 -0.1657 -0.6679 -0.1753
 1273W        W 5017   9.515   9.484  11.709  0.0363  0.2188 -0.0495
 1274W        W 5018   5.874   9.422  10.368  0.2684 -0.0013 -0.1075
 1275W        W 5019   6.403   9.071   3.586 -0.1479 -0.1623 -0.1854
 1276W        W 5020   0.766   5.121   9.619  0.0813  0.0549  0.2175
 1277W        W 5021   5.599   0.497  10.832  0.0189  0.2270  0.2119
 1278W        W 5022   5.408   3.371  11.768  0.1209  0.2298  0.1132
 1279W        W 5023   3.664   4.665   8.685  0.1495  0.2655 -0.2312
 1280W        W 5024   2.408   7.040   1.383  0.0064  0.0484  0.1962
 1281W        W 5025   9.850   4.187   4.104 -0.2139 -0.1639 -0.1897
 1282W        W 5026   1.223   9.045  11.731 -0.3883  0.1170 -0.1796
 1283W        W 5027   4.748   2.480  12.592  0.0820 -0.2121 -0.0041
 1284W        W 5028   6.066   7.221   0.702 -0.2944  0.1860  0.2610
 1285W        W 5029   3.945   1.131   1.771 -0.3212  0.1254 -0.0745
 1286W        W 5030   6.430   7.992   3.685 -0.1795 -0.3392 -0.0258
 1287W        W 5031   3.472   0.801   8.534 -0.0777 -0.0462 -0.0354
 1288W        W 5032   6.638   2.045   3.148  0.0292 -0.1041  0.1069
 1289W        W 5033   1.543   9.504   2.528 -0.0113 -0.5058 -0.1016
 1290W        W 5034   7.523   7.256   0.191  0.0649  0.1747 -0.2745
 1291W        W 5035   1.931   8.469   3.000  0.1720  0.0357 -0.1236
 1292W        W 5036   3.762   0.651   1.635  0.0081 -0.4325 -0.2642
 1293W        W 5037   3.617   1.908   9.768  0.1178 -0.0688  0.3124
 1294W        W 5038   8.383   2.612   3.518 -0.1692  0.1642  0.0667
 1295W        W 5039   2.511   1.858   0.880  0.1075 -0.0964 -0.0437
 1296W        W 5040   0.603   7.556   1.894  0.1061 -0.0490 -0.2812
 1297W        W 5041   2.525   5.177   9.919 -0.1087 -0.2028 -0.1493
 1298W        W 5042   1.192   8.120   1.989  0.1086  0.0836 -0.2707
 1299W        W 5043   3.058   2.628   1.799  0.1496 -0.0217 -0.2668
 1300W        W 5044   2.719   5.237   9.414  0.0016 -0.0167 -0.1644
 1301W        W 5045   4.646   9.677  10.502 -0.3201 -0.1388 -0.2130
 1302W        W 5046   3.294   6.786  11.672 -0.0203  0.4151  0.1251
 1303W        W 5047   5.494   5.007   3.624  0.1947 -0.1359 -0.0449
 1304W        W 5048   6.619   8.064  10.920  0.3159 -0.0668 -0.2203
 1305W        W 5049   3.739   4.026  12.047 -0.0904 -0.0294 -0.3767
 1306W        W 5050   2.815   4.370   1.636  0.0044 -0.1927 -0.3104
 1307W        W 5051   1.119   1.504   1.201 -0.0849 -0.2040 -0.2104
 1308W        W 5052   1.651   5.969  12.881 -0.0012  0.0825 -0.0985
 1309W        W 5053   3.165   3.893  12.904  0.1031  0.0156 -0.0242
 1310W        W 5054   1.721   3.002  11.959 -0.0933 -0.1245  0.1956
 1311W        W 5055   0.019   9.389   0.239  0.0469 -0.1359  0.1810
 1312W        W 5056   9.547   1.611  11.739 -0.1067 -0.1309  0.0223
 1313W        W 5057   2.305   2.620   5.015  0.2652  0.1479  0.0203
 1314W        W 5058   4.786   1.466   2.821  0.0551 -0.1332  0.1099
 1315W        W 5059   4.501   8.654  11.689  0.0520  0.1095 -0.1203
 1316W        W 5060   9.030   5.312   3.336  0.2453 -0.2305 -0.0973
 1317W        W 5061   2.087   5.806   0.110  0.1597 -0.1028 -0.2229
 1318W        W 5062   5.138   8.215   3.824 -0.0656  0.2814 -0.3951
 1319W        W 5063   7.351   3.229   1.441  0.1479  0.1766  0.4500
 1320W        W 5064   3.724   3.726   2.258 -0.1627 -0.4596  0.0290
 1321W        W 5065   7.411   9.407  11.940 -0.0864 -0.1544  0.1020
 1322W        W 5066   6.182   4.155   2.959  0.0415  0.3486  0.1052
 1323W        W 5067   5.131   8.658   0.281 -0.0639 -0.0387  0.5083
 1324W        W 5068   5.783   6.919  10.657 -0.2868 -0.3893 -0.1773
 1325W        W 5069   5.698   6.400  12.634  0.2088 -0.1979  0.1428
 1326W        W 5070   2.392   8.305   1.616  0.0660  0.0079 -0.0468
 1327W        W 5071   7.755   4.879  11.258 -0.1912  0.0391 -0.0264
 1328W        W 5072   7.227   7.142   9.109 -0.0645  0.1411  0.2467
 1329W        W 5073   0.068   4.198   1.480 -0.0369  0.3737 -0.0495
 1330W        W 5074   2.212   5.901   9.655  0.1130 -0.1583 -0.0260
 1331W        W 5075   4.249   1.476   2.034 -0.2519  0.4483  0.0761
 1332W        W 5076   2.848   2.750   1.360  0.3459  0.0970  0.0089
 1333W        W 5077   9.755   1.071   0.852 -0.0829 -0.1089  0.2028
 1334W        W 5078   4.142   8.745  12.512  0.0713 -0.1510  0.2170
 1335W        W 5079   8.642   5.021   1.516  0.1373 -0.0263 -0.0673
 1336W        W 5080   2.278   4.253   2.089 -0.4261 -0.0384 -0.3590
 1337W        W 5081   0.548   6.499   2.543  0.1036  0.0735  0.0780
 1338W        W 5082   3.874   0.833  12.816 -0.0910  0.1576 -0.0090
 1339W        W 5083   5.337   0.012   4.315  0.1725  0.1753 -0.3939
 1340W        W 5084   9.396   6.830   3.719  0.0457 -0.1371 -0.3991
 1341W        W 5085   0.788   1.613   4.063  0.0908 -0.0537 -0.0334
 1342W        W 5086   8.961   8.916   2.894 -0.0954 -0.0671  0.1230
 1343W        W 5087   5.354   4.826  11.048 -0.1147 -0.0509 -0.0764
 1344W        W 5088   9.776   3.526  10.822  0.1595 -0.3430 -0.0141
 1345W        W 5089   3.813   2.592   3.808  0.1520 -0.1124 -0.0128
 1346W        W 5090   5.709   2.211  11.352  0.0804  0.3184  0.2406
 1347W        W 5091   6.942   9.165   0.245  0.0334 -0.3080  0.2881
 1348W        W 5092   1.624   0.113   4.209  0.0949 -0.3004 -0.1031
 1349W        W 5093   5.997   0.244   0.607 -0.0535  0.2095  0.1647
 1350W        W 5094   7.405   3.110  10.834  0.0134  0.1053 -0.0537
 1351W        W 5095   4.702   1.975   9.523  0.0126 -0.0852  0.0284
 1352W        W 5096   2.735   0.534  12.588  0.1960  0.0525  0.1775
 1353W        W 5097   5.609   5.310  11.059 -0.0172 -0.3224  0.1218
 1354W        W 5098   7.119   6.805   0.300  0.1083  0.0377 -0.0528
 1355W        W 5099   9.597   0.648  10.807  0.0682 -0.1558 -0.3342
 1356W        W 5100   3.534   4.181  12.828 -0.0185 -0.3902 -0.0842
 1357W        W 5101   2.791   6.027   3.231 -0.2990  0.1042  0.0647
 1358W        W 5102   9.809   9.387  12.613 -0.1882  0.0412  0.1775
 1359W        W 5103   7.170   8.536  12.717 -0.0138 -0.0224 -0.1653
 1360W        W 5104   3.976   0.214   0.905 -0.0585  0.0272 -0.2921
 1361W        W 5105   0.553   2.480   2.746 -0.2987 -0.4650 -0.1016
 1362W        W 5106   6.231   1.968   1.838 -0.5582  0.1929 -0.0083
 1363W        W 5107   8.896   2.182   0.610 -0.1387 -0.2695 -0.0091
 1364W        W 5108   0.346   6.279   9.487  0.1140 -0.0982  0.2009
 1365W        W 5109   7.064   3.906   0.607  0.1020  0.0667 -0.1272
 1366W        W 5110   5.085   0.371   9.534  0.2768  0.3630 -0.2388
 1367W        W 5111   7.257   9.169  10.529  0.1966 -0.2908 -0.1610
 1368W        W 5112   2.962   6.306  10.521  0.0158 -0.0620  0.0966
 1369W        W 5113   4.147   8.738   1.591  0.0894 -0.0067  0.1985
 1370W        W 5114   7.106   2.243  10.682  0.0915 -0.2219 -0.0129
 1371W        W 5115   1.352   6.893   2.320  0.3275  0.1034 -0.3959
 1372W        W 5116   4.251   7.896  12.924 -0.0427  0.0030 -0.0035
 1373W        W 5117   4.476   8.031  11.897 -0.0033  0.1814 -0.3167
 1374W        W 5118   8.558   4.318  12.747 -0.0485  0.0365 -0.0340
 1375W        W 5119   4.501   8.950  12.214  0.0656  0.0080  0.1003
 1376W        W 5120   2.489   4.009   8.902  0.0309  0.1816  0.1295
 1377W        W 5121   4.296   7.310   9.018  0.2331  0.2932  0.1220
 1378W        W 5122   3.153   5.336  10.463 -0.0620  0.1364  0.0183
 1379W        W 5123   3.827   3.473  10.376 -0.1652 -0.1844  0.1965
 1380W        W 5124   6.788   8.290   9.417 -0.2451 -0.1275  0.1716
 1381W        W 5125   4.133   7.991  10.901 -0.0496  0.0991  0.0378
 1382W        W 5126   0.885   1.502   4.590 -0.1553 -0.1139 -0.1330
 1383W        W 5127   3.442   4.897   2.442 -0.0343  0.0170  0.0213
 1384W        W 5128   6.976   3.319   0.188  0.0936 -0.1154  0.1283
 1385W        W 5129   2.078   8.622  12.685 -0.1357  0.2943 -0.1094
 1386W        W 5130   7.281   1.005   1.820  0.1535  0.1080  0.0184
 1387W        W 5131   4.067   0.734   2.139 -0.4412 -0.0713 -0.0778
 1388W        W 5132   7.478   2.413   3.639 -0.1455  0.0298 -0.1523
 1389W        W 5133   3.140   1.539   5.033 -0.1144 -0.2495 -0.0493
 1390W        W 5134   0.266   5.052  11.111 -0.0774 -0.2946  0.0089
 1391W        W 5135   0.822   5.913  12.303 -0.2988 -0.1747 -0.0169
 1392W        W 5136   0.544   7.074   1.976  0.3013  0.1844 -0.0913
 1393W        W 5137   0.409   4.575   3.512 -0.1269  0.5723  0.0307
 1394W        W 5138   0.155   1.520  11.669 -0.2452  0.0227 -0.2309
 1395W        W 5139   1.935   8.400  11.836  0.2084  0.0223 -0.2112
 1396W        W 5140   8.026   5.953  11.630  0.3801 -0.0110 -0.1642
 1397W        W 5141   8.713   7.587  12.671 -0.0883  0.1418  0.2280
 1398W        W 5142   2.334   5.260   4.123 -0.2077 -0.1131 -0.2208
 1399W        W 5143   4.014   2.786   1.245  0.1774 -0.3344 -0.3388
 1400W        W 5144   6.943   4.534  12.317 -0.2950  0.0248  0.1892
 1401W        W 5145   7.312   9.498   9.940  0.2010  0.0127  0.1278
 1402W        W 5146   5.933   6.048   9.475 -0.0411  0.2540  0.0215
 1403W        W 5147   5.636   6.217   3.386 -0.3540  0.1310 -0.3276
 1404W        W 5148   8.567   9.650   2.739  0.0267 -0.0788  0.1069
 1405W        W 5149   5.787   1.302   9.919 -0.3629 -0.0320  0.2543
 1406W        W 5150   2.663   2.367   3.227  0.1056 -0.0743 -0.1475
 1407W        W 5151   4.045   0.785   0.837 -0.1777  0.0280 -0.0417
 1408W        W 5152   5.966   7.700   2.167 -0.3055  0.0296 -0.0725
 1409W        W 5153   4.701   8.510   2.081 -0.1879  0.3618  0.2908
 1410W        W 5154   6.850   3.693   1.953  0.1335  0.1686  0.0308
 1411W        W 5155   3.710   8.910   3.079  0.1745 -0.0947  0.0329
 1412W        W 5156   3.594   0.761   0.324 -0.1103  0.0124 -0.0651
 1413W        W 5157   6.047   7.096   3.954 -0.2323 -0.0107  0.0280
 1414W        W 5158   4.703   3.881  11.427  0.0963 -0.2034  0.0260
 1415W        W 5159   5.336   6.366  11.572 -0.1789  0.0828  0.3947
 1416W        W 5160   3.586   6.517  10.790 -0.0003  0.1171  0.3092
 1417W        W 5161   5.213   8.379  12.254  0.0725  0.1722 -0.1825
 1418W        W 5162   6.857   1.926   9.936 -0.3606  0.0089  0.1332
 1419W        W 5163   5.678   8.580  12.596 -0.0339  0.0097 -0.0663
 1420W        W 5164   3.614   8.550  12.501 -0.2632 -0.2440 -0.0169
 1421W        W 5165   7.620   2.411  10.050  0.3679  0.0095  0.4146
 1422W        W 5166   3.025   3.378   9.986 -0.1914 -0.0067  0.1771
 1423W        W 5167   8.256   7.098  10.894  0.0914  0.0134  0.3616
 1424W        W 5168   9.056   3.464  12.479 -0.2236 -0.1174 -0.1155
 1425W        W 5169   0.994   7.175   9.331 -0.1425  0.0145  0.3350
 1426W        W 5170   6.929   6.494   3.858 -0.0636  0.0686 -0.1965
 1427W        W 5171   9.264   4.237   9.363  0.0191 -0.2380  0.0565
 1428W        W 5172   4.039   0.551   0.380  0.0765  0.0890 -0.1306
 1429W        W 5173   5.703   9.642   2.461  0.1648  0.0092  0.2277
 1430W        W 5174   4.911   1.667  12.791  0.0888 -0.1625 -0.1196
 1431W        W 5175   2.368   4.706  12.220  0.4480 -0.2243 -0.1169
 1432W        W 5176   3.190   6.102  11.362  0.0105 -0.0783  0.1945
 1433W        W 5177   0.989   4.967   2.976  0.1042  0.2867 -0.1341
 1434W        W 5178   6.905   6.084   2.635 -0.0421 -0.1305  0.3613
 1435W        W 5179   0.689   7.880  12.381 -0.0094  0.2223  0.2070
 1436W        W 5180   5.511   0.538   3.445  0.0163  0.0816 -0.4075
 1437W        W 5181   1.657   9.130   0.238 -0.1928  0.2943  0.1252
 1438W        W 5182   5.573   8.649  12.125 -0.0266 -0.1057  0.0314
 1439W        W 5183   8.027   7.885  10.882  0.1807 -0.0210  0.1185
 1440W        W 5184   9.460   5.704  10.277  0.0815  0.0319 -0.2459
 1441W        W 5185   0.890   1.080   1.281 -0.2978 -0.0567  0.1319
 1442W        W 5186   4.993   9.501   1.009 -0.1631 -0.2155  0.0527
 1443W        W 5187   7.840   3.336   1.092  0.1960  0.2320  0.3852
 1444W        W 5188   4.200   6.566   3.560  0.1792 -0.0350 -0.1336
 1445W        W 5189   5.349   5.560   8.872 -0.0457  0.0865  0.4887
 1446W        W 5190   4.868   1.330   9.538  0.0673  0.2197 -0.0922
 1447W        W 5191   6.467   0.831   2.537 -0.0866  0.2091 -0.0521
 1448W        W 5192   5.285   8.649  10.130  0.1789  0.1644  0.2035
 1449W        W 5193   6.864   7.827   9.633  0.1176 -0.0332 -0.1637
 1450W        W 5194   5.042   8.513   2.534 -0.2081  0.2698  0.3189
 1451W        W 5195   6.535   0.618  12.374  0.3407  0.1586  0.0787
 1452W        W 5196   6.805   5.793   3.014  0.2642 -0.1482  0.0453
 1453W        W 5197   2.599   1.090  11.002 -0.0341  0.0904  0.1745
 1454W        W 5198   6.179   5.486   3.201 -0.1501  0.1379  0.0709
 1455W        W 5199   4.288   2.487   0.462 -0.1726  0.1585  0.1224
 1456W        W 5200   9.361   0.482  12.707 -0.0478  0.1170  0.2321
 1457W        W 5201   8.722   6.392  11.314  0.0820  0.0595 -0.1560
 1458W        W 5202   0.853   3.619   0.650 -0.3722 -0.0567 -0.0594
 1459W        W 5203   1.206   0.756   2.636  0.1767 -0.1398  0.0551
 1460W        W 5204   4.392   2.309   9.752 -0.1043 -0.0471  0.1336
 1461W        W 5205   2.893   8.451   9.921 -0.2713 -0.0221 -0.2470
 1462W        W 5206   8.800   4.829   0.572  0.1247  0.1406 -0.0805
 1463W        W 5207   9.747   5.376   0.811 -0.3360 -0.2472  0.1682
 1464W        W 5208   6.918   6.035   5.067 -0.0029 -0.0033 -0.1262
 1465W        W 5209   5.563   8.965   9.756 -0.0442 -0.1665  0.0866
 1466W        W 5210   0.546   4.402  12.945  0.2662  0.3154  0.0427
 1467W        W 5211   8.151   4.318  12.464  0.0201 -0.2284  0.3138
 1468W        W 5212   5.695   8.658  11.120 -0.2308  0.0453 -0.0674
 1469W        W 5213   9.379   9.539   3.968 -0.3880  0.0814  0.1072
 1470W        W 5214   4.825   4.343   3.504 -0.1015  0.0773  0.1473
 1471W        W 5215   6.776   2.421   0.515  0.2651  0.0555 -0.0005
 1472W        W 5216   4.859   4.814   1.521  0.1344  0.0955 -0.1630
 1473W        W 5217   8.504   1.596  11.625  0.2726  0.1193 -0.0020
 1474W        W 5218   7.358   2.747   1.202  0.0218  0.1346  0.4792
 1475W        W 5219   8.444   3.884   2.426  0.0659 -0.2449 -0.0826
 1476W        W 5220   4.195   7.041   2.360 -0.2094 -0.0097 -0.0140
 1477W        W 5221   2.969   8.222   2.318 -0.2401 -0.0449  0.1507
 1478W        W 5222   2.238   5.642  10.076 -0.1693  0.4528  0.0046
 1479W        W 5223   0.645   1.694   2.068 -0.0621 -0.3042 -0.0820
 1480W        W 5224   2.025   5.773   8.732  0.0433  0.1866  0.0507
 1481W        W 5225   9.724   8.226  11.244 -0.3748  0.0113  0.2156
 1482W        W 5226   0.103   4.268   3.074  0.1118  0.2305 -0.0974
 1483W        W 5227   9.879   7.184   9.634 -0.1149 -0.0536 -0.0457
 1484W        W 5228   4.236   5.210   3.638  0.1558 -0.0658 -0.5134
 1485W        W 5229   9.511   5.321   0.043  0.1609  0.0096 -0.0383
 1486W        W 5230   8.138   8.250  12.099  0.1415 -0.0557 -0.0714
 1487W        W 5231   9.283   4.849  10.644  0.0873 -0.1357  0.4471
 1488W        W 5232   1.797   0.324  12.255  0.1797 -0.1939  0.3076
 1489W        W 5233   9.714   5.831   3.503  0.1447 -0.1675 -0.1137
 1490W        W 5234   4.130   1.138   8.978 -0.1878  0.0038  0.0856
 1491W        W 5235   4.787   5.069   1.963  0.1802 -0.1776  0.1488
 1492W        W 5236   2.544   2.611  11.003 -0.1713  0.0033 -0.0144
 1493W        W 5237   3.841   1.729   3.928  0.0811 -0.0048 -0.1811
 1494W        W 5238   6.474   3.443   3.112 -0.3347  0.1863  0.0736
 1495W        W 5239   8.699   9.497   9.676 -0.1059 -0.0499  0.3927
 1496W        W 5240   3.590   2.896   2.989 -0.0060 -0.0476 -0.2252
 1497W        W 5241   1.077   4.159   9.172  0.0621  0.1519  0.2536
 1498W        W 5242   7.531   4.190  11.859  0.0427 -0.0766 -0.0488
 1499W        W 5243   5.990   9.673   1.424  0.0283  0.1612  0.0419
 1500W        W 5244   3.098   9.103  11.617 -0.1049  0.2875 -0.6326
 1501W        W 5245   8.537   6.947   1.681 -0.0164  0.1563  0.0689
 1502W        W 5246   4.948   5.422   4.283 -0.0908 -0.0908  0.0036
 1503W        W 5247   2.634   2.256  11.304 -0.5767  0.0048  0.0882
 1504W        W 5248   1.805   4.539   2.435  0.2959 -0.1441 -0.0357
 1505W        W 5249   0.694   1.187  11.603  0.0588 -0.0066 -0.0728
 1506W        W 5250   4.337   7.573  11.711 -0.0148 -0.1096  0.3470
 1507W        W 5251   0.267   4.319  11.427  0.1016  0.1267 -0.0488
 1508W        W 5252   4.307   7.457   3.289 -0.3611 -0.2029  0.0576
 1509W        W 5253   3.477   2.089   4.268  0.0397 -0.0192  0.1241
 1510W        W 5254   3.055   2.030  10.501 -0.4171 -0.0100 -0.1225
 1511W        W 5255   7.354   8.866   0.134  0.0243  0.0191 -0.0095
 1512W        W 5256   8.937   6.605   2.877 -0.0804 -0.1412  0.0322
 1513W        W 5257   0.004   5.527   0.373  0.1215  0.0117 -0.4383
 1514W        W 5258   6.825   0.448   9.370 -0.0239  0.0327 -0.2440
 1515W        W 5259   8.191   5.568   2.867  0.0816 -0.0930 -0.3243
 1516W        W 5260   6.922   7.408  10.696 -0.0521 -0.0676 -0.0977
 1517W        W 5261   7.209   3.389  12.663 -0.0447  0.1375  0.0500
 1518W        W 5262   6.646   5.245   0.127 -0.2991  0.1870 -0.1600
 1519W        W 5263   8.991   5.340  12.062  0.1480  0.0627 -0.1399
 1520W        W 5264   0.892   7.798   8.822  0.0324  0.1500  0.1489
 1521W        W 5265   4.119   5.605  11.594  0.2127  0.2726 -0.2934
 1522W        W 5266   5.687   7.761   8.813  0.1959 -0.2903 -0.0090
 1523W        W 5267   9.548   4.395   0.175  0.1332 -0.0234 -0.2225
 1524W        W 5268   6.942   7.811   8.665 -0.1955 -0.0864  0.1767
 1525W        W 5269   7.022   6.581  10.832 -0.3190 -0.0525 -0.1979
 1526W        W 5270   1.124   6.287   9.896  0.0088  0.1047 -0.1231
 1527W        W 5271   0.619   1.302   1.665  0.3933  0.1440 -0.0599
 1528W        W 5272   0.681   9.488   0.982 -0.2711  0.0421 -0.1539
 1529W        W 5273   5.222   3.757  11.389 -0.0602 -0.0574 -0.4734
 1530W        W 5274   4.162   5.026   0.287  0.1570 -0.0576  0.0366
 1531W        W 5275   6.068   2.162   2.401 -0.2440  0.0389  0.1560
 1532W        W 5276   0.813   6.317   2.112  0.2266 -0.1821 -0.1918
 1533W        W 5277   6.304   9.093   1.984  0.1114  0.4464  0.2536
 1534W        W 5278   4.352   6.070   2.016 -0.1118 -0.1007  0.3043
 1535W        W 5279   6.908   0.566   0.863 -0.0251  0.1602 -0.3109
 1536W        W 5280   4.933   4.563   2.764 -0.0683  0.2229  0.2966
 1537W        W 5281   4.350   8.297   3.046  0.3679 -0.1947  0.2060
 1538W        W 5282   2.914   8.302   1.769 -0.1606  0.2669  0.4060
 1539W        W 5283   3.775   2.728   9.627 -0.2890  0.0047 -0.2370
 1540W        W 5284   0.995   2.552   0.468  0.0698  0.1818 -0.3451
 1541W        W 5285   2.445   8.359   2.159 -0.0449  0.0797  0.1403
 1542W        W 5286   1.432   4.430   1.534 -0.0564  0.2371  0.1022
 1543W        W 5287   8.395   4.325   2.794 -0.0121  0.1847 -0.0718
 1544W        W 5288   0.906   2.107   2.781 -0.0311  0.2403 -0.1819
 1545W        W 5289   4.931   9.254  12.279 -0.1287 -0.0492  0.0654
 1546W        W 5290   1.242   7.468   8.960 -0.1970  0.0356  0.0797
 1547W        W 5291   2.378   5.800   2.809  0.0686  0.0733 -0.1514
 1548W        W 5292   0.448   6.281  10.146  0.1770 -0.1508 -0.0379
 1549W        W 5293   0.696   8.199   0.905  0.4603 -0.3272  0.3944
 1550W        W 5294   5.692   8.170   3.944  0.1627  0.1461 -0.1983
 1551W        W 5295   4.720   6.577   1.830  0.1026  0.1151  0.0040
 1552W        W 5296   0.851   9.123  10.134  0.0561  0.0963  0.1944
 1553W        W 5297   9.316   3.559   1.915  0.4412  0.0649  0.0244
 1554W        W 5298   0.713   0.318  12.167 -0.3646  0.0651 -0.0061
 1555W        W 5299   3.674   1.246   2.824  0.1358  0.1447 -0.0863
 1556W        W 5300   1.098   5.079   4.138  0.5159 -0.3658 -0.2146
 1557W        W 5301   9.533   0.116  11.555 -0.3443 -0.4434  0.4644
 1558W        W 5302   8.511   8.993   1.310 -0.1550  0.1504  0.1030
 1559W        W 5303   6.341   8.403   1.369  0.0272 -0.0683  0.1433
 1560W        W 5304   1.605   6.501  10.401 -0.1044  0.1114 -0.1768
 1561W        W 5305   5.633   3.118   4.095 -0.0056  0.1468  0.0924
 1562W        W 5306   4.178   2.731   9.960 -0.2478 -0.0860 -0.0033
 1563W        W 5307   6.899   0.170  10.863  0.0806 -0.1492  0.2639
 1564W        W 5308   6.832   2.473   1.963 -0.2458  0.2166  0.0340
 1565W        W 5309   1.542   8.035   8.002  0.1485  0.0266  0.1420
 1566W        W 5310   9.059   3.722   0.795 -0.0283 -0.1380  0.6138
 1567W        W 5311   1.059   3.955   1.048 -0.0330  0.0248 -0.0296
 1568W        W 5312   8.334   3.205   1.596 -0.1410  0.1805  0.3448
 1569W        W 5313   3.881   2.295   9.906 -0.1583  0.1539  0.1636
 1570W        W 5314   0.527   8.893   3.924 -0.0049  0.0102  0.2035
 1571W        W 5315   0.449   2.485   2.199  0.0528  0.0342  0.1392
 1572W        W 5316   3.892   0.329  12.732  0.0922  0.1489 -0.2157
 1573W        W 5317   0.838   7.949  12.917  0.2322  0.1735 -0.1774
 1574W        W 5318   0.767   2.437  10.329  0.0851 -0.1153 -0.1805
 1575W        W 5319   2.312   1.606   3.783 -0.1292  0.2425  0.2443
 1576W        W 5320   5.138   1.673   9.242  0.1672  0.0665 -0.1098
 1577W        W 5321   6.863   7.322   2.732 -0.0417 -0.2011  0.4955
 1578W        W 5322   9.592   4.735   2.423 -0.2249 -0.1579  0.1446
 1579W        W 5323   9.629   8.118   1.317 -0.1703 -0.0310  0.1218
 1580W        W 5324   2.709   0.982   1.793  0.0640 -0.0146  0.5491
 1581W        W 5325   1.224   2.799  10.898  0.0078 -0.4690 -0.1803
 1582W        W 5326   2.809   7.542   4.222 -0.2677  0.0946  0.1521
 1583W        W 5327   5.435   6.962   1.241  0.4418  0.2054  0.2712
 1584W        W 5328   8.037   6.271   0.266 -0.1612 -0.0072 -0.2960
 1585W        W 5329   7.974   4.596   0.012 -0.0250  0.0275  0.1084
 1586W        W 5330   5.611   6.536   4.149  0.1442 -0.0383  0.0404
 1587W        W 5331   2.334   4.951   8.514 -0.1678  0.2151 -0.0653
 1588W        W 5332   3.901   2.899   0.346  0.0497 -0.1412 -0.0776
 1589W        W 5333   6.262   7.599   1.766 -0.0578  0.3287  0.0162
 1590W        W 5334   0.357   7.731   8.882 -0.2043  0.0874 -0.0692
 1591W        W 5335   4.388   9.703  12.826 -0.0617 -0.0501  0.0336
 1592W        W 5336   3.794   9.097   3.977 -0.1272 -0.2255  0.1029
 1593W        W 5337   8.503   4.414  10.958  0.1865 -0.0244 -0.0530
 1594W        W 5338   0.132   7.269   2.290 -0.3173 -0.0791  0.3775
 1595W        W 5339   4.829   6.550   9.280  0.0060  0.1261 -0.2604
 1596W        W 5340   8.904   7.589   1.042 -0.0264  0.1066  0.1076
 1597W        W 5341   0.734   4.485   0.419  0.0128 -0.0633  0.0564
 1598W        W 5342   8.872   2.915   8.875 -0.0520  0.2729  0.1967
 1599W        W 5343   6.190   8.815  11.116  0.0184  0.3307  0.2633
 1600W        W 5344   3.717   4.262  11.478 -0.0713 -0.2181  0.0534
 1601W        W 5345   3.235   1.435   8.949  0.2098  0.1898  0.2317
 1602W        W 5346   0.232   8.722   2.269  0.0832  0.3052 -0.0790
 1603W        W 5347   2.747   5.007  10.414  0.0107  0.4465 -0.1888
 1604W        W 5348   7.934   8.945   2.622 -0.1179 -0.1813 -0.2293
 1605W        W 5349   5.026   5.376   3.754 -0.2386 -0.0964 -0.0901
 1606W        W 5350   6.242   7.744   9.426  0.0284 -0.3659 -0.0055
 1607W        W 5351   0.966   8.787   8.302  0.2292  0.0784  0.1169
 1608W        W 5352   7.031   7.512  11.253 -0.1846 -0.0390  0.4272
 1609W        W 5353   7.380   6.337   3.606  0.1510 -0.0610  0.0720
 1610W        W 5354   1.488   2.175  10.375  0.2606 -0.1916  0.2755
 1611W        W 5355   5.581   8.338   1.009  0.0144 -0.2948  0.1036
 1612W        W 5356   0.027   5.002   9.923 -0.0338  0.0516  0.3292
 1613W        W 5357   6.893   0.479   9.974  0.0339 -0.1874 -0.2044
 1614W        W 5358   1.302   6.913  10.618  0.2205 -0.0873 -0.2071
 1615W        W 5359   1.824   4.188   9.487 -0.2129 -0.1425  0.1029
 1616W        W 5360   7.443   5.478   3.729 -0.0490  0.0497  0.0669
 1617W        W 5361   2.079   1.866   8.716  0.1108  0.0060 -0.0068
 1618W        W 5362   1.095   4.873   1.745  0.1413  0.1088  0.0588
 1619W        W 5363   7.690   5.972  12.052  0.1801 -0.1669 -0.2329
 1620W        W 5364   8.945   0.964   8.586  0.0430  0.3463  0.3475
 1621W        W 5365   3.209   7.235   2.190  0.0619 -0.2168 -0.2207
 1622W        W 5366   1.282   0.622   3.526 -0.2445  0.0540  0.2312
 1623W        W 5367   0.175   8.334   9.043  0.0802 -0.0895  0.1059
 1624W        W 5368   5.333   9.874   0.061  0.0313 -0.0595  0.0967
 1625W        W 5369   0.976   6.458   7.962  0.0143 -0.1510 -0.1866
 1626W        W 5370   8.750   6.042  10.900 -0.2783 -0.0660 -0.1420
 1627W        W 5371   2.001   8.758   0.746 -0.1727 -0.0031 -0.0531
 1628W        W 5372   6.273   6.720  12.635  0.0386 -0.1495  0.0837
 1629W        W 5373   3.004   4.071  12.407  0.4551 -0.0614  0.2521
 1630W        W 5374   5.975   7.779  10.105  0.0162 -0.1048 -0.1995
 1631W        W 5375   0.713   5.304   2.504 -0.0886  0.1880  0.0731
 1632W        W 5376   6.502   8.574  12.274 -0.1326  0.0188 -0.1466
 1633W        W 5377   4.969   7.535  11.677 -0.0545  0.0634 -0.4033
 1634W        W 5378   1.274   6.904  10.118 -0.0463  0.0181  0.0105
 1635W        W 5379   7.972   3.693   2.620 -0.1933  0.0603  0.0359
 1636W        W 5380   9.124   2.565   1.969 -0.3854  0.0908  0.1986
 1637W        W 5381   3.503   2.035   2.088  0.1833 -0.1235 -0.1012
 1638W        W 5382   5.505   9.410   0.905  0.0849 -0.0018  0.1823
 1639W        W 5383   1.337   5.220  12.238 -0.2981 -0.1107  0.0029
 1640W        W 5384   2.979   1.720   0.154  0.0132  0.1084  0.0678
 1641W        W 5385   9.874   0.845  12.517 -0.0908 -0.0539 -0.1819
 1642W        W 5386   0.779   6.597   9.388  0.2395 -0.0757 -0.1069
 1643W        W 5387   5.988   5.822   2.354 -0.0708 -0.0946 -0.0634
 1644W        W 5388   4.519   8.320   4.347 -0.1295 -0.1019 -0.3643
 1645W        W 5389   0.684   7.431  12.815  0.4030 -0.2629 -0.2458
 1646W        W 5390   3.847   5.516   3.590  0.1872 -0.0587  0.1630
 1647W        W 5391   3.376   5.087  11.348  0.2841 -0.1772  0.0778
 1648W        W 5392   4.897   3.439   3.744  0.0150 -0.1570 -0.0486
 1649W        W 5393   9.547   7.123  12.727 -0.2858 -0.1979  0.0724
 1650W        W 5394   0.332   0.433  12.601 -0.1622 -0.0892  0.0901
 1651W        W 5395   2.681   1.808   1.363 -0.0156 -0.2691  0.3156
 1652W        W 5396   4.287   4.301   4.762 -0.1947  0.0590  0.3232
 1653W        W 5397   1.874   5.106  12.413 -0.0725  0.3264 -0.4631
 1654W        W 5398   1.144   0.778   9.213  0.3139 -0.1229  0.0527
 1655W        W 5399   4.754   8.357   0.566  0.0869  0.0748  0.1438
 1656W        W 5400   3.835   8.670   3.571 -0.2120 -0.1632 -0.1932
 1657W        W 5401   9.061   3.004  11.868 -0.0975  0.0688  0.3356
 1658W        W 5402   1.111   1.303   1.663  0.0781  0.2199  0.2830
 1659W        W 5403   2.662   0.934  10.151  0.2601 -0.2057 -0.1055
 1660W        W 5404   1.652   1.031   8.935  0.0759 -0.1617 -0.0339
 1661W        W 5405   0.326   7.819  12.796  0.2420  0.1572  0.1283
 1662W        W 5406   8.264   6.323  12.770  0.2207  0.1371 -0.2876
 1663W        W 5407   1.689   6.584   2.570 -0.0923  0.0528 -0.0234
 1664W        W 5408   5.030   1.261  10.525  0.1839  0.0378  0.0782
 1665W        W 5409   8.257   8.996   0.269 -0.0637 -0.0106 -0.1154
 1666W        W 5410   1.034   8.324  11.042 -0.0957  0.3523  0.1765
 1667W        W 5411   7.607   0.135  10.812  0.1737 -0.0161  0.3671
 1668W        W 5412   3.307   2.620   9.324  0.3360  0.1288  0.1395
 1669W        W 5413   3.397   8.873   0.469  0.0026  0.0578 -0.1372
 1670W        W 5414   8.369   8.674  10.369  0.0963 -0.0211 -0.2954
 1671W        W 5415   6.471   8.070  12.171 -0.1994 -0.3235 -0.1288
 1672W        W 5416   2.373   2.391   9.510 -0.1228  0.0160  0.1877
 1673W        W 5417   5.083   2.751  11.813  0.1400  0.2570  0.4315
 1674W        W 5418   4.059   4.098   0.081 -0.2496  0.0234 -0.0353
 1675W        W 5419   6.530   3.551   0.345 -0.1283  0.1753  0.0908
 1676W        W 5420   5.508   6.025  11.058 -0.1207  0.4115  0.1056
 1677W        W 5421   5.047   7.052   0.723  0.1460  0.1526  0.0094
 1678W        W 5422   3.706   9.472   9.949 -0.0004 -0.1517 -0.0927
 1679W        W 5423   8.886   0.707  12.642 -0.2432 -0.4610 -0.3081
 1680W        W 5424   2.726   6.170  11.089 -0.0892 -0.0140 -0.0980
 1681W        W 5425   2.728   3.500  10.405  0.0807  0.2028  0.4422
 1682W        W 5426   6.965   7.388   2.192  0.2429  0.2559 -0.1628
 1683W        W 5427   4.128   7.106   2.953  0.0573 -0.0167 -0.0162
 1684W        W 5428   8.789   6.200   4.223  0.0763 -0.0612  0.2033
 1685W        W 5429   8.139   7.896   2.153  0.0491  0.1189  0.2236
 1686W        W 5430   5.282   0.497  10.447  0.2733 -0.2684 -0.0015
 1687W        W 5431   5.172   4.725   1.895 -0.3663 -0.4200 -0.0486
 1688W        W 5432   2.076   3.173   1.239  0.0289 -0.1592  0.1537
 1689W        W 5433   2.087   0.175   1.333  0.0761  0.1223  0.0843
 1690W        W 5434   3.059   1.302   2.074 -0.4237 -0.2462  0.3934
 1691W        W 5435   8.790   1.729  11.189  0.0573  0.2225 -0.1169
 1692W        W 5436   2.620   6.809   0.171  0.1057 -0.0103 -0.2837
 1693W        W 5437   9.515   5.302   3.428  0.4020  0.0508 -0.0681
 1694W        W 5438   0.998   5.465  11.462  0.0009 -0.1123  0.0325
 1695W        W 5439   1.808   0.025   8.391  0.1806 -0.0294  0.5239
 1696W        W 5440   7.866   9.330  11.661  0.0177 -0.0556 -0.0976
 1697W        W 5441   5.502   1.052   0.443  0.1077 -0.4115  0.0854
 1698W        W 5442   8.317   9.071  10.103 -0.0349  0.0333 -0.1044
 1699W        W 5443   8.658   4.395   9.966  0.1513  0.2269 -0.2726
 1700W        W 5444   0.849   0.923  12.912  0.2493  0.2674 -0.0798
 1701W        W 5445   5.424   1.889  11.136 -0.3099  0.0447 -0.1850
 1702W        W 5446   3.615   3.633   0.935 -0.0767 -0.1432 -0.0623
 1703W        W 5447   2.588   3.792   3.855 -0.1570 -0.0531  0.2948
 1704W        W 5448   2.967   6.057   9.374  0.3018  0.3042  0.2088
 1705W        W 5449   3.493   6.544   4.268  0.1370 -0.2412 -0.3117
 1706W        W 5450   9.091   0.710   9.472 -0.1277  0.3809 -0.0550
 1707W        W 5451   7.361   3.030  11.333 -0.1010 -0.0492 -0.1629
 1708W        W 5452   9.503   6.083  11.128  0.0123 -0.1485  0.0260
 1709W        W 5453   5.807   8.547  11.595 -0.1829 -0.2282  0.2658
 1710W        W 5454   8.965   9.006   3.510  0.1290  0.0123  0.2230
 1711W        W 5455   2.596   0.558   2.103 -0.0855 -0.0560  0.1739
 1712W        W 5456   7.320   5.587   9.174  0.0436 -0.1671 -0.1147
 1713W        W 5457   1.903   5.706   3.129 -0.1086  0.1130 -0.2317
 1714W        W 5458   9.802   8.155   2.029 -0.1470 -0.1570  0.1251
 1715W        W 5459   0.336   6.235  11.444  0.0162  0.0695  0.0968
 1716W        W 5460   5.000   6.632   4.005  0.2351 -0.3500  0.1084
 1717W        W 5461   3.263   3.855   2.141 -0.0092 -0.0337 -0.1030
 1718W        W 5462   1.266   8.585  11.893  0.0730 -0.0461 -0.3050
 1719W        W 5463   3.671   0.618  11.743  0.1734  0.3024  0.3376
 1720W        W 5464   4.163   5.623  12.610 -0.3317 -0.0661  0.2098
 1721W        W 5465   5.965   5.375  12.559 -0.0630 -0.1902 -0.1154
 1722W        W 5466   9.772   4.597   1.239 -0.0934 -0.1733 -0.1397
 1723W        W 5467   3.011   0.419   4.095  0.0882  0.1749 -0.0425
 1724W        W 5468   1.531   0.372   1.467 -0.0760 -0.2722  0.0961
 1725W        W 5469   2.431   0.455  10.367 -0.1762  0.0132  0.1249
 1726W        W 5470   7.935   3.087   0.071 -0.0306  0.1696  0.2679
 1727W        W 5471   0.790   6.921   0.844  0.3028  0.3357 -0.0052
 1728W        W 5472   3.046   1.897  10.952 -0.3686 -0.1440  0.0069
 1729W        W 5473   1.979   8.046   1.688 -0.0140  0.5891 -0.0985
 1730W        W 5474   3.548   8.977   9.119 -0.1601  0.1983  0.4732
 1731W        W 5475   3.740   2.908   1.647  0.0174 -0.0104  0.0336
 1732W        W 5476   8.087   1.889  11.318  0.0456  0.0261 -0.1380
 1733W        W 5477   3.164   8.714   9.570  0.0191 -0.2454 -0.0238
 1734W        W 5478   9.144   6.183   0.119 -0.1491 -0.1283 -0.1648
 1735W        W 5479   0.073   3.252  11.864  0.0946 -0.0720 -0.1802
 1736W        W 5480   5.620   6.291  12.139  0.1442  0.1253 -0.0084
 1737W        W 5481   6.937   8.705   3.452 -0.0507 -0.3073  0.2525
 1738W        W 5482   0.245   3.160   2.930  0.3097 -0.1415 -0.0439
 1739W        W 5483   1.736   1.976  11.670 -0.1351 -0.1471  0.5781
 1740W        W 5484   2.477   3.544  11.353 -0.1087 -0.0629  0.1124
 1741W        W 5485   3.888   8.817  10.584 -0.1129  0.1214  0.2165
 1742W        W 5486   7.189   6.756   9.491 -0.2612  0.1090  0.0079
 1743W        W 5487   3.677   9.232  10.420 -0.0221 -0.2290  0.3763
 1744W        W 5488   3.982   2.205   4.107  0.0261 -0.0309  0.0439
 1745W        W 5489   3.636   3.736   1.729 -0.3025 -0.1537  0.2848
 1746W        W 5490   8.919   3.857   2.313  0.1563  0.0844  0.0226
 1747W        W 5491   2.232   1.783   0.395  0.0773 -0.1825  0.1078
 1748W        W 5492   6.815   5.745   4.679 -0.1007 -0.0848  0.1303
 1749W        W 5493   2.080   5.870   2.287 -0.0719  0.3004  0.3141
 1750W        W 5494   0.699   7.352   8.831  0.2252  0.0911 -0.2061
 1751W        W 5495   7.485   7.349   9.756  0.2010 -0.0947 -0.1222
 1752W        W 5496   6.526   1.372   2.604 -0.0087 -0.1798 -0.2433
 1753W        W 5497   0.050   2.369   2.451  0.2772  0.0006 -0.0423
 1754W        W 5498   8.737   8.550   1.502  0.0233 -0.1895 -0.1036
 1755W        W 5499   8.987   2.489  11.736  0.0582 -0.1160 -0.0163
 1756W        W 5500   2.693   0.255   9.372 -0.0430 -0.0927 -0.1646
 1757W        W 5501   2.671   6.443   1.230  0.1081 -0.0010  0.3552
 1758W        W 5502   1.904   6.090   2.786  0.0707 -0.1590 -0.0354
 1759W        W 5503   6.151   2.971   2.853  0.0115 -0.3748  0.0933
 1760W        W 5504   1.618   2.572   3.465  0.0196  0.0359  0.2070
 1761W        W 5505   2.843   5.878   2.660  0.0198 -0.1799 -0.0331
 1762W        W 5506   7.445   0.541   0.942  0.1846  0.0798  0.1481
 1763W        W 5507   7.821   9.143   0.003  0.1275 -0.1150  0.1001
 1764W        W 5508   8.024   6.785   1.549 -0.0800 -0.3632 -0.0247
 1765W        W 5509   8.391   4.939   9.846  0.3569  0.1113  0.3005
 1766W        W 5510   7.035   6.148  11.608  0.2620  0.0494  0.0408
 1767W        W 5511   9.094   6.530   9.141 -0.0387  0.0992 -0.1741
 1768W        W 5512   6.668   6.246  11.988 -0.0947 -0.1155 -0.1100
 1769W        W 5513   2.417   5.472   9.011  0.1177  0.2359 -0.0049
 1770W        W 5514   0.246   2.789  11.043 -0.0683 -0.0746  0.3734
 1771W        W 5515   5.533   5.829   0.487 -0.0793 -0.0500 -0.0019
 1772W        W 5516   0.640   8.159   9.171 -0.0297 -0.0487  0.2077
 1773W        W 5517   9.293   4.825   8.554 -0.0696 -0.0178  0.0067
 1774W        W 5518   7.078   3.686   1.496  0.0718 -0.0891 -0.1401
 1775W        W 5519   1.400   4.737   3.831  0.2991  0.1883 -0.1729
 1776W        W 5520   4.035   3.574  12.215 -0.2349 -0.3318  0.0044
 1777W        W 5521   1.859   1.900  11.158 -0.3617  0.0960 -0.2082
 1778W        W 5522   9.320   6.204  10.058 -0.0303  0.3277 -0.0575
 1779W        W 5523   9.668   2.918   0.067 -0.1001 -0.1083 -0.0797
 1780W        W 5524   4.995   5.348  10.353  0.4475  0.1268 -0.2281
 1781W        W 5525   7.216   1.665  12.953 -0.0287  0.2339 -0.1382
 1782W        W 5526   6.913   9.151  10.140 -0.1632 -0.0195 -0.1012
 1783W        W 5527   0.989   4.731   9.821  0.1269 -0.1072  0.2719
 1784W        W 5528   1.897   9.556   0.512  0.1339 -0.0087 -0.0440
 1785W        W 5529   5.222   0.273   2.724 -0.1295 -0.0510 -0.2565
 1786W        W 5530   5.630   3.209   0.112 -0.0777 -0.1193 -0.0722
 1787W        W 5531   6.443   2.826   3.783 -0.0031  0.4124  0.2785
 1788W        W 5532   7.205   8.450   9.742 -0.1805  0.0544  0.0667
 1789W        W 5533   6.426   5.646  12.907  0.1630 -0.4806  0.0037
 1790W        W 5534   8.449   2.300   1.559  0.2412  0.2274 -0.1462
 1791W        W 5535   4.125   9.125   9.725 -0.1731  0.1293 -0.1268
 1792W        W 5536   7.078   8.145   0.120  0.3005  0.1995 -0.0276
 1793W        W 5537   2.880   7.237   0.264  0.2498  0.0438  0.1017
 1794W        W 5538   2.184   6.120   3.230  0.1082  0.0301 -0.1212
 1795W        W 5539   8.427   6.567  12.353 -0.1002 -0.0249  0.1298
 1796W        W 5540   7.291   5.763  10.903  0.1573  0.1871  0.0790
 1797W        W 5541   0.534   0.404   0.107 -0.1844 -0.1094 -0.0614
 1798W        W 5542   7.121   2.822   2.244  0.2219 -0.2447 -0.1487
 1799W        W 5543   1.807   5.517   1.779  0.3106 -0.2242  0.1095
 1800W        W 5544   3.873   1.536  10.164  0.0325 -0.0613 -0.0297
 1801W        W 5545   1.814   4.760   0.443 -0.3081 -0.0453 -0.0891
 1802W        W 5546   8.920   3.220   1.660 -0.1361  0.4571  0.1415
 1803W        W 5547   0.376   8.960  11.831  0.0170  0.1684 -0.2466
 1804W        W 5548   1.924   9.091   9.475  0.0825  0.1351 -0.0932
 1805W        W 5549   2.774   4.237  12.834 -0.1209  0.0579 -0.0348
 1806W        W 5550   8.573   0.964   3.406 -0.0228  0.0390 -0.2435
 1807W        W 5551   8.993   4.596  12.583  0.3467 -0.0868  0.1106
 1808W        W 5552   1.332   7.782   2.927  0.0289 -0.0120  0.2284
 1809W        W 5553   2.130   4.991   0.066  0.1008 -0.1133  0.3835
 1810W        W 5554   9.683   2.451   9.522 -0.3244  0.2510 -0.2608
 1811W        W 5555   1.385   1.493   9.567 -0.0378 -0.1855  0.0345
 1812W        W 5556   0.211   5.919  12.415 -0.0490 -0.3258  0.3681
 1813W        W 5557   6.866   1.233  11.253 -0.4893  0.1031  0.0758
 1814W        W 5558   6.955   6.684  11.396 -0.0254  0.0385 -0.0255
 1815W        W 5559   2.948   6.389   0.821 -0.4210  0.0240  0.1177
 1816W        W 5560   3.099   2.813  12.276  0.0102  0.0720  0.1584
 1817W        W 5561   8.238   5.212   3.832 -0.0351  0.2633 -0.0137
 1818W        W 5562   5.500   3.147   2.968  0.0673 -0.1383 -0.1560
 1819W        W 5563   0.500   8.652  12.194 -0.0055  0.0664  0.2625
 1820W        W 5564   1.138   7.981   9.242 -0.2651 -0.2075  0.0202
 1821W        W 5565   0.355   9.676  12.478  0.2801 -0.1080 -0.1189
 1822W        W 5566   5.419   7.069  11.175  0.3003 -0.1009  0.0892
 1823W        W 5567   7.026   8.245  10.569 -0.0452 -0.0125  0.3104
 1824W        W 5568   0.958   8.379   9.475  0.2228  0.2160  0.0378
 1825W        W 5569   3.605   5.871   9.852 -0.3333  0.0059  0.0023
 1826W        W 5570   7.990   3.029  12.112  0.1922 -0.1457 -0.1157
 1827W        W 5571   2.529   4.470   2.562 -0.0380  0.1845 -0.1097
 1828W        W 5572   8.041   0.588   0.211 -0.1371 -0.0057 -0.1423
 1829W        W 5573   1.353   6.078  10.318  0.1203 -0.1685 -0.0777
 1830W        W 5574   9.307   1.018  11.021 -0.0902 -0.0008 -0.1284
 1831W        W 5575   4.310   2.844   2.468 -0.0348  0.3127  0.2312
 1832W        W 5576   8.964   3.402   9.571 -0.1283 -0.2371 -0.1251
 1833W        W 5577   7.966   7.312  12.233  0.0843  0.2057  0.0678
 1834W        W 5578   5.013   3.100   3.264 -0.1822  0.0807 -0.3288
 1835W        W 5579   0.620   9.278  12.187  0.0193 -0.3817  0.3770
 1836W        W 5580   4.174   7.076  11.447 -0.1755 -0.1708 -0.0492
 1837W        W 5581   5.906   4.398  11.307 -0.1356  0.1095 -0.1541
 1838W        W 5582   8.131   6.828   9.795 -0.0895 -0.1921 -0.0286
 1839W        W 5583   4.557   3.425   2.554  0.2617 -0.0765  0.0646
 1840W        W 5584   2.988   1.339   1.492  0.0989 -0.0740  0.0729
 1841W        W 5585   2.431   8.162   9.928 -0.0788 -0.3292  0.1361
 1842W        W 5586   3.857   3.698   2.879  0.1760  0.0576  0.2572
 1843W        W 5587   6.618   3.872   2.960  0.2938 -0.0949 -0.1013
 1844W        W 5588   4.751   2.792  11.345  0.4289 -0.0901 -0.2039
 1845W        W 5589   2.843   5.715  10.808 -0.0988 -0.2543  0.3170
 1846W        W 5590   7.973   5.899   1.987  0.2033  0.2269  0.1182
 1847W        W 5591   5.407   4.193   0.276 -0.0466  0.0555  0.1321
 1848W        W 5592   9.415   0.974   0.020  0.3793 -0.1010  0.4545
 1849W        W 5593   2.548   2.980  10.270 -0.0426 -0.4887 -0.2419
 1850W        W 5594   8.483   8.084   1.722  0.1554 -0.0493 -0.1848
 1851W        W 5595   8.777   8.548  12.750  0.1983  0.1331 -0.0608
 1852W        W 5596   1.495   6.997   4.187 -0.3144  0.0838 -0.5239
 1853W        W 5597   9.404   2.092  11.889 -0.0244 -0.0713 -0.2131
 1854W        W 5598   9.091   8.857   2.287  0.2078 -0.0518 -0.2829
 1855W        W 5599   8.087   6.479   4.518  0.2062 -0.2100 -0.1325
 1856W        W 5600   8.792   3.041   9.987  0.2324  0.2489 -0.0273
 1857W        W 5601   0.827   0.868   0.823  0.2632  0.2297 -0.0340
 1858W        W 5602   6.680   0.973   2.957  0.0420 -0.0352 -0.0663
 1859W        W 5603   9.701   1.819   1.579  0.0548  0.0202  0.0172
 1860W        W 5604   8.439   8.447   0.738 -0.1883 -0.1526  0.0542
 1861W        W 5605   5.980   6.271   3.813  0.0621 -0.2581  0.0354
 1862W        W 5606   0.612   6.184   4.103 -0.2179  0.0537  0.2521
 1863W        W 5607   5.116   5.675   2.294 -0.0095  0.2187  0.1497
 1864W        W 5608   4.948   3.930   3.847 -0.1650  0.0625 -0.2401
 1865W        W 5609   4.695   8.692   1.518  0.2860 -0.0478  0.2230
 1866W        W 5610   0.103   2.449  11.440  0.2631 -0.0840 -0.1822
 1867W        W 5611   3.196   1.862   0.618 -0.1523 -0.0871  0.1302
 1868W        W 5612   6.634   6.574   3.399 -0.0134 -0.2370 -0.0128
 1869W        W 5613   4.255   9.654   3.644 -0.0680 -0.2373  0.1759
 1870W        W 5614   8.684   2.708   1.744 -0.0757 -0.0610 -0.0682
 1871W        W 5615   5.657   9.122   2.449  0.1861  0.0358 -0.0515
 1872W        W 5616   2.088   7.691   3.990 -0.3077  0.0958 -0.4572
 1873W        W 5617   2.340   6.714   9.006  0.1114  0.0750  0.0939
 1874W        W 5618   9.724   1.938  12.496  0.1335 -0.0554 -0.0201
 1875W        W 5619   1.775   7.938   4.378  0.3780  0.1749  0.2084
 1876W        W 5620   1.058   0.278  10.968  0.1569  0.0541  0.1552
 1877W        W 5621   0.477   6.752   2.994  0.0199  0.0576 -0.3776
 1878W        W 5622   0.784   9.283   3.720 -0.2766  0.3224 -0.1173
 1879W        W 5623   2.288   1.577  11.015  0.1479 -0.0741 -0.0028
 1880W        W 5624   8.316   6.446   8.690  0.1170 -0.0688 -0.1186
 1881W        W 5625   3.650   1.676   3.508  0.1576 -0.1201 -0.0637
 1882W        W 5626   3.420   3.784   0.508  0.2350  0.0952  0.0587
 1883W        W 5627   4.310   9.260   8.703  0.1228 -0.2026  0.5247
 1884W        W 5628   3.226   1.373   0.469 -0.0767  0.1013 -0.1193
 1885W        W 5629   7.877   0.278  11.378 -0.1039 -0.0259  0.3849
 1886W        W 5630   8.398   6.109  10.532 -0.0599 -0.0286 -0.0092
 1887W        W 5631   8.148   4.149   0.018  0.0064 -0.0625  0.0905
 1888W        W 5632   9.347   5.654   0.525  0.0751  0.1900  0.1660
 1889W        W 5633   7.772   5.936   2.903  0.0950  0.0466  0.3566
 1890W        W 5634   5.984   1.454   0.905 -0.2169 -0.0497  0.1678
 1891W        W 5635   4.223   5.347   1.315  0.2571  0.1009 -0.0591
 1892W        W 5636   3.937   2.516   2.134  0.1915 -0.0320  0.1354
 1893W        W 5637   1.143   3.559   9.373  0.1270  0.0383 -0.1270
 1894W        W 5638   3.602   2.854   0.717 -0.0357 -0.0670 -0.0952
 1895W        W 5639   8.735   5.840   3.417  0.2316  0.4557  0.1528
 1896W        W 5640   9.152   3.908   0.295  0.0392 -0.2700  0.1126
 1897W        W 5641   5.653   3.160   9.842 -0.0178  0.1533  0.0585
 1898W        W 5642   0.352   8.602   0.965  0.1679  0.0032 -0.0455
 1899W        W 5643   1.339   8.708   4.993  0.1831  0.2615 -0.3880
 1900W        W 5644   9.575   0.612  12.182 -0.0860 -0.2874  0.1246
 1901W        W 5645   2.254   9.102   9.851  0.2404  0.2394 -0.2422
 1902W        W 5646   7.120   5.453   3.312  0.2825  0.0110  0.0673
 1903W        W 5647   8.432   7.807   8.769  0.0693 -0.0156 -0.0572
 1904W        W 5648   3.807   8.792   4.355 -0.1650  0.1551  0.1048
 1905W        W 5649   5.010   7.106   4.171  0.1486 -0.1501  0.1512
 1906W        W 5650   0.225   3.232  12.328  0.2858  0.2050 -0.1445
 1907W        W 5651   0.885   7.016  10.417  0.1656  0.2319 -0.1998
 1908W        W 5652   4.621   5.657  11.579 -0.1953  0.1774  0.2202
 1909W        W 5653   7.170   6.407   0.666  0.0656  0.2692 -0.1234
 1910W        W 5654   6.429   6.153  11.512  0.1667 -0.0634  0.0847
 1911W        W 5655   1.621   5.106   1.642 -0.0375  0.2003 -0.0637
 1912W        W 5656   8.350   0.432   3.536  0.0561  0.0806  0.2193
 1913W        W 5657   3.211   4.752  10.756  0.1985 -0.0948 -0.0293
 1914W        W 5658   1.745   8.335   0.869 -0.1827 -0.2364 -0.3351
 1915W        W 5659   7.191   3.008   0.493  0.2600 -0.0506 -0.1800
 1916W        W 5660   5.554   3.506   2.617  0.3180  0.2156 -0.2212
 1917W        W 5661   6.323   6.146   9.117  0.0344  0.1412 -0.2178
 1918W        W 5662   2.379   3.012   9.775 -0.0960 -0.0540 -0.1408
 1919W        W 5663   8.470   0.432   1.460 -0.0707 -0.0851  0.0774
 1920W        W 5664   8.098   6.676   9.309  0.1472 -0.1037 -0.2433
 1921W        W 5665   7.022   2.845  10.601 -0.2943 -0.2718  0.0805
 1922W        W 5666   0.745   7.104   3.355 -0.0833  0.0380  0.2062
 1923W        W 5667   0.969   6.193   3.734 -0.0985 -0.2675  0.3239
 1924W        W 5668   9.705   8.875   3.224  0.1720 -0.1667  0.0906
 1925W        W 5669   8.744   6.778   1.221 -0.0914  0.0151 -0.0699
 1926W        W 5670   1.081   2.229   9.979  0.2512 -0.0054  0.1807
 1927W        W 5671   4.261   8.567   9.602 -0.1250 -0.4025 -0.4046
 1928W        W 5672   1.987   0.444   8.160  0.0453 -0.0707  0.0267
 1929W        W 5673   7.844   7.744  12.467  0.0551 -0.0993  0.2830
 1930W        W 5674   5.575   8.159  10.132  0.3196  0.2350  0.0518
 1931W        W 5675   8.490   5.230   0.255 -0.0834  0.2958  0.2047
 1932W        W 5676   6.273   6.979  10.434  0.1552  0.1458 -0.0805
 1933W        W 5677   1.534   7.116  11.279 -0.1212 -0.3086  0.0498
 1934W        W 5678   6.272   5.835  12.429 -0.0807 -0.1329  0.5490
 1935W        W 5679   8.928   1.777   1.461 -0.0109 -0.1958  0.0620
 1936W        W 5680   8.786   5.157  11.559 -0.3062 -0.1283  0.1681
 1937W        W 5681   0.946   3.125   8.477 -0.0377  0.0537 -0.1834
 1938W        W 5682   4.813   0.082   0.146 -0.0947  0.0041  0.0377
 1939W        W 5683   4.799   0.120   0.645 -0.0208 -0.0440  0.1005
 1940W        W 5684   8.727   3.995  10.789  0.3033  0.2623  0.0794
 1941W        W 5685   1.575   4.824   1.099 -0.0376  0.0409 -0.1308
 1942W        W 5686   8.499   8.454  11.670  0.1140  0.0227 -0.2394
 1943W        W 5687   2.446   7.644  10.043  0.3638  0.1108 -0.0650
 1944W        W 5688   9.160   1.534   3.883 -0.0585  0.0797  0.1600
 1945W        W 5689   5.411   3.394  11.136  0.0157  0.2857 -0.2143
 1946W        W 5690   6.023   6.125   4.933  0.3476  0.2501  0.1480
 1947W        W 5691   4.484   5.165   0.683 -0.1136 -0.1606 -0.0677
 1948W        W 5692   0.302   5.627   4.038 -0.3163  0.1263 -0.1067
 1949W        W 5693   6.584   4.594  10.266 -0.0001  0.0585  0.3722
 1950W        W 5694   1.120   2.692   3.726  0.2943 -0.2135 -0.1457
 1951W        W 5695   9.170   8.278   9.147  0.3595  0.0110 -0.1428
 1952W        W 5696   1.470   1.664   3.786  0.2194  0.1031 -0.1189
 1953W        W 5697   9.259   4.628   0.527 -0.1713 -0.0926  0.0835
 1954W        W 5698   3.239   3.440   3.733  0.1085  0.0229 -0.0930
 1955W        W 5699   3.505   6.629   2.984 -0.3086 -0.2760  0.3869
 1956W        W 5700   8.427   0.908   9.959  0.3583  0.0039 -0.0473
 1957W        W 5701   3.930   0.022   0.222 -0.1580  0.2459  0.2605
 1958W        W 5702   2.958   1.646   9.353 -0.1350 -0.2555  0.0107
 1959W        W 5703   4.277   5.593   8.561 -0.1194 -0.1555  0.0882
 1960W        W 5704   9.749   7.427  10.724  0.2350 -0.1604 -0.3163
 1961W        W 5705   7.619   8.670  10.409 -0.1032  0.2682  0.1749
 1962W        W 5706   7.716   9.278   2.315  0.0564 -0.0113 -0.0982
 1963W        W 5707   3.934   8.653  11.388  0.0117 -0.2734 -0.1492
 1964W        W 5708   3.131   3.680  11.648 -0.1235 -0.2022  0.3438
 1965W        W 5709   2.346   2.983   4.532 -0.2183 -0.1557  0.0160
 1966W        W 5710   5.937   6.947   1.079  0.2462  0.0133  0.0930
 1967W        W 5711   6.825   6.464   9.283 -0.0123 -0.0632  0.1471
 1968W        W 5712   5.264   2.978  12.736 -0.0315 -0.1512 -0.1164
 1969W        W 5713   5.999   1.012   1.108 -0.1401  0.1091 -0.3139
 1970W        W 5714   1.976   2.316   8.593  0.1691 -0.1281 -0.1736
 1971W        W 5715   6.289   8.134   3.130 -0.3843 -0.0156 -0.1431
 1972W        W 5716   2.099   8.610   1.897 -0.0519 -0.3272 -0.1319
 1973W        W 5717   1.047   9.559   3.280 -0.2102  0.0215 -0.1119
 1974W        W 5718   6.559   7.938   8.977  0.5444  0.2845 -0.0499
 1975W        W 5719   0.855   8.158   4.161  0.1789  0.0509  0.1326
 1976W        W 5720   0.806   3.186  12.395  0.6981  0.1201 -0.0700
 1977W        W 5721   3.658   4.699  12.590  0.2473 -0.2196 -0.2142
 1978W        W 5722   2.193   3.327   3.697  0.1259 -0.0049 -0.3700
 1979W        W 5723   3.367   8.217  10.859  0.1058 -0.1274 -0.1138
 1980W        W 5724   6.769   4.087   1.526 -0.0395 -0.0233 -0.1835
 1981W        W 5725   1.708   0.212   9.813  0.0652 -0.1652 -0.0365
 1982W        W 5726   3.409   4.556   2.901 -0.0648  0.1680  0.2972
 1983W        W 5727   7.469   1.999  10.268 -0.1176  0.1872 -0.0247
 1984W        W 5728   7.568   4.051  11.110  0.0954  0.0760 -0.1402
 1985W        W 5729   5.481   4.387   2.396  0.2710 -0.1689 -0.1356
 1986W        W 5730   5.593   8.206  10.999  0.2817  0.0976 -0.1125
 1987W        W 5731   5.895   0.670   2.525 -0.2057  0.1101 -0.1645
 1988W        W 5732   6.284   0.898   3.898  0.2919  0.1835  0.2113
 1989W        W 5733   4.453   0.582  11.537 -0.0105  0.0508  0.1100
 1990W        W 5734   5.128   2.585   3.577 -0.1371 -0.2047 -0.1476
 1991W        W 5735   4.408   9.101   4.852  0.1297 -0.2319 -0.0602
 1992W        W 5736   5.278   5.129  10.675 -0.0683  0.2043  0.0120
 1993W        W 5737   6.275   1.537   3.505  0.3795 -0.0348 -0.1652
 1994W        W 5738   2.055   4.758   9.906 -0.0298 -0.0336 -0.3076
 1995W        W 5739   5.404   0.305  12.194 -0.3763 -0.3608 -0.0049
 1996W        W 5740   2.134   5.593   0.629  0.0933  0.1403  0.0831
 1997W        W 5741   5.455   9.572   1.360 -0.4219 -0.0795 -0.0668
 1998W        W 5742   6.139   3.465  11.208  0.0941  0.1429 -0.1266
 1999W        W 5743   8.278   0.852  10.472  0.0475  0.0814 -0.2473
 2000W        W 5744   6.310   4.985   1.424  0.1586 -0.0294 -0.2060
 2001W        W 5745   5.477   4.554  10.591  0.1724  0.2607  0.0143
 2002W        W 5746   6.356   7.489  10.221  0.1489 -0.0354 -0.0216
 2003W        W 5747   9.058   4.867  10.122 -0.0584  0.2983 -0.2195
 2004W        W 5748   9.177   0.964   2.483 -0.3072 -0.1350  0.3083
 2005W        W 5749   6.521   8.715   9.329 -0.1304 -0.2130  0.2050
 2006W        W 5750   9.244   3.321  10.045  0.0266  0.0819  0.0370
 2007W        W 5751   6.574   7.382  11.181 -0.0700 -0.2950  0.2839
 2008W        W 5752   1.232   7.005   3.674 -0.1146 -0.1408  0.0774
 2009W        W 5753   8.909   0.856   1.545  0.0437 -0.0156 -0.4279
 2010W        W 5754   7.030   6.238  12.592 -0.2096 -0.1717 -0.1321
 2011W        W 5755   9.132   8.211   1.945 -0.0115  0.0178  0.1592
 2012W        W 5756   8.022   2.622  10.360 -0.0163 -0.0904 -0.1484
 2013W        W 5757   1.895   4.883   1.964  0.1650  0.0918  0.1614
 2014W        W 5758   4.133   9.067  10.971  0.1003  0.1474  0.1286
 2015W        W 5759   2.058   9.352   4.611 -0.0768 -0.1168 -0.2683
 2016W        W 5760   0.252   2.002   3.510  0.0385  0.3300  0.1768
 2017W        W 5761   8.159   8.857  10.788  0.0522 -0.0281 -0.0039
 2018W        W 5762   8.872   3.514   0.184 -0.1263  0.0136 -0.0205
 2019W        W 5763   7.524   0.786   0.083  0.0658  0.0722  0.2768
 2020W        W 5764   8.079   6.512  11.520  0.2134  0.0354  0.0425
 2021W        W 5765   4.524   3.273   3.386 -0.1155  0.0234  0.1047
 2022W        W 5766   4.233   2.756   8.989 -0.0321  0.0827 -0.5136
 2023W        W 5767   4.146   3.216   1.636 -0.0736 -0.0069  0.0748
 2024W        W 5768   1.014   0.687  10.021 -0.0440 -0.1925 -0.0276
 2025W        W 5769   8.976   4.077   3.729 -0.0237  0.1092 -0.0562
 2026W        W 5770   3.033   6.548   9.532  0.1168  0.3632 -0.3362
 2027W        W 5771   3.853   7.473  12.966 -0.1973 -0.0574  0.1793
 2028W        W 5772   6.145   5.083   3.608  0.0997  0.0801  0.0035
 2029W        W 5773   0.043   3.536   8.647 -0.0772 -0.0294 -0.3822
 2030W        W 5774   8.259   7.641  10.062 -0.2552 -0.0265 -0.0574
 2031W        W 5775   1.615   2.044  12.967 -0.1266  0.4942 -0.1374
 2032W        W 5776   4.726   9.846  10.993 -0.1535 -0.2162  0.0182
 2033W        W 5777   6.429   2.394  12.104  0.4306 -0.1974  0.0805
 2034W        W 5778   9.486   8.456   4.723  0.3958  0.0577  0.0250
 2035W        W 5779   0.801   5.049  10.158  0.0344 -0.3149  0.1027
 2036W        W 5780   7.608   6.554  12.014  0.0331  0.0252 -0.0579
 2037W        W 5781   5.495   3.613   1.003  0.4658 -0.0221 -0.0860
 2038W        W 5782   6.751   5.417   1.046  0.0929 -0.0093  0.3065
 2039W        W 5783   5.007   2.202  10.999  0.1965 -0.1622  0.0744
 2040W        W 5784   0.727   2.026   3.266  0.2055 -0.3348  0.0732
 2041W        W 5785   4.041   3.396  11.717  0.1542 -0.2211  0.2141
 2042W        W 5786   9.450   9.408   0.125  0.1070 -0.1300 -0.2073
 2043W        W 5787   2.878   3.005  10.680  0.2377 -0.1248 -0.2102
 2044W        W 5788   6.077   7.185   2.433  0.1265 -0.0734 -0.2255
 2045W        W 5789   0.847   0.880   1.732 -0.1462 -0.2459  0.2824
 2046W        W 5790   9.489   1.031   9.548 -0.0158  0.0576 -0.1816
 2047W        W 5791   4.618   0.494   9.464  0.1020  0.1550  0.5439
 2048W        W 5792   8.508   9.252   4.006  0.0990 -0.0670 -0.0531
 2049W        W 5793   0.402   8.339   4.187 -0.1703 -0.0151  0.1119
 2050W        W 5794   1.043   4.149   4.080 -0.0816 -0.0612 -0.0509
 2051W        W 5795   3.369   6.294   3.460  0.0710  0.0549  0.3307
 2052W        W 5796   6.587   7.214   1.916  0.0057 -0.1066  0.3961
 2053W        W 5797   3.884   2.106   8.991  0.1188 -0.4459 -0.1154
 2054W        W 5798   0.888   9.772  11.351  0.0132 -0.0705 -0.2456
 2055W        W 5799   4.470   2.715   0.031 -0.0547 -0.0099 -0.0119
 2056W        W 5800   5.215   9.777  11.253  0.1864 -0.0274  0.3244
 2057W        W 5801   7.982   7.942  12.905 -0.0815 -0.2264  0.0002
 2058W        W 5802   0.254   5.138   1.832  0.1116 -0.2378 -0.0948
 2059W        W 5803   4.377   9.888  11.951 -0.2769  0.1712  0.1310
 2060W        W 5804   7.714   1.491   3.074  0.1331 -0.1720  0.0322
 2061W        W 5805   5.710   8.405   0.118 -0.0006  0.1043 -0.0576
 2062W        W 5806   1.470   4.174  10.474 -0.0615 -0.1184  0.0850
 2063W        W 5807   6.655   9.463  12.902 -0.2499  0.3340 -0.0391
 2064W        W 5808   1.345   6.356  10.803 -0.3364  0.0868  0.1206
 2065W        W 5809   7.257   5.325   1.797 -0.2239  0.3173 -0.2301
 2066W        W 5810   9.593   2.876  11.697 -0.1422 -0.1917 -0.1624
 2067W        W 5811   0.651   4.894   4.797 -0.1658 -0.0072  0.1038
 2068W        W 5812   5.965   6.680   1.600  0.1028  0.1125  0.4025
 2069W        W 5813   3.707   6.068   8.884 -0.1211 -0.0621  0.0588
 2070W        W 5814   0.795   0.755  11.230  0.1454  0.1765 -0.0253
 2071W        W 5815   5.673   0.975   3.804  0.2487 -0.0912  0.2500
 2072W        W 5816   4.622   9.228  12.635  0.5381  0.3770 -0.1364
 2073W        W 5817   2.486   6.968   2.089 -0.2573  0.3438 -0.1291
 2074W        W 5818   2.509   6.545  10.766 -0.1057  0.0237  0.5703
 2075W        W 5819   4.963   4.433   0.268  0.0560 -0.0690 -0.2699
 2076W        W 5820   7.157   0.832  12.467  0.1581 -0.2242  0.1461
 2077W        W 5821   3.296   8.814   1.138 -0.0827 -0.0577 -0.0385
 2078W        W 5822   8.019   3.810   0.498 -0.2526 -0.0371  0.0506
 2079W        W 5823   3.653   4.650   0.626  0.1804  0.0817 -0.0704
 2080W        W 5824   7.653   1.595   2.470 -0.0375  0.3802 -0.0542
 2081W        W 5825   3.961   1.165   2.414 -0.1578 -0.1191  0.1368
 2082W        W 5826   8.849   7.034   2.044 -0.2789  0.2275 -0.1633
 2083W        W 5827   8.107   5.233   8.566 -0.1054 -0.3257 -0.0003
 2084W        W 5828   9.888   6.961  11.455  0.2585  0.0367 -0.3565
 2085W        W 5829   6.545   7.722   2.835  0.2810 -0.0057 -0.0407
 2086W        W 5830   2.926   1.218   0.090  0.2993 -0.1139  0.1010
 2087W        W 5831   0.512   3.420   9.398  0.1018  0.0648  0.1998
 2088W        W 5832   8.443   2.487  10.805 -0.0027  0.4290  0.2414
 2089W        W 5833   7.811   9.553   1.342 -0.3347  0.3902  0.1988
 2090W        W 5834   8.476   6.667  10.215  0.2976 -0.1466 -0.2804
 2091W        W 5835   7.361   1.583  10.566 -0.1751  0.0120 -0.1761
 2092W        W 5836   0.726   5.550   9.326 -0.2751  0.0628 -0.2726
 2093W        W 5837   6.439   9.116   9.658 -0.2278  0.0751 -0.0791
 2094W        W 5838   0.464   2.049   2.469  0.0946  0.1517 -0.1433
 2095W        W 5839   4.893   2.672  10.751 -0.0885 -0.1072  0.3094
 2096W        W 5840   5.884   5.422   0.629 -0.2042 -0.1359  0.0345
 2097W        W 5841   5.465   5.305   2.909  0.6191 -0.1475  0.0602
 2098W        W 5842   4.861   4.245   1.665  0.0285  0.2866  0.4096
 2099W        W 5843   0.345   0.868  12.882  0.0264 -0.2019  0.3897
 2100W        W 5844   2.152   0.252   3.441  0.2389 -0.1024 -0.2696
 2101W        W 5845   5.285   9.696   2.811 -0.0488 -0.1959 -0.0087
 2102W        W 5846   1.055   6.549  10.431 -0.0258  0.0713  0.4036
 2103W        W 5847   9.693   6.545   8.626 -0.2862 -0.0343 -0.1076
 2104W        W 5848   7.941   1.074   0.058  0.2328  0.2060 -0.0455
 2105W        W 5849   8.710   0.591   1.912 -0.1451 -0.2366 -0.1256
 2106W        W 5850   8.630   0.937   9.534  0.0587  0.0374  0.1709
 2107W        W 5851   3.910   2.680  10.938 -0.0428  0.0500 -0.1184
 2108W        W 5852   2.818   9.159   3.283  0.1643  0.2502 -0.1911
 2109W        W 5853   6.391   0.958  10.224  0.1082  0.3131 -0.1720
 2110W        W 5854   1.818   0.424   8.645 -0.1314  0.1508  0.0707
 2111W        W 5855   0.260   4.030   1.935  0.2441 -0.2128 -0.0066
 2112W        W 5856   8.437   8.939   1.823  0.1499 -0.1481  0.1083
 2113W        W 5857   3.570   8.670  10.907  0.1111  0.0834 -0.0537
 2114W        W 5858   7.042   6.634   4.292 -0.1260  0.1698 -0.1239
 2115W        W 5859   7.798   8.427   2.959 -0.1920  0.2800 -0.5008
 2116W        W 5860   8.351   5.926   4.346  0.2229 -0.1599  0.0103
 2117W        W 5861   1.742   1.646  12.079 -0.1229  0.0585  0.0175
 2118W        W 5862   3.226   6.676  12.519 -0.0826  0.1455 -0.0064
 2119W        W 5863   5.114   1.195  10.013 -0.1184  0.0479  0.4312
 2120W        W 5864   0.998   6.969   4.092 -0.1308 -0.3518 -0.1228
 2121W        W 5865   4.241   1.710   0.995 -0.5234 -0.0154 -0.1497
 2122W        W 5866   1.597   7.252   1.970 -0.0133  0.3053 -0.1316
 2123W        W 5867   8.419   6.213   4.785 -0.0680  0.1636  0.4459
 2124W        W 5868   5.724   6.952   4.656 -0.3469 -0.0673  0.2731
 2125W        W 5869   0.381   0.847   0.394  0.0672  0.1727 -0.0149
 2126W        W 5870   4.282   2.298   4.584  0.0117 -0.0015 -0.0945
 2127W        W 5871   4.526   9.634   3.231 -0.2272 -0.0434 -0.1364
 2128W        W 5872   6.330   4.138   8.869  0.2085 -0.0249  0.0284
 2129W        W 5873   9.360   2.831  10.855 -0.1522 -0.0833 -0.1999
 2130W        W 5874   6.343   9.273  10.866  0.2019  0.0870  0.0177
 2131W        W 5875   6.131   6.673   4.264  0.0835  0.1493 -0.1585
 2132W        W 5876   2.809   7.292   8.425  0.0736 -0.3672  0.0382
 2133W        W 5877   5.569   9.510   9.939  0.1562  0.2721  0.2447
 2134W        W 5878   6.902   3.669   9.979 -0.0708 -0.0209  0.0075
 2135W        W 5879   5.141   0.427   0.214 -0.0745 -0.0502  0.1824
 2136W        W 5880   8.715   7.022  12.172  0.3161 -0.0725 -0.0012
 2137W        W 5881   4.835   2.232   2.296  0.0929  0.0312  0.3142
 2138W        W 5882   5.424   3.812   2.204 -0.1306  0.0887  0.0453
 2139W        W 5883   3.466   3.624  10.022  0.0865  0.2364  0.1665
 2140W        W 5884   2.891   5.239  11.353  0.3051 -0.1613 -0.0614
 2141W        W 5885   6.938   6.703  12.798  0.0410 -0.0230  0.0195
 2142W        W 5886   6.576   9.564   3.580 -0.2039  0.2630  0.2705
 2143W        W 5887   2.053   6.392   3.596  0.3019 -0.1454 -0.4079
 2144W        W 5888   6.460   7.578   2.355  0.2431  0.2544 -0.3655
 2145W        W 5889   2.188   1.691  10.524 -0.0112  0.0746  0.0326
 2146W        W 5890   4.844   6.290   0.037  0.1556 -0.0082 -0.4721
 2147W        W 5891   5.857   7.395  10.540  0.0030 -0.0617 -0.0681
 2148W        W 5892   5.530   1.791   1.900  0.1862 -0.2774  0.2646
 2149W        W 5893   7.619   7.262   2.600  0.2495 -0.1989  0.0582
 2150W        W 5894   9.538   4.825  10.218  0.1108  0.0021 -0.1372
 2151W        W 5895   2.494   5.505   1.032 -0.0267 -0.1187 -0.1566
 2152W        W 5896   5.119   2.290  10.460 -0.1075 -0.1274  0.0709
 2153W        W 5897   3.267   0.339   9.915 -0.2645  0.0432  0.2103
 2154W        W 5898   6.530   6.592   0.107 -0.1610  0.0958 -0.0153
 2155W        W 5899   4.802   9.601   1.466 -0.3688 -0.1549 -0.2751
 2156W        W 5900   1.685   0.852  11.100  0.3176  0.2150 -0.0019
 2157W        W 5901   8.894   2.821   3.656  0.1109  0.2190 -0.0547
 2158W        W 5902   1.604   3.176   0.840  0.2751 -0.1977  0.0804
 2159W        W 5903   0.974   3.196  11.882 -0.1473  0.0928 -0.0664
 2160W        W 5904   3.408   7.334   0.273 -0.3093  0.0213 -0.5174
 2161W        W 5905   5.924   7.823  11.906  0.3217  0.1897  0.1654
 2162W        W 5906   5.825   4.865  12.381  0.1878 -0.2323  0.2132
 2163W        W 5907   8.174   2.026   0.290 -0.0475 -0.2347  0.1150
 2164W        W 5908   4.965   1.734   2.402  0.0897  0.3274  0.2103
 2165W        W 5909   5.153   6.178   0.441 -0.1348 -0.3916 -0.1168
 2166W        W 5910   2.261   3.132  12.247  0.1371 -0.1848 -0.0474
 2167W        W 5911   9.212   8.391   1.255 -0.1764  0.2186 -0.1377
 2168W        W 5912   1.126   1.348   3.206 -0.1677  0.0244  0.2860
 2169W        W 5913   5.251   5.652  11.322 -0.1590  0.0918 -0.0241
 2170W        W 5914   7.190   9.031   2.457  0.0810 -0.1729 -0.0408
 2171W        W 5915   4.056   8.597  10.112  0.0662  0.1310  0.0977
 2172W        W 5916   0.894   2.405   1.465  0.1125  0.1082  0.1128
 2173W        W 5917   9.302   7.635   0.297  0.1751 -0.1111 -0.0183
 2174W        W 5918   9.786   1.975  10.845  0.0923  0.1138 -0.0181
 2175W        W 5919   2.757   6.501  12.730 -0.2353 -0.1444 -0.2224
 2176W        W 5920   2.450   1.354  11.441 -0.1645 -0.0692  0.2632
 2177W        W 5921   0.400   1.277   0.678  0.0118 -0.0480  0.0716
 2178W        W 5922   8.576   7.878  12.030 -0.0608  0.4316  0.2008
 2179W        W 5923   3.270   4.043   9.591  0.0109  0.2623 -0.0216
 2180W        W 5924   7.544   4.420  10.002  0.0007 -0.0018  0.0947
 2181W        W 5925   7.478   6.110   1.942 -0.1522 -0.0225 -0.0243
 2182W        W 5926   1.132   3.106   2.681 -0.0534 -0.1549 -0.0757
 2183W        W 5927   4.878   5.124   2.865  0.0121  0.2248  0.1459
 2184W        W 5928   4.713   9.107  11.778  0.2001 -0.0287  0.0603
 2185W        W 5929   8.201   0.648  11.420 -0.0550  0.1063 -0.4021
 2186W        W 5930   6.090   1.273  12.839 -0.1486 -0.0969  0.0809
 2187W        W 5931   4.318   2.299  12.752  0.0579  0.0906 -0.0671
 2188W        W 5932   7.706   9.074  12.128  0.0291  0.2803  0.1415
 2189W        W 5933   1.870   9.491  10.829  0.1057 -0.4001  0.0829
 2190W        W 5934   7.679   2.969  10.051 -0.0656  0.0228 -0.1582
 2191W        W 5935   9.587   7.234   2.570 -0.1842  0.0941 -0.1414
 2192W        W 5936   5.377   5.253   4.066 -0.1590 -0.2556 -0.0044
 2193W        W 5937   9.830   0.537  12.964  0.2015 -0.0321 -0.1891
 2194W        W 5938   0.322   1.828   3.040  0.3890 -0.0381  0.1780
 2195W        W 5939   7.818   9.591  10.552  0.1691 -0.0994 -0.1204
 2196W        W 5940   9.767   8.064  12.756  0.1783 -0.2107 -0.0213
 2197W        W 5941   3.363   0.369   1.392 -0.1827 -0.2186 -0.0838
 2198W        W 5942   1.583   2.300   9.802  0.0689  0.0236  0.0661
 2199W        W 5943   8.503   5.506  12.741  0.0344 -0.0319 -0.1927
 2200W        W 5944   5.660   5.515   4.346  0.1140  0.0494  0.0708
 2201W        W 5945   2.730   3.691   0.100  0.1960  0.2824 -0.0350
 2202W        W 5946   8.337   1.268   1.890  0.2501 -0.1444 -0.1515
 2203W        W 5947   3.666   6.350  11.685 -0.0283  0.0878  0.1050
 2204W        W 5948   2.556   9.311  11.541  0.1201 -0.0831  0.2571
 2205W        W 5949   0.835   9.193  10.885 -0.1037  0.2396  0.1772
 2206W        W 5950   3.732   5.387  11.264  0.2312  0.3163 -0.0937
 2207W        W 5951   4.896   5.057  12.328 -0.0626 -0.1351 -0.0848
 2208W        W 5952   8.614   6.262   2.659  0.2405  0.1531 -0.4663
 2209W        W 5953   0.801   1.091   4.254 -0.1618  0.0693  0.0626
 2210W        W 5954   2.267   6.671   1.695 -0.1354 -0.0782  0.1886
 2211W        W 5955   4.518   3.779   9.353 -0.1677 -0.1931 -0.1805
 2212W        W 5956   8.643   6.291   3.216 -0.1076 -0.0678  0.1884
 2213W        W 5957   9.660   7.137   1.418  0.0464 -0.1317  0.1394
 2214W        W 5958   5.528   5.667   2.572 -0.0345 -0.4306 -0.1915
 2215W        W 5959   8.634   3.247  11.454  0.0723 -0.0768  0.4442
 2216W        W 5960   9.796   6.528   9.817  0.2823  0.0118  0.2474
 2217W        W 5961   1.552   8.304   0.375 -0.3763 -0.1176  0.0864
 2218W        W 5962   6.133   3.859  10.813 -0.1965  0.1926 -0.0595
 2219W        W 5963   0.420   9.371  12.822  0.0832 -0.2103 -0.1092
 2220W        W 5964   1.988   4.280   0.673  0.2099  0.0298 -0.1085
 2221W        W 5965   6.356   9.280   1.448  0.3297 -0.2224 -0.4563
 2222W        W 5966   6.903   8.763   2.859  0.2192  0.0222  0.0199
 2223W        W 5967   7.635   3.973   2.162 -0.4293 -0.0614  0.0053
 2224W        W 5968   2.911   8.676   2.784  0.6141 -0.0247 -0.0956
 2225W        W 5969   0.561   2.810   3.867 -0.3259 -0.2334 -0.2394
 2226W        W 5970   5.740   2.780   0.432 -0.0090 -0.0525 -0.4292
 2227W        W 5971   1.668   1.633   2.477  0.2427  0.3326 -0.1186
 2228W        W 5972   8.150   0.833   2.079  0.1396 -0.2406 -0.2482
 2229W        W 5973   0.660   8.971   0.825 -0.1181  0.2033  0.3823
 2230W        W 5974   6.511   2.727   0.955 -0.4091 -0.3676 -0.0613
 2231W        W 5975   8.936   6.661   0.180 -0.2776  0.0303  0.0019
 2232W        W 5976   3.808   8.759  12.074  0.1441 -0.1942  0.0465
 2233W        W 5977   0.619   1.025   9.254 -0.1001 -0.2260 -0.3302
 2234W        W 5978   2.050   0.140   9.346  0.0231  0.1569  0.0602
 2235W        W 5979   9.151   1.193   9.000 -0.0462 -0.1340  0.0694
 2236W        W 5980   6.424   6.457   8.777  0.1923  0.3079 -0.0676
 2237W        W 5981   3.140   9.090  12.122 -0.1122  0.2424 -0.3052
 2238W        W 5982   8.501   4.679  11.693 -0.1044  0.0982  0.1051
 2239W        W 5983   9.382   9.297   9.113  0.1760  0.2086 -0.0218
 2240W        W 5984   5.732   7.964  10.580 -0.3227  0.3437 -0.2390
 2241W        W 5985   2.892   1.862   3.956  0.1531  0.0514  0.0105
 2242W        W 5986   2.369   8.945  10.537  0.0769 -0.0398 -0.1211
 2243W        W 5987   6.875   5.565   2.003  0.1620  0.1755 -0.0128
 2244W        W 5988   2.903   4.774  11.234 -0.0573 -0.0010  0.2455
 2245W        W 5989   4.795   8.275  11.506 -0.3285 -0.1971  0.2969
 2246W        W 5990   1.286   8.388   3.607  0.0943 -0.0440  0.0640
 2247W        W 5991   0.399   7.325  12.367 -0.0989  0.0651 -0.3869
 2248W        W 5992   0.282   7.888   4.351  0.0019 -0.1392 -0.3524
 2249W        W 5993   4.295   2.511   3.053 -0.0077  0.0165  0.0685
 2250W        W 5994   0.797   9.115   3.232  0.1074  0.2965  0.1944
 2251W        W 5995   4.908   3.484  11.681 -0.2061  0.1579 -0.1325
 2252W        W 5996   4.471   4.369   0.021 -0.1191 -0.2620 -0.0723
 2253W        W 5997   8.169   6.151   9.035  0.2482  0.0850  0.1899
 2254W        W 5998   3.813   9.662  12.796  0.1005  0.4531 -0.1723
 2255W        W 5999   9.619   7.104   2.031  0.2830  0.0594 -0.0255
 2256W        W 6000   6.143   8.692   9.744  0.1310 -0.0515  0.0246
 2257W        W 6001   8.107   4.869  10.876  0.1926 -0.0303 -0.2774
 2258W        W 6002   8.482   9.132   2.832 -0.2619 -0.0542 -0.0405
 2259W        W 6003   0.513   2.705  12.524  0.3544  0.1113  0.2024
 2260W        W 6004   0.508   2.149  10.010  0.0470  0.0834  0.0388
 2261W        W 6005   4.934   6.944   8.902 -0.4029 -0.0167  0.1682
 2262W        W 6006   9.794   3.464   2.046 -0.1156 -0.0916  0.2816
 2263W        W 6007   6.109   4.431  10.239  0.1531  0.1115  0.2015
 2264W        W 6008   0.722   7.305   0.560  0.0172  0.1230  0.0969
 2265W        W 6009   4.683   3.182   4.101 -0.1987  0.2327 -0.2659
 2266W        W 6010   6.896   3.857   2.539 -0.1573 -0.0443 -0.1649
 2267W        W 6011   9.726   8.912   4.619 -0.1362 -0.0924 -0.3493
 2268W        W 6012   2.281   6.062  10.871  0.1299  0.3135  0.0631
 2269W        W 6013   8.025   1.237   2.407  0.2110 -0.0297 -0.0234
 2270W        W 6014   4.239   0.821   9.642  0.0589  0.1414  0.3477
 2271W        W 6015   6.490   4.523  11.555  0.0803  0.0930 -0.1595
 2272W        W 6016   2.923   0.236   2.896 -0.0906 -0.3112 -0.0747
 2273W        W 6017   3.189   0.360  12.095  0.0331  0.2847 -0.0084
 2274W        W 6018   5.318   4.374  12.029 -0.0806  0.3338  0.2841
 2275W        W 6019   4.119   0.003  12.395  0.0304 -0.0853  0.3064
 2276W        W 6020   9.429   6.849   2.836  0.0500  0.0210  0.0378
 2277W        W 6021   9.713   4.224  12.228  0.3074 -0.1459  0.0451
 2278W        W 6022   0.326   2.665  10.367  0.4056  0.4017 -0.0900
 2279W        W 6023   1.094   5.362   8.843  0.1041  0.2033  0.0786
 2280W        W 6024   3.228   5.650  11.588  0.0350 -0.1244  0.0339
 2281W        W 6025   4.318   6.603  10.164  0.0274 -0.0426  0.0864
 2282W        W 6026   4.953   2.825   0.979  0.0093  0.2076 -0.1323
 2283W        W 6027   6.767   9.503   9.850  0.2292 -0.3048 -0.1601
 2284W        W 6028   6.532   6.267  12.637 -0.1212 -0.0443  0.0568
 2285W        W 6029   9.582   0.588   2.518 -0.1282  0.2198  0.0583
 2286W        W 6030   9.211   8.165  10.748 -0.0509  0.0664 -0.0447
 2287W        W 6031   0.031   6.589   3.755  0.0059 -0.0231 -0.0235
 2288W        W 6032   9.585   6.750  10.561  0.1915 -0.0219  0.2338
 2289W        W 6033   5.585   1.295   1.799 -0.1351 -0.2139  0.0960
 2290W        W 6034   9.537   1.573  12.827  0.1515 -0.2722  0.3370
 2291W        W 6035   3.295   8.513  12.150 -0.0094 -0.1531  0.1198
 2292W        W 6036   8.830   2.471   3.297 -0.1243 -0.1193 -0.3117
 2293W        W 6037   8.327   8.653   2.911 -0.0817 -0.2254 -0.2369
 2294W        W 6038   0.808   6.946  12.642 -0.0100  0.1836 -0.0596
 2295W        W 6039   9.224   2.188   3.153 -0.0835 -0.0931  0.0691
 2296W        W 6040   5.708   4.476   9.544 -0.0393  0.3266  0.1890
 2297W        W 6041   9.295   7.414   0.744 -0.1450  0.0303 -0.1597
 2298W        W 6042   4.621   5.747   8.243  0.0224 -0.4574 -0.1165
 2299W        W 6043   3.678   0.102   1.658 -0.1047  0.1287  0.2579
 2300W        W 6044   9.591   6.198  10.466 -0.2692 -0.3198 -0.2236
 2301W        W 6045   6.081   7.649   2.653 -0.1295  0.1135 -0.0837
 2302W        W 6046   4.575   2.792   4.419  0.0883 -0.2611 -0.0659
 2303W        W 6047   3.902   7.052   0.904  0.1877 -0.1276 -0.1049
 2304W        W 6048   3.006   9.131  12.601  0.3725  0.1317  0.0931
 2305W        W 6049   1.214   6.007   3.248  0.0220  0.2245  0.3686
 2306W        W 6050   3.415   8.087   2.080 -0.1714  0.0758 -0.1574
 2307W        W 6051   3.385   6.306   9.721 -0.1196  0.0198 -0.1120
 2308W        W 6052   2.180   8.065   2.560  0.2326 -0.0223 -0.0559
 2309W        W 6053   1.563   4.388   5.010  0.2999 -0.1549 -0.1518
 2310W        W 6054   8.064   0.312  12.252  0.2227  0.2385  0.1272
 2311W        W 6055   9.192   7.371   2.232 -0.0546 -0.0736  0.1065
 2312W        W 6056   0.453   8.661   0.422  0.0545 -0.0167  0.1426
 2313W        W 6057   5.493   4.316  12.484 -0.1695 -0.0824 -0.1330
 2314W        W 6058   7.606   9.239   2.877 -0.1865 -0.1913  0.0974
 2315W        W 6059   2.995   2.293   3.762 -0.2153 -0.0951 -0.2343
 2316W        W 6060   0.398   1.640  10.895  0.1502  0.3104  0.2773
 2317W        W 6061   1.389   8.636  10.770  0.2114 -0.0301 -0.2201
 2318W        W 6062   9.305   9.188  12.544  0.5037 -0.1822  0.0306
 2319W        W 6063   9.243   7.656   2.766 -0.1198  0.0879 -0.2002
 2320W        W 6064   4.089   6.439  10.896 -0.0858 -0.0532  0.1575
 2321W        W 6065   0.018   0.917  11.746 -0.4049 -0.4861 -0.0264
 2322W        W 6066   0.902   7.921   2.770 -0.0420  0.2290 -0.1924
 2323W        W 6067   5.675   6.294   1.723  0.0982  0.2269 -0.2902
 2324W        W 6068   9.181   9.106  10.447  0.0238  0.1544 -0.0190
 2325W        W 6069   0.520   3.689   1.607  0.0743  0.1810  0.1912
 2326W        W 6070   8.112   7.138  11.384 -0.3063  0.0939 -0.2304
 2327W        W 6071   6.509   8.943   0.254  0.1282 -0.1912  0.1047
 2328W        W 6072   3.816   8.239   8.841  0.1530  0.2290 -0.0596
 2329W        W 6073   7.006   4.550   1.423 -0.5076 -0.0956  0.0374
 2330W        W 6074   9.110   1.174   1.881 -0.0223  0.2238 -0.0046
 2331W        W 6075   9.132   9.665   2.819 -0.1789 -0.1877  0.2622
 2332W        W 6076   6.207   0.670   2.983  0.2268 -0.1821 -0.2500
 2333W        W 6077   4.560   9.532   0.610  0.0582 -0.1329  0.1851
 2334W        W 6078   3.042   9.116   3.742 -0.0326 -0.1469  0.0876
 2335W        W 6079   2.492   7.282   2.993 -0.1472 -0.2442  0.2280
 2336W        W 6080   1.619   5.579  12.486 -0.2646 -0.1045 -0.0093
 2337W        W 6081   6.715   1.571  12.817 -0.2239  0.1056  0.0972
 2338W        W 6082   0.168   3.856  10.213  0.0720 -0.1035  0.3141
 2339W        W 6083   2.600   2.805   9.239 -0.1575  0.3005  0.0893
 2340W        W 6084   3.357   9.724   1.341 -0.0740 -0.3477 -0.0390
 2341W        W 6085   7.464   8.547   2.120  0.3372  0.2569 -0.3583
 2342W        W 6086   7.953   8.820   3.211  0.1838  0.1586  0.3339
 2343W        W 6087   1.832   4.705   9.416  0.0258  0.1786 -0.0689
 2344W        W 6088   7.663   6.957  10.100  0.0565 -0.0286 -0.1139
 2345W        W 6089   4.370   8.266   1.633 -0.1647  0.0990 -0.4235
 2346W        W 6090   9.417   7.899  12.391 -0.1112 -0.1520  0.0071
 2347W        W 6091   3.654   0.576   1.069 -0.0730 -0.0471 -0.0286
 2348W        W 6092   7.317   0.817  11.703 -0.0426  0.0509 -0.0948
 2349W        W 6093   3.799   2.343   1.351 -0.1148 -0.0234 -0.1385
 2350W        W 6094   7.695   5.161   0.684  0.2262  0.1340 -0.1558
 2351W        W 6095   1.115   1.767   3.481 -0.0271 -0.2613  0.1981
 2352W        W 6096   3.390   5.635   3.606 -0.0147 -0.1389  0.2395
 2353W        W 6097   0.376   2.756   3.184 -0.0250  0.0143  0.2208
 2354W        W 6098   4.469   5.306  12.886 -0.0656 -0.1431  0.0212
 2355W        W 6099   4.098   4.500  11.819 -0.1322  0.1241 -0.0379
 2356W        W 6100   3.981   9.774  11.115 -0.3142  0.0263 -0.2221
 2357W        W 6101   6.889   0.147   8.952  0.1893  0.1090  0.1570
 2358W        W 6102   4.921   3.486  11.164 -0.1630 -0.1830  0.1024
 2359W        W 6103   9.100   2.437  10.084 -0.3428  0.0683  0.0450
 2360W        W 6104   4.525   4.397   3.130 -0.1181  0.0721 -0.0443
 2361W        W 6105   0.363   0.093   8.050  0.0961  0.2144  0.0469
 2362W        W 6106   8.749   0.708  10.302 -0.0570  0.3875 -0.0229
 2363W        W 6107   3.882   8.129  10.055  0.2718 -0.1973 -0.4279
 2364W        W 6108   3.888   3.199   9.111 -0.1564 -0.0518  0.2119
 2365W        W 6109   5.624   2.698   2.140  0.0444 -0.1400  0.0393
 2366W        W 6110   4.669   1.400   1.056  0.0945  0.0856 -0.2040
 2367W        W 6111   5.105   2.145  12.939  0.0780 -0.1184  0.2302
 2368W        W 6112   0.292   1.168  12.065 -0.1265 -0.2466 -0.3271
 2369W        W 6113   6.820   7.120  12.030 -0.0336  0.0666 -0.1190
 2370W        W 6114   5.113   6.621   9.730 -0.2277  0.2372 -0.1347
 2371W        W 6115   5.452   9.438  10.578  0.1272 -0.2787 -0.1803
 2372W        W 6116   2.793   9.025   9.692  0.1231 -0.0523  0.0064
 2373W        W 6117   3.394   0.522  11.244  0.0647 -0.0844 -0.1404
 2374W        W 6118   4.353   9.844   1.110 -0.1253  0.2165  0.4717
 2375W        W 6119   4.023   9.688   2.167  0.1148 -0.0836  0.1713
 2376W        W 6120   4.135   4.725   3.083 -0.0468 -0.0977 -0.0286
 2377W        W 6121   2.403   8.297   0.066 -0.0183 -0.3251 -0.0373
 2378W        W 6122   8.326   5.861   0.039  0.0363 -0.2541  0.2179
 2379W        W 6123   1.366   3.236   1.882 -0.1417  0.1184  0.2326
 2380W        W 6124   0.116   4.879  11.667  0.0898 -0.2006 -0.1867
 2381W        W 6125   9.585   7.740  11.466  0.3394  0.1349  0.2261
 2382W        W 6126   5.403   7.289  10.703 -0.0315  0.1098  0.2477
 2383W        W 6127   0.702   5.650   8.749 -0.0618  0.1723 -0.1628
 2384W        W 6128   8.161   8.331   4.644  0.2437  0.1442 -0.1407
 2385W        W 6129   1.232   1.178   0.827 -0.5178  0.1509  0.0931
 2386W        W 6130   9.630   4.450  11.721  0.0029 -0.0640 -0.0223
 2387W        W 6131   2.365   1.211   0.279 -0.0952 -0.1406 -0.1062
 2388W        W 6132   0.475   0.254  10.013 -0.2601  0.0884 -0.0726
 2389W        W 6133   6.284   1.194  10.739 -0.4685 -0.0310  0.0507
 2390W        W 6134   1.040   6.005   8.749  0.0699 -0.3035 -0.0719
 2391W        W 6135   7.260   9.700  10.570  0.0768  0.0978  0.2071
 2392W        W 6136   5.089   0.333  10.907 -0.1319  0.1774 -0.2042
 2393W        W 6137   9.585   9.051   4.165 -0.0626  0.0664  0.0218
 2394W        W 6138   2.008   7.395   2.896  0.1164 -0.0698  0.2164
 2395W        W 6139   4.767   5.324   2.428  0.1864 -0.1114 -0.0233
 2396W        W 6140   1.369   3.482   9.913 -0.0499  0.1802  0.5369
 2397W        W 6141   8.532   5.938  11.347  0.2600 -0.3877  0.2002
 2398W        W 6142   2.498   0.562   2.968  0.1667  0.0762 -0.3249
 2399W        W 6143   0.807   0.003   3.676 -0.0124  0.1558 -0.0879
 2400W        W 6144   3.754   5.985  11.230 -0.4030  0.1158  0.2378
 2401W        W 6145   1.676   9.798   1.700 -0.2132 -0.1654  0.0520
 2402W        W 6146   3.243   4.712  11.604  0.1945  0.3423 -0.2453
 2403W        W 6147   4.688   5.551   0.978 -0.2145  0.0682  0.0530
 2404W        W 6148   7.607   7.312  12.661  0.0673 -0.0911  0.3737
 2405W        W 6149   8.082   8.114   0.889 -0.1315 -0.1579  0.0492
 2406W        W 6150   2.023   1.758   1.806  0.0695  0.1837  0.3208
 2407W        W 6151   4.501   3.771   0.913  0.0876  0.1501  0.0168
 2408W        W 6152   0.601   5.899   4.609 -0.3115 -0.3417 -0.0425
 2409W        W 6153   8.433   8.862  12.224  0.0322 -0.0518  0.1275
 2410W        W 6154   8.674   8.992   0.016  0.0648 -0.3236 -0.0306
 2411W        W 6155   4.290   2.741  12.538  0.2052 -0.1118 -0.3363
 2412W        W 6156   8.838   8.989  12.489  0.2470 -0.2545 -0.0287
 2413W        W 6157   0.111   0.226   0.469  0.2694  0.2534 -0.0737
 2414W        W 6158   3.591   5.967   2.597 -0.0724 -0.2282  0.1651
 2415W        W 6159   5.586   7.172  11.680  0.4140  0.0672  0.2047
 2416W        W 6160   2.155   3.476   9.586 -0.0772 -0.2866 -0.1143
 2417W        W 6161   3.752   3.891   9.416 -0.0748 -0.0331 -0.0413
 2418W        W 6162   0.079   4.129   3.616 -0.1159 -0.3495 -0.1051
 2419W        W 6163   0.449   1.101  10.733 -0.3230  0.0354 -0.0346
 2420W        W 6164   3.123   3.353   2.840 -0.2928  0.3178 -0.1021
 2421W        W 6165   8.936   9.465  11.408  0.2825  0.1254 -0.0220
 2422W        W 6166   2.254   4.293   3.548 -0.0857 -0.0684  0.4042
 2423W        W 6167   7.068   6.982   1.933  0.0713  0.0212 -0.0803
 2424W        W 6168   1.754   6.049  10.618  0.0153 -0.1959  0.0295
 2425W        W 6169   5.827   5.333   1.311  0.2797 -0.1467  0.0106
 2426W        W 6170   3.574   2.418   1.756 -0.0528 -0.1755 -0.0286
 2427W        W 6171   1.262   1.323   4.148  0.4154 -0.3578 -0.0409
 2428W        W 6172   4.012   6.939   0.022 -0.1407  0.1876  0.4075
 2429W        W 6173   2.749   1.570   0.560 -0.0638 -0.0197 -0.2046
 2430W        W 6174   2.509   2.476   4.517  0.0729  0.2748  0.2706
 2431W        W 6175   4.436   3.346  12.612 -0.0615  0.1464 -0.2073
 2432W        W 6176   8.535   2.572   2.913 -0.1300  0.2505  0.2363
 2433W        W 6177   0.767   3.097   0.447 -0.1251  0.0213 -0.0576
 2434W        W 6178   5.051   5.843   1.312 -0.2725 -0.1894 -0.1174
 2435W        W 6179   3.354   8.216  12.891 -0.0706  0.0789  0.2510
 2436W        W 6180   3.018   2.784  10.119  0.0399  0.0823  0.0470
 2437W        W 6181   2.989   6.522  11.324 -0.5464  0.1185 -0.0227
 2438W        W 6182   7.292   5.848   4.797  0.2298 -0.0738 -0.1089
 2439W        W 6183   3.693   7.360   3.781  0.1168 -0.0298 -0.2201
 2440W        W 6184   8.733   4.237  11.850  0.2875 -0.2588 -0.3748
 2441W        W 6185   3.853   9.766  11.739 -0.0839  0.0166  0.1159
 2442W        W 6186   7.691   5.922   3.708  0.1600 -0.0335  0.3173
 2443W        W 6187   6.404   5.532   3.755 -0.2926 -0.1530  0.1227
 2444W        W 6188   9.024   4.788  12.099 -0.3126 -0.0184 -0.0882
 2445W        W 6189   5.621   4.391  10.075  0.0786  0.4243  0.2290
 2446W        W 6190   4.597   0.655  12.009 -0.0285 -0.1084  0.1574
 2447W        W 6191   0.003   1.846  12.034 -0.0256  0.1575 -0.2097
 2448W        W 6192   0.569   3.873  12.583  0.0784  0.2124 -0.1275
 2449W        W 6193   7.526   3.195  12.195 -0.1659 -0.0948 -0.3192
 2450W        W 6194   8.329   1.964  12.440  0.1744  0.0350 -0.1556
 2451W        W 6195   6.738   8.173  12.559  0.0333 -0.0360 -0.2183
 2452W        W 6196   1.767   1.821   1.290 -0.1529 -0.1081 -0.1534
 2453W        W 6197   2.169   5.140  12.001 -0.2246 -0.4358 -0.1478
 2454W        W 6198   6.192   5.827  10.001  0.1357 -0.0861 -0.0181
 2455W        W 6199   1.067   7.093  11.130  0.2162 -0.3758 -0.2749
 2456W        W 6200   9.595   9.742  10.364  0.0397 -0.0410  0.2048
 2457W        W 6201   3.855   1.188  12.001  0.0565  0.2630 -0.1136
 2458W        W 6202   7.483   4.897   2.954 -0.0185 -0.2324  0.1220
 2459W        W 6203   8.140   1.952   1.214 -0.0420 -0.2865  0.0344
 2460W        W 6204   0.496   4.398  11.837  0.0837  0.1093  0.0203
 2461W        W 6205   4.538   6.335   3.260 -0.3793  0.0561  0.0467
 2462W        W 6206   1.954   1.204   9.777 -0.1163 -0.2225  0.0013
 2463W        W 6207   3.615   5.974   0.197  0.0534 -0.2264 -0.2386
 2464W        W 6208   3.652   6.804   9.511  0.0716  0.4581 -0.1478
 2465W        W 6209   8.703   2.042  10.732 -0.0702 -0.0114  0.3626
 2466W        W 6210   6.581   5.209  10.821 -0.1262  0.2413  0.0769
 2467W        W 6211   7.200   5.987   3.870 -0.3037  0.3443 -0.1748
 2468W        W 6212   7.392   4.839   1.647 -0.0333 -0.2350  0.1077
 2469W        W 6213   9.585   9.108   9.558 -0.0504  0.0582 -0.0567
 2470W        W 6214   2.433   4.989   9.001  0.0734 -0.0327  0.3060
 2471W        W 6215   7.715   7.961   0.533  0.1044  0.0333  0.3846
 2472W        W 6216   1.622   6.578   9.210 -0.3146 -0.0842 -0.2110
 2473W        W 6217   3.211   6.150  10.886  0.0266  0.0159  0.2100
 2474W        W 6218   7.287   7.733   8.244 -0.1006 -0.1694 -0.0971
 2475W        W 6219   3.111   8.440   1.326 -0.2472 -0.0228 -0.0468
 2476W        W 6220   7.413   6.861  12.879 -0.0977  0.0939 -0.3038
 2477W        W 6221   3.270   1.494  10.770 -0.0301 -0.0443  0.3265
 2478W        W 6222   2.861   2.481  11.854 -0.2164 -0.0097 -0.4605
 2479W        W 6223   6.143   0.232   1.126 -0.0238  0.0966  0.0169
 2480W        W 6224   7.131   1.150  10.787  0.2329  0.1517 -0.0234
 2481W        W 6225   8.478   0.637   3.010 -0.0700  0.1565 -0.1462
 2482W        W 6226   5.389   1.233   9.434  0.0470 -0.5826  0.0888
 2483W        W 6227   4.792   9.869   4.165 -0.4385 -0.0133 -0.0465
 2484W        W 6228   3.188   0.650   0.886 -0.0270 -0.1147  0.0404
 2485W        W 6229   5.012   1.980  11.911  0.1419  0.0078 -0.0608
 2486W        W 6230   0.482   0.151   8.871 -0.1443  0.4073  0.0554
 2487W        W 6231   5.793   5.723  12.045  0.1919 -0.0721 -0.0685
 2488W        W 6232   0.042   5.870   1.216  0.0319 -0.0830  0.0646
 2489W        W 6233   8.726   8.527   2.025  0.1482  0.2004  0.0969
 2490W        W 6234   2.689   4.063  11.948 -0.0196  0.1266 -0.0137
 2491W        W 6235   5.041   5.177   0.649 -0.1203  0.0494 -0.0931
 2492W        W 6236   0.627   3.258   2.537  0.4553 -0.1186  0.0183
 2493W        W 6237   0.424   9.383   3.075  0.0897 -0.2480  0.2540
 2494W        W 6238   5.806   5.543   9.664  0.1079 -0.2168  0.1262
 2495W        W 6239   6.345   6.667   0.964  0.0675 -0.1593  0.1765
 2496W        W 6240   5.042   8.032   8.246 -0.3023 -0.1499 -0.2663
 2497W        W 6241   4.557   0.271   1.523  0.0452 -0.1752  0.0602
 2498W        W 6242   7.553   1.751  11.895  0.1849  0.1546 -0.0232
 2499W        W 6243   6.635   2.447   0.061  0.7052 -0.1086 -0.0399
 2500W        W 6244   3.023   7.763  10.645 -0.0428 -0.2401 -0.1988
 2501W        W 6245   4.689   8.466   3.333  0.1210 -0.1359 -0.1392
 2502W        W 6246   7.410   7.534   8.721  0.1404  0.0539  0.1698
 2503W        W 6247   4.241   1.022   1.257  0.0627 -0.3064  0.1648
 2504W        W 6248   7.220   9.474   0.501 -0.0925 -0.3242  0.0743
 2505W        W 6249   1.594   2.866  12.600 -0.4113  0.1528 -0.5214
 2506W        W 6250   2.451   4.638  12.803 -0.0161  0.0227 -0.0093
 2507W        W 6251   9.196   5.036   2.484  0.2244  0.1585 -0.0419
 2508W        W 6252   7.274   3.775  10.285  0.2760  0.1161  0.1360
 2509W        W 6253   2.192   8.569   4.163 -0.0612 -0.1340  0.6069
 2510W        W 6254   3.634   9.004   1.528  0.3070 -0.1037  0.2794
 2511W        W 6255   9.441   1.387   0.333 -0.1958  0.4057  0.0090
 2512W        W 6256   6.286   6.222   0.697  0.0438  0.1024 -0.1809
 2513W        W 6257   3.791   1.422   1.327 -0.1347  0.0087  0.2670
 2514W        W 6258   9.679   2.759   1.440  0.0432 -0.4365 -0.1287
 2515W        W 6259   4.377   7.907  12.468 -0.2668 -0.1604  0.0121
 2516W        W 6260   3.013   0.068   1.679 -0.2867  0.2618 -0.0080
 2517W        W 6261   1.397   4.999  11.397  0.0370  0.0679  0.0348
 2518W        W 6262   9.262   4.049  11.030 -0.1244  0.0331  0.1145
 2519W        W 6263   4.409   6.732  11.165  0.0665 -0.0425 -0.1548
 2520W        W 6264   2.575   4.692  10.852 -0.0648 -0.0197  0.0943
 2521W        W 6265   7.060   4.105  11.995 -0.2104  0.0078 -0.0432
 2522W        W 6266   7.426   5.040  11.623  0.1411 -0.4882 -0.0732
 2523W        W 6267   0.361   7.941   3.899 -0.2805  0.1466 -0.4340
 2524W        W 6268   7.962   1.254   0.566 -0.0235 -0.2113  0.4457
 2525W        W 6269   2.158   1.518   2.258  0.1253  0.2109  0.0119
 2526W        W 6270   0.579   1.196   9.904  0.0964 -0.0394  0.0348
 2527W        W 6271   1.605   7.905   5.115 -0.0750 -0.0565 -0.1531
 2528W        W 6272   2.968   3.940   0.431 -0.2868 -0.4833 -0.0656
 2529W        W 6273   8.304   1.310  12.043  0.1325  0.0602  0.0862
 2530W        W 6274   8.231   3.063   1.138  0.2696 -0.0344  0.0609
 2531W        W 6275   9.159   0.443   2.259 -0.2558  0.1371 -0.1647
 2532W        W 6276   0.651   4.017   0.270  0.1904 -0.2744 -0.1945
 2533W        W 6277   5.147   5.809   4.025  0.1224  0.0264  0.0628
 2534W        W 6278   9.634   2.300   1.326  0.0632 -0.1042 -0.0256
 2535W        W 6279   0.891   5.829  11.118 -0.2443  0.3052 -0.1825
 2536W        W 6280   4.573   3.976   1.365 -0.0140 -0.0259  0.3524
 2537W        W 6281   9.567   0.125  12.020  0.0350 -0.0664  0.2889
 2538W        W 6282   3.921   6.444   0.237  0.1200  0.0033  0.1030
 2539W        W 6283   5.546   6.265  10.608  0.0842 -0.0535  0.4217
 2540W        W 6284   1.306   3.140  12.234 -0.0524 -0.0175 -0.1037
 2541W        W 6285   2.475   4.433   9.653  0.0502 -0.2132 -0.1968
 2542W        W 6286   6.685   2.941   0.482 -0.3895  0.0399 -0.0248
 2543W        W 6287   8.006   8.207   8.646 -0.1238 -0.1783 -0.2086
 2544W        W 6288   5.663   3.180   1.273  0.2255 -0.0189  0.1582
 2545W        W 6289   0.513   0.698   9.747  0.0920 -0.0289 -0.2164
 2546W        W 6290   2.425   3.032  11.348 -0.3644  0.0208 -0.2660
 2547W        W 6291   7.602   0.948   3.151  0.1827  0.2338  0.3411
 2548W        W 6292   0.967   6.288   0.641  0.1370  0.3289  0.1896
 2549W        W 6293   4.899   3.506  12.765 -0.2448 -0.2837 -0.1027
 2550W        W 6294   7.821   7.382  11.758  0.0459 -0.0728 -0.1159
 2551W        W 6295   3.982   3.794  10.020 -0.1278  0.0473  0.3061
 2552W        W 6296   9.621   7.344  11.188  0.0959  0.2225  0.0244
 2553W        W 6297   1.600   3.081   1.325  0.0904  0.0098 -0.0521
 2554W        W 6298   8.598   3.566   1.373 -0.1668 -0.1543 -0.0899
 2555W        W 6299   6.595   6.393  11.136 -0.0928  0.2249 -0.3622
 2556W        W 6300   9.879   0.993   3.676  0.1322 -0.3164 -0.3639
 2557W        W 6301   1.747   1.344   1.996  0.4532 -0.1273  0.0971
 2558W        W 6302   9.834   7.421   9.135  0.0952 -0.2036 -0.1004
 2559W        W 6303   4.574   8.733   9.994 -0.4080  0.0059  0.0847
 2560W        W 6304   5.815   5.187  12.024 -0.0873  0.0220 -0.1715
 2561W        W 6305   2.579   2.867  12.675  0.0827  0.1182 -0.1589
 2562W        W 6306   6.154   2.920   1.265  0.0045  0.3048  0.0131
 2563W        W 6307   1.542   9.356   3.880 -0.1461  0.0099  0.0006
 2564W        W 6308   3.818   6.396   3.903 -0.1034 -0.3263  0.3233
 2565W        W 6309   4.995   0.203   1.991 -0.1903 -0.1076  0.3832
 2566W        W 6310   2.523   0.701   9.334 -0.3247 -0.2455  0.0639
 2567W        W 6311   7.779   2.877   0.454  0.0230  0.0500 -0.2700
 2568W        W 6312   5.338   3.170   9.430 -0.0192 -0.0473 -0.0902
 2569W        W 6313   3.322   8.998   2.050  0.2194  0.1279  0.2969
 2570W        W 6314   1.588   3.180  10.323 -0.1605 -0.0117  0.1136
 2571W        W 6315   3.521   3.199   0.009 -0.2690 -0.1821 -0.1163
 2572W        W 6316   1.354   3.858   2.400 -0.2094 -0.0537  0.0198
 2573W        W 6317   0.504   9.558   4.025 -0.0277  0.2864  0.0752
 2574W        W 6318   3.302   7.522  11.024  0.0352 -0.2214 -0.0666
 2575W        W 6319   0.441   6.993   2.562 -0.3212  0.2156 -0.1594
 2576W        W 6320   6.289   0.442  10.167 -0.2713 -0.1993  0.0597
 2577W        W 6321   4.577   5.769   2.509 -0.2131  0.1475  0.0687
 2578W        W 6322   1.825   5.482   7.812  0.2026  0.1542 -0.1518
 2579W        W 6323   2.525   8.832   0.819 -0.0326  0.2786 -0.2889
 2580W        W 6324   0.055   0.728   9.402 -0.2374 -0.0187  0.1533
 2581W        W 6325   8.058   6.971   3.706  0.2093 -0.0333  0.0375
 2582W        W 6326   1.818   9.504   0.006 -0.3039 -0.2588 -0.2466
 2583W        W 6327   0.360   3.107   2.056 -0.2972 -0.3413  0.1340
 2584W        W 6328   3.781   8.831   2.003  0.2166 -0.1438 -0.0181
 2585W        W 6329   9.731   6.421   9.294 -0.0471  0.0910 -0.2470
 2586W        W 6330   5.525   7.481   1.967  0.0533  0.1992 -0.3802
 2587W        W 6331   8.471   7.153   9.919  0.1244  0.0179 -0.2053
 2588W        W 6332   7.196   7.991  10.044 -0.1298 -0.3360  0.1729
 2589W        W 6333   4.489   4.218  12.017 -0.2354 -0.0536  0.2417
 2590W        W 6334   1.055   4.577  11.442  0.0306  0.0388  0.3129
 2591W        W 6335   3.765   7.971   2.883  0.1427  0.4011  0.0719
 2592W        W 6336   5.130   0.266   3.607 -0.1459  0.0688  0.0138
 2593W        W 6337   0.799   8.231  10.001  0.0423  0.0866 -0.2554
 2594W        W 6338   2.795   3.245   0.706  0.1838 -0.0014  0.0230
 2595W        W 6339   5.018   0.443  11.907 -0.2881 -0.3025  0.1747
 2596W        W 6340   1.101   2.639   8.524  0.0007  0.2967  0.1624
 2597W        W 6341   1.941   8.721   3.680 -0.0730 -0.3211  0.0033
 2598W        W 6342   5.445   7.863   1.229 -0.1447  0.0494 -0.1252
 2599W        W 6343   4.566   3.006   2.938 -0.1290 -0.0257  0.0448
 2600W        W 6344   8.139   2.706   1.652 -0.2781  0.0297 -0.0346
 2601W        W 6345   0.876   8.474   0.052  0.0494  0.0408  0.3999
 2602W        W 6346   2.228   4.254   1.562 -0.1335  0.1181 -0.0079
 2603W        W 6347   7.806   2.394   1.224  0.3432  0.2159  0.0149
 2604W        W 6348   2.822   5.238   1.412  0.1458  0.1232 -0.0503
 2605W        W 6349   7.514   0.155   1.967 -0.3810 -0.1625  0.3601
 2606W        W 6350   2.842   7.031  12.769  0.1028  0.0358  0.4284
 2607W        W 6351   3.945   4.088   3.869  0.0732  0.2070 -0.0358
 2608W        W 6352   7.145   7.703   1.067  0.1242  0.1181 -0.1392
 2609W        W 6353   6.000   5.858   0.318 -0.4483 -0.1176  0.1812
 2610W        W 6354   6.976   7.635  11.742 -0.1640 -0.2643 -0.0446
 2611W        W 6355   9.824   1.206  12.905  0.3681 -0.0642 -0.2443
 2612W        W 6356   5.395   7.220   3.662  0.4179  0.3145  0.4518
 2613W        W 6357   8.484   8.538   9.902  0.1888 -0.2607 -0.1868
 2614W        W 6358   8.383   4.448   2.320  0.1726  0.0644  0.0409
 2615W        W 6359   2.490   4.107   0.279 -0.2006  0.0731 -0.3164
 2616W        W 6360   2.691   4.610   2.080 -0.0920  0.0817  0.1779
 2617W        W 6361   0.878   0.634   0.347 -0.5551  0.0666 -0.1647
 2618W        W 6362   9.478   0.014   4.307 -0.0860  0.0977 -0.1253
 2619W        W 6363   5.796   4.113   8.954  0.2394  0.0634 -0.1420
 2620W        W 6364   0.637   6.668   4.160 -0.0717  0.0395  0.1353
 2621W        W 6365   4.886   4.111   0.645  0.0074  0.2073 -0.2794
 2622W        W 6366   1.641   8.788   3.279  0.1161 -0.2617  0.1262
 2623W        W 6367   3.011   1.751   2.329  0.0275 -0.1195 -0.0107
 2624W        W 6368   3.378   4.258   0.316  0.3060 -0.1432  0.0634
 2625W        W 6369   2.988   7.512  12.845 -0.2503  0.0592  0.0132
 2626W        W 6370   4.296   5.170   2.735 -0.2182 -0.0867 -0.1790
 2627W        W 6371   9.152   2.432  12.527  0.0136  0.1391  0.1106
 2628W        W 6372   6.704   0.416   1.635 -0.0611 -0.1470  0.2734
 2629W        W 6373   5.078   0.626   3.189  0.1926  0.1283  0.1808
 2630W        W 6374   1.840   0.524  12.811 -0.0806 -0.1971  0.5696
 2631W        W 6375   2.691   6.650  11.778  0.0399 -0.0292 -0.3654
 2632W        W 6376   9.851   1.752   9.587 -0.1438  0.0958 -0.0309
 2633W        W 6377   0.392   3.991   9.740 -0.1047  0.0067 -0.0703
 2634W        W 6378   6.088   2.114   3.330 -0.0454  0.3928  0.1185
 2635W        W 6379   4.062   6.389  11.391 -0.1463 -0.3326  0.0652
 2636W        W 6380   6.183   5.665  11.557 -0.2150  0.2337 -0.0205
 2637W        W 6381   0.949   7.838  10.946 -0.1170 -0.3104  0.1414
 2638W        W 6382   5.255   7.650   4.024  0.2894  0.2381  0.0386
 2639W        W 6383   3.312   0.381   1.955  0.0559 -0.1907 -0.3779
 2640W        W 6384   6.871   3.900   0.115 -0.1104 -0.1764  0.2270
 2641W        W 6385   0.655   4.377  11.127 -0.2302  0.1400  0.2025
 2642W        W 6386   3.364   5.664  12.081  0.1623  0.1234 -0.0066
 2643W        W 6387   2.505   3.494   1.024  0.0857 -0.1414  0.0013
 2644W        W 6388   6.053   7.960  12.882  0.2484  0.2943  0.1511
 2645W        W 6389   8.140   5.003  11.566 -0.0449  0.0617  0.2059
 2646W        W 6390   2.869   2.615   9.567 -0.0605 -0.0475 -0.2701
 2647W        W 6391   9.882   0.097   2.611 -0.1616 -0.0550 -0.3015
 2648W        W 6392   6.369   0.987  11.958  0.0501  0.0036  0.2585
 2649W        W 6393   2.117   6.545  12.388  0.1085  0.0928  0.1709
 2650W        W 6394   6.180   2.642  10.601 -0.0167  0.1226 -0.0344
 2651W        W 6395   9.240   1.841   1.859  0.0242  0.1847 -0.0391
 2652W        W 6396   7.580   4.990  10.800 -0.0169  0.0170  0.0033
 2653W        W 6397   2.143   7.512  10.523 -0.3558 -0.0591 -0.1373
 2654W        W 6398   2.528   1.100   3.789 -0.0423 -0.0631  0.3842
 2655W        W 6399   6.352   6.956   5.241 -0.0390 -0.0513  0.2283
 2656W        W 6400   2.336   8.502  12.198  0.0820 -0.1516  0.2116
 2657W        W 6401   0.649   2.284  11.374  0.2651  0.0634  0.5130
 2658W        W 6402   4.109   3.657   1.894  0.1413  0.0142 -0.0620
 2659W        W 6403   1.834   5.166  11.092  0.0959  0.0102  0.0202
 2660W        W 6404   7.800   0.369   9.310 -0.0837  0.1911  0.2476
 2661W        W 6405   2.885   3.702   2.581  0.2435  0.0465  0.1374
 2662W        W 6406   8.030   4.708   9.482  0.0025 -0.0342  0.0050
 2663W        W 6407   3.529   4.255   1.731  0.2946 -0.2576 -0.2818
 2664W        W 6408   0.972   3.579   4.099 -0.1991  0.0415 -0.0167
 2665W        W 6409   0.190   0.680   8.885  0.0592  0.0380 -0.3026
 2666W        W 6410   0.042   6.179   8.884  0.0473 -0.0077  0.0134
 2667W        W 6411   7.684   6.945   9.137 -0.0450  0.1456 -0.0956
 2668W        W 6412   2.496   1.528   4.280  0.2968  0.0447  0.2998
 2669W        W 6413   0.668   9.881   9.343 -0.1135  0.0775  0.0790
 2670W        W 6414   8.858   7.368  10.929 -0.0155 -0.0449 -0.0093
 2671W        W 6415   7.621   2.760   2.894  0.3582 -0.1377  0.1868
 2672W        W 6416   1.921   9.037  10.758  0.3838  0.0857 -0.3938
 2673W        W 6417   6.159   4.929  11.755 -0.7659 -0.1224 -0.2049
 2674W        W 6418   5.245   3.345  10.565 -0.1011 -0.1422  0.0605
 2675W        W 6419   4.078   9.210   1.923 -0.1992  0.1376 -0.1870
 2676W        W 6420   5.211   8.392  12.740 -0.0736 -0.1159  0.2288
 2677W        W 6421   1.535   0.348  10.791  0.0091 -0.2945  0.1836
 2678W        W 6422   0.064   5.755   4.470  0.0968  0.1567 -0.0450
 2679W        W 6423   4.086   7.130   4.402  0.0848  0.2077  0.0714
 2680W        W 6424   5.313   2.553   0.809  0.1306  0.1609  0.1978
 2681W        W 6425   1.823   7.833   1.181 -0.0998  0.0973  0.2170
 2682W        W 6426   4.557   1.443  11.207  0.0086  0.2749 -0.4074
 2683W        W 6427   9.489   4.397  10.715  0.0981 -0.1934  0.0602
 2684W        W 6428   3.412   6.353   0.855 -0.2179  0.0759 -0.2142
 2685W        W 6429   9.853   9.265  10.440 -0.3797 -0.1654 -0.2192
 2686W        W 6430   9.699   5.987   9.874  0.1481 -0.0162 -0.0959
 2687W        W 6431   2.580   0.071   1.478 -0.0840 -0.0509  0.0967
 2688W        W 6432   2.682   0.524   0.735  0.2060  0.0528 -0.1499
 2689W        W 6433   2.383   4.376   4.566  0.0133  0.0563 -0.0031
 2690W        W 6434   4.515   1.927  12.468 -0.1128  0.1403  0.2479
 2691W        W 6435   0.076   6.999  10.616 -0.2775  0.0480 -0.0757
 2692W        W 6436   8.390   4.817   2.962 -0.0227  0.1029 -0.0880
 2693W        W 6437   8.691   9.375  10.238 -0.1459 -0.2080 -0.1788
 2694W        W 6438   9.057   3.908  12.784 -0.1111 -0.0493 -0.0896
 2695W        W 6439   2.736   7.097   2.563  0.0982 -0.1740  0.3208
 2696W        W 6440   9.800   5.315  10.300 -0.0089 -0.3823 -0.1202
 2697W        W 6441   5.728   7.957  11.449 -0.0513  0.1399 -0.1255
 2698W        W 6442   0.388   5.862  11.941  0.0095  0.2123 -0.1299
 2699W        W 6443   5.149   4.482   9.462  0.0099 -0.0475  0.1290
 2700W        W 6444   3.155   7.792   0.277 -0.0875  0.0517  0.0479
 2701W        W 6445   5.884   7.075   3.325  0.2072 -0.1020  0.1074
 2702W        W 6446   8.241   4.431   8.964  0.0085 -0.0280 -0.0670
 2703W        W 6447   8.053   2.607  11.841  0.0072  0.0505 -0.0850
 2704W        W 6448   9.350   8.625   2.689 -0.3825 -0.1408  0.2913
 2705W        W 6449   9.822   4.416   2.138 -0.0633  0.0734 -0.2053
 2706W        W 6450   0.935   1.400  12.894 -0.3315 -0.1227 -0.0132
 2707W        W 6451   9.661   6.216   2.493  0.3000 -0.5607  0.2494
 2708W        W 6452   9.650   0.208   2.193 -0.1713 -0.2979 -0.0785
 2709W        W 6453   1.235   0.254  12.289  0.0139  0.2510  0.1545
 2710W        W 6454   7.468   5.873  11.596 -0.1407 -0.0234 -0.1439
 2711W        W 6455   1.858   4.375   1.247  0.0282  0.2205  0.0413
 2712W        W 6456   9.860   0.292  10.295 -0.1939  0.1573 -0.1299
 2713W        W 6457   5.056   4.830  10.267  0.0784 -0.1842  0.1712
 2714W        W 6458   1.628   7.509   4.118 -0.2097 -0.0887 -0.0330
 2715W        W 6459   7.305   4.718  10.401 -0.1081 -0.0724  0.0317
 2716W        W 6460   7.312   8.895  11.167 -0.0424 -0.2217  0.1276
 2717W        W 6461   4.504   9.137   1.521  0.0235 -0.0935 -0.2092
 2718W        W 6462   5.847   4.470   2.800  0.2348 -0.0920  0.1304
 2719W        W 6463   5.028   1.863   1.841  0.0440 -0.0787 -0.0197
 2720W        W 6464   6.099   6.298  12.338  0.2704  0.0824  0.1823
 2721W        W 6465   1.670   3.963   1.637  0.2859  0.0716 -0.0696
 2722W        W 6466   4.799   5.446   0.317 -0.0209 -0.2839 -0.0131
 2723W        W 6467   7.873   2.675  10.927  0.3419  0.1087  0.0191
 2724W        W 6468   1.898   4.645  12.632 -0.2192  0.1335 -0.1661
 2725W        W 6469   5.087   1.240   4.798  0.0010  0.1309  0.4054
 2726W        W 6470   3.812   2.383  12.493  0.0996  0.4001 -0.1725
 2727W        W 6471   2.782   0.420   3.374 -0.1729  0.0715 -0.1539
 2728W        W 6472   4.971   0.600   1.629  0.0459 -0.0029 -0.1291
 2729W        W 6473   0.595   8.307  12.606  0.0244  0.2109 -0.0213
 2730W        W 6474   5.622   8.097  12.509  0.2603  0.1867  0.0952
 2731W        W 6475   5.222   5.361   1.879 -0.1518 -0.1342 -0.2371
 2732W        W 6476   0.846   1.555  12.409  0.1036 -0.3045 -0.0093
 2733W        W 6477   7.617   4.169   2.881  0.0460  0.0714  0.1252
 2734W        W 6478   8.874   8.070  11.666  0.3083 -0.3284  0.0404
 2735W        W 6479   2.268   3.514   0.222 -0.1113  0.0303 -0.5124
 2736W        W 6480   2.546   4.150   0.796 -0.1147 -0.1530 -0.2715
 2737W        W 6481   2.972   6.268   2.311 -0.1650  0.0136 -0.2827
 2738W        W 6482   1.525   6.382  12.464 -0.0320 -0.1581  0.0760
 2739W        W 6483   6.780   4.660   4.016 -0.2327  0.0616  0.2294
 2740W        W 6484   1.476   2.393   3.005  0.0261  0.1447 -0.1499
 2741W        W 6485   9.779   3.142   0.635  0.0524 -0.0030  0.2899
 2742W        W 6486   5.185   5.345   1.084 -0.0469 -0.1684  0.0982
 2743W        W 6487   0.069   7.443   1.820 -0.1041 -0.2112 -0.2054
 2744W        W 6488   1.022   1.070   9.650 -0.1442  0.3254  0.0422
 2745W        W 6489   1.610   2.012   8.835  0.1109 -0.1612  0.2545
 2746W        W 6490   6.569   5.226  11.707 -0.1900  0.4297 -0.4138
 2747W        W 6491   2.005   9.065  11.335 -0.1891 -0.0039  0.0856
 2748W        W 6492   2.112   1.826   4.311 -0.1940 -0.0480 -0.1821
 2749W        W 6493   9.730   6.868  11.015  0.1224  0.0822  0.0404
 2750W        W 6494   2.173   1.009   0.977  0.3083  0.2607 -0.1415
 2751W        W 6495   9.630   5.474  12.509 -0.1704  0.3371  0.2996
 2752W        W 6496   0.205   7.124  12.787  0.0832  0.3443 -0.4125
 2753W        W 6497   0.658   6.516   1.681  0.0914 -0.2147 -0.2038
 2754W        W 6498   3.668   5.537  12.582  0.1908  0.1488  0.0247
 2755W        W 6499   3.996   5.288   0.867 -0.0019 -0.2288  0.0478
 2756W        W 6500   1.779   7.732   3.608 -0.0583  0.0866 -0.0759
 2757W        W 6501   7.994   7.597   0.780  0.1097 -0.0406  0.0055
 2758W        W 6502   2.659   1.347  12.484 -0.3145 -0.0571 -0.1290
 2759W        W 6503   3.972   7.727   9.726  0.2465  0.1099  0.2638
 2760W        W 6504   0.261   2.210  12.756  0.5096 -0.4571 -0.4549
 2761W        W 6505   3.564   4.110  10.089 -0.0700  0.0347 -0.0871
 2762W        W 6506   5.001   4.878   2.338 -0.0001  0.1589  0.0143
 2763W        W 6507   5.883   3.662  12.086 -0.2634 -0.3017 -0.1144
 2764W        W 6508   7.856   6.761   4.131  0.0420 -0.0712  0.0557
 2765W        W 6509   8.392   4.025   1.508 -0.0357 -0.0092  0.1073
 2766W        W 6510   5.889   5.739   1.855 -0.0481 -0.0865 -0.2552
 2767W        W 6511   4.315   2.179  10.242  0.0195  0.3175 -0.0468
 2768W        W 6512   4.672   4.332   9.464  0.0223  0.3675  0.0883
 2769W        W 6513   1.153   1.072  11.388 -0.0712 -0.2409  0.2838
 2770W        W 6514   8.037   5.576   1.597 -0.1194  0.1834 -0.0752
 2771W        W 6515   0.789   4.558  12.452  0.0292  0.1295 -0.0046
 2772W        W 6516   9.119   9.119  11.078 -0.0613 -0.1851 -0.1211
 2773W        W 6517   6.136   5.622   8.545 -0.1887 -0.0738 -0.0047
 2774W        W 6518   4.154   3.191   3.762 -0.0781  0.2501  0.3108
 2775W        W 6519   5.876   0.869   3.325  0.0073  0.0318 -0.1369
 2776W        W 6520   4.537   0.853  10.320  0.0064 -0.1417 -0.1582
 2777W        W 6521   9.102   6.110  10.525  0.5786  0.0708 -0.4369
 2778W        W 6522   1.903   0.690   9.583 -0.0139 -0.1256  0.2121
 2779W        W 6523   3.255   8.080   9.990 -0.3202 -0.0654  0.0758
 2780W        W 6524   1.376   3.101   8.794 -0.0382  0.0246  0.2497
 2781W        W 6525   7.856   8.954  11.318 -0.2549  0.2824  0.0831
 2782W        W 6526   0.680   5.798   3.664 -0.1758 -0.0178  0.2224
 2783W        W 6527   1.400   0.466   3.019 -0.0088 -0.2302  0.1565
 2784W        W 6528   2.468   1.508   1.725  0.3598  0.1349  0.2072
 2785W        W 6529   7.614   7.721   3.537 -0.0723  0.0266  0.2051
 2786W        W 6530   2.349   4.730   3.773  0.1245  0.0041  0.0901
 2787W        W 6531   9.851   5.530   1.540 -0.3632  0.3182 -0.0173
 2788W        W 6532   2.383   2.788   3.015  0.2716 -0.1538 -0.4195
 2789W        W 6533   4.205   1.235   9.934 -0.0356 -0.0899 -0.0804
 2790W        W 6534   6.123   4.727   9.859  0.2575  0.3602  0.2078
 2791W        W 6535   9.846   1.376   1.286 -0.2005 -0.1297 -0.0099
 2792W        W 6536   4.635   6.426  12.608 -0.2344  0.1332 -0.1791
 2793W        W 6537   2.594   8.856   3.839 -0.2964 -0.1345  0.0487
 2794W        W 6538   2.006   6.295   1.930  0.1788  0.0230 -0.3606
 2795W        W 6539   1.088   4.939   1.215 -0.1822 -0.2013 -0.0761
 2796W        W 6540   0.321   6.675  11.178 -0.3150 -0.1771 -0.3074
 2797W        W 6541   6.924   4.782  10.741  0.0498 -0.2832 -0.1039
 2798W        W 6542   4.999   8.888  10.507 -0.0421 -0.0169 -0.2376
 2799W        W 6543   7.526   9.434  12.514  0.0420  0.1377  0.3236
 2800W        W 6544   9.818   6.721   2.421 -0.1595  0.0737 -0.0016
 2801W        W 6545   8.787   6.536  12.663  0.0119  0.1127 -0.0394
 2802W        W 6546   2.239   7.004   0.478 -0.1078 -0.2152  0.1262
 2803W        W 6547   1.619   2.827   9.141  0.0664  0.0180 -0.1873
 2804W        W 6548   4.770   4.930   0.231  0.0436  0.1285 -0.2306
 2805W        W 6549   9.666   8.162  10.367 -0.1316 -0.2830 -0.2803
 2806W        W 6550   4.276   8.040   4.014 -0.2655 -0.2485 -0.3907
 2807W        W 6551   6.286   8.497   2.782  0.2680 -0.0351 -0.0743
 2808W        W 6552   9.124   9.543   2.122 -0.1693  0.0560  0.3487
 2809W        W 6553   6.091   3.260   0.272 -0.0189  0.2580 -0.0245
 2810W        W 6554   1.797   4.019   3.533 -0.0677 -0.1379  0.1935
 2811W        W 6555   7.120   6.973  12.427  0.0335 -0.1822 -0.1829
 2812W        W 6556   2.569   2.311   1.143  0.0897  0.0049 -0.0715
 2813W        W 6557   8.544   9.876   3.728 -0.0302 -0.1920 -0.4192
 2814W        W 6558   3.449   2.556   2.284 -0.2069  0.1680  0.0747
 2815W        W 6559   4.757   0.130   9.077 -0.0350  0.0893  0.0284
 2816W        W 6560   5.871   7.410   0.310  0.0690 -0.0338 -0.0260
 2817W        W 6561   0.762   9.729  10.850 -0.1486 -0.0413  0.1112
 2818W        W 6562   5.957   8.851   3.632  0.1410  0.0865  0.1389
 2819W        W 6563   2.581   2.126  12.121 -0.3028 -0.0397 -0.2150
 2820W        W 6564   0.825   4.687   3.965 -0.0580  0.0088 -0.0413
 2821W        W 6565   3.763   3.880  10.621  0.0888  0.1139  0.1569
 2822W        W 6566   5.115   6.008   9.171  0.0141 -0.2481  0.1733
 2823W        W 6567   0.918   1.004  10.733  0.0162  0.1866 -0.2178
 2824W        W 6568   6.576   4.783  12.627 -0.0314  0.1235  0.0580
 2825W        W 6569   5.770   1.425  11.639 -0.2990  0.1837 -0.1079
 2826W        W 6570   0.447   1.641   9.801  0.1560 -0.0266 -0.0860
 2827W        W 6571   2.208   6.499   1.007  0.3301 -0.0677  0.0827
 2828W        W 6572   3.001   1.829   2.832 -0.1225  0.0937 -0.0121
 2829W        W 6573   3.802   7.961   0.074 -0.2940  0.1003 -0.1283
 2830W        W 6574   8.908   2.891  12.360 -0.0282 -0.0882  0.2701
 2831W        W 6575   1.989   2.652  10.975 -0.0763  0.2299  0.1065
 2832W        W 6576   1.399   2.334   9.185  0.3015  0.1153  0.0462
 2833W        W 6577   2.168   2.250  12.414 -0.1872  0.2444  0.0505
 2834W        W 6578   8.648   9.794   4.549 -0.1234 -0.2317  0.2358
 2835W        W 6579   6.895   7.009   3.883  0.2996  0.0431 -0.0492
 2836W        W 6580   1.712   5.640   3.924  0.1577 -0.1467 -0.0250
 2837W        W 6581   9.397   6.762   9.504  0.1412 -0.3393  0.3150
 2838W        W 6582   2.990   5.025   2.257 -0.1284 -0.1853  0.2441
 2839W        W 6583   6.818   1.822   0.684  0.2654 -0.0030 -0.0613
 2840W        W 6584   2.533   6.190   8.001 -0.0046 -0.2655  0.4248
 2841W        W 6585   9.023   6.549   9.853 -0.0534  0.0621  0.0526
 2842W        W 6586   5.287   5.893  12.235  0.1235 -0.0358 -0.0335
 2843W        W 6587   3.837   4.721   2.216  0.3333 -0.2354  0.1205
 2844W        W 6588   4.070   7.610   2.850  0.0832  0.1789 -0.3821
 2845W        W 6589   8.698   2.655   0.830  0.0801 -0.0604 -0.1917
 2846W        W 6590   8.228   9.371  12.094 -0.1466  0.2610 -0.0306
 2847W        W 6591   6.599   6.837   9.650 -0.0627 -0.0238 -0.2424
 2848W        W 6592   5.942   9.252   3.309 -0.0488  0.3989 -0.0284
 2849W        W 6593   0.975   3.629  11.651  0.1271 -0.4494 -0.0341
 2850W        W 6594   1.861   5.931   3.572  0.1820  0.2136 -0.1042
 2851W        W 6595   7.636   6.933  12.387  0.3327  0.1609 -0.2542
 2852W        W 6596   8.678   3.443   2.481  0.0028 -0.1126  0.3693
 2853W        W 6597   6.894   6.101  10.746  0.0695 -0.0170 -0.0107
 2854W        W 6598   1.373   2.143  11.384  0.2835  0.0452 -0.0515
 2855W        W 6599   7.593   6.012   1.043 -0.0278 -0.0698  0.1270
 2856W        W 6600   1.117   1.511  11.848 -0.4818  0.2224  0.0014
 2857W        W 6601   2.625   6.777   2.955 -0.1944 -0.0103  0.3034
 2858W        W 6602   0.522   9.314  10.517 -0.0947 -0.2234  0.0602
 2859W        W 6603   0.416   9.449   9.070 -0.0818 -0.4225 -0.3458
 2860W        W 6604   5.331   8.455  11.440  0.1266  0.0219  0.1665
 2861W        W 6605   1.442   8.231   4.801 -0.1027 -0.1013 -0.2331
 2862W        W 6606   3.104   6.799   0.148 -0.1552  0.1082 -0.0625
 2863W        W 6607   5.955   4.485   2.318  0.0119  0.1333  0.1332
 2864W        W 6608   7.919   8.609  12.930  0.3831  0.0666  0.1677
 2865W        W 6609   2.913   8.848  10.366  0.3281  0.1643  0.2275
 2866W        W 6610   5.572   1.853   2.473 -0.4143 -0.0822  0.1817
 2867W        W 6611   1.394   4.471   9.527  0.3743  0.1263 -0.0400
 2868W        W 6612   7.499   6.920   1.802  0.1227 -0.1738  0.1611
 2869W        W 6613   8.870   1.803   0.893  0.0431 -0.0077 -0.1357
 2870W        W 6614   3.774   9.764   9.315 -0.3943  0.0244 -0.0960
 2871W        W 6615   1.229   5.803   9.646  0.2812  0.4820  0.0464
 2872W        W 6616   2.682   9.601  11.022  0.0691  0.0214 -0.0174
 2873W        W 6617   0.884   2.435  12.668 -0.2941  0.1072 -0.0217
 2874W        W 6618   8.337   3.641   0.114 -0.1263 -0.0295  0.3816
 2875W        W 6619   0.198   7.177  11.041  0.2663 -0.2114 -0.2675
 2876W        W 6620   5.160   7.309  10.136  0.1011  0.0481 -0.3207
 2877W        W 6621   7.092   7.793   3.471 -0.1063  0.0229 -0.0934
 2878W        W 6622   1.727   8.603   4.442 -0.0492 -0.0289  0.0583
 2879W        W 6623   8.535   4.778   9.253  0.3426  0.2080 -0.1396
 2880W        W 6624   2.339   3.870  12.868 -0.0370  0.0594  0.0110
 2881W        W 6625   1.369   9.799   3.824  0.1702  0.2105  0.0730
 2882W        W 6626   8.199   1.284   1.099  0.0146  0.1589  0.0158
 2883W        W 6627   5.246   5.188   8.587 -0.1569 -0.0970 -0.1307
 2884W        W 6628   8.706   5.962   1.025  0.1277  0.2450 -0.3393
 2885W        W 6629   4.138   4.700   1.859 -0.1193  0.1014  0.1914
 2886W        W 6630   3.136   2.249  12.248  0.1395 -0.0048  0.0136
 2887W        W 6631   9.026   1.275   9.533 -0.1183 -0.1124  0.0564
 2888W        W 6632   9.859   8.615  10.312 -0.0394 -0.2201 -0.0890
 2889W        W 6633   3.802   5.644   0.608 -0.0870  0.1744 -0.0067
 2890W        W 6634   8.888   2.168   0.089 -0.0895  0.0835  0.2173
 2891W        W 6635   5.478   1.646   9.704  0.0923 -0.0550 -0.2703
 2892W        W 6636   9.314   3.340   0.472 -0.0429 -0.0820  0.1793
 2893W        W 6637   3.759   5.077  12.327 -0.1497 -0.2789 -0.2072
 2894W        W 6638   2.582   8.494  10.269  0.0040  0.2807  0.0648
 2895W        W 6639   9.614   5.058   9.506  0.3973 -0.0890 -0.0882
 2896W        W 6640   8.039   5.384   2.163  0.1632 -0.0134  0.1138
 2897W        W 6641   5.147   7.873   0.172 -0.1509 -0.1133 -0.0935
 2898W        W 6642   1.721   2.162  12.150 -0.2609  0.3281  0.0164
 2899W        W 6643   0.263   5.435   8.879  0.2156 -0.0607 -0.2080
 2900W        W 6644   2.714   2.031   9.738 -0.0524  0.1597  0.1730
 2901W        W 6645   7.554   5.419   3.123  0.0754 -0.2320 -0.3636
 2902W        W 6646   2.454   0.103   3.067 -0.0563 -0.2952 -0.1666
 2903W        W 6647   7.474   7.292   1.115  0.3095  0.0380  0.0116
 2904W        W 6648   3.193   4.832   3.795  0.0475  0.1738  0.3092
 2905W        W 6649   1.001   4.873   8.796  0.3751  0.0603 -0.0799
 2906W        W 6650   2.080   1.768   3.306 -0.4410 -0.2067  0.2112
 2907W        W 6651   3.509   1.023   1.278 -0.0732  0.0078 -0.0193
 2908W        W 6652   0.264   8.923   1.427  0.0518  0.1721 -0.3613
 2909W        W 6653   5.376   7.033   9.781 -0.0083  0.1829  0.0432
 2910W        W 6654   7.908   7.101   8.683 -0.0970 -0.1114  0.1626
 2911W        W 6655   5.423   5.876  11.734 -0.2173  0.0542  0.0196
 2912W        W 6656   1.853   1.808  12.551  0.2507  0.2358 -0.4442
 2913W        W 6657   4.638   5.490  12.436  0.0644 -0.0324 -0.0524
 2914W        W 6658   7.752   0.763  11.228 -0.3027  0.2646  0.0885
 2915W        W 6659   9.113   0.754  11.372  0.4034  0.1690 -0.4622
 2916W        W 6660   1.122   9.629   9.281 -0.2795 -0.0625  0.2674
 2917W        W 6661   5.707   6.920   9.359  0.1215  0.1605  0.1153
 2918W        W 6662   7.675   9.727   4.276 -0.0000  0.4392  0.1821
 2919W        W 6663   3.256   3.219   4.697  0.2686 -0.2024  0.3034
 2920W        W 6664   4.928   6.625   3.071  0.2946  0.4007 -0.1537
 2921W        W 6665   6.189   7.873   4.092  0.2239  0.2198  0.1572
 2922W        W 6666   5.620   6.948   0.280  0.1046  0.0787 -0.0632
 2923W        W 6667   7.338   4.470  10.825 -0.1884 -0.1943 -0.1618
 2924W        W 6668   0.124   5.485  11.806 -0.2297  0.2078  0.2657
 2925W        W 6669   3.667   8.436   9.808  0.0109  0.0080 -0.2758
 2926W        W 6670   8.593   6.434   0.907  0.0786  0.2364 -0.2686
 2927W        W 6671   4.879   7.120   9.771 -0.0578 -0.0190 -0.0311
 2928W        W 6672   8.765   8.915  10.674 -0.2097  0.1708 -0.0340
 2929W        W 6673   8.399   7.774   3.195  0.1459 -0.1435 -0.2732
 2930W        W 6674   3.983   9.536   8.921  0.0583 -0.1806 -0.1545
 2931W        W 6675   1.913   5.703  11.067  0.0314  0.3219  0.1502
 2932W        W 6676   9.124   0.228  12.351  0.0794  0.0361 -0.2683
 2933W        W 6677   8.401   1.689  10.571 -0.0589  0.0607 -0.1586
 2934W        W 6678   9.274   9.693   3.340 -0.1120 -0.2200 -0.0120
 2935W        W 6679   3.666   9.347   2.281  0.2820  0.0343 -0.3019
 2936W        W 6680   3.334   6.952   8.432 -0.3548  0.0879 -0.0248
 2937W        W 6681   6.532   2.694  11.559 -0.3624 -0.1044 -0.1696
 2938W        W 6682   2.294   6.772  12.801  0.0313  0.1034 -0.0171
 2939W        W 6683   7.898   5.757  11.210  0.1921 -0.0950 -0.0445
 2940W        W 6684   6.178   3.384   9.346  0.2049 -0.0313 -0.0278
 2941W        W 6685   6.852   9.085   1.937 -0.1467  0.1614 -0.0998
 2942W        W 6686   9.358   5.628  11.698 -0.0963 -0.1020  0.0324
 2943W        W 6687   5.477   4.832  11.979  0.0899 -0.0528 -0.3815
 2944W        W 6688   3.776   0.734   2.595  0.2184 -0.1821  0.2195
 2945W        W 6689   3.023   3.466  10.836  0.3265  0.1741  0.3596
 2946W        W 6690   0.094   9.180   2.351 -0.1833 -0.1635  0.1510
 2947W        W 6691   8.169   2.011  10.870  0.1425  0.2738  0.1631
 2948W        W 6692   9.300   1.843   0.677  0.0104 -0.1770 -0.4552
 2949W        W 6693   5.461   5.949   9.556 -0.2943  0.5035  0.2477
 2950W        W 6694   1.827   0.754  12.017 -0.0690  0.0023  0.0910
 2951W        W 6695   6.999   5.298  11.054  0.1622  0.2585 -0.1473
 2952W        W 6696   8.909   1.313   1.045 -0.1206 -0.0115 -0.0438
 2953W        W 6697   1.547   2.672   0.556  0.0803  0.1154  0.2193
 2954W        W 6698   0.007   2.103   9.179  0.2868 -0.2249 -0.0244
 2955W        W 6699   0.826   7.422  10.160 -0.0307 -0.1165  0.1274
 2956W        W 6700   6.024   3.732   3.413  0.0625  0.1136  0.2392
 2957W        W 6701   7.204   6.195   9.591 -0.2535  0.3828  0.0165
 2958W        W 6702   4.381   4.184   1.895  0.0365 -0.0248  0.1004
 2959W        W 6703   3.581   9.260   0.926  0.0414  0.3311 -0.5940
 2960W        W 6704   2.096   3.293  11.131 -0.2086 -0.0116 -0.3335
 2961W        W 6705   9.810   8.818   9.236 -0.4765  0.0527 -0.0996
 2962W        W 6706   8.452   5.469   1.296  0.1499 -0.2334 -0.1627
 2963W        W 6707   3.373   0.613  12.543 -0.2040  0.0605 -0.2555
 2964W        W 6708   5.866   8.248   4.423  0.0085  0.0639 -0.0266
 2965W        W 6709   0.568   1.921   9.342  0.2564 -0.0793  0.0850
 2966W        W 6710   5.057   8.181  10.995  0.0591 -0.0600 -0.1885
 2967W        W 6711   4.022   9.272   4.499 -0.0998 -0.2535 -0.1670
 2968W        W 6712   5.800   8.830   2.864  0.2121  0.0159 -0.0580
 2969W        W 6713   8.460   0.996  12.717  0.2685 -0.0734 -0.2713
 2970W        W 6714   8.045   0.535  10.108 -0.0730  0.0338  0.3073
 2971W        W 6715   1.465   4.440   0.752 -0.3078 -0.0279 -0.0824
 2972W        W 6716   6.359   3.732   9.744 -0.4050  0.1547 -0.2357
 2973W        W 6717   7.247   8.703   4.158  0.1139 -0.0411 -0.3391
 2974W        W 6718   3.001   0.462  11.621  0.2063  0.2083 -0.2954
 2975W        W 6719   6.513   7.417   9.743 -0.2659 -0.0361  0.1269
 2976W        W 6720   7.478   8.664   1.230  0.0065  0.3538 -0.2396
 2977W        W 6721   1.933   8.295   9.911  0.1094  0.0485  0.0150
 2978W        W 6722   6.476   5.853   1.031  0.1362 -0.0900 -0.0430
 2979W        W 6723   1.464   3.816   4.108 -0.0111  0.0462 -0.2870
 2980W        W 6724   9.880   7.907   9.248  0.2806  0.2727  0.1399
 2981W        W 6725   7.009   1.966  12.656 -0.0193 -0.1055 -0.2569
 2982W        W 6726   1.475   3.665  12.381 -0.3287  0.3308  0.0306
 2983W        W 6727   2.919   4.870   1.721  0.2415 -0.0057  0.2128
 2984W        W 6728   9.313   1.870   9.321 -0.1497  0.1130  0.2284
 2985W        W 6729   1.662   1.086   3.895 -0.1328 -0.0449  0.1706
 2986W        W 6730   2.498   8.972  12.464  0.2011  0.0269 -0.0677
 2987W        W 6731   5.710   4.081  10.447 -0.0850  0.0376  0.1136
 2988W        W 6732   2.210   0.938   3.019  0.2219 -0.1924 -0.1461
 2989W        W 6733   7.712   3.895   9.855 -0.0100 -0.2875  0.1941
 2990W        W 6734   7.395   0.428  11.386 -0.1240 -0.0072  0.0248
 2991W        W 6735   1.075   1.312   3.685  0.0612 -0.0835 -0.2243
 2992W        W 6736   6.566   8.807   1.134 -0.2305 -0.1245  0.4510
 2993W        W 6737   9.407   2.829   9.885  0.0585  0.2481  0.1826
 2994W        W 6738   6.549   6.884  11.201 -0.0349  0.0832  0.0557
 2995W        W 6739   2.478   1.338  11.955  0.2234 -0.2010  0.0974
 2996W        W 6740   9.878   5.401   3.725 -0.0684 -0.0248  0.0626
 2997W        W 6741   0.483   4.030   3.300  0.1288 -0.0916  0.2165
 2998W        W 6742   9.400   6.647   1.219 -0.1713 -0.0472 -0.1163
 2999W        W 6743   8.774   4.274   9.050  0.1523  0.0181 -0.0660
 3000W        W 6744   8.334   3.847   9.799 -0.0975 -0.0738  0.1720
 3001W        W 6745   4.964   9.405  10.831 -0.1262  0.0211  0.0816
 3002W        W 6746   0.424   1.331  12.600 -0.1546 -0.2376 -0.2383
 3003W        W 6747   6.053   1.676  10.256 -0.2325  0.0285  0.0229
 3004W        W 6748   9.839   1.569   0.841 -0.0831  0.1767  0.0090
 3005W        W 6749   2.349   6.763   3.804 -0.1469  0.1879  0.0445
 3006W        W 6750   1.936   5.139   9.196 -0.0592 -0.1903 -0.1955
 3007W        W 6751   4.395   3.451  11.308  0.0641 -0.0600 -0.1747
 3008W        W 6752   5.283   1.406   2.188 -0.0583  0.0172  0.2002
 3009W        W 6753   1.509   7.888   1.608  0.3913 -0.1821  0.4111
 3010W        W 6754   9.809   4.716   1.755 -0.0663  0.0098  0.0177
 3011W        W 6755   6.031   3.099   0.775 -0.1888  0.3666 -0.0866
 3012W        W 6756   1.678   3.065  10.877  0.2217 -0.0589 -0.1416
 3013W        W 6757   3.392   5.858   0.881 -0.1484  0.2700  0.0760
 3014W        W 6758   4.129   5.129  11.422 -0.0317 -0.1183  0.0434
 3015W        W 6759   1.296   1.930   4.861 -0.1003 -0.2206 -0.0618
 3016W        W 6760   2.271   1.729   4.763  0.3851  0.1007  0.3177
 3017W        W 6761   5.499   4.708   3.231  0.0845 -0.1326 -0.0665
 3018W        W 6762   1.701   5.545  11.908 -0.1642 -0.1327 -0.1643
 3019W        W 6763   4.604   0.528   3.401  0.3278 -0.0017 -0.0341
 3020W        W 6764   1.097   2.739   1.848 -0.1822 -0.2138  0.2325
 3021W        W 6765   3.825   5.593  10.438 -0.2451 -0.2107 -0.0908
 3022W        W 6766   6.334   8.570   1.993 -0.2815 -0.0039  0.0091
 3023W        W 6767   8.055   3.815  12.613  0.1059  0.2208 -0.0939
 3024W        W 6768   1.674   0.086   2.823  0.0421  0.2987  0.3599
 3025W        W 6769   3.814   2.656   4.316  0.0401 -0.1582 -0.0750
 3026W        W 6770   2.838   6.611   4.234  0.1983  0.0645  0.0647
 3027W        W 6771   3.706   8.988  12.941 -0.2293 -0.1664 -0.1010
 3028W        W 6772   1.585   2.293  10.945  0.2293 -0.1176 -0.1192
 3029W        W 6773   5.719   7.388   9.201  0.3377 -0.0018 -0.1663
 3030W        W 6774   9.021   2.225  11.264 -0.1333 -0.1687 -0.0795
 3031W        W 6775   0.617   8.760  12.666 -0.1734 -0.3374 -0.0360
 3032W        W 6776   7.300   3.564   2.090 -0.1147  0.1198 -0.1270
 3033W        W 6777   2.920   0.407   4.611  0.0624  0.0808  0.3444
 3034W        W 6778   9.786   0.785   1.258 -0.1371 -0.1306  0.0593
 3035W        W 6779   9.702   2.526   0.920 -0.1566  0.5237  0.1629
 3036W        W 6780   5.306   3.100   2.216 -0.3400  0.0290  0.3789
 3037W        W 6781   2.532   2.000   1.814  0.0518 -0.0351  0.3664
 3038W        W 6782   1.476   6.678  11.145 -0.0541  0.2763  0.1441
 3039W        W 6783   9.125   5.392  11.307  0.1680 -0.0965 -0.2343
 3040W        W 6784   4.252   6.655   1.091 -0.0909  0.0569  0.2630
 3041W        W 6785   3.797   4.405   4.703 -0.1476  0.1026 -0.2773
 3042W        W 6786   4.446   4.160   3.952  0.1146  0.2358 -0.0348
 3043W        W 6787   5.302   7.390   1.562  0.2052  0.0275  0.2006
 3044W        W 6788   1.354   8.726   0.794  0.0251  0.0455 -0.0539
 3045W        W 6789   6.985   7.055  11.045 -0.2817 -0.0420 -0.1349
 3046W        W 6790   8.275   8.175   2.729 -0.0155 -0.0549 -0.3882
 3047W        W 6791   1.488   7.359   0.105 -0.2037 -0.4444 -0.1887
 3048W        W 6792   7.727   5.280   9.131  0.0120  0.0617  0.1190
 3049W        W 6793   2.177   8.349   0.494 -0.1936 -0.0641 -0.1664
 3050W        W 6794   9.323   5.164   9.105 -0.0958 -0.0132 -0.2666
 3051W        W 6795   6.508   9.685   1.072  0.0321 -0.1284  0.2744
 3052W        W 6796   1.800   5.015   2.415 -0.2296 -0.2143  0.2978
 3053W        W 6797   5.664   2.734   8.958  0.2497  0.0862  0.0543
 3054W        W 6798   2.044   8.952  12.244 -0.3920 -0.1124  0.0677
 3055W        W 6799   0.482   5.537   1.635 -0.1361 -0.0841  0.2540
 3056W        W 6800   8.211   0.020  12.737  0.3226 -0.1313 -0.0269
 3057W        W 6801   0.376   6.062   1.833 -0.0472 -0.2231 -0.0846
 3058W        W 6802   6.922   2.277   2.436  0.1919  0.0311  0.2767
 3059W        W 6803   1.107   2.743   3.222  0.0467  0.3170  0.2283
 3060W        W 6804   2.776   2.495  10.518  0.0414  0.0874  0.2816
 3061W        W 6805   3.059   4.926   9.903 -0.1746  0.3240 -0.0881
 3062W        W 6806   4.610   8.105  10.733  0.2224  0.0939 -0.1167
 3063W        W 6807   6.420   7.304   7.949 -0.0563  0.1949  0.0282
 3064W        W 6808   6.399   3.804   1.819  0.0066  0.0672  0.0787
 3065W        W 6809   9.288   6.173   9.542 -0.1198 -0.3777  0.0092
 3066W        W 6810   8.265   3.339  11.838 -0.3287  0.0464  0.1497
 3067W        W 6811   0.623   2.161   1.910 -0.1823 -0.1352 -0.1763
 3068W        W 6812   4.301   4.055   8.779 -0.6342 -0.4527 -0.1849
 3069W        W 6813   8.654   5.055  12.438  0.1103  0.1307 -0.0742
 3070W        W 6814   9.371   1.356   0.832 -0.0732 -0.0227 -0.0188
 3071W        W 6815   2.240   6.131   8.392  0.3094 -0.0363  0.1397
 3072W        W 6816   7.506   0.019  12.139  0.1326 -0.0093 -0.1492
 3073W        W 6817   1.485   3.644   0.759 -0.1044  0.0477  0.2547
 3074W        W 6818   7.686   5.045   0.186  0.2170 -0.3398  0.1549
 3075W        W 6819   2.295   2.605  10.458 -0.0360  0.3508 -0.1015
 3076W        W 6820   0.178   7.444  11.488  0.0551 -0.2175 -0.1443
 3077W        W 6821   6.622   1.647   1.787  0.0651 -0.2956  0.0779
 3078W        W 6822   2.995   7.580   2.553  0.2888  0.1837  0.1154
 3079W        W 6823   4.848   9.595  11.914 -0.3932 -0.2956  0.0800
 3080W        W 6824   4.526   1.882   1.887  0.4259 -0.1713 -0.0680
 3081W        W 6825   3.959   0.339   9.382 -0.1454 -0.3102  0.3374
 3082W        W 6826   5.214   9.061  11.867 -0.2328  0.0747 -0.0830
 3083W        W 6827   1.968   8.402   1.326 -0.1216  0.1219  0.1303
 3084W        W 6828   9.411   5.872   2.723 -0.1636  0.3963 -0.2613
 3085W        W 6829   6.577   0.081  12.199  0.1073 -0.0355 -0.1695
 3086W        W 6830   0.242   4.372  10.020  0.0568  0.2781  0.1066
 3087W        W 6831   1.403   3.575   1.455  0.2756  0.0490  0.0516
 3088W        W 6832   3.469   8.282   4.271  0.1704  0.0919 -0.0869
 3089W        W 6833   0.345   8.325   0.055  0.1249 -0.0663  0.0659
 3090W        W 6834   2.948   5.935   3.687  0.0316 -0.0931  0.0622
 3091W        W 6835   1.117   8.365   2.756 -0.1093 -0.1458 -0.1062
 3092W        W 6836   6.968   8.428  12.233  0.0004 -0.3593 -0.1566
 3093W        W 6837   1.560   7.325   8.565 -0.0550  0.1630 -0.2296
 3094W        W 6838   4.562   3.650  10.884 -0.1772  0.1570 -0.0231
 3095W        W 6839   9.788   4.985  10.659  0.2948 -0.0687 -0.0362
 3096W        W 6840   6.962   9.239  11.619 -0.3251  0.0283 -0.1144
 3097W        W 6841   5.005   7.594   0.555 -0.1967 -0.1319  0.0671
 3098W        W 6842   6.201   2.707   2.447  0.0282  0.0986 -0.2766
 3099W        W 6843   0.610   7.937  11.350  0.1191  0.2004  0.1691
 3100W        W 6844   4.490   1.206  10.745 -0.0829  0.1036 -0.0043
 3101W        W 6845   9.075   6.104   3.514 -0.0353 -0.1239 -0.1308
 3102W        W 6846   3.808   1.636  11.740 -0.3513 -0.1975 -0.0983
 3103W        W 6847   3.919   5.489  12.073  0.0640  0.0168  0.1586
 3104W        W 6848   3.774   2.402   4.822 -0.1692  0.1873 -0.1850
 3105W        W 6849   4.348   2.090   1.313  0.2329 -0.0813 -0.3378
 3106W        W 6850   1.239   3.847   3.632  0.0357 -0.1487 -0.0191
 3107W        W 6851   9.732   9.602   8.138  0.1540  0.1833 -0.1161
 3108W        W 6852   2.129   6.214  11.508 -0.0613 -0.0870 -0.0490
 3109W        W 6853   0.203   2.298   3.068  0.1687  0.1520  0.0965
 3110W        W 6854   4.391   7.487   1.403  0.1118  0.2512  0.1251
 3111W        W 6855   6.604   3.090  12.507  0.2274  0.0209 -0.2465
 3112W        W 6856   7.051   0.825  10.340  0.1038 -0.1568  0.0527
 3113W        W 6857   6.095   9.361   4.915  0.0862  0.1331 -0.0004
 3114W        W 6858   9.531   8.218  11.701  0.1578  0.0450 -0.0132
 3115W        W 6859   3.363   3.523   3.225  0.2197 -0.0170  0.0572
 3116W        W 6860   1.883   3.385   1.602 -0.0022  0.0703  0.2268
 3117W        W 6861   9.063   3.699  11.356 -0.1536  0.0275 -0.4104
 3118W        W 6862   3.858   4.999   3.451 -0.0620  0.0373 -0.1360
 3119W        W 6863   1.003   1.882   0.105 -0.4710 -0.1838 -0.3262
 3120W        W 6864   6.003   5.389   0.112 -0.0038  0.1431  0.1316
 3121W        W 6865   0.452   1.217   3.274  0.0896  0.5460  0.2650
 3122W        W 6866   3.226   6.804   4.701 -0.0203 -0.2022 -0.1241
 3123W        W 6867   5.736   2.246   0.680  0.1726  0.2612  0.2309
 3124W        W 6868   0.005   8.378   2.504 -0.0124  0.0541  0.1878
 3125W        W 6869   5.438   5.585   1.515 -0.2011  0.1320  0.0733
 3126W        W 6870   0.272   3.092   0.275 -0.2990  0.1102 -0.1374
 3127W        W 6871   4.602   0.925  11.174 -0.2190 -0.0169  0.0654
 3128W        W 6872   0.391   1.803   0.768  0.0301  0.1010 -0.5033
 3129W        W 6873   8.010   6.840  12.003  0.1138  0.1111 -0.0872
 3130W        W 6874   2.283   1.450   8.521  0.1151  0.1156  0.3058
 3131W        W 6875   3.475   8.996   3.557 -0.1215 -0.4289 -0.2375
 3132W        W 6876   7.715   0.180   1.470  0.0926 -0.2522  0.0010
 3133W        W 6877   2.772   9.513   9.386 -0.3121  0.0829  0.0794
 3134W        W 6878   6.299   8.440   8.967 -0.1435  0.2068  0.2226
 3135W        W 6879   2.205   4.637  10.375  0.1096  0.1155 -0.0327
 3136W        W 6880   1.273   4.820   9.169 -0.2953  0.1510  0.4001
 3137W        W 6881   2.244   3.244   3.180  0.0752 -0.2065  0.0933
 3138W        W 6882   5.381   8.110   2.632 -0.1557  0.1002  0.2647
 3139W        W 6883   0.846   9.723   8.076 -0.0745  0.0834  0.1327
 3140W        W 6884   0.258   5.093   2.742  0.4688  0.2908  0.0712
 3141W        W 6885   6.316   0.137   8.885  0.0546  0.1177 -0.0682
 3142W        W 6886   7.187   8.074   0.701  0.2639 -0.0127  0.0068
 3143W        W 6887   0.278   5.681   3.292  0.0682 -0.1012 -0.1734
 3144W        W 6888   0.951   6.641  11.006 -0.2219  0.0912  0.3671
 3145W        W 6889   3.303   7.755   5.006 -0.0212  0.2113  0.1876
 3146W        W 6890   1.903   7.678  11.257  0.0053 -0.2548  0.3415
 3147W        W 6891   1.523   8.911  12.212 -0.4028  0.0838  0.1569
 3148W        W 6892   8.660   8.799   3.806 -0.2191 -0.0177 -0.2120
 3149W        W 6893   6.286   3.862   2.569  0.1852  0.2875  0.1661
 3150W        W 6894   5.178   7.972  11.444  0.1149  0.2473 -0.0836
 3151W        W 6895   0.461   4.659   9.659 -0.0038 -0.0144 -0.1483
 3152W        W 6896   6.365   0.696   0.867 -0.2728  0.1637 -0.1912
 3153W        W 6897   6.645   0.199  10.416 -0.0392  0.0288  0.0929
 3154W        W 6898   5.517   2.359   3.276 -0.0547  0.0195  0.2087
 3155W        W 6899   1.979   9.680  12.048 -0.0336 -0.2809 -0.0213
 3156W        W 6900   3.500   4.323  10.626 -0.1016  0.1343 -0.2393
 3157W        W 6901   0.378   8.243   2.196  0.1998  0.0073  0.0233
 3158W        W 6902   1.626   2.766   1.804 -0.0673  0.1100 -0.0736
 3159W        W 6903   7.018   2.335  12.215 -0.1694 -0.0749 -0.0826
 3160W        W 6904   9.580   4.613   9.769  0.0044 -0.1100 -0.1332
 3161W        W 6905   7.149   5.029   0.281 -0.4105 -0.1185 -0.0459
 3162W        W 6906   8.718   2.921   1.238 -0.1080 -0.1908 -0.0003
 3163W        W 6907   3.055   3.588  12.231  0.0982  0.1229  0.2245
 3164W        W 6908   2.829   7.238  11.053  0.0023 -0.1650 -0.0612
 3165W        W 6909   2.866   5.699  11.960 -0.1267  0.2133  0.1870
 3166W        W 6910   8.627   2.465  12.411 -0.2828 -0.4067 -0.1521
 3167W        W 6911   0.718   2.752  11.598 -0.0985  0.0642 -0.3298
 3168W        W 6912   9.426   6.135  11.701  0.0372 -0.0690 -0.1041
 3169W        W 6913   8.141   5.047   1.770  0.1802  0.2088 -0.2255
 3170W        W 6914   0.268   8.879   3.060 -0.0209 -0.0146 -0.0356
 3171W        W 6915   8.570   4.493  12.281  0.1375  0.0573  0.2932
 3172W        W 6916   6.669   7.131   3.416  0.0128 -0.0013 -0.1199
 3173W        W 6917   8.800   9.380   3.104  0.2602 -0.0331  0.2482
 3174W        W 6918   5.008   9.664   3.368 -0.0877  0.0264 -0.2346
 3175W        W 6919   4.169   8.994   8.218  0.1159  0.3188 -0.0129
 3176W        W 6920   3.294   0.958   8.981  0.0289  0.0742  0.0219
 3177W        W 6921   1.331   7.778   8.461  0.3582 -0.0078 -0.0177
 3178W        W 6922   2.725   8.803  11.411 -0.0647  0.1515  0.3317
 3179W        W 6923   4.209   3.226   8.720  0.2231  0.1308  0.1449
 3180W        W 6924   6.904   5.800  12.909  0.2570 -0.0530 -0.1452
 3181W        W 6925   2.620   1.031   0.762  0.2878 -0.2199 -0.0958
 3182W        W 6926   0.835   1.098  12.124  0.0761  0.0318  0.2430
 3183W        W 6927   9.358   2.257   0.406  0.0660  0.2483  0.0669
 3184W        W 6928   5.802   8.646  10.260 -0.0554 -0.0766 -0.1590
 3185W        W 6929   5.615   5.583  12.878 -0.1606  0.2112 -0.2463
 3186W        W 6930   2.143   5.315   2.127  0.1866  0.1704 -0.2216
 3187W        W 6931   0.634   4.019   0.738 -0.0666  0.1111 -0.0619
 3188W        W 6932   3.368   5.156   4.323 -0.0844 -0.0512 -0.2538
 3189W        W 6933   1.053   4.102  12.439  0.2642  0.1664  0.0176
 3190W        W 6934   4.615   7.790   3.024  0.0244  0.0225 -0.3257
 3191W        W 6935   9.529   5.098  11.086  0.1037  0.0504 -0.0608
 3192W        W 6936   6.428   6.326  10.564 -0.1042 -0.1798 -0.1757
 3193W        W 6937   0.893   1.521  10.741 -0.1083 -0.1619  0.1698
 3194W        W 6938   7.369   6.963   3.002 -0.0550 -0.1065 -0.0441
 3195W        W 6939   0.807   7.882   2.275 -0.1101  0.0139 -0.3041
 3196W        W 6940   4.622   6.814   0.822 -0.1622  0.0999 -0.2106
 3197W        W 6941   7.250   6.907   4.868  0.1128 -0.3388 -0.2056
 3198W        W 6942   7.705   6.215   0.595 -0.0549 -0.2728  0.2202
 3199W        W 6943   2.008   7.687   9.496 -0.0453 -0.2538  0.0204
 3200W        W 6944   1.402   5.154   2.105  0.1293  0.0186  0.0296
 3201W        W 6945   9.482   6.137   1.230 -0.1232 -0.3616 -0.0788
 3202W        W 6946   3.864   2.653  11.596  0.0849  0.3806 -0.0319
 3203W        W 6947   4.806   8.971   1.043  0.1784 -0.1507  0.1384
 3204W        W 6948   1.137   3.092  11.401 -0.1291  0.0523  0.1039
 3205W        W 6949   1.555   6.002  12.062  0.0202 -0.0486  0.4278
 3206W        W 6950   6.620   3.462   1.510  0.0242 -0.0597  0.3628
 3207W        W 6951   4.056   7.863   1.858 -0.2649 -0.0209 -0.0545
 3208W        W 6952   8.760   5.689  10.589 -0.5113  0.0437 -0.4439
 3209W        W 6953   7.864   3.300   1.647  0.2967  0.3359 -0.0665
 3210W        W 6954   1.108   5.125   0.308  0.1573  0.2494  0.2836
 3211W        W 6955   8.812   9.176   2.045  0.1204  0.0377  0.2193
 3212W        W 6956   7.076   7.345   3.189  0.0547  0.1920 -0.4755
 3213W        W 6957   0.577   4.155   1.229 -0.1927 -0.1622  0.0970
 3214W        W 6958   0.549   2.124   1.292  0.0310  0.3150  0.1262
 3215W        W 6959   7.856   8.289   2.477  0.1984  0.0295 -0.0449
 3216W        W 6960   0.477   4.733   3.022  0.3358  0.2123 -0.1558
 3217W        W 6961   9.092   5.937  12.124  0.0546  0.0297 -0.1689
 3218W        W 6962   0.962   1.720   9.846 -0.0961 -0.1389  0.1632
 3219W        W 6963   3.108   5.451   2.552  0.0126 -0.1038  0.4992
 3220W        W 6964   5.090   2.293  11.517 -0.1341 -0.0489  0.0171
 3221W        W 6965   0.621   0.788  10.263 -0.3757 -0.1559  0.1424
 3222W        W 6966   2.196   9.599   4.103 -0.0607  0.1780 -0.2430
 3223W        W 6967   7.446   1.244   0.791 -0.0402  0.2917 -0.0370
 3224W        W 6968   7.334   0.717   3.654  0.1264  0.0655  0.0048
 3225W        W 6969   0.003   0.044   4.006 -0.1195  0.1076  0.1852
 3226W        W 6970   6.853   8.414   1.443  0.1566 -0.3265 -0.0321
 3227W        W 6971   0.829   3.238   1.855  0.0221 -0.0606 -0.0477
 3228W        W 6972   9.210   4.588   2.904  0.0803  0.0285 -0.0175
 3229W        W 6973   9.008   4.437  10.830  0.2826 -0.1152 -0.1998
 3230W        W 6974   4.846   0.606   2.710 -0.1050 -0.1045 -0.1037
 3231W        W 6975   8.163   2.937  11.438 -0.1357 -0.2451  0.0433
 3232W        W 6976   4.777   7.695  12.694  0.1613  0.1937  0.2156
 3233W        W 6977   1.781   5.345   3.481  0.1399 -0.1873  0.0088
 3234W        W 6978   8.443   0.232  11.286  0.0796 -0.0941 -0.3479
 3235W        W 6979   1.279   5.958  12.535  0.1244 -0.1309 -0.0654
 3236W        W 6980   2.252   8.280   9.349 -0.0382  0.2352  0.1118
 3237W        W 6981   5.189   6.885   2.684 -0.1510 -0.1393  0.0362
 3238W        W 6982   0.226   7.093   0.607  0.1029 -0.5080 -0.2995
 3239W        W 6983   4.677   5.755  12.910  0.0665 -0.1018 -0.2786
 3240W        W 6984   8.286   7.474  10.537  0.0574 -0.1538 -0.0968
 3241W        W 6985   0.849   4.856   3.472 -0.0368 -0.1126 -0.1178
 3242W        W 6986   0.424   1.804  12.305  0.0372 -0.1494  0.0094
 3243W        W 6987   1.724   7.827   0.135  0.1440  0.0483  0.1807
 3244W        W 6988   4.403   5.406  10.131 -0.1853 -0.1818 -0.0473
 3245W        W 6989   0.688   4.435   8.875  0.1470 -0.0884  0.1496
 3246W        W 6990   4.918   3.913  11.929  0.0559 -0.1209 -0.4117
 3247W        W 6991   9.178   6.829   3.273  0.1484 -0.1837 -0.2908
 3248W        W 6992   6.582   3.787  12.243  0.0086 -0.0306 -0.1695
 3249W        W 6993   6.441   7.539  10.725 -0.0215 -0.3302  0.0693
 3250W        W 6994   4.041   8.245  12.387  0.2073 -0.3046  0.0622
 3251W        W 6995   7.807   0.133   8.845 -0.0077  0.3653  0.4408
 3252W        W 6996   9.100   9.665  10.401 -0.2021 -0.3068 -0.0361
 3253W        W 6997   2.804   9.636   2.623 -0.1721  0.0114 -0.0718
 3254W        W 6998   8.279   0.278  11.739 -0.0401 -0.1361 -0.1216
 3255W        W 6999   1.001   8.073   1.221 -0.3587  0.2220  0.1347
 3256W        W 7000   7.118   8.711   9.265  0.2228  0.1894 -0.1411
 3257W        W 7001   2.194   9.507  12.546  0.2971  0.1263 -0.0687
 3258W        W 7002   4.660   7.951  10.279 -0.2629  0.0846  0.0090
 3259W        W 7003   9.331   4.535   1.021  0.1079  0.0507  0.0288
 3260W        W 7004   7.525   0.619  10.159  0.2334 -0.4400 -0.0070
 3261W        W 7005   5.967   1.949   1.055 -0.2014  0.0240 -0.3536
 3262W        W 7006   8.985   7.143   9.554  0.1564 -0.0610  0.1687
 3263W        W 7007   0.884   1.171   0.395  0.2459 -0.3126  0.2354
 3264W        W 7008   6.046   6.048  12.796 -0.0801  0.2633 -0.0656
 3265W        W 7009   0.845   5.055  12.390 -0.0103 -0.0310 -0.1182
 3266W        W 7010   3.261   4.102  11.960  0.2636 -0.3562  0.0031
 3267W        W 7011   0.623   3.974  11.522 -0.0795  0.2081 -0.1996
 3268W        W 7012   3.648   9.037   8.266  0.1646 -0.1940 -0.0290
 3269W        W 7013   7.294   8.180   1.263  0.3497  0.0129  0.0799
 3270W        W 7014   0.920   1.069   8.858 -0.3023 -0.3537  0.1985
 3271W        W 7015   0.332   8.113   3.381  0.0286  0.0634 -0.0943
 3272W        W 7016   2.563   7.784  12.866  0.1513  0.3397 -0.1012
 3273W        W 7017   8.991   9.699   9.204 -0.0974 -0.1476  0.1705
 3274W        W 7018   2.251   5.705  12.636 -0.0171 -0.2382  0.0170
 3275W        W 7019   9.887   4.944   3.355 -0.1709  0.1125 -0.1785
 3276W        W 7020   8.422   9.683   2.209  0.0229  0.0431  0.5435
 3277W        W 7021   7.403   5.450  11.919 -0.0675 -0.2781  0.1527
 3278W        W 7022   8.049   6.048   7.998  0.3621 -0.0625  0.4916
 3279W        W 7023   9.169   5.298   4.099  0.0103  0.0596 -0.0556
 3280W        W 7024   7.307   8.527   5.034  0.1673  0.2319  0.2488
 3281W        W 7025   1.660   5.030  11.926 -0.2855  0.0206  0.0736
 3282W        W 7026   1.810   8.065  10.865  0.5509 -0.2689 -0.1085
 3283W        W 7027   9.638   4.062   8.602  0.2956 -0.1168  0.2752
 3284W        W 7028   8.839   5.804   3.930 -0.3013  0.3017 -0.3533
 3285W        W 7029   3.826   2.574   3.271  0.0555  0.2643 -0.0087
 3286W        W 7030   7.326   9.688   3.266 -0.1230  0.0865  0.2582
 3287W        W 7031   5.534   6.686   1.949 -0.1937 -0.1034 -0.0953
 3288W        W 7032   0.985   4.421  11.929  0.2729  0.1862  0.3548
 3289W        W 7033   3.749   7.312   2.011 -0.1623 -0.2982  0.0440
 3290W        W 7034   7.124   2.751   2.714  0.2626  0.2125  0.0822
 3291W        W 7035   0.388   7.756   0.832  0.0254  0.1482  0.1529
 3292W        W 7036   6.594   7.691   3.350 -0.0732  0.3462  0.1531
 3293W        W 7037   2.088   8.733   9.129  0.0782 -0.3733  0.2542
 3294W        W 7038   2.424   0.381   8.843 -0.1751 -0.1618 -0.0078
 3295W        W 7039   9.838   8.537   0.273  0.1094 -0.0213 -0.0995
 3296W        W 7040   9.581   3.211   9.517 -0.2882 -0.3090 -0.2736
 3297W        W 7041   4.216   7.532  11.110  0.0838  0.0948 -0.0407
 3298W        W 7042   5.159   0.217  12.625  0.0926 -0.2792  0.0840
 3299W        W 7043   7.453   9.889  12.650 -0.2344  0.0532 -0.3192
 3300W        W 7044   0.109   5.382   7.963  0.0725 -0.1478  0.0450
 3301W        W 7045   6.042   8.671   1.033 -0.2090 -0.0044 -0.1849
 3302W        W 7046   7.086   5.789   0.882 -0.2170 -0.2720 -0.2783
 3303W        W 7047   4.098   3.495   9.508 -0.0039  0.1754  0.0676
 3304W        W 7048   8.261   0.884   0.782  0.1126  0.1085 -0.3598
 3305W        W 7049   3.513   1.769   0.238 -0.1289  0.1928  0.1949
 3306W        W 7050   8.233   0.097   2.601  0.2383 -0.3480  0.1503
 3307W        W 7051   5.966   6.694   0.608 -0.1080 -0.0271  0.0879
 3308W        W 7052   2.871   4.447   0.349 -0.1946  0.2534 -0.2662
 3309W        W 7053   1.177   6.389   2.450  0.0190 -0.1614 -0.0731
 3310W        W 7054   1.063   7.030   1.924  0.1097  0.2054 -0.1660
 3311W        W 7055   0.044   0.224   9.228  0.2870  0.0546  0.0956
 3312W        W 7056   7.542   8.391   0.270  0.1301 -0.1170 -0.0619
 3313W        W 7057   8.928   9.765   4.091 -0.0632  0.0847 -0.2234
 3314W        W 7058   0.575   6.329  12.062  0.2278  0.4670 -0.1022
 3315W        W 7059   9.270   5.746   8.172  0.2816 -0.0934 -0.1895
 3316W        W 7060   9.805   4.730  11.209  0.0943  0.1673 -0.1433
 3317W        W 7061   5.765   7.805   1.680 -0.0239  0.0754 -0.2787
 3318W        W 7062   2.624   1.367   1.141  0.0675  0.0525 -0.0011
 3319W        W 7063   3.998   6.498  12.672 -0.0079 -0.1241 -0.2712
 3320W        W 7064   1.820   9.024   4.145 -0.0621  0.0715 -0.1289
 3321W        W 7065   5.347   1.320  12.481 -0.0287  0.2071  0.0124
 3322W        W 7066   3.477   5.065   1.924  0.2651 -0.1480  0.2540
 3323W        W 7067   2.198   0.928  11.295  0.2010  0.0477 -0.4004
 3324W        W 7068   8.962   7.495   9.155 -0.0048 -0.2917  0.0986
 3325W        W 7069   8.980   2.490   9.153  0.3208  0.1997  0.0031
 3326W        W 7070   7.296   5.475   1.232  0.0549 -0.0962  0.1370
 3327W        W 7071   9.122   4.297   9.822  0.0278  0.1255  0.0931
 3328W        W 7072   7.683   1.686   0.533  0.2342 -0.2568  0.0006
 3329W        W 7073   5.991   0.536   1.774  0.0700 -0.0679 -0.0706
 3330W        W 7074   1.254   9.616  10.069 -0.1033 -0.1625  0.0122
 3331W        W 7075   3.032   5.131   9.047  0.0853  0.2708 -0.1193
 3332W        W 7076   4.954   5.527  12.056  0.2103 -0.0842  0.1789
 3333W        W 7077   9.841   3.219   3.874  0.2394 -0.1180  0.1935
 3334W        W 7078   0.378   0.339   2.860  0.2608 -0.2809 -0.1879
 3335W        W 7079   3.225   0.959  11.541 -0.0391 -0.0705  0.1595
 3336W        W 7080   4.953   7.617   3.527  0.0207 -0.1029 -0.1945
 3337W        W 7081   2.690   1.761  10.315 -0.2407 -0.0506  0.1152
 3338W        W 7082   0.418   2.011  11.781  0.1089  0.2091  0.3014
 3339W        W 7083   1.428   1.690   0.351  0.1668 -0.2741 -0.1419
 3340W        W 7084   7.209   6.222  11.145 -0.0739 -0.1845 -0.2296
 3341W        W 7085   7.898   9.692  12.372 -0.0367 -0.4100 -0.0726
 3342W        W 7086   4.772   2.673   3.238  0.4288  0.0624  0.1032
 3343W        W 7087   7.478   4.608   0.059  0.2649 -0.4354  0.0220
 3344W        W 7088   3.714   2.845  12.742  0.0974 -0.1075  0.0235
 3345W        W 7089   2.337   7.916  11.510  0.0690 -0.2848 -0.0335
 3346W        W 7090   1.224   5.159  10.543 -0.0446 -0.1526 -0.4121
 3347W        W 7091   5.406   9.323   0.227 -0.1584 -0.0270 -0.3758
 3348W        W 7092   4.751   2.148  10.020  0.0647 -0.0568 -0.2526
 3349W        W 7093   6.380   5.646   8.998 -0.0365  0.0532  0.1974
 3350W        W 7094   3.164   2.841   0.928 -0.0809  0.1971 -0.2897
 3351W        W 7095   7.372   8.052   8.735  0.2391  0.1354  0.1912
 3352W        W 7096   0.039   7.990   0.267  0.0106 -0.0988  0.0969
 3353W        W 7097   9.026   7.950   1.472  0.0364  0.1396  0.0018
 3354W        W 7098   4.635   6.076   9.187 -0.0337  0.0807  0.0657
 3355W        W 7099   4.226   9.078   9.177  0.2714 -0.0073  0.0373
 3356W        W 7100   3.147   8.700   0.036  0.1216  0.0780  0.1961
 3357W        W 7101   9.651   3.336  12.551  0.1542  0.1010 -0.2884
 3358W        W 7102   9.718   9.528   9.947 -0.0616  0.2239 -0.0513
 3359W        W 7103   7.500   7.535   3.023 -0.0314 -0.1122 -0.5839
 3360W        W 7104   9.330   6.626   2.070  0.3929 -0.0038  0.1902
 3361W        W 7105   8.078   6.343  11.973 -0.2995  0.2265  0.1825
 3362W        W 7106   9.855   5.688  12.901 -0.1475 -0.1012  0.1144
 3363W        W 7107   3.900   1.961   8.434  0.1571 -0.0627  0.0224
 3364W        W 7108   3.635   2.168  12.062  0.0331  0.1834  0.1563
 3365W        W 7109   3.998   1.687   2.604 -0.0984 -0.0742 -0.0780
 3366W        W 7110   5.099   8.764   3.197  0.1944  0.1604  0.2352
 3367W        W 7111   6.939   1.663  10.910  0.1431 -0.0732 -0.0160
 3368W        W 7112   4.203   8.550   2.136 -0.1736 -0.0260 -0.2899
 3369W        W 7113   8.292   8.715  11.304  0.2235  0.1680 -0.2841
 3370W        W 7114   1.619   5.582   2.248 -0.0872  0.1589  0.0517
 3371W        W 7115   7.688   2.847   2.387  0.0670  0.1803 -0.3154
 3372W        W 7116   6.666   0.811   0.463 -0.0696 -0.3105  0.0403
 3373W        W 7117   9.219   4.012  11.791  0.0585 -0.0962 -0.0808
 3374W        W 7118   9.582   9.594   2.537 -0.3650 -0.0322 -0.5383
 3375W        W 7119   4.229   8.884   2.504 -0.1512  0.0949 -0.3897
 3376W        W 7120   2.627   8.314   8.166 -0.2190 -0.1831  0.0110
 3377W        W 7121   8.777   1.146   2.217  0.2156 -0.1199 -0.2235
 3378W        W 7122   9.023   6.656  10.381 -0.0991  0.4400 -0.1064
 3379W        W 7123   8.012   4.977   8.075  0.0426  0.1300  0.0234
 3380W        W 7124   3.112   9.866   4.378 -0.0216 -0.2608 -0.0060
 3381W        W 7125   2.057   7.184   4.112  0.1697 -0.1285  0.1942
 3382W        W 7126   8.039   8.305  11.100  0.0007 -0.1686 -0.1096
 3383W        W 7127   3.224   4.776   0.832  0.2347  0.0128  0.1581
 3384W        W 7128   6.521   3.116   0.020 -0.0121 -0.2571  0.0145
 3385W        W 7129   0.869   7.768   0.773 -0.1128 -0.2026 -0.1102
 3386W        W 7130   4.073   2.263   1.753 -0.2381 -0.2276 -0.0420
 3387W        W 7131   8.171   0.013   1.278 -0.0717  0.1464 -0.0230
 3388W        W 7132   5.563   2.716   0.017 -0.0948 -0.3292 -0.1220
 3389W        W 7133   9.646   3.265   8.341  0.0510  0.2723 -0.2178
 3390W        W 7134   5.521   5.070   9.038 -0.1474 -0.2064  0.2460
 3391W        W 7135   7.744   4.237   3.361  0.0667  0.1058  0.1401
 3392W        W 7136   9.196   0.386  11.749  0.0988 -0.1446  0.6164
 3393W        W 7137   6.904   7.694   0.638  0.0003 -0.0191 -0.1045
 3394W        W 7138   2.335   7.054  11.656  0.0772 -0.1313 -0.0607
 3395W        W 7139   0.299   9.759   9.703  0.2125 -0.3677 -0.2892
 3396W        W 7140   2.794   8.578   0.458 -0.1789  0.1421  0.0577
 3397W        W 7141   7.805   5.510  10.741 -0.2502 -0.1079  0.1841
 3398W        W 7142   5.758   4.155  12.095  0.0771 -0.2857 -0.4445
 3399W        W 7143   4.322   8.880   1.157  0.2368 -0.2262 -0.1671
 3400W        W 7144   2.095   7.119   8.679  0.2472 -0.1931 -0.2125
 3401W        W 7145   5.261   7.891   1.791 -0.0074  0.2426 -0.1581
 3402W        W 7146   5.209   3.922   3.436  0.0053 -0.0133  0.3069
 3403W        W 7147   2.193   1.401  12.588 -0.0573  0.3727 -0.2714
 3404W        W 7148   5.624   2.714   9.973 -0.0912  0.1396 -0.3994
 3405W        W 7149   8.617   3.241   0.897 -0.1903 -0.1296  0.0697
 3406W        W 7150   3.434   9.367   3.222  0.3041  0.2197 -0.3772
 3407W        W 7151   7.691   6.078  10.063  0.1331 -0.1546 -0.0607
 3408W        W 7152   4.989   5.029  11.827  0.0731  0.0819 -0.1665
 3409W        W 7153   6.299   7.913   8.154 -0.0059  0.2487  0.1137
 3410W        W 7154   6.439   5.844   3.386 -0.0701 -0.1505  0.1063
 3411W        W 7155   8.626   9.853   0.124 -0.0685 -0.3108  0.0246
 3412W        W 7156   9.184   5.076  12.509  0.0788 -0.3486 -0.1919
 3413W        W 7157   5.553   8.581   2.474 -0.1075 -0.2295 -0.0199
 3414W        W 7158   4.493   4.661   4.027  0.1188 -0.1827 -0.1485
 3415W        W 7159   7.303   8.518   3.711 -0.2158  0.1388 -0.0429
 3416W        W 7160   2.155   6.408   2.392  0.0147  0.2158 -0.5730
 3417W        W 7161   0.290   7.378  10.025 -0.2605 -0.2742  0.0666
 3418W        W 7162   1.845   7.054   8.217 -0.3554  0.2913  0.1071
 3419W        W 7163   0.867   2.685   9.933 -0.2704  0.1440 -0.1788
 3420W        W 7164   3.418   0.336   3.111 -0.0777 -0.1947 -0.0959
 3421W        W 7165   5.820   4.996   2.695 -0.1589 -0.0843  0.2295
 3422W        W 7166   7.423   9.034   8.387  0.0847 -0.0285 -0.1579
 3423W        W 7167   0.249   8.209   0.630 -0.3082  0.2887  0.0619
 3424W        W 7168   1.998   2.161  10.613  0.1346 -0.1217 -0.2063
 3425W        W 7169   8.778   6.914   9.108  0.2293  0.3110  0.1062
 3426W        W 7170   0.149   1.750  12.864 -0.1094 -0.2004 -0.4598
 3427W        W 7171   5.150   5.766   0.146  0.1442 -0.1450  0.0410
 3428W        W 7172   2.652   6.688   8.089  0.0881  0.2324  0.0321
 3429W        W 7173   2.161   5.808   4.107 -0.2554  0.2004 -0.0365
 3430W        W 7174   7.628   1.790  11.390  0.0391 -0.0662 -0.3062
 3431W        W 7175   3.802   9.399   3.560  0.0169  0.2097  0.0166
 3432W        W 7176   6.783   0.393   2.384  0.0702 -0.0590  0.2596
 3433W        W 7177   3.362   4.634   9.599  0.1255  0.0260 -0.0623
 3434W        W 7178   6.249   6.718   2.350 -0.1030  0.1790  0.0453
 3435W        W 7179   6.795   1.653   1.178  0.2581 -0.0631  0.1063
 3436W        W 7180   0.798   5.995  11.590 -0.0766 -0.2267 -0.0202
 3437W        W 7181   6.327   0.647   1.408  0.2787  0.2550  0.0322
 3438W        W 7182   6.175   6.356   2.722  0.2181 -0.1765  0.4491
 3439W        W 7183   7.197   5.459  12.364 -0.0049  0.0705  0.1777
 3440W        W 7184   9.801   4.042  10.604  0.0822  0.1496  0.1166
 3441W        W 7185   3.361   2.507   9.786  0.1163 -0.0224  0.0503
 3442W        W 7186   7.238   5.291  10.595 -0.2280 -0.0901 -0.3937
 3443W        W 7187   1.959   5.084   3.888  0.0007 -0.0170 -0.0265
 3444W        W 7188   4.311   8.701   8.686  0.0243  0.0704 -0.1929
 3445W        W 7189   0.296   6.786   9.716  0.1350  0.1817 -0.1104
 3446W        W 7190   4.945   3.631   1.055 -0.1382  0.4082  0.1215
 3447W        W 7191   6.706   8.528   8.073 -0.0182 -0.2043 -0.1315
 3448W        W 7192   8.885   9.437  12.912  0.1282  0.0438 -0.1627
 3449W        W 7193   4.466   4.768  12.114 -0.2158 -0.5233 -0.0300
 3450W        W 7194   9.360   4.477   3.793 -0.1739  0.2780 -0.2365
 3451W        W 7195   2.034   1.536  11.638 -0.1815 -0.1925  0.0181
 3452W        W 7196   5.711   7.204   2.885 -0.0696 -0.1986  0.0229
 3453W        W 7197   7.958   4.522   2.054 -0.1455  0.5552 -0.1695
 3454W        W 7198   9.110   1.973   9.884 -0.0079 -0.0612 -0.0971
 3455W        W 7199   9.265   7.519  12.765  0.1861 -0.3343  0.1446
 3456W        W 7200   0.275   7.335   3.220 -0.0104  0.0277 -0.0356
 3457W        W 7201   8.066   8.494   9.477 -0.2613 -0.1085  0.3562
 3458W        W 7202   0.015   1.567  11.231  0.0652 -0.0119 -0.2580
 3459W        W 7203   7.712   8.762   3.905  0.3049 -0.0156 -0.1746
 3460W        W 7204   3.826   4.654   3.882  0.0437 -0.0389 -0.0511
 3461W        W 7205   7.455   7.996   2.810  0.1743  0.0729 -0.1896
 3462W        W 7206   4.536   4.425  12.429  0.2692 -0.0983  0.0636
 3463W        W 7207   8.598   7.978   2.286  0.0684 -0.1750 -0.0300
 3464W        W 7208   2.230   0.427  12.431 -0.0923 -0.1253 -0.3376
 3465W        W 7209   7.646   8.228  12.663  0.0008  0.0771 -0.1519
 3466W        W 7210   4.156   6.527   1.601 -0.6298 -0.1803 -0.2842
 3467W        W 7211   5.561   0.872   9.896 -0.1206  0.2397  0.1714
 3468W        W 7212   3.466   7.569  10.566 -0.2185 -0.0051 -0.0022
 3469W        W 7213   1.242   7.995   4.377  0.1049 -0.0877  0.3764
 3470W        W 7214   6.395   6.289   9.602 -0.0943  0.1098  0.1663
 3471W        W 7215   7.817   8.178   1.355 -0.0059 -0.2625 -0.1005
 3472W        W 7216   5.074   9.585   9.214 -0.0312 -0.3327 -0.0381
 3473W        W 7217   3.844   9.817   5.068 -0.0086  0.0747 -0.0678
 3474W        W 7218   8.641   6.088  12.317  0.1011 -0.1711  0.0632
 3475W        W 7219   2.280   0.342   0.520  0.2107 -0.0809 -0.4301
 3476W        W 7220   3.431   6.490   2.499 -0.0295 -0.0367 -0.2988
 3477W        W 7221   9.824   5.052   8.792 -0.0403 -0.1197 -0.1542
 3478W        W 7222   4.464   8.435  12.216  0.1397 -0.2173 -0.0821
 3479W        W 7223   8.515   8.427   4.276 -0.1767 -0.1288  0.0683
 3480W        W 7224   1.965   8.346  10.449 -0.0930  0.0385 -0.0243
 3481W        W 7225   2.655   7.075   3.426 -0.0293  0.4214 -0.0783
 3482W        W 7226   3.266   4.621   2.019 -0.3603 -0.0118  0.1817
 3483W        W 7227   6.344   2.146   0.420 -0.0586 -0.0356  0.1133
 3484W        W 7228   3.571   1.981   1.081 -0.1327  0.1387  0.1015
 3485W        W 7229   1.871   6.134   1.086 -0.0270  0.0993 -0.0993
 3486W        W 7230   9.553   9.407  10.821 -0.1847 -0.0324 -0.2110
 3487W        W 7231   3.511   3.552   9.094  0.0453 -0.1067 -0.1937
 3488W        W 7232   6.558   4.880   1.026 -0.2294 -0.2934  0.0980
 3489W        W 7233   7.634   9.547   1.793 -0.0551 -0.2068 -0.1796
 3490W        W 7234   1.242   3.606   2.782  0.0491  0.1112  0.1904
 3491W        W 7235   4.810   0.628  12.895  0.1199 -0.3219  0.2535
 3492W        W 7236   8.983   0.453   0.490 -0.1382 -0.3468 -0.0186
 3493W        W 7237   0.269   9.639   1.779  0.2516  0.0068  0.1043
 3494W        W 7238   5.383   4.882   2.719 -0.0273 -0.0782  0.0856
 3495W        W 7239   5.786   0.625   1.339 -0.2102 -0.0823  0.3139
 3496W        W 7240   5.967   2.666  11.393 -0.2300  0.0390  0.1909
 3497W        W 7241   2.291   5.663  11.387  0.2338  0.0145  0.2126
 3498W        W 7242   2.214   5.375   9.570  0.0141 -0.0281  0.1486
 3499W        W 7243   3.491   9.498   4.427  0.1635 -0.1485  0.2142
 3500W        W 7244   1.854   3.113   4.363 -0.0862 -0.0360  0.5802
 3501W        W 7245   7.746   5.700   2.432  0.3366  0.0187  0.2866
 3502W        W 7246   4.301   2.752   3.926  0.0799  0.1898  0.1770
 3503W        W 7247   4.000   1.089   8.505 -0.1864 -0.2315 -0.0364
 3504W        W 7248   6.042   6.068  10.472  0.2752 -0.2085  0.1239
 3505W        W 7249   3.148   7.168   4.418  0.0705 -0.0914 -0.2971
 3506W        W 7250   1.722   9.623   4.968 -0.0961 -0.0752  0.3108
 3507W        W 7251   7.045   0.643   3.202 -0.3761 -0.1081  0.3023
 3508W        W 7252   7.681   7.263   3.399  0.3401 -0.3436  0.0611
 3509W        W 7253   5.382   6.669   0.583 -0.1611  0.1416 -0.0803
 3510W        W 7254   6.956   5.758   8.781  0.1006  0.2254 -0.1565
 3511W        W 7255   9.564   0.838   9.100 -0.1572 -0.0279 -0.1417
 3512W        W 7256   9.549   8.552   3.657 -0.0120  0.1546 -0.0574
 3513W        W 7257   5.228   3.965  12.796 -0.0340  0.0421  0.2303
 3514W        W 7258   8.049   4.239   8.433 -0.0196 -0.2054  0.2212
 3515W        W 7259   0.221   2.620   1.304 -0.4307 -0.0575 -0.3514
 3516W        W 7260   1.945   3.987  10.649  0.0321 -0.2540  0.1769
 3517W        W 7261   2.624   0.797   4.800  0.1244  0.2461  0.0825
 3518W        W 7262   8.496   6.039  11.855 -0.1329  0.4096  0.0175
 3519W        W 7263   3.772   8.371   0.421  0.0826 -0.1454  0.5303
 3520W        W 7264   9.723   7.525  10.034  0.1395 -0.3071 -0.3019
 3521W        W 7265   4.856   6.397   2.568 -0.1384 -0.0239 -0.2759
 3522W        W 7266   9.362   2.036  12.873 -0.0035  0.0977 -0.1951
 3523W        W 7267   4.743   9.342   0.180 -0.2407  0.1043 -0.0559
 3524W        W 7268   6.292   3.430  12.330 -0.0129  0.1346 -0.4296
 3525W        W 7269   9.093   7.914   2.387  0.0825 -0.2676 -0.2344
 3526W        W 7270   1.027   7.739   1.596  0.1096 -0.2111  0.0739
 3527W        W 7271   2.172   3.921   9.806 -0.1044  0.1007 -0.0261
 3528W        W 7272   0.943   1.563   0.645 -0.1064 -0.0252 -0.3873
 3529W        W 7273   5.239   7.430   8.843  0.0073  0.0273  0.2945
 3530W        W 7274   6.749   5.149   2.313 -0.1533 -0.1129 -0.3505
 3531W        W 7275   8.568   0.447  12.942  0.0936 -0.0031  0.0808
 3532W        W 7276   8.390   8.280   1.236 -0.2245  0.1819  0.4170
 3533W        W 7277   1.085   4.247   4.650 -0.0174 -0.0370  0.2085
 3534W        W 7278   4.258   7.406   5.288  0.4350  0.0915 -0.0263
 3535W        W 7279   0.323   5.659   0.799 -0.0327  0.0598 -0.0727
 3536W        W 7280   9.580   6.591   0.318 -0.0025 -0.2022  0.1600
 3537W        W 7281   9.886   9.292   2.862  0.0456  0.1427  0.1917
 3538W        W 7282   9.018   3.014   2.181  0.0753 -0.2374 -0.2908
 3539W        W 7283   5.362   4.091   9.268  0.2830  0.2111 -0.0808
 3540W        W 7284   9.166   5.677  10.887 -0.0875 -0.2963  0.2228
 3541W        W 7285   8.771   0.248   2.823 -0.0960 -0.0749 -0.1531
 3542W        W 7286   2.521   6.251   4.637  0.3216  0.2133 -0.1290
 3543W        W 7287   4.958   7.726   1.330  0.0729 -0.1143  0.2105
 3544W        W 7288   2.696   1.137   9.203 -0.0886 -0.2668 -0.0476
 3545W        W 7289   7.226   8.060   4.236  0.1599  0.1718  0.0932
 3546W        W 7290   8.695   8.006  10.027 -0.0170  0.2047  0.0216
 3547W        W 7291   0.663   9.869  12.857 -0.1845 -0.2524  0.1275
 3548W        W 7292   9.202   2.393   0.936 -0.0251  0.1053 -0.1438
 3549W        W 7293   5.062   8.788   8.986 -0.0048  0.2790  0.0206
 3550W        W 7294   8.995   5.577  12.496 -0.1071 -0.0474  0.0940
 3551W        W 7295   2.169   2.311   3.533  0.3053 -0.0576 -0.0868
 3552W        W 7296   0.590   3.690   1.075 -0.0913  0.1769 -0.3786
 3553W        W 7297   5.995   1.747  12.024  0.0469  0.0068 -0.1152
 3554W        W 7298   3.792   1.527  10.714  0.0483 -0.4816 -0.0327
 3555W        W 7299   3.612   6.844   2.115  0.0091  0.1147  0.1443
 3556W        W 7300   2.906   2.736  11.394 -0.2044 -0.0045  0.2544
 3557W        W 7301   3.526   1.827   9.224  0.1789 -0.3571 -0.0820
 3558W        W 7302   1.594   1.592   3.280  0.2002 -0.1197  0.0718
 3559W        W 7303   7.230   0.699   2.259 -0.0339  0.2103  0.0511
 3560W        W 7304   2.224   6.247   1.413 -0.0789 -0.0681  0.0791
 3561W        W 7305   5.086   2.679   2.007  0.2273 -0.1388 -0.1197
 3562W        W 7306   1.477   8.301   1.265 -0.0880  0.1481  0.3579
 3563W        W 7307   0.537   5.956   1.338  0.4306  0.2789 -0.2156
 3564W        W 7308   0.722   0.145   4.168 -0.4269 -0.0448  0.2797
 3565W        W 7309   0.730   9.640   4.498  0.0167  0.1243  0.0635
 3566W        W 7310   5.676   0.049  12.611  0.6027 -0.0676  0.2505
 3567W        W 7311   8.727   3.575   9.964 -0.1691 -0.1929  0.3059
 3568W        W 7312   2.240   7.573   0.935 -0.0342  0.1325  0.0573
 3569W        W 7313   4.126   3.628   9.029  0.0402 -0.1606  0.4143
 3570W        W 7314   2.263   3.252   2.698 -0.3391  0.0506  0.2247
 3571W        W 7315   7.668   9.788   0.474 -0.0003  0.2675 -0.1899
 3572W        W 7316   9.644   8.452   0.820 -0.4653 -0.0661  0.1020
 3573W        W 7317   0.016   0.272   1.038  0.2422 -0.0886 -0.2329
 3574W        W 7318   6.744   9.185   9.231  0.0884  0.1753 -0.0076
 3575W        W 7319   2.964   8.554   8.452  0.0295 -0.3424 -0.1217
 3576W        W 7320   3.824   9.275   9.398 -0.0265  0.1235  0.2234
 3577W        W 7321   1.773   1.364   0.988  0.1802 -0.0899  0.0643
 3578W        W 7322   9.015   5.328   4.624 -0.3182  0.0910 -0.0290
 3579W        W 7323   2.365   4.261  10.651  0.0487  0.1701  0.0328
 3580W        W 7324   9.140   1.894   8.825 -0.1483  0.0208  0.0375
 3581W        W 7325   3.197   2.250  11.536  0.1143  0.1293  0.0417
 3582W        W 7326   1.188   2.058   0.573  0.0844 -0.1800 -0.0456
 3583W        W 7327   7.309   3.181   2.529  0.2009  0.0151 -0.2233
 3584W        W 7328   6.922   3.447   0.678  0.3685 -0.2101  0.1393
 3585W        W 7329   9.213   4.830   3.406 -0.2508 -0.2146  0.1945
 3586W        W 7330   5.151   5.638   9.933 -0.0185  0.3521 -0.0076
 3587W        W 7331   6.815   7.781  10.406 -0.2523 -0.0302  0.1728
 3588W        W 7332   3.775   2.183   2.518 -0.0690  0.2378  0.2067
 3589W        W 7333   1.539   3.784   3.147  0.1209 -0.1001  0.2734
 3590W        W 7334   2.245   1.680  12.171 -0.1815  0.1643 -0.1693
 3591W        W 7335   0.532   4.340   2.240  0.3786  0.0547  0.0769
 3592W        W 7336   2.472   4.969   1.214 -0.2504 -0.1295 -0.0696
 3593W        W 7337   4.093   2.218   0.867 -0.2767 -0.2846 -0.0524
 3594W        W 7338   8.248   6.308  11.034 -0.0106  0.2567 -0.1107
 3595W        W 7339   1.935   2.388  10.154 -0.0340  0.1590  0.1725
 3596W        W 7340   8.405   8.015  10.484  0.2788  0.0883  0.1405
 3597W        W 7341   9.070   4.421  10.324 -0.1687 -0.1038  0.0663
 3598W        W 7342   7.876   4.867  12.598  0.5496 -0.5319 -0.0152
 3599W        W 7343   0.677   4.965   2.087  0.2293 -0.0367  0.0809
 3600W        W 7344   4.339   7.091  10.884  0.0007  0.0712  0.2342
 3601W        W 7345   8.762   4.606   3.148 -0.0875 -0.2234  0.0255
 3602W        W 7346   6.384   7.434   3.963  0.2285 -0.0158 -0.1264
 3603W        W 7347   6.876   3.268   2.360 -0.0364 -0.2886  0.5771
 3604W        W 7348   9.793   5.997   3.006 -0.2002  0.3994 -0.1144
 3605W        W 7349   2.204   5.237   1.616 -0.1344 -0.0285 -0.0449
 3606W        W 7350   2.112   7.289   2.163 -0.1996  0.1094  0.2740
 3607W        W 7351   5.718   2.807   1.655  0.2800 -0.1110 -0.3372
 3608W        W 7352   9.342   9.341   1.247 -0.1119 -0.3386 -0.3770
 3609W        W 7353   3.911   0.211   8.904 -0.0986  0.1116 -0.2091
 3610W        W 7354   6.388   7.200  11.649 -0.1267 -0.2329  0.3214
 3611W        W 7355   1.732   8.849  11.722 -0.0584  0.0686 -0.0345
 3612W        W 7356   1.412   7.081   1.051 -0.0078 -0.0968  0.3031
 3613W        W 7357   8.266   2.766   2.441  0.1836  0.0663  0.2270
 3614W        W 7358   2.013   9.683   3.155  0.1924  0.1293 -0.0315
 3615W        W 7359   4.100   1.838  12.746 -0.2534 -0.0421 -0.1199
 3616W        W 7360   7.911   7.689   3.967  0.3198  0.3084  0.1839
 3617W        W 7361   8.925   5.685   1.908 -0.3504  0.4141  0.1981
 3618W        W 7362   4.044   1.975  12.266  0.1104 -0.3628  0.1658
 3619W        W 7363   5.535   6.574  11.154  0.0237  0.0285 -0.1060
 3620W        W 7364   5.140   5.633  12.620 -0.0686  0.1021 -0.1322
 3621W        W 7365   1.508   4.492  11.784 -0.0869  0.0233 -0.0254
 3622W        W 7366   2.866   8.263  11.433 -0.2808 -0.1843  0.3025
 3623W        W 7367   3.302   2.542  12.691 -0.0976  0.3315 -0.0447
 3624W        W 7368   4.258   5.346   8.135  0.2239  0.2684 -0.0339
 3625W        W 7369   8.633   1.827   0.395  0.0703  0.1359 -0.0859
 3626W        W 7370   3.361   8.097   1.575 -0.0477  0.2539  0.0276
 3627W        W 7371   5.425   1.999  10.182 -0.1129 -0.1227  0.1225
 3628W        W 7372   7.527   5.084  12.287  0.4050  0.1855 -0.1597
 3629W        W 7373   6.757   0.798   1.305  0.1960 -0.0082 -0.3593
 3630W        W 7374   8.437   6.793  11.237  0.2948 -0.2675 -0.0052
 3631W        W 7375   5.089   8.086  10.523 -0.0103 -0.0993 -0.0532
 3632W        W 7376   7.018   1.990   1.989  0.1112  0.0161  0.0883
 3633W        W 7377   8.417   2.166   0.767  0.0516 -0.2123  0.1819
 3634W        W 7378   6.216   4.393   9.340 -0.2309  0.1072  0.0445
 3635W        W 7379   0.864   4.052   2.324 -0.0944  0.1937 -0.2836
 3636W        W 7380   1.040   9.474  10.481 -0.0427  0.2864  0.2048
 3637W        W 7381   0.827   5.979  10.285  0.2813 -0.0408  0.2189
 3638W        W 7382   5.292   3.798  10.821 -0.0711  0.1852  0.1266
 3639W        W 7383   9.382   4.307  12.690  0.0077  0.1768  0.1055
 3640W        W 7384   2.545   0.144   2.575 -0.0184  0.1009  0.0745
 3641W        W 7385   5.036   6.495   7.936  0.0150  0.1652 -0.2984
 3642W        W 7386   5.838   2.095   2.915  0.2781  0.0702 -0.1684
 3643W        W 7387   5.734   6.797  10.023 -0.2044  0.2107  0.1908
 3644W        W 7388   1.059   7.971  12.072 -0.2538  0.0436  0.2093
 3645W        W 7389   4.668   0.516   0.402  0.4272  0.4338  0.0341
 3646W        W 7390   8.422   5.448   8.976 -0.0993  0.1166 -0.2406
 3647W        W 7391   0.146   8.694  11.133  0.1484 -0.1464  0.0638
 3648W        W 7392   8.984   5.294   0.514 -0.0052  0.0557  0.1533
 3649W        W 7393   9.106   2.371  10.765 -0.0441 -0.1341 -0.0298
 3650W        W 7394   0.425   5.002   3.839 -0.0074 -0.1541  0.0441
 3651W        W 7395   0.834   7.310   3.782 -0.4226  0.3234  0.1803
 3652W        W 7396   8.831   4.529   9.561  0.2291  0.0567 -0.2876
 3653W        W 7397   9.886   7.604   1.250  0.2531 -0.2376  0.2543
 3654W        W 7398   0.354   4.510   0.751 -0.5058 -0.1268 -0.1399
 3655W        W 7399   7.401   8.779   3.208  0.0802 -0.0230 -0.1143
 3656W        W 7400   8.851   8.133  12.521  0.0295  0.0859 -0.2026
 3657W        W 7401   4.936   9.583   1.944 -0.1059 -0.0353 -0.0239
 3658W        W 7402   3.943   9.425   8.439 -0.2843  0.2934  0.0894
 3659W        W 7403   0.133   1.469   3.577 -0.2517 -0.1431  0.1281
 3660W        W 7404   9.878   2.679   0.443  0.0408  0.0476 -0.3196
 3661W        W 7405   4.885   3.489  10.087  0.0950 -0.3837 -0.2603
 3662W        W 7406   4.396   4.929   8.293 -0.1300  0.0069 -0.1425
 3663W        W 7407   0.417   7.361  10.525 -0.1139 -0.2299  0.2005
 3664W        W 7408   2.107   8.031  12.749 -0.0299  0.0421  0.2745
 3665W        W 7409   9.869   0.408  11.800  0.0521  0.1980  0.0464
 3666W        W 7410   5.298   0.056   1.023 -0.0181  0.1137 -0.4148
 3667W        W 7411   5.807   3.103   2.452  0.2956 -0.3668  0.0038
 3668W        W 7412   7.693   5.050   2.061  0.1374  0.3143  0.0343
 3669W        W 7413   5.435   9.316  11.074  0.0268  0.1757  0.0454
 3670W        W 7414   5.166   0.611   0.740  0.1172  0.1780  0.1725
 3671W        W 7415   1.447   2.868   2.245  0.1255  0.0734  0.0347
 3672W        W 7416   6.996   1.389   2.078 -0.1921  0.1728 -0.0625
 3673W        W 7417   6.150   3.153  11.623  0.3926 -0.0746  0.2131
 3674W        W 7418   8.489   8.094  11.188 -0.0182  0.1071 -0.1568
 3675W        W 7419   8.047   0.413   1.748  0.3187 -0.0638  0.0205
 3676W        W 7420   2.814   4.637   9.298 -0.1369 -0.1272 -0.0604
 3677W        W 7421   7.005   8.522   0.854 -0.0526  0.3186 -0.3133
 3678W        W 7422   5.815   8.750   2.026 -0.2008  0.0551 -0.1734
 3679W        W 7423   4.453   3.559   9.870  0.2181  0.1084  0.3490
 3680W        W 7424   5.385   6.381  10.106  0.1727 -0.1022 -0.0035
 3681W        W 7425   1.676   6.117   9.009  0.0486  0.4001 -0.3519
 3682W        W 7426   1.067   0.800   3.127  0.1316 -0.3023 -0.0027
 3683W        W 7427   1.461   6.553  11.970  0.2760 -0.1079  0.0578
 3684W        W 7428   2.893   5.146   0.965 -0.1069  0.0836  0.1325
 3685W        W 7429   1.119   2.431   0.961  0.2533  0.0629  0.1041
 3686W        W 7430   4.846   6.072   2.186 -0.2701 -0.2573  0.0535
 3687W        W 7431   7.873   7.899   3.104 -0.0663  0.1193  0.0612
 3688W        W 7432   2.302   2.285   0.446  0.0429 -0.0522  0.2844
 3689W        W 7433   9.406   3.251  10.513 -0.2285  0.1898 -0.3361
 3690W        W 7434   8.588   7.028  12.718  0.0275  0.0967  0.3485
 3691W        W 7435   3.746   4.767  11.523  0.0785  0.1101 -0.1251
 3692W        W 7436   8.355   5.368  10.128  0.1129  0.5885 -0.0327
 3693W        W 7437   2.430   5.378   0.028  0.0503 -0.1745 -0.1328
 3694W        W 7438   9.428   2.298   9.091  0.3300  0.2299 -0.3160
 3695W        W 7439   1.086   6.344  12.738 -0.1909  0.2156 -0.0628
 3696W        W 7440   8.177   9.440   0.508  0.0873  0.0510  0.0897
 3697W        W 7441   9.165   3.563  11.961 -0.0163  0.2257 -0.3313
 3698W        W 7442   7.727   5.908   0.189  0.1057  0.2231 -0.1259
 3699W        W 7443   2.312   5.193   2.734  0.1091 -0.0385  0.1798
 3700W        W 7444   8.523   7.792   9.237 -0.0759  0.3504 -0.0869
 3701W        W 7445   6.974   3.338  11.092 -0.0157  0.3154  0.2293
 3702W        W 7446   9.856   2.469  10.728 -0.1504 -0.0783  0.0259
 3703W        W 7447   4.040   1.697  11.126  0.0113  0.3249  0.1752
 3704W        W 7448   3.973   7.311   0.417  0.0243  0.0902  0.1371
 3705W        W 7449   2.904   7.664   3.060 -0.0654  0.3207  0.0016
 3706W        W 7450   8.158   6.965  12.489  0.1259  0.0662  0.2856
 3707W        W 7451   3.324   7.572   3.368 -0.3753 -0.1132 -0.1287
 3708W        W 7452   7.663   6.030   8.922 -0.2167 -0.2503 -0.1181
 3709W        W 7453   0.346   3.970  11.069 -0.1138 -0.0998  0.2264
 3710W        W 7454   2.379   7.664  11.021 -0.3499 -0.1965  0.0812
 3711W        W 7455   4.927   1.189   3.436 -0.0893  0.0770 -0.3310
 3712W        W 7456   4.409   5.724   3.505  0.0427 -0.0060 -0.1836
 3713W        W 7457   6.214   1.023  12.436 -0.1052 -0.1331  0.0987
 3714W        W 7458   1.959   4.847   1.423  0.0998 -0.1123 -0.0747
 3715W        W 7459   4.934   4.427   4.040  0.1988 -0.0112 -0.1339
 3716W        W 7460   5.036   8.140   2.192  0.0281 -0.1650 -0.1544
 3717W        W 7461   2.010   7.899   0.493  0.3342 -0.3444 -0.2428
 3718W        W 7462   6.543   8.413   9.825 -0.0271 -0.0173  0.0362
 3719W        W 7463   0.280   2.311  12.284  0.0961  0.2601  0.1378
 3720W        W 7464   9.499   6.315  12.206  0.0195  0.0271 -0.3660
 3721W        W 7465   4.027   1.968   2.144 -0.0688  0.2355 -0.1700
 3722W        W 7466   3.183   8.986  10.791 -0.0769  0.0836  0.1145
 3723W        W 7467   7.965   7.306   9.917  0.0773 -0.3875  0.0889
 3724W        W 7468   4.373   4.558   0.468  0.0779 -0.1162  0.0256
 3725W        W 7469   1.704   7.261   9.643 -0.0927 -0.0891  0.0924
 3726W        W 7470   2.346   5.108  12.539  0.1636  0.0783  0.0151
 3727W        W 7471   2.494   6.004   0.506 -0.0988  0.0806  0.2932
 3728W        W 7472   7.815   1.981   3.010  0.3516 -0.1808  0.0307
 3729W        W 7473   9.754   3.464   3.303 -0.2628  0.0318 -0.0124
 3730W        W 7474   9.312   0.284   3.209 -0.1512  0.3207 -0.0873
 3731W        W 7475   7.326   6.310  10.489 -0.2376  0.3886 -0.1549
 3732W        W 7476   3.672   2.191  12.974  0.1528  0.0482 -0.0492
 3733W        W 7477   3.234   7.529   8.427 -0.0134  0.0904  0.2597
 3734W        W 7478   6.689   4.565   3.496  0.1184 -0.3909 -0.2667
 3735W        W 7479   8.078   6.950   1.970  0.4885 -0.2154 -0.1449
 3736W        W 7480   1.912   2.931   4.810  0.0331 -0.1492 -0.0334
 3737W        W 7481   9.846   7.976   9.800  0.0157  0.1559  0.0602
 3738W        W 7482   6.526   8.841  10.092 -0.0443 -0.0439 -0.0773
 3739W        W 7483   6.805   9.617   3.123 -0.1396  0.1014  0.3823
 3740W        W 7484   8.920   4.313   0.693 -0.0559 -0.2722 -0.2567
 3741W        W 7485   7.280   6.878   1.333 -0.4056 -0.0828  0.0428
 3742W        W 7486   8.154   9.557   3.623  0.5022  0.0866 -0.1143
 3743W        W 7487   5.979   3.484   2.880 -0.1963  0.0709 -0.2960
 3744W        W 7488   8.817   8.376  10.484 -0.1685  0.0689 -0.0611
 3745W        W 7489   2.828   0.157  11.304 -0.2369  0.2277 -0.2353
 3746W        W 7490   7.586   7.879   1.028 -0.1268 -0.2539 -0.2230
 3747W        W 7491   9.504   9.649  12.296 -0.0460  0.0686 -0.2169
 3748W        W 7492   1.548   1.038   9.467  0.2517  0.0339  0.1903
 3749W        W 7493   2.021   7.902  10.219 -0.1398 -0.1063  0.0363
 3750W        W 7494   4.410   2.201   2.669  0.1430  0.0442 -0.0306
 3751W        W 7495   7.755   7.405  10.437 -0.1517  0.2524  0.2737
 3752W        W 7496   5.380   3.447   3.483 -0.0341 -0.0367 -0.0780
 3753W        W 7497   1.887   1.299   0.490 -0.0859 -0.2860  0.1167
 3754W        W 7498   0.932   3.224   9.057 -0.2046  0.0105 -0.0668
 3755W        W 7499   8.241   5.926  12.504  0.1435  0.1935  0.0533
 3756W        W 7500   7.899   1.823  10.438 -0.0417  0.1012 -0.1335
 3757W        W 7501   9.718   3.533   9.891  0.0190  0.0490  0.0469
 3758W        W 7502   2.145   5.827  11.827  0.4188  0.1126 -0.0680
 3759W        W 7503   6.675   4.351   0.065 -0.1966 -0.1857 -0.0766
 3760W        W 7504   7.312   8.751   8.767 -0.2120  0.0313  0.0434
 3761W        W 7505   6.859   7.917   2.353  0.0716 -0.1448  0.0386
 3762W        W 7506   4.276   9.358   4.115 -0.1847 -0.2333  0.1716
 3763W        W 7507   0.210   2.208   1.631 -0.0286  0.0700  0.0221
 3764W        W 7508   0.078   3.419   2.490  0.3649 -0.2234 -0.0559
 3765W        W 7509   2.880   7.330   9.280 -0.2444 -0.1142 -0.0735
 3766W        W 7510   8.517   5.908   1.662 -0.2212 -0.1664  0.0597
 3767W        W 7511   3.037   8.904   0.780 -0.1277 -0.2145 -0.1626
 3768W        W 7512   9.661   9.110   0.924  0.1387 -0.0473  0.1028
 3769W        W 7513   8.179   4.913   0.459 -0.0402  0.3115  0.3199
 3770W        W 7514   1.354   1.203   8.576 -0.0475 -0.2390 -0.1058
 3771W        W 7515   2.702   8.755  10.910 -0.1687  0.1716  0.0929
 3772W        W 7516   3.811   0.700  12.262  0.1680 -0.1606  0.1979
 3773W        W 7517   9.674   7.375  11.807 -0.1701  0.0404  0.1708
 3774W        W 7518   1.239   5.984   0.221 -0.0667  0.1475 -0.0232
 3775W        W 7519   9.577   7.574   9.544 -0.1398 -0.0113  0.1936
 3776W        W 7520   2.888   0.070  11.885 -0.0408 -0.1830  0.2742
 3777W        W 7521   3.754   4.096   8.274 -0.0519  0.1366  0.3562
 3778W        W 7522   3.997   0.628  11.102 -0.1039 -0.0944 -0.3568
 3779W        W 7523   7.572   6.450   1.582  0.3578  0.2099 -0.0726
 3780W        W 7524   9.796   4.043  11.285  0.1228 -0.2310  0.2634
 3781W        W 7525   7.739   1.109   1.805  0.2136 -0.3236  0.3015
 3782W        W 7526   0.205   0.324   3.378 -0.1633 -0.1491  0.0490
 3783W        W 7527   1.840   4.561   3.564  0.2009 -0.2302 -0.0823
 3784W        W 7528   4.663   9.011  10.814  0.0015 -0.2110 -0.2874
 3785W        W 7529   0.731   7.717   9.689 -0.2759  0.2776 -0.0053
 3786W        W 7530   0.433   6.713   8.035 -0.1528  0.0119 -0.3307
 3787W        W 7531   3.837   6.431   1.259  0.0376  0.0613  0.0238
 3788W        W 7532   2.587   6.246   1.819  0.0702 -0.1334 -0.1195
 3789W        W 7533   5.600   1.484   9.084  0.0410  0.2790  0.2743
 3790W        W 7534   3.269   0.850   2.582 -0.0019  0.1594  0.3257
 3791W        W 7535   4.114   6.631   4.342 -0.3419 -0.1018  0.0808
 3792W        W 7536   7.833   2.156  11.688  0.0339  0.1457  0.1551
 3793W        W 7537   1.022   5.156   4.943  0.0671  0.4621 -0.2036
 3794W        W 7538   4.027   1.288   0.902  0.1988  0.0967  0.1589
 3795W        W 7539   0.305   8.833  10.585  0.1697 -0.2321  0.0804
 3796W        W 7540   6.834   9.803   1.441 -0.0264 -0.0523  0.0370
 3797W        W 7541   6.179   0.619  11.068  0.2444  0.0345  0.4581
 3798W        W 7542   7.880   0.044   3.612 -0.0212  0.3718  0.3903
 3799W        W 7543   6.171   3.325  10.622 -0.2296 -0.0181  0.0389
 3800W        W 7544   6.110   1.394   1.901  0.1681  0.0729 -0.0089
 3801W        W 7545   3.299   2.983  10.950 -0.0836 -0.3237 -0.0516
 3802W        W 7546   8.462   2.230   2.539 -0.2104  0.3549  0.0648
 3803W        W 7547   8.736   0.580  11.601  0.2148 -0.0073  0.0212
 3804W        W 7548   7.114   4.052   2.976  0.2410  0.0586  0.1849
 3805W        W 7549   2.284   1.933  11.482 -0.0722  0.0434  0.4742
 3806W        W 7550   5.054   1.720  10.073  0.1119 -0.0038 -0.0279
 3807W        W 7551   1.977   8.571   2.474  0.2728 -0.2408 -0.1732
 3808W        W 7552   8.562   2.735  11.850  0.0585  0.1702 -0.0319
 3809W        W 7553   1.844   3.100   0.417  0.1904  0.2345 -0.2944
 3810W        W 7554   5.056   9.168   4.052 -0.0624 -0.0941  0.1667
 3811W        W 7555   5.383   0.945   1.552 -0.0652  0.1256  0.4886
 3812W        W 7556   2.959   1.247   9.776 -0.0568 -0.2183 -0.0166
 3813W        W 7557   4.701   9.460   3.844 -0.1168  0.1976 -0.4004
 3814W        W 7558   9.742   3.670   0.697  0.1525 -0.4248  0.1870
 3815W        W 7559   3.434   4.799   3.327 -0.1895 -0.0581  0.0324
 3816W        W 7560   9.422   0.975   3.128 -0.0178 -0.2626 -0.2597
 3817W        W 7561   7.706   9.308   0.459 -0.0586 -0.0218  0.0883
 3818W        W 7562   7.314   1.686   1.030  0.0030 -0.1520  0.1091
 3819W        W 7563   0.665   1.584   3.496  0.0046 -0.0707 -0.6062
 3820W        W 7564   3.570   9.045  12.414  0.2536 -0.2442  0.2371
 3821W        W 7565   6.990   8.175   5.140  0.1727  0.1508 -0.1913
 3822W        W 7566   4.106   2.277  11.806 -0.0655  0.0918  0.0903
 3823W        W 7567   6.382   6.515  10.045  0.1200  0.0124 -0.1295
 3824W        W 7568   9.619   2.801  10.356 -0.1627  0.1134 -0.2539
 3825W        W 7569   7.462   4.446   1.994  0.0172  0.3284 -0.2056
 3826W        W 7570   3.609   6.906   0.371 -0.0520 -0.0628  0.0852
 3827W        W 7571   1.377   6.549   2.953 -0.1257 -0.0160 -0.4545
 3828W        W 7572   0.421   8.102   9.570  0.0887  0.0101  0.0583
 3829W        W 7573   3.093   7.434  11.490 -0.3162  0.0713 -0.2908
 3830W        W 7574   7.165   0.374  12.887  0.1520  0.4116  0.1067
 3831W        W 7575   9.337   5.681   9.213  0.0576  0.0654  0.1124
 3832W        W 7576   9.192   3.957  10.492 -0.5016  0.0851  0.3074
 3833W        W 7577   9.403   0.363   9.260  0.0050  0.2204  0.1789
 3834W        W 7578   0.200   9.136   3.520  0.0349 -0.1460  0.3718
 3835W        W 7579   4.973   2.648   0.036  0.2139 -0.1870 -0.0593
 3836W        W 7580   2.479   7.622   0.357  0.2173 -0.0901  0.1047
 3837W        W 7581   6.191   8.809  10.504 -0.0732 -0.0188 -0.1973
 3838W        W 7582   3.727   0.461   3.456 -0.2605 -0.0304  0.1329
 3839W        W 7583   1.908   9.828  11.544  0.1199 -0.4574  0.0228
 3840W        W 7584   4.074   7.793  12.063 -0.2413  0.1999  0.2107
 3841W        W 7585   2.775   6.880   9.825  0.1016  0.0798  0.0195
 3842W        W 7586   9.724   6.758  11.953 -0.0149  0.2094 -0.0862
 3843W        W 7587   8.491   7.461   0.110  0.2274 -0.0568  0.1423
 3844W        W 7588   2.803   8.176   2.813  0.3055  0.2453 -0.1895
 3845W        W 7589   1.668   4.083   2.764 -0.1554 -0.1014 -0.1751
 3846W        W 7590   4.826   7.136  10.793  0.0052 -0.0709 -0.1826
 3847W        W 7591   2.750   0.926  11.531 -0.0643  0.1391 -0.1056
 3848W        W 7592   0.742   2.851  10.593 -0.0850 -0.1555 -0.1245
 3849W        W 7593   6.205   5.084   0.527  0.0646 -0.0954  0.3976
 3850W        W 7594   0.866   3.285   9.738 -0.0779 -0.3484  0.6645
 3851W        W 7595   2.408   9.534   1.229  0.0081  0.1489  0.0158
 3852W        W 7596   4.898   0.627  12.362  0.1533  0.2837  0.1864
 3853W        W 7597   2.950   0.851   1.276 -0.0781 -0.0201 -0.0538
 3854W        W 7598   8.885   4.573   2.041  0.1642  0.1252  0.1211
 3855W        W 7599   7.360   4.227  12.328 -0.2263 -0.1013 -0.0965
 3856W        W 7600   8.659   8.000   7.886  0.4018  0.1275  0.1351
 3857W        W 7601   7.423   6.880   3.889  0.0102 -0.0995 -0.1231
 3858W        W 7602   3.202   7.905   0.820  0.0617  0.3809  0.2471
 3859W        W 7603   0.696   4.604  10.276  0.0121 -0.0892 -0.0227
 3860W        W 7604   0.864   4.442   0.919  0.3069  0.1581  0.3044
 3861W        W 7605   5.142   3.511   1.918  0.4582 -0.1180 -0.0452
 3862W        W 7606   4.137   4.853   1.302  0.0618  0.1111 -0.1107
 3863W        W 7607   4.446   8.237   9.935  0.0438 -0.2256  0.0079
 3864W        W 7608   4.711   0.188   2.414 -0.1457 -0.1415 -0.0565
 3865W        W 7609   8.859   2.128  12.136  0.1614  0.0166  0.3181
 3866W        W 7610   6.053   3.883   9.414 -0.0836 -0.2110 -0.0777
 3867W        W 7611   0.376   2.848   2.532  0.0616 -0.0561 -0.0415
 3868W        W 7612   5.573   0.544  12.691 -0.0863 -0.1170  0.0863
 3869W        W 7613   8.826   7.163   0.844  0.1529 -0.2938  0.0267
 3870W        W 7614   0.733   2.905  11.114 -0.1376 -0.1184  0.1653
 3871W        W 7615   9.409   6.742  10.057  0.0704 -0.4745 -0.2686
 3872W        W 7616   6.217   7.907   0.518 -0.4115  0.0091  0.1797
 3873W        W 7617   5.597   5.965   5.156  0.2187 -0.2918  0.2328
 3874W        W 7618   6.457   2.184  10.748 -0.1461  0.1957  0.0669
 3875W        W 7619   1.558   8.143  10.264  0.0939 -0.0686  0.0397
 3876W        W 7620   2.579   4.077  11.426 -0.4554 -0.2076 -0.1212
 3877W        W 7621   7.965   0.117   9.849 -0.0115  0.3095 -0.2022
 3878W        W 7622   9.222   7.111  11.964 -0.1214  0.0151  0.0047
 3879W        W 7623   6.411   5.522   2.263  0.0639 -0.0692  0.1547
 3880W        W 7624   2.539   3.125   1.466  0.0556  0.0075  0.2309
 3881W        W 7625   3.164   8.237   9.485  0.2488  0.1185  0.2842
 3882W        W 7626   4.266   4.649   3.564 -0.1705 -0.0316 -0.0731
 3883W        W 7627   5.909   8.328   0.618  0.2197 -0.1524  0.2159
 3884W        W 7628   2.614   9.227  10.186 -0.0217 -0.0916  0.3059
 3885W        W 7629   1.682   3.360   2.946  0.1451  0.0198 -0.1779
 3886W        W 7630   1.196   5.215   9.878 -0.2835  0.1308  0.0478
 3887W        W 7631   6.732   9.536  10.495 -0.2871 -0.2193 -0.0399
 3888W        W 7632   6.275   4.759  10.692 -0.2809 -0.0057  0.0599
 3889W        W 7633   0.931   1.958  10.384 -0.1328  0.5150 -0.0422
 3890W        W 7634   0.263   9.144   9.501  0.4651 -0.2053 -0.0091
 3891W        W 7635   5.276   4.818   0.210  0.0262  0.2616 -0.1223
 3892W        W 7636   1.991   5.836   9.234 -0.0631 -0.3388 -0.0671
 3893W        W 7637   3.381   4.362  12.365 -0.0587  0.0941 -0.0154
 3894W        W 7638   4.166   6.045   0.393 -0.0483  0.1441 -0.0979
 3895W        W 7639   3.439   1.191  10.398  0.1689  0.0461  0.2677
 3896W        W 7640   9.753   9.663   1.101  0.0161  0.1508  0.1270
 3897W        W 7641   8.420   3.107   8.772  0.1132  0.1697 -0.0204
 3898W        W 7642   2.354   0.600   9.883  0.1282  0.1659  0.1778
 3899W        W 7643   8.001   1.068   2.876  0.4201  0.1145 -0.2004
 3900W        W 7644   2.723   8.534   9.461 -0.0136 -0.0370  0.1682
 3901W        W 7645   9.228   9.224  12.027  0.0890 -0.2092  0.0533
 3902W        W 7646   3.868   1.030   9.379 -0.0276  0.2809 -0.0707
 3903W        W 7647   4.121   0.458  11.980  0.2721  0.1026  0.4424
 3904W        W 7648   2.581   7.854   3.847  0.0723  0.1221  0.2952
 3905W        W 7649   4.314   5.471   2.237 -0.3019  0.4632  0.1747
 3906W        W 7650   7.918   9.786  11.909  0.0227  0.0815  0.1787
 3907W        W 7651   3.456   3.442  11.295  0.1386 -0.1825 -0.3845
 3908W        W 7652   1.385   5.319   2.646  0.0065 -0.0666 -0.1869
 3909W        W 7653   6.998   7.885   2.926 -0.2743  0.2637 -0.2064
 3910W        W 7654   6.587   3.993   0.708 -0.1843 -0.2072  0.0221
 3911W        W 7655   4.747   2.408  11.862  0.0662 -0.0115 -0.3452
 3912W        W 7656   2.636   4.027   1.271  0.0251 -0.0306 -0.0642
 3913W        W 7657   9.577   1.443   2.001 -0.2708 -0.1585 -0.2202
 3914W        W 7658   4.665   7.544   0.963  0.0211 -0.0657 -0.3517
 3915W        W 7659   6.816   5.427   1.496  0.0344 -0.1649  0.2096
 3916W        W 7660   7.186   4.888   2.080 -0.1936  0.4133 -0.1211
 3917W        W 7661   1.961   7.393   0.312 -0.0407  0.3871 -0.0057
 3918W        W 7662   3.644   3.282   9.526 -0.1277 -0.1138 -0.2052
 3919W        W 7663   0.478   5.567   2.840 -0.1404 -0.0342 -0.1458
 3920W        W 7664   9.665   1.204  11.424  0.0973 -0.1912  0.0785
 3921W        W 7665   2.407   2.490  11.664  0.1390 -0.0752  0.4734
 3922W        W 7666   1.617   7.081   0.537 -0.2952  0.2900  0.0265
 3923W        W 7667   7.016   0.377  12.357  0.0456  0.0530  0.1010
 3924W        W 7668   7.255   2.237   1.059 -0.0237 -0.0114  0.0859
 3925W        W 7669   6.998   2.799   0.029  0.0065  0.2467 -0.0999
 3926W        W 7670   3.263   3.221   8.666  0.1455  0.0130  0.1286
 3927W        W 7671   1.095   3.712   4.608  0.1256 -0.0495  0.1732
 3928W        W 7672   7.420   1.636  12.490  0.1018  0.0877  0.0199
 3929W        W 7673   0.359   6.128   2.836 -0.0473  0.0645  0.2212
 3930W        W 7674   8.654   3.678  11.768  0.1268 -0.0093 -0.0970
 3931W        W 7675   4.664   3.337  12.124 -0.2775 -0.2042  0.1769
 3932W        W 7676   2.646   5.672   9.714  0.2664  0.0227  0.0740
 3933W        W 7677   8.815   6.153   9.621  0.1236 -0.0565 -0.0009
 3934W        W 7678   4.343   0.541  12.461 -0.2297 -0.0257 -0.1868
 3935W        W 7679   0.722   3.963  12.027  0.0378 -0.3705  0.0120
 3936W        W 7680   4.524   6.253  11.576 -0.1139  0.0313  0.0295
 3937W        W 7681   0.803   0.963   3.502 -0.1942  0.1364  0.2913
 3938W        W 7682   7.813   6.473   2.066 -0.0929 -0.1634  0.3120
 3939W        W 7683   2.535   6.060   2.277 -0.1752 -0.0737 -0.0339
 3940W        W 7684   0.345   2.492   9.271 -0.2281  0.0160  0.0891
 3941W        W 7685   9.371   2.731   3.009 -0.0155  0.0219 -0.2579
 3942W        W 7686   8.612   6.834   3.810  0.1255  0.0224 -0.0464
 3943W        W 7687   2.696   7.975   3.335 -0.0811 -0.2793 -0.2410
 3944W        W 7688   2.976   6.724   9.019  0.1987 -0.1975  0.1002
 3945W        W 7689   9.582   6.834   0.707 -0.1015 -0.3500  0.0096
 3946W        W 7690   9.627   5.037   1.142  0.2123 -0.0465  0.1245
 3947W        W 7691   9.269   8.617  10.922  0.2180 -0.1652 -0.2075
 3948W        W 7692   7.364   6.509  10.026 -0.2899  0.0141 -0.4135
 3949W        W 7693   3.490   2.396   2.900  0.1156  0.2803 -0.1697
 3950W        W 7694   5.417   1.742  12.853 -0.0804 -0.0603  0.2813
 3951W        W 7695   3.276   3.370   2.333  0.0639 -0.1921  0.0393
 3952W        W 7696   1.146   7.482   4.275  0.0600  0.0641  0.1533
 3953W        W 7697   4.821   8.317   9.003 -0.0583 -0.0133  0.2068
 3954W        W 7698   0.702   9.383   9.575  0.0563  0.0436  0.2317
 3955W        W 7699   6.120   9.593  12.688 -0.0630 -0.2947  0.2470
 3956W        W 7700   9.767   9.060  11.939  0.2282 -0.1602  0.3579
 3957W        W 7701   5.815   7.580   3.999 -0.0089 -0.4859  0.2511
 3958W        W 7702   8.251   3.495   2.932 -0.0745 -0.1891  0.1311
 3959W        W 7703   3.627   3.783  11.635  0.2845  0.1654 -0.3514
 3960W        W 7704   8.091   6.662   0.535  0.0059  0.3158 -0.0101
 3961W        W 7705   3.470   0.953   3.528 -0.2468  0.0529 -0.1619
 3962W        W 7706   8.767   0.654   2.530  0.1608  0.1379 -0.0008
 3963W        W 7707   8.008   7.828   1.700 -0.2360  0.2445  0.2948
 3964W        W 7708   6.438   1.672  10.768 -0.0301 -0.1734  0.0061
 3965W        W 7709   7.506   5.626   0.715  0.2568  0.0839  0.0731
 3966W        W 7710   8.932   4.335   1.510  0.2379 -0.1869 -0.1245
 3967W        W 7711   0.865   4.298   3.526  0.1746 -0.0769  0.0749
 3968W        W 7712   3.823   2.420   8.657 -0.0868  0.2792  0.2057
 3969W        W 7713   3.485   5.492   9.056 -0.0992 -0.1849  0.2157
 3970W        W 7714   0.794   6.060   9.188 -0.2266  0.1552  0.2043
 3971W        W 7715   5.550   1.901  11.725 -0.0356 -0.4438 -0.1693
 3972W        W 7716   3.675   3.381   0.450 -0.1815 -0.0575  0.1541
 3973W        W 7717   3.657   5.329   4.741 -0.2030  0.3913 -0.1048
 3974W        W 7718   8.653   6.734   9.631 -0.1313  0.0908  0.2067
 3975W        W 7719   4.691   2.835   0.532  0.1286 -0.2492 -0.0221
 3976W        W 7720   3.275   9.065  10.096 -0.2426  0.1490 -0.1590
 3977W        W 7721   1.612   7.822  12.588  0.0605 -0.0766 -0.1194
 3978W        W 7722   2.627   6.089  11.684 -0.2483 -0.2696  0.2235
 3979W        W 7723   1.700   2.393  12.650 -0.2160 -0.0827 -0.0095
 3980W        W 7724   6.006   8.383   2.363 -0.1314 -0.1019 -0.0994
 3981W        W 7725   6.381   9.029  12.758 -0.0913  0.0638  0.2721
 3982W        W 7726   9.044   1.280  12.769  0.0846 -0.1794 -0.1050
 3983W        W 7727   8.914   6.274   0.608  0.5871 -0.1361  0.1189
 3984W        W 7728   2.004   4.308   0.120 -0.3373 -0.0424 -0.2697
 3985W        W 7729   7.055   0.401   0.383 -0.2812 -0.0057 -0.2990
 3986W        W 7730   3.420   6.957   0.925  0.4153  0.3166  0.0217
 3987W        W 7731   4.729   6.934   0.306  0.0639 -0.1278  0.0033
 3988W        W 7732   5.841   9.807   0.957  0.3148 -0.1696 -0.0414
 3989W        W 7733   9.407   1.876  11.335  0.3371 -0.1549 -0.1377
 3990W        W 7734   1.655   0.230   3.507  0.2533  0.0398  0.2366
 3991W        W 7735   0.995   5.513   2.843  0.1037 -0.0303 -0.0719
 3992W        W 7736   3.127   7.398   0.825 -0.2430  0.0912  0.1226
 3993W        W 7737   1.916   5.420  12.859 -0.0042  0.3164  0.1267
 3994W        W 7738   5.718   5.661  10.711  0.0217  0.1630  0.3993
 3995W        W 7739   2.372   0.428  12.977  0.0548  0.2707  0.0332
 3996W        W 7740   7.138   6.966   9.904  0.0631  0.0102  0.1390
 3997W        W 7741   4.669   3.805   2.263 -0.1514  0.0687 -0.1432
 3998W        W 7742   4.557   8.733   9.125 -0.0002  0.1945  0.1472
 3999W        W 7743   2.657   5.813   1.482  0.0469 -0.1288  0.4451
 4000W        W 7744   4.221   3.163  12.072  0.2502  0.3134  0.0583
 4001W        W 7745   2.208   9.576   9.608  0.3498  0.1537  0.1379
 4002W        W 7746   0.271   8.916   0.045  0.1174  0.3409 -0.0920
 4003W        W 7747   4.554   6.973   3.214  0.1046 -0.0065  0.0577
 4004W        W 7748   8.564   7.699   3.713 -0.2146 -0.0184 -0.0405
 4005W        W 7749   5.094   7.680  12.238 -0.0180  0.0487 -0.0494
 4006W        W 7750   8.392   4.661   1.361  0.2090  0.0258 -0.2959
 4007W        W 7751   0.118   3.367  10.347  0.1502  0.0876 -0.1766
 4008W        W 7752   1.792   1.078   2.502 -0.2340 -0.2818 -0.0238
 4009W        W 7753   3.041   7.769   9.239 -0.0558 -0.2269  0.0786
 4010W        W 7754   6.287   8.156   5.090 -0.1563  0.1051 -0.0361
 4011W        W 7755   7.416   6.741  11.135  0.0485  0.0658 -0.2679
 4012W        W 7756   3.932   5.864   2.132  0.1578 -0.0689 -0.1813
 4013W        W 7757   4.720   7.034   2.494 -0.0440 -0.2334 -0.1334
 4014W        W 7758   4.705   5.604   1.952  0.3756 -0.1369 -0.1996
 4015W        W 7759   3.307   3.498   1.298  0.1589 -0.0569 -0.3173
 4016W        W 7760   3.053   0.771   2.124  0.2381 -0.0646 -0.3866
 4017W        W 7761   5.581   0.574   2.947 -0.2359  0.2232 -0.2468
 4018W        W 7762   5.365   2.667   9.602 -0.3289 -0.3803 -0.0238
 4019W        W 7763   3.319   5.013   1.397 -0.0294  0.0655 -0.1433
 4020W        W 7764   8.383   6.691   0.073  0.1755 -0.1424 -0.0693
 4021W        W 7765   8.878   6.509  12.138 -0.1093 -0.2171 -0.0352
 4022W        W 7766   1.705   1.559   4.179  0.1280 -0.3190 -0.0349
 4023W        W 7767   4.351   0.222  10.770 -0.0508 -0.0454 -0.3153
 4024W        W 7768   8.823   5.775   0.314 -0.3148 -0.1302 -0.5977
 4025W        W 7769   3.931   0.578   8.541 -0.1997 -0.1682 -0.0333
 4026W        W 7770   3.798   1.330   0.395  0.0525  0.0038  0.0746
 4027W        W 7771   5.752   4.927   0.355  0.0029  0.1828 -0.2155
 4028W        W 7772   8.344   5.528  11.505  0.3112  0.0495 -0.1400
 4029W        W 7773   1.166   2.194   8.747 -0.1093 -0.0803 -0.1318
 4030W        W 7774   4.580   7.547  12.143  0.1121 -0.0631  0.0159
 4031W        W 7775   0.790   5.470   0.884  0.1168  0.0010  0.3396
 4032W        W 7776   8.042   3.703   1.386 -0.3190 -0.1407 -0.2416
 4033W        W 7777   1.388   3.591  11.333  0.1259  0.0023  0.2503
 4034W        W 7778   0.950   8.887   2.722  0.2004  0.1821 -0.0467
 4035W        W 7779   6.122   8.396   3.725 -0.1376 -0.0802 -0.1542
 4036W        W 7780   6.282   1.415  11.646  0.0920  0.0410 -0.0702
 4037W        W 7781   7.176   9.446   1.873  0.0685  0.0751 -0.0746
 4038W        W 7782   6.741   5.947   0.582  0.2028 -0.2238  0.0353
 4039W        W 7783   6.492   4.929   3.197  0.0574 -0.0396 -0.1904
 4040W        W 7784   1.398   7.353   2.719 -0.0775  0.1516 -0.1436
 4041W        W 7785   7.513   7.668  11.075  0.2160  0.0989 -0.1004
 4042W        W 7786   9.880   3.639   1.569  0.0650 -0.1021 -0.1221
 4043W        W 7787   8.778   7.862  10.881 -0.1427  0.1692  0.0775
 4044W        W 7788   2.064   4.256  11.410 -0.0848  0.2730 -0.2574
 4045W        W 7789   8.581   3.709  12.684  0.2664  0.0831  0.2253
 4046W        W 7790   8.208   3.510   2.020 -0.0951  0.0910  0.1201
 4047W        W 7791   9.753   6.828   3.317  0.0569 -0.4141  0.0935
 4048W        W 7792   6.523   3.438  10.327 -0.2751  0.2605  0.0712
 4049W        W 7793   5.360   8.554   4.121 -0.0933 -0.2990 -0.1222
 4050W        W 7794   6.340   5.055  10.279  0.0890 -0.1622  0.1112
 4051W        W 7795   6.525   8.386  11.296  0.0164  0.0613  0.2042
 4052W        W 7796   9.363   5.657   1.685 -0.0561 -0.1649  0.0454
 4053W        W 7797   5.045   3.601   3.012  0.2444  0.2943 -0.0234
 4054W        W 7798   3.744   1.206   3.973  0.0422 -0.1073  0.3049
 4055W        W 7799   2.940   4.670   1.242  0.3089  0.0616  0.2158
 4056W        W 7800   5.495   9.862  10.872  0.1195  0.2250 -0.0062
 4057W        W 7801   9.168   5.919   0.901 -0.2108  0.0491 -0.3600
 4058W        W 7802   3.771   5.782   3.047 -0.1052  0.0427  0.3290
 4059W        W 7803   2.405   9.405   2.265 -0.0880 -0.0653 -0.1650
 4060W        W 7804   1.325   7.529   9.418 -0.1225  0.1816  0.0392
 4061W        W 7805   1.651   5.734   0.375 -0.0408  0.0659  0.3293
 4062W        W 7806   6.752   1.271  10.500  0.1961  0.3295  0.2101
 4063W        W 7807   9.643   1.407   9.275  0.1571 -0.0115 -0.1676
 4064W        W 7808   7.993   0.777  12.208  0.0382 -0.0736 -0.2331
 4065W        W 7809   4.871   7.341   0.042 -0.1423  0.1053 -0.0013
 4066W        W 7810   0.350   4.320  12.419 -0.1836  0.2028 -0.3774
 4067W        W 7811   0.152   8.604   3.471 -0.0423 -0.1788  0.0055
 4068W        W 7812   2.356   8.819   0.267  0.3418 -0.1175 -0.0110
 4069W        W 7813   4.494   1.943  11.971 -0.1226  0.2182  0.0608
 4070W        W 7814   4.840   3.287   1.592  0.0480 -0.0117 -0.1161
 4071W        W 7815   8.744   1.326   1.558 -0.1402  0.1082 -0.2180
 4072W        W 7816   2.088   5.540  10.567  0.2709  0.1392  0.0586
 4073W        W 7817   8.071   6.023   2.558  0.2141 -0.2415 -0.2190
 4074W        W 7818   8.896   0.994   2.992 -0.1876  0.3051 -0.2700
 4075W        W 7819   8.126   2.934   2.893 -0.1642 -0.1462  0.0713
 4076W        W 7820   4.703   2.913   3.661  0.2206 -0.4068  0.2820
 4077W        W 7821   6.154   3.986  12.379  0.2163 -0.0428 -0.1515
 4078W        W 7822   7.487   3.087   1.944  0.1413  0.1342 -0.0658
 4079W        W 7823   9.569   0.559   9.727 -0.2636  0.4154 -0.0558
 4080W        W 7824   2.733   2.527   0.207  0.1084  0.2379  0.1263
 4081W        W 7825   9.185   2.266   2.369  0.0862 -0.1499  0.2632
 4082W        W 7826   7.812   4.939   3.925 -0.2283  0.1824 -0.3018
 4083W        W 7827   5.445   0.972  10.390 -0.1383  0.0977 -0.0344
 4084W        W 7828   8.185   4.762  12.097 -0.0423 -0.0197  0.2911
 4085W        W 7829   6.055   8.304   9.992  0.0567 -0.3082  0.1666
 4086W        W 7830   2.021   4.786  11.586  0.0143  0.2408  0.2598
 4087W        W 7831   3.499   1.078  12.490 -0.1206  0.0252 -0.1731
 4088W        W 7832   3.730   8.262  11.201 -0.3493 -0.1664 -0.0440
 4089W        W 7833   0.818   1.462   9.396 -0.0229  0.0506 -0.1909
 4090W        W 7834   3.916   5.074  12.851  0.0144  0.0864 -0.0840
 4091W        W 7835   2.392   3.537  10.060 -0.1222 -0.1326  0.1823
 4092W        W 7836   1.549   2.687  11.294  0.1289  0.0337  0.1286
 4093W        W 7837   9.361   6.326   1.664  0.2264 -0.3618 -0.0349
 4094W        W 7838   1.409   9.853  11.450  0.0453 -0.0854 -0.0810
 4095W        W 7839   0.580   1.516   1.205 -0.1954  0.0027  0.0639
 4096W        W 7840   9.054   1.997  10.413  0.0806  0.0540  0.2797
 4097W        W 7841   2.399   4.447   9.132  0.0563 -0.2277 -0.0952
 4098W        W 7842   3.525   7.007  10.784  0.1242  0.0119 -0.2350
 4099W        W 7843   8.515   7.723   0.777  0.1648  0.1158 -0.2652
 4100W        W 7844   6.860   6.807   2.954 -0.0104 -0.0231 -0.3856
 4101W        W 7845   4.490   2.525   2.107  0.2495 -0.2628 -0.0916
 4102W        W 7846   2.707   1.768  11.248 -0.2309  0.0779  0.0419
 4103W        W 7847   6.863   5.821  12.398  0.1969  0.1159 -0.1616
 4104W        W 7848   5.124   4.197  11.579 -0.1379 -0.0914  0.2249
 4105W        W 7849   6.481   4.260  10.627  0.0568 -0.1463 -0.3949
 4106W        W 7850   5.197   7.385   1.056  0.2169 -0.2973 -0.2307
 4107W        W 7851   4.760   1.751  10.513  0.0196  0.0087  0.0740
 4108W        W 7852   2.130   3.972   1.054  0.0275 -0.2844 -0.0557
 4109W        W 7853   5.362   4.306   3.011  0.1189  0.1381  0.0612
 4110W        W 7854   4.187   9.734   2.861  0.2377 -0.2171  0.1860
 4111W        W 7855   8.771   1.619   2.003 -0.1639  0.0054  0.0638
 4112W        W 7856   9.225   0.142   1.902 -0.1905  0.2157  0.1165
 4113W        W 7857   5.037   5.632   2.787 -0.0653 -0.1698 -0.2059
 4114W        W 7858   6.096   2.702  11.909 -0.1611 -0.0602  0.1487
 4115W        W 7859   2.845   9.464  11.960 -0.1007  0.0601 -0.0354
 4116W        W 7860   0.407   4.871   0.300 -0.2465  0.0544 -0.2672
 4117W        W 7861   6.272   7.475  12.947  0.0259  0.1030  0.4007
 4118W        W 7862   8.757   7.940   2.798  0.0741  0.0240 -0.0650
 4119W        W 7863   6.575   8.813   1.596 -0.1293  0.2341 -0.2081
 4120W        W 7864   2.063   0.516  10.886 -0.2432  0.0454  0.0074
 4121W        W 7865   6.688   8.148   0.504 -0.2191  0.0202 -0.0225
 4122W        W 7866   2.995   0.480  10.433  0.0971 -0.0516 -0.1869
 4123W        W 7867   2.001   9.215   1.882  0.1117 -0.2621  0.0588
 4124W        W 7868   6.820   0.568   3.791 -0.3618 -0.2083  0.0816
 4125W        W 7869   7.582   6.383   9.295 -0.2123 -0.0666  0.1973
 4126W        W 7870   8.060   7.682   1.265  0.0137  0.1838 -0.2043
 4127W        W 7871   2.416   7.100  10.118 -0.1499  0.1638  0.0832
 4128W        W 7872   1.637   2.134   1.651 -0.1305 -0.0424  0.0586
 4129W        W 7873   9.405   6.837  12.332  0.0285 -0.1120  0.1227
 4130W        W 7874   7.536   2.743  12.979  0.1919 -0.1020  0.3117
 4131W        W 7875   4.238   6.023  12.880 -0.1339 -0.2470  0.2579
 4132W        W 7876   3.148   9.860   0.289 -0.2503  0.1073  0.0664
 4133W        W 7877   3.203   8.083  11.863  0.0256  0.4410  0.2125
 4134W        W 7878   0.824   6.818   2.270 -0.0099  0.2285 -0.0265
 4135W        W 7879   1.109   0.586  10.549 -0.3045  0.0839 -0.2377
 4136W        W 7880   7.289   2.286   1.557  0.1989  0.2655  0.1570
 4137W        W 7881   7.523   4.733   0.549 -0.0969  0.0559  0.2070
 4138W        W 7882   6.700   7.704   1.921 -0.2010  0.0278 -0.1871
 4139W        W 7883   0.648   7.574   9.254 -0.4168 -0.0938 -0.1334
 4140W        W 7884   3.320   0.963   9.467  0.2358  0.0827 -0.2885
 4141W        W 7885   6.344   1.995   1.319 -0.1018  0.0139 -0.1514
 4142W        W 7886   0.091   5.967  11.071  0.0873  0.0359 -0.2281
 4143W        W 7887   2.368   2.691   1.250  0.1165  0.0680 -0.1752
 4144W        W 7888   1.013   3.987  11.231 -0.2923 -0.1803 -0.0993
 4145W        W 7889   6.753   9.127   3.266  0.0120 -0.0522  0.1423
 4146W        W 7890   8.012   4.320   9.773 -0.2678  0.2096  0.3917
 4147W        W 7891   8.673   4.105   3.319  0.1442  0.4521  0.1020
 4148W        W 7892   3.151   5.648   3.102 -0.0127  0.1062 -0.4537
 4149W        W 7893   1.734   0.711   0.327 -0.0684 -0.4711  0.0597
 4150W        W 7894   6.456   4.876  11.171 -0.0855 -0.3199  0.1380
 4151W        W 7895   0.953   7.378   2.833  0.0244  0.0071 -0.3244
 4152W        W 7896   5.442   6.914   8.865 -0.1937 -0.1676 -0.0107
 4153W        W 7897   6.548   7.056   8.305 -0.1210  0.2426  0.0808
 4154W        W 7898   0.214   7.155   8.692  0.1439  0.0916 -0.2216
 4155W        W 7899   4.984   6.126   9.654 -0.3283 -0.2253  0.1057
 4156W        W 7900   0.188   1.665   8.834 -0.3687  0.1470 -0.2836
 4157W        W 7901   5.162   3.231   1.202 -0.0966 -0.1256 -0.0847
 4158W        W 7902   3.363   6.520  12.067  0.0412  0.0818 -0.0743
 4159W        W 7903   1.970   0.575  11.490  0.1529  0.4259 -0.2934
 4160W        W 7904   6.902   2.207  11.732  0.1917 -0.2439  0.0316
 4161W        W 7905   7.126   6.235   1.270  0.3802 -0.0567 -0.0142
 4162W        W 7906   7.880   7.562   0.252  0.3481 -0.0315  0.2449
 4163W        W 7907   4.403   8.722  10.510  0.1598 -0.2401  0.0790
 4164W        W 7908   3.380   5.068  12.845 -0.1452  0.0906 -0.0752
 4165W        W 7909   1.206   3.278   3.733  0.1928  0.3053 -0.2673
 4166W        W 7910   1.781   7.014  12.827  0.0008  0.3353  0.1226
 4167W        W 7911   0.295   6.618  11.705 -0.0122  0.0963  0.0992
 4168W        W 7912   3.570   5.238   3.907 -0.0172 -0.1643  0.1894
 4169W        W 7913   3.229   9.280   1.303 -0.2623  0.2054  0.0980
 4170W        W 7914   2.585   4.658  10.067 -0.1581  0.4353  0.1098
 4171W        W 7915   2.325   0.138   1.985 -0.1603  0.4606 -0.1441
 4172W        W 7916   1.989   9.332   1.342  0.1360 -0.1838 -0.1449
 4173W        W 7917   0.039   6.753   1.154 -0.3034 -0.0801  0.0046
 4174W        W 7918   5.750   6.286   0.633  0.0510  0.2035  0.3358
 4175W        W 7919   8.747   3.670   1.859  0.2302  0.0462  0.0482
 4176W        W 7920   8.883   2.690   0.356  0.1599  0.0539  0.2563
 4177W        W 7921   8.972   7.250   0.113 -0.0927 -0.1453 -0.0318
 4178W        W 7922   5.847   5.659   8.971  0.0849 -0.1101 -0.1636
 4179W        W 7923   5.111   3.088  11.431 -0.0260 -0.0666 -0.2177
 4180W        W 7924   7.252   9.611   2.795 -0.2402 -0.2332  0.0811
 4181W        W 7925   5.884   1.945   1.499  0.1257  0.4384 -0.0746
 4182W        W 7926   8.529   0.835   1.215  0.0274 -0.0399 -0.1281
 4183W        W 7927   3.324   7.253  11.919 -0.1148  0.0016  0.2420
 4184W        W 7928   6.815   6.585  10.343 -0.0078  0.0530  0.0339
 4185W        W 7929   5.894   7.638   3.078 -0.2479  0.0433 -0.0179
 4186W        W 7930   3.252   9.430   1.773  0.0415 -0.0982  0.1273
 4187W        W 7931   4.286   6.124   3.767  0.2513 -0.1249 -0.1145
 4188W        W 7932   5.261   9.258   8.922  0.1400  0.2513  0.0806
 4189W        W 7933   1.665   9.258   0.873 -0.1000 -0.0139  0.1654
 4190W        W 7934   2.109   8.752   4.650  0.1572 -0.1919  0.1540
 4191W        W 7935   1.878   1.750   0.748 -0.0221  0.1762  0.3109
 4192W        W 7936   8.846   5.666  11.736 -0.0716 -0.2285 -0.0785
 4193W        W 7937   0.180   0.327   4.904 -0.0382 -0.1182  0.0403
 4194W        W 7938   8.631   2.092  11.674 -0.0155  0.1087 -0.1497
 4195W        W 7939   8.975   1.312   0.448  0.2967  0.1521 -0.0025
 4196W        W 7940   9.849   6.332   2.043  0.1510  0.3621  0.1028
 4197W        W 7941   2.971   0.963  12.646  0.1298 -0.1568  0.1861
 4198W        W 7942   2.887   4.588   2.947 -0.0939 -0.0320 -0.1307
 4199W        W 7943   4.439   5.440  11.134  0.0213 -0.0375 -0.0259
 4200W        W 7944   1.723   7.401   9.047 -0.2112  0.2045 -0.0960
 4201W        W 7945   3.546   8.618   3.950 -0.1321 -0.0554 -0.1723
 4202W        W 7946   8.747   7.478  10.242  0.0228  0.3267 -0.1598
 4203W        W 7947   8.589   3.662   0.566 -0.0993 -0.2994  0.2671
 4204W        W 7948   5.546   5.647   0.965 -0.0661 -0.1951 -0.1602
 4205W        W 7949   2.734   3.919  10.718  0.3087  0.3448  0.0965
 4206W        W 7950   1.323   5.974   2.731 -0.0860 -0.3066 -0.1173
 4207W        W 7951   0.043   8.374   3.004 -0.4175 -0.1673  0.0425
 4208W        W 7952   4.671   8.417   1.065 -0.2407  0.1836  0.0449
 4209W        W 7953   0.351   9.640   3.515 -0.0425  0.2711 -0.2545
 4210W        W 7954   9.255   7.629  10.975 -0.0507 -0.4258  0.3252
 4211W        W 7955   7.307   0.284   9.171  0.1012  0.3213  0.1927
 4212W        W 7956   2.662   1.767  11.781  0.1837 -0.5785  0.0153
 4213W        W 7957   0.943   0.406  12.746 -0.0436  0.1295  0.2778
 4214W        W 7958   2.615   3.731  12.354 -0.1313  0.1003  0.1147
 4215W        W 7959   5.931   5.756  11.116  0.1728  0.0205 -0.2697
 4216W        W 7960   3.005   7.156   3.024 -0.2147  0.0391  0.2816
 4217W        W 7961   2.035   1.197  12.094 -0.0357  0.1757 -0.0094
 4218W        W 7962   9.309   7.178   9.010  0.0271  0.2938 -0.3605
 4219W        W 7963   1.450   1.130   0.389  0.1639 -0.1915  0.0981
 4220W        W 7964   7.328   2.563  11.053  0.0990 -0.1784  0.0802
 4221W        W 7965   8.400   1.520   2.319 -0.2062 -0.1436 -0.0879
 4222W        W 7966   5.724   3.705   9.769 -0.0069  0.0797 -0.1850
 4223W        W 7967   2.466   9.773  11.697 -0.1025 -0.2266  0.1885
 4224W        W 7968   0.312   8.207  11.019 -0.1258  0.0135  0.0958
 4225W        W 7969   2.066   2.788   0.830  0.4174 -0.1796 -0.1634
 4226W        W 7970   3.036   5.353   3.824  0.2962 -0.2220  0.1295
 4227W        W 7971   7.022   2.702   0.832  0.1707 -0.0664 -0.0159
 4228W        W 7972   2.381   3.807   3.351  0.1181 -0.0133  0.1751
 4229W        W 7973   0.523   8.243   4.837 -0.3490 -0.3877 -0.0050
 4230W        W 7974   5.335   1.423   3.194  0.1702 -0.1611 -0.0237
 4231W        W 7975   0.563   6.259  12.564 -0.0503 -0.1595  0.0413
 4232W        W 7976   3.881   5.066   9.099  0.1249 -0.0789 -0.2899
 4233W        W 7977   3.879   1.185   3.278  0.1583 -0.1361 -0.0399
 4234W        W 7978   2.046   3.336  10.625  0.2254 -0.0742  0.3120
 4235W        W 7979   1.956   8.190  11.338  0.0321 -0.3037  0.0958
 4236W        W 7980   1.104   4.895   2.429  0.1796  0.0877  0.0847
 4237W        W 7981   1.020   9.241   1.869 -0.0714  0.5449  0.3114
 4238W        W 7982   0.303   3.632  11.467  0.1770  0.2739  0.0251
 4239W        W 7983   1.866   1.391   2.935 -0.0215 -0.1087  0.5185
 4240W        W 7984   8.999   6.654   4.119  0.0252  0.2925 -0.0380
 4241W        W 7985   2.022   9.320  11.715  0.2671 -0.1508 -0.3909
 4242W        W 7986   0.497   2.241   3.887  0.2644 -0.3481 -0.1287
 4243W        W 7987   1.445   4.418   4.268 -0.1734  0.0906  0.0960
 4244W        W 7988   1.125   2.261   3.385 -0.0630  0.0787 -0.0203
 4245W        W 7989   9.730   8.434  10.773  0.0388 -0.0146 -0.1654
 4246W        W 7990   7.254   0.062   0.684 -0.0728  0.0903  0.0835
 4247W        W 7991   7.044   9.361  12.599 -0.2236 -0.0849 -0.1331
 4248W        W 7992   3.952   5.635   0.123  0.0792 -0.1804  0.3498
 4249W        W 7993   7.331   5.028   3.623  0.0030  0.0787 -0.1985
 4250W        W 7994   6.587   3.021  10.769  0.1735  0.0390  0.1803
 4251W        W 7995   8.272   6.040   3.083  0.1095  0.0679  0.0110
 4252W        W 7996   8.143   6.470   2.455  0.2247 -0.2108  0.3335
 4253W        W 7997   6.589   1.831  11.777 -0.0613  0.0872 -0.0268
 4254W        W 7998   7.503   8.535  12.190 -0.1329  0.2350  0.1111
 4255W        W 7999   4.686   4.943   3.696 -0.1553  0.0013  0.0503
 4256W        W 8000   2.037   4.640  10.900 -0.0863  0.2483 -0.1662
 4257W        W 8001   1.201   6.722   0.689 -0.2216 -0.4713 -0.1521
 4258W        W 8002   0.063   0.283  11.319  0.1407  0.1603  0.1777
 4259W        W 8003   8.612   6.656   2.294 -0.2030  0.2223 -0.0438
 4260W        W 8004   2.340   2.246   4.101  0.1746  0.2199 -0.3153
 4261W        W 8005   9.655   3.878  12.683 -0.0690  0.2724 -0.1933
 4262W        W 8006   6.991   9.855  10.168 -0.0578  0.0605 -0.1094
 4263W        W 8007   8.208   5.883   1.190  0.0433  0.2906 -0.0722
 4264W        W 8008   1.363   1.085   2.110  0.2670  0.1662 -0.1320
 4265W        W 8009   7.984   2.405   2.730 -0.0146  0.1714  0.1731
 4266W        W 8010   8.821   4.558   1.076 -0.1626 -0.0173 -0.2369
 4267W        W 8011   4.695   1.916   0.957  0.3693 -0.0173  0.2117
 4268W        W 8012   9.854   7.073  12.338  0.0924  0.0158 -0.0720
 4269W        W 8013   6.133   6.731   3.528 -0.1412 -0.2342  0.1885
 4270W        W 8014   0.088   9.787  11.684 -0.0296 -0.1502 -0.1286
 4271W        W 8015   3.254   2.152   2.539 -0.0130 -0.0709  0.0892
 4272W        W 8016   6.188   5.480  10.792  0.1064  0.0662 -0.0342
 4273W        W 8017   7.078   5.089   9.689  0.0129 -0.0742  0.1663
 4274W        W 8018   4.670   8.553  10.931 -0.0701  0.0576 -0.1511
 4275W        W 8019   3.985   3.732  11.330 -0.0606  0.1548  0.2312
 4276W        W 8020   5.386   2.263   2.227 -0.2617  0.0669  0.1317
 4277W        W 8021   1.030   8.862  11.180  0.2611  0.2293 -0.2836
 4278W        W 8022   5.477   1.669   0.372  0.2866 -0.2542 -0.2014
 4279W        W 8023   2.695   7.839   0.896 -0.4802  0.0542 -0.1012
 4280W        W 8024   9.297   1.349   2.861  0.0099 -0.0579  0.3239
 4281W        W 8025   3.087   9.415   5.316 -0.0246 -0.0741 -0.2560
 4282W        W 8026   2.789   4.117   3.523 -0.1055  0.3526  0.1065
 4283W        W 8027   3.812   2.592  10.297 -0.2770  0.1250  0.0236
 4284W        W 8028   9.087   6.935   2.460  0.0163  0.0201 -0.0590
 4285W        W 8029   2.903   7.869  11.114 -0.1501 -0.0721 -0.0232
 4286W        W 8030   2.530   5.393  11.708  0.2151 -0.2751  0.1658
 4287W        W 8031   5.526   8.725   8.828  0.2073 -0.1831  0.0839
 4288W        W 8032   0.327   3.267  11.066  0.1376  0.0734 -0.2151
 4289W        W 8033   0.016   8.850   3.879 -0.0188 -0.1998  0.2098
 4290W        W 8034   8.159   8.924  11.812  0.1942 -0.0532  0.1805
 4291W        W 8035   8.561   3.418  10.753 -0.2210  0.1798 -0.3924
 4292W        W 8036   8.161   6.640  10.647 -0.2966  0.1847  0.2865
 4293W        W 8037   7.934   5.722   4.623  0.1076 -0.1306 -0.0211
 4294W        W 8038   9.763   7.233   0.917  0.4107 -0.3395  0.0272
 4295W        W 8039   9.308   9.310   1.764 -0.0345  0.1629  0.3339
 4296W        W 8040   9.476   5.218  12.044 -0.1861  0.0065  0.3978
 4297W        W 8041   4.038   8.153   9.492  0.2099 -0.2419 -0.2279
 4298W        W 8042   2.918   3.403  12.742  0.0784  0.2029  0.1958
 4299W        W 8043   5.115   7.249   2.113  0.1211  0.0341  0.1143
 4300W        W 8044   3.233   8.931   2.497 -0.0532  0.1366 -0.1102
 4301W        W 8045   2.284   7.996  12.009  0.1111 -0.0575 -0.1466
 4302W        W 8046   3.369   2.622  11.796 -0.1095 -0.2550 -0.0078
 4303W        W 8047   8.231   4.399   3.348  0.1269 -0.2199  0.0074
 4304W        W 8048   6.571   1.567  10.083 -0.1802 -0.1062 -0.2759
 4305W        W 8049   6.809   5.941  11.206 -0.1379  0.2442 -0.1502
 4306W        W 8050   1.217   2.291   4.441  0.1058 -0.1040  0.0378
 4307W        W 8051   1.116   2.350  10.676  0.1215  0.2094  0.1014
 4308W        W 8052   7.613   3.725   1.682  0.1348  0.3312  0.2994
 4309W        W 8053   5.861   6.129  11.605 -0.1388  0.0392 -0.4090
 4310W        W 8054   0.846   1.228   2.116  0.2508  0.0779 -0.0283
 4311W        W 8055   1.245   6.301   1.649 -0.2098 -0.1493 -0.1333
 4312W        W 8056   9.004   6.343   1.213  0.0997  0.0269  0.0705
 4313W        W 8057   7.648   2.008   2.022  0.1293 -0.1919 -0.0065
 4314W        W 8058   3.045   2.734   8.894 -0.0916  0.2421 -0.1082
 4315W        W 8059   3.913   9.320   7.938 -0.0212 -0.2718  0.2098
 4316W        W 8060   1.615   7.793   2.093 -0.0321 -0.1633  0.2322
 4317W        W 8061   4.419   4.372   2.488 -0.1012  0.1693  0.0432
 4318W        W 8062   3.552   1.166   9.918  0.0061  0.0837  0.0194
 4319W        W 8063   9.670   2.277   1.895  0.0340 -0.0407 -0.1173
 4320W        W 8064   6.520   6.241   3.045 -0.0614  0.2197 -0.2227
 4321W        W 8065   3.793   7.319   8.840 -0.0104  0.2223  0.2122
 4322W        W 8066   0.221   4.057   2.507  0.1954  0.1831  0.2694
 4323W        W 8067   1.796   8.318   4.047  0.0777 -0.3361 -0.1985
 4324W        W 8068   9.860   6.468   2.902 -0.0268  0.0078  0.0272
 4325W        W 8069   1.130   4.225  10.077  0.0399  0.0146  0.2004
 4326W        W 8070   9.168   3.594  10.809 -0.0412 -0.2272  0.0375
 4327W        W 8071   1.232   0.837   4.057  0.1158 -0.0141 -0.1313
 4328W        W 8072   0.290   9.766   1.273 -0.2426  0.0854 -0.2990
 4329W        W 8073   0.011   3.563   9.388  0.0607  0.1400  0.2410
 4330W        W 8074   0.544   7.577   2.714  0.1577 -0.2092 -0.2689
 4331W        W 8075   8.032   1.977   2.463  0.2425 -0.2552 -0.0830
 4332W        W 8076   0.015   7.838   3.099  0.0188  0.2986 -0.2910
 4333W        W 8077   6.608   3.314   9.798 -0.2853  0.3653 -0.1573
 4334W        W 8078   1.836   8.677   0.226 -0.2134  0.2782 -0.0973
 4335W        W 8079   5.565   2.904  11.921 -0.1020 -0.0670 -0.2008
 4336W        W 8080   1.198   7.028   3.168 -0.1211 -0.0218 -0.1536
 4337W        W 8081   7.005   0.043   9.656  0.3249  0.2449 -0.1606
 4338W        W 8082   6.131   4.156  11.809 -0.2747  0.2826 -0.0530
 4339W        W 8083   3.997   0.317  11.498  0.1066 -0.2068 -0.0693
 4340W        W 8084   8.126   5.257  12.389  0.1830 -0.2677 -0.2423
 4341W        W 8085   7.427   8.198  10.866  0.3282 -0.3310  0.3482
 4342W        W 8086   4.687   7.396  10.122  0.2407  0.0445  0.1607
 4343W        W 8087   5.349   7.427   0.246  0.1278  0.2225 -0.1063
 4344W        W 8088   7.803   7.108   4.658 -0.2742 -0.2361 -0.0464
 4345W        W 8089   9.268   5.443   8.680 -0.2736 -0.2012  0.3227
 4346W        W 8090   4.484   6.528   4.061 -0.2733 -0.1333  0.0540
 4347W        W 8091   9.201   0.613   2.827  0.2148 -0.0322  0.2368
 4348W        W 8092   2.056   6.052   4.550  0.2045 -0.1553  0.5285
 4349W        W 8093   8.535   7.268   9.346  0.0497  0.1499 -0.0368
 4350W        W 8094   8.508   6.821   2.784 -0.1423 -0.1061  0.1166
 4351W        W 8095   8.953   9.107   1.450  0.0126  0.1333 -0.0053
 4352W        W 8096   1.550   4.375   9.061 -0.1749 -0.3276 -0.2799
 4353W        W 8097   9.676   4.535   8.443 -0.0367 -0.0306  0.0508
 4354W        W 8098   8.954   7.933   9.391  0.1329 -0.0450  0.0535
 4355W        W 8099   8.407   7.173   2.412 -0.2082 -0.0680  0.3982
 4356W        W 8100   0.866   6.316   1.226 -0.0547 -0.1786 -0.1050
 4357W        W 8101   7.578   5.276  12.750 -0.1807 -0.0849  0.1052
 4358W        W 8102   9.141   7.678   9.926  0.0396  0.1112 -0.1167
 4359W        W 8103   8.347   7.246   0.614  0.1445 -0.3799  0.1838
 4360W        W 8104   0.870   1.675   2.533  0.0191 -0.1001 -0.2218
 4361W        W 8105   0.447   1.240   3.868  0.2687  0.0951 -0.0044
 4362W        W 8106   1.553   7.449   3.232 -0.1424 -0.1149 -0.1686
 4363W        W 8107   8.254   6.838   0.984 -0.1162  0.1860  0.0124
 4364W        W 8108   5.800   4.004   0.419 -0.0482 -0.1725  0.2642
 4365W        W 8109   8.248   9.719   4.127 -0.0577 -0.0962 -0.0099
 4366W        W 8110   7.512   7.831   1.546  0.0196 -0.0673 -0.1597
 4367W        W 8111   3.463   5.939   9.347 -0.3486  0.3680  0.1469
 4368W        W 8112   5.344   1.875   3.025  0.1010  0.2937  0.2019
 4369W        W 8113   0.472   6.595   0.628  0.1138  0.1975 -0.2315
 4370W        W 8114   5.339   2.379   0.333 -0.2242  0.4748  0.0107
 4371W        W 8115   6.539   4.280  12.095  0.2641 -0.2460  0.1727
 4372W        W 8116   3.444   3.728  12.546 -0.1872  0.3049 -0.2305
 4373W        W 8117   2.912   8.209   0.024  0.1263 -0.4653  0.1855
 4374W        W 8118   0.940   9.788   9.739 -0.3317  0.4563 -0.0565
 4375W        W 8119   1.108   3.990   1.511 -0.2801  0.3042  0.1560
 4376W        W 8120   7.751   0.270  12.931  0.0057  0.0024  0.0412
 4377W        W 8121   5.374   9.317   1.940 -0.0029  0.0612  0.1055
 4378W        W 8122   9.509   8.519   8.882 -0.2506  0.2130  0.0041
 4379W        W 8123   9.221   6.479  11.350 -0.1883  0.4111 -0.1259
 4380W        W 8124   4.808   4.885  10.695 -0.0109  0.1489  0.1365
 4381W        W 8125   3.838   4.408   3.315  0.5039  0.0608  0.0213
 4382W        W 8126   4.246   2.746  10.488 -0.0855  0.1518  0.1368
 4383W        W 8127   2.283   3.930  11.074 -0.1041 -0.0047 -0.0557
 4384W        W 8128   0.861   9.158  12.630  0.2703  0.2968 -0.2546
 4385W        W 8129   6.274   7.994  10.560  0.1193  0.5962 -0.1869
 4386W        W 8130   3.013   8.629   3.681 -0.0421  0.1306 -0.2887
 4387W        W 8131   1.022   9.472   1.409  0.3501  0.3303 -0.3217
 4388W        W 8132   6.792   6.957   9.206  0.2048 -0.2864 -0.3078
 4389W        W 8133   2.235   2.078   1.420  0.2317  0.0149 -0.0998
 4390W        W 8134   4.868   0.143   3.089 -0.2487 -0.2033 -0.1423
 4391W        W 8135   9.534   1.181  10.522 -0.0428 -0.1523  0.0759
 4392W        W 8136   2.061   3.685   2.873 -0.2382  0.6093 -0.2194
 4393W        W 8137   6.809   2.688  11.014 -0.1081 -0.0243 -0.0117
 4394W        W 8138   9.134   2.755  11.307 -0.2633  0.1888  0.2098
 4395W        W 8139   6.220   6.713  10.851  0.0203  0.3012  0.1533
 4396W        W 8140   2.551   5.527   2.397 -0.0780  0.0992 -0.0214
 4397W        W 8141   4.918   1.615  12.288  0.0083 -0.1818 -0.1110
 4398W        W 8142   3.501   0.270   0.110 -0.2880  0.2163 -0.2533
 4399W        W 8143   6.070   9.713   3.578  0.0565 -0.2848 -0.1040
 4400W        W 8144   2.650   9.464  12.419 -0.1113  0.1703 -0.0501
 4401W        W 8145   3.123   7.609   1.389 -0.0814 -0.2103  0.1391
 4402W        W 8146   3.220   3.486   9.486  0.1592  0.0213 -0.1762
 4403W        W 8147   6.182   3.589  12.873  0.1496 -0.3453 -0.1951
 4404W        W 8148   4.126   1.036   2.830  0.3252  0.0919 -0.0195
 4405W        W 8149   1.977   1.049  12.964 -0.2517 -0.0542  0.1608
 4406W        W 8150   0.249   3.771  12.258  0.0451 -0.0584 -0.1000
 4407W        W 8151   9.335   8.637   0.460  0.0663 -0.1390 -0.0797
 4408W        W 8152   1.073   3.655   1.888 -0.1136  0.2918  0.3442
 4409W        W 8153   2.096   4.930   3.403  0.2506 -0.0235  0.1220
 4410W        W 8154   3.965   5.322  10.865 -0.1436  0.1034  0.3573
 4411W        W 8155   9.338   0.139   2.574 -0.0326 -0.0929 -0.1602
 4412W        W 8156   1.520   8.085  11.758 -0.0192 -0.0893  0.1892
 4413W        W 8157   2.281   8.235   3.220  0.1386 -0.0647  0.1198
 4414W        W 8158   8.091   5.780  10.319  0.0480 -0.2935 -0.3143
 4415W        W 8159   4.293   1.441   0.510  0.1442  0.1842 -0.0699
 4416W        W 8160   2.715   7.812  12.238  0.4026 -0.0685 -0.0798
 4417W        W 8161   5.704   5.588  11.506 -0.1702  0.2693 -0.0424
 4418W        W 8162   4.539   5.231  11.981  0.1336 -0.1587 -0.1975
 4419W        W 8163   8.414   5.816   9.421 -0.1917  0.0785 -0.1186
 4420W        W 8164   2.586   9.190  12.880 -0.0774 -0.1647  0.0701
 4421W        W 8165   7.169   4.421   9.616  0.1243  0.0491  0.1655
 4422W        W 8166   9.705   7.939   4.189  0.0593 -0.1219 -0.0600
 4423W        W 8167   3.761   9.807   3.181 -0.1434 -0.0155  0.0335
 4424W        W 8168   9.803   8.032   7.848  0.0150 -0.0312  0.1666
 4425W        W 8169   4.303   4.014  10.726  0.1225 -0.0168 -0.0193
 4426W        W 8170   2.061   0.809   3.995  0.0636  0.0414 -0.1757
 4427W        W 8171   9.882   7.766   3.597  0.1493 -0.0579 -0.0274
 4428W        W 8172   1.497   4.192   0.297  0.1789 -0.2149  0.0056
 4429W        W 8173   0.655   2.757   1.125 -0.1999  0.1489 -0.1311
 4430W        W 8174   4.165   9.510  10.636  0.2007  0.3065  0.0655
 4431W        W 8175   0.635   8.547   3.101  0.0473  0.1070  0.0502
 4432W        W 8176   5.129   6.761  10.774  0.3453  0.2445  0.2251
 4433W        W 8177   8.823   8.645   1.031 -0.0148  0.0503  0.1979
 4434W        W 8178   8.047   0.619   2.700 -0.2354  0.0479 -0.1856
 4435W        W 8179   3.711   4.575   0.107  0.2161  0.1184  0.0384
 4436W        W 8180   6.031   8.258  11.202  0.0383 -0.4066  0.0087
 4437W        W 8181   2.375   8.217   0.959  0.0325 -0.1038  0.1807
 4438W        W 8182   5.082   6.343  12.215 -0.1992 -0.0011  0.1013
 4439W        W 8183   9.297   9.213   3.229 -0.0038  0.0638  0.2029
 4440W        W 8184   7.945   6.784  11.122  0.0292  0.1124 -0.1065
 4441W        W 8185   8.398   7.353   1.099  0.0444  0.3441  0.0889
 4442W        W 8186   1.434   8.332   3.120 -0.0288  0.2041  0.0711
 4443W        W 8187   3.074   0.915   0.515  0.0556 -0.0459  0.2556
 4444W        W 8188   3.409   6.422   0.388  0.0627  0.0311  0.0811
 4445W        W 8189   5.968   9.036  10.031 -0.0394 -0.0227  0.1094
 4446W        W 8190   3.697   4.912   1.029  0.0538  0.1030 -0.0184
 4447W        W 8191   3.538   7.722   2.373 -0.2295  0.1321  0.2632
 4448W        W 8192   5.877   2.476  10.918  0.0684  0.0258 -0.3191
 4449W        W 8193   6.494   8.331  10.292  0.1412 -0.2545 -0.0110
 4450W        W 8194   5.927   8.431  10.718 -0.0258  0.1978  0.1471
 4451W        W 8195   1.695   5.965   1.870 -0.0950  0.3309  0.0021
 4452W        W 8196   1.441   4.703  12.282 -0.1074  0.1477 -0.2360
 4453W        W 8197   3.601   6.088   4.370 -0.1062  0.1216  0.2854
 4454W        W 8198   5.046   1.142   8.969  0.2564 -0.2799 -0.1855
 4455W        W 8199   0.348   0.648  11.463 -0.2760  0.0784  0.0368
 4456W        W 8200   6.453   9.255  11.522 -0.1145 -0.0746  0.2118
 4457W        W 8201   2.410   1.384   3.195  0.0487  0.0434  0.1067
 4458W        W 8202   5.533   3.357  12.276  0.1311  0.1029  0.0816
 4459W        W 8203   4.328   4.525   9.847 -0.1094 -0.2282  0.1140
 4460W        W 8204   6.537   0.648   3.372  0.0685  0.3005 -0.0091
 4461W        W 8205   4.171   1.340   3.833 -0.0427  0.0975 -0.1790
 4462W        W 8206   7.233   9.855   0.182  0.1251 -0.3052 -0.0142
 4463W        W 8207   8.889   5.145   8.819 -0.0152 -0.2323 -0.2010
 4464W        W 8208   5.968   6.505   3.135 -0.1746  0.2123 -0.0352
 4465W        W 8209   9.054   2.900  10.386  0.0026  0.1741 -0.0875
 4466W        W 8210   4.171   4.584  11.287 -0.1913  0.1722 -0.2118
 4467W        W 8211   0.048   4.437   8.825  0.0130  0.2518 -0.1774
 4468W        W 8212   8.532   1.606   1.194  0.2909 -0.2538  0.0600
 4469W        W 8213   7.610   2.650  12.223  0.0297 -0.1786  0.1685
 4470W        W 8214   4.362   6.338   0.719 -0.2384 -0.1938 -0.4089
 4471W        W 8215   0.380   9.712  11.267  0.1529 -0.0942  0.4266
 4472W        W 8216   5.735   5.410   2.211 -0.0740  0.1335  0.0879
 4473W        W 8217   6.166   0.076  11.611  0.1930  0.3047 -0.1141
 4474W        W 8218   2.277   4.788   2.279  0.0109 -0.3247 -0.2229
 4475W        W 8219   8.818   5.176   9.346 -0.4910 -0.0370 -0.1803
 4476W        W 8220   4.070   9.316  12.521  0.2160 -0.1432  0.3668
 4477W        W 8221   1.509   1.146   1.313  0.1043 -0.0379 -0.1967
 4478W        W 8222   1.977   9.648  10.049  0.0689 -0.0794 -0.0874
 4479W        W 8223   1.571   9.378  11.987 -0.0022 -0.2518 -0.0405
 4480W        W 8224   7.500   7.244  11.341  0.1054 -0.3068  0.1043
 4481W        W 8225   3.335   6.667  10.375 -0.1948  0.1342 -0.2453
 4482W        W 8226   0.361   2.622   9.819 -0.1909 -0.2016  0.0652
 4483W        W 8227   3.125   0.433   0.451  0.1166 -0.2081  0.0918
 4484W        W 8228   1.962   0.878  12.511 -0.1851 -0.1490  0.0418
 4485W        W 8229   1.227   4.839   8.177 -0.0432  0.1765 -0.2873
 4486W        W 8230   8.289   5.759  10.884  0.0314 -0.1707 -0.1886
 4487W        W 8231   5.567   0.749   9.436 -0.0105 -0.2300  0.2307
 4488W        W 8232   6.360   4.131   3.397  0.2083 -0.0509  0.0177
 4489W        W 8233   0.158   9.329  11.546 -0.6026  0.1046 -0.2188
 4490W        W 8234   6.353   4.623   0.664 -0.1623  0.1926  0.2757
 4491W        W 8235   9.417   6.608  12.751 -0.0235 -0.0684  0.1304
 4492W        W 8236   5.711   9.818  11.470  0.1422  0.1151 -0.2020
 4493W        W 8237   5.519   7.188   0.697 -0.0599  0.0803  0.1157
 4494W        W 8238   2.706   9.077   0.451 -0.1788  0.0904  0.2064
 4495W        W 8239   1.278   0.729   1.112 -0.0348 -0.2126  0.1968
 4496W        W 8240   4.883   8.640  12.036 -0.3065 -0.0646 -0.1431
 4497W        W 8241   4.413   6.625   2.266 -0.0565  0.3232  0.0783
 4498W        W 8242   7.842   1.943   9.916 -0.1162  0.0180  0.0063
 4499W        W 8243   2.615   8.692  12.843 -0.2032 -0.0000 -0.3610
 4500W        W 8244   3.879   8.459  12.902 -0.0587 -0.1179  0.1254
 4501W        W 8245   7.481   4.964   1.128 -0.2566  0.0481 -0.2141
 4502W        W 8246   0.418   6.892  10.239  0.0420 -0.6596  0.0941
 4503W        W 8247   9.622   9.236  11.279 -0.0551 -0.0695 -0.0861
 4504W        W 8248   7.422   1.319  11.636  0.3537 -0.2238 -0.1191
 4505W        W 8249   3.972   9.821   4.569 -0.0048  0.0413 -0.0339
 4506W        W 8250   9.353   7.762  10.453 -0.1757  0.0953 -0.3767
 4507W        W 8251   9.331   0.967   1.194 -0.2256  0.1004  0.3101
 4508W        W 8252   1.483   2.907   2.907 -0.0427  0.1588 -0.0032
 4509W        W 8253   3.446   5.459   0.130  0.0957 -0.4051 -0.0226
 4510W        W 8254   7.051   4.707  10.010 -0.0866  0.0331 -0.2966
 4511W        W 8255   7.462   1.127  10.339 -0.0828 -0.2418  0.0593
 4512W        W 8256   7.499   4.452  11.351 -0.0247 -0.1690 -0.1477
 4513W        W 8257   1.019   5.633  10.649 -0.2876  0.2715 -0.1015
 4514W        W 8258   4.467   3.306   2.072  0.1382 -0.0535 -0.0170
 4515W        W 8259   9.699   2.081   8.708 -0.0391 -0.2776  0.0283
 4516W        W 8260   9.469   1.878   2.281 -0.0339  0.1226 -0.2423
 4517W        W 8261   1.174   3.757  10.338  0.1297  0.1827  0.1150
 4518W        W 8262   4.890   3.910   0.190  0.0988  0.0592  0.1158
 4519W        W 8263   8.736   1.117  11.754 -0.1346 -0.2201  0.2456
 4520W        W 8264   5.496   9.532   3.382  0.0143  0.1046 -0.1220
 4521W        W 8265   6.591   7.150   0.108 -0.2756  0.3581  0.0463
 4522W        W 8266   4.298   4.937  10.909  0.0090 -0.0699 -0.2671
 4523W        W 8267   8.242   8.522   2.270 -0.1833 -0.2938 -0.0228
 4524W        W 8268   0.396   0.786   3.567  0.1493  0.3652 -0.0863
 4525W        W 8269   0.733   3.025   2.931 -0.0926  0.2407 -0.2070
 4526W        W 8270   2.628   6.161   9.898 -0.0342  0.0702  0.0269
 4527W        W 8271   9.822   2.460  10.067 -0.0745 -0.1824  0.1658
 4528W        W 8272   4.524   9.516  11.558  0.0801 -0.0134 -0.0321
 4529W        W 8273   9.216   3.369   9.150  0.2131 -0.1397 -0.2669
 4530W        W 8274   9.746   4.785   2.870 -0.1235 -0.3390  0.0154
 4531W        W 8275   0.660   8.406  11.332  0.0538  0.0157 -0.1590
 4532W        W 8276   8.684   1.037  12.248 -0.4116  0.1977 -0.1168
 4533W        W 8277   4.379   1.708   2.953  0.0321  0.0348 -0.2262
 4534W        W 8278   9.794   6.862   9.013 -0.0795 -0.5407  0.0240
 4535W        W 8279   9.720   7.572  12.957  0.1893 -0.1472 -0.0458
 4536W        W 8280   0.689   2.357   9.578  0.0042 -0.0151  0.1334
 4537W        W 8281   7.503   4.847   9.631  0.3218  0.1732  0.3390
 4538W        W 8282   5.821   2.680   0.902  0.4189  0.3368  0.2172
 4539W        W 8283   1.426   5.502   3.190  0.0113 -0.1046  0.3226
 4540W        W 8284   6.304   6.816   2.871  0.2464 -0.3126  0.0815
 4541W        W 8285   9.686   5.722   8.842  0.1721 -0.4430  0.1930
 4542W        W 8286   8.628   6.255   3.741  0.1827  0.1845 -0.0611
 4543W        W 8287   1.197   9.753   1.774 -0.0070 -0.0519 -0.0891
 4544W        W 8288   9.353   7.566   1.258  0.1052 -0.0608 -0.0277
 4545W        W 8289   5.969   5.444  10.265 -0.2622  0.2388  0.1954
 4546W        W 8290   4.327   1.462  11.943 -0.1144 -0.1855  0.0901
 4547W        W 8291   7.856   3.599   0.099 -0.1627 -0.2434  0.3516
 4548W        W 8292   1.300   2.824  11.779  0.0889 -0.2054 -0.3296
 4549W        W 8293   1.727   4.148  11.053 -0.0072 -0.3482  0.2141
 4550W        W 8294   3.874   5.177   2.440  0.1305 -0.1984 -0.1233
 4551W        W 8295   1.687   6.954   3.025  0.1629 -0.2569  0.2581
 4552W        W 8296   2.226   3.184   5.128  0.1890 -0.2315  0.0128
 4553W        W 8297   9.184   7.127   1.168 -0.1106 -0.5362  0.1781
 4554W        W 8298   4.598   0.970   3.001 -0.1522  0.0987  0.0818
 4555W        W 8299   8.420   4.115  11.544  0.1089  0.3942  0.1930
 4556W        W 8300   2.264   1.213   2.605  0.0907  0.1064 -0.2221
 4557W        W 8301   1.677   8.847   1.150 -0.1944  0.1705  0.3103
 4558W        W 8302   2.699   8.069   0.461 -0.3593  0.0476  0.3471
 4559W        W 8303   2.774   9.076   1.210 -0.0379  0.1334 -0.1373
 4560W        W 8304   3.317   6.969   2.641  0.2267 -0.0283  0.1671
 4561W        W 8305   7.208   8.634  11.811  0.1853  0.1343  0.2234
 4562W        W 8306   7.222   2.798  10.025  0.0976 -0.1326  0.0156
 4563W        W 8307   5.908   4.040   2.071 -0.1916 -0.3296 -0.2255
 4564W        W 8308   8.424   4.620   0.772 -0.2767 -0.2392  0.6039
 4565W        W 8309   1.342   4.244   3.317 -0.0663  0.2046  0.0664
 4566W        W 8310   9.439   3.408  11.611 -0.0978  0.0064  0.1743
 4567W        W 8311   4.305   8.824   4.433 -0.2001 -0.0108 -0.0376
 4568W        W 8312   7.076   4.494   2.415  0.1085 -0.2144 -0.3616
 4569W        W 8313   2.757   2.076   0.448 -0.3115  0.1207 -0.0281
 4570W        W 8314   5.260   1.315   3.834 -0.0153  0.1909  0.0465
 4571W        W 8315   1.482   5.479  11.433 -0.3550 -0.1988  0.4389
 4572W        W 8316   8.166   8.136  10.016 -0.0285 -0.1861  0.2334
 4573W        W 8317   7.862   1.712  12.367 -0.1341  0.0093  0.3408
 4574W        W 8318   7.937   4.399   0.473 -0.0982  0.3236 -0.0993
 4575W        W 8319   3.372   4.542  11.159 -0.3577 -0.0707 -0.1222
 4576W        W 8320   2.914   5.718   0.975 -0.1172 -0.0113  0.1919
 4577W        W 8321   0.284   0.845   1.668 -0.0203 -0.0689  0.0073
 4578W        W 8322   1.232   6.982  12.083  0.1498 -0.1173 -0.0150
 4579W        W 8323   3.243   6.636   1.274 -0.0312  0.5459  0.4787
 4580W        W 8324   2.875   4.335   8.875 -0.0954  0.1682 -0.0334
 4581W        W 8325   4.221   2.959  11.269 -0.3060 -0.0484 -0.1270
 4582W        W 8326   5.537   5.084   0.792  0.1269  0.0774 -0.0429
 4583W        W 8327   4.321   8.560   0.691 -0.0926 -0.0017  0.2453
 4584W        W 8328   9.641   8.710   2.179  0.0732 -0.1673  0.2054
 4585W        W 8329   3.919   7.354   1.304  0.0555 -0.0016  0.0716
 4586W        W 8330   8.113   1.684   3.263 -0.0751 -0.1356  0.0925
 4587W        W 8331   0.245   9.619   0.717  0.1266  0.1549 -0.0766
 4588W        W 8332   3.015   1.485   7.973  0.1000 -0.0549 -0.1438
 4589W        W 8333   3.533   8.557   4.720  0.0806 -0.0239 -0.1353
 4590W        W 8334   2.357   1.465   9.017  0.0113 -0.1070 -0.0683
 4591W        W 8335   4.052   2.216   3.590 -0.0246 -0.0434 -0.1689
 4592W        W 8336   3.101   5.945   9.848  0.1573  0.3575  0.1514
 4593W        W 8337   9.605   2.041   9.910 -0.0083 -0.2415 -0.1129
 4594W        W 8338   0.217   6.384   1.482  0.1007 -0.0153 -0.1780
 4595W        W 8339   3.376   5.750   4.622 -0.0678  0.1136  0.3857
 4596W        W 8340   2.675   5.932   0.028  0.0696 -0.1814 -0.0090
 4597W        W 8341   3.700   4.788   1.561 -0.1241  0.1712  0.0041
 4598W        W 8342   0.299   5.396   1.182 -0.0400 -0.1458 -0.3911
 4599W        W 8343   3.199   1.842   3.477 -0.0214  0.1472 -0.2007
 4600W        W 8344   3.383   8.553   1.783 -0.2463  0.2708 -0.1382
 4601W        W 8345   7.094   6.067   4.386  0.0588  0.1320  0.3304
 4602W        W 8346   7.747   0.814   0.644 -0.0801 -0.0612 -0.2089
 4603W        W 8347   0.795   9.426   2.740 -0.0441 -0.1776  0.5273
 4604W        W 8348   2.703   6.372   8.824 -0.2557  0.0419 -0.0171
 4605W        W 8349   0.137   5.814  10.186  0.1252  0.1391 -0.0023
 4606W        W 8350   5.927   7.395   9.665 -0.1758  0.0371  0.3326
 4607W        W 8351   0.996   8.561   1.088  0.1557 -0.3592 -0.0727
 4608W        W 8352   2.314   7.843   1.369 -0.1594 -0.2879  0.0058
 4609W        W 8353   9.394   1.122   3.952 -0.0113  0.1658 -0.0854
 4610W        W 8354   7.678   2.047   0.871  0.0039  0.0404 -0.0274
 4611W        W 8355   1.492   9.154   9.154  0.2196  0.2819  0.0207
 4612W        W 8356   2.044   3.655  12.223  0.1599 -0.0446  0.0076
 4613W        W 8357   2.986   8.017   4.218  0.2411 -0.0527 -0.1946
 4614W        W 8358   2.766   9.192  10.661 -0.0561  0.1187 -0.1169
 4615W        W 8359   3.166   9.576  11.005 -0.1810  0.1922 -0.5062
 4616W        W 8360   6.530   5.468  11.250 -0.4826 -0.0854  0.1839
 4617W        W 8361   5.516   1.969  12.275 -0.3108  0.0456 -0.3231
 4618W        W 8362   1.335   1.262  10.004  0.0980 -0.1925 -0.2188
 4619W        W 8363   9.224   8.074  11.260 -0.1263 -0.2796  0.0206
 4620W        W 8364   1.413   6.797   0.118  0.0009  0.1796  0.0431
 4621W        W 8365   8.726   1.598  12.135 -0.3344  0.0687  0.0601
 4622W        W 8366   4.650   9.169  10.319  0.0746 -0.3125  0.1490
 4623W        W 8367   9.386   7.703   9.102  0.3282  0.3575  0.4071
 4624W        W 8368   5.973   9.204  11.355 -0.0192  0.1710  0.1066
 4625W        W 8369   0.928   0.451   9.602  0.1244  0.0526  0.2699
 4626W        W 8370   1.374   1.328   2.737 -0.1826 -0.1398  0.0942
 4627W        W 8371   9.380   9.145   2.730 -0.1825  0.1962 -0.0427
 4628W        W 8372   3.003   2.838   0.490 -0.1346 -0.0362  0.2871
 4629W        W 8373   4.128   4.661  12.812  0.0912 -0.2228  0.1674
 4630W        W 8374   3.949   6.072   1.615 -0.1118  0.0251  0.1512
 4631W        W 8375   3.586   0.998   0.788  0.1100 -0.1408 -0.0226
 4632W        W 8376   6.245   9.336   0.217  0.0376 -0.1947 -0.1723
 4633W        W 8377   7.195   4.188  12.801 -0.0165 -0.0416  0.1379
 4634W        W 8378   4.262   3.818   4.837  0.1465  0.1243 -0.3614
 4635W        W 8379   1.161   1.620   2.124  0.1822  0.0328  0.0522
 4636W        W 8380   2.654   5.522   0.497 -0.1822 -0.0771  0.2665
 4637W        W 8381   7.832   1.233  11.159  0.0482 -0.2511 -0.4277
 4638W        W 8382   6.309   7.112   1.502 -0.0189 -0.0226  0.1121
 4639W        W 8383   7.808   1.635  10.898 -0.2447 -0.1022  0.0338
 4640W        W 8384   5.521   7.182  12.177  0.2152  0.0831 -0.0580
 4641W        W 8385   6.784   1.002   9.961 -0.1318  0.2078  0.0622
 4642W        W 8386   8.096   4.967   9.029 -0.3613 -0.2863 -0.0900
 4643W        W 8387   7.805   7.080   7.999 -0.1632  0.0316  0.2344
 4644W        W 8388   0.651   7.571   4.140 -0.1109  0.2743 -0.2933
 4645W        W 8389   6.532   4.552   1.519  0.3216  0.1171 -0.1880
 4646W        W 8390   9.309   7.123  10.831 -0.0859 -0.0190  0.1365
 4647W        W 8391   7.137   0.334  10.434  0.0319  0.2833  0.1096
 4648W        W 8392   9.068   0.680   8.980 -0.3564  0.0042 -0.0072
 4649W        W 8393   3.837   9.755   1.215 -0.1062 -0.0758  0.2672
 4650W        W 8394   1.776   7.531   0.769  0.1509  0.2445  0.3051
 4651W        W 8395   5.543   1.863   4.061  0.0202 -0.2098  0.0976
 4652W        W 8396   7.356   1.441  11.134 -0.0317 -0.0194 -0.0986
 4653W        W 8397   8.026   3.888   9.384 -0.0430  0.0532  0.1080
 4654W        W 8398   1.994   2.683   2.173  0.0360 -0.0613  0.1502
 4655W        W 8399   2.747   7.347  11.961  0.1799 -0.0565  0.1892
 4656W        W 8400   4.647   2.894   9.830  0.1364  0.4849 -0.2016
 4657W        W 8401   3.305   6.109   2.990 -0.0987 -0.0597 -0.1695
 4658W        W 8402   9.043   1.319  11.443  0.0259 -0.0793 -0.1551
 4659W        W 8403   4.802   3.140  10.414 -0.0451 -0.2243  0.0910
 4660W        W 8404   9.680   5.218  11.564  0.0130 -0.1125 -0.4357
 4661W        W 8405   0.858   7.314   2.350  0.2328 -0.1564 -0.0610
 4662W        W 8406   0.764   6.480  11.582 -0.2527 -0.0297  0.1173
 4663W        W 8407   2.723   5.061  12.160  0.0111 -0.0692  0.0415
 4664W        W 8408   9.772   6.057   1.628  0.1039  0.2038 -0.1351
 4665W        W 8409   0.967   8.877  12.166 -0.3625 -0.1736  0.0387
 4666W        W 8410   8.191   7.462   9.000  0.2176  0.0491  0.0847
 4667W        W 8411   5.078   3.517   2.436 -0.1315 -0.1007 -0.2799
 4668W        W 8412   6.678   4.064  11.563 -0.1348 -0.1498 -0.0172
 4669W        W 8413   0.370   1.500   4.367 -0.1977  0.1281 -0.2209
 4670W        W 8414   1.782   6.195   4.059 -0.1745  0.0088  0.0791
 4671W        W 8415   5.367   1.470   4.341  0.1363  0.1386  0.0680
 4672W        W 8416   7.586   4.622   2.429  0.0181  0.1528  0.1209
 4673W        W 8417   7.584   8.187  11.314 -0.3450  0.0344 -0.0047
 4674W        W 8418   0.891   6.348   2.885  0.0824 -0.3667  0.1481
 4675W        W 8419   8.176   0.886   1.573 -0.0712 -0.1616 -0.2914
 4676W        W 8420   9.225   9.048  11.600  0.1239 -0.0925  0.1463
 4677W        W 8421   3.285   9.758   2.838  0.1342  0.3938  0.4030
 4678W        W 8422   3.688   7.810  10.927  0.2243 -0.1673 -0.2332
 4679W        W 8423   5.941   4.313  10.827  0.4159 -0.0653  0.1778
 4680W        W 8424   0.539   9.760   4.914  0.1322  0.3100 -0.0409
 4681W        W 8425   2.415   6.641  11.366 -0.0152  0.0662  0.3550
 4682W        W 8426   8.642   7.235   3.533  0.1125  0.3326  0.0967
 4683W        W 8427   5.673   6.700  11.731 -0.2587 -0.0254 -0.0383
 4684W        W 8428   5.592   7.497  11.253 -0.1998 -0.2452  0.1277
 4685W        W 8429   0.489   8.508   2.644  0.0693  0.0539  0.2169
 4686W        W 8430   6.609   7.494   9.189  0.3225  0.3719 -0.0687
 4687W        W 8431   8.175   6.524   2.952  0.3024 -0.2653  0.2583
 4688W        W 8432   1.851   8.600  10.947  0.4348  0.1485  0.2384
 4689W        W 8433   9.788   2.095   0.722 -0.1616 -0.0028 -0.3603
 4690W        W 8434   9.378   1.896   1.158  0.1109 -0.2545 -0.2040
 4691W        W 8435   2.896   2.399   4.229  0.2066 -0.0786 -0.3837
 4692W        W 8436   0.166   1.306   1.927  0.0315 -0.1391  0.2535
 4693W        W 8437   9.678   7.970   2.639 -0.0568  0.0601  0.1086
 4694W        W 8438   9.462   1.481  10.966  0.3624 -0.3323  0.0864
 4695W        W 8439   0.880   8.126   3.250  0.1069 -0.4806 -0.3187
 4696W        W 8440   0.965   0.397   0.844 -0.2689  0.2068 -0.4157
 4697W        W 8441   6.837   3.064  10.164  0.2274  0.0069 -0.0801
 4698W        W 8442   9.672   9.627   1.933  0.1283  0.0615 -0.1627
 4699W        W 8443   4.192   6.109  12.384 -0.1555  0.0359  0.0371
 4700W        W 8444   9.047   5.806   1.388 -0.0840 -0.0057  0.1433
 4701W        W 8445   4.179   3.675   3.537 -0.1692 -0.1690  0.0253
 4702W        W 8446   4.528   2.451   3.612  0.2645 -0.1409  0.1086
 4703W        W 8447   5.815   7.964   9.668 -0.0532 -0.0120  0.1988
 4704W        W 8448   1.703   3.595   8.775  0.3438  0.0816  0.2805
 4705W        W 8449   9.422   1.041   8.626  0.1268 -0.1802 -0.0189
 4706W        W 8450   2.427   8.375  11.670  0.0728  0.0628 -0.0477
 4707W        W 8451   5.557   5.961   2.160  0.1354  0.1593  0.0212
 4708W        W 8452   2.080   1.267   4.138  0.0608  0.4459  0.1543
 4709W        W 8453   1.529   9.357  10.380  0.1892 -0.0201  0.3800
 4710W        W 8454   2.628   8.567   1.254  0.0697  0.0166  0.2962
 4711W        W 8455   3.913   7.609   4.718 -0.2708  0.0980 -0.1810
 4712W        W 8456   9.732   3.664  12.011 -0.5520  0.2519  0.4348
 4713W        W 8457   7.219   9.226   3.143 -0.0368  0.0746 -0.2597
 4714W        W 8458   4.512   7.275   0.595  0.3110 -0.0278 -0.1022
 4715W        W 8459   0.990   2.086   3.879  0.0046  0.2293 -0.1805
 4716W        W 8460   1.957   4.043   8.960  0.0231  0.0136 -0.0336
 4717W        W 8461   8.788   2.183   1.894 -0.1701  0.3939 -0.0323
 4718W        W 8462   3.565   8.449   9.286 -0.0136  0.1249  0.0839
 4719W        W 8463   4.235   4.046   9.698  0.0881 -0.3860  0.0722
 4720W        W 8464   9.579   4.607   4.263  0.0432 -0.2079  0.0958
 4721W        W 8465   1.127   3.317   3.184  0.1648 -0.1002 -0.2285
 4722W        W 8466   7.216   6.817  10.413 -0.1760 -0.2971  0.2616
 4723W        W 8467   1.243   5.521  12.976 -0.1817  0.0271 -0.1535
 4724W        W 8468   5.860   4.678   3.644 -0.1886  0.0265 -0.0627
 4725W        W 8469   8.931   5.880   2.449 -0.4765  0.0630 -0.1148
 4726W        W 8470   5.395   8.432   2.010  0.1040 -0.1115 -0.0297
 4727W        W 8471   3.529   6.787   3.513 -0.1342  0.2986 -0.0267
 4728W        W 8472   5.208   3.648   9.690 -0.0011  0.1723 -0.3626
 4729W        W 8473   7.875   4.794  10.042  0.0196  0.2042 -0.0250
 4730W        W 8474   0.021   0.235  10.793 -0.0668 -0.1399  0.1026
 4731W        W 8475   4.560   9.619  12.362  0.1378 -0.1887  0.2886
 4732W        W 8476   0.130   0.357   9.748 -0.0565 -0.1444  0.0879
 4733W        W 8477   5.027   9.541   4.464  0.0878  0.1606 -0.0722
 4734W        W 8478   4.725   4.829   8.675  0.1027  0.0041  0.2390
 4735W        W 8479   6.934   6.293   0.103 -0.0633 -0.1080 -0.1201
 4736W        W 8480   0.887   7.386  12.340 -0.3270 -0.1333  0.0995
 4737W        W 8481   7.378   9.672   2.314  0.0318  0.0303  0.1679
 4738W        W 8482   4.777   6.079   2.927 -0.0445  0.2387  0.0683
 4739W        W 8483   8.125   4.273   1.041  0.2160  0.1593 -0.2011
 4740W        W 8484   5.010   9.175   9.396 -0.3201 -0.1360 -0.0759
 4741W        W 8485   6.242   9.600  11.215 -0.0399 -0.0845 -0.1679
 4742W        W 8486   6.847   2.545   1.301  0.1227  0.4596 -0.0366
 4743W        W 8487   4.822   6.200   0.940 -0.0953 -0.1068  0.0139
 4744W        W 8488   6.873   3.670  11.852  0.1354 -0.2879 -0.2091
 4745W        W 8489   5.051   3.074  10.924 -0.2855  0.0138 -0.1685
 4746W        W 8490   7.772   3.154  11.625 -0.4424 -0.1858  0.0066
 4747W        W 8491   1.811   4.033   2.276 -0.1064  0.2583 -0.5152
 4748W        W 8492   7.840   6.255   3.252 -0.1684  0.1066  0.1236
 4749W        W 8493   3.047   6.122   1.267 -0.1886  0.1780 -0.0434
 4750W        W 8494   6.244   5.417   0.989 -0.1723 -0.0105 -0.0774
 4751W        W 8495   0.423   5.485  12.523  0.0428  0.2093 -0.1967
 4752W        W 8496   1.692   8.900   2.147 -0.0720  0.0484 -0.0588
 4753W        W 8497   5.425   4.299  11.155  0.0230 -0.0227 -0.0606
 4754W        W 8498   1.075   1.601  11.210 -0.1664  0.3184  0.0439
 4755W        W 8499   2.674   2.060  12.977  0.0417  0.1660  0.5718
 4756W        W 8500   2.245   2.184  11.026  0.2907  0.0559  0.1671
 4757W        W 8501   8.765   7.453  11.813 -0.1762  0.0400  0.1194
 4758W        W 8502   0.186   4.808   2.228  0.1413 -0.4294  0.0304
 4759W        W 8503   8.450   0.413   0.450  0.1502 -0.2250 -0.1056
 4760W        W 8504   3.982   1.255  12.458  0.3154 -0.2607  0.1218
 4761W        W 8505   2.538   7.799   9.235  0.2136 -0.1069 -0.1101
 4762W        W 8506   4.408   2.359  12.223 -0.0328 -0.2015 -0.0612
 4763W        W 8507   8.756   5.367   3.753 -0.0658 -0.0803 -0.1658
 4764W        W 8508   6.292   4.579   3.854 -0.1321  0.2358  0.1090
 4765W        W 8509   7.672   8.022  11.871  0.2783  0.1664 -0.2606
 4766W        W 8510   9.273   8.178   2.836 -0.0709  0.2643  0.1142
 4767W        W 8511   7.553   3.526  11.289 -0.0162 -0.0180 -0.0345
 4768W        W 8512   0.711   0.464   3.411 -0.3487  0.2428  0.0840
 4769W        W 8513   6.473   6.944   0.612  0.0377 -0.2683  0.0848
 4770W        W 8514   8.191   4.915   2.247 -0.0463  0.1833 -0.0874
 4771W        W 8515   3.489   5.312   3.252  0.0023  0.1151 -0.1048
 4772W        W 8516   1.838   4.383   1.851  0.1111 -0.1337 -0.1604
 4773W        W 8517   6.525   4.679   2.281 -0.1822  0.1768 -0.1788
 4774W        W 8518   3.332   2.572   3.375 -0.1199  0.0126 -0.1213
 4775W        W 8519   2.929   1.793  12.195  0.1625 -0.1455 -0.2123
 4776W        W 8520   8.554   5.776   9.914  0.2897  0.0720  0.5164
 4777W        W 8521   9.252   6.468  10.850  0.1183 -0.2979  0.0609
 4778W        W 8522   4.143   4.118   2.995 -0.1126  0.0489  0.1894
 4779W        W 8523   9.586   2.340   2.855  0.1598 -0.1925  0.0258
 4780W        W 8524   2.613   9.825   8.721  0.1132  0.3549 -0.2320
 4781W        W 8525   3.095   3.924  10.050  0.1443 -0.0396 -0.2369
 4782W        W 8526   7.442   2.369   2.580 -0.1774 -0.2120 -0.2364
 4783W        W 8527   2.873   7.550   3.594  0.0115  0.1499  0.2376
 4784W        W 8528   2.293   1.414   0.787  0.0613 -0.1440  0.2383
 4785W        W 8529   3.293   2.914   2.595  0.1100 -0.1057  0.3983
 4786W        W 8530   5.756   4.091  12.791 -0.0640  0.0394 -0.2680
 4787W        W 8531   0.585   6.980  10.846 -0.2817 -0.2364  0.1358
 4788W        W 8532   7.077   9.580   3.684  0.0550 -0.0210  0.2680
 4789W        W 8533   0.887   1.905  11.629  0.2594  0.1789 -0.4803
 4790W        W 8534   5.571   0.088   3.661 -0.1069  0.0979  0.1646
 4791W        W 8535   3.668   1.355   9.074  0.1533 -0.0750  0.0234
 4792W        W 8536   9.864   2.352  11.911 -0.0208 -0.1680  0.3025
 4793W        W 8537   4.536   1.021   1.962 -0.0202  0.2644 -0.1304
 4794W        W 8538   5.551   7.056   2.343  0.2646 -0.0975  0.0081
 4795W        W 8539   1.443   4.787   2.746 -0.4229 -0.1239  0.1280
 4796W        W 8540   5.876   3.283   3.337  0.0819  0.0419 -0.0167
 4797W        W 8541   3.772   0.273   2.184  0.5002  0.1029 -0.0927
 4798W        W 8542   6.979   9.321  10.941  0.3642 -0.1453  0.2602
 4799W        W 8543   1.053   5.035  11.729 -0.0079  0.0549 -0.2088
 4800W        W 8544   9.171   6.700   8.669 -0.2059  0.2699 -0.2426
 4801W        W 8545   5.230   6.315   1.936 -0.0042  0.4738  0.1119
 4802W        W 8546   8.504   1.481  12.541 -0.3333  0.0596  0.1637
 4803W        W 8547   1.946   3.119  12.902 -0.1458 -0.0649 -0.1330
 4804W        W 8548   3.458   5.350   0.951 -0.0090 -0.1051 -0.1097
 4805W        W 8549   0.239   4.085   4.539 -0.0569  0.1946  0.1000
 4806W        W 8550   6.919   5.618   3.729  0.1444  0.0203  0.1423
 4807W        W 8551   6.413   7.196   1.066 -0.1199 -0.0768  0.1024
 4808W        W 8552   1.261   8.243   0.785  0.1393 -0.1110  0.0022
 4809W        W 8553   1.981   6.302  11.958  0.2174  0.1114 -0.0439
 4810W        W 8554   6.688   5.764  11.806 -0.1898  0.1284 -0.1708
 4811W        W 8555   6.136   2.783   0.059  0.1516 -0.4236 -0.0713
 4812W        W 8556   5.903   3.776   1.632  0.1192  0.0218  0.0267
 4813W        W 8557   7.236   1.337  12.138  0.0769  0.0326 -0.0406
 4814W        W 8558   4.999   0.632   2.229  0.2602 -0.1130 -0.0062
 4815W        W 8559   4.848   8.692   4.276  0.0378  0.0351  0.0220
 4816W        W 8560   3.043   2.663   2.971  0.2092  0.2658  0.0156
 4817W        W 8561   4.399   9.450  11.025  0.0334 -0.0232 -0.0728
 4818W        W 8562   2.558   7.327  12.498 -0.3068  0.0799  0.1221
 4819W        W 8563   2.335   9.360   0.248  0.0080  0.3378 -0.0851
 4820W        W 8564   5.110   7.376   2.574 -0.1802 -0.0412 -0.2171
 4821W        W 8565   7.832   6.442   3.744 -0.1736  0.5179 -0.0189
 4822W        W 8566   7.156   3.926  10.829  0.1264  0.1613 -0.2471
 4823W        W 8567   5.118   5.210   3.311 -0.2077  0.1078 -0.0727
 4824W        W 8568   5.231   1.574  11.457 -0.1588 -0.0306  0.0506
 4825W        W 8569   4.241   5.890  10.124 -0.0272  0.0421 -0.1215
 4826W        W 8570   3.275   4.880   0.288 -0.2453 -0.2167  0.1200
 4827W        W 8571   1.533   8.990  11.254  0.3684  0.2463 -0.0058
 4828W        W 8572   9.594   4.698   9.119  0.2809 -0.0869  0.0556
 4829W        W 8573   2.964   7.061   1.203 -0.1673  0.1168  0.3199
 4830W        W 8574   8.770   9.798  10.020 -0.0804 -0.1432 -0.0190
 4831W        W 8575   7.228   6.556   2.635 -0.2847  0.1699 -0.2980
 4832W        W 8576   8.490   8.033  12.920 -0.2256 -0.0354 -0.2305
 4833W        W 8577   8.835   8.118   1.068  0.2326  0.2937  0.1895
 4834W        W 8578   9.025   3.576   4.020 -0.3252 -0.1886 -0.0484
 4835W        W 8579   6.382   2.135  11.324  0.2132 -0.0601 -0.3248
 4836W        W 8580   9.821   2.998   2.294  0.0209  0.0679  0.1804
 4837W        W 8581   6.761   3.719   1.127 -0.2317 -0.4619  0.0505
 4838W        W 8582   1.376   4.524  12.760 -0.3605  0.0277 -0.3966
 4839W        W 8583   2.382   4.302   4.016 -0.0120  0.0211  0.1809
 4840W        W 8584   8.840   7.548   0.499 -0.1699  0.1079  0.0294
 4841W        W 8585   5.978   0.140  11.092 -0.0544 -0.2921 -0.2218
 4842W        W 8586   8.171   3.013  10.099  0.0209  0.0583 -0.1635
 4843W        W 8587   6.281   2.528   1.972  0.0945 -0.1219 -0.0791
 4844W        W 8588   3.413   8.443   3.406  0.0916  0.1355  0.1220
 4845W        W 8589   0.270   2.049  11.156  0.2246 -0.1283 -0.0856
 4846W        W 8590   8.394   0.078   9.578  0.3081  0.2039  0.1242
 4847W        W 8591   4.618   2.273  10.629 -0.4569  0.5174  0.1934
 4848W        W 8592   5.210   2.020   4.474  0.4206 -0.0777  0.1021
 4849W        W 8593   5.899   4.831  11.078  0.3093  0.1863  0.1809
 4850W        W 8594   7.358   1.948  11.004 -0.0453  0.0855 -0.1021
 4851W        W 8595   3.062   0.717   3.031 -0.0610  0.2792 -0.1786
 4852W        W 8596   1.870   4.514  12.133 -0.0393 -0.3452 -0.1131
 4853W        W 8597   8.718   3.186  12.723  0.1329  0.0066  0.0216
 4854W        W 8598   5.136   6.684   3.505 -0.2819  0.0142 -0.0456
 4855W        W 8599   9.284   5.692   3.747  0.0617 -0.1625  0.0157
 4856W        W 8600   4.220   2.975   9.515  0.2407  0.3035 -0.3605
 4857W        W 8601   7.526   2.951   3.344 -0.2567  0.0668 -0.1362
 4858W        W 8602   2.874   0.731   9.727  0.0783 -0.0298 -0.2820
 4859W        W 8603   0.270   6.184   0.465  0.2230 -0.2803  0.0442
 4860W        W 8604   7.279   9.110   3.694  0.1714 -0.1100  0.2597
 4861W        W 8605   4.144   7.678   0.950  0.0840 -0.1852 -0.1490
 4862W        W 8606   4.802   2.990  12.605 -0.1499 -0.3203  0.1895
 4863W        W 8607   6.351   2.520   1.486 -0.4430  0.0264 -0.3826
 4864W        W 8608   4.599   8.044   3.605 -0.2104  0.0729  0.2368
 4865W        W 8609   5.416   4.093   9.758 -0.1781  0.1155 -0.1111
 4866W        W 8610   2.804   8.991   4.271  0.2841  0.1478 -0.0606
 4867W        W 8611   7.654   5.525   1.941  0.1060 -0.0351  0.3809
 4868W        W 8612   3.575   9.320   0.327  0.3966 -0.3016  0.2152
 4869W        W 8613   2.064   4.774   2.776 -0.2624 -0.1606 -0.1078
 4870W        W 8614   1.349   9.156  10.796 -0.1076 -0.3771  0.1524
 4871W        W 8615   5.789   0.200   2.729 -0.0494  0.2169 -0.3668
 4872W        W 8616   8.845   0.203  10.939  0.0460 -0.3795 -0.1322
 4873W        W 8617   7.991   8.286  10.564  0.0603 -0.0202 -0.1292
 4874W        W 8618   7.146   2.831  12.387 -0.0187  0.0424  0.1301
 4875W        W 8619   5.672   9.619  11.964 -0.1317 -0.0869  0.1249
 4876W        W 8620   3.669   9.340   2.826 -0.1303 -0.3741  0.3384
 4877W        W 8621   1.223   9.264   2.889  0.1348 -0.2348 -0.0798
 4878W        W 8622   7.427   6.365   0.095 -0.3258  0.1236  0.1072
 4879W        W 8623   6.696   6.932  10.641 -0.0646 -0.1139  0.0447
 4880W        W 8624   6.693   6.311   1.008 -0.0720 -0.2047  0.0759
 4881W        W 8625   9.632   0.561   0.753  0.0394  0.2151  0.0216
 4882W        W 8626   4.956   9.610  12.778 -0.0214  0.1485  0.1531
 4883W        W 8627   6.494   0.007   2.210 -0.4653  0.0504 -0.1685
 4884W        W 8628   2.636   7.919   1.965  0.1342 -0.0416  0.0102
 4885W        W 8629   6.890   7.554   3.975 -0.1228 -0.1239  0.0370
 4886W        W 8630   0.546   1.645  10.306  0.1732 -0.1219 -0.0449
 4887W        W 8631   2.633   2.106  10.730 -0.1435 -0.0761  0.1957
 4888W        W 8632   5.356   2.764   1.307 -0.0305 -0.0641 -0.0716
 4889W        W 8633   0.581   0.040  10.481 -0.3807  0.0461  0.0239
 4890W        W 8634   0.719   3.204   0.968 -0.1376  0.1960 -0.0899
 4891W        W 8635   1.948   0.325  10.222 -0.5217 -0.0977  0.2662
 4892W        W 8636   5.184   2.007   0.776  0.2887 -0.1560 -0.0614
 4893W        W 8637   9.268   8.167  12.813 -0.0489  0.4257  0.2744
 4894W        W 8638   6.176   5.020   2.312 -0.1846  0.0244 -0.0727
 4895W        W 8639   9.143   5.491   2.802 -0.0278 -0.3258 -0.0197
 4896W        W 8640   3.994   8.593   9.114  0.1846  0.1381 -0.0724
 4897W        W 8641   1.920   2.007   3.840 -0.2565  0.1206 -0.1066
 4898W        W 8642   2.122   2.756  12.517 -0.1835 -0.0532  0.1357
 4899W        W 8643   6.867   8.894   3.879 -0.0297 -0.2196 -0.2336
 4900W        W 8644   6.779   7.020   1.409 -0.1587  0.0134 -0.0641
 4901W        W 8645   2.849   0.593   2.564 -0.0100 -0.2617 -0.3241
 4902W        W 8646   8.901   0.872   0.158  0.0031  0.0068 -0.0790
 4903W        W 8647   1.550   4.562   9.969 -0.0231  0.0319  0.0473
 4904W        W 8648   7.691   1.564  12.973 -0.0920  0.0498  0.1091
 4905W        W 8649   5.937   0.107  10.557 -0.2327 -0.1977 -0.0473
 4906W        W 8650   5.623   6.051   1.335 -0.0504  0.0204  0.0769
 4907W        W 8651   3.937   9.813  10.243  0.2881  0.2102  0.6791
 4908W        W 8652   5.140   3.038  12.207 -0.2658 -0.2010 -0.1029
 4909W        W 8653   9.337   0.150   0.653 -0.2342 -0.0516  0.0534
 4910W        W 8654   2.794   3.607   2.077 -0.1974 -0.0517  0.0108
 4911W        W 8655   1.107   3.745   0.137  0.1374  0.1634 -0.1803
 4912W        W 8656   9.447   1.207  12.499  0.1770  0.0342 -0.0457
 4913W        W 8657   5.354   4.959   1.447  0.3246  0.0512  0.2139
 4914W        W 8658   0.552   6.228   7.910 -0.1167 -0.2332  0.1380
 4915W        W 8659   5.947   5.867   3.509 -0.1329  0.3755  0.1115
 4916W        W 8660   5.447   2.281  10.855 -0.4144  0.1898  0.3255
 4917W        W 8661   4.304   6.465   9.334  0.1028  0.0795 -0.0187
 4918W        W 8662   6.560   4.174   3.998 -0.3654  0.0442  0.0348
 4919W        W 8663   2.406   9.133   9.371 -0.2622  0.0319 -0.0113
 4920W        W 8664   4.955   1.625  10.981  0.2255  0.0785  0.1238
 4921W        W 8665   9.281   5.758   0.013 -0.2066 -0.2604 -0.1520
 4922W        W 8666   2.133   0.250  11.911  0.1427 -0.2939 -0.1347
 4923W        W 8667   9.406   7.201   4.761  0.2090 -0.3683 -0.0283
 4924W        W 8668   8.946   8.507   4.549  0.5172  0.1723  0.0269
 4925W        W 8669   8.864   7.497   8.103  0.0739  0.1939 -0.1916
 4926W        W 8670   7.768   2.910   1.394  0.2841 -0.4750 -0.0166
 4927W        W 8671   1.665   3.597   0.281 -0.0753  0.3313 -0.0990
 4928W        W 8672   5.550   9.246  12.251  0.1070  0.0251  0.0452
 4929W        W 8673   1.588   6.681   3.489  0.2613  0.1278 -0.0474
 4930W        W 8674   4.465   9.233   2.795 -0.1444  0.1202 -0.2645
 4931W        W 8675   7.565   0.885   2.631  0.0578  0.1059 -0.0068
 4932W        W 8676   4.094   0.294   1.370 -0.2611  0.0784  0.0032
 4933W        W 8677   9.030   0.219   0.042 -0.0960 -0.0877  0.1830
 4934W        W 8678   1.482   2.815   9.934  0.0268 -0.4771  0.0024
 4935W        W 8679   0.758   9.167   4.282 -0.2938 -0.1514  0.0244
 4936W        W 8680   1.180   0.077   4.402 -0.1629 -0.0406  0.4678
 4937W        W 8681   9.447   2.745   2.509 -0.0846 -0.0797  0.1135
 4938W        W 8682   8.963   4.438   0.168 -0.0537 -0.0467  0.2912
 4939W        W 8683   9.492   7.501   4.409  0.0890 -0.0217  0.3282
 4940W        W 8684   4.496   3.297   9.276 -0.0249 -0.2271 -0.0813
 4941W        W 8685   3.103   9.237   2.866  0.2289  0.1257 -0.1127
 4942W        W 8686   2.958   9.606  11.472  0.0988  0.0073 -0.0050
 4943W        W 8687   7.771   8.478  11.742 -0.0015 -0.0490  0.0137
 4944W        W 8688   9.480   3.139  12.098 -0.0455 -0.1850 -0.4606
 4945W        W 8689   9.136   4.090   1.095 -0.0070  0.1056 -0.1617
 4946W        W 8690   0.738   7.213   1.535 -0.3102 -0.1484  0.1062
 4947W        W 8691   4.892   0.293   1.105  0.2178  0.0649  0.1714
 4948W        W 8692   1.771   0.868   1.825  0.0579 -0.0473  0.1618
 4949W        W 8693   0.902   5.389   1.902  0.2090  0.0220 -0.2066
 4950W        W 8694   2.456   4.271  12.383 -0.0931 -0.2285 -0.0187
 4951W        W 8695   0.740   0.653  11.799  0.1221 -0.1441 -0.3691
 4952W        W 8696   8.124   1.190   3.410 -0.5900  0.1255  0.2316
 4953W        W 8697   8.164   7.440  12.712 -0.0425 -0.1159 -0.1266
 4954W        W 8698   0.537   4.941   4.324  0.1261 -0.0160  0.5717
 4955W        W 8699   4.315   7.085  10.345  0.2756  0.2005 -0.0746
 4956W        W 8700   2.469   0.492   4.427  0.1682 -0.3441  0.0999
 4957W        W 8701   8.425   1.546   9.274  0.0335 -0.3977 -0.0558
 4958W        W 8702   5.229   7.721   2.268 -0.2965  0.2438  0.1565
 4959W        W 8703   8.200   8.555   1.606 -0.1709 -0.1313 -0.0252
 4960W        W 8704   6.005   4.947   0.986  0.3133 -0.0018  0.1187
 4961W        W 8705   1.118   5.967   1.080 -0.0146  0.0491  0.3343
 4962W        W 8706   0.911   2.186   9.162  0.2284  0.1861 -0.1360
 4963W        W 8707   6.264   0.079   9.379 -0.0130  0.1523  0.3537
 4964W        W 8708   9.307   1.856   2.738  0.1309 -0.0187  0.0007
 4965W        W 8709   1.950   3.710  11.491  0.1592 -0.0497  0.0364
 4966W        W 8710   7.977   2.538   0.158 -0.6148  0.0982 -0.1317
 4967W        W 8711   5.166   9.663   3.841  0.0563 -0.1985 -0.1926
 4968W        W 8712   2.785   7.942   9.644  0.0501  0.1811 -0.2236
 4969W        W 8713   2.507   6.523  10.225 -0.0724 -0.0156 -0.2893
 4970W        W 8714   5.426   3.822  12.014 -0.0682 -0.2992 -0.0042
 4971W        W 8715   2.008   0.546   0.877  0.3968  0.2171  0.2053
 4972W        W 8716   3.545   9.318   8.690 -0.0848 -0.0021  0.1857
 4973W        W 8717   3.231   3.022   9.671  0.0564 -0.3208 -0.3218
 4974W        W 8718   0.181   0.042   0.019 -0.0879  0.1797  0.0667
 4975W        W 8719   2.828   4.971  12.735 -0.0681 -0.4553  0.0928
 4976W        W 8720   1.297   6.971  12.593  0.0230 -0.1169  0.2327
 4977W        W 8721   5.878   7.054  11.255 -0.0178  0.2753  0.2937
 4978W        W 8722   8.155   1.611   2.784  0.0779  0.0763  0.0630
 4979W        W 8723   4.118   6.032   4.208 -0.1226  0.0098 -0.2393
 4980W        W 8724   2.545   7.887  10.423 -0.2484 -0.1262  0.0307
 4981W        W 8725   3.572   3.492  12.078  0.0873  0.3149  0.4860
 4982W        W 8726   1.108   2.736   9.057  0.0453 -0.1481 -0.3499
 4983W        W 8727   1.254   6.318   9.389 -0.1846 -0.0642 -0.1260
 4984W        W 8728   6.764   0.837   1.935 -0.0018 -0.1758  0.0569
 4985W        W 8729   0.531   7.875  10.703 -0.1620 -0.0406  0.0365
 4986W        W 8730   8.037   6.403   1.025  0.1318  0.0601 -0.0206
 4987W        W 8731   8.332   9.172   9.028 -0.1032  0.0736  0.2018
 4988W        W 8732   2.372   3.787   2.280 -0.0035 -0.0482  0.0103
 4989W        W 8733   1.179   7.283   9.798  0.0892  0.0846 -0.0598
 4990W        W 8734   8.375   5.712   3.847 -0.2739 -0.1360 -0.4371
 4991W        W 8735   6.533   7.679  12.571 -0.0600  0.1547 -0.1952
 4992W        W 8736   6.686   6.102  10.211 -0.4127 -0.2448  0.1842
 4993W        W 8737   6.014   8.809  12.951 -0.0172  0.0890  0.1133
 4994W        W 8738   4.479   1.929   0.516 -0.0768  0.0464 -0.0674
 4995W        W 8739   2.245   9.834   0.196  0.2088  0.0929  0.0635
 4996W        W 8740   7.155   0.846   0.554 -0.0323 -0.0050 -0.1342
 4997W        W 8741   7.159   2.419  12.697 -0.2258  0.2421 -0.1041
 4998W        W 8742   4.219   2.694   4.881 -0.0276 -0.0842 -0.2192
 4999W        W 8743   0.262   6.089  10.575  0.3674  0.1610 -0.0754
 5000W        W 8744   5.816   9.644   0.421 -0.0563  0.0341  0.2057
 5001W        W 8745   9.043   2.991   0.734 -0.0216 -0.1605  0.1218
 5002W        W 8746   7.326   0.972  11.248  0.0264 -0.1125 -0.0404
 5003W        W 8747   6.515   5.409  10.036  0.0743 -0.1822 -0.0842
 5004W        W 8748   1.902   1.854  10.168 -0.2128  0.0926 -0.0669
 5005W        W 8749   4.083   6.798   8.987  0.5554  0.1271  0.2714
 5006W        W 8750   8.352   2.282  12.014 -0.2859  0.0493  0.1383
 5007W        W 8751   8.609   0.531   8.730  0.0359 -0.0375  0.0208
 5008W        W 8752   3.324   7.666   7.957 -0.1978  0.1084 -0.0231
 5009W        W 8753   8.029   8.377   0.493  0.1597 -0.0153 -0.1185
 5010W        W 8754   2.227   0.094   9.802 -0.1134  0.1545  0.0739
 5011W        W 8755   3.608   5.326  11.735 -0.0735  0.2750 -0.1966
 5012W        W 8756   2.024   8.895   2.887 -0.0772 -0.3637  0.1451
 5013W        W 8757   3.949   7.156   9.294  0.2158  0.0139 -0.0532
 5014W        W 8758   4.994   9.340   2.390  0.2371  0.1851 -0.2485
 5015W        W 8759   1.751   1.981   2.798 -0.0640 -0.2015  0.0107
 5016W        W 8760   6.256   8.202  11.674  0.0411 -0.1408  0.1717
 5017W        W 8761   1.229   5.728   3.759 -0.0867 -0.1842  0.0443
 5018W        W 8762   4.661   0.977   0.780  0.1916 -0.0842  0.0363
 5019W        W 8763   7.662   7.901   9.139 -0.0845 -0.1523  0.0637
 5020W        W 8764   1.949   4.262   8.511  0.0053 -0.0367  0.1217
 5021W        W 8765   4.180   6.858   9.677  0.2151  0.2691  0.0100
 5022W        W 8766   5.222   6.745  11.860  0.0257  0.3245 -0.2791
 5023W        W 8767   2.757   5.441   2.904 -0.0171  0.1729  0.0835
 5024W        W 8768   1.483   0.742  12.458 -0.1407 -0.2077 -0.2782
 5025W        W 8769   1.559   8.413  12.425 -0.1083 -0.1476  0.0674
 5026W        W 8770   7.783   0.461  11.845  0.0024 -0.1028 -0.0139
 5027W        W 8771   3.932   4.483   2.698  0.1599 -0.0660  0.3981
 5028W        W 8772   9.086   4.993   7.671  0.1443  0.2814 -0.0174
 5029W        W 8773   2.027   5.675   1.307  0.3135 -0.1787  0.0085
 5030W        W 8774   3.247   1.020   4.204  0.1362 -0.4132 -0.0482
 5031W        W 8775   4.300   7.170  12.181  0.1016 -0.2332  0.1880
 5032W        W 8776   9.433   8.270   2.320 -0.1027 -0.1804 -0.0514
 5033W        W 8777   5.607   6.959   8.330 -0.0954  0.1141 -0.0411
 5034W        W 8778   0.908   1.312  10.286  0.1976 -0.1885  0.4370
 5035W        W 8779   2.491   6.574   0.578  0.0195  0.3384 -0.0926
 5036W        W 8780   5.520   3.030   0.852 -0.0911  0.1792  0.0897
 5037W        W 8781   4.871   1.149  12.659 -0.2005  0.1061 -0.2626
 5038W        W 8782   1.941   6.787   2.097  0.1297  0.2268  0.1376
 5039W        W 8783   0.532   3.269  10.642  0.0349  0.1074  0.2890
 5040W        W 8784   6.670   8.880   2.403  0.1230  0.1587 -0.3123
 5041W        W 8785   5.119   3.276   0.725 -0.1745  0.0119 -0.3352
 5042W        W 8786   2.439   5.537  12.184  0.2552 -0.2311 -0.0394
 5043W        W 8787   7.087   8.481   2.486 -0.1215 -0.0963 -0.1012
 5044W        W 8788   0.932   4.504   3.090  0.1785  0.0661  0.2969
 5045W        W 8789   4.435   1.263   2.508  0.0046 -0.0017 -0.1606
 5046W        W 8790   3.735   9.774   2.589 -0.0462 -0.3855  0.4145
 5047W        W 8791   2.951   4.342   9.831  0.1029  0.1537 -0.2317
 5048W        W 8792   8.686   1.219  11.196 -0.1729  0.0383  0.0680
 5049W        W 8793   1.331   8.700   8.658 -0.0873 -0.0130  0.2109
 5050W        W 8794   5.530   8.012   3.140 -0.0136 -0.2799  0.0414
 5051W        W 8795   8.840   8.443   2.912  0.0915 -0.0268  0.2850
 5052W        W 8796   8.722   9.424   3.580  0.1715  0.3439 -0.0992
 5053W        W 8797   1.480   1.554  12.849  0.3613  0.0280  0.1608
 5054W        W 8798   6.422   8.059   2.057  0.1885  0.3774  0.0205
 5055W        W 8799   7.150   6.389   3.122  0.2243  0.0282 -0.2052
 5056W        W 8800   0.670   6.272   0.122 -0.2159 -0.2554 -0.1845
 5057W        W 8801   8.679   9.423   0.434  0.0482 -0.1609 -0.2654
 5058W        W 8802   3.921   8.092   2.304  0.0522 -0.1925 -0.1867
 5059W        W 8803   7.461   7.661  11.566 -0.1605 -0.0797 -0.0115
 5060W        W 8804   7.758   8.436   3.501  0.1989  0.2333 -0.0456
 5061W        W 8805   5.993   3.586   1.119 -0.3066 -0.0950 -0.0757
 5062W        W 8806   1.844   5.205   2.970  0.0652  0.3028 -0.1649
 5063W        W 8807   1.094   2.888  12.661  0.0268  0.0943 -0.0504
 5064W        W 8808   4.126   3.140  12.910 -0.3394 -0.0249 -0.1966
 5065W        W 8809   7.897   7.663   8.685  0.0547  0.0528 -0.3026
 5066W        W 8810   9.598   6.015  12.623 -0.1876 -0.2106 -0.0399
 5067W        W 8811   1.520   8.476  11.372 -0.1253  0.2209  0.1839
 5068W        W 8812   6.678   0.998  12.590  0.1371 -0.0484 -0.0905
 5069W        W 8813   3.042   7.044   7.994  0.2452 -0.1165  0.2099
 5070W        W 8814   4.733   3.511   0.502  0.1202  0.0450 -0.0869
 5071W        W 8815   3.942   8.038   1.408  0.3890  0.2864  0.0214
 5072W        W 8816   7.164   1.766   1.561 -0.1982 -0.2209 -0.1113
 5073W        W 8817   0.943   1.940   0.993 -0.0402  0.0498  0.0490
 5074W        W 8818   3.004   6.634   3.662  0.0457  0.0461 -0.7516
 5075W        W 8819   6.203   7.039   9.967  0.1190  0.1216  0.0815
 5076W        W 8820   8.319   6.470   1.897 -0.0793 -0.4094  0.0956
 5077W        W 8821   3.942   7.756   3.732  0.1704 -0.4214  0.0232
 5078W        W 8822   2.760   1.533  10.766  0.1257  0.0209  0.1657
 5079W        W 8823   7.115   0.366   1.310  0.0990 -0.2092  0.0815
 5080W        W 8824   4.414   5.052   1.621 -0.2285  0.1431  0.2193
 5081W        W 8825   6.010   6.206   4.381 -0.0981  0.0658  0.2263
 5082W        W 8826   0.027   5.754   2.589 -0.1680  0.0467 -0.0594
 5083W        W 8827   2.259   6.207   9.011  0.0028  0.0328  0.1023
 5084W        W 8828   2.607   1.938   9.229 -0.1071  0.1434  0.2530
 5085W        W 8829   5.203   1.433   1.549 -0.2228  0.0709 -0.0441
 5086W        W 8830   7.578   3.617   0.546 -0.1062  0.2894 -0.1029
 5087W        W 8831   3.265   8.331   0.385  0.4885 -0.0123 -0.0413
 5088W        W 8832   2.179   1.072   9.301 -0.1376 -0.2322 -0.0718
 5089W        W 8833   2.267   1.082   1.975 -0.0225  0.2578  0.0087
 5090W        W 8834   1.783   5.491   9.867  0.0171  0.3325  0.0476
 5091W        W 8835   9.392   2.745   0.478  0.1641  0.0377 -0.0080
 5092W        W 8836   4.477   0.980   3.628  0.4565 -0.6276  0.3809
 5093W        W 8837   6.149   3.706   0.593 -0.1788  0.0158  0.0331
 5094W        W 8838   4.506   4.745   2.762  0.0360 -0.1098 -0.0608
 5095W        W 8839   7.980   2.420   0.658  0.0129 -0.2016  0.2209
 5096W        W 8840   7.418   5.931   3.265  0.1146  0.1050 -0.2937
 5097W        W 8841   7.490   3.233   0.175  0.0798  0.0931 -0.1830
 5098W        W 8842   5.472   5.422  10.325 -0.2384 -0.0256  0.3800
 5099W        W 8843   2.394   7.029   8.291  0.0450 -0.1748 -0.1786
 5100W        W 8844   1.470   5.704   8.679  0.0391  0.0656 -0.0045
 5101W        W 8845   0.293   0.997   2.667  0.0191 -0.3229  0.1750
 5102W        W 8846   3.019   6.943  12.148 -0.0307  0.3111  0.1222
 5103W        W 8847   3.935   6.840  10.555 -0.1767 -0.1380  0.1387
 5104W        W 8848   9.167   8.942   0.891 -0.1431  0.0350  0.2072
 5105W        W 8849   4.542   4.425  10.383  0.2611  0.0158 -0.0498
 5106W        W 8850   0.695   5.058   1.560  0.1137 -0.1266 -0.0930
 5107W        W 8851   4.610   3.905   2.863 -0.1674  0.1009  0.0127
 5108W        W 8852   9.622   6.093   0.219  0.0867 -0.3603 -0.1012
 5109W        W 8853   3.990   6.396   2.136 -0.1721 -0.2476 -0.1949
 5110W        W 8854   5.323   1.554  11.993  0.0909 -0.3616 -0.0054
 5111W        W 8855   7.788   0.639  10.561  0.0626  0.0978  0.1892
 5112W        W 8856   9.189   8.646  12.479  0.4584  0.1287  0.0116
 5113W        W 8857   9.701   5.529   8.374  0.0851  0.0681 -0.0522
 5114W        W 8858   5.404   5.302   0.254 -0.3086 -0.0052  0.0165
 5115W        W 8859   9.767   1.453   3.041  0.0550 -0.3513 -0.2989
 5116W        W 8860   0.237   7.608   9.612 -0.2061 -0.1367  0.1012
 5117W        W 8861   5.649   6.762   3.631  0.0520 -0.3455 -0.1281
 5118W        W 8862   3.092   7.240  10.591  0.0503  0.0673  0.1649
 5119W        W 8863   5.255   3.757   0.519 -0.0513 -0.0787  0.2031
 5120W        W 8864   5.881   2.447   1.358  0.5464  0.1100  0.0529
 5121W        W 8865   3.195   0.074  10.732  0.1675  0.1953  0.1296
 5122W        W 8866   5.302   1.073  11.772 -0.2282 -0.0402  0.0984
 5123W        W 8867   4.910   6.251  10.142 -0.1631  0.2807 -0.0022
 5124W        W 8868   5.006   0.910   0.383  0.3728 -0.1481  0.0337
 5125W        W 8869   2.641   3.475  11.875 -0.0238 -0.0814  0.0487
 5126W        W 8870   8.519   5.900   8.756  0.2557  0.3251  0.0770
 5127W        W 8871   3.061   6.737   2.237 -0.1315 -0.0122 -0.3098
 5128W        W 8872   4.764   0.286  10.493  0.0518 -0.3488  0.2129
 5129W        W 8873   9.382   2.594  12.069 -0.2305 -0.1260 -0.1509
 5130W        W 8874   9.068   9.060   9.537 -0.1209 -0.0955  0.2643
 5131W        W 8875   7.333   7.029   0.695  0.3587  0.1787 -0.0830
 5132W        W 8876   3.929   1.616   3.097 -0.3003 -0.0254  0.0584
 5133W        W 8877   8.742   2.617  12.870 -0.0588 -0.0247 -0.1733
 5134W        W 8878   6.343   7.854  11.319 -0.3356  0.2928  0.0432
 5135W        W 8879   3.833   0.377   4.716  0.1534  0.1137  0.0528
 5136W        W 8880   5.452   7.442   3.223  0.1858 -0.1911 -0.1442
 5137W        W 8881   5.891   9.637   9.551 -0.3722 -0.1324 -0.0244
 5138W        W 8882   3.167   4.402   3.323 -0.2388 -0.0207  0.0988
 5139W        W 8883   8.039   5.834   9.781 -0.0089  0.4631 -0.0695
 5140W        W 8884   7.524   1.163   2.252 -0.2769 -0.0463  0.0012
 5141W        W 8885   7.272   3.632   1.005 -0.2076  0.0852  0.4471
 5142W        W 8886   3.195   5.785   4.084 -0.0486 -0.2182  0.0342
 5143W        W 8887   1.397   7.814   0.573  0.0102  0.1558  0.3858
 5144W        W 8888   5.903   6.433   9.130  0.2864  0.1404 -0.4110
 5145W        W 8889   2.905   2.682   2.271 -0.0182  0.1057 -0.0567
 5146W        W 8890   9.160   2.412   9.596 -0.3274 -0.2385 -0.0920
 5147W        W 8891   9.404   5.227   9.966  0.3990 -0.3974 -0.0404
 5148W        W 8892   2.851   6.332   0.317  0.0155 -0.0826 -0.2347
 5149W        W 8893   1.003   0.126   0.183  0.1921  0.2569 -0.2773
 5150W        W 8894   4.206   0.250   9.782  0.2587  0.2906 -0.2402
 5151W        W 8895   5.647   2.038   9.453  0.0259  0.3697 -0.1689
 5152W        W 8896   4.488   6.711  10.652 -0.3794  0.3045  0.1280
 5153W        W 8897   0.892   2.532   4.164  0.2118 -0.2739  0.0201
 5154W        W 8898   4.537   4.901  10.239  0.1508 -0.3003 -0.0045
 5155W        W 8899   6.858   5.635  10.713 -0.1453  0.0604 -0.1381
 5156W        W 8900   2.154   0.947   4.983  0.3354 -0.0781  0.5484
 5157W        W 8901   6.790   1.384  11.785 -0.3160 -0.0154  0.2563
 5158W        W 8902   9.423   8.819   1.317  0.1448  0.1975  0.1108
 5159W        W 8903   7.449   1.595   1.943  0.0735  0.0211 -0.2035
 5160W        W 8904   2.239   0.743   3.493 -0.0932  0.0356  0.1967
 5161W        W 8905   7.918   6.097  10.710 -0.1448  0.2644  0.1057
 5162W        W 8906   9.721   5.015  12.604 -0.4171 -0.2622 -0.0923
 5163W        W 8907   6.627   6.517   2.639 -0.1085 -0.2625 -0.2180
 5164W        W 8908   3.106   1.709   1.834  0.0633 -0.0717  0.0433
 5165W        W 8909   8.217   3.289   2.471  0.0879 -0.1184 -0.1853
 5166W        W 8910   8.266   2.555   1.131  0.4055 -0.2973  0.2288
 5167W        W 8911   7.454   6.370   4.097  0.1901  0.0738  0.0194
 5168W        W 8912   2.982   0.884   3.767  0.0106 -0.1178  0.1576
 5169W        W 8913   3.621   3.328   2.708 -0.1378  0.2305 -0.1332
 5170W        W 8914   1.394   5.913  11.053  0.2196  0.1709 -0.0999
 5171W        W 8915   3.700   7.221  10.337  0.1253 -0.1018  0.3036
 5172W        W 8916   0.877   9.689  12.421 -0.1426  0.2230 -0.1663
 5173W        W 8917   6.088   5.244  11.227  0.0506 -0.1964 -0.2426
 5174W        W 8918   6.105   9.564   2.076  0.1658 -0.0411  0.0520
 5175W        W 8919   9.854   9.543   9.396  0.0112  0.0281  0.0620
 5176W        W 8920   7.051   0.667   2.716 -0.2527  0.0726 -0.2012
 5177W        W 8921   0.981   9.457   8.472  0.0911 -0.2394 -0.0918
 5178W        W 8922   4.067   9.388  11.433  0.1654  0.2393  0.1367
 5179W        W 8923   7.871   2.924  12.556 -0.0416  0.1250 -0.2175
 5180W        W 8924   8.336   2.472   2.027  0.0985  0.1296  0.0921
 5181W        W 8925   2.629   4.026  10.258  0.1280 -0.2408 -0.1967
 5182W        W 8926   1.116   9.353  11.273 -0.0191  0.0809  0.3794
 5183W        W 8927   3.443   6.947   3.989  0.0670 -0.1535 -0.0660
 5184W        W 8928   7.173   0.517   1.817 -0.0585  0.4203  0.0413
 5185W        W 8929   7.533   5.355  11.168 -0.2661 -0.0366  0.2289
 5186W        W 8930   3.120   6.691  10.886 -0.1336 -0.0911 -0.2026
 5187W        W 8931   7.218   1.603   0.517  0.0625  0.0263  0.0515
 5188W        W 8932   9.876   7.628  12.498  0.1722  0.1157  0.1056
 5189W        W 8933   7.697   8.984   0.927 -0.3084 -0.2050 -0.0994
 5190W        W 8934   0.913   8.393  12.180  0.1916 -0.0622 -0.0948
 5191W        W 8935   0.615   8.063   8.424 -0.1415 -0.2421 -0.0967
 5192W        W 8936   8.478   7.476   1.993  0.0207  0.1651 -0.0928
 5193W        W 8937   3.825   0.022   3.662  0.0251  0.0154  0.2205
 5194W        W 8938   7.521   2.721  10.456 -0.2701  0.1443 -0.1027
 5195W        W 8939   5.518   4.593   4.055 -0.0341 -0.1520 -0.0398
 5196W        W 8940   0.064   3.147   1.621 -0.2732  0.0782 -0.3204
 5197W        W 8941   8.766   0.055   3.256  0.1819  0.0451 -0.2010
 5198W        W 8942   8.600   7.056  10.523  0.2815  0.0684  0.0374
 5199W        W 8943   7.191   1.507   3.293  0.0845  0.0628 -0.3365
 5200W        W 8944   1.705   4.611  10.481 -0.3683 -0.1303  0.2024
 5201W        W 8945   8.300   8.276   3.260  0.0684 -0.3763  0.0847
 5202W        W 8946   0.593   8.366   3.723 -0.0237 -0.2601  0.1268
 5203W        W 8947   6.829   0.976  12.083  0.0285 -0.0604  0.0201
 5204W        W 8948   3.815   0.724   9.000  0.1589 -0.3544  0.1274
 5205W        W 8949   1.813   7.677   2.516  0.0130  0.0911 -0.0256
 5206W        W 8950   6.718   7.502   1.355 -0.1859 -0.3599  0.1752
 5207W        W 8951   0.822   5.129   8.417  0.0135 -0.0365 -0.2004
 5208W        W 8952   3.699   9.593  12.268  0.3178  0.2892 -0.2882
 5209W        W 8953   9.849   9.443   3.849  0.2299  0.0135  0.0556
 5210W        W 8954   6.371   4.209   2.095 -0.1095  0.2398 -0.0646
 5211W        W 8955   6.496   7.506   0.432  0.1811  0.4741 -0.2795
 5212W        W 8956   4.848   8.260   2.907  0.0716 -0.2937  0.1914
 5213W        W 8957   7.361   7.649   4.005 -0.0487  0.1390 -0.1154
 5214W        W 8958   1.279   3.365  10.799 -0.0930 -0.0391  0.0770
 5215W        W 8959   6.638   5.391   3.324 -0.1418  0.0299 -0.2574
 5216W        W 8960   5.359   8.342   9.160 -0.2159 -0.1263  0.1672
 5217W        W 8961   3.467   4.008  11.061 -0.2810 -0.0266  0.1783
 5218W        W 8962   3.263   3.217  10.424 -0.1845  0.0745 -0.0731
 5219W        W 8963   9.739   5.427   3.065  0.0725  0.2095 -0.4118
 5220W        W 8964   2.412   5.937   3.614  0.3056 -0.0901 -0.1302
 5221W        W 8965   1.160   8.725   1.953  0.1291  0.0877  0.1414
 5222W        W 8966   9.393   5.306  10.553  0.3360  0.1169  0.0281
 5223W        W 8967   6.274   6.807   7.947 -0.1117 -0.0931 -0.0166
 5224W        W 8968   9.328   8.638  10.330 -0.1675  0.0075 -0.0652
 5225W        W 8969   5.206   9.113   0.663 -0.0652 -0.6162  0.2585
 5226W        W 8970   3.007   3.855  11.176 -0.1231  0.1388  0.0008
 5227W        W 8971   2.222   5.455   3.666  0.4764  0.0209  0.1017
 5228W        W 8972   3.880   6.255   2.878 -0.0282 -0.3943  0.0108
 5229W        W 8973   3.464   5.184  10.815  0.2552 -0.1007 -0.0062
 5230W        W 8974   2.583   7.482  11.397  0.0521  0.0827  0.1532
 5231W        W 8975   1.416   1.868   9.979 -0.2298 -0.0796 -0.1614
 5232W        W 8976   3.790   4.548   9.184  0.0609  0.1149  0.1334
 5233W        W 8977   8.449   9.587   9.187 -0.2068  0.0181 -0.2896
 5234W        W 8978   4.094   5.169  10.383  0.2325  0.2964 -0.1163
 5235W        W 8979   0.641   0.103   1.049  0.0732  0.2659  0.0853
 5236W        W 8980   5.522   8.977   3.875 -0.1343  0.0983  0.2337
 5237W        W 8981   7.296   3.880  11.499 -0.0351  0.1086  0.1477
 5238W        W 8982   3.233   9.559  12.356  0.0596 -0.2082 -0.2270
 5239W        W 8983   4.011   0.850   3.597 -0.0811  0.2326 -0.0971
 5240W        W 8984   2.433   0.911  12.794  0.0843  0.0663  0.0538
 5241W        W 8985   6.040   1.963  11.024  0.2472  0.2283 -0.0251
 5242W        W 8986   3.187   5.611   1.399 -0.3241  0.0662  0.0455
 5243W        W 8987   3.584   7.519  12.306 -0.1610  0.1210  0.1510
 5244W        W 8988   3.486   1.251   2.327 -0.0688  0.3759 -0.2155
 5245W        W 8989   5.064   5.164  12.839 -0.0325 -0.4375  0.0819
 5246W        W 8990   5.887   5.004   3.175 -0.0266  0.1128  0.1134
 5247W        W 8991   5.054   4.487  12.757  0.3825 -0.1396  0.0106
 5248W        W 8992   3.556   3.410  10.811  0.1344 -0.0924 -0.0049
 5249W        W 8993   9.551   9.075  10.050 -0.1401  0.1859 -0.0919
 5250W        W 8994   6.346   9.456   3.091 -0.0137 -0.1523  0.2777
 5251W        W 8995   5.698   6.943  12.746 -0.0576  0.1686  0.1953
 5252W        W 8996   7.720   4.319  12.661  0.0400  0.1901 -0.0678
 5253W        W 8997   3.285   6.883   1.681 -0.1475 -0.1075 -0.2079
 5254W        W 8998   3.106   1.917  12.685  0.1056 -0.2697 -0.0534
 5255W        W 8999   0.329   6.588   9.119 -0.2196  0.0946 -0.2617
 5256W        W 9000   3.742   3.081  11.145 -0.2546  0.1975 -0.2381
 5257W        W 9001   4.463   4.918   2.307  0.1069 -0.2826 -0.1775
 5258W        W 9002   6.617   9.501   1.900  0.0808  0.4466  0.3672
 5259W        W 9003   4.533   5.615   9.121  0.1141  0.0935  0.4549
 5260W        W 9004   1.000   3.054   4.129 -0.3846  0.0011 -0.1511
 5261W        W 9005   4.706   2.283   1.707  0.1249 -0.3192  0.2508
 5262W        W 9006   5.407   7.757   9.294 -0.2389 -0.0619 -0.1422
 5263W        W 9007   0.263   8.364   8.537  0.0646 -0.1108 -0.3351
 5264W        W 9008   5.420   8.525  10.651  0.3668 -0.0161  0.1570
 5265W        W 9009   0.382   4.067   8.702  0.2625 -0.1844  0.3932
 5266W        W 9010   6.458   7.020   4.284 -0.2009  0.0718 -0.2416
 5267W        W 9011   6.622   2.825   2.210 -0.2137 -0.0458  0.0704
 5268W        W 9012   6.268   8.256   9.471  0.4605 -0.0829  0.0984
 5269W        W 9013   4.637   0.501   9.973 -0.0169 -0.0926  0.1433
 5270W        W 9014   9.114   3.587   2.773 -0.2592  0.0985 -0.1059
 5271W        W 9015   9.756   5.960   9.312  0.2365  0.0604  0.0796
 5272W        W 9016   5.114   8.210   3.347  0.1640  0.2526  0.2921
 5273W        W 9017   8.528   3.160   0.332  0.1340  0.0231 -0.3146
 5274W        W 9018   1.261   9.145  12.936  0.3163 -0.0873  0.2486
 5275W        W 9019   8.198   8.591   9.006  0.0516 -0.1422 -0.0175
 5276W        W 9020   0.176   2.592   3.635  0.0564  0.0265  0.1063
 5277W        W 9021   5.972   6.233   9.948  0.0456  0.1038 -0.2634
 5278W        W 9022   0.027   0.972   3.128 -0.1992 -0.0283 -0.1639
 5279W        W 9023   6.089   5.770   1.393  0.1726  0.2054 -0.2814
 5280W        W 9024   2.536   6.070   0.976  0.2262  0.0051  0.0449
 5281W        W 9025   9.408   2.922  12.576 -0.0946 -0.1703 -0.1578
 5282W        W 9026   1.832   7.559   1.706  0.2910 -0.1501  0.0205
 5283W        W 9027   6.030   7.297   4.419  0.3251  0.4337  0.0426
 5284W        W 9028   5.084   4.252   2.130  0.3458 -0.2045 -0.2503
 5285W        W 9029   8.193   7.323   1.578  0.0784 -0.0062 -0.2990
 5286W        W 9030   7.563   6.144   2.488  0.2783 -0.1558 -0.0383
 5287W        W 9031   0.084   8.808   9.837 -0.0528  0.1466 -0.0678
 5288W        W 9032   6.894   2.124  11.163 -0.1549  0.2999  0.2510
 5289W        W 9033   8.423   1.024   2.622 -0.1533  0.2458 -0.0338
 5290W        W 9034   9.544   1.301   3.486 -0.0053  0.1711  0.2061
 5291W        W 9035   0.876   4.953   0.766  0.1487  0.2224 -0.1217
 5292W        W 9036   7.873   6.418   9.740  0.4845 -0.0679  0.3493
 5293W        W 9037   6.326   0.160  12.717  0.1353 -0.0742 -0.0130
 5294W        W 9038   9.464   1.087  10.006  0.1614  0.4273 -0.3401
 5295W        W 9039   5.328   6.164   0.918  0.2343  0.1081  0.0794
 5296W        W 9040   0.940   5.522   1.339  0.2280 -0.0227  0.0733
 5297W        W 9041   5.469   7.686   0.720 -0.0597 -0.1063 -0.0071
 5298W        W 9042   3.051   4.627   2.475  0.1204 -0.2380 -0.0601
 5299W        W 9043   2.685   3.599   8.716  0.2110 -0.0336  0.0898
 5300W        W 9044   9.245   7.955   0.835 -0.2297  0.2796  0.0150
 5301W        W 9045   0.222   4.521   2.626  0.1044  0.2039  0.1669
 5302W        W 9046   5.416   5.200   9.904 -0.0434 -0.1807 -0.1955
 5303W        W 9047   1.069   0.229  11.751 -0.4209  0.1773  0.1383
 5304W        W 9048   1.171   3.371   1.044  0.0422  0.2502  0.3423
 5305W        W 9049   7.585   4.979   8.696 -0.2561  0.0787 -0.2780
 5306W        W 9050   1.392   9.718  10.990  0.1664  0.0269  0.0360
 5307W        W 9051   5.799   0.491  10.256 -0.1088 -0.0097 -0.3190
 5308W        W 9052   1.017   8.230  11.611 -0.1279 -0.1093 -0.1471
 5309W        W 9053   3.733   8.894   2.547  0.0084  0.1419  0.2111
 5310W        W 9054   5.492   0.329   9.872  0.2697 -0.0058  0.3044
 5311W        W 9055   2.489   1.591   0.014  0.3657  0.2069 -0.0754
 5312W        W 9056   0.825   7.789   3.739  0.0552  0.0585 -0.0468
 5313W        W 9057   6.709   8.973  11.162 -0.0536 -0.6731  0.0554
 5314W        W 9058   1.792   7.313  10.876  0.1629 -0.0082 -0.3713
 5315W        W 9059   6.017   9.332   2.723  0.1498  0.1505  0.0103
 5316W        W 9060   7.302   4.533   9.070  0.2517  0.2449  0.0054
 5317W        W 9061   7.520   6.354  11.573 -0.2553  0.0661  0.0062
 5318W        W 9062   1.549   4.016   1.126 -0.0187 -0.0450 -0.1482
 5319W        W 9063   2.418   4.602   3.116  0.1446  0.2825  0.0203
 5320W        W 9064   7.690   3.359  12.687 -0.0010  0.1593 -0.1767
 5321W        W 9065   6.361   2.582  11.089  0.2487 -0.1147 -0.0306
 5322W        W 9066   4.579   3.704   1.781 -0.1116 -0.1272  0.0331
 5323W        W 9067   2.825   8.280  10.758  0.0570 -0.2490  0.1115
 5324W        W 9068   2.348   7.580   4.402  0.1469 -0.2840 -0.0343
 5325W        W 9069   6.664   3.988  11.051  0.0843 -0.2556 -0.2222
 5326W        W 9070   6.275   0.128   1.692 -0.0450  0.1184 -0.1942
 5327W        W 9071   6.221   3.937  11.316  0.2934  0.1158 -0.1446
 5328W        W 9072   7.739   0.361   2.401 -0.0336 -0.0030  0.0111
 5329W        W 9073   6.131   8.918   9.112 -0.2674  0.1123 -0.2110
 5330W        W 9074   4.270   2.299   8.769 -0.3098  0.1509 -0.1398
 5331W        W 9075   8.956   7.115   2.890  0.2545  0.0050 -0.0615
 5332W        W 9076   6.066   9.485  11.726 -0.0645  0.0002  0.2337
 5333W        W 9077   5.198   6.183   3.153  0.0822  0.2130  0.2490
 5334W        W 9078   5.154   6.187   4.895  0.0155 -0.1067  0.1650
 5335W        W 9079   1.335   2.052   2.485  0.2008  0.2052 -0.1332
 5336W        W 9080   5.747   3.641   0.121  0.2375 -0.1343 -0.2081
 5337W        W 9081   2.469   2.493   9.966 -0.2411 -0.1916 -0.2313
 5338W        W 9082   8.662   5.762   2.831 -0.1023  0.2088  0.1156
 5339W        W 9083   3.982   9.222   1.307  0.1487 -0.1563 -0.0431
 5340W        W 9084   6.836   5.878   9.328 -0.1112  0.1691  0.2504
 5341W        W 9085   1.942   7.319  11.545  0.1270  0.3516 -0.0259
 5342W        W 9086   1.847   3.180   2.057  0.1336 -0.1150 -0.1882
 5343W        W 9087   8.778   0.257  12.006 -0.1745 -0.1476  0.1580
 5344W        W 9088   5.622   2.191  12.734 -0.0036  0.2641  0.0685
 5345W        W 9089   4.060   5.366   3.149 -0.1841  0.0475 -0.0058
 5346W        W 9090   9.237   9.776  12.740  0.1177  0.1007 -0.0515
 5347W        W 9091   3.492   7.015  12.289  0.2746  0.2751 -0.2670
 5348W        W 9092   3.605   7.931   9.313  0.0338  0.0059  0.3791
 5349W        W 9093   3.577   1.921  11.050  0.1196 -0.2403 -0.1328
 5350W        W 9094   8.515   3.095   2.135  0.1972 -0.0259 -0.0947
 5351W        W 9095   4.210   3.897   2.499 -0.2245  0.2996  0.0292
 5352W        W 9096   8.129   8.086  11.606  0.1078 -0.1452  0.2456
 5353W        W 9097   7.692   9.104  10.878  0.0588  0.0777 -0.0185
 5354W        W 9098   0.209   3.017   9.366 -0.0063 -0.1652  0.0204
 5355W        W 9099   1.034   6.573   3.317 -0.2361 -0.0617  0.1534
 5356W        W 9100   3.612   7.106   3.039 -0.0428 -0.1004  0.3625
 5357W        W 9101   4.082   3.065   2.798 -0.0557  0.2168  0.2984
 5358W        W 9102   5.163   8.975   4.494  0.2887  0.1539 -0.2940
 5359W        W 9103   4.075   6.871   1.923  0.0446 -0.0867  0.0053
 5360W        W 9104   5.899   0.510   3.687  0.0312 -0.0048 -0.2015
 5361W        W 9105   0.975   6.845   2.749 -0.1024 -0.0381  0.0561
 5362W        W 9106   2.972   6.418   2.792  0.0216 -0.1537  0.3315
 5363W        W 9107   8.764   8.722   0.412 -0.1329 -0.0312 -0.3203
 5364W        W 9108   5.198   8.928   2.208  0.0289 -0.0554 -0.0640
 5365W        W 9109   3.167   5.758  12.792 -0.2387  0.0255 -0.1473
 5366W        W 9110   4.361   8.356  12.751 -0.0949  0.2673  0.1851
 5367W        W 9111   3.915   7.864  11.492  0.3271  0.0811  0.0318
 5368W        W 9112   3.727   0.863  10.593  0.0486  0.0039  0.1235
 5369W        W 9113   7.848   8.889   8.774 -0.0268 -0.0650  0.1089
 5370W        W 9114   0.919   4.588   2.100 -0.2688  0.1088 -0.0114
 5371W        W 9115   3.189   7.007   9.463  0.1824  0.1835  0.0927
 5372W        W 9116   4.322   6.192   1.238 -0.0499  0.2656  0.1393
 5373W        W 9117   1.875   4.127   4.129  0.0968 -0.0444  0.0214
 5374W        W 9118   3.673   5.946   3.869  0.1107 -0.1497 -0.2937
 5375W        W 9119   4.460   9.329   1.051 -0.0790 -0.1911 -0.3968
 5376W        W 9120   8.455   5.242  10.743 -0.0360  0.0763 -0.0287
 5377W        W 9121   4.615   0.011   9.568 -0.0310  0.2611  0.2734
 5378W        W 9122   3.513   4.066   2.976  0.0277 -0.1973 -0.1003
 5379W        W 9123   2.290   3.116   8.376 -0.1780 -0.1174  0.4088
 5380W        W 9124   4.831   3.174   4.659  0.0999 -0.1430 -0.3581
 5381W        W 9125   8.347   3.483  10.312  0.3185  0.1752  0.0389
 5382W        W 9126   2.716   4.969   5.069  0.1215  0.1894 -0.2477
 5383W        W 9127   0.624   3.238  11.512  0.1389 -0.2255  0.0900
 5384W        W 9128   9.709   7.084   0.213 -0.1914 -0.7002  0.3188
 5385W        W 9129   9.730   4.081   9.754 -0.1793  0.0237 -0.2802
 5386W        W 9130   4.667   3.143   0.111  0.1890 -0.1358  0.0120
 5387W        W 9131   3.249   4.029   4.404  0.3945 -0.2901  0.2624
 5388W        W 9132   3.932   4.253  10.967 -0.0681 -0.0367 -0.0809
 5389W        W 9133   6.114   1.518   1.382 -0.0761  0.1326  0.0735
 5390W        W 9134   9.365   7.352   8.142 -0.0682 -0.2083  0.1932
 5391W        W 9135   3.586   8.388  11.737  0.2394  0.1285 -0.0212
 5392W        W 9136   1.736   2.423   2.520  0.1706 -0.3051 -0.0152
 5393W        W 9137   4.000   8.798   0.287 -0.0463  0.0190  0.2918
 5394W        W 9138   2.647   5.569   3.392  0.1639 -0.2087 -0.3209
 5395W        W 9139   4.594   9.373   9.865 -0.4058 -0.0624 -0.1832
 5396W        W 9140   1.338   5.237   3.692  0.1791  0.0132 -0.0232
 5397W        W 9141   7.594   6.687   0.442  0.0952  0.2109  0.1379
 5398W        W 9142   9.117   6.853   1.632  0.0395  0.3300  0.0371
 5399W        W 9143   0.666   2.439  10.833  0.0236  0.4300 -0.1269
 5400W        W 9144   1.086   2.336  11.735  0.1722 -0.1306 -0.0047
 5401W        W 9145   4.343   5.209   8.902  0.1263  0.1859 -0.4129
 5402W        W 9146   4.574   5.312  10.643 -0.2732 -0.3036 -0.2496
 5403W        W 9147   1.672   8.728   9.879  0.3422 -0.0879 -0.1615
 5404W        W 9148   3.007   9.768   3.807  0.0787  0.2628  0.2762
 5405W        W 9149   6.571   8.359   8.534 -0.1420  0.0867 -0.3019
 5406W        W 9150   0.146   4.994   1.411  0.1033 -0.3364 -0.2201
 5407W        W 9151   2.354   4.578   8.117  0.0981 -0.1911  0.1199
 5408W        W 9152   4.445   4.266   0.959 -0.6837  0.1045 -0.5404
 5409W        W 9153   2.333   7.460   2.541 -0.4597 -0.2579 -0.1860
 5410W        W 9154   1.640   9.854  10.382 -0.2596  0.1874 -0.0041
 5411W        W 9155   3.126   3.047   3.299 -0.3402  0.2301 -0.1104
 5412W        W 9156   1.510   1.553  11.523 -0.1252  0.1160 -0.0401
 5413W        W 9157   4.743   2.565  10.247 -0.3499 -0.4952 -0.1793
 5414W        W 9158   2.552   3.620   2.912 -0.0649  0.2822  0.0129
 5415W        W 9159   1.166   0.115   1.245 -0.1270  0.3168 -0.1070
 5416W        W 9160   2.097   2.191   0.915 -0.0309 -0.0504  0.0221
 5417W        W 9161   2.523   0.551   3.902  0.0005  0.0597  0.1510
 5418W        W 9162   0.630   3.634  10.275 -0.0111  0.0325  0.2182
 5419W        W 9163   8.931   7.852   0.060 -0.0063  0.0619 -0.1272
 5420W        W 9164   9.599   3.847   1.218  0.1176  0.0329 -0.0305
 5421W        W 9165   0.559   6.124   0.859 -0.1137 -0.0413  0.1090
 5422W        W 9166   1.480   0.534   2.159  0.1491 -0.0841  0.2193
 5423W        W 9167   9.128   9.789  11.922  0.0632  0.1594  0.1827
 5424W        W 9168   6.703   1.741   2.302  0.1924 -0.0884 -0.2361
 5425W        W 9169   9.293   0.155  10.116 -0.0325  0.1582 -0.0533
 5426W        W 9170   1.499   9.699   3.221 -0.1600 -0.0390  0.1670
 5427W        W 9171   6.223   9.238   8.193  0.3926  0.0875  0.1462
 5428W        W 9172   1.184   0.168   3.352 -0.0081  0.0482 -0.2166
 5429W        W 9173   7.269   5.950   0.396 -0.0576 -0.2945  0.3475
 5430W        W 9174   0.756   0.693   3.938 -0.0505  0.0396 -0.2879
 5431W        W 9175   1.661   1.919   9.445  0.2005 -0.1846 -0.1575
 5432W        W 9176   1.475   3.378  12.820  0.1669  0.0686 -0.2592
 5433W        W 9177   5.562   7.093   4.177 -0.1891 -0.1790  0.2682
 5434W        W 9178   5.347   2.351  12.021 -0.0955 -0.2354 -0.3019
 5435W        W 9179   9.463   0.878   2.071 -0.0680  0.0414  0.0541
 5436W        W 9180   9.332   9.549   9.586 -0.1797 -0.2333 -0.3801
 5437W        W 9181   7.432   9.048   1.983  0.0185  0.0217  0.0807
 5438W        W 9182   9.557   8.218   3.287  0.2122  0.0546  0.2035
 5439W        W 9183   0.127   7.940  11.609 -0.2430  0.0415  0.0026
 5440W        W 9184   6.941   6.816   0.977 -0.1413 -0.1241 -0.1107
 5441W        W 9185   7.073   2.359  10.171 -0.1070 -0.0699 -0.1555
 5442W        W 9186   5.076   1.040   1.894 -0.0609  0.1773 -0.3465
 5443W        W 9187   3.861   5.706   1.156  0.3195 -0.4113 -0.2339
 5444W        W 9188   3.281   8.039   2.672 -0.3120  0.3401  0.3351
 5445W        W 9189   8.938   4.773  11.194  0.1061 -0.0767 -0.1404
 5446W        W 9190   3.196   9.434  10.493 -0.2229 -0.0346  0.0385
 5447W        W 9191   9.410   2.580   8.563 -0.1678 -0.1504 -0.0495
 5448W        W 9192   6.945   9.514   0.982 -0.2554  0.1351  0.1761
 5449W        W 9193   0.494   6.208  10.995  0.3190  0.3462 -0.0638
 5450W        W 9194   0.262   9.220   1.010 -0.3087 -0.1447  0.0219
 5451W        W 9195   6.997   7.889   1.490  0.0028  0.0010  0.0786
 5452W        W 9196   3.889   7.144  12.541  0.0892  0.0335  0.4095
 5453W        W 9197   7.666   2.296   9.573 -0.2443 -0.2795  0.3155
 5454W        W 9198   1.993   1.258   8.002 -0.0964 -0.1287 -0.0632
 5455W        W 9199   3.415   1.637   3.043  0.0171 -0.2577  0.1824
 5456W        W 9200   3.568   1.487   0.854  0.0361 -0.1251  0.0221
 5457W        W 9201   1.640   3.622  10.493 -0.2302 -0.1509 -0.0316
 5458W        W 9202   4.264   9.128  12.950  0.1636 -0.0979  0.0672
 5459W        W 9203   7.100   6.792   3.458  0.0301  0.0148 -0.2127
 5460W        W 9204   9.184   9.471   0.779  0.0510  0.0790 -0.1158
 5461W        W 9205   1.542   9.628   1.202 -0.1543  0.2037 -0.1225
 5462W        W 9206   7.014   7.286   0.332  0.0473 -0.0667  0.0256
 5463W        W 9207   5.887   2.270  11.809  0.0650  0.1386  0.2514
 5464W        W 9208   7.669   6.605   2.787  0.3689 -0.4133  0.0080
 5465W        W 9209   3.653   2.084   3.226  0.1141  0.0660  0.1835
 5466W        W 9210   7.886   9.281   4.679  0.1049 -0.1326  0.0104
 5467W        W 9211   8.210   9.651  10.268 -0.0425  0.6051 -0.0030
 5468W        W 9212   7.402   3.634   9.313  0.4452  0.0682 -0.2787
 5469W        W 9213   5.673   9.589   3.928 -0.3628  0.0283  0.4102
 5470W        W 9214   8.743   6.228   2.135  0.2003  0.3107 -0.1839
 5471W        W 9215   0.498   8.472   1.390  0.1332 -0.1894  0.2140
 5472W        W 9216   5.217   2.883   0.388 -0.0214 -0.0135 -0.1751
 5473W        W 9217   0.801   6.670   9.914 -0.1547 -0.2025 -0.0557
 5474W        W 9218   8.271   8.801   4.088  0.2972 -0.1914 -0.0883
 5475W        W 9219   3.661   3.120   4.047 -0.0674  0.3668  0.1020
 5476W        W 9220   0.033   8.592  12.064  0.0134 -0.0522  0.0222
 5477W        W 9221   0.389   4.148  10.543  0.2633 -0.3113 -0.0535
 5478W        W 9222   6.926   6.086   3.476  0.0022 -0.0988 -0.0869
 5479W        W 9223   4.547   4.478  11.588 -0.0997  0.1420  0.1174
 5480W        W 9224   4.124   2.934   2.019  0.0634 -0.1176  0.1099
 5481W        W 9225   1.641   3.662   9.567 -0.2697 -0.1238 -0.0213
 5482W        W 9226   8.606   7.536   4.361 -0.2559 -0.2002 -0.0556
 5483W        W 9227   2.174   2.849   3.520 -0.0923 -0.0613 -0.2325
 5484W        W 9228   5.233   7.966   8.727  0.1186  0.0790  0.0920
 5485W        W 9229   0.026   8.290   3.851  0.1486  0.0019 -0.0014
 5486W        W 9230   1.997   2.852  11.579  0.2155 -0.1579 -0.2963
 5487W        W 9231   5.324   0.178   5.168  0.1298  0.0705  0.0727
 5488W        W 9232   8.069   5.728   8.717 -0.1796 -0.0764 -0.2690
 5489W        W 9233   1.943   3.532   2.378 -0.1625  0.0332 -0.3858
 5490W        W 9234   7.278   5.765   2.249 -0.0898 -0.0055  0.0776
 5491W        W 9235   0.608   3.436   3.280 -0.0309  0.2327 -0.2675
 5492W        W 9236   4.781   7.168  12.467  0.1158  0.1017 -0.2651
 5493W        W 9237   0.094   7.784  10.503  0.2695 -0.1192  0.1337
 5494W        W 9238   6.644   7.957   4.239  0.0620  0.1441  0.2455
 5495W        W 9239   3.537   2.950  10.086  0.0318  0.0890  0.1466
 5496W        W 9240   8.126   2.576  12.343 -0.2262 -0.1944 -0.1684
 5497W        W 9241   3.166   2.218   0.098 -0.0267 -0.0602  0.0206
 5498W        W 9242   9.473   9.197   2.223  0.2567  0.0492  0.1994
 5499W        W 9243   8.362   0.304   2.130 -0.2171 -0.1221  0.0357
 5500W        W 9244   2.711   4.947   2.654  0.0288  0.2081 -0.0880
 5501W        W 9245   4.738   9.042   1.990 -0.1947  0.1930 -0.0760
 5502W        W 9246   2.295   3.720  10.502  0.3983 -0.2598 -0.1588
 5503W        W 9247   0.152   6.679   0.256  0.1878  0.0400  0.2614
 5504W        W 9248   0.980   7.894  10.386  0.5670  0.1051 -0.1328
 5505W        W 9249   2.466   9.817   3.690  0.0503 -0.3505 -0.3487
 5506W        W 9250   4.902   4.052   9.111  0.3613  0.0130 -0.0509
 5507W        W 9251   2.639   0.223  10.748  0.0116  0.4849 -0.0133
 5508W        W 9252   1.509   6.447   2.068  0.1626 -0.3627  0.2131
 5509W        W 9253   9.013   3.334   1.175 -0.0090  0.1161  0.0863
 5510W        W 9254   1.393   9.195   3.407  0.3735 -0.0123  0.0987
 5511W        W 9255   8.469   2.640  10.076  0.1077  0.4215 -0.0462
 5512W        W 9256   2.097   2.883   1.681 -0.3947 -0.0804  0.1118
 5513W        W 9257   1.906   7.791  11.767  0.0249  0.2049 -0.0238
 5514W        W 9258   5.931   9.227   1.118 -0.1624  0.2874  0.2584
 5515W        W 9259   6.112   5.211   9.807 -0.0887  0.0316  0.2771
 5516W        W 9260   2.456   4.490   1.176 -0.1456  0.2158 -0.1640
 5517W        W 9261   3.374   4.638  10.192  0.0074 -0.1088  0.3681
 5518W        W 9262   3.437   0.998  11.037  0.3978 -0.0626 -0.1401
 5519W        W 9263   0.253   3.544  12.817 -0.2025  0.0525 -0.1771
 5520W        W 9264   5.601   1.406   1.261 -0.1623 -0.2241  0.0544
 5521W        W 9265   6.856   8.753   9.708  0.1069  0.0136  0.3101
 5522W        W 9266   1.650   7.984   9.356 -0.0334 -0.1673  0.1027
 5523W        W 9267   7.942   4.016   8.923 -0.1038  0.0010  0.1815
 5524W        W 9268   7.523   5.861   4.235 -0.2548  0.0588 -0.1328
 5525W        W 9269   9.698   1.872   0.224 -0.2370  0.0030 -0.0838
 5526W        W 9270   2.690   8.863  11.890 -0.1367 -0.2964 -0.1805
 5527W        W 9271   3.434   1.117   0.039  0.0253 -0.1304 -0.0741
 5528W        W 9272   3.817   7.508   3.241  0.0140  0.0239  0.1697
 5529W        W 9273   0.626   0.568  10.717  0.2404  0.1044 -0.1508
 5530W        W 9274   4.048   1.623   9.151  0.0151  0.0280 -0.1430
 5531W        W 9275   3.078   1.162   8.535 -0.3033 -0.0407 -0.0626
 5532W        W 9276   1.575   5.009  10.163  0.1154  0.3136 -0.0452
 5533W        W 9277   3.723   2.981   2.320 -0.0156 -0.4651  0.0210
 5534W        W 9278   8.029   7.671   9.575  0.0591 -0.0013 -0.0282
 5535W        W 9279   0.511   9.249   0.442 -0.0644 -0.0696 -0.0852
 5536W        W 9280   2.438   7.859   2.965  0.1565  0.2536 -0.0725
 5537W        W 9281   5.850   4.571  11.849  0.0490  0.2793  0.0727
 5538W        W 9282   2.015   9.882   8.839 -0.0726 -0.2620  0.3181
 5539W        W 9283   1.056   7.248  11.720 -0.0001  0.0961  0.1567
 5540W        W 9284   5.271   1.812  10.634  0.0541  0.1667 -0.1776
 5541W        W 9285   4.335   8.214   9.049  0.0979 -0.2706 -0.0471
 5542W        W 9286   0.272   3.841   9.128 -0.0459  0.2487 -0.3771
 5543W        W 9287   4.158   0.889  11.761  0.1207 -0.2006 -0.0243
 5544W        W 9288   9.020   7.491  12.223 -0.0905 -0.0677 -0.0603
 5545W        W 9289   1.994   2.587  12.056  0.1622 -0.0399 -0.0077
 5546W        W 9290   4.516   8.403   2.527  0.0232  0.1809 -0.0962
 5547W        W 9291   0.731   8.404   8.069 -0.0569 -0.0040 -0.0871
 5548W        W 9292   4.370   6.532   0.053 -0.5114  0.0060  0.2783
 5549W        W 9293   9.182   4.086   2.817 -0.2691 -0.0192  0.0235
 5550W        W 9294   8.722   4.792   2.504  0.0101  0.0394 -0.0964
 5551W        W 9295   9.287   7.295  10.288  0.0353 -0.1107 -0.1928
 5552W        W 9296   7.177   7.708   9.102 -0.1520 -0.1457 -0.2788
 5553W        W 9297   4.905   4.567  12.026 -0.0641 -0.0494  0.3056
 5554W        W 9298   3.795   8.799   9.504  0.0698  0.1084  0.0863
 5555W        W 9299   2.851   8.711   2.263  0.3043 -0.1947  0.0319
 5556W        W 9300   3.847   6.585  12.214  0.1745 -0.0260 -0.0692
 5557W        W 9301   8.195   1.744   0.670 -0.5622  0.0119  0.1748
 5558W        W 9302   6.883   3.158  11.616  0.1885 -0.0280  0.0030
 5559W        W 9303   5.485   5.811   3.043  0.0462  0.1421  0.2124
 5560W        W 9304   8.031   2.991   2.059  0.0929  0.1274  0.0581
 5561W        W 9305   9.100   8.518  11.642  0.3995 -0.0564  0.1492
 5562W        W 9306   1.401   1.273  10.928 -0.3266  0.3395  0.0505
 5563W        W 9307   0.537   1.647  11.379 -0.2830 -0.2129  0.0963
 5564W        W 9308   4.584   7.710   5.030  0.2341  0.0820 -0.0988
 5565W        W 9309   7.881   0.695  12.711 -0.0566  0.1649 -0.2422
 5566W        W 9310   7.300   2.167  11.436 -0.0205 -0.1872 -0.0634
 5567W        W 9311   2.896   9.690   1.163  0.3717 -0.0374 -0.2130
 5568W        W 9312   9.688   4.865   0.091 -0.1498 -0.3075 -0.0561
 5569W        W 9313   0.568   0.459   1.914  0.1490  0.2349  0.1908
 5570W        W 9314   8.849   8.463  11.208  0.2556 -0.1372 -0.2420
 5571W        W 9315   1.435   6.793   1.618 -0.0427  0.3623  0.0313
 5572W        W 9316   7.694   7.378   1.601 -0.0499 -0.0867 -0.1002
 5573W        W 9317   3.189   5.097   2.875 -0.1024  0.0061  0.1345
 5574W        W 9318   9.046   7.805   3.653 -0.0492 -0.3356  0.1720
 5575W        W 9319   5.971   0.043  10.049  0.0535  0.1477 -0.0060
 5576W        W 9320   8.830   8.135   4.013  0.2653 -0.2830  0.0093
 5577W        W 9321   8.060   0.511  10.930 -0.1744 -0.2915  0.0224
 5578W        W 9322   2.589   9.376   3.870  0.1302 -0.1248  0.1006
 5579W        W 9323   0.571   9.811   0.410 -0.3492 -0.3180  0.3109
 5580W        W 9324   6.525   4.081  10.108  0.0746  0.2222  0.1085
 5581W        W 9325   5.060   4.296  10.526 -0.0988  0.0264 -0.0599
 5582W        W 9326   9.200   3.056   0.064  0.0831  0.0807  0.1108
 5583W        W 9327   9.271   4.959  11.552  0.1811  0.0110 -0.1988
 5584W        W 9328   1.603   5.514   9.411  0.0046  0.1139 -0.2159
 5585W        W 9329   2.838   9.182   2.006 -0.3134  0.2233 -0.3719
 5586W        W 9330   0.195   7.567  12.009 -0.2228  0.0778  0.1885
 5587W        W 9331   4.487   1.718   0.059  0.2045  0.0737 -0.2541
 5588W        W 9332   2.790   8.201   9.119 -0.2546  0.1042  0.1902
 5589W        W 9333   5.970   5.883   0.846 -0.2880  0.1721 -0.1691
 5590W        W 9334   0.863   3.461  11.117  0.0788  0.2138 -0.2665
 5591W        W 9335   3.619   7.786   1.119 -0.4629  0.0067  0.3112
 5592W        W 9336   2.123   0.100  10.646  0.3974 -0.1813 -0.1048
 5593W        W 9337   6.650   6.493   8.340 -0.0943  0.2381 -0.0685
 5594W        W 9338   2.810   3.080   1.874 -0.5606 -0.2352  0.2226
 5595W        W 9339   9.136   1.267  12.078 -0.1590 -0.0655  0.0530
 5596W        W 9340   2.156   4.155   2.599  0.1351 -0.0774  0.0958
 5597W        W 9341   5.232   2.670  11.167 -0.0241 -0.1854 -0.0528
 5598W        W 9342   5.874   7.851   0.856 -0.1839 -0.1337 -0.1968
 5599W        W 9343   2.504   4.907  11.702  0.1448  0.0452  0.1386
 5600W        W 9344   0.561   7.023   0.160 -0.1663  0.2692 -0.0666
 5601W        W 9345   2.734   1.040   2.326  0.1767 -0.0326 -0.3800
 5602W        W 9346   9.122   8.283  12.069  0.5182  0.0173  0.0081
 5603W        W 9347   5.050   2.209   3.303  0.1936  0.2119  0.0142
 5604W        W 9348   8.915   8.753  12.065 -0.0538 -0.2878 -0.3153
 5605W        W 9349   0.597   1.134   4.683  0.1694  0.0448 -0.0689
 5606W        W 9350   0.313   3.107   3.537  0.1520  0.2371 -0.0663
 5607W        W 9351   9.603   0.063   9.632  0.0394 -0.3026 -0.0417
 5608W        W 9352   9.135   9.880   1.090  0.1220  0.1771  0.2015
 5609W        W 9353   6.189   4.526  12.331  0.0485 -0.2547 -0.0387
 5610W        W 9354   5.159   9.683   0.539  0.0655 -0.0065  0.1561
 5611W        W 9355   8.340   7.335   3.985 -0.0119  0.1339 -0.3446
 5612W        W 9356   2.441   1.544   9.501  0.0060 -0.1305 -0.0345
 5613W        W 9357   1.112   8.688  12.596  0.4064 -0.1808 -0.2792
 5614W        W 9358   7.475   7.838  12.979  0.1654 -0.2673 -0.0930
 5615W        W 9359   5.174   8.984   2.704 -0.1294 -0.0218 -0.1460
 5616W        W 9360   3.563   4.356   4.167 -0.1131  0.0353  0.1808
 5617W        W 9361   8.447   6.026   0.591  0.0401 -0.1265 -0.2773
 5618W        W 9362   4.696   4.512   2.082  0.0091 -0.0347  0.0055
 5619W        W 9363   8.483   1.356   0.649 -0.0283 -0.2962 -0.3503
 5620W        W 9364   4.274   1.010   4.194  0.3412 -0.0708  0.1525
 5621W        W 9365   7.674   1.467  10.011 -0.0203  0.1158  0.1087
 5622W        W 9366   3.322   0.321   2.586  0.3371 -0.2158 -0.0419
 5623W        W 9367   2.225   7.193  11.124 -0.5098  0.2693  0.1569
 5624W        W 9368   2.464   0.072   0.970  0.2088 -0.3066  0.2681
 5625W        W 9369   4.027   1.131  11.021 -0.0613  0.0418 -0.2290
 5626W        W 9370   3.863   6.178   3.456 -0.1180  0.3227 -0.3146
 5627W        W 9371   2.001   4.146   3.090 -0.3983  0.0182  0.1558
 5628W        W 9372   8.034   5.817   0.728  0.1758 -0.1189  0.2518
 5629W        W 9373   7.804   9.167   3.560  0.0710 -0.0269  0.1311
 5630W        W 9374   8.104   8.111   9.167 -0.3626  0.1701  0.2148
 5631W        W 9375   9.311   5.547   2.309  0.0847  0.1762 -0.0518
 5632W        W 9376   4.869   2.465   9.667 -0.1729  0.0674 -0.1126
 5633W        W 9377   3.504   6.051   1.428 -0.1876  0.0831 -0.3290
 5634W        W 9378   7.121   4.349   0.347 -0.1797 -0.1071  0.0732
 5635W        W 9379   9.750   3.395   0.227  0.1285  0.1292 -0.2022
 5636W        W 9380   2.580   8.995   4.734 -0.1839  0.0380 -0.1760
 5637W        W 9381   9.342   5.672   9.770 -0.0080  0.2441  0.0718
 5638W        W 9382   4.558   9.885   1.946  0.1470 -0.0472  0.1297
 5639W        W 9383   9.468   0.378   1.216 -0.0365 -0.0973 -0.0496
 5640W        W 9384   7.269   9.848  11.164 -0.0013  0.1572 -0.0180
 5641W        W 9385   4.437   0.458   0.945 -0.0877  0.1246 -0.1033
 5642W        W 9386   2.141   9.514  11.229  0.1747 -0.0155 -0.0529
 5643W        W 9387   2.336   4.429  11.815 -0.0123  0.3473  0.0642
 5644W        W 9388   8.402   4.140   0.588 -0.3013 -0.2433  0.2765
 5645W        W 9389   0.178   5.343   2.281 -0.2868 -0.0669 -0.1832
 5646W        W 9390   4.114   8.666   3.982 -0.0554 -0.0882  0.4197
 5647W        W 9391   2.600   4.121   2.956  0.1378 -0.0505  0.1209
 5648W        W 9392   2.440   4.549  11.343  0.1555 -0.1735  0.2090
 5649W        W 9393   2.169   0.806   0.447 -0.1709  0.0263  0.0375
 5650W        W 9394   8.179   9.751  11.468 -0.1194  0.1620 -0.1515
 5651W        W 9395   2.911   0.512   1.689 -0.1560 -0.1523 -0.0135
 5652W        W 9396   7.262   1.931   2.385 -0.0545 -0.2078 -0.1848
 5653W        W 9397   6.918   1.292   0.828 -0.2421 -0.1377  0.0818
 5654W        W 9398   9.389   0.197  10.629  0.0421 -0.0837  0.3696
 5655W        W 9399   1.907   3.604  12.740 -0.1377  0.1835 -0.0565
 5656W        W 9400   7.920   7.126   1.156 -0.0986  0.2565 -0.1514
 5657W        W 9401   3.090   8.549   4.204  0.4900  0.2455 -0.0434
 5658W        W 9402   4.811   5.205   9.921  0.1368 -0.1274 -0.1944
 5659W        W 9403   9.543   4.242   7.988 -0.1567 -0.0645  0.1143
 5660W        W 9404   3.306   0.098  11.541 -0.0177 -0.3758 -0.1244
 5661W        W 9405   6.832   4.820   2.804  0.1911  0.0910  0.0446
 5662W        W 9406   3.788   2.645   9.094  0.3883  0.1885  0.1243
 5663W        W 9407   5.922   3.926   4.258 -0.1985  0.1894  0.2224
 5664W        W 9408   7.070   5.338  12.844  0.2593 -0.2396 -0.0931
 5665W        W 9409   5.468   0.417   2.280  0.0860  0.1361 -0.3160
 5666W        W 9410   4.325   6.847   8.136 -0.0794 -0.0191 -0.4451
 5667W        W 9411   7.348   2.399   2.081  0.1222  0.0398 -0.2699
 5668W        W 9412   5.291   0.975   4.240  0.3654 -0.0888  0.0062
 5669W        W 9413   1.588   3.668   1.998  0.0506 -0.2013  0.0227
 5670W        W 9414   9.071   1.071  10.426  0.0145  0.1812 -0.0290
 5671W        W 9415   4.346   4.470   1.485  0.1441 -0.3282  0.0980
 5672W        W 9416   5.999   8.275  12.070  0.1494 -0.4090 -0.4452
 5673W        W 9417   0.850   8.699  11.674 -0.2829 -0.0246 -0.0129
 5674W        W 9418   3.413   7.095  12.788  0.1593  0.0308  0.3323
 5675W        W 9419   1.743   3.687  10.996  0.0772  0.2057  0.1334
 5676W        W 9420   6.145   3.825  10.284 -0.1886  0.0674 -0.2183
 5677W        W 9421   3.729   5.225   1.374 -0.1466 -0.0975 -0.0021
 5678W        W 9422   3.500   4.224   2.391  0.0467  0.1727 -0.1920
 5679W        W 9423   3.786   0.968  11.427 -0.0453  0.1773  0.1703
 5680W        W 9424   6.477   6.215   3.720 -0.1847  0.3172 -0.2676
 5681W        W 9425   4.394   0.914  12.782  0.1870  0.4291 -0.1971
 5682W        W 9426   4.534   6.656   8.890 -0.3326 -0.0688  0.1491
 5683W        W 9427   2.285   5.059  10.689 -0.3705 -0.2398  0.0870
 5684W        W 9428   1.241   3.946  11.906  0.0077 -0.0017 -0.0783
 5685W        W 9429   0.193   4.778   9.202  0.0252 -0.0104  0.0232
 5686W        W 9430   1.225   6.146   4.195  0.2516  0.1948  0.1948
 5687W        W 9431   4.670   6.024   4.048 -0.0351  0.0523 -0.1889
 5688W        W 9432   3.110   2.854   3.744 -0.0746 -0.2591  0.2249
 5689W        W 9433   6.218   1.706   3.010  0.0666 -0.0258 -0.1347
 5690W        W 9434   8.568   5.587  12.205 -0.0366  0.1780  0.3066
 5691W        W 9435   4.646   2.379   9.238 -0.0385  0.0999 -0.2193
 5692W        W 9436   1.864   3.511  10.068 -0.0521 -0.1532  0.1793
 5693W        W 9437   7.279   9.718   8.756 -0.2978 -0.1536  0.2199
 5694W        W 9438   8.905   8.326   8.184 -0.2181 -0.2996  0.4427
 5695W        W 9439   8.415   5.196   2.615  0.1750 -0.1347 -0.0842
 5696W        W 9440   0.311   2.659   0.068  0.1494 -0.3762  0.2216
 5697W        W 9441   8.328   3.653   0.944  0.0531 -0.0626 -0.1672
 5698W        W 9442   1.139   4.116   2.822 -0.0088 -0.0252  0.1676
 5699W        W 9443   6.433   5.768  10.419  0.1276  0.3447  0.0822
 5700W        W 9444   6.701   6.542   0.561  0.0391  0.1630  0.0114
 5701W        W 9445   4.716   6.120   1.631  0.2703 -0.0480  0.0156
 5702W        W 9446   7.277   5.722   2.801 -0.2406 -0.0555  0.1432
 5703W        W 9447   6.343   7.988   4.626 -0.0060  0.1064  0.2694
 5704W        W 9448   4.627   0.723   1.285  0.0427 -0.3529  0.2123
 5705W        W 9449   7.216   6.229  12.088  0.2348  0.1582  0.0148
 5706W        W 9450   4.824   1.441   1.962  0.0569 -0.0888  0.1850
 5707W        W 9451   5.055   0.796   3.713 -0.1502  0.1982 -0.2340
 5708W        W 9452   2.682   2.959   8.021  0.2475 -0.1378  0.1501
 5709W        W 9453   5.912   0.982   9.098  0.2469 -0.0208 -0.1748
 5710W        W 9454   4.577   0.336   4.491  0.0947  0.1187 -0.0546
 5711W        W 9455   1.369   1.105  12.071 -0.1432  0.1033 -0.3177
 5712W        W 9456   6.141   0.607   9.281  0.1074 -0.0402 -0.1272
 5713W        W 9457   8.690   3.963  10.220 -0.2687  0.0027 -0.1989
 5714W        W 9458   0.670   6.812   8.881  0.1599 -0.0727 -0.0186
 5715W        W 9459   7.529   9.803  11.619 -0.1161 -0.0949  0.2783
 5716W        W 9460   9.873   6.390  10.846 -0.0265  0.1185 -0.0922
 5717W        W 9461   2.903   8.330   0.878 -0.0221  0.0472 -0.0501
 5718W        W 9462   1.949   4.128  12.548 -0.1944 -0.0629 -0.2356
 5719W        W 9463   7.797   9.595   3.226 -0.0808 -0.0123 -0.1500
 5720W        W 9464   6.525   1.239   2.098  0.2727  0.0836  0.0578
 5721W        W 9465   2.395   3.012   2.233  0.2207  0.0342 -0.0278
 5722W        W 9466   4.704   3.800   3.365  0.2515 -0.3215  0.3662
 5723W        W 9467   9.032   3.836   9.127  0.1496 -0.1346 -0.0993
 5724W        W 9468   0.110   8.487  12.594  0.4213 -0.1920  0.0298
 5725W        W 9469   0.258   0.696  11.001  0.1548 -0.0013 -0.0563
 5726W        W 9470   1.450   7.858  11.215  0.2710  0.3160  0.0562
 5727W        W 9471   8.643   7.244  11.308  0.1348 -0.1529 -0.0652
 5728W        W 9472   4.720   9.656   2.690  0.0386 -0.0976 -0.1528
 5729W        W 9473   4.507   7.109   4.190 -0.1916  0.0380  0.0125
 5730W        W 9474   0.523   8.760  10.109 -0.2804  0.1853  0.3850
 5731W        W 9475   3.414   0.314   9.293 -0.2240 -0.1695 -0.0790
 5732W        W 9476   8.251   1.192  11.438  0.5759  0.0773  0.0361
 5733W        W 9477   8.741   7.345   1.467  0.0827  0.0135 -0.0280
 5734W        W 9478   7.979   4.187   2.534 -0.2755  0.4210 -0.2743
 5735W        W 9479   1.897   0.025  12.678 -0.1694 -0.0903  0.0296
 5736W        W 9480   9.382   3.242  11.147  0.0322 -0.1277 -0.1183
 5737W        W 9481   5.180   3.189   4.282  0.1195  0.1530 -0.2205
 5738W        W 9482   1.188   7.013   8.803 -0.1319  0.0513 -0.1832
 5739W        W 9483   5.342   3.858   8.803 -0.0319 -0.0763  0.1341
 5740W        W 9484   7.784   9.521   9.992  0.1573  0.1337  0.0329
 5741W        W 9485   6.693   5.846   9.828  0.5046  0.6283  0.0578
 5742W        W 9486   7.766   3.416   2.280 -0.0471  0.2041 -0.3972
 5743W        W 9487   4.961   5.973  11.836 -0.7290 -0.0713 -0.0272
 5744W        W 9488   7.932   1.523   1.556 -0.2052  0.0958  0.0152
 5745W        W 9489   9.683   3.881   2.321 -0.1631  0.0857  0.1885
 5746W        W 9490   0.636   5.487  12.092 -0.3249  0.0172  0.2498
 5747W        W 9491   3.692   3.302   1.922  0.0008  0.1117  0.4975
 5748W        W 9492   6.442   1.641  11.253 -0.1276  0.2495 -0.0256
 5749W        W 9493   0.633   7.488  11.856  0.0997 -0.0700 -0.0269
 5750W        W 9494   0.778   5.787   0.437  0.2174 -0.0139  0.0546
 5751W        W 9495   8.829   3.459   8.883  0.1144 -0.0143  0.1195
 5752W        W 9496   9.741   9.804   3.552 -0.1948  0.0422 -0.0358
 5753W        W 9497   0.790   1.963  10.956  0.0554 -0.0072  0.1984
 5754W        W 9498   1.677   0.879   0.885  0.1809  0.0735  0.2795
 5755W        W 9499   2.069   7.901   8.981  0.4512 -0.4048  0.2614
 5756W        W 9500   4.956   8.988  12.896 -0.1135 -0.4775 -0.2836
 5757W        W 9501   9.395   6.379   3.003 -0.1141  0.1534  0.1542
 5758W        W 9502   7.871   5.133  12.004  0.1947  0.0013  0.3019
 5759W        W 9503   8.656   6.536  10.823  0.0364 -0.1993 -0.0694
 5760W        W 9504   1.934   1.314   1.519 -0.1344 -0.1436  0.1028
 5761W        W 9505   3.877   3.235   9.955  0.0000  0.0835 -0.2760
 5762W        W 9506   8.859   5.633   9.552 -0.2081 -0.0907 -0.2805
 5763W        W 9507   5.015   3.802   1.492  0.0532  0.0273  0.0627
 5764W        W 9508   0.366   8.764   8.309 -0.1167 -0.2095  0.3389
 5765W        W 9509   9.789   0.122  12.542 -0.0848  0.3900 -0.2259
 5766W        W 9510   5.621   3.822   3.084  0.2538  0.2663 -0.3407
 5767W        W 9511   4.397   7.639   4.377 -0.1766 -0.4751  0.0502
 5768W        W 9512   8.137   8.022   7.794  0.1114 -0.0368  0.3592
 5769W        W 9513   6.100   4.283   1.661 -0.1479 -0.0062  0.5281
 5770W        W 9514   0.013   9.760   8.860 -0.1849  0.2367  0.1547
 5771W        W 9515   7.036   4.221   3.806  0.0113  0.1494  0.0838
 5772W        W 9516   5.404   0.160   3.187  0.1465 -0.0865 -0.3001
 5773W        W 9517   3.055   5.347   1.923  0.1204  0.0538 -0.3555
 5774W        W 9518   1.959   0.696   2.227 -0.3343  0.0548  0.2582
 5775W        W 9519   7.116   5.846   1.680 -0.3124 -0.2055  0.2236
 5776W        W 9520   9.054   5.878  11.324  0.0017 -0.3159 -0.5521
 5777W        W 9521   1.047   5.469  12.525  0.0259 -0.2252  0.1761
 5778W        W 9522   7.229   0.222   2.496 -0.1785  0.0475 -0.0397
 5779W        W 9523   1.748   2.628  10.569 -0.1703  0.3336 -0.0152
 5780W        W 9524   9.806   4.801   0.627  0.1564  0.3656 -0.0693
 5781W        W 9525   7.383   7.073   4.356  0.1423  0.1041  0.0453
 5782W        W 9526   5.494   8.848   0.008  0.1121 -0.1796  0.3142
 5783W        W 9527   0.890   9.436   0.098  0.1470 -0.1054 -0.0052
 5784W        W 9528   5.861   9.129  12.666 -0.1733  0.0667 -0.1089
 5785W        W 9529   6.984   2.671   3.681  0.0474 -0.3242 -0.0314
 5786W        W 9530   0.790   2.765   0.099 -0.0349 -0.2218  0.0942
 5787W        W 9531   5.862   5.108  10.621  0.4917 -0.2387 -0.2740
 5788W        W 9532   6.454   7.166   8.829 -0.1369 -0.1157  0.2962
 5789W        W 9533   4.253   0.401  10.283 -0.4536  0.2118 -0.1983
 5790W        W 9534   1.847   6.838  10.867 -0.0330 -0.0523  0.0235
 5791W        W 9535   7.311   2.892  11.854 -0.0147 -0.3697 -0.0188
 5792W        W 9536   5.669   3.429   0.585  0.2273  0.0017  0.0672
 5793W        W 9537   3.072   8.597   9.043  0.0846  0.1633  0.1857
 5794W        W 9538   9.822   9.380   1.461 -0.1369 -0.0732  0.0443
 5795W        W 9539   1.797   7.463   5.104 -0.3714  0.1726  0.0757
 5796W        W 9540   4.325   0.339   0.029 -0.2741  0.2747  0.0130
 5797W        W 9541   4.631   1.042  11.645 -0.0633 -0.2271  0.2395
 5798W        W 9542   8.937   1.035   9.970 -0.4041 -0.2402 -0.0867
 5799W        W 9543   1.269   5.912  11.540  0.0881 -0.1560  0.0820
 5800W        W 9544   6.483   9.575  11.918  0.1157 -0.1891 -0.1298
 5801W        W 9545   8.125   5.662  11.990 -0.2594 -0.0737 -0.2023
 5802W        W 9546   6.808   0.189   3.381  0.1366 -0.2856 -0.1462
 5803W        W 9547   2.146   6.942   3.370  0.0741  0.0709 -0.3622
 5804W        W 9548   7.079   9.731  11.791 -0.0464  0.1732  0.1881
 5805W        W 9549   8.016   8.680   1.134  0.1494  0.3681  0.2448
 5806W        W 9550   5.666   7.279  10.124 -0.0755 -0.0840 -0.1262
 5807W        W 9551   0.436   5.724  11.390 -0.0757  0.1546 -0.3393
 5808W        W 9552   1.315   0.182   9.488  0.0041 -0.1482  0.0600
 5809W        W 9553   6.751   9.661  11.333  0.0016  0.1417  0.0096
 5810W        W 9554   3.013   9.072   9.164  0.2968 -0.1915 -0.0283
 5811W        W 9555   2.108   7.677  12.373 -0.2476 -0.1012  0.1652
 5812W        W 9556   6.779   8.463   4.306  0.1125 -0.1332  0.1533
 5813W        W 9557   6.061   8.833  12.337 -0.1510 -0.0595 -0.0060
 5814W        W 9558   0.464   1.770   0.288  0.2703 -0.1226 -0.1172
 5815W        W 9559   0.566   4.878  12.028 -0.1224  0.0873 -0.0851
 5816W        W 9560   3.724   7.213   2.469  0.1296  0.1501  0.0881
 5817W        W 9561   2.365   9.799  10.248 -0.2749 -0.1955 -0.0669
 5818W        W 9562   4.278   0.124   0.553 -0.0735  0.2944  0.0645
 5819W        W 9563   3.111   3.868   1.693  0.1908 -0.1456 -0.2569
 5820W        W 9564   7.649   6.876   9.609 -0.1564  0.1916  0.0999
 5821W        W 9565   5.216   4.038   1.103 -0.2494 -0.2144 -0.3298
 5822W        W 9566   1.308   4.359   2.405 -0.0291  0.0892  0.0998
 5823W        W 9567   7.511   1.197   0.325 -0.0334 -0.1215  0.2940
 5824W        W 9568   2.572   5.125   3.681 -0.2665 -0.2706 -0.0894
 5825W        W 9569   3.928   7.291  10.765  0.0737 -0.1058 -0.2948
 5826W        W 9570   4.266   4.165   3.475 -0.4764  0.0363  0.2731
 5827W        W 9571   6.259   0.679  12.776 -0.0412 -0.2526 -0.0974
 5828W        W 9572   1.561   0.387   9.113 -0.0973  0.0931  0.1209
 5829W        W 9573   0.517   3.514  11.929  0.3329  0.2115  0.3293
 5830W        W 9574   5.119   6.895   1.703  0.1612  0.0756  0.0889
 5831W        W 9575   6.285   8.172   0.920  0.0181  0.0562 -0.1833
 5832W        W 9576   5.771   3.990   2.569  0.0126 -0.2446  0.1992
 5833W        W 9577   4.793   4.801   9.683  0.2372 -0.1554  0.1905
 5834W        W 9578   7.050   7.341   9.515  0.2321 -0.0333 -0.1355
 5835W        W 9579   0.180   3.344   4.318  0.2533 -0.2509 -0.1192
 5836W        W 9580   7.087   8.442  11.162  0.0387  0.1594  0.3027
 5837W        W 9581   4.274   9.878   9.187 -0.2393 -0.3448 -0.4779
 5838W        W 9582   0.148   4.007  11.845 -0.1068  0.2050 -0.0970
 5839W        W 9583   0.812   5.078  11.155 -0.0832  0.0076 -0.0902
 5840W        W 9584   9.367   0.908  11.772  0.0508  0.1135  0.1820
 5841W        W 9585   9.884   2.720   2.840 -0.3342  0.0165  0.0136
 5842W        W 9586   3.025   2.947  12.971 -0.2112 -0.1928  0.4052
 5843W        W 9587   4.426   5.762  12.088 -0.2867 -0.1318  0.1942
 5844W        W 9588   0.544   9.364   1.495  0.1597 -0.1968 -0.0412
 5845W        W 9589   8.165   4.499  11.354  0.0682  0.0862 -0.1190
 5846W        W 9590   2.081   6.318  10.000  0.0106  0.1904  0.1680
 5847W        W 9591   3.472   1.369   1.687 -0.1456 -0.1364  0.4007
 5848W        W 9592   4.721   5.865  10.911 -0.1700  0.2860  0.1587
 5849W        W 9593   8.380   0.994   0.256 -0.4525  0.0386  0.3605
 5850W        W 9594   2.092   2.353   1.811 -0.0028 -0.0123 -0.1284
 5851W        W 9595   6.251   9.674   4.030 -0.3137  0.2552  0.3149
 5852W        W 9596   4.026   8.254  11.791 -0.0303  0.0662  0.0626
 5853W        W 9597   4.665   0.106   3.668 -0.0969  0.0436 -0.0657
 5854W        W 9598   9.367   8.597   9.439 -0.2941  0.0944  0.0512
 5855W        W 9599   1.509   9.284   1.593  0.0830  0.0203  0.0709
 5856W        W 9600   5.565   9.801   1.931 -0.1916  0.0721  0.0940
 5857W        W 9601   9.658   8.500   4.247  0.0154  0.2550 -0.3571
 5858W        W 9602   5.761   7.750   4.424 -0.2377  0.3197 -0.0695
 5859W        W 9603   2.135   2.872   4.001 -0.4198 -0.0586 -0.1188
 5860W        W 9604   3.159   1.672   1.201  0.2821  0.2476  0.0605
 5861W        W 9605   9.504   3.007   1.911  0.3210 -0.0470 -0.1234
 5862W        W 9606   7.479   2.535   0.726 -0.0382  0.3441 -0.2029
 5863W        W 9607   3.602   7.669  10.081 -0.1438 -0.0277  0.0885
 5864W        W 9608   0.008   3.026   9.910 -0.0667 -0.1347 -0.0033
 5865W        W 9609   9.758   9.775  11.091  0.3095  0.1708 -0.0771
 5866W        W 9610   5.321   3.865  10.272  0.2507  0.1086  0.1480
 5867W        W 9611   9.302   6.027   2.087  0.2963 -0.1042 -0.0917
 5868W        W 9612   8.222   6.222  10.097 -0.1359 -0.0539 -0.0592
 5869W        W 9613   1.731   2.100   3.283 -0.0689  0.1529  0.0340
 5870W        W 9614   9.353   3.828   8.206 -0.0051  0.0551 -0.2081
 5871W        W 9615   1.438   2.726   4.221  0.0572 -0.2743  0.0317
 5872W        W 9616   4.426   1.354   3.285  0.0114 -0.1640 -0.0913
 5873W        W 9617   9.124   2.937   9.480  0.3979  0.0215  0.0700
 5874W        W 9618   4.843   5.368   1.542 -0.1614 -0.1313 -0.2702
 5875W        W 9619   6.090   5.808   4.068  0.0340  0.1321  0.0908
 5876W        W 9620   9.407   8.755  12.009 -0.1267 -0.0087 -0.2428
 5877W        W 9621   7.544   5.322   9.597 -0.3612 -0.0687  0.2367
 5878W        W 9622   2.671   4.670   0.757 -0.2353  0.0081 -0.1582
 5879W        W 9623   6.670   8.233   2.852  0.1830  0.3071 -0.3876
 5880W        W 9624   4.710   8.920   2.454 -0.0487 -0.1506 -0.1433
 5881W        W 9625   1.871   2.559   1.350 -0.0375  0.2167  0.0713
 5882W        W 9626   2.232   9.062   8.718  0.0855  0.0920  0.3743
 5883W        W 9627   7.947   5.478   0.404 -0.1837 -0.3343 -0.1338
 5884W        W 9628   0.545   4.267   3.916  0.1452 -0.0160 -0.0120
 5885W        W 9629   5.345   6.520   0.021 -0.1263  0.0216 -0.1583
 5886W        W 9630   5.320   8.054   4.486 -0.0183 -0.1692 -0.0847
 5887W        W 9631   4.133   1.326  11.500 -0.4072 -0.0262 -0.4529
 5888W        W 9632   1.465   8.372   9.026 -0.0662 -0.2209 -0.0850
 5889W        W 9633   7.747   6.119  12.694 -0.0740 -0.1318 -0.2570
 5890W        W 9634   3.988   7.682   9.174 -0.0224  0.1718 -0.0027
 5891W        W 9635   9.722   2.423  12.967  0.3925 -0.2262  0.2309
 5892W        W 9636   8.125   9.822  10.915  0.2612  0.0841 -0.1289
 5893W        W 9637   2.876   9.773  10.325 -0.0542 -0.2430 -0.1896
 5894W        W 9638   8.895   0.235  10.455 -0.2629 -0.2416  0.2167
 5895W        W 9639   6.507   8.597   0.683  0.0850  0.2509  0.2829
 5896W        W 9640   0.306   9.293  10.006  0.0848  0.3576 -0.0401
 5897W        W 9641   6.816   0.748  11.053  0.2927 -0.1089 -0.0801
 5898W        W 9642   1.322   7.480  10.916 -0.1338  0.0622 -0.2230
 5899W        W 9643   7.808   1.551   1.020 -0.2641 -0.1104  0.0697
 5900W        W 9644   2.884   1.392  11.656  0.1085  0.0140 -0.0390
 5901W        W 9645   4.248   6.731  11.800  0.2226  0.0998  0.1739
 5902W        W 9646   3.687   8.707   7.789 -0.0806 -0.0042  0.0925
 5903W        W 9647   8.345   7.655   2.551 -0.0281  0.4056 -0.0014
 5904W        W 9648   4.586   7.150  11.783  0.2850 -0.1088  0.1357
 5905W        W 9649   1.806   6.809   1.310  0.3639  0.1639  0.0750
 5906W        W 9650   5.403   7.200   4.987 -0.1804  0.3159  0.2040
 5907W        W 9651   5.028   3.111   2.762  0.0054 -0.0788  0.2072
 5908W        W 9652   4.134   3.420   0.903  0.0173 -0.0556 -0.1982
 5909W        W 9653   0.599   0.822   3.053  0.1377 -0.3938 -0.1320
 5910W        W 9654   1.998   1.063  10.775  0.1071 -0.0576  0.0427
 5911W        W 9655   5.433   7.676  10.337 -0.1566 -0.1493  0.2902
 5912W        W 9656   6.990   3.432  10.529 -0.3107 -0.2718 -0.0732
 5913W        W 9657   0.516   8.612   9.549  0.0647  0.0612  0.0913
 5914W        W 9658   1.935   6.708   0.279  0.0120  0.2556  0.1118
 5915W        W 9659   9.668   1.472   2.498 -0.2104 -0.1107 -0.2838
 5916W        W 9660   7.183   5.271   0.796  0.2154  0.0509  0.0608
 5917W        W 9661   5.473   2.258   1.135 -0.0200  0.1045 -0.2388
 5918W        W 9662   7.515   7.588  12.078 -0.0294 -0.0251  0.2161
 5919W        W 9663   1.456   3.920  12.795 -0.0019 -0.2904 -0.2738
 5920W        W 9664   6.693   7.121  10.142 -0.0895 -0.1985 -0.1978
 5921W        W 9665   4.617   1.350  10.240 -0.2112  0.0343 -0.2435
 5922W        W 9666   3.830   3.989   4.425  0.1329  0.1434 -0.1434
 5923W        W 9667   1.812   8.831   1.614  0.1062 -0.0666 -0.0327
 5924W        W 9668   1.307   2.064   1.345  0.0986 -0.0670 -0.1861
 5925W        W 9669   4.926   8.242   1.611 -0.0787  0.0788  0.0620
 5926W        W 9670   4.092   1.922   9.548  0.3130  0.2805 -0.0871
 5927W        W 9671   7.638   7.447   9.304  0.1130 -0.1910 -0.1632
 5928W        W 9672   0.636   3.503   0.130 -0.1070 -0.2343  0.0278
 5929W        W 9673   7.450   3.812   2.578 -0.0011  0.1349  0.1085
 5930W        W 9674   4.333   7.417  12.647  0.1044  0.2192  0.0781
 5931W        W 9675   6.394   9.772  10.740  0.1667 -0.2006  0.4602
 5932W        W 9676   3.890   9.002   8.740  0.0107  0.3214  0.3162
 5933W        W 9677   0.044   6.205  12.004  0.3015  0.2632 -0.2181
 5934W        W 9678   7.297   4.663  12.007  0.0786  0.2877 -0.0316
 5935W        W 9679   3.272   0.492   3.568  0.0050  0.0069 -0.0467
 5936W        W 9680   9.694   2.769   9.099  0.0159  0.3123 -0.0600
 5937W        W 9681   1.463   4.937   3.297  0.2021  0.2722  0.1176
 5938W        W 9682   0.550   0.277  11.161 -0.1047  0.0739 -0.1104
 5939W        W 9683   8.176   8.621   3.645 -0.1486 -0.3716  0.3693
 5940W        W 9684   3.122   4.109   1.249 -0.0341  0.2946  0.1686
 5941W        W 9685   1.242   3.358   0.454  0.0259 -0.0380 -0.0304
 5942W        W 9686   0.897   1.788   1.546  0.2064  0.1341  0.2952
 5943W        W 9687   3.990   0.758  10.055  0.1256 -0.1563 -0.0221
 5944W        W 9688   8.921   7.355   3.916  0.1186  0.1249 -0.0714
 5945W        W 9689   2.399   0.579   1.188  0.0070 -0.1746 -0.1328
 5946W        W 9690   9.154   4.785   1.480 -0.1215 -0.1249 -0.0201
 5947W        W 9691   6.855   8.200   3.364 -0.0892 -0.1441  0.1656
 5948W        W 9692   0.981   3.019   1.404 -0.0498 -0.0104  0.2952
 5949W        W 9693   8.127   9.345  11.117  0.0105  0.1945 -0.0495
 5950W        W 9694   4.968   1.819   0.291  0.0505 -0.0604 -0.3269
 5951W        W 9695   4.440   7.369   9.583  0.1121 -0.0241  0.0059
 5952W        W 9696   9.049   4.730   9.144  0.4166  0.2907  0.0560
 5953W        W 9697   7.565   6.844   2.340 -0.1974  0.1727  0.1585
 5954W        W 9698   2.621   2.839   4.158  0.2023 -0.2074 -0.0050
 5955W        W 9699   1.588   3.462  11.871  0.1248 -0.3510 -0.1263
 5956W        W 9700   5.592   3.616   9.238 -0.1742  0.2349 -0.0554
 5957W        W 9701   1.841   4.059  11.875  0.2140  0.3952 -0.3228
 5958W        W 9702   1.059   7.499   3.353 -0.1177  0.3044  0.3007
 5959W        W 9703   9.051   9.157   3.952 -0.0059 -0.0227 -0.0487
 5960W        W 9704   0.679   4.121  10.173 -0.1345  0.1063  0.1979
 5961W        W 9705   3.428   4.499   1.212  0.0433 -0.0359 -0.3613
 5962W        W 9706   9.496   6.340   3.551  0.0997  0.2256 -0.1344
 5963W        W 9707   9.004   1.755  11.721  0.1265 -0.0700 -0.0945
 5964W        W 9708   0.930   7.406   1.131 -0.0562  0.1433  0.2290
 5965W        W 9709   9.121   2.734   1.492 -0.2208 -0.2663 -0.0614
 5966W        W 9710   1.572   8.795  12.747 -0.2260 -0.2015 -0.0375
 5967W        W 9711   3.986   6.682   3.145 -0.2233  0.2874 -0.0301
 5968W        W 9712   9.834   4.536  12.678 -0.1585 -0.1652 -0.3634
 5969W        W 9713   0.897   8.842  10.591 -0.1999  0.0890  0.2496
 5970W        W 9714   1.495   5.608  10.601  0.1302 -0.0373  0.1710
 5971W        W 9715   4.189   0.196   2.469 -0.0806  0.0653 -0.2242
 5972W        W 9716   5.923   1.160  10.363 -0.0166 -0.0805  0.0344
 5973W        W 9717   0.792   7.859   4.620  0.0769  0.3047  0.0449
 5974W        W 9718   5.008   2.086  12.390  0.0600 -0.1540 -0.2035
 5975W        W 9719   2.702   3.157   4.927 -0.3087 -0.1931  0.0323
 5976W        W 9720   6.155   8.388  12.635  0.0925  0.3362 -0.0365
 5977W        W 9721   6.585   0.102   9.897  0.1383  0.2053  0.1003
 5978W        W 9722   6.522   3.133  11.934 -0.4111 -0.0506 -0.2580
 5979W        W 9723   1.455   5.112   0.658 -0.2116 -0.1498 -0.1992
 5980W        W 9724   8.024   9.119   1.475  0.2474 -0.2472  0.0289
 5981W        W 9725   1.274   8.511   4.133 -0.1062  0.0396  0.3661
 5982W        W 9726   2.395   8.532   3.567  0.0912 -0.0303  0.1151
 5983W        W 9727   4.938   6.973   4.784  0.0149 -0.2379  0.1282
 5984W        W 9728   0.168   9.461  12.042 -0.5164 -0.0066 -0.2185
 5985W        W 9729   6.039   5.252   9.280  0.1931 -0.3911 -0.0961
 5986W        W 9730   6.607   4.784  12.027 -0.0093  0.3482  0.0397
 5987W        W 9731   5.756   1.425   2.274  0.4200 -0.1209  0.4678
 5988W        W 9732   0.588   2.786   1.667 -0.0910 -0.1790  0.0504
 5989W        W 9733   4.951   7.901   9.200 -0.0783 -0.0763  0.1406
 5990W        W 9734   4.228   0.193   3.309  0.0623  0.4224  0.1081
 5991W        W 9735   1.356   8.742   9.464  0.0071  0.1658 -0.1119
 5992W        W 9736   4.035   5.022  11.886  0.0615  0.1384  0.0208
 5993W        W 9737   5.592   8.746   0.549 -0.1601  0.1102  0.0797
 5994W        W 9738   6.927   8.629   2.043 -0.1472  0.4073 -0.5011
 5995W        W 9739   1.844   4.668   4.118  0.0424 -0.0380  0.0926
 5996W        W 9740   3.447   2.279  10.248  0.2591  0.3142 -0.1751
 5997W        W 9741   5.185   1.319   0.736 -0.2765  0.0529 -0.0316
 5998W        W 9742   4.748   6.644   8.425  0.1289 -0.0298  0.3182
 5999W        W 9743   3.610   0.369   0.628  0.4580 -0.1088  0.1982
 6000W        W 9744   9.774   6.388  11.439 -0.2994  0.1997 -0.1363
 6001W        W 9745   6.003   5.463   2.700 -0.1122  0.0337 -0.2119
 6002W        W 9746   0.638   5.156  10.673 -0.2884  0.1840 -0.0430
 6003W        W 9747   4.796   2.312   0.615  0.4142 -0.0031  0.3718
 6004W        W 9748   3.708   7.331  11.350 -0.1307  0.0557  0.5219
 6005W        W 9749   8.807   2.946  10.898 -0.0291  0.0684 -0.2749
 6006W        W 9750   4.484   1.988  11.010  0.1367  0.1817  0.0728
 6007W        W 9751   5.158   7.742   2.929 -0.2322  0.0527 -0.2898
 6008W        W 9752   4.319   5.569   0.445  0.1220  0.0366  0.4280
 6009W        W 9753   3.152   9.440   2.342 -0.0511 -0.0630  0.1811
 6010W        W 9754   6.568   3.529  10.873 -0.1455  0.1652 -0.0447
 6011W        W 9755   5.118   0.702  10.055 -0.0546  0.0572 -0.3272
 6012W        W 9756   1.586   0.097  11.879 -0.0940  0.0602 -0.3875
 6013W        W 9757   0.149   6.235   3.318  0.0271  0.2038  0.0525
 6014W        W 9758   3.390   3.052   9.135  0.2245 -0.0558  0.2191
 6015W        W 9759   2.301   4.016   9.359  0.1595  0.1045  0.1513
 6016W        W 9760   9.361   4.311   2.252  0.4792  0.0989 -0.2346
 6017W        W 9761   4.194   5.312   9.437  0.1787 -0.0943 -0.1503
 6018W        W 9762   3.146   9.116   8.226  0.2715 -0.0047 -0.0691
 6019W        W 9763   4.332   5.015   9.789 -0.1150 -0.0570 -0.3306
 6020W        W 9764   2.239   8.116   4.300  0.1681  0.0435 -0.1264
 6021W        W 9765   8.981   6.572   3.639  0.0569 -0.2850 -0.2411
 6022W        W 9766   9.357   3.674   9.554 -0.1396  0.0192  0.0558
 6023W        W 9767   2.500   1.872  12.570  0.1977 -0.0195  0.0544
 6024W        W 9768   1.842   0.039  11.060  0.1051 -0.0144 -0.0652
 6025W        W 9769   9.709   2.442   3.324 -0.0705  0.1005 -0.1257
 6026W        W 9770   2.632   0.963   4.247  0.3069  0.2505  0.2559
 6027W        W 9771   5.467   5.484   9.340  0.0178  0.2616 -0.0403
 6028W        W 9772   4.084   5.660   2.642  0.2106  0.1110  0.2110
 6029W        W 9773   4.229   8.739   3.244 -0.0526 -0.1863  0.2286
 6030W        W 9774   7.579   1.118  12.525 -0.0095  0.0885  0.0512
 6031W        W 9775   4.078   9.051   0.765  0.0196  0.0445 -0.0618
 6032W        W 9776   1.631   1.871   2.041  0.2206 -0.0217  0.1262
 6033W        W 9777   2.973   5.365   0.074 -0.2285 -0.2580 -0.1916
 6034W        W 9778   0.187   6.209  12.919 -0.1381  0.1885 -0.1340
 6035W        W 9779   1.076   9.140   0.988  0.0758  0.3096 -0.0535
 6036W        W 9780   4.788   3.988   8.647 -0.0508  0.0120 -0.1283
 6037W        W 9781   6.135   6.457  11.838  0.2142  0.0082 -0.0957
 6038W        W 9782   5.617   1.298  12.926  0.0387  0.1876 -0.0105
 6039W        W 9783   3.406   7.403   9.241  0.2075 -0.0957 -0.0683
 6040W        W 9784   4.171   5.785  10.806 -0.1047 -0.3516 -0.0972
 6041W        W 9785   5.566   6.084   8.996  0.1474  0.2658  0.2093
 6042W        W 9786   9.500   8.589  12.884  0.0703 -0.1189 -0.0710
 6043W        W 9787   5.833   1.582  10.741  0.2265  0.1385  0.0505
 6044W        W 9788   7.920   8.938   9.254  0.2771  0.0373  0.1177
 6045W        W 9789   5.989   6.561  10.409  0.2910 -0.0015  0.1048
 6046W        W 9790   4.677   2.023   4.433  0.4416  0.0531  0.4192
 6047W        W 9791   9.466   0.581   1.659 -0.2610  0.2307  0.2826
 6048W        W 9792   4.450   1.433  12.644  0.0431 -0.0405 -0.1427
 6049W        W 9793   1.921   9.705   3.695  0.1038  0.0240  0.0072
 6050W        W 9794   2.701   7.420   2.174 -0.1647 -0.1814  0.1161
 6051W        W 9795   2.567   8.213  12.563  0.1993  0.1585 -0.1460
 6052W        W 9796   5.044   3.581  12.273  0.1387 -0.0266  0.1682
 6053W        W 9797   9.485   2.441  11.573 -0.1017  0.1522 -0.2455
 6054W        W 9798   7.944   7.128   0.025 -0.2091 -0.1628 -0.0248
 6055W        W 9799   1.904   2.681   3.071  0.2677 -0.1732  0.0219
 6056W        W 9800   9.269   0.852   0.584 -0.1520  0.1567  0.1698
 6057W        W 9801   0.025   7.537   2.727 -0.1634 -0.0019  0.2977
 6058W        W 9802   5.732   2.260   1.824  0.1047  0.0145 -0.3186
 6059W        W 9803   2.397   5.512  10.952 -0.2207 -0.2492 -0.0070
 6060W        W 9804   4.903   6.178   3.572 -0.0002  0.0006  0.0340
 6061W        W 9805   1.188   2.528   9.573  0.2410  0.2314  0.1642
 6062W        W 9806   5.356   7.781  10.856  0.1689 -0.0694 -0.0124
 6063W        W 9807   1.345   8.717   0.197 -0.0592  0.1416 -0.1663
 6064W        W 9808   8.750   8.904  11.575  0.4457  0.1850 -0.0020
 6065W        W 9809   1.369   9.511   8.813 -0.2114 -0.3880  0.0689
 6066W        W 9810   2.008   7.763   4.776 -0.1438  0.0802 -0.1326
 6067W        W 9811   3.073   8.904   1.603 -0.2531  0.0113  0.0307
 6068W        W 9812   5.391   6.911   3.168  0.0819  0.0786 -0.0384
 6069W        W 9813   1.538   2.530   8.742 -0.0888 -0.3351 -0.0998
 6070W        W 9814   0.252   2.942   0.904 -0.0402 -0.4361  0.1229
 6071W        W 9815   1.346   1.673  12.372  0.2306 -0.2374  0.1797
 6072W        W 9816   4.005   3.585   4.202  0.3454 -0.1618  0.0766
 6073W        W 9817   5.195   4.813   1.012  0.2093 -0.0019 -0.3051
 6074W        W 9818   8.676   8.077   3.488 -0.1927 -0.1093  0.2406
 6075W        W 9819   6.371   7.183   4.822 -0.0186 -0.3068  0.2224
 6076W        W 9820   2.342   3.400   1.868 -0.0498 -0.0464 -0.2626
 6077W        W 9821   2.176   3.300  11.712  0.1521  0.2336 -0.0875
 6078W        W 9822   8.851   2.968   3.154 -0.1727  0.0056  0.0722
 6079W        W 9823   7.432   5.786  12.750 -0.3128  0.1004 -0.1234
 6080W        W 9824   3.319   6.389   9.125  0.0294  0.4783  0.3796
 6081W        W 9825   6.149   2.835  12.422 -0.0395 -0.0474  0.0672
 6082W        W 9826   0.086   1.208   9.689 -0.0769  0.0507 -0.2463
 6083W        W 9827   3.158   5.799   1.903 -0.2149 -0.0910  0.0753
 6084W        W 9828   7.069   5.073   4.074  0.0586 -0.1589  0.0448
 6085W        W 9829   6.646   4.957   9.919  0.3040  0.3183  0.2457
 6086W        W 9830   5.624   3.412   1.952  0.3238 -0.0002 -0.0083
 6087W        W 9831   1.050   8.637   9.067  0.2398 -0.2240  0.1152
 6088W        W 9832   0.714   8.514   8.696  0.3495  0.1459  0.2312
 6089W        W 9833   7.980   8.878   2.002 -0.0764  0.0627 -0.0525
 6090W        W 9834   1.964   6.318   9.441  0.1493  0.2547 -0.0109
 6091W        W 9835   9.124   5.003   0.931  0.1752 -0.2637  0.3020
 6092W        W 9836   8.496   2.193  11.227  0.1512 -0.4166 -0.0530
 6093W        W 9837   6.019   7.538  11.495  0.0537 -0.1527 -0.1128
 6094W        W 9838   8.684   5.538  11.080 -0.0372 -0.0264 -0.1484
 6095W        W 9839   4.976   8.083  11.930 -0.2145 -0.0765  0.0356
 6096W        W 9840   2.437   9.863  12.190 -0.2249  0.0247  0.1054
 6097W        W 9841   1.984   5.105   4.641  0.1608 -0.1242  0.0595
 6098W        W 9842   8.569   9.664  11.118 -0.0306  0.0016  0.0037
 6099W        W 9843   7.769   1.306  12.091 -0.2618  0.2615 -0.5156
 6100W        W 9844   6.601   2.959   1.529 -0.0512 -0.2412 -0.0406
 6101W        W 9845   8.782   0.947   0.711 -0.2009 -0.1068 -0.1613
 6102W        W 9846   5.197   6.326   1.414 -0.2299  0.1131 -0.4904
 6103W        W 9847   8.855   3.344   3.557 -0.1438  0.2277 -0.0570
 6104W        W 9848   6.392   1.248   0.591 -0.1890  0.0912  0.1019
 6105W        W 9849   7.327   8.855   0.647  0.0367  0.0907  0.1413
 6106W        W 9850   9.643   4.276   2.717 -0.1780 -0.0977 -0.3136
 6107W        W 9851   2.582   1.839   3.141  0.0927  0.2311  0.1478
 6108W        W 9852   7.677   8.707   1.649  0.2585 -0.0655  0.1593
 6109W        W 9853   2.584   2.623   1.764 -0.0166  0.2998  0.0290
 6110W        W 9854   2.515   0.543  11.115 -0.0646 -0.0191  0.0213
 6111W        W 9855   1.381   1.016  10.464  0.1715 -0.1914  0.0756
 6112W        W 9856   7.401   8.002   4.722  0.0386 -0.0492  0.1069
 6113W        W 9857   4.891   6.751  10.222  0.1113  0.4076  0.0104
 6114W        W 9858   6.247   0.594   0.294 -0.0547 -0.0904 -0.0597
 6115W        W 9859   2.920   1.351   4.019  0.0543 -0.0375 -0.0775
 6116W        W 9860   4.067   3.523  10.855  0.1453 -0.1140 -0.2161
 6117W        W 9861   1.174   7.369   0.687 -0.2423 -0.3726  0.0930
 6118W        W 9862   9.352   6.936  11.454  0.1806 -0.2197 -0.0212
 6119W        W 9863   4.343   7.191   1.052 -0.1190 -0.0055  0.2437
 6120W        W 9864   8.486   8.272   8.562  0.1166 -0.2146  0.0247
 6121W        W 9865   2.780   4.671   3.495  0.2113 -0.2635 -0.1570
 6122W        W 9866   8.203   8.371  12.640 -0.0725  0.0191 -0.0811
 6123W        W 9867   8.445   5.449   1.868 -0.2245 -0.2888 -0.0374
 6124W        W 9868   0.809   1.151   2.647  0.1132 -0.0055  0.2105
 6125W        W 9869   4.814   2.975   2.301 -0.0784 -0.3292  0.1465
 6126W        W 9870   3.141   7.684   2.002  0.1563 -0.0219  0.3458
 6127W        W 9871   9.692   0.692  11.312  0.0033  0.2315  0.1162
 6128W        W 9872   5.530   9.881  10.297 -0.0627 -0.2624  0.1914
 6129W        W 9873   5.097   8.581   9.558 -0.2418 -0.2455  0.3514
 6130W        W 9874   3.184   6.301   3.964 -0.0864 -0.1435  0.0850
 6131W        W 9875   4.166   9.447  12.034 -0.1986  0.1417  0.0048
 6132W        W 9876   6.866   2.671  11.904 -0.1181  0.3336 -0.1859
 6133W        W 9877   4.946   8.760  11.509 -0.0474  0.2245 -0.0202
 6134W        W 9878   8.401   4.537   0.261 -0.2855 -0.0384  0.1930
 6135W        W 9879   0.253   6.667  12.225 -0.1520 -0.0937 -0.0866
 6136W        W 9880   0.624   8.636  10.925  0.3752  0.0091 -0.1830
 6137W        W 9881   5.645   7.864   0.246  0.2267 -0.0600 -0.1614
 6138W        W 9882   4.090   5.294   4.479 -0.1034  0.0154 -0.1371
 6139W        W 9883   8.968   8.368   2.439  0.2883  0.1170  0.2321
 6140W        W 9884   0.409   5.330   9.924 -0.0554  0.3740 -0.0598
 6141W        W 9885   2.427   1.228  10.540 -0.0114  0.0310  0.2640
 6142W        W 9886   1.504   7.540  11.611 -0.0294  0.0223  0.2252
 6143W        W 9887   0.964   5.464   3.400  0.0135 -0.0225  0.2530
 6144W        W 9888   3.680   3.159   1.103 -0.1271 -0.0165 -0.3834
 6145W        W 9889   8.708   2.182   1.153 -0.0891  0.1529 -0.0902
 6146W        W 9890   4.257   8.014   4.723  0.0472 -0.2126 -0.0405
 6147W        W 9891   1.868   2.497   3.921 -0.0953 -0.0851 -0.0080
 6148W        W 9892   7.669   7.884   2.030  0.0925  0.0428  0.1719
 6149W        W 9893   7.117   1.852  12.115  0.3185 -0.0904 -0.3916
 6150W        W 9894   5.928   0.775  12.060 -0.0942 -0.0321 -0.0177
 6151W        W 9895   7.402   4.662  12.539  0.0629 -0.1594 -0.2804
 6152W        W 9896   6.995   4.524  11.669 -0.1285 -0.0112  0.2425
 6153W        W 9897   3.598   1.431  11.230 -0.2533 -0.1069  0.3674
 6154W        W 9898   0.830   4.659   9.322  0.1830  0.0656 -0.0958
 6155W        W 9899   5.681   3.417  10.293  0.1820  0.0474  0.1261
 6156W        W 9900   8.790   7.729  11.331  0.0267 -0.0390  0.0221
 6157W        W 9901   9.070   3.771   1.473 -0.2054 -0.0646 -0.1256
 6158W        W 9902   4.426   1.792   2.393  0.1146  0.1873  0.0403
 6159W        W 9903   7.948   4.552   2.853 -0.2946  0.0151 -0.1372
 6160W        W 9904   2.000   1.142   3.515  0.0084 -0.1159  0.3792
 6161W        W 9905   0.021   7.523   4.042 -0.1559  0.3232 -0.1315
 6162W        W 9906   7.912   3.231   3.282  0.1394 -0.3006  0.1428
 6163W        W 9907   3.613   1.937  12.504 -0.1071 -0.0104  0.1438
 6164W        W 9908   4.902   2.758   1.478 -0.1375  0.3791 -0.2790
 6165W        W 9909   8.006   7.417   2.096 -0.0200 -0.0123 -0.1232
 6166W        W 9910   2.358   9.282  12.068  0.3524 -0.0109 -0.0763
 6167W        W 9911   2.814   4.102   9.383 -0.1562  0.0730  0.2966
 6168W        W 9912   0.237   6.137   3.785 -0.1204 -0.0729 -0.1027
 6169W        W 9913   1.576   0.026   2.319  0.1553 -0.2556  0.0230
 6170W        W 9914   5.236   8.103   9.594 -0.3716  0.2368  0.1036
 6171W        W 9915   5.505   8.926   1.047  0.0308  0.0407  0.1091
 6172W        W 9916   1.295   8.988  10.151  0.0678  0.2921 -0.2438
 6173W        W 9917   1.311   5.522   1.667  0.0308  0.4721  0.2009
 6174W        W 9918   5.904   0.673   4.165 -0.1670 -0.0238 -0.0865
 6175W        W 9919   5.060   0.720  11.434  0.1616 -0.0417  0.0973
 6176W        W 9920   3.152   5.560   9.507 -0.0369 -0.0769 -0.2074
 6177W        W 9921   7.818   4.026  12.204 -0.0756  0.2647 -0.0414
 6178W        W 9922   3.590   1.533  12.162  0.0927 -0.3455  0.0768
 6179W        W 9923   5.464   8.482   3.518  0.0306 -0.0177  0.2084
 6180W        W 9924   8.371   1.954   2.109  0.1389 -0.1500 -0.2293
 6181W        W 9925   2.408   2.115  10.290  0.0891 -0.2648 -0.0305
 6182W        W 9926   5.692   5.030  11.585 -0.0789 -0.3950 -0.1147
 6183W        W 9927   7.931   6.465  12.407 -0.1123  0.1721  0.1259
 6184W        W 9928   3.934   4.115   2.068  0.0440 -0.0160  0.1166
 6185W        W 9929   3.836   8.324  10.709 -0.0911  0.2932 -0.3391
 6186W        W 9930   3.722   8.494   1.323 -0.0696  0.2541 -0.1040
 6187W        W 9931   4.636   7.881   0.307 -0.0014  0.1059  0.4328
 6188W        W 9932   7.944   8.902   9.771 -0.1260  0.0829  0.1096
 6189W        W 9933   6.257   5.496  12.089 -0.2188  0.2164  0.1938
 6190W        W 9934   3.515   4.280   3.673 -0.2573 -0.2167  0.1257
 6191W        W 9935   3.625   3.082  11.671  0.2983  0.1267 -0.1599
 6192W        W 9936   5.183   1.338   0.128 -0.1624  0.3767 -0.0789
 6193W        W 9937   3.803   6.449   9.241  0.1732 -0.3782 -0.0912
 6194W        W 9938   2.250   8.648   9.683  0.0067 -0.2477 -0.0102
 6195W        W 9939   8.043   5.309  11.099 -0.0422  0.1385 -0.1325
 6196W        W 9940   4.979   5.257   9.041 -0.0050 -0.0502 -0.1714
 6197W        W 9941   7.449   3.706  12.073  0.1379 -0.1985 -0.2965
 6198W        W 9942   0.942   5.877   1.768 -0.0666 -0.1709  0.0774
 6199W        W 9943   2.460   7.366   3.843 -0.1382 -0.0154  0.0547
 6200W        W 9944   4.598   0.981   9.284  0.0496 -0.0384 -0.1602
 6201W        W 9945   7.857   4.150   1.584  0.0805  0.0320  0.3274
 6202W        W 9946   3.635   2.043  11.529  0.1374  0.0990 -0.2521
 6203W        W 9947   1.991   5.544   2.627  0.1096 -0.0366  0.2838
 6204W        W 9948   5.957   8.028   3.465  0.0312  0.1255 -0.0269
 6205W        W 9949   3.065   4.170   3.951  0.2428 -0.3253 -0.0931
 6206W        W 9950   5.679   2.414   2.578  0.0147 -0.3877  0.1849
 6207W        W 9951   1.752   5.892  11.453  0.1615  0.0110 -0.3726
 6208W        W 9952   2.582   6.239   3.886  0.1999  0.0593  0.0819
 6209W        W 9953   4.858   2.001   2.854 -0.1217 -0.1172  0.0707
 6210W        W 9954   0.515   8.984  11.254 -0.1641  0.0416 -0.2179
 6211W        W 9955   7.341   1.818   2.870 -0.0132  0.2884  0.1164
 6212W        W 9956   6.601   4.246   2.567 -0.2311  0.3066  0.2333
 6213W        W 9957   5.939   0.240   3.279  0.3787  0.2172 -0.1606
 6214W        W 9958   6.660   2.190   1.003 -0.0482  0.1055 -0.1580
 6215W        W 9959   8.978   0.335   1.477 -0.0461  0.0317 -0.1438
 6216W        W 9960   3.602   4.512  11.970  0.2868 -0.0252  0.0979
 6217W        W 9961   6.813   4.730   0.497 -0.0108  0.3103  0.1346
 6218W        W 9962   2.668   2.947  11.773 -0.0920  0.0832  0.2337
 6219W        W 9963   5.454   0.490   1.727 -0.0789 -0.0989  0.0264
 6220W        W 9964   3.545   8.496   2.296  0.2645  0.0622  0.4324
 6221W        W 9965   6.605   4.416   3.027 -0.2829 -0.1751  0.0069
 6222W        W 9966   7.106   4.566   0.886  0.3424  0.0712 -0.0914
 6223W        W 9967   0.311   1.462   9.324 -0.0432 -0.1385  0.2406
 6224W        W 9968   6.435   4.941   9.410 -0.0868 -0.1290 -0.2866
 6225W        W 9969   5.034   7.810  10.002  0.2633  0.1152  0.1210
 6226W        W 9970   4.156   9.066  10.241 -0.1616  0.2284  0.0600
 6227W        W 9971   2.689   0.133   0.287 -0.2643 -0.3843  0.0638
 6228W        W 9972   9.431   1.657  10.382 -0.2060  0.0338 -0.0230
 6229W        W 9973   4.084   9.301   3.169  0.1700 -0.0559  0.0134
 6230W        W 9974   5.922   1.359   0.387  0.0454  0.2069  0.0056
 6231W        W 9975   1.685   0.825  10.015  0.0306 -0.0770  0.1068
 6232W        W 9976   2.124   0.965  10.152 -0.0762 -0.3892 -0.1488
 6233W        W 9977   1.882   5.493   4.376 -0.1501 -0.0917  0.0745
 6234W        W 9978   2.585   8.525   4.534  0.0579 -0.0878 -0.2568
 6235W        W 9979   7.464   9.412   1.017 -0.3011  0.0346  0.3135
 6236W        W 9980   3.426   7.522   2.811  0.0468 -0.1098 -0.0253
 6237W        W 9981   7.847   0.930  11.724 -0.0889 -0.3662 -0.1985
 6238W        W 9982   4.245   0.680   1.692  0.1219 -0.2210 -0.1996
 6239W        W 9983   6.240   6.001  11.937  0.0006  0.3151 -0.3118
 6240W        W 9984   2.738   3.702   9.724  0.1708  0.1963  0.2388
 6241W        W 9985   6.317   2.933   3.339 -0.2578 -0.1094 -0.0837
 6242W        W 9986   4.563   7.834   9.720 -0.0216 -0.0285  0.1309
 6243W        W 9987   1.563   5.035   0.060  0.0489  0.1782  0.2446
 6244W        W 9988   8.606   3.445  12.223 -0.1174 -0.1903  0.0206
 6245W        W 9989   9.482   9.800   9.115 -0.2892 -0.0996  0.2070
 6246W        W 9990   6.052   1.179   2.554 -0.0067  0.0960  0.1818
 6247W        W 9991   2.127   4.180  10.212  0.1635 -0.0332  0.2990
 6248W        W 9992   0.101   8.815   8.735  0.0629  0.0610 -0.1835
 6249W        W 9993   1.633   6.405   9.872  0.0275 -0.1416  0.1009
 6250W        W 9994   8.213   6.107   3.565  0.1080 -0.2529  0.0505
 6251W        W 9995   4.349   2.676  11.659  0.1419 -0.0299  0.0472
 6252W        W 9996   3.507   6.532  11.267 -0.0488  0.1870 -0.0274
 6253W        W 9997   2.644   5.639   1.940  0.0280 -0.1725 -0.0054
 6254W        W 9998   0.008   6.956   2.877  0.1484 -0.2596 -0.0613
 6255W        W 9999   3.371   0.564  10.721 -0.0270 -0.1855  0.2242
 6256W        W10000   3.391   2.676   0.200  0.1704 -0.3304  0.0052
 6257W        W10001   8.335   6.313   9.588 -0.3402 -0.1244 -0.1896
 6258W        W10002   5.913   9.549  10.844 -0.1778 -0.1525  0.1591
 6259W        W10003   2.125   9.177   3.784 -0.0175  0.2003 -0.1320
 6260W        W10004   8.992   5.213  10.853  0.1439 -0.0334  0.3506
 6261W        W10005   6.110   0.912   2.114  0.0539  0.1310  0.1788
 6262W        W10006   4.060   6.916   3.895  0.0003  0.0094 -0.0430
 6263W        W10007   0.993   8.733   9.858 -0.0487  0.2003  0.1145
 6264W        W10008   8.860   6.915  11.672 -0.0057  0.1300 -0.1181
 6265W        W10009   0.012   0.631   1.979  0.0471  0.1493 -0.3002
 6266W        W10010   1.678   0.563   2.603 -0.0330 -0.1142  0.3187
 6267W        W10011   6.282   9.625   0.629  0.1370  0.0810  0.2102
 6268W        W10012   9.206   4.858   0.045  0.2731 -0.3628  0.0647
 6269W        W10013   4.057   3.970   0.986 -0.0017 -0.0017  0.0626
 6270W        W10014   7.281   7.612   2.528 -0.0563  0.0786 -0.2793
 6271W        W10015   2.323   3.443   4.219 -0.2308 -0.1316  0.0557
 6272W        W10016   8.114   7.459   3.526  0.0726 -0.0823  0.0647
 6273W        W10017   6.648   0.714  10.599 -0.1783 -0.0331  0.1115
 6274W        W10018   5.049   7.066  11.483  0.2159 -0.2133  0.2579
 6275W        W10019   8.324   7.561  11.035 -0.1530  0.1326  0.1584
 6276W        W10020   8.016   2.117   1.708 -0.0910 -0.3655  0.1894
 6277W        W10021   8.252   7.043   3.248  0.1908  0.0303 -0.1001
 6278W        W10022   2.027   6.795  11.956 -0.2946 -0.0058 -0.0035
 6279W        W10023   5.578   4.083   0.816  0.0022 -0.2215 -0.0270
 6280W        W10024   7.072   2.663  11.463 -0.3315  0.2977 -0.2614
 6281W        W10025   6.395   8.962   2.870  0.2164 -0.0583 -0.0766
 6282W        W10026   5.254   5.597  10.823  0.0880 -0.2507 -0.0699
 6283W        W10027   4.610   7.778   1.716 -0.1362  0.0068  0.3518
 6284W        W10028   5.210   6.057   2.602  0.0229 -0.2792  0.2134
 6285W        W10029   3.841   4.914   9.637 -0.0319 -0.1215 -0.1942
 6286W        W10030   6.465   1.667   0.340  0.1391  0.1520 -0.0596
 6287W        W10031   8.316   0.162   3.101 -0.0234  0.0994 -0.0249
 6288W        W10032   6.355   3.559  11.777 -0.1447 -0.5420  0.0482
 6289W        W10033   3.498   0.026  11.093 -0.2501  0.1504 -0.2906
 6290W        W10034   5.453   9.374   9.460 -0.0794 -0.1664  0.0389
 6291W        W10035   0.756   5.334  12.910  0.1993  0.0756  0.0728
 6292W        W10036   3.844   3.274   3.208 -0.0238 -0.1461  0.3098
 6293W        W10037   2.099   6.579   2.980 -0.0022 -0.2171  0.1824
 6294W        W10038   1.314   4.020   9.644 -0.0923  0.0598 -0.2123
 6295W        W10039   2.571   3.931   1.787  0.2262  0.0846 -0.3485
 6296W        W10040   7.931   1.472  11.655  0.1436  0.2603 -0.0195
 6297W        W10041   9.681   5.734  10.729 -0.0157  0.1982  0.1620
 6298W        W10042   2.298   5.013   0.570 -0.1648 -0.0994  0.2432
 6299W        W10043   1.222   4.680  10.369  0.0124 -0.1038 -0.1924
 6300W        W10044   2.876   5.200  10.840 -0.0234  0.2073 -0.0737
 6301W        W10045   5.499   9.063  10.230  0.0990  0.1817 -0.2048
 6302W        W10046   1.918   7.906   3.128 -0.0874 -0.0763  0.1792
 6303W        W10047   1.636   2.445  11.720  0.1190 -0.5214  0.2194
 6304W        W10048   4.802   7.901   2.573  0.1120 -0.3519  0.2777
 6305W        W10049   2.660   9.576   0.594 -0.1392 -0.1366  0.0264
 6306W        W10050   8.383   4.616   8.255  0.0890  0.1055 -0.5115
 6307W        W10051   6.310   1.499  12.391  0.1911 -0.1677 -0.0251
 6308W        W10052   2.349   6.176  12.647 -0.1297 -0.0933  0.1749
 6309W        W10053   8.924   6.999  10.075 -0.0704  0.2124 -0.1501
 6310W        W10054   2.801   4.125   2.216  0.1087 -0.0812  0.2405
 6311W        W10055   8.704   4.870  12.975  0.1626  0.2207 -0.0274
 6312W        W10056   6.252   2.662   0.534 -0.0772 -0.2550 -0.0958
 6313W        W10057   9.402   0.489   0.217 -0.1471  0.1561 -0.0550
 6314W        W10058   5.804   3.680  12.581 -0.0194  0.4358  0.0619
 6315W        W10059   4.842   8.124  12.378 -0.5618  0.0265  0.0289
 6316W        W10060   5.376   0.986   3.404 -0.0324  0.1229 -0.3008
 6317W        W10061   4.793   8.303   0.079 -0.0540  0.0109 -0.0304
 6318W        W10062   0.409   5.764   0.116 -0.0802  0.3405 -0.1403
 6319W        W10063   5.481   1.490  10.248 -0.2081  0.1049  0.2341
 6320W        W10064   7.029   9.171   8.789 -0.1401  0.0737 -0.1202
 6321W        W10065   6.276   5.011  12.240 -0.0832  0.1261 -0.1426
 6322W        W10066   4.588   1.445   4.935 -0.2074 -0.0793 -0.0117
 6323W        W10067   8.662   9.860   1.254 -0.0644  0.1562  0.1858
 6324W        W10068   1.416   5.353   4.649 -0.0639  0.0910 -0.3546
 6325W        W10069   3.015   8.106   3.718  0.2095  0.1244 -0.1335
 6326W        W10070   8.444   9.300  11.595  0.2193 -0.1462 -0.1882
 6327W        W10071   9.711   9.018  12.929  0.0152 -0.2734  0.1382
 6328W        W10072   3.588   7.419   0.722 -0.4347  0.2883 -0.1378
 6329W        W10073   0.919   4.085   8.630 -0.1539  0.1948 -0.2565
 6330W        W10074   2.296   0.777   7.953 -0.0362  0.0089 -0.1066
 6331W        W10075   1.498   5.061   8.681  0.0448 -0.1185 -0.2294
 6332W        W10076   4.812   7.275   1.667 -0.2080 -0.3070  0.1150
 6333W        W10077   1.898   2.916   2.570 -0.1722  0.1656  0.1209
 6334W        W10078   1.046   7.711  11.642  0.0982 -0.1492 -0.2716
 6335W        W10079   7.546   4.308   1.202  0.1507 -0.4136 -0.3418
 6336W        W10080   3.276   3.303   0.826 -0.0843 -0.2112  0.1291
 6337W        W10081   9.847   2.816  12.130  0.1555 -0.1566 -0.0605
 6338W        W10082   0.530   5.548  10.429 -0.1684 -0.1310 -0.0026
 6339W        W10083   8.178   9.350   9.552 -0.1364 -0.0119 -0.0311
 6340W        W10084   0.256   3.766   0.407  0.0190 -0.1103  0.1925
 6341W        W10085   8.092   8.871   0.700 -0.0953 -0.1843 -0.2274
 6342W        W10086   0.465   7.851  10.106 -0.2776  0.0484 -0.0691
 6343W        W10087   8.683   4.971   3.498  0.0393  0.3311 -0.0751
 6344W        W10088   8.420   9.782  12.254 -0.1815  0.0200 -0.1657
 6345W        W10089   2.777   8.315  11.993 -0.0606  0.1359 -0.0581
 6346W        W10090   3.648   0.162  12.096 -0.0242 -0.1678 -0.1251
 6347W        W10091   1.980   5.357  11.561  0.1899  0.2998 -0.4819
 6348W        W10092   3.518   2.179   3.704 -0.1620  0.2677 -0.1362
 6349W        W10093   2.730   4.977   0.290 -0.0508  0.1610 -0.3097
 6350W        W10094   8.558   5.070   0.986  0.1574  0.0731  0.2189
 6351W        W10095   3.834   6.871   1.457  0.1156  0.1512  0.3310
 6352W        W10096   4.189   0.684   3.155  0.0394 -0.3506 -0.2806
 6353W        W10097   2.018   2.934  10.134 -0.0107  0.0790  0.0395
 6354W        W10098   1.292   7.480   3.784 -0.4034 -0.2402 -0.2377
 6355W        W10099   3.882   6.830  11.104 -0.1407  0.2034 -0.2798
 6356W        W10100   8.885   3.418  10.410 -0.5416  0.2064 -0.1394
 6357W        W10101   5.744   9.211   8.975 -0.0465 -0.0735 -0.1538
 6358W        W10102   2.175   2.063   9.801  0.1174  0.1519  0.4346
 6359W        W10103   5.041   9.586   9.700  0.1606 -0.2707  0.0359
 6360W        W10104   1.792   1.404  10.283  0.0101  0.0259  0.1477
 6361W        W10105   0.890   2.812   2.299 -0.1600 -0.2081 -0.0354
 6362W        W10106   6.967   7.494  10.012  0.5835  0.0672 -0.1464
 6363W        W10107   3.177   1.729  11.401 -0.1407 -0.3448  0.0990
 6364W        W10108   5.685   7.427   1.107 -0.0889  0.0300  0.0815
 6365W        W10109   4.672   5.218   9.423 -0.0505  0.1769  0.3276
 6366W        W10110   5.743   4.271   3.353  0.0075  0.2790 -0.0474
 6367W        W10111   5.974   0.977  11.584 -0.0760  0.1965 -0.2391
 6368W        W10112   1.888   2.701   9.607 -0.1460 -0.1107  0.2420
 6369W        W10113   2.616   7.365  10.550 -0.1993 -0.0180 -0.1512
 6370W        W10114   0.288   6.993   3.598 -0.0371  0.1643  0.2623
 6371W        W10115   3.174   9.888   9.598 -0.2541 -0.0211 -0.1271
 6372W        W10116   0.268   1.202  10.267  0.1914  0.0053 -0.1611
 6373W        W10117   4.721   4.094  12.711 -0.2774 -0.0942 -0.3042
 6374W        W10118   4.942   2.288   1.247 -0.0536 -0.0595  0.1839
 6375W        W10119   8.566   9.382  12.518  0.3321 -0.2374  0.3292
 6376W        W10120   2.785   1.496   3.582 -0.0797 -0.1280 -0.2006
 6377W        W10121   7.543   8.189  10.342  0.0797  0.1174  0.3616
 6378W        W10122   3.173   7.129   3.532  0.0640 -0.0199  0.1096
 6379W        W10123   4.550   0.515   2.010 -0.1109  0.0763  0.2080
 6380W        W10124   0.621   1.563  11.918  0.2008  0.1515  0.1217
 6381W        W10125   8.665   3.989   0.127 -0.3604  0.0319  0.2205
 6382W        W10126   2.375   6.355   0.139 -0.0932 -0.0730  0.0581
 6383W        W10127   6.895   9.312  12.102 -0.2703  0.0058 -0.1434
 6384W        W10128   9.729   3.046   4.477  0.1110  0.1119 -0.1090
 6385W        W10129   4.239   8.180  10.451 -0.1549  0.1145  0.1161
 6386W        W10130   8.023   6.931   2.777  0.0878 -0.1348  0.1785
 6387W        W10131   2.317   7.506  11.878  0.5019 -0.3187 -0.0007
 6388W        W10132   6.991   4.912   3.252 -0.0007 -0.0540  0.1220
 6389W        W10133   2.616   1.967   4.481  0.0959 -0.1377 -0.3447
 6390W        W10134   9.377   3.537  12.954  0.0388  0.0411  0.4100
 6391W        W10135   2.105   4.711   0.886  0.2777 -0.2300 -0.2566
 6392W        W10136   1.629   6.377  11.552 -0.2504 -0.1530 -0.1676
 6393W        W10137   0.796   8.159   0.431  0.1347 -0.0755  0.1345
 6394W        W10138   4.765   1.158   1.516  0.1028  0.0967 -0.0123
 6395W        W10139   0.308   9.561   2.630 -0.0466  0.1654 -0.0457
 6396W        W10140   1.566   4.998   9.667  0.0753  0.0661  0.0089
 6397W        W10141   8.951   1.537  10.740 -0.1031  0.2937 -0.2064
 6398W        W10142   9.597   4.533   3.329 -0.0718  0.2663  0.2070
 6399W        W10143   4.230   2.250   5.101  0.0704  0.0411 -0.1910
 6400W        W10144   6.638   2.607  12.550 -0.2123  0.1664 -0.0012
 6401W        W10145   8.980   0.726  12.044  0.0074  0.0313 -0.2127
 6402W        W10146   0.844   3.667   8.329 -0.1296  0.1943  0.2345
 6403W        W10147   4.538   5.213   4.074 -0.1029 -0.1349 -0.0056
 6404W        W10148   3.831   1.844   0.631  0.4045 -0.0565 -0.0613
 6405W        W10149   0.289   3.601   3.628 -0.0876  0.1524 -0.1310
 6406W        W10150   2.572   8.743   9.008 -0.1495  0.3345 -0.0665
 6407W        W10151   4.105   7.622   2.325 -0.1100  0.1672 -0.1496
 6408W        W10152   7.972   5.142  10.392 -0.2476 -0.0674 -0.0110
 6409W        W10153   2.696   0.709   0.236  0.1361 -0.0433  0.2476
 6410W        W10154   4.433   4.002  10.143  0.0715  0.2603 -0.3036
 6411W        W10155   3.300   1.425   3.725 -0.0215 -0.0490 -0.0303
 6412W        W10156   5.970   0.908   0.622  0.0800 -0.0720  0.0972
 6413W        W10157   3.875   6.356  10.333  0.0609 -0.0322 -0.0330
 6414W        W10158   7.679   7.753   9.963 -0.2525 -0.1157  0.0399
 6415W        W10159   0.313   3.690  10.681 -0.5358 -0.2727 -0.0539
 6416W        W10160   4.611   7.255  11.281  0.1345  0.2113  0.1578
 6417W        W10161   0.040   2.923   8.688  0.0264 -0.5926 -0.2558
 6418W        W10162   3.439   2.002   1.566 -0.2423  0.1646 -0.3443
 6419W        W10163   9.874   8.382   9.533  0.2411 -0.0649  0.2524
 6420W        W10164   5.851   6.741  12.221 -0.1384 -0.2481  0.2915
 6421W        W10165   5.895   0.259   0.089 -0.0740  0.1010 -0.0716
 6422W        W10166   7.343   9.342  12.977  0.0669  0.1059  0.2877
 6423W        W10167   9.632   7.956  10.839  0.1282  0.0174 -0.1861
 6424W        W10168   3.598   7.900   0.541  0.2433 -0.1260  0.1532
 6425W        W10169   6.378   4.375  11.093  0.1967 -0.3917  0.1240
 6426W        W10170   9.691   8.895  10.751  0.0617 -0.2094  0.0590
 6427W        W10171   4.183   4.813   0.851  0.0004  0.1603 -0.0754
 6428W        W10172   9.172   3.809   9.975 -0.4133 -0.1038 -0.1040
 6429W        W10173   7.331   7.273  10.298  0.1799 -0.1776  0.1224
 6430W        W10174   1.273   4.116   1.928  0.3952  0.1808 -0.3354
 6431W        W10175   4.761   6.787  12.128  0.0826  0.2577  0.0804
 6432W        W10176   4.169   2.905   3.364  0.3479  0.3232 -0.1080
 6433W        W10177   6.102   7.559   1.276  0.0528  0.2900  0.0087
 6434W        W10178   8.085   9.426   2.641 -0.1062 -0.1138  0.0515
 6435W        W10179   1.306   7.708   1.087 -0.1597 -0.2542  0.0330
 6436W        W10180   0.971   6.647  12.328  0.1691  0.0666  0.4863
 6437W        W10181   5.010   8.029   0.871  0.0088 -0.2900  0.6878
 6438W        W10182   3.606   5.471   2.732 -0.0195 -0.3325  0.1155
 6439W        W10183   7.741   5.568  12.332  0.1676  0.0992 -0.4451
 6440W        W10184   1.691   6.870  12.300  0.1357 -0.1321 -0.2129
 6441W        W10185   7.100   1.733  11.479 -0.4189 -0.1650 -0.3738
 6442W        W10186   2.502   0.496  11.633  0.2812  0.0556  0.0758
 6443W        W10187   2.236   8.623  11.317 -0.0230 -0.0720  0.0062
 6444W        W10188   2.232   9.678   2.689 -0.0126  0.3014 -0.3255
 6445W        W10189   7.662   7.247   4.041 -0.3047 -0.3723 -0.1049
 6446W        W10190   5.965   9.116   9.526  0.1425  0.3001 -0.0153
 6447W        W10191   8.524   6.575  11.795 -0.0432 -0.1381 -0.3130
 6448W        W10192   8.007   1.960  12.826 -0.0905 -0.1913 -0.1444
 6449W        W10193   9.096   8.538   9.867 -0.3381  0.0852  0.0982
 6450W        W10194   7.269   7.243   3.643 -0.1709  0.0852 -0.2000
 6451W        W10195   9.153   4.326   3.303 -0.0958 -0.1334 -0.0742
 6452W        W10196   5.401   7.535   9.766 -0.1358 -0.1055  0.3223
 6453W        W10197   3.385   0.907  12.022  0.0906  0.2555 -0.0448
 6454W        W10198   1.257   5.800   9.134  0.0268  0.0155  0.0364
 6455W        W10199   6.912   6.091   2.112  0.1082 -0.2377 -0.1829
 6456W        W10200   0.550   3.629   2.160  0.1086  0.0894  0.1847
 6457W        W10201   4.401   3.564  10.413  0.4101  0.0744 -0.0575
 6458W        W10202   3.662   5.879  11.715  0.1453  0.1370 -0.1254
 6459W        W10203   8.818   9.868   0.664 -0.1587 -0.1580  0.1314
 6460W        W10204   8.560   9.789  10.636 -0.0709 -0.1647  0.0656
 6461W        W10205   5.788   0.942  10.891 -0.0997  0.0402 -0.0543
 6462W        W10206   4.840   3.837  10.508  0.0006  0.0195 -0.0894
 6463W        W10207   0.619   2.252   0.111 -0.0724 -0.0650 -0.2846
 6464W        W10208   3.472   7.673  12.770 -0.0040 -0.0737 -0.1004
 6465W        W10209   8.260   0.560   9.633 -0.1865 -0.2344  0.1409
 6466W        W10210   5.562   6.091   0.075 -0.0061  0.2038 -0.0757
 6467W        W10211   5.137   6.259   4.229  0.1332  0.0134  0.0039
 6468W        W10212   3.154   7.952  12.442  0.1215  0.2025  0.2459
 6469W        W10213   1.448   5.379   1.197 -0.2158  0.2507  0.0227
 6470W        W10214   8.221   4.024  11.083  0.1697 -0.4266  0.0166
 6471W        W10215   9.592   9.098   0.456 -0.1241  0.0537 -0.0545
 6472W        W10216   8.697   1.034  10.734 -0.0486  0.1247  0.3273
 6473W        W10217   7.766   2.401  12.653  0.1806 -0.1017 -0.0495
 6474W        W10218   1.651   4.556  11.282  0.0086  0.0645 -0.1532
 6475W        W10219   4.456   6.967  12.811  0.4108  0.1250  0.1192
 6476W        W10220   0.967   4.268  10.547 -0.4407 -0.0036 -0.0899
 6477W        W10221   9.334   8.122   3.914 -0.0722  0.0913  0.2855
 6478W        W10222   0.693   2.180   0.639  0.0843  0.2686  0.1711
 6479W        W10223   1.774   0.692   3.452 -0.0848  0.3471 -0.0678
 6480W        W10224   1.294   9.093   2.389 -0.0148 -0.0023 -0.1302
 6481W        W10225   5.336   8.439   2.939  0.2438 -0.1812 -0.1172
 6482W        W10226   5.224   8.865  12.494 -0.2787 -0.0249  0.2692
 6483W        W10227   0.855   4.263   9.652 -0.4254 -0.0214  0.0456
 6484W        W10228   6.093   7.034   1.953  0.2255 -0.1009 -0.3080
 6485W        W10229   1.348   9.668   0.224 -0.2676  0.2710 -0.0064
 6486W        W10230   6.936   0.377  11.418 -0.2001  0.0113 -0.1946
 6487W        W10231   3.890   6.744  10.028  0.4331 -0.1401 -0.0523
 6488W        W10232   6.406   5.206   1.885 -0.3715  0.0478 -0.0706
 6489W        W10233   9.100   8.393   0.736  0.2297 -0.1640 -0.0827
 6490W        W10234   7.210   6.059   9.082  0.0602 -0.0312  0.0042
 6491W        W10235   8.237   0.970  10.990  0.1446 -0.0545 -0.2856
 6492W        W10236   0.250   5.304  12.944 -0.0105 -0.1077 -0.1704
 6493W        W10237   3.766   4.400   9.667 -0.2244 -0.2386 -0.0575
 6494W        W10238   7.377   8.213   1.786  0.1421 -0.1116 -0.1600
 6495W        W10239   5.674   3.071  11.433  0.2667 -0.1521  0.1358
 6496W        W10240   7.174   0.746   9.662 -0.2603 -0.3161  0.2116
 6497W        W10241   1.693   6.633   0.820 -0.2714 -0.0684 -0.2387
 6498W        W10242   0.656   8.135   1.829 -0.2474 -0.0624 -0.2809
 6499W        W10243   2.871   6.498  12.227 -0.1145  0.1507  0.2862
 6500W        W10244   2.400   3.198   8.915 -0.0292  0.3041 -0.0928
 6501W        W10245   3.948   2.631  12.092  0.1791 -0.3260 -0.3447
 6502W        W10246   5.568   7.685  12.217 -0.0278 -0.3487 -0.2313
 6503W        W10247   5.372   1.848   1.430  0.0780  0.2365  0.1347
 6504W        W10248   0.207   0.117   2.132  0.0511 -0.3903  0.0982
 6505W        W10249   4.602   6.564   9.756 -0.1061  0.0492  0.1159
 6506W        W10250   1.853   3.595   1.167  0.0933  0.1260 -0.1359
 6507W        W10251   1.826   1.079  11.600  0.0953 -0.0515 -0.1014
 6508W        W10252   8.225   3.295  12.628 -0.1345  0.0726 -0.1475
 6509W        W10253   4.224   4.784   9.366 -0.0977 -0.0978 -0.1991
 6510W        W10254   8.567   9.007   9.491  0.2709  0.0852  0.1686
 6511W        W10255   5.254   5.846  10.418  0.0040  0.3432 -0.0686
 6512W        W10256   8.608   1.876  10.106  0.1020 -0.2941  0.1001
 6513W        W10257   6.967   1.250   1.476  0.1377  0.4678 -0.1456
 6514W        W10258   2.080   3.806   1.877 -0.4080  0.0779 -0.1609
 6515W        W10259   2.537   2.659  12.187 -0.1095 -0.0502  0.0201
 6516W        W10260   6.424   1.977   2.678 -0.3010  0.1066 -0.1690
 6517W        W10261   1.763   8.272   3.486 -0.0733 -0.2095 -0.0643
 6518W        W10262   5.557   6.455   2.945  0.2570 -0.3152 -0.2432
 6519W        W10263   6.076   2.986  10.947 -0.0622 -0.1543  0.3714
 6520W        W10264   9.099   5.181   1.906  0.1593 -0.0765  0.2685
 6521W        W10265   6.492   3.310   1.964  0.1119  0.3574  0.2890
 6522W        W10266   4.143   4.091  12.358 -0.0096  0.3177 -0.0722
 6523W        W10267   3.386   7.826   4.505 -0.0608  0.3449 -0.2957
 6524W        W10268   6.259   0.400  12.004  0.0163  0.1268  0.1200
 6525W        W10269   6.534   1.255   1.063  0.0327  0.3695  0.1786
 6526W        W10270   6.587   4.482   9.753 -0.1106 -0.1339 -0.0086
 6527W        W10271   8.063   7.991   3.601 -0.2483  0.1349  0.0105
 6528W        W10272   2.993   9.424   4.215 -0.2981 -0.1805  0.1403
 6529W        W10273   4.657   5.970   0.520 -0.1542  0.0389  0.3690
 6530W        W10274   6.428   4.770   0.187 -0.2794  0.1509 -0.0095
 6531W        W10275   4.423   3.654  11.820 -0.2150  0.1289  0.1167
 6532W        W10276   7.658   4.087   0.157 -0.1295  0.1608  0.0931
 6533W        W10277   2.073   9.439   9.115 -0.1904 -0.0573 -0.2646
 6534W        W10278   7.469   8.892   9.967  0.0467  0.2435  0.1469
 6535W        W10279   6.560   6.575   1.413 -0.0953 -0.0042  0.1849
 6536W        W10280   2.876   0.921  12.055 -0.2110 -0.1479  0.1320
 6537W        W10281   1.432   1.759   0.906 -0.3058 -0.1997 -0.0372
 6538W        W10282   0.248   7.108  11.867  0.2088 -0.0232  0.3206
 6539W        W10283   2.058   5.171  10.229 -0.1314 -0.0786  0.1694
 6540W        W10284   4.055   2.061   2.949  0.2144 -0.0268 -0.1159
 6541W        W10285   6.404   1.978  12.903  0.0918  0.1966  0.1871
 6542W        W10286   9.409   6.163   8.964  0.0944  0.1397  0.0375
 6543W        W10287   5.926   1.761   0.079  0.2000 -0.0050 -0.2301
 6544W        W10288   8.116   7.720  12.025  0.2281 -0.0775  0.1666
 6545W        W10289   8.285   9.839   0.754  0.1184  0.0672 -0.1678
 6546W        W10290   5.032   8.725   3.727  0.1249  0.0080  0.0790
 6547W        W10291   2.012   2.385  11.371  0.3439  0.1112 -0.0825
 6548W        W10292   7.585   0.444   2.852  0.0664 -0.1494 -0.1147
 6549W        W10293   7.639   1.066  10.785 -0.1378  0.2138 -0.0769
 6550W        W10294   7.717   8.154   9.601  0.1901  0.0997 -0.0519
 6551W        W10295   4.559   0.546   4.006  0.0497 -0.0404  0.2794
 6552W        W10296   3.597   0.632   3.950  0.1155 -0.0635 -0.1866
 6553W        W10297   8.092   3.579  10.822 -0.0342 -0.0584 -0.0101
 6554W        W10298   5.488   9.269   2.955 -0.0950 -0.1921  0.1431
 6555W        W10299   2.145   2.152   3.009 -0.0727  0.0222  0.2002
 6556W        W10300   4.430   3.980   0.445  0.0824 -0.0648 -0.0021
 6557W        W10301   2.756   8.479   3.207 -0.0847  0.0657 -0.2090
 6558W        W10302   9.020   6.034   2.976 -0.2258 -0.0537 -0.1135
 6559W        W10303   3.683   0.873   4.371  0.2777  0.2135 -0.0540
 6560W        W10304   7.229   9.517   9.277  0.2485  0.1338  0.3557
 6561W        W10305   0.537   6.730   1.184  0.1164 -0.1042  0.1328
 6562W        W10306   1.116   6.287  11.315 -0.1671 -0.3352 -0.1109
 6563W        W10307   7.767   8.793   0.372 -0.0297 -0.1765 -0.2721
 6564W        W10308   7.549   8.093   3.871  0.1553 -0.0927 -0.1385
 6565W        W10309   4.406   0.062  11.343 -0.0320 -0.0304 -0.3265
 6566W        W10310   7.656   2.606  11.456  0.0235 -0.1496  0.2379
 6567W        W10311   1.174   5.285   9.320  0.0550  0.0175  0.1341
 6568W        W10312   8.025   5.120   3.019 -0.0903  0.1296  0.0194
 6569W        W10313   2.791   5.981  12.474 -0.1935  0.0545  0.0661
 6570W        W10314   2.350   4.718   1.743  0.0381 -0.4247  0.1478
 6571W        W10315   2.888   5.505   4.433  0.4010  0.0077  0.0606
 6572W        W10316   0.995   9.060   9.307 -0.0432  0.2234 -0.2490
 6573W        W10317   1.478   8.483   2.303  0.3120 -0.1604  0.1097
 6574W        W10318   1.033   4.253   0.021  0.3969  0.2053 -0.0171
 6575W        W10319   4.206   9.059   3.638 -0.0162 -0.2561  0.1050
 6576W        W10320   2.495   3.466  10.862  0.0700  0.1083  0.0697
 6577W        W10321   9.469   2.332  10.410 -0.1060  0.3995 -0.0706
 6578W        W10322   7.204   7.336   1.566  0.0743 -0.2519  0.1578
 6579W        W10323   2.999   2.153   1.615 -0.0776  0.0134 -0.0146
 6580W        W10324   1.494   3.349   2.407 -0.0216 -0.1544 -0.0149
 6581W        W10325   9.496   5.585   1.184  0.0176 -0.1528 -0.1196
 6582W        W10326   9.171   8.841   9.081 -0.1230 -0.3243 -0.1944
 6583W        W10327   9.600   9.788   3.013 -0.0266 -0.0542  0.2944
 6584W        W10328   2.745   3.214  12.294  0.2633 -0.4080 -0.0096
 6585W        W10329   3.442   0.090   3.997 -0.0491  0.2424  0.0230
 6586W        W10330   7.368   3.708   0.101  0.1911  0.1306  0.1424
 6587W        W10331   9.434   5.106   0.500 -0.0189 -0.1014  0.1645
 6588W        W10332   8.408   4.229   9.410 -0.1463  0.2032 -0.0515
 6589W        W10333   8.563   7.764   1.327 -0.1753 -0.3028 -0.1231
 6590W        W10334   6.970   7.983  12.073  0.0937 -0.0765  0.0641
 6591W        W10335   8.791   0.344   9.182  0.0555 -0.1028 -0.0839
 6592W        W10336   7.666   9.558  11.032 -0.1099 -0.0448 -0.4205
 6593W        W10337   1.321   8.261   9.733 -0.3153  0.0607 -0.0593
 6594W        W10338   5.238   2.685   3.041  0.0098  0.2719  0.0745
 6595W        W10339   5.400   6.875  10.371 -0.1406 -0.1649  0.0199
 6596W        W10340   0.515   3.021  10.090 -0.0143 -0.1923  0.0292
 6597W        W10341   0.505   8.916   9.072 -0.3712 -0.0839 -0.1913
 6598W        W10342   7.690   5.599  10.007  0.1642  0.0726 -0.1211
 6599W        W10343   3.169   5.399   0.546  0.1890  0.0602 -0.1975
 6600W        W10344   2.787   7.377   9.756 -0.2471 -0.2271  0.0414
 6601W        W10345   8.271   2.853   0.586  0.1825  0.1204 -0.4314
 6602W        W10346   4.426   2.568  10.933  0.1120 -0.2754 -0.0292
 6603W        W10347   1.416   0.181  12.761  0.2155 -0.3805  0.2111
 6604W        W10348   1.883   1.457   9.357 -0.0996 -0.2382  0.3122
 6605W        W10349   7.864   9.107  10.374 -0.1444 -0.1379  0.0413
 6606W        W10350   2.161   2.723   9.002 -0.2750 -0.1326 -0.1892
 6607W        W10351   2.871   0.364   1.182  0.0279 -0.0996 -0.1465
 6608W        W10352   6.980   7.139  11.581  0.2627 -0.3413  0.2219
 6609W        W10353   6.755   3.585  12.683  0.1532 -0.1630  0.2510
 6610W        W10354   8.283   9.532   3.141 -0.1431  0.1153 -0.2873
 6611W        W10355   0.348   1.066   1.221  0.1466  0.5322 -0.0186
 6612W        W10356   1.702   7.235   3.682  0.1744  0.0913  0.0078
 6613W        W10357   3.426   8.342   0.905  0.3544 -0.0195  0.0726
 6614W        W10358   6.048   6.429   0.130  0.0992 -0.0386  0.1602
 6615W        W10359   6.753   5.397  12.174  0.1056  0.0883 -0.0701
 6616W        W10360   8.593   8.256   9.098  0.1665 -0.4379 -0.0075
 6617W        W10361   6.760   9.000  10.561 -0.2025  0.4119 -0.0964
 6618W        W10362   6.845   9.019   0.697  0.3696 -0.3230 -0.1850
 6619W        W10363   6.545   8.515  10.765  0.0395  0.1038 -0.0342
 6620W        W10364   6.679   2.497   9.904  0.2112  0.0370 -0.2995
 6621W        W10365   5.618   0.565   8.887 -0.0229  0.1344  0.3502
 6622W        W10366   4.636   0.158  12.636  0.2614  0.1213 -0.5421
 6623W        W10367   7.620   6.716   3.357 -0.0753 -0.2782  0.1645
 6624W        W10368   2.318   0.083  11.154  0.1220  0.3586  0.3434
 6625W        W10369   3.798   6.831  11.629  0.1791  0.0799  0.0378
 6626W        W10370   0.627   6.256   3.292 -0.1962  0.2921 -0.3439
 6627W        W10371   6.305   8.322   4.234  0.0226  0.1034  0.0824
 6628W        W10372   2.457   1.065   9.719  0.1456  0.1285  0.1620
 6629W        W10373   0.186   7.865   8.369  0.0102 -0.0913  0.1569
 6630W        W10374   7.929   8.287   1.928  0.7258 -0.2540 -0.0416
 6631W        W10375   4.745   4.885   4.411  0.1418 -0.1006 -0.3089
 6632W        W10376   2.008   5.242   0.993  0.0344  0.1081 -0.1393
 6633W        W10377   8.997   5.373  12.946  0.0887  0.3478  0.0649
 6634W        W10378   3.294   5.624  11.105  0.2759 -0.1849  0.1735
 6635W        W10379   4.989   7.243   3.120 -0.0443 -0.4644  0.2727
 6636W        W10380   6.997   3.299  12.188  0.0691  0.2091  0.0254
 6637W        W10381   2.265   7.665   3.463 -0.1375 -0.3954  0.0778
 6638W        W10382   4.099   1.332  12.965  0.0606 -0.0528 -0.0764
 6639W        W10383   7.937   8.706  12.350 -0.1243 -0.0325  0.1391
 6640W        W10384   4.411   8.018   0.799  0.0052 -0.3511  0.0781
 6641W        W10385   1.694   9.264   2.892 -0.2740 -0.0869  0.2234
 6642W        W10386   2.472   6.851  12.226  0.1347  0.0647 -0.0622
 6643W        W10387   3.579   3.694   0.061 -0.0337  0.3032 -0.0627
 6644W        W10388   6.387   1.717   0.894 -0.2481  0.3620  0.0545
 6645W        W10389   4.622   4.943  11.331  0.1959 -0.3606 -0.4645
 6646W        W10390   1.322   0.791   1.639  0.0720 -0.1408  0.0651
 6647W        W10391   3.637   2.975  12.208  0.0700 -0.1525 -0.0777
 6648W        W10392   2.351   0.712   2.525 -0.4574  0.2743  0.0270
 6649W        W10393   0.285   9.066  12.454 -0.0932  0.2348  0.2587
 6650W        W10394   3.479   0.058   4.665 -0.0471 -0.1021  0.0061
 6651W        W10395   5.445   7.646  11.771  0.0448  0.2925  0.0476
 6652W        W10396   7.553   3.561  10.769  0.0215  0.0151 -0.0421
 6653W        W10397   4.262   9.595   1.660 -0.1802 -0.0509  0.0884
 6654W        W10398   1.803   2.145   0.425 -0.1325 -0.1852 -0.1088
 6655W        W10399   9.445   4.299   1.487 -0.0195  0.3737 -0.0417
 6656W        W10400   0.115   2.441   8.794 -0.3051  0.3373 -0.2590
 6657W        W10401   4.267   1.441   1.552  0.0768 -0.0654 -0.2087
 6658W        W10402   0.152   5.111  12.186  0.1485  0.2802  0.1076
 6659W        W10403   1.468   0.405  10.202 -0.1369  0.0236 -0.1029
 6660W        W10404   0.287   4.997  10.320  0.2064 -0.1371  0.4124
 6661W        W10405   6.912   9.554   2.306  0.0468  0.1430  0.1462
 6662W        W10406   3.006   3.747   0.931 -0.0385  0.0734  0.1839
 6663W        W10407   1.680   8.798  10.370  0.1019 -0.1177  0.0976
 6664W        W10408   7.654   1.270   3.555  0.1144  0.5119  0.2336
 6665W        W10409   1.947   2.370   9.217 -0.2545  0.0644 -0.2272
 6666W        W10410   4.804   0.743  10.693 -0.1973  0.0847 -0.1118
 6667W        W10411   5.178   5.847   1.803  0.2200  0.1345 -0.0732
 6668W        W10412   2.709   0.996   2.819 -0.4938 -0.2535  0.0439
 6669W        W10413   0.292   1.551   2.451 -0.1132  0.3005  0.0181
 6670W        W10414   4.733   2.540   2.714 -0.1513 -0.2005  0.0562
 6671W        W10415   5.870   9.207   0.600  0.3087 -0.0216 -0.1542
 6672W        W10416   4.199   0.642   4.440 -0.0750 -0.2855  0.2514
 6673W        W10417   4.577   8.988   9.540  0.1541  0.1237  0.1104
 6674W        W10418   5.432   4.627  11.535 -0.0387 -0.0023  0.0421
 6675W        W10419   5.423   9.421  12.719  0.0802 -0.2462 -0.0552
 6676W        W10420   3.993   2.528   0.077 -0.0857  0.2091 -0.1226
 6677W        W10421   6.966   4.303  10.559  0.3129  0.2245 -0.0878
 6678W        W10422   0.218   2.287   0.380 -0.3256  0.0313 -0.0350
 6679W        W10423   8.215   9.325   1.012  0.0104  0.1730  0.1378
 6680W        W10424   7.958   5.630  12.777  0.1833 -0.1809 -0.1215
 6681W        W10425   0.229   0.724   0.902 -0.4303  0.0907  0.1172
 6682W        W10426   0.029   1.878   4.480 -0.1613 -0.1564 -0.1280
 6683W        W10427   8.609   5.073   4.154  0.0645 -0.2065  0.1984
 6684W        W10428   7.979   4.122  10.254 -0.3372  0.0798  0.1605
 6685W        W10429   4.128   5.621   1.712 -0.1742  0.0131  0.3181
 6686W        W10430   6.155   3.324   1.587  0.1168 -0.0260 -0.0165
 6687W        W10431   3.651   0.798   3.089  0.0764 -0.0181  0.1694
 6688W        W10432   6.202   2.393   2.902  0.2627  0.2601  0.1775
 6689W        W10433   2.790   7.800  11.665 -0.2077 -0.1861 -0.3411
 6690W        W10434   5.621   0.564   0.368  0.0482  0.0273  0.2280
 6691W        W10435   3.656   9.674  10.673 -0.3698 -0.0354  0.0677
 6692W        W10436   3.308   7.039  11.211  0.1519  0.0295  0.0423
 6693W        W10437   7.058   4.087   2.156 -0.1203  0.0632  0.1598
 6694W        W10438   6.936   4.363  11.178  0.2404 -0.5233 -0.3510
 6695W        W10439   4.897   0.192  11.516  0.0114  0.0719 -0.0663
 6696W        W10440   1.213   9.288  12.310  0.0755  0.1045 -0.2405
 6697W        W10441   4.375   6.702   2.769  0.0760 -0.2606 -0.3659
 6698W        W10442   6.494   7.949   1.450 -0.1025 -0.0098 -0.1453
 6699W        W10443   5.606   5.063  12.840  0.1540  0.0394  0.1400
 6700W        W10444   0.384   0.443   1.379  0.0710 -0.2917  0.3150
 6701W        W10445   1.322   7.462  10.297  0.2425 -0.0954 -0.1116
 6702W        W10446   8.740   0.057  12.625  0.0606  0.1326 -0.1148
 6703W        W10447   9.020   3.734   3.306 -0.3837 -0.0589  0.0101
 6704W        W10448   6.921   8.583   0.332  0.1503 -0.2714  0.0545
 6705W        W10449   7.484   1.310   1.370  0.0948 -0.0859  0.0544
 6706W        W10450   0.986   7.671   0.281 -0.0380  0.1558  0.4379
 6707W        W10451   1.697   7.100  10.389 -0.0110  0.1240 -0.2863
 6708W        W10452   9.856   8.534   1.304 -0.2322  0.2257 -0.1979
 6709W        W10453   0.736   0.009   2.649  0.3703  0.0387 -0.1287
 6710W        W10454   7.366   7.739  10.443  0.0082  0.0126 -0.1788
 6711W        W10455   1.897   6.489  12.839  0.4276  0.0612  0.1922
 6712W        W10456   0.267   5.223   9.484 -0.1860 -0.1050 -0.1110
 6713W        W10457   2.924   9.158  11.164  0.2076  0.0496  0.3924
 6714W        W10458   7.216   7.738   1.948  0.0226 -0.0383  0.1133
 6715W        W10459   6.593   8.919   4.432 -0.5365  0.2023 -0.2737
 6716W        W10460   3.324   9.670  11.907  0.1504  0.2885  0.0312
 6717W        W10461   4.950   6.687  11.226 -0.2341 -0.0763 -0.0950
 6718W        W10462   4.857   7.487   4.626 -0.0307  0.1261 -0.0462
 6719W        W10463   7.034   5.064  11.904  0.4783 -0.2967 -0.5378
 6720W        W10464   7.016   7.695  12.790 -0.0723 -0.1448  0.1482
 6721W        W10465   0.131   8.904   0.640  0.1244 -0.1540 -0.0232
 6722W        W10466   6.891   2.015   0.174 -0.0245 -0.1712 -0.0120
 6723W        W10467   5.836   8.667   4.134 -0.2136  0.0731 -0.0307
 6724W        W10468   3.057   1.704   9.929 -0.0519  0.2014 -0.2648
 6725W        W10469   7.272   5.301   2.375 -0.2744  0.0973 -0.0137
 6726W        W10470   1.270   4.409  10.995 -0.0386 -0.0569  0.1555
 6727W        W10471   9.683   7.859  11.947  0.3047 -0.4784  0.0974
 6728W        W10472   5.455   9.888   9.508 -0.1774  0.0954 -0.0084
 6729W        W10473   7.418   6.967   8.667  0.2032  0.0463  0.2616
 6730W        W10474   9.486   7.414  12.267 -0.1466  0.1074  0.2663
 6731W        W10475   7.798   3.570  10.320 -0.0611 -0.1280 -0.4135
 6732W        W10476   7.237   0.899   1.192  0.0144 -0.0788  0.1200
 6733W        W10477   3.474   2.517  11.193 -0.0161 -0.1402  0.1246
 6734W        W10478   5.774   7.330   1.555  0.1632 -0.0067 -0.3286
 6735W        W10479   0.320   0.640  12.107  0.1177  0.0056  0.0748
 6736W        W10480   7.563   0.435  12.445 -0.3063  0.2191 -0.0462
 6737W        W10481   5.963   7.300  11.955 -0.0119  0.0689 -0.4621
 6738W        W10482   9.361   8.437   7.975  0.2419 -0.3320  0.2577
 6739W        W10483   1.429   9.724   0.717  0.4668 -0.2035 -0.1838
 6740W        W10484   5.971   0.377   9.701 -0.0336  0.1128  0.3289
 6741W        W10485   1.282   0.736   0.645 -0.2561 -0.0999 -0.2568
 6742W        W10486   9.204   7.599   8.550  0.2122 -0.1217  0.0974
 6743W        W10487   7.149   0.227   2.998  0.0598 -0.0168 -0.0539
 6744W        W10488   1.531   5.859   1.403  0.2349 -0.1621 -0.1424
 6745W        W10489   9.708   5.937   0.729  0.0470  0.2022 -0.0664
 6746W        W10490   1.248   5.317  11.020  0.1857 -0.2451 -0.2605
 6747W        W10491   0.290   1.122  11.314 -0.0496  0.0683  0.0642
 6748W        W10492   1.021   9.550   4.093  0.2431  0.0670  0.1628
 6749W        W10493   7.057   7.211  12.834 -0.3366 -0.2999  0.0991
 6750W        W10494   3.538   4.168   0.810  0.1639 -0.0508  0.2973
 6751W        W10495   6.569   5.292  12.633 -0.1445 -0.0448  0.0924
 6752W        W10496   1.702   5.644   0.895 -0.1152 -0.0971 -0.4329
 6753W        W10497   6.595   8.495   3.788 -0.1898 -0.1652  0.0668
 6754W        W10498   4.645   0.435  11.090  0.0908 -0.0770  0.2528
 6755W        W10499   5.535   1.059  11.309  0.2295 -0.0685 -0.4266
 6756W        W10500   1.464   6.367   8.628 -0.1136 -0.4365  0.1902
 6757W        W10501   0.715   2.919   9.455 -0.1450 -0.4320  0.0799
 6758W        W10502   5.695   5.896  10.124  0.0870 -0.1386 -0.0022
 6759W        W10503   1.705   5.960   9.680 -0.1218 -0.1672  0.0353
 6760W        W10504   3.531   8.497   2.817 -0.1888 -0.0573  0.2002
 6761W        W10505   0.285   8.355  10.492  0.0018 -0.0757  0.0206
 6762W        W10506   5.902   6.323   2.240  0.1481 -0.1638 -0.0386
 6763W        W10507   2.827   5.919   4.839  0.0460  0.1576 -0.2423
 6764W        W10508   1.142   6.791  11.552  0.1274 -0.0171  0.1747
 6765W        W10509   7.989   9.235  12.535  0.2430 -0.0802 -0.0653
 6766W        W10510   8.642   0.644  11.069  0.2899 -0.0072 -0.0417
 6767W        W10511   4.561   6.942   9.304  0.1306 -0.1051 -0.0136
 6768W        W10512   0.025   4.523  10.421 -0.0300 -0.2677 -0.0691
 6769W        W10513   3.013   3.899   3.062 -0.1153 -0.1780  0.2792
 6770W        W10514   2.128   8.295   8.253  0.0428 -0.1968  0.1070
 6771W        W10515   6.176   1.681   2.322  0.3256 -0.1691 -0.1194
 6772W        W10516   7.776   3.292   2.793  0.0818 -0.2098 -0.1616
 6773W        W10517   4.468   7.762   9.270 -0.1671 -0.4066 -0.0070
 6774W        W10518   8.596   0.049   1.738  0.4450 -0.2084 -0.1245
 6775W        W10519   8.829   7.509   2.478  0.0752  0.2343 -0.1494
 6776W        W10520   9.159   6.243  12.552  0.3966  0.2064 -0.2919
 6777W        W10521   6.825   5.153  10.385 -0.0060  0.0523  0.1553
 6778W        W10522   3.990   8.365   5.165 -0.4098  0.0288  0.1090
 6779W        W10523   2.227   5.404   3.185 -0.1099  0.1329  0.1168
 6780W        W10524   0.381   6.615   2.081 -0.0632 -0.2345  0.1148
 6781W        W10525   7.279   6.501   2.124  0.1771 -0.3312 -0.3022
 6782W        W10526   5.421   7.667   4.950  0.2785  0.1564  0.2246
 6783W        W10527   7.504   9.881  10.209 -0.0212 -0.3530 -0.0478
 6784W        W10528   0.185   3.793   2.979  0.1720  0.2276  0.2384
 6785W        W10529   2.656   9.674   9.841 -0.3562  0.0600 -0.0329
 6786W        W10530   3.103   6.731   3.206  0.4317 -0.2663 -0.2002
 6787W        W10531   7.860   3.060  10.525 -0.2635 -0.0611  0.0503
 6788W        W10532   0.894   2.008  12.183  0.0246  0.1881  0.0451
 6789W        W10533   7.641   0.657   1.963  0.2140 -0.0631 -0.2096
 6790W        W10534   7.878   2.194  12.152 -0.0604  0.1616 -0.0609
 6791W        W10535   2.144   2.042  12.942  0.2667 -0.3617  0.1803
 6792W        W10536   0.337   1.726   1.598 -0.1250  0.1996  0.0832
 6793W        W10537   8.898   0.027   2.404  0.1514  0.2883 -0.0599
 6794W        W10538   6.674   0.431   0.006  0.0512 -0.0239 -0.0920
 6795W        W10539   6.807   5.337   9.117 -0.0911 -0.0313 -0.1906
 6796W        W10540   6.684   5.392   9.597  0.0825  0.2562 -0.0532
 6797W        W10541   7.353   2.395  11.880 -0.2290  0.1478 -0.0645
 6798W        W10542   1.386   0.519  11.264 -0.0084  0.0030 -0.0787
 6799W        W10543   4.342   7.447   0.173 -0.1095  0.0012  0.2792
 6800W        W10544   4.289   0.949   0.314 -0.0650  0.0083  0.1100
 6801W        W10545   2.992   6.426  10.052 -0.0478  0.0895 -0.1561
 6802W        W10546   0.932   0.378   2.940 -0.2583 -0.4406 -0.0190
 6803W        W10547   3.397   0.129   0.931 -0.0158 -0.0845  0.0524
 6804W        W10548   5.579   8.879   1.549 -0.1899  0.0470 -0.2199
 6805W        W10549   5.738   3.570  10.752 -0.1471  0.4729 -0.0943
 6806W        W10550   9.748   7.638   0.509 -0.0530  0.2463 -0.0288
 6807W        W10551   8.252   6.586   3.462  0.1800 -0.1489  0.3160
 6808W        W10552   3.121   8.568  11.684  0.1544 -0.1000 -0.0316
 6809W        W10553   3.966   5.542   9.877  0.1584  0.0919 -0.2026
 6810W        W10554   1.272   7.284   1.530 -0.1191  0.2131  0.1712
 6811W        W10555   0.276   2.336   0.894  0.2603 -0.5515 -0.1056
 6812W        W10556   6.620   2.530   2.795  0.0175  0.0118 -0.2657
 6813W        W10557   7.076   3.118   3.129 -0.1485 -0.1416 -0.2030
 6814W        W10558   6.307   1.278   9.782  0.2774 -0.0570 -0.1731
 6815W        W10559   3.911   4.399   1.124 -0.0239 -0.4773 -0.2244
 6816W        W10560   9.774   4.323   9.335 -0.2799  0.0366 -0.1306
 6817W        W10561   8.113   7.029  10.327  0.2991 -0.0439  0.4257
 6818W        W10562   3.345   1.466   9.547 -0.2522  0.0104  0.0444
 6819W        W10563   0.935   8.656   0.554  0.0005 -0.2380  0.0605
 6820W        W10564   5.426   1.392  10.973 -0.1800  0.2693 -0.4377
 6821W        W10565   1.458   2.326   2.071  0.1543 -0.3824  0.1667
 6822W        W10566   3.209   3.416   1.850  0.1628  0.1512  0.1265
 6823W        W10567   2.623   0.465  12.135  0.3308  0.2836 -0.0200
 6824W        W10568   3.507   1.749   2.498  0.0885  0.2923 -0.2794
 6825W        W10569   8.643   1.401   0.015  0.2833 -0.2209  0.0692
 6826W        W10570   4.960   4.369  10.065  0.0871 -0.1174 -0.1186
 6827W        W10571   1.255   2.790  10.382 -0.1503  0.1001 -0.1628
 6828W        W10572   0.161   9.847   3.095  0.0403 -0.0991 -0.0033
 6829W        W10573   1.241   6.565   3.920 -0.1040 -0.2448 -0.3320
 6830W        W10574   4.975   1.212  11.235  0.0082 -0.2621 -0.0911
 6831W        W10575   4.857   1.737   3.292  0.0837  0.0890  0.0575
 6832W        W10576   0.606   9.452   2.117  0.2946  0.0061 -0.1101
 6833W        W10577   5.700   3.860  11.168  0.0218  0.3447  0.0958
 6834W        W10578   0.288   9.100   1.890  0.1760  0.1402 -0.0775
 6835W        W10579   0.261   7.797   2.337  0.0678  0.3404 -0.1860
 6836W        W10580   0.092   4.614  12.087 -0.0172  0.0458 -0.4583
 6837W        W10581   2.000   6.159   0.599  0.1597  0.0175 -0.2564
 6838W        W10582   6.721   2.157   1.595 -0.0007  0.1580  0.2069
 6839W        W10583   6.543   9.439  12.414 -0.1611 -0.0400 -0.2019
 6840W        W10584   5.491   8.894   9.293  0.3252 -0.0102 -0.1514
 6841W        W10585   2.904   3.224   1.161  0.0326  0.0233  0.0033
 6842W        W10586   0.255   8.356   9.939  0.0235  0.3841 -0.0100
 6843W        W10587   1.529   7.865   8.888 -0.0843 -0.0185  0.0549
 6844W        W10588   5.650   8.241   8.779 -0.0303 -0.3062 -0.1205
 6845W        W10589   6.193   2.365   0.971  0.1087 -0.0783 -0.0619
 6846W        W10590   6.636   8.401   2.361  0.3830 -0.0778 -0.3412
 6847W        W10591   7.080   4.143   1.107  0.0373  0.1871  0.0496
 6848W        W10592   8.567   3.682  11.167  0.1411  0.1647  0.2800
 6849W        W10593   2.944   4.335  10.991 -0.0547  0.0897 -0.1044
 6850W        W10594   6.937   3.520   9.447 -0.0936 -0.3610  0.0820
 6851W        W10595   6.995   5.506   0.423  0.1306  0.0536 -0.0009
 6852W        W10596   8.826   5.382   2.311  0.1017 -0.2401  0.1220
 6853W        W10597   7.138   1.137   2.974 -0.0726  0.2246 -0.0829
 6854W        W10598   1.714   6.371   1.533 -0.2504  0.1978  0.1418
 6855W        W10599   1.684   7.838   9.864 -0.0313  0.3996 -0.3830
 6856W        W10600   4.646   6.660   3.636  0.0070 -0.1524  0.2701
 6857W        W10601   1.189   7.584  12.776  0.2322 -0.3470  0.0141
 6858W        W10602   2.897   0.551   5.115 -0.3982  0.0441  0.1171
 6859W        W10603   5.906   0.468  11.453  0.1932 -0.0437  0.1372
 6860W        W10604   5.908   5.124   1.858 -0.0951 -0.1442  0.4258
 6861W        W10605   9.089   1.710   0.186 -0.0763  0.0381 -0.2803
 6862W        W10606   4.497   2.553   0.930 -0.2256 -0.0185  0.0622
 6863W        W10607   0.758   8.891   1.420  0.1301  0.0171 -0.0962
 6864W        W10608   2.912   1.413   3.087 -0.1633 -0.2381  0.0722
 6865W        W10609   4.990   9.016   9.880 -0.1134 -0.1280 -0.0038
 6866W        W10610   4.816   6.494   0.489 -0.2462 -0.0093 -0.2728
 6867W        W10611   5.621   8.688   4.584  0.0072 -0.1962  0.0218
 6868W        W10612   2.362   9.475  10.664  0.3470 -0.1216  0.1338
 6869W        W10613   0.946   4.765  10.796  0.1462 -0.0371 -0.2969
 6870W        W10614   2.521   6.331   9.442  0.0535 -0.4569 -0.1902
 6871W        W10615   1.303   7.905   3.449  0.0006  0.0224 -0.5573
 6872W        W10616   8.212   1.827  11.935  0.0890  0.1750  0.0073
 6873W        W10617   7.084   3.838  12.404  0.0995  0.1421 -0.0911
 6874W        W10618   0.478   1.300   0.119 -0.1718  0.1777 -0.0148
 6875W        W10619   6.051   7.715  12.416 -0.0396  0.0655  0.2122
 6876W        W10620   8.122   9.331   1.940  0.0666 -0.1230 -0.1861
 6877W        W10621   0.186   3.905   1.075  0.0900  0.1682  0.2129
 6878W        W10622   1.259   2.171  12.514  0.1111 -0.1128  0.1291
 6879W        W10623   8.689   6.812   3.259 -0.0758  0.0157 -0.1068
 6880W        W10624   2.923   3.248  11.363  0.3232  0.2288 -0.1565
 6881W        W10625   7.188   8.348   2.936  0.1983  0.0450 -0.1281
 6882W        W10626   8.599   5.013   2.032 -0.1759  0.0718 -0.4206
 6883W        W10627   0.018   1.509  10.590  0.4447 -0.1557  0.0449
 6884W        W10628   7.391   8.147   3.321 -0.1508 -0.1585  0.0183
 6885W        W10629   2.652   9.670   1.880  0.1040 -0.1462 -0.0312
 6886W        W10630   2.765   0.257   9.947 -0.0761 -0.1496 -0.0448
 6887W        W10631   7.439   9.170   1.446  0.1386 -0.0046  0.2302
 6888W        W10632   1.004   3.613  12.672  0.2541  0.0931 -0.3899
 6889W        W10633   9.217   8.146   4.390  0.0772  0.0049  0.1341
 6890W        W10634   2.871   4.580  11.910  0.4952 -0.0595  0.1629
 6891W        W10635   8.453   8.419  10.813  0.0698 -0.0381 -0.3848
 6892W        W10636   3.523   6.616  12.913 -0.3246 -0.2569 -0.0274
 6893W        W10637   0.942   2.719  12.179 -0.2034  0.3254  0.1353
 6894W        W10638   1.871   3.669   4.274 -0.0245 -0.0453  0.0485
 6895W        W10639   0.789   2.998   3.510 -0.0074  0.1765 -0.0389
 6896W        W10640   7.868   3.866   0.964  0.1408  0.0282  0.1193
 6897W        W10641   8.442   0.258  10.156 -0.1336 -0.2530 -0.0640
 6898W        W10642   1.187   9.275   9.714  0.0610 -0.1808  0.3962
 6899W        W10643   7.039   4.208  10.079  0.1467 -0.0246 -0.0432
 6900W        W10644   7.162   9.656   4.167 -0.3114 -0.1049  0.1178
 6901W        W10645   7.475   7.363   2.150  0.0126  0.0048 -0.0534
 6902W        W10646   0.932   6.661   0.101  0.0933  0.0912  0.0341
 6903W        W10647   5.546   9.149   4.328 -0.3386 -0.2893  0.1215
 6904W        W10648   6.920   1.028   2.419  0.3833 -0.0302 -0.1445
 6905W        W10649   9.428   3.434   0.954 -0.0603  0.0625 -0.0739
 6906W        W10650   4.715   6.697  11.660  0.1755 -0.1332  0.0012
 6907W        W10651   7.433   4.232  10.444 -0.0105  0.1812  0.0584
 6908W        W10652   9.685   1.052   2.721  0.2603  0.0407  0.0798
 6909W        W10653   8.648   2.731  11.325 -0.1447 -0.0121 -0.2718
 6910W        W10654   1.146   5.567  11.921  0.1651 -0.2036  0.0938
 6911W        W10655   6.017   0.481  12.432  0.1547  0.3148  0.2486
 6912W        W10656   2.982   3.715   4.090  0.3271  0.1122 -0.2167
 6913W        W10657   1.987   5.957  12.299 -0.1319  0.1128 -0.1168
 6914W        W10658   5.648   4.595  12.941 -0.0381  0.1878 -0.2151
 6915W        W10659   8.116   0.006   0.284 -0.2246  0.0942 -0.0658
 6916W        W10660   6.192   4.334  12.788 -0.1900  0.3328  0.0352
 6917W        W10661   0.611   3.702   2.750 -0.1252 -0.0298  0.3259
 6918W        W10662   8.350   9.444   0.028  0.1756  0.1811 -0.1256
 6919W        W10663   6.046   6.631   9.637  0.1476  0.1764  0.0842
 6920W        W10664   7.048   9.758  12.282  0.2175  0.0052 -0.2397
 6921W        W10665   9.686   1.118  12.113  0.3709 -0.0006 -0.0272
 6922W        W10666   5.413   7.435   4.485  0.1861  0.4636 -0.2669
 6923W        W10667   6.032   9.343  12.239 -0.1062 -0.3147  0.1336
 6924W        W10668   0.576   6.290   8.806 -0.1216 -0.1842 -0.1413
 6925W        W10669   5.011   7.222  12.029  0.0405 -0.0620  0.0511
 6926W        W10670   7.507   8.865  12.631 -0.0007  0.1687 -0.1904
 6927W        W10671   1.941   6.815  11.375 -0.5038  0.2246 -0.2041
 6928W        W10672   4.480   0.340   2.872 -0.3317  0.0184  0.1275
 6929W        W10673   9.647   1.930   3.189 -0.1126 -0.0043 -0.1093
 6930W        W10674   3.389   3.769   2.626 -0.0612  0.0896 -0.0907
 6931W        W10675   6.756   3.097   3.510  0.0371  0.0274 -0.0319
 6932W        W10676   3.934   7.300  11.842  0.2764  0.2304  0.0086
 6933W        W10677   8.809   5.196  10.392  0.0572  0.0647  0.1424
 6934W        W10678   3.124   8.390  10.379  0.1251 -0.1069 -0.1483
 6935W        W10679   6.006   1.832  11.528  0.0625 -0.0966 -0.0910
 6936W        W10680   9.407   2.931   1.097  0.0069  0.0476 -0.3086
 6937W        W10681   9.425   3.270   2.385 -0.0285  0.0040 -0.3042
 6938W        W10682   3.586   7.641   1.655 -0.2120 -0.0487 -0.0392
 6939W        W10683   9.568   3.768   9.065  0.0930  0.0293 -0.1031
 6940W        W10684   3.177   3.142   4.154 -0.1407  0.0135 -0.1425
 6941W        W10685   3.501   5.175  10.102  0.1392  0.0233 -0.0587
 6942W        W10686   2.925   6.852   0.584 -0.0220  0.1493  0.2533
 6943W        W10687   7.845   4.651   1.482 -0.0365 -0.1571 -0.1576
 6944W        W10688   0.699   1.514   2.975 -0.0580 -0.1618 -0.2044
 6945W        W10689   2.928   0.462   8.991 -0.1816 -0.3178  0.3526
 6946W        W10690   6.631   4.107  12.614  0.0115  0.3318 -0.1802
 6947W        W10691   0.326   6.083   2.337  0.2272 -0.0631 -0.0212
 6948W        W10692   1.568   9.655   9.620  0.1419 -0.0618  0.0354
 6949W        W10693   6.137   8.895   2.435 -0.1047  0.1893  0.1130
 6950W        W10694   3.891   7.942   4.327  0.1888  0.0185 -0.2239
 6951W        W10695   1.783   0.139   0.181 -0.2733  0.2941  0.1170
 6952W        W10696   5.120   9.528  10.181 -0.0738  0.4009 -0.0194
 6953W        W10697   6.484   3.111  11.221 -0.0456 -0.3047  0.0012
 6954W        W10698   3.545   6.933   9.025  0.3644 -0.2492  0.2548
 6955W        W10699   3.663   1.472  12.746 -0.2745  0.1188 -0.1103
 6956W        W10700   9.199   6.996   0.451 -0.1071 -0.2449 -0.0069
 6957W        W10701   6.586   4.362   1.044 -0.1870 -0.4099  0.1986
 6958W        W10702   1.204   9.110   0.514  0.0699  0.2441  0.2428
 6959W        W10703   3.147   6.290  12.918  0.2183 -0.0625  0.0946
 6960W        W10704   4.245   5.947   2.996 -0.1364  0.1473  0.0934
 6961W        W10705   5.573   7.615   2.672 -0.0040  0.0867  0.0228
 6962W        W10706   7.437   8.905   4.652 -0.1018 -0.4101  0.0769
 6963W        W10707   5.634   2.818  12.412  0.0778 -0.2446 -0.1853
 6964W        W10708   5.327   5.258   2.420 -0.1199 -0.1755  0.0854
 6965W        W10709   6.938   5.609  10.202 -0.0076 -0.1941  0.2869
 6966W        W10710   5.496   5.313  12.436  0.2031  0.4681 -0.3505
 6967W        W10711   0.583   4.757  11.486 -0.1015  0.1568 -0.2492
 6968W        W10712   0.586   4.738   1.237  0.1771  0.3819  0.3807
 6969W        W10713   5.951   1.019   1.613 -0.1363  0.1184 -0.3158
 6970W        W10714   8.947   7.661   1.882 -0.0623  0.0745  0.4236
 6971W        W10715   2.239   9.214   0.735  0.0571 -0.1887 -0.2359
 6972W        W10716   6.106   6.991   0.151 -0.0620  0.0462  0.0299
 6973W        W10717   8.604   6.900   8.619  0.2133 -0.0541 -0.0923
 6974W        W10718   5.209   9.783   2.335 -0.0552 -0.1066  0.2013
 6975W        W10719   3.094   9.460   4.688  0.0772  0.1156 -0.2112
 6976W        W10720   6.462   1.116   1.586  0.1588 -0.0046 -0.0699
 6977W        W10721   6.362   9.829   0.196 -0.0659 -0.0746 -0.1761
 6978W        W10722   0.679   6.644   3.645  0.1091  0.2162 -0.1438
 6979W        W10723   0.661   8.636   1.851  0.3688  0.0631 -0.1605
 6980W        W10724   5.755   1.561   2.901 -0.1923  0.0405 -0.2196
 6981W        W10725   6.357   9.284  10.321 -0.1277 -0.1757  0.0069
 6982W        W10726   4.224   7.370   3.808 -0.1428 -0.0400  0.0346
 6983W        W10727   4.947   9.269   4.884  0.0815 -0.2413 -0.1181
 6984W        W10728   6.775   8.022   1.040  0.0963 -0.1226 -0.0926
 6985W        W10729   6.364   6.676   9.248 -0.0713  0.2920  0.0218
 6986W        W10730   8.459   0.400  10.634  0.1549  0.0056  0.4239
 6987W        W10731   1.102   8.692   3.178 -0.1132  0.1008  0.1096
 6988W        W10732   6.039   9.268   3.851 -0.1458 -0.0331 -0.3851
 6989W        W10733   9.150   7.297   3.463  0.0790 -0.0814  0.0076
 6990W        W10734   4.674   1.012   9.841 -0.2026  0.0824  0.1284
 6991W        W10735   0.915   2.282   2.277  0.1950  0.1807 -0.0045
 6992W        W10736   9.356   3.885  12.265 -0.1739 -0.0074  0.0466
 6993W        W10737   3.072   4.170   2.702  0.4187 -0.0797 -0.0964
 6994W        W10738   1.005   0.195  10.099  0.4828 -0.3320  0.2842
 6995W        W10739   4.183   6.871   0.524  0.1283  0.1480 -0.2148
 6996W        W10740   4.367   4.157  11.235  0.0705  0.2513  0.1401
 6997W        W10741   9.087   0.651  10.792  0.0513  0.0280  0.0120
 6998W        W10742   7.830   7.084   0.675  0.0646 -0.0920  0.2012
 6999W        W10743   3.349   9.045   4.258 -0.1129 -0.2699  0.1448
 7000W        W10744   1.602   8.376   1.756  0.1069 -0.0831 -0.2905
 7001W        W10745   8.517   7.307   2.991  0.1045 -0.3426  0.0758
 7002W        W10746   6.654   3.019   2.810  0.1708 -0.0487  0.0884
 7003W        W10747   2.330   1.010   1.457  0.1811 -0.1651 -0.0371
 7004W        W10748   0.260   6.894   1.608  0.2342  0.1540  0.2710
 7005W        W10749   4.257   0.666   9.123  0.1824  0.1994  0.0024
 7006W        W10750   4.292   7.974   2.632  0.0706 -0.1490 -0.2244
 7007W        W10751   6.361   5.747   2.753 -0.1567  0.0701 -0.2801
 7008W        W10752   7.718   5.191   1.573  0.3123 -0.0337 -0.1128
 7009W        W10753   2.067   0.252   2.465 -0.0942  0.0281 -0.3252
 7010W        W10754   6.903   8.105   3.821 -0.0687 -0.1477  0.1224
 7011W        W10755   0.251   0.151  12.088  0.1951  0.0608 -0.1973
 7012W        W10756   4.024   4.604  12.308  0.2020  0.0779  0.2468
 7013W        W10757   8.324   9.112   2.332  0.1498  0.1234  0.2204
 7014W        W10758   6.419   7.407  12.190 -0.0791 -0.2677  0.0881
 7015W        W10759   2.312   3.228   0.655 -0.1856 -0.1712  0.1013
 7016W        W10760   7.221   2.763   1.651  0.3295 -0.2620  0.4429
 7017W        W10761   6.137   4.914  12.775 -0.1173 -0.3370 -0.3716
 7018W        W10762   8.058   1.174  12.512 -0.0961  0.1260  0.1999
 7019W        W10763   4.284   7.722  10.106  0.3436  0.2665  0.0379
 7020W        W10764   2.866   4.996   4.174  0.1153  0.0580  0.3430
 7021W        W10765   7.864   3.150  11.063  0.0002  0.3470  0.1606
 7022W        W10766   3.649   6.484   1.727  0.0395 -0.0540 -0.0087
 7023W        W10767   3.724   6.054  12.199 -0.0886 -0.0770 -0.1027
 7024W        W10768   6.658   5.172   0.634  0.1982  0.1159  0.1508
 7025W        W10769   4.331   1.903   4.072 -0.3503  0.1150  0.0367
 7026W        W10770   5.833   9.676   2.996  0.0330  0.0009  0.0576
 7027W        W10771   5.017   6.085  11.298 -0.3558 -0.1877 -0.2757
 7028W        W10772   6.396   3.240   2.431  0.3313  0.2182  0.0314
 7029W        W10773   7.846   0.782   3.583  0.5010  0.1669  0.1040
 7030W        W10774   9.061   6.937  12.659  0.3488  0.1035 -0.2937
 7031W        W10775   0.993   3.855   3.201 -0.0950  0.1854 -0.0330
 7032W        W10776   9.685   1.065   1.647  0.1655 -0.1233  0.1409
 7033W        W10777   6.063   8.834   1.514 -0.2162 -0.2878  0.1376
 7034W        W10778   7.587   0.644   1.489 -0.3037 -0.1462  0.0881
 7035W        W10779   0.908   8.507   2.362 -0.0253 -0.0735  0.0324
 7036W        W10780   2.909   7.245   1.730 -0.1817 -0.0192 -0.0209
 7037W        W10781   3.803   7.761   7.886 -0.0053 -0.0995 -0.1372
 7038W        W10782   4.184   8.591  10.978  0.3000  0.1053  0.0528
 7039W        W10783   8.639   8.783   2.500 -0.0409  0.1189 -0.3429
 7040W        W10784   3.914   3.791  12.710  0.0119  0.1057  0.2188
 7041W        W10785   4.553   3.801  12.338  0.0617 -0.1304 -0.0916
 7042W        W10786   4.282   5.848   0.876  0.1569 -0.1620 -0.0392
 7043W        W10787   2.386   9.485   3.342 -0.2558  0.2360  0.1404
 7044W        W10788   0.468   7.133   4.051  0.1836  0.1470  0.0339
 7045W        W10789   4.260   1.690  10.518 -0.2370 -0.0895  0.4738
 7046W        W10790   4.647   9.204   4.448 -0.1504  0.1205  0.1661
 7047W        W10791   4.178   1.732   3.498 -0.0853 -0.2124  0.2111
 7048W        W10792   9.275   0.343  11.164 -0.0321 -0.0334  0.2184
 7049W        W10793   0.994   3.532   2.366  0.1268  0.0124  0.3695
 7050W        W10794   2.783   6.752   1.616  0.3349  0.0220 -0.1069
 7051W        W10795   9.446   1.564   4.344  0.0917  0.2034 -0.1395
 7052W        W10796   5.376   9.438  11.608  0.1823  0.0867  0.0697
 7053W        W10797   9.791   5.486   9.713  0.0108  0.1034  0.2218
 7054W        W10798   4.974   9.230  11.387  0.0053  0.0294  0.2828
 7055W        W10799   1.331   6.811   8.314 -0.4743 -0.4860 -0.2442
 7056W        W10800   9.654   6.032   8.318  0.0554 -0.2482  0.2771
 7057W        W10801   1.320   3.861  10.831  0.2073  0.1761 -0.0655
 7058W        W10802   9.534   7.089   8.592 -0.1041  0.1839  0.0122
 7059W        W10803   0.593   8.164  11.894  0.4502  0.3750  0.1474
 7060W        W10804   5.202   0.072   1.518  0.2040  0.0055  0.1082
 7061W        W10805   1.961   0.036   0.820 -0.3117 -0.0591 -0.2379
 7062W        W10806   9.274   8.608   3.179 -0.1674 -0.0667  0.1963
 7063W        W10807   8.635   6.195   0.176  0.0801  0.2065 -0.1220
 7064W        W10808   8.936   7.951   8.880 -0.0268 -0.3238 -0.0033
 7065W        W10809   3.428   1.336   4.650 -0.3053 -0.1839 -0.0531
 7066W        W10810   1.856   6.744   3.911  0.2440 -0.3450  0.2016
 7067W        W10811   6.554   0.279   0.605  0.3395 -0.1934  0.1178
 7068W        W10812   0.390   7.464   3.689 -0.1142 -0.1120 -0.1586
 7069W        W10813   3.411   2.261   8.955 -0.0634 -0.0682 -0.1156
 7070W        W10814   4.634   5.005   1.116 -0.0917  0.2205  0.0205
 7071W        W10815   9.237   8.627   4.043 -0.4488  0.1652 -0.0669
 7072W        W10816   4.161   0.390   3.743 -0.1883 -0.1978  0.2658
 7073W        W10817   4.877   0.063  10.092  0.0577  0.2392  0.0164
 7074W        W10818   5.468   8.978  11.414  0.1986 -0.3376  0.1499
 7075W        W10819   6.436   6.101   2.346 -0.0160 -0.3420  0.1182
 7076W        W10820   8.288   2.368  12.770  0.2603 -0.2033 -0.1871
 7077W        W10821   0.988   6.766   1.348  0.2311  0.1756  0.3436
 7078W        W10822   1.115   8.170  12.583 -0.1114 -0.0055  0.2187
 7079W        W10823   2.332   4.581   0.346 -0.1452  0.1989 -0.1028
 7080W        W10824   3.409   9.465   3.871 -0.1759  0.1541 -0.2010
 7081W        W10825   0.657   5.098   9.125 -0.2085 -0.3249 -0.1692
 7082W        W10826   9.100   4.542  11.699 -0.0493  0.0985 -0.0891
 7083W        W10827   3.885   8.395   1.843  0.2828  0.1548 -0.2073
 7084W        W10828   5.955   8.284   1.820 -0.1151 -0.1081  0.0093
 7085W        W10829   0.467   4.508   1.769  0.0356  0.1966  0.3052
 7086W        W10830   6.128   6.577  11.303  0.3562  0.1422  0.2486
 7087W        W10831   2.269   7.015  10.636 -0.1329  0.0311  0.3772
 7088W        W10832   1.582   6.965  11.735 -0.3397 -0.1462  0.3353
 7089W        W10833   1.136   2.097   1.853 -0.1270  0.1053 -0.2883
 7090W        W10834   1.472   6.209   3.664  0.0813  0.2254 -0.0365
 7091W        W10835   9.431   8.114   9.540  0.0206  0.1710  0.1119
 7092W        W10836   7.834   6.518  10.283  0.1386  0.1340  0.0822
 7093W        W10837   2.003   7.379  10.071 -0.1972  0.0230 -0.0270
 7094W        W10838   8.439   6.378   1.394 -0.0316 -0.2074 -0.1741
 7095W        W10839   8.654   7.640   9.693 -0.1412  0.4345  0.0770
 7096W        W10840   8.839   9.254   9.123  0.1405 -0.1947 -0.0599
 7097W        W10841   6.545   5.238   2.825  0.2687  0.1939 -0.1680
 7098W        W10842   8.921   5.483   0.970  0.3593  0.0763 -0.1574
 7099W        W10843   0.048   3.343   1.089  0.1826 -0.0339 -0.3686
 7100W        W10844   8.010   7.440   2.997  0.0718  0.5307  0.0811
 7101W        W10845   1.761   3.232   9.679 -0.0619  0.0928  0.2943
 7102W        W10846   5.107   8.774   1.763 -0.0854  0.2754  0.1696
 7103W        W10847   0.804   5.990   2.521  0.0141 -0.1194  0.1194
 7104W        W10848   7.984   0.191  10.476  0.1977  0.1028  0.0795
 7105W        W10849   3.762   3.938   8.790  0.0291  0.0128 -0.0799
 7106W        W10850   4.659   7.818  11.438 -0.3728 -0.1261 -0.2227
 7107W        W10851   4.949   2.860   9.369  0.0424 -0.1932 -0.1456
 7108W        W10852   0.916   8.784   3.683 -0.2099  0.1425 -0.3067
 7109W        W10853   4.844   7.929   4.231 -0.2237  0.2620 -0.1266
 7110W        W10854   3.109   6.167  11.854 -0.0511 -0.1430 -0.1159
 7111W        W10855   5.998   3.600   2.289 -0.1668  0.1996  0.1557
 7112W        W10856   4.834   3.951   9.829 -0.0977 -0.0220  0.1896
 7113W        W10857   8.438   5.507   0.724 -0.0603 -0.0623  0.1384
 7114W        W10858   1.438   4.852  10.904 -0.3462 -0.1962  0.1856
 7115W        W10859   6.327   7.289   3.077 -0.1523  0.1445  0.1033
 7116W        W10860   5.232   7.892  12.707  0.0872  0.1893 -0.0930
 7117W        W10861   3.445   9.145   9.651 -0.1480  0.0542 -0.0644
 7118W        W10862   7.208   2.094   0.618 -0.0558 -0.0988 -0.1906
 7119W        W10863   4.667   8.438   3.852  0.0922 -0.1521  0.1754
 7120W        W10864   5.828   6.730   2.652  0.0850 -0.1295 -0.1413
 7121W        W10865   5.246   2.300   1.691 -0.1274  0.1695  0.2937
 7122W        W10866   6.288   8.720  11.651  0.3902  0.1834  0.3255
 7123W        W10867   5.956   7.766  10.968  0.1164  0.2144  0.2579
 7124W        W10868   3.899   0.352   2.892 -0.2761 -0.2463  0.1956
 7125W        W10869   0.735   8.972   2.226 -0.0917  0.1271  0.1876
 7126W        W10870   1.190   5.017  12.732 -0.1361 -0.0863  0.3858
 7127W        W10871   5.698   0.997  12.570  0.1049 -0.0692 -0.1624
 7128W        W10872   8.627   4.067   1.046 -0.0051 -0.0967  0.0355
 7129W        W10873   3.669   5.161   0.443 -0.2336  0.1969 -0.3285
 7130W        W10874   2.508   6.297   2.937  0.1685 -0.1270  0.3425
 7131W        W10875   7.567   0.412   0.406  0.1945  0.3617  0.1370
 7132W        W10876   6.412   8.147   7.759 -0.1088 -0.1830  0.1617
 7133W        W10877   3.957   3.597   1.339 -0.1204 -0.3013 -0.2478
 7134W        W10878   4.782   1.863  11.418  0.2557  0.1660  0.0650
 7135W        W10879   4.496   2.997   1.303  0.1372  0.0114 -0.4990
 7136W        W10880   1.020   3.204   0.057  0.0685 -0.1766 -0.1072
 7137W        W10881   9.762   0.930   0.394  0.0806 -0.0752  0.6668
 7138W        W10882   1.459   2.233   3.803 -0.1319 -0.0865 -0.1494
 7139W        W10883   5.228   2.533  12.520 -0.2792 -0.0599  0.0706
 7140W        W10884   5.399   5.784   3.594 -0.2798 -0.1503 -0.2283
 7141W        W10885   1.798   3.244  12.413  0.3329 -0.2665  0.1199
 7142W        W10886   5.575   4.883   2.230 -0.1777  0.1018 -0.0466
 7143W        W10887   3.847   6.698   2.569 -0.2692 -0.4930 -0.0293
 7144W        W10888   5.185   2.476  10.011 -0.2252  0.0790  0.0405
 7145W        W10889   3.010   8.551  12.568 -0.1750  0.0484  0.1873
 7146W        W10890   3.622   0.605   9.718 -0.1324  0.0337 -0.3659
 7147W        W10891   0.848   0.033   2.075 -0.1637 -0.1885 -0.1764
 7148W        W10892   4.154   4.161   9.215  0.4544 -0.0994  0.1281
 7149W        W10893   7.493   5.147  10.164 -0.0576 -0.2246  0.1263
 7150W        W10894   4.300   6.213   2.495 -0.0791 -0.1967  0.0362
 7151W        W10895   6.344   8.680   3.270 -0.2742  0.1461 -0.1421
 7152W        W10896   2.881   0.048  12.404 -0.1718 -0.2441 -0.1476
 7153W        W10897   9.331   4.748   1.938  0.3249  0.0536 -0.0447
 7154W        W10898   0.655   7.135   9.747  0.0576 -0.4348 -0.5432
 7155W        W10899   0.106   0.856  10.545 -0.1545  0.1045  0.1734
 7156W        W10900   6.038   4.116   9.872  0.1944 -0.0112 -0.0255
 7157W        W10901   1.290   0.638   0.109 -0.1200 -0.1231  0.0525
 7158W        W10902   3.647   5.653   1.719  0.0738  0.0023  0.1365
 7159W        W10903   7.127   9.002   1.114  0.1424 -0.2483  0.1701
 7160W        W10904   1.034   7.206   0.095  0.0847  0.0478  0.1705
 7161W        W10905   8.508   8.392   7.560  0.1744 -0.1409 -0.0722
 7162W        W10906   1.398   7.606  12.090 -0.1398 -0.0200 -0.0829
 7163W        W10907   2.321   4.772   4.327 -0.3284  0.0122  0.0260
 7164W        W10908   7.870   2.835   0.930  0.2728  0.1552 -0.0363
 7165W        W10909   9.625   2.682   3.869 -0.1463 -0.0422 -0.0935
 7166W        W10910   3.628   8.113  12.173  0.2497  0.2569  0.2192
 7167W        W10911   2.153   2.103  11.893 -0.3764 -0.0070 -0.2688
 7168W        W10912   8.398   5.367   9.500 -0.0684 -0.0834 -0.1334
 7169W        W10913   1.124   1.117  12.517 -0.0790 -0.1031 -0.0520
 7170W        W10914   3.666   5.430   9.497 -0.0685  0.1378  0.2750
 7171W        W10915   6.299   8.412   0.210  0.0796 -0.0032  0.2812
 7172W        W10916   1.663   6.869   8.791  0.1153 -0.3001  0.0086
 7173W        W10917   7.931   1.314  10.483  0.3181  0.1036 -0.2444
 7174W        W10918   1.727   7.333   1.275 -0.3994  0.0821  0.1829
 7175W        W10919   0.975   1.091   8.085 -0.1551  0.0245 -0.1532
 7176W        W10920   2.622   3.062   3.447  0.1998 -0.0335 -0.2895
 7177W        W10921   0.829   1.371   8.473 -0.1395 -0.1911 -0.0241
 7178W        W10922   4.440   8.157   5.257  0.0494  0.3938 -0.2600
 7179W        W10923   9.598   4.988   3.908  0.2910 -0.1126  0.2504
 7180W        W10924   6.013   1.849   0.583  0.0889 -0.0063  0.2650
 7181W        W10925   3.412   1.339  11.736  0.0403 -0.3290  0.1016
 7182W        W10926   3.797   3.317  12.587  0.1022 -0.1791 -0.3901
 7183W        W10927   1.696   0.858   2.991  0.0426 -0.0371 -0.2276
 7184W        W10928   1.826   5.887  10.165  0.1725 -0.2359  0.0438
 7185W        W10929   2.310   2.494  12.884  0.0709  0.0321  0.0445
 7186W        W10930   0.088   4.309   0.351  0.1832  0.1349  0.1276
 7187W        W10931   8.969   9.570  12.377  0.0690 -0.0364  0.3336
 7188W        W10932   0.935   3.487   1.437 -0.0084  0.1237 -0.1921
 7189W        W10933   8.387   8.239   3.823  0.1228  0.3237 -0.4618
 7190W        W10934   3.457   9.835  10.189 -0.0411 -0.1348  0.0478
 7191W        W10935   8.678   4.793  10.722  0.0777  0.0912 -0.1564
 7192W        W10936   5.299   8.870   5.054  0.1473 -0.2386  0.1368
 7193W        W10937   9.096   9.677   0.282  0.0128 -0.0579 -0.3293
 7194W        W10938   3.002   2.476  10.950  0.2706 -0.0244  0.1458
 7195W        W10939   3.262   3.881  10.513  0.1862  0.1705 -0.1747
 7196W        W10940   4.161   4.570  10.633  0.0881 -0.2808 -0.0701
 7197W        W10941   1.628   7.358  12.457  0.1363 -0.0318  0.1157
 7198W        W10942   0.063   1.410   0.372 -0.2521 -0.1405 -0.2430
 7199W        W10943   0.100   1.913   1.202  0.2185  0.1645 -0.3727
 7200W        W10944   5.501   0.127   0.515  0.0086 -0.0614 -0.0480
 7201W        W10945   9.111   9.347   9.972 -0.2998  0.2617  0.1855
 7202W        W10946   3.764   9.532   1.676 -0.3843  0.1054  0.2926
 7203W        W10947   9.555   0.670  10.301 -0.2783 -0.0150 -0.4154
 7204W        W10948   0.545   9.176   8.613 -0.2744 -0.2996 -0.1839
 7205W        W10949   9.213   9.663  11.042  0.1265 -0.0760 -0.1673
 7206W        W10950   2.954   0.109   0.755 -0.1315 -0.1848 -0.3518
 7207W        W10951   3.071   6.028   8.872 -0.3199 -0.1399  0.0565
 7208W        W10952   3.714   3.879   3.400  0.4462  0.2361 -0.1667
 7209W        W10953   3.326   2.981   2.026 -0.1882  0.1305  0.1723
 7210W        W10954   1.852   6.789   9.660  0.1043  0.2199  0.0201
 7211W        W10955   9.151   3.113   2.790 -0.5010  0.2203 -0.0569
 7212W        W10956   1.457   7.981   3.913  0.1034  0.0353  0.1849
 7213W        W10957   3.680   2.263   9.417  0.4714  0.0218 -0.1579
 7214W        W10958   7.374   0.673  10.828 -0.3060 -0.1347  0.0205
 7215W        W10959   7.169   8.800   1.637 -0.1490  0.1991 -0.0004
 7216W        W10960   0.773   8.977   0.146  0.3929  0.1401  0.0986
 7217W        W10961   6.884   4.990  11.460  0.1303  0.1594  0.2740
 7218W        W10962   9.679   8.743  11.495 -0.1351  0.1237 -0.2206
 7219W        W10963   1.689   1.323  12.451 -0.0681  0.0414  0.0581
 7220W        W10964   6.756   3.846  10.488 -0.1453 -0.0578 -0.1181
 7221W        W10965   3.361   9.825   3.440 -0.0649 -0.1604 -0.3689
 7222W        W10966   5.927   9.010  11.850  0.2811 -0.3705  0.2331
 7223W        W10967   6.043   7.229  12.495 -0.1294 -0.0504 -0.0705
 7224W        W10968   1.490   4.212   3.847 -0.0452  0.0385  0.0821
 7225W        W10969   2.221   8.922   1.234  0.1500  0.2197 -0.2149
 7226W        W10970   2.652   2.742   2.651 -0.1911 -0.0590 -0.0924
 7227W        W10971   0.207   8.127   1.117 -0.0174 -0.0819  0.0929
 7228W        W10972   9.292   7.297   1.692  0.0628  0.0917  0.0732
 7229W        W10973   4.549   8.938   3.959  0.2779 -0.0769  0.3857
 7230ION    NA+10974   8.573   6.473   9.137 -0.1054 -0.1518  0.0476
 7231ION    NA+10975   7.019   6.554   1.687  0.0601 -0.1776 -0.1019
 7232ION    NA+10976   9.384   6.352   0.767  0.2889 -0.0453 -0.1644
 7233ION    NA+10977   4.381   0.375   8.689 -0.2678 -0.0429 -0.1293
 7234ION    NA+10978   1.265   9.596  12.685  0.1623 -0.3356 -0.2069
 7235ION    NA+10979   1.289   1.851   2.973 -0.2138  0.1617 -0.2292
 7236ION    NA+10980   2.553   6.972   9.384 -0.1093 -0.0537  0.0108
 7237ION    NA+10981   7.231   8.967  12.184 -0.2857 -0.0138 -0.0822
 7238ION    NA+10982   2.398   7.602   8.776 -0.3694 -0.1224  0.0395
 7239ION    NA+10983   9.329   5.723   3.225  0.0960  0.1256 -0.0375
 7240ION    NA+10984   3.160   8.599  11.170  0.3156  0.1223  0.1718
 7241ION    NA+10985   8.511   0.418   0.961 -0.0302  0.3176 -0.3773
 7242ION    NA+10986   1.527   4.015   4.559 -0.0067  0.0061 -0.0906
 7243ION    NA+10987   9.656   9.576   0.603  0.2047  0.0565 -0.1789
 7244ION    NA+10988   0.630   7.692   3.236  0.3532  0.1432 -0.4463
 7245ION    NA+10989   4.299   5.944  11.294  0.0879  0.1846  0.0775
 7246ION    NA+10990   1.860   2.579   0.118 -0.0787 -0.1908 -0.2538
 7247ION    NA+10991   6.374   0.098   3.145 -0.0815 -0.1956 -0.1303
 7248ION    NA+10992   1.040   6.847   4.578  0.0930 -0.0887 -0.4106
 7249ION    NA+10993   3.833   6.592   0.802 -0.1348  0.0954  0.0143
 7250ION    NA+10994   3.237   4.830  12.264 -0.2195 -0.1458  0.0040
 7251ION    NA+10995   4.435   7.997   2.172 -0.2140  0.0674 -0.0246
 7252ION    NA+10996   6.942   6.492   9.857 -0.1905  0.3138 -0.0375
 7253ION    NA+10997   1.558   1.975   8.348  0.0790  0.1721 -0.0961
 7254ION    NA+10998   8.960   9.665   1.589 -0.1229  0.4290  0.0788
 7255ION    NA+10999   2.407   7.219   0.022  0.0418 -0.0937 -0.2715
 7256ION    NA+11000   7.855   5.479  11.603  0.0006  0.2942 -0.3322
 7257ION    NA+11001   8.984   1.327   3.380  0.0656  0.1938 -0.0680
 7258ION    NA+11002   6.008   6.140   8.747  0.1108 -0.2087  0.1872
 7259ION    NA+11003   6.616   7.036   2.437 -0.1475  0.1035  0.1975
 7260ION    NA+11004   9.580   7.786   8.211  0.0999  0.1164  0.3042
 7261ION    NA+11005   6.684   6.642  12.323  0.1704  0.1186 -0.2934
 7262ION    NA+11006   8.755   0.424   9.747 -0.1021  0.1254  0.0840
 7263ION    NA+11007   4.816   4.755   9.167  0.0279 -0.3321  0.2244
 7264ION    NA+11008   4.551   5.281   4.654 -0.0143 -0.1144 -0.2678
 7265ION    NA+11009   5.801   0.212  11.910  0.3327 -0.2807  0.2801
 7266ION    NA+11010   4.699   8.294   9.504 -0.1725  0.3828  0.0137
 7267ION    NA+11011   0.519   6.517  10.590  0.0815 -0.1657 -0.1342
 7268ION    NA+11012   8.558   9.118  11.100 -0.1057  0.2151  0.2848
 7269ION    NA+11013   8.165   3.997   2.035  0.1895  0.0228  0.4794
 7270ION    NA+11014   0.008   1.453  12.411 -0.3280  0.2167 -0.2038
 7271ION    NA+11015   2.195   3.705   8.603  0.0005  0.2102  0.1287
 7272ION    NA+11016   4.437   6.095   9.724 -0.0114 -0.2803 -0.1510
 7273ION    NA+11017   9.394   7.705   3.285  0.2232  0.1625  0.0642
 7274ION    NA+11018   7.093   1.272  12.630 -0.1053 -0.2139 -0.0839
 7275ION    NA+11019   9.776   5.424   9.194 -0.4244  0.1167 -0.0066
 7276ION    NA+11020   2.037   9.192   2.516  0.0526  0.2696  0.0310
 7277ION    NA+11021   1.897   3.569   3.361  0.0925  0.1691  0.1094
 7278ION    NA+11022   5.364   6.736  12.346 -0.3468  0.0951  0.0808
 7279ION    NA+11023   6.854   5.589   2.564 -0.3471  0.0385  0.0942
 7280ION    NA+11024   3.836   8.232   3.834  0.1469  0.0181  0.1569
 7281ION    NA+11025   8.383   7.691  11.573  0.0409  0.3194  0.0521
 7282ION    NA+11026   2.430   8.663   2.748 -0.0770  0.3126  0.0598
 7283ION    NA+11027   6.294   8.833   4.049  0.0292  0.1307 -0.0455
 7284ION    NA+11028   2.075   3.455   4.664  0.1159 -0.0014 -0.0410
 7285ION    NA+11029   4.415   6.970   1.562  0.2556 -0.1391  0.3321
 7286ION    NA+11030   0.379   7.205   8.170  0.0099  0.1811 -0.1547
 7287ION    NA+11031   2.641   0.746  10.670  0.2175  0.1136  0.1958
 7288ION    NA+11032   3.830   3.034  10.638 -0.1725 -0.2510 -0.0205
 7289ION    NA+11033   0.753   6.056   9.770 -0.1116  0.0398  0.1445
 7290ION    NA+11034   6.432   6.408   4.941 -0.2626 -0.0296 -0.1310
 7291ION    NA+11035   5.568   2.911  10.810  0.0656 -0.1516 -0.3648
 7292ION    NA+11036   0.069   4.355  10.914 -0.1449 -0.1680 -0.3544
 7293ION    NA+11037   6.049   4.488   0.281 -0.0340  0.2571  0.0423
 7294ION    NA+11038   5.106   6.638   1.013  0.2368 -0.0244 -0.0469
 7295ION    NA+11039   1.734   4.557   3.066 -0.1462  0.1917  0.1417
 7296ION    NA+11040   7.691   6.829  11.582  0.0782 -0.0434 -0.3689
 7297ION    NA+11041   2.302   0.935  11.777  0.2563  0.0844  0.1410
 7298ION    NA+11042   8.633   8.633   3.329  0.2486  0.2026 -0.0030
 7299ION    NA+11043   1.003   3.194  10.249  0.2742 -0.1668 -0.0552
 7300ION    NA+11044   6.818   5.079   3.669  0.0360  0.0615 -0.0295
 7301ION    NA+11045   2.373   2.257   8.936  0.0786  0.1781  0.2593
 7302ION    NA+11046   1.834   3.839   8.263 -0.0452 -0.1088  0.0711
 7303ION    NA+11047   5.413   7.787   3.577  0.0185  0.1622 -0.0342
 7304ION    NA+11048   5.184   3.061   3.807 -0.0080 -0.2059 -0.0302
 7305ION    NA+11049   4.626   4.349   4.391 -0.0609 -0.1836  0.5234
 7306ION    CL-11050   5.841   4.584   0.703 -0.1854  0.3634  0.2843
 7307ION    CL-11051   3.865   1.455   9.618 -0.1240  0.1295 -0.1749
 7308ION    CL-11052   4.224   7.331   1.882 -0.3934  0.0130  0.0565
 7309ION    CL-11053   3.534   5.529   2.246 -0.1867 -0.2510  0.1621
 7310ION    CL-11054   5.286   3.119   1.663 -0.4944  0.3526 -0.1012
 7311ION    CL-11055   3.844   6.093   0.823 -0.0350 -0.3060 -0.0565
 7312ION    CL-11056   2.002   9.677   2.187  0.0721 -0.2821  0.0065
 7313ION    CL-11057   2.628   7.086   8.902  0.0634  0.0688  0.1920
 7314ION    CL-11058   8.649   4.112   1.982  0.1725 -0.0370 -0.1132
 7315ION    CL-11059   7.308   9.819   1.385  0.2727  0.0748 -0.1143
 7316ION    CL-11060   3.853   0.320   4.239  0.1378 -0.3115  0.0605
 7317ION    CL-11061   6.713   8.822  11.831  0.1493  0.2019 -0.0564
 7318ION    CL-11062   2.903   4.548  12.455  0.2673 -0.1046  0.1635
 7319ION    CL-11063   7.106   6.694  11.969  0.1906  0.0900  0.0990
 7320ION    CL-11064   3.796   4.869  11.038 -0.1738 -0.0683 -0.0569
 7321ION    CL-11065   8.952   6.897  11.109 -0.1276 -0.1251  0.0806
 7322ION    CL-11066   9.014   8.450   3.560  0.0529 -0.2064 -0.1790
 7323ION    CL-11067   0.735   6.921  12.023  0.0447 -0.0526  0.0467
 7324ION    CL-11068   1.496   3.876   9.125 -0.2454  0.1854 -0.0600
 7325ION    CL-11069   2.633   7.334   0.742  0.1162 -0.2502  0.0140
 7326ION    CL-11070   2.647   5.680   4.013  0.3731  0.1871 -0.2814
 7327ION    CL-11071   0.675   0.784  12.446 -0.0396  0.1267  0.1386
 7328ION    CL-11072   0.861   6.151  10.721  0.1527 -0.3228  0.1567
 7329ION    CL-11073   8.630   6.810   0.565 -0.1980 -0.0128 -0.1336
 7330ION    CL-11074   2.365   8.862   2.283  0.0935 -0.1648 -0.3637
 7331ION    CL-11075   7.101   5.218   2.815  0.2468 -0.3326 -0.0272
 7332ION    CL-11076   3.411   1.590   4.175 -0.1974  0.1586 -0.0089
 7333ION    CL-11077   2.702   8.546   5.011 -0.1004 -0.0479  0.0624
 7334ION    CL-11078   8.420   9.461   1.532 -0.2908  0.0655 -0.2364
 7335ION    CL-11079   6.824   6.665   2.218 -0.1141  0.5188  0.0064
 7336ION    CL-11080   2.036   0.641   9.019  0.1545  0.1102 -0.0423
 7337ION    CL-11081   1.636   3.526   3.738 -0.0146 -0.0802  0.1006
 7338ION    CL-11082   2.326   8.941   3.302  0.0535 -0.4034 -0.1133
 7339ION    CL-11083   0.140   1.892   2.053  0.0719 -0.0764 -0.0394
 7340ION    CL-11084   9.658   7.254   3.605  0.0538  0.2008 -0.0421
 7341ION    CL-11085   0.573   3.282   4.024  0.2797 -0.0583  0.0985
 7342ION    CL-11086   0.378   7.105   9.249  0.0910  0.1226  0.2962
 7343ION    CL-11087   9.640   3.157   2.798 -0.2184  0.1531 -0.2400
 7344ION    CL-11088   6.418   1.027  11.296  0.1251 -0.2137 -0.0226
 7345ION    CL-11089   6.812   1.493  12.313  0.2031  0.1730 -0.1842
 7346ION    CL-11090   0.863   5.562   9.855  0.2404 -0.6992  0.0057
 7347ION    CL-11091   9.171   4.887   9.618  0.0382 -0.1114 -0.2771
 7348ION    CL-11092   0.397   3.461   9.888  0.1911 -0.3882 -0.0871
 7349ION    CL-11093   7.522   8.984  11.660 -0.0141  0.2253 -0.2718
 7350ION    CL-11094   5.240   0.911  12.845  0.0816  0.0794 -0.0825
 7351ION    CL-11095   6.087   9.818  12.178 -0.1831 -0.0545  0.3458
 7352ION    CL-11096   9.321   1.430   1.470 -0.0355  0.0222  0.0535
 7353ION    CL-11097   6.966   7.278   8.691  0.2812 -0.1570  0.2987
 7354ION    CL-11098   1.304   5.590   4.222 -0.2458 -0.1459 -0.0731
 7355ION    CL-11099   7.912   7.724  11.341  0.2045 -0.2827 -0.0477
 7356ION    CL-11100   6.335   4.085   0.323  0.0499  0.1153  0.0342
 7357ION    CL-11101   5.289   9.695  12.245  0.4779  0.1776 -0.2406
 7358ION    CL-11102   3.302   8.015  11.343 -0.1683  0.2071 -0.3141
 7359ION    CL-11103   3.113   5.232  11.843 -0.0841  0.3195  0.0742
 7360ION    CL-11104   7.673   9.300   9.514  0.3687  0.0421  0.0762
 7361ION    CL-11105   0.128   9.256  11.002  0.2182  0.2072 -0.0942
 7362ION    CL-11106   5.397   8.280   0.575  0.1713  0.1026  0.0490
 7363ION    CL-11107   3.475   7.928   3.895  0.2326  0.0987 -0.3957
 7364ION    CL-11108   0.081   6.534  10.292 -0.2863 -0.2542  0.1135
 7365ION    CL-11109   4.817   7.083   1.189 -0.0779  0.0359 -0.1729
 7366ION    CL-11110   9.774   0.476   2.994  0.1345 -0.0506  0.1376
 7367ION    CL-11111   8.821   9.396  10.796 -0.3506 -0.0067  0.2198
 7368ION    CL-11112   1.599   9.711  12.351  0.0825  0.0609  0.0863
 7369ION    CL-11113   5.758   6.475   1.086 -0.0248 -0.1161  0.2316
 7370ION    CL-11114   7.982   0.412   0.708  0.2741  0.2281  0.2156
 7371ION    CL-11115   4.963   8.295   9.960 -0.3141 -0.1868 -0.2770
 7372ION    CL-11116   7.648   5.846   1.524 -0.0684  0.1115  0.0018
 7373ION    CL-11117   4.507   5.037   3.257  0.1727  0.3249  0.0186
 7374ION    CL-11118   4.464   5.634   9.647  0.1016  0.2120 -0.0832
 7375ION    CL-11119   3.951   6.274   9.773  0.2414  0.2667 -0.1101
 7376ION    CL-11120   2.567   1.855   8.711 -0.1752  0.0808  0.1195
 7377ION    CL-11121   6.214   9.737   2.629  0.1860 -0.3143 -0.0538
 7378ION    CL-11122   4.989   5.567   9.421 -0.0176 -0.3181  0.0891
 7379ION    CL-11123   2.856   2.345   9.132  0.3619  0.0805  0.1358
 7380ION    CL-11124   2.608   3.633   9.247 -0.1940 -0.3287  0.0989
 7381ION    CL-11125   4.357   3.164  10.135  0.0951 -0.1362  0.0300
   9.89021   9.89021  12.97969
