Protein in INSANE! Membrane UpperLeaflet>POPC=1.0 LowerLeaflet>POPC=1.0
12914
    1AU     AUC    1   5.746   5.818   5.999
    1AU     AUC    2   6.048   5.817   5.828
    1AU     AUC    3   6.012   5.806   6.174
    1AU     AUC    4   5.462   5.811   5.833
    1AU     AUC    5   5.473   5.853   6.182
    1AU     AUC    6   5.577   6.098   5.995
    1AU     AUC    7   5.931   6.091   5.986
    1AU     AUC    8   5.550   5.544   6.001
    1AU     AUC    9   5.909   5.540   6.004
    1AU     AUC   10   5.742   5.643   6.273
    1AU     AUC   11   5.739   6.010   6.258
    1AU     AUC   12   5.744   5.653   5.726
    1AU     AUC   13   5.775   5.970   5.721
    1AU     AUC   14   6.371   5.812   5.673
    1AU     AUC   15   6.361   5.792   6.024
    1AU     AUC   16   6.296   5.785   6.374
    1AU     AUC   17   5.158   5.813   5.665
    1AU     AUC   18   5.138   5.849   6.030
    1AU     AUC   19   5.188   5.891   6.368
    1AU     AUC   20   5.420   6.409   5.965
    1AU     AUC   21   5.780   6.434   5.942
    1AU     AUC   22   6.103   6.377   5.975
    1AU     AUC   23   5.354   5.267   5.998
    1AU     AUC   24   5.687   5.213   5.976
    1AU     AUC   25   6.072   5.225   5.982
    1AU     AUC   26   5.723   5.464   6.562
    1AU     AUC   27   5.739   5.829   6.593
    1AU     AUC   28   5.765   6.190   6.545
    1AU     AUC   29   5.772   5.484   5.443
    1AU     AUC   30   5.771   5.802   5.390
    1AU     AUC   31   5.774   6.122   5.419
    1AU     AUC   32   6.012   5.593   6.491
    1AU     AUC   33   6.045   5.977   6.489
    1AU     AUC   34   6.098   5.650   5.513
    1AU     AUC   35   6.101   5.994   5.533
    1AU     AUC   36   5.440   5.694   6.510
    1AU     AUC   37   5.463   6.070   6.484
    1AU     AUC   38   5.446   5.636   5.540
    1AU     AUC   39   5.432   5.948   5.495
    1AU     AUC   40   6.283   6.093   5.841
    1AU     AUC   41   6.216   6.084   6.196
    1AU     AUC   42   5.257   6.119   5.826
    1AU     AUC   43   5.277   6.175   6.179
    1AU     AUC   44   6.245   5.502   5.839
    1AU     AUC   45   6.202   5.480   6.175
    1AU     AUC   46   5.215   5.522   5.859
    1AU     AUC   47   5.271   5.567   6.216
    1AU     AUC   48   5.596   6.353   6.250
    1AU     AUC   49   5.934   6.307   6.268
    1AU     AUC   50   5.543   5.348   6.296
    1AU     AUC   51   5.867   5.297   6.268
    1AU     AUC   52   5.577   6.245   5.682
    1AU     AUC   53   5.961   6.275   5.663
    1AU     AUC   54   5.537   5.340   5.704
    1AU     AUC   55   5.925   5.367   5.710
    1AU    AUSL   56   6.274   5.719   6.731
    1AU    AUSL   57   6.002   5.296   6.648
    1AU     AUL   58   6.311   5.313   6.848
    1AU       S   59   6.373   4.950   6.581
    1AU     LIG   60   6.262   4.806   6.961
    1AU     LIG   61   6.386   4.442   7.171
    1AU     LIG   62   6.616   4.125   7.396
    1AU     LIG   63   6.837   3.959   7.776
    1AU     LIG   64   6.895   3.672   8.142
    1AU       S   65   6.501   5.725   6.861
    1AU     LIG   66   6.382   5.734   7.306
    1AU     LIG   67   6.539   5.592   7.736
    1AU     LIG   68   6.835   5.449   8.102
    1AU     LIG   69   7.227   5.490   8.404
    1AU     LIG   70   7.501   5.611   8.782
    1AU    AUSL   71   5.871   5.627   6.893
    1AU    AUSL   72   5.612   6.018   6.917
    1AU     AUL   73   5.801   5.922   7.231
    1AU       S   74   5.980   5.543   7.058
    1AU     LIG   75   5.952   5.500   7.498
    1AU     LIG   76   6.162   5.250   7.836
    1AU     LIG   77   6.422   5.079   8.198
    1AU     LIG   78   6.447   4.860   8.626
    1AU     LIG   79   6.470   4.880   9.097
    1AU       S   80   5.390   5.752   7.130
    1AU     LIG   81   5.444   5.730   7.604
    1AU     LIG   82   5.180   5.656   7.992
    1AU     LIG   83   5.027   5.702   8.434
    1AU     LIG   84   5.083   5.980   8.830
    1AU     LIG   85   5.046   6.077   9.292
    1AU    AUSL   86   5.935   5.998   6.657
    1AU    AUSL   87   6.366   6.122   6.615
    1AU     AUL   88   6.158   6.019   6.948
    1AU       S   89   5.832   6.382   7.098
    1AU     LIG   90   6.172   6.254   7.396
    1AU     LIG   91   6.395   6.385   7.802
    1AU     LIG   92   6.369   6.475   8.289
    1AU     LIG   93   6.390   6.669   8.728
    1AU     LIG   94   6.649   6.765   9.103
    1AU       S   95   6.518   6.266   6.781
    1AU     LIG   96   6.940   6.265   6.839
    1AU     LIG   97   7.244   6.456   7.142
    1AU     LIG   98   7.463   6.657   7.513
    1AU     LIG   99   7.780   6.722   7.867
    1AU     LIG  100   8.220   6.837   8.026
    1AU    AUSL  101   6.305   5.876   5.336
    1AU    AUSL  102   6.174   6.296   5.335
    1AU     AUL  103   6.470   6.141   5.095
    1AU       S  104   6.128   6.011   4.836
    1AU     LIG  105   6.582   5.977   4.600
    1AU     LIG  106   6.708   5.712   4.239
    1AU     LIG  107   6.834   5.506   3.834
    1AU     LIG  108   7.190   5.416   3.525
    1AU     LIG  109   7.622   5.479   3.316
    1AU       S  110   6.510   6.525   5.364
    1AU     LIG  111   6.689   6.634   4.946
    1AU     LIG  112   6.919   6.800   4.542
    1AU     LIG  113   7.173   6.932   4.152
    1AU     LIG  114   7.464   7.086   3.797
    1AU     LIG  115   7.753   7.402   3.573
    1AU    AUSL  116   6.067   5.605   5.097
    1AU    AUSL  117   6.463   5.494   5.424
    1AU     AUL  118   6.478   5.657   5.120
    1AU       S  119   6.538   5.188   5.191
    1AU     LIG  120   6.659   4.815   4.889
    1AU     LIG  121   6.913   4.433   4.841
    1AU     LIG  122   7.217   4.205   4.566
    1AU     LIG  123   7.547   4.267   4.217
    1AU     LIG  124   8.002   4.396   4.097
    1AU       S  125   6.181   5.836   4.819
    1AU     LIG  126   6.303   5.512   4.543
    1AU     LIG  127   6.402   5.321   4.101
    1AU     LIG  128   6.421   5.251   3.625
    1AU     LIG  129   6.538   5.051   3.206
    1AU     LIG  130   6.767   4.909   2.804
    1AU    AUSL  131   5.894   5.978   5.256
    1AU    AUSL  132   5.653   5.603   5.214
    1AU     AUL  133   5.791   5.638   4.936
    1AU       S  134   5.337   5.664   4.801
    1AU     LIG  135   5.408   5.349   4.536
    1AU     LIG  136   5.153   5.165   4.192
    1AU     LIG  137   4.951   5.138   3.762
    1AU     LIG  138   4.960   5.003   3.303
    1AU     LIG  139   4.924   4.953   2.827
    1AU       S  140   5.974   6.088   4.948
    1AU     LIG  141   5.854   5.879   4.457
    1AU     LIG  142   6.195   5.796   4.109
    1AU     LIG  143   6.405   5.769   3.668
    1AU     LIG  144   6.467   5.834   3.186
    1AU     LIG  145   6.452   6.059   2.761
    1AU    AUSL  146   5.218   5.963   6.740
    1AU    AUSL  147   5.512   6.316   6.627
    1AU     AUL  148   5.366   6.252   6.963
    1AU       S  149   5.211   5.851   7.173
    1AU     LIG  150   5.015   5.503   7.394
    1AU     LIG  151   4.772   5.412   7.791
    1AU     LIG  152   4.592   5.456   8.233
    1AU     LIG  153   4.223   5.398   8.536
    1AU     LIG  154   3.887   5.548   8.843
    1AU       S  155   5.121   6.575   6.714
    1AU     LIG  156   5.076   6.711   7.145
    1AU     LIG  157   4.910   6.932   7.537
    1AU     LIG  158   4.806   7.302   7.815
    1AU     LIG  159   4.653   7.439   8.253
    1AU     LIG  160   4.549   7.609   8.697
    1AU    AUSL  161   5.518   5.675   6.663
    1AU    AUSL  162   5.102   5.548   6.639
    1AU     AUL  163   5.001   5.782   6.769
    1AU       S  164   5.011   5.329   6.897
    1AU     LIG  165   4.563   5.217   6.729
    1AU     LIG  166   4.301   4.839   6.877
    1AU     LIG  167   4.036   4.615   7.210
    1AU     LIG  168   3.809   4.380   7.558
    1AU     LIG  169   3.480   4.325   7.903
    1AU       S  170   5.404   5.616   7.040
    1AU     LIG  171   5.497   5.298   7.357
    1AU     LIG  172   5.263   5.205   7.755
    1AU     LIG  173   5.031   5.173   8.176
    1AU     LIG  174   4.884   4.975   8.579
    1AU     LIG  175   4.891   4.895   9.044
    1AU    AUSL  176   5.251   5.736   5.276
    1AU    AUSL  177   5.423   5.355   5.464
    1AU     AUL  178   5.436   5.351   5.122
    1AU       S  179   5.121   5.646   4.947
    1AU     LIG  180   4.901   5.403   4.632
    1AU     LIG  181   4.718   5.443   4.200
    1AU     LIG  182   4.609   5.547   3.755
    1AU     LIG  183   4.315   5.629   3.385
    1AU     LIG  184   3.954   5.630   3.052
    1AU       S  185   5.016   5.220   5.262
    1AU     LIG  186   4.777   4.826   5.128
    1AU     LIG  187   4.538   4.489   4.918
    1AU     LIG  188   4.310   4.224   4.601
    1AU     LIG  189   4.235   4.070   4.151
    1AU     LIG  190   4.272   3.858   3.733
    1AU    AUSL  191   5.524   6.015   5.064
    1AU    AUSL  192   5.035   6.078   5.418
    1AU     AUL  193   5.168   6.081   5.088
    1AU       S  194   4.756   6.250   5.252
    1AU     LIG  195   4.590   6.473   4.870
    1AU     LIG  196   4.612   6.727   4.483
    1AU     LIG  197   4.379   6.857   4.091
    1AU     LIG  198   3.969   6.935   3.847
    1AU     LIG  199   3.664   7.266   3.687
    1AU       S  200   5.422   5.882   4.751
    1AU     LIG  201   5.149   5.771   4.355
    1AU     LIG  202   5.119   5.611   3.923
    1AU     LIG  203   5.043   5.584   3.471
    1AU     LIG  204   5.095   5.819   3.070
    1AU     LIG  205   4.895   5.954   2.671
    1AU    AUSL  206   6.520   6.322   6.022
    1AU    AUSL  207   6.503   6.123   5.616
    1AU     AUL  208   6.810   6.453   5.850
    1AU       S  209   6.615   6.250   5.508
    1AU     LIG  210   6.955   6.283   5.226
    1AU     LIG  211   7.144   6.410   4.814
    1AU     LIG  212   7.420   6.689   4.554
    1AU     LIG  213   7.691   6.870   4.216
    1AU     LIG  214   7.981   7.115   3.940
    1AU       S  215   6.917   6.205   6.236
    1AU     LIG  216   7.358   6.342   6.092
    1AU     LIG  217   7.838   6.442   6.027
    1AU     LIG  218   8.275   6.620   6.042
    1AU     LIG  219   8.603   6.912   6.202
    1AU     LIG  220   8.795   7.285   6.437
    1AU    AUSL  221   6.725   5.918   5.913
    1AU    AUSL  222   6.655   5.594   6.221
    1AU     AUL  223   7.017   5.693   6.254
    1AU       S  224   6.872   6.005   5.960
    1AU     LIG  225   7.331   5.874   5.898
    1AU     LIG  226   7.819   5.968   5.834
    1AU     LIG  227   8.270   6.168   5.753
    1AU     LIG  228   8.716   6.271   5.540
    1AU     LIG  229   9.106   6.356   5.290
    1AU       S  230   6.917   5.294   6.050
    1AU     LIG  231   7.261   5.040   6.231
    1AU     LIG  232   7.709   4.856   6.273
    1AU     LIG  233   8.181   4.717   6.271
    1AU     LIG  234   8.668   4.817   6.281
    1AU     LIG  235   9.123   4.753   6.466
    1AU    AUSL  236   6.444   5.959   6.242
    1AU    AUSL  237   6.186   6.342   6.286
    1AU     AUL  238   6.505   6.405   6.329
    1AU       S  239   6.497   6.567   6.759
    1AU     LIG  240   6.880   6.772   6.943
    1AU     LIG  241   7.233   7.000   7.174
    1AU     LIG  242   7.402   7.415   7.370
    1AU     LIG  243   7.581   7.876   7.400
    1AU     LIG  244   7.924   8.167   7.574
    1AU       S  245   6.770   6.041   6.387
    1AU     LIG  246   7.283   6.033   6.508
    1AU     LIG  247   7.742   6.044   6.340
    1AU     LIG  248   8.227   6.169   6.291
    1AU     LIG  249   8.563   6.475   6.497
    1AU     LIG  250   8.997   6.605   6.658
    1AU    AUSL  251   5.094   6.395   6.010
    1AU    AUSL  252   5.153   6.205   6.406
    1AU     AUL  253   4.852   6.507   6.241
    1AU       S  254   5.003   6.361   6.652
    1AU     LIG  255   4.867   6.232   7.055
    1AU     LIG  256   4.698   6.465   7.436
    1AU     LIG  257   4.456   6.720   7.770
    1AU     LIG  258   4.104   6.782   8.105
    1AU     LIG  259   3.744   6.929   8.387
    1AU       S  260   5.100   6.779   5.933
    1AU     LIG  261   4.642   6.782   5.844
    1AU     LIG  262   4.209   7.032   5.892
    1AU     LIG  263   3.786   7.307   5.915
    1AU     LIG  264   3.350   7.558   5.887
    1AU     LIG  265   2.899   7.749   5.929
    1AU    AUSL  266   5.045   6.003   5.824
    1AU    AUSL  267   5.181   6.447   5.601
    1AU     AUL  268   4.868   6.333   5.705
    1AU       S  269   4.668   5.806   5.475
    1AU     LIG  270   4.269   6.055   5.507
    1AU     LIG  271   3.844   6.195   5.304
    1AU     LIG  272   3.364   6.212   5.420
    1AU     LIG  273   2.965   6.498   5.407
    1AU     LIG  274   2.591   6.645   5.150
    1AU       S  275   5.015   6.700   5.429
    1AU     LIG  276   4.969   7.011   5.057
    1AU     LIG  277   4.927   7.412   4.777
    1AU     LIG  278   4.816   7.879   4.666
    1AU     LIG  279   4.527   8.263   4.581
    1AU     LIG  280   4.135   8.534   4.628
    1AU    AUSL  281   4.829   6.051   6.198
    1AU    AUSL  282   4.793   5.680   5.909
    1AU     AUL  283   4.636   5.997   5.912
    1AU       S  284   4.584   5.601   6.176
    1AU     LIG  285   4.280   5.600   5.793
    1AU     LIG  286   3.913   5.342   5.619
    1AU     LIG  287   3.460   5.168   5.576
    1AU     LIG  288   2.978   5.121   5.708
    1AU     LIG  289   2.531   5.066   5.558
    1AU       S  290   4.674   6.081   6.412
    1AU     LIG  291   4.200   6.149   6.453
    1AU     LIG  292   3.769   6.188   6.690
    1AU     LIG  293   3.374   6.441   6.771
    1AU     LIG  294   2.896   6.385   6.768
    1AU     LIG  295   2.455   6.526   6.617
    1AU    AUSL  296   6.448   5.243   6.052
    1AU    AUSL  297   6.278   5.490   6.381
    1AU     AUL  298   6.607   5.394   6.452
    1AU       S  299   6.732   5.132   6.070
    1AU     LIG  300   6.952   4.813   5.864
    1AU     LIG  301   7.354   4.590   5.968
    1AU     LIG  302   7.794   4.409   6.030
    1AU     LIG  303   8.189   4.185   6.186
    1AU     LIG  304   8.453   3.820   6.370
    1AU       S  305   6.481   4.954   6.458
    1AU     LIG  306   6.715   4.638   6.745
    1AU     LIG  307   6.912   4.405   7.084
    1AU     LIG  308   7.142   4.160   7.406
    1AU     LIG  309   7.440   4.144   7.771
    1AU     LIG  310   7.850   4.155   8.017
    1AU    AUSL  311   6.457   5.610   5.825
    1AU    AUSL  312   6.327   5.145   5.653
    1AU     AUL  313   6.601   5.285   5.658
    1AU       S  314   6.950   5.482   5.847
    1AU     LIG  315   7.316   5.165   5.739
    1AU     LIG  316   7.725   4.877   5.757
    1AU     LIG  317   8.170   4.650   5.766
    1AU     LIG  318   8.656   4.650   5.756
    1AU     LIG  319   9.018   4.706   5.444
    1AU       S  320   6.519   4.943   5.344
    1AU     LIG  321   6.467   4.462   5.336
    1AU     LIG  322   6.696   4.077   5.142
    1AU     LIG  323   6.955   3.820   4.852
    1AU     LIG  324   7.311   3.498   4.779
    1AU     LIG  325   7.671   3.176   4.674
    1AU    AUSL  326   4.981   5.316   6.062
    1AU    AUSL  327   5.080   5.564   5.624
    1AU     AUL  328   4.736   5.386   5.774
    1AU       S  329   4.934   5.395   5.355
    1AU     LIG  330   4.484   5.184   5.359
    1AU     LIG  331   4.218   4.868   5.075
    1AU     LIG  332   3.970   4.583   4.749
    1AU     LIG  333   3.828   4.269   4.403
    1AU     LIG  334   3.619   4.064   4.015
    1AU       S  335   4.550   5.363   6.210
    1AU     LIG  336   4.314   5.092   5.891
    1AU     LIG  337   3.870   4.879   5.851
    1AU     LIG  338   3.393   4.822   5.985
    1AU     LIG  339   3.053   4.592   6.251
    1AU     LIG  340   2.623   4.393   6.371
    1AU    AUSL  341   5.053   5.700   6.255
    1AU    AUSL  342   5.303   5.320   6.339
    1AU     AUL  343   4.965   5.297   6.409
    1AU       S  344   5.032   5.119   6.834
    1AU     LIG  345   4.856   4.812   6.552
    1AU     LIG  346   4.561   4.459   6.629
    1AU     LIG  347   4.210   4.252   6.893
    1AU     LIG  348   3.879   4.023   7.173
    1AU     LIG  349   3.546   3.660   7.246
    1AU       S  350   4.631   5.613   6.359
    1AU     LIG  351   4.112   5.685   6.266
    1AU     LIG  352   3.716   5.597   6.022
    1AU     LIG  353   3.345   5.336   6.031
    1AU     LIG  354   2.984   5.107   6.219
    1AU     LIG  355   2.653   4.906   6.453
    1AU    AUSL  356   5.784   6.544   6.389
    1AU    AUSL  357   5.355   6.566   6.303
    1AU     AUL  358   5.589   6.633   6.682
    1AU       S  359   5.218   6.755   6.421
    1AU     LIG  360   5.087   7.074   6.753
    1AU     LIG  361   4.923   7.286   7.155
    1AU     LIG  362   4.739   7.658   7.397
    1AU     LIG  363   4.443   8.047   7.436
    1AU     LIG  364   4.072   8.362   7.502
    1AU       S  365   5.780   6.970   6.434
    1AU     LIG  366   5.948   7.043   6.821
    1AU     LIG  367   5.986   7.485   7.023
    1AU     LIG  368   5.953   7.833   7.358
    1AU     LIG  369   6.018   8.101   7.768
    1AU     LIG  370   5.979   8.502   8.037
    1AU    AUSL  371   5.625   6.761   6.040
    1AU    AUSL  372   5.918   6.697   5.687
    1AU     AUL  373   5.858   7.040   5.829
    1AU       S  374   5.616   6.987   6.236
    1AU     LIG  375   5.596   7.432   6.445
    1AU     LIG  376   5.629   7.813   6.733
    1AU     LIG  377   5.487   8.258   6.848
    1AU     LIG  378   5.458   8.723   6.916
    1AU     LIG  379   5.374   9.163   6.791
    1AU       S  380   5.643   6.873   5.462
    1AU     LIG  381   6.021   7.176   5.380
    1AU     LIG  382   6.178   7.630   5.324
    1AU     LIG  383   6.479   8.011   5.278
    1AU     LIG  384   6.717   8.428   5.274
    1AU     LIG  385   6.702   8.878   5.176
    1AU    AUSL  386   6.066   6.691   6.092
    1AU    AUSL  387   6.035   6.402   6.692
    1AU     AUL  388   6.139   6.669   6.468
    1AU       S  389   6.272   6.497   6.908
    1AU     LIG  390   6.624   6.444   7.245
    1AU     LIG  391   6.934   6.700   7.483
    1AU     LIG  392   7.176   7.055   7.690
    1AU     LIG  393   7.243   7.403   8.004
    1AU     LIG  394   7.192   7.596   8.442
    1AU       S  395   5.971   7.055   6.278
    1AU     LIG  396   6.111   7.433   6.518
    1AU     LIG  397   6.355   7.804   6.706
    1AU     LIG  398   6.728   8.135   6.694
    1AU     LIG  399   6.903   8.584   6.738
    1AU     LIG  400   6.868   8.988   6.948
    1AU    AUSL  401   5.686   5.111   6.423
    1AU    AUSL  402   6.093   5.124   6.254
    1AU     AUL  403   5.915   4.984   6.640
    1AU       S  404   5.655   4.642   6.472
    1AU     LIG  405   5.539   4.566   6.859
    1AU     LIG  406   5.475   4.114   6.939
    1AU     LIG  407   5.494   3.638   6.965
    1AU     LIG  408   5.514   3.329   7.337
    1AU     LIG  409   5.513   3.243   7.825
    1AU       S  410   6.251   4.885   6.308
    1AU     LIG  411   6.244   4.466   6.559
    1AU     LIG  412   6.552   4.145   6.795
    1AU     LIG  413   6.900   3.881   7.023
    1AU     LIG  414   7.031   3.430   7.153
    1AU     LIG  415   7.346   3.083   7.333
    1AU    AUSL  416   5.371   4.963   6.141
    1AU    AUSL  417   5.476   5.272   6.745
    1AU     AUL  418   5.339   4.994   6.506
    1AU       S  419   5.478   4.584   6.331
    1AU     LIG  420   5.172   4.355   6.562
    1AU     LIG  421   5.175   3.882   6.593
    1AU     LIG  422   5.146   3.412   6.603
    1AU     LIG  423   4.933   2.979   6.621
    1AU     LIG  424   4.887   2.664   6.956
    1AU       S  425   5.272   5.148   6.949
    1AU     LIG  426   5.045   4.670   7.011
    1AU     LIG  427   4.604   4.495   7.145
    1AU     LIG  428   4.304   4.229   7.418
    1AU     LIG  429   4.132   4.076   7.839
    1AU     LIG  430   4.202   3.899   8.282
    1AU    AUSL  431   5.800   4.869   6.088
    1AU    AUSL  432   5.549   5.019   5.756
    1AU     AUL  433   5.429   4.729   5.894
    1AU       S  434   5.810   4.699   5.635
    1AU     LIG  435   5.530   4.311   5.581
    1AU     LIG  436   5.329   3.880   5.450
    1AU     LIG  437   5.136   3.427   5.420
    1AU     LIG  438   4.910   2.984   5.383
    1AU     LIG  439   4.770   2.608   5.104
    1AU       S  440   5.802   4.671   6.217
    1AU     LIG  441   5.852   4.213   6.284
    1AU     LIG  442   5.811   3.838   6.583
    1AU     LIG  443   6.058   3.444   6.746
    1AU     LIG  444   6.176   2.970   6.795
    1AU     LIG  445   6.125   2.473   6.726
    1AU    AUSL  446   5.767   6.430   5.360
    1AU    AUSL  447   6.204   6.402   5.750
    1AU     AUL  448   6.059   6.629   5.379
    1AU       S  449   5.654   6.834   5.245
    1AU     LIG  450   5.753   7.140   4.951
    1AU     LIG  451   5.925   7.552   4.871
    1AU     LIG  452   6.062   7.800   4.493
    1AU     LIG  453   6.105   8.086   4.130
    1AU     LIG  454   5.920   8.502   4.069
    1AU       S  455   6.437   6.615   5.638
    1AU     LIG  456   6.914   6.770   5.431
    1AU     LIG  457   7.144   6.895   5.006
    1AU     LIG  458   7.290   7.205   4.648
    1AU     LIG  459   7.494   7.671   4.614
    1AU     LIG  460   7.670   8.142   4.672
    1AU    AUSL  461   5.564   6.470   5.749
    1AU    AUSL  462   5.464   6.149   5.453
    1AU     AUL  463   5.414   6.450   5.316
    1AU       S  464   5.466   6.842   5.589
    1AU     LIG  465   5.528   7.349   5.437
    1AU     LIG  466   5.670   7.804   5.313
    1AU     LIG  467   5.428   8.232   5.241
    1AU     LIG  468   5.323   8.716   5.342
    1AU     LIG  469   5.323   9.229   5.316
    1AU       S  470   4.968   6.495   5.194
    1AU     LIG  471   5.104   6.592   4.791
    1AU     LIG  472   5.068   6.965   4.501
    1AU     LIG  473   4.954   7.093   4.047
    1AU     LIG  474   4.898   7.348   3.638
    1AU     LIG  475   4.606   7.678   3.462
    1AU    AUSL  476   5.762   5.112   5.389
    1AU    AUSL  477   5.152   5.139   5.721
    1AU     AUL  478   5.412   4.969   5.436
    1AU       S  479   4.975   5.102   5.499
    1AU     LIG  480   4.704   4.818   5.654
    1AU     LIG  481   4.386   4.555   5.440
    1AU     LIG  482   4.123   4.286   5.136
    1AU     LIG  483   3.809   4.036   4.870
    1AU     LIG  484   3.420   3.719   4.838
    1AU       S  485   5.814   4.704   5.433
    1AU     LIG  486   5.950   4.327   5.255
    1AU     LIG  487   5.725   3.962   5.100
    1AU     LIG  488   5.496   3.563   5.049
    1AU     LIG  489   5.483   3.221   4.724
    1AU     LIG  490   5.632   2.993   4.334
    1AU    AUSL  491   5.946   5.139   5.805
    1AU    AUSL  492   6.034   5.423   5.468
    1AU     AUL  493   6.083   5.075   5.417
    1AU       S  494   6.053   4.731   5.725
    1AU     LIG  495   6.032   4.262   5.763
    1AU     LIG  496   5.825   3.888   5.589
    1AU     LIG  497   5.953   3.522   5.303
    1AU     LIG  498   6.221   3.164   5.127
    1AU     LIG  499   6.542   2.800   5.187
    1AU       S  500   6.321   5.198   5.056
    1AU     LIG  501   6.167   4.750   5.027
    1AU     LIG  502   6.376   4.349   4.839
    1AU     LIG  503   6.675   4.119   4.519
    1AU     LIG  504   6.968   4.136   4.127
    1AU     LIG  505   7.124   3.961   3.716
    2POPC   NC3  506   2.150   7.878   8.081
    2POPC   PO4  507   2.322   8.458   8.241
    2POPC   GL1  508   2.360   8.340   7.712
    2POPC   GL2  509   2.246   7.980   7.607
    2POPC   C1A  510   2.261   8.286   7.232
    2POPC   D2A  511   2.154   8.442   6.844
    2POPC   C3A  512   2.205   8.261   6.433
    2POPC   C4A  513   2.372   8.443   6.053
    2POPC   C1B  514   1.855   7.926   7.356
    2POPC   C2B  515   1.689   7.762   6.978
    2POPC   C3B  516   1.763   7.841   6.550
    2POPC   C4B  517   1.698   8.172   6.270
    3POPC   NC3  518   1.925   2.694   8.281
    3POPC   PO4  519   1.599   3.243   7.995
    3POPC   GL1  520   1.806   2.987   7.669
    3POPC   GL2  521   2.108   2.973   7.861
    3POPC   C1A  522   1.738   2.759   7.235
    3POPC   D2A  523   1.795   2.564   6.794
    3POPC   C3A  524   1.656   2.859   6.456
    3POPC   C4A  525   1.768   3.022   6.047
    3POPC   C1B  526   2.242   2.831   7.415
    3POPC   C2B  527   2.387   2.800   7.009
    3POPC   C3B  528   2.308   2.638   6.637
    3POPC   C4B  529   2.146   2.830   6.332
    4POPC   NC3  530   8.166   9.752   8.004
    4POPC   PO4  531   8.110   9.154   8.184
    4POPC   GL1  532   8.397   9.323   7.817
    4POPC   GL2  533   8.137   9.515   7.572
    4POPC   C1A  534   8.527   9.276   7.377
    4POPC   D2A  535   8.280   9.525   7.056
    4POPC   C3A  536   8.354   9.613   6.624
    4POPC   C4A  537   8.384   9.413   6.183
    4POPC   C1B  538   7.871   9.778   7.313
    4POPC   C2B  539   7.719   9.911   6.903
    4POPC   C3B  540   7.638   9.768   6.510
    4POPC   C4B  541   7.993   9.726   6.283
    5POPC   NC3  542   1.935   0.518   7.979
    5POPC   PO4  543   1.530  11.491   8.064
    5POPC   GL1  544   1.635   0.137   7.640
    5POPC   GL2  545   1.962   0.317   7.530
    5POPC   C1A  546   1.722   0.066   7.193
    5POPC   D2A  547   1.860   0.342   6.883
    5POPC   C3A  548   1.868   0.166   6.493
    5POPC   C4A  549   1.715   0.200   6.092
    5POPC   C1B  550   1.916   0.698   7.265
    5POPC   C2B  551   1.799   0.842   6.818
    5POPC   C3B  552   1.985   0.687   6.395
    5POPC   C4B  553   1.931   0.602   5.907
    6POPC   NC3  554   7.338   9.325   8.123
    6POPC   PO4  555   7.569   9.949   8.058
    6POPC   GL1  556   7.557   9.631   7.736
    6POPC   GL2  557   7.220   9.729   7.667
    6POPC   C1A  558   7.641   9.328   7.396
    6POPC   D2A  559   7.788   9.394   6.924
    6POPC   C3A  560   7.615   9.277   6.476
    6POPC   C4A  561   7.736   9.390   6.002
    6POPC   C1B  562   7.363   9.709   7.243
    6POPC   C2B  563   7.214   9.694   6.874
    6POPC   C3B  564   7.171   9.522   6.485
    6POPC   C4B  565   7.258   9.673   6.091
    7POPC   NC3  566  10.888   0.413   8.020
    7POPC   PO4  567   0.079   0.706   8.085
    7POPC   GL1  568   0.126   0.521   7.704
    7POPC   GL2  569  11.286   0.476   7.632
    7POPC   C1A  570   0.138   0.639   7.289
    7POPC   D2A  571  11.292   0.634   7.019
    7POPC   C3A  572  11.438   0.511   6.624
    7POPC   C4A  573  11.259   0.525   6.228
    7POPC   C1B  574  10.922   0.400   7.351
    7POPC   C2B  575  10.813   0.480   6.915
    7POPC   C3B  576  10.920   0.285   6.530
    7POPC   C4B  577  10.652   0.095   6.203
    8POPC   NC3  578  10.551   7.285   8.116
    8POPC   PO4  579  10.472   7.963   8.097
    8POPC   GL1  580  10.640   7.654   7.749
    8POPC   GL2  581  10.366   7.423   7.670
    8POPC   C1A  582  10.688   7.517   7.275
    8POPC   D2A  583  10.682   7.688   6.850
    8POPC   C3A  584  10.468   7.476   6.505
    8POPC   C4A  585  10.643   7.472   6.099
    8POPC   C1B  586  10.167   7.539   7.295
    8POPC   C2B  587  10.286   7.283   6.952
    8POPC   C3B  588  10.115   7.100   6.592
    8POPC   C4B  589   9.957   7.394   6.305
    9POPC   NC3  590   1.938   8.855   8.092
    9POPC   PO4  591   1.910   8.246   7.942
    9POPC   GL1  592   1.925   8.590   7.628
    9POPC   GL2  593   2.246   8.831   7.649
    9POPC   C1A  594   1.769   8.421   7.224
    9POPC   D2A  595   1.688   8.291   6.799
    9POPC   C3A  596   1.814   8.613   6.469
    9POPC   C4A  597   1.863   8.603   6.002
    9POPC   C1B  598   2.131   8.831   7.193
    9POPC   C2B  599   2.179   8.926   6.728
    9POPC   C3B  600   2.127   8.976   6.271
    9POPC   C4B  601   1.929   9.288   5.987
   10POPC   NC3  602   9.384   1.766   8.119
   10POPC   PO4  603   8.736   1.971   8.024
   10POPC   GL1  604   8.846   1.974   7.599
   10POPC   GL2  605   8.981   2.325   7.633
   10POPC   C1A  606   8.922   1.741   7.169
   10POPC   D2A  607   9.187   1.976   6.830
   10POPC   C3A  608   9.337   1.903   6.438
   10POPC   C4A  609   9.020   1.991   6.133
   10POPC   C1B  610   8.978   2.248   7.205
   10POPC   C2B  611   8.713   2.106   6.874
   10POPC   C3B  612   8.601   1.981   6.477
   10POPC   C4B  613   8.521   2.258   6.115
   11POPC   NC3  614  11.279   5.965   8.075
   11POPC   PO4  615  10.689   6.330   8.065
   11POPC   GL1  616  10.933   6.165   7.697
   11POPC   GL2  617  11.024   5.793   7.679
   11POPC   C1A  618  11.052   6.043   7.246
   11POPC   D2A  619  11.341   5.823   6.930
   11POPC   C3A  620  11.181   5.828   6.500
   11POPC   C4A  621  11.057   6.238   6.320
   11POPC   C1B  622  11.256   5.558   7.374
   11POPC   C2B  623  11.459   5.327   7.039
   11POPC   C3B  624  11.462   5.398   6.596
   11POPC   C4B  625  11.239   5.403   6.181
   12POPC   NC3  626   0.398   0.247   8.052
   12POPC   PO4  627   0.852   0.766   7.959
   12POPC   GL1  628   0.639   0.560   7.674
   12POPC   GL2  629   0.777   0.268   7.591
   12POPC   C1A  630   0.666   0.680   7.261
   12POPC   D2A  631   0.471   0.561   6.875
   12POPC   C3A  632   0.609   0.751   6.501
   12POPC   C4A  633   0.764   0.685   6.069
   12POPC   C1B  634   0.450   0.204   7.284
   12POPC   C2B  635   0.266   0.087   6.877
   12POPC   C3B  636   0.392   0.234   6.466
   12POPC   C4B  637   0.265   0.564   6.191
   13POPC   NC3  638   2.958   2.858   8.139
   13POPC   PO4  639   2.385   2.719   8.262
   13POPC   GL1  640   2.578   2.790   7.798
   13POPC   GL2  641   2.809   2.563   7.696
   13POPC   C1A  642   2.737   2.941   7.350
   13POPC   D2A  643   2.733   3.193   6.965
   13POPC   C3A  644   2.706   2.982   6.598
   13POPC   C4A  645   2.885   2.663   6.377
   13POPC   C1B  646   2.629   2.437   7.303
   13POPC   C2B  647   2.738   2.448   6.860
   13POPC   C3B  648   2.595   2.251   6.483
   13POPC   C4B  649   2.475   2.463   6.131
   14POPC   NC3  650  11.290   8.747   8.035
   14POPC   PO4  651  10.672   8.931   7.952
   14POPC   GL1  652  10.891   8.662   7.645
   14POPC   GL2  653  11.200   8.755   7.539
   14POPC   C1A  654  10.859   8.673   7.186
   14POPC   D2A  655  11.206   8.720   6.891
   14POPC   C3A  656  11.027   8.853   6.518
   14POPC   C4A  657  10.890   8.700   6.143
   14POPC   C1B  658  11.336   9.093   7.253
   14POPC   C2B  659  11.271   9.269   6.832
   14POPC   C3B  660  11.485   9.097   6.502
   14POPC   C4B  661  11.356   8.872   6.113
   15POPC   NC3  662   8.620  11.358   8.002
   15POPC   PO4  663   9.093  10.969   8.271
   15POPC   GL1  664   8.932  11.035   7.768
   15POPC   GL2  665   9.030  11.254   7.510
   15POPC   C1A  666   8.762  10.862   7.322
   15POPC   D2A  667   8.878  11.066   6.886
   15POPC   C3A  668   8.937  10.875   6.431
   15POPC   C4A  669   8.910  10.916   5.963
   15POPC   C1B  670   8.598  11.349   7.317
   15POPC   C2B  671   8.492  11.411   6.893
   15POPC   C3B  672   8.739  11.406   6.512
   15POPC   C4B  673   9.168  11.359   6.435
   16POPC   NC3  674   7.027  11.254   7.873
   16POPC   PO4  675   6.885  10.667   8.103
   16POPC   GL1  676   6.687  10.860   7.696
   16POPC   GL2  677   6.723  11.180   7.496
   16POPC   C1A  678   6.831  10.756   7.261
   16POPC   D2A  679   6.775  11.023   6.888
   16POPC   C3A  680   6.726  10.831   6.454
   16POPC   C4A  681   6.486  11.033   6.084
   16POPC   C1B  682   6.435  11.372   7.228
   16POPC   C2B  683   6.302  11.263   6.816
   16POPC   C3B  684   6.609  11.340   6.516
   16POPC   C4B  685   6.496   0.045   6.189
   17POPC   NC3  686   0.527   8.091   8.152
   17POPC   PO4  687   0.021   7.696   7.857
   17POPC   GL1  688   0.222   8.029   7.652
   17POPC   GL2  689   0.567   8.139   7.656
   17POPC   C1A  690   0.212   8.131   7.226
   17POPC   D2A  691   0.445   8.075   6.878
   17POPC   C3A  692   0.197   8.055   6.507
   17POPC   C4A  693   0.186   8.191   6.087
   17POPC   C1B  694   0.629   8.432   7.339
   17POPC   C2B  695   0.725   8.522   6.913
   17POPC   C3B  696   0.872   8.208   6.629
   17POPC   C4B  697   0.698   7.985   6.291
   18POPC   NC3  698   4.024  11.066   7.908
   18POPC   PO4  699   4.672  11.434   8.033
   18POPC   GL1  700   4.425  11.467   7.666
   18POPC   GL2  701   4.413  11.133   7.600
   18POPC   C1A  702   4.418  11.436   7.176
   18POPC   D2A  703   4.261   0.071   6.764
   18POPC   C3A  704   4.215  11.316   6.394
   18POPC   C4A  705   4.216  11.386   5.941
   18POPC   C1B  706   4.308  10.930   7.233
   18POPC   C2B  707   4.354  11.035   6.811
   18POPC   C3B  708   4.611  10.905   6.472
   18POPC   C4B  709   4.433  10.924   6.085
   19POPC   NC3  710   5.861  11.159   7.983
   19POPC   PO4  711   6.555  11.211   8.035
   19POPC   GL1  712   6.253  11.147   7.661
   19POPC   GL2  713   6.088  11.478   7.634
   19POPC   C1A  714   6.137  10.959   7.208
   19POPC   D2A  715   5.805  10.747   6.954
   19POPC   C3A  716   5.756  10.860   6.512
   19POPC   C4A  717   5.985  11.093   6.183
   19POPC   C1B  718   5.816  11.359   7.302
   19POPC   C2B  719   5.751  11.239   6.885
   19POPC   C3B  720   5.665  11.363   6.493
   19POPC   C4B  721   5.466   0.124   6.246
   20POPC   NC3  722   6.427   1.017   8.157
   20POPC   PO4  723   6.253   1.627   7.996
   20POPC   GL1  724   6.462   1.324   7.697
   20POPC   GL2  725   6.578   0.969   7.685
   20POPC   C1A  726   6.577   1.391   7.272
   20POPC   D2A  727   6.523   1.614   6.887
   20POPC   C3A  728   6.451   1.380   6.524
   20POPC   C4A  729   6.342   1.375   6.085
   20POPC   C1B  730   6.833   0.951   7.338
   20POPC   C2B  731   6.682   1.013   6.931
   20POPC   C3B  732   6.852   0.975   6.551
   20POPC   C4B  733   6.796   1.162   6.191
   21POPC   NC3  734   0.411   6.311   8.148
   21POPC   PO4  735   0.599   7.014   8.019
   21POPC   GL1  736   0.288   6.835   7.717
   21POPC   GL2  737   0.413   6.490   7.668
   21POPC   C1A  738   0.106   6.755   7.282
   21POPC   D2A  739   0.230   6.550   6.906
   21POPC   C3A  740   0.051   6.751   6.564
   21POPC   C4A  741   0.209   6.896   6.165
   21POPC   C1B  742   0.592   6.624   7.283
   21POPC   C2B  743   0.738   6.436   6.882
   21POPC   C3B  744   0.551   6.577   6.487
   21POPC   C4B  745   0.533   6.496   6.053
   22POPC   NC3  746   2.403   6.185   8.193
   22POPC   PO4  747   2.257   6.775   8.104
   22POPC   GL1  748   1.911   6.792   7.829
   22POPC   GL2  749   1.852   6.467   7.732
   22POPC   C1A  750   1.884   6.917   7.405
   22POPC   D2A  751   1.887   6.764   6.984
   22POPC   C3A  752   2.097   6.924   6.613
   22POPC   C4A  753   2.215   6.716   6.193
   22POPC   C1B  754   2.045   6.341   7.319
   22POPC   C2B  755   1.893   6.262   6.886
   22POPC   C3B  756   1.880   6.456   6.478
   22POPC   C4B  757   1.789   6.339   6.046
   23POPC   NC3  758  11.103   7.728   8.032
   23POPC   PO4  759  10.924   8.425   8.141
   23POPC   GL1  760  10.903   8.146   7.762
   23POPC   GL2  761  11.244   8.242   7.705
   23POPC   C1A  762  11.052   7.872   7.373
   23POPC   D2A  763  11.177   7.618   6.982
   23POPC   C3A  764  11.093   7.814   6.540
   23POPC   C4A  765  11.061   7.967   6.104
   23POPC   C1B  766  11.236   8.329   7.258
   23POPC   C2B  767  11.291   8.200   6.825
   23POPC   C3B  768  11.259   8.364   6.387
   23POPC   C4B  769  11.255   8.390   5.921
   24POPC   NC3  770   0.117   4.265   8.288
   24POPC   PO4  771   0.747   4.442   8.255
   24POPC   GL1  772   0.439   4.294   7.876
   24POPC   GL2  773   0.302   4.557   7.676
   24POPC   C1A  774   0.351   4.121   7.415
   24POPC   D2A  775   0.462   4.200   6.959
   24POPC   C3A  776   0.285   4.014   6.588
   24POPC   C4A  777   0.377   4.071   6.137
   24POPC   C1B  778   0.547   4.578   7.293
   24POPC   C2B  779   0.607   4.665   6.831
   24POPC   C3B  780   0.408   4.512   6.441
   24POPC   C4B  781   0.071   4.507   6.118
   25POPC   NC3  782   1.147   1.125   8.077
   25POPC   PO4  783   1.521   1.626   8.058
   25POPC   GL1  784   1.226   1.513   7.710
   25POPC   GL2  785   1.192   1.157   7.589
   25POPC   C1A  786   1.244   1.549   7.250
   25POPC   D2A  787   1.023   1.440   6.853
   25POPC   C3A  788   1.220   1.582   6.504
   25POPC   C4A  789   1.345   1.435   6.125
   25POPC   C1B  790   1.129   1.001   7.187
   25POPC   C2B  791   1.195   0.947   6.780
   25POPC   C3B  792   1.066   1.074   6.408
   25POPC   C4B  793   1.173   0.973   6.001
   26POPC   NC3  794   1.192   9.518   8.150
   26POPC   PO4  795   1.660   9.182   7.900
   26POPC   GL1  796   1.411   9.542   7.663
   26POPC   GL2  797   1.157   9.803   7.742
   26POPC   C1A  798   1.428   9.698   7.249
   26POPC   D2A  799   1.243   9.414   6.963
   26POPC   C3A  800   1.342   9.412   6.549
   26POPC   C4A  801   1.252   9.508   6.171
   26POPC   C1B  802   0.942   9.673   7.398
   26POPC   C2B  803   0.963   9.851   6.997
   26POPC   C3B  804   1.144   9.869   6.608
   26POPC   C4B  805   0.871   9.816   6.262
   27POPC   NC3  806   5.284   2.550   8.216
   27POPC   PO4  807   5.465   1.952   8.095
   27POPC   GL1  808   5.404   1.745   7.686
   27POPC   GL2  809   5.771   1.715   7.554
   27POPC   C1A  810   5.320   1.910   7.247
   27POPC   D2A  811   5.619   2.055   6.913
   27POPC   C3A  812   5.477   2.114   6.477
   27POPC   C4A  813   5.718   2.148   6.092
   27POPC   C1B  814   5.614   1.507   7.198
   27POPC   C2B  815   5.507   1.582   6.747
   27POPC   C3B  816   5.841   1.758   6.470
   27POPC   C4B  817   6.105   1.806   6.105
   28POPC   NC3  818   7.713   0.278   7.976
   28POPC   PO4  819   7.176  11.442   8.276
   28POPC   GL1  820   7.118   0.247   7.834
   28POPC   GL2  821   7.303   0.585   7.816
   28POPC   C1A  822   7.169   0.151   7.327
   28POPC   D2A  823   6.943   0.015   6.941
   28POPC   C3A  824   7.118  11.500   6.519
   28POPC   C4A  825   6.997   0.165   6.095
   28POPC   C1B  826   7.267   0.648   7.365
   28POPC   C2B  827   7.378   0.489   6.945
   28POPC   C3B  828   7.456   0.379   6.509
   28POPC   C4B  829   7.279   0.596   6.146
   29POPC   NC3  830   7.978   8.725   8.111
   29POPC   PO4  831   8.594   8.609   8.095
   29POPC   GL1  832   8.348   8.809   7.719
   29POPC   GL2  833   8.006   9.017   7.694
   29POPC   C1A  834   8.076   8.626   7.365
   29POPC   D2A  835   7.903   8.774   6.948
   29POPC   C3A  836   8.144   8.647   6.592
   29POPC   C4A  837   8.006   8.543   6.188
   29POPC   C1B  838   8.070   9.113   7.276
   29POPC   C2B  839   8.373   8.997   6.980
   29POPC   C3B  840   8.366   9.102   6.585
   29POPC   C4B  841   8.018   9.061   6.296
   30POPC   NC3  842   6.384   9.614   8.205
   30POPC   PO4  843   6.899   9.199   8.105
   30POPC   GL1  844   6.752   9.536   7.762
   30POPC   GL2  845   6.469   9.800   7.718
   30POPC   C1A  846   6.835   9.666   7.301
   30POPC   D2A  847   6.744   9.511   6.877
   30POPC   C3A  848   6.722   9.757   6.490
   30POPC   C4A  849   6.782   9.433   6.148
   30POPC   C1B  850   6.305   9.710   7.331
   30POPC   C2B  851   6.371   9.851   6.946
   30POPC   C3B  852   6.189   9.704   6.581
   30POPC   C4B  853   6.067   9.836   6.202
   31POPC   NC3  854   2.344   5.352   8.235
   31POPC   PO4  855   3.056   5.296   8.177
   31POPC   GL1  856   2.720   5.465   7.851
   31POPC   GL2  857   2.582   5.811   7.838
   31POPC   C1A  858   2.662   5.499   7.361
   31POPC   D2A  859   2.826   5.379   6.915
   31POPC   C3A  860   2.679   5.479   6.480
   31POPC   C4A  861   2.913   5.594   6.089
   31POPC   C1B  862   2.637   5.998   7.400
   31POPC   C2B  863   2.741   5.895   6.941
   31POPC   C3B  864   2.666   6.000   6.476
   31POPC   C4B  865   2.266   6.166   6.278
   32POPC   NC3  866   8.100   2.067   8.231
   32POPC   PO4  867   7.898   1.567   7.842
   32POPC   GL1  868   8.121   1.796   7.566
   32POPC   GL2  869   8.319   2.043   7.759
   32POPC   C1A  870   8.425   1.630   7.276
   32POPC   D2A  871   8.493   1.571   6.826
   32POPC   C3A  872   8.057   1.625   6.644
   32POPC   C4A  873   7.780   1.563   6.265
   32POPC   C1B  874   8.439   2.138   7.345
   32POPC   C2B  875   8.235   2.000   6.964
   32POPC   C3B  876   8.113   2.176   6.587
   32POPC   C4B  877   8.148   1.909   6.228
   33POPC   NC3  878   4.612  10.964   8.047
   33POPC   PO4  879   4.213  10.388   8.253
   33POPC   GL1  880   4.520  10.277   7.758
   33POPC   GL2  881   4.277  10.367   7.477
   33POPC   C1A  882   4.727  10.308   7.315
   33POPC   D2A  883   4.659  10.634   6.974
   33POPC   C3A  884   4.743  10.414   6.565
   33POPC   C4A  885   4.753  10.522   6.133
   33POPC   C1B  886   3.995  10.129   7.241
   33POPC   C2B  887   3.897   9.969   6.835
   33POPC   C3B  888   3.940  10.132   6.402
   33POPC   C4B  889   4.282  10.409   6.296
   34POPC   NC3  890   7.331   8.123   8.006
   34POPC   PO4  891   6.768   8.306   7.960
   34POPC   GL1  892   7.118   8.485   7.665
   34POPC   GL2  893   7.451   8.368   7.574
   34POPC   C1A  894   7.126   8.472   7.201
   34POPC   D2A  895   7.268   8.214   6.825
   34POPC   C3A  896   7.126   8.293   6.390
   34POPC   C4A  897   6.790   8.106   6.149
   34POPC   C1B  898   7.650   8.365   7.173
   34POPC   C2B  899   7.764   8.322   6.741
   34POPC   C3B  900   7.627   8.232   6.332
   34POPC   C4B  901   7.668   8.303   5.883
   35POPC   NC3  902   0.999   6.810   7.917
   35POPC   PO4  903   0.948   6.153   8.123
   35POPC   GL1  904   0.975   6.352   7.696
   35POPC   GL2  905   1.332   6.435   7.717
   35POPC   C1A  906   1.079   6.600   7.287
   35POPC   D2A  907   0.991   6.878   6.916
   35POPC   C3A  908   1.071   6.654   6.500
   35POPC   C4A  909   1.043   6.503   6.063
   35POPC   C1B  910   1.556   6.470   7.305
   35POPC   C2B  911   1.429   6.563   6.884
   35POPC   C3B  912   1.560   6.844   6.582
   35POPC   C4B  913   1.500   6.754   6.161
   36POPC   NC3  914   3.276   5.700   8.140
   36POPC   PO4  915   3.049   6.259   8.320
   36POPC   GL1  916   3.032   6.138   7.790
   36POPC   GL2  917   3.064   5.798   7.651
   36POPC   C1A  918   3.112   6.158   7.252
   36POPC   D2A  919   3.224   5.965   6.788
   36POPC   C3A  920   3.159   6.206   6.350
   36POPC   C4A  921   3.297   6.389   5.925
   36POPC   C1B  922   3.150   5.652   7.222
   36POPC   C2B  923   3.530   5.580   6.963
   36POPC   C3B  924   3.668   5.692   6.558
   36POPC   C4B  925   3.320   5.733   6.339
   37POPC   NC3  926   8.324   0.618   8.009
   37POPC   PO4  927   8.141   0.017   8.026
   37POPC   GL1  928   8.338   0.210   7.642
   37POPC   GL2  929   8.062   0.451   7.583
   37POPC   C1A  930   8.421   0.354   7.189
   37POPC   D2A  931   8.109   0.310   6.827
   37POPC   C3A  932   8.212   0.388   6.381
   37POPC   C4A  933   8.315   0.083   6.007
   37POPC   C1B  934   7.816   0.634   7.222
   37POPC   C2B  935   7.802   0.715   6.756
   37POPC   C3B  936   7.798   0.680   6.279
   37POPC   C4B  937   7.677   0.691   5.830
   38POPC   NC3  938   1.548   2.600   7.910
   38POPC   PO4  939   0.995   2.925   8.078
   38POPC   GL1  940   1.026   2.721   7.714
   38POPC   GL2  941   1.293   2.962   7.648
   38POPC   C1A  942   1.195   2.558   7.309
   38POPC   D2A  943   1.293   2.692   6.887
   38POPC   C3A  944   1.358   2.461   6.496
   38POPC   C4A  945   1.408   2.589   6.065
   38POPC   C1B  946   1.012   3.091   7.346
   38POPC   C2B  947   0.880   3.004   6.946
   38POPC   C3B  948   1.012   3.105   6.544
   38POPC   C4B  949   0.797   3.016   6.164
   39POPC   NC3  950   0.576   2.714   8.118
   39POPC   PO4  951   0.730   2.107   7.974
   39POPC   GL1  952   0.553   2.439   7.689
   39POPC   GL2  953   0.273   2.693   7.694
   39POPC   C1A  954   0.673   2.668   7.330
   39POPC   D2A  955   0.811   2.437   6.976
   39POPC   C3A  956   0.883   2.612   6.583
   39POPC   C4A  957   0.893   2.463   6.162
   39POPC   C1B  958   0.158   2.755   7.246
   39POPC   C2B  959   0.399   2.741   6.863
   39POPC   C3B  960   0.426   2.761   6.420
   39POPC   C4B  961   0.100   2.769   6.124
   40POPC   NC3  962   5.009   1.801   8.143
   40POPC   PO4  963   4.761   2.469   8.156
   40POPC   GL1  964   4.872   2.194   7.766
   40POPC   GL2  965   4.878   1.837   7.670
   40POPC   C1A  966   4.868   2.179   7.275
   40POPC   D2A  967   5.123   2.221   6.856
   40POPC   C3A  968   5.003   2.324   6.403
   40POPC   C4A  969   5.270   2.428   6.036
   40POPC   C1B  970   4.894   1.611   7.301
   40POPC   C2B  971   4.837   1.815   6.899
   40POPC   C3B  972   5.036   1.830   6.511
   40POPC   C4B  973   4.850   1.688   6.132
   41POPC   NC3  974   8.867  10.618   8.050
   41POPC   PO4  975   8.368  10.121   8.205
   41POPC   GL1  976   8.472  10.413   7.808
   41POPC   GL2  977   8.793  10.350   7.629
   41POPC   C1A  978   8.397  10.453   7.313
   41POPC   D2A  979   8.536  10.243   6.878
   41POPC   C3A  980   8.552  10.503   6.466
   41POPC   C4A  981   8.464  10.651   6.000
   41POPC   C1B  982   8.907  10.184   7.240
   41POPC   C2B  983   9.040  10.314   6.817
   41POPC   C3B  984   8.919  10.173   6.415
   41POPC   C4B  985   8.927  10.428   6.081
   42POPC   NC3  986   7.523   2.230   8.049
   42POPC   PO4  987   7.827   1.712   8.350
   42POPC   GL1  988   7.450   1.742   7.879
   42POPC   GL2  989   7.622   1.975   7.627
   42POPC   C1A  990   7.495   1.606   7.345
   42POPC   D2A  991   7.746   1.859   6.995
   42POPC   C3A  992   7.650   1.965   6.518
   42POPC   C4A  993   7.355   1.855   6.161
   42POPC   C1B  994   7.347   2.080   7.254
   42POPC   C2B  995   7.254   1.931   6.835
   42POPC   C3B  996   7.182   2.206   6.482
   42POPC   C4B  997   6.939   2.155   6.101
   43POPC   NC3  998   7.604   1.236   7.979
   43POPC   PO4  999   6.902   1.236   8.070
   43POPC   GL1 1000   6.988   1.364   7.655
   43POPC   GL2 1001   7.240   1.111   7.643
   43POPC   C1A 1002   7.079   1.375   7.208
   43POPC   D2A 1003   6.979   1.420   6.792
   43POPC   C3A 1004   7.235   1.428   6.429
   43POPC   C4A 1005   7.160   1.439   5.962
   43POPC   C1B 1006   7.495   1.086   7.286
   43POPC   C2B 1007   7.250   0.982   6.927
   43POPC   C3B 1008   7.370   0.913   6.530
   43POPC   C4B 1009   7.470   1.078   6.131
   44POPC   NC3 1010   1.867   9.608   7.848
   44POPC   PO4 1011   2.315   9.156   8.062
   44POPC   GL1 1012   2.271   9.372   7.661
   44POPC   GL2 1013   1.978   9.236   7.488
   44POPC   C1A 1014   2.279   9.598   7.244
   44POPC   D2A 1015   2.326   9.392   6.858
   44POPC   C3A 1016   2.088   9.457   6.486
   44POPC   C4A 1017   2.118   9.731   6.142
   44POPC   C1B 1018   1.840   9.318   7.058
   44POPC   C2B 1019   1.711   9.682   6.795
   44POPC   C3B 1020   1.643   9.778   6.360
   44POPC   C4B 1021   1.702   9.952   5.959
   45POPC   NC3 1022  11.056   3.483   8.014
   45POPC   PO4 1023   0.098   3.222   7.747
   45POPC   GL1 1024  11.195   3.453   7.536
   45POPC   GL2 1025  11.071   3.839   7.667
   45POPC   C1A 1026  10.900   3.678   7.224
   45POPC   D2A 1027  10.751   3.509   6.849
   45POPC   C3A 1028  11.045   3.225   6.638
   45POPC   C4A 1029  11.049   3.157   6.184
   45POPC   C1B 1030  11.385   3.889   7.355
   45POPC   C2B 1031  11.344   3.728   6.944
   45POPC   C3B 1032  11.137   3.728   6.554
   45POPC   C4B 1033  11.409   3.519   6.263
   46POPC   NC3 1034   8.834   8.217   8.011
   46POPC   PO4 1035   8.462   7.757   7.805
   46POPC   GL1 1036   8.831   7.901   7.575
   46POPC   GL2 1037   8.815   8.246   7.493
   46POPC   C1A 1038   8.981   7.845   7.144
   46POPC   D2A 1039   9.112   7.954   6.705
   46POPC   C3A 1040   8.939   7.781   6.307
   46POPC   C4A 1041   8.670   7.758   5.902
   46POPC   C1B 1042   8.837   8.340   7.043
   46POPC   C2B 1043   9.169   8.465   6.775
   46POPC   C3B 1044   9.118   8.339   6.352
   46POPC   C4B 1045   8.949   8.170   5.974
   47POPC   NC3 1046   1.512   8.358   8.153
   47POPC   PO4 1047   0.966   7.943   8.070
   47POPC   GL1 1048   1.067   8.001   7.648
   47POPC   GL2 1049   0.988   7.672   7.583
   47POPC   C1A 1050   1.276   8.234   7.295
   47POPC   D2A 1051   1.252   8.537   6.951
   47POPC   C3A 1052   1.313   8.445   6.499
   47POPC   C4A 1053   1.085   8.332   6.114
   47POPC   C1B 1054   1.206   7.709   7.190
   47POPC   C2B 1055   1.276   7.998   6.832
   47POPC   C3B 1056   1.253   7.947   6.392
   47POPC   C4B 1057   1.470   7.739   6.116
   48POPC   NC3 1058   0.659  10.363   8.214
   48POPC   PO4 1059   0.099  10.073   8.255
   48POPC   GL1 1060   0.346  10.150   7.820
   48POPC   GL2 1061   0.494  10.493   7.737
   48POPC   C1A 1062   0.651  10.107   7.430
   48POPC   D2A 1063   0.493  10.051   6.993
   48POPC   C3A 1064   0.729  10.181   6.631
   48POPC   C4A 1065   0.692  10.407   6.249
   48POPC   C1B 1066   0.267  10.428   7.337
   48POPC   C2B 1067   0.338  10.535   6.923
   48POPC   C3B 1068   0.261  10.422   6.522
   48POPC   C4B 1069   0.189  10.727   6.226
   49POPC   NC3 1070   1.161   3.348   8.096
   49POPC   PO4 1071   0.754   3.882   7.915
   49POPC   GL1 1072   1.153   3.810   7.669
   49POPC   GL2 1073   1.332   3.495   7.640
   49POPC   C1A 1074   1.277   3.763   7.216
   49POPC   D2A 1075   1.125   3.507   6.875
   49POPC   C3A 1076   1.137   3.735   6.476
   49POPC   C4A 1077   1.021   3.515   6.145
   49POPC   C1B 1078   1.501   3.267   7.288
   49POPC   C2B 1079   1.483   3.150   6.860
   49POPC   C3B 1080   1.460   3.334   6.441
   49POPC   C4B 1081   1.285   3.085   6.100
   50POPC   NC3 1082   1.946   7.081   8.243
   50POPC   PO4 1083   1.314   7.078   8.105
   50POPC   GL1 1084   1.431   6.947   7.675
   50POPC   GL2 1085   1.291   7.267   7.636
   50POPC   C1A 1086   1.428   6.969   7.203
   50POPC   D2A 1087   1.335   7.288   6.912
   50POPC   C3A 1088   1.171   7.162   6.516
   50POPC   C4A 1089   1.408   7.250   6.166
   50POPC   C1B 1090   0.995   7.203   7.340
   50POPC   C2B 1091   0.813   7.387   6.989
   50POPC   C3B 1092   0.989   7.613   6.661
   50POPC   C4B 1093   0.975   7.534   6.219
   51POPC   NC3 1094   3.428   9.481   8.280
   51POPC   PO4 1095   3.505  10.152   8.184
   51POPC   GL1 1096   3.463   9.929   7.797
   51POPC   GL2 1097   3.649   9.626   7.765
   51POPC   C1A 1098   3.530   9.938   7.353
   51POPC   D2A 1099   3.237   9.820   7.044
   51POPC   C3A 1100   3.444   9.791   6.673
   51POPC   C4A 1101   3.462   9.986   6.306
   51POPC   C1B 1102   3.465   9.429   7.370
   51POPC   C2B 1103   3.320   9.326   6.924
   51POPC   C3B 1104   3.498   9.324   6.475
   51POPC   C4B 1105   3.792   9.281   6.100
   52POPC   NC3 1106   8.961   3.317   8.236
   52POPC   PO4 1107   9.143   3.890   8.115
   52POPC   GL1 1108   9.238   3.613   7.746
   52POPC   GL2 1109   8.990   3.330   7.729
   52POPC   C1A 1110   9.109   3.594   7.294
   52POPC   D2A 1111   8.846   3.552   6.909
   52POPC   C3A 1112   8.975   3.648   6.475
   52POPC   C4A 1113   8.862   3.829   6.068
   52POPC   C1B 1114   8.857   3.146   7.330
   52POPC   C2B 1115   9.040   3.088   6.935
   52POPC   C3B 1116   8.794   3.138   6.581
   52POPC   C4B 1117   8.666   3.351   6.182
   53POPC   NC3 1118   1.714   5.274   7.985
   53POPC   PO4 1119   2.181   5.781   8.187
   53POPC   GL1 1120   2.115   5.571   7.770
   53POPC   GL2 1121   1.755   5.671   7.666
   53POPC   C1A 1122   2.118   5.687   7.299
   53POPC   D2A 1123   1.897   5.737   6.885
   53POPC   C3A 1124   2.149   5.696   6.494
   53POPC   C4A 1125   2.008   5.479   6.098
   53POPC   C1B 1126   1.662   5.964   7.312
   53POPC   C2B 1127   1.422   6.052   6.929
   53POPC   C3B 1128   1.455   6.180   6.503
   53POPC   C4B 1129   1.729   5.894   6.275
   54POPC   NC3 1130  10.919   9.613   8.139
   54POPC   PO4 1131  11.480   9.254   8.078
   54POPC   GL1 1132  11.392   9.443   7.644
   54POPC   GL2 1133  11.063   9.623   7.663
   54POPC   C1A 1134  11.276   9.620   7.210
   54POPC   D2A 1135  11.293   9.865   6.811
   54POPC   C3A 1136  11.460   9.625   6.476
   54POPC   C4A 1137  11.473   9.622   6.045
   54POPC   C1B 1138  10.865   9.892   7.351
   54POPC   C2B 1139  10.809   9.719   6.922
   54POPC   C3B 1140  10.930   9.588   6.508
   54POPC   C4B 1141  11.105   9.300   6.245
   55POPC   NC3 1142  10.785   5.096   8.071
   55POPC   PO4 1143  10.183   5.458   8.134
   55POPC   GL1 1144  10.249   5.281   7.717
   55POPC   GL2 1145  10.449   4.976   7.689
   55POPC   C1A 1146  10.383   5.392   7.299
   55POPC   D2A 1147  10.489   5.248   6.881
   55POPC   C3A 1148  10.189   5.263   6.553
   55POPC   C4A 1149  10.202   4.926   6.254
   55POPC   C1B 1150  10.607   4.870   7.279
   55POPC   C2B 1151  10.634   4.758   6.853
   55POPC   C3B 1152  10.678   4.875   6.426
   55POPC   C4B 1153  10.584   4.687   6.014
   56POPC   NC3 1154   5.944   0.488   8.130
   56POPC   PO4 1155   5.292   0.334   8.284
   56POPC   GL1 1156   5.457   0.491   7.796
   56POPC   GL2 1157   5.700   0.745   7.758
   56POPC   C1A 1158   5.767   0.407   7.383
   56POPC   D2A 1159   5.714   0.249   6.929
   56POPC   C3A 1160   6.039   0.209   6.587
   56POPC   C4A 1161   5.971   0.114   6.142
   56POPC   C1B 1162   6.106   0.800   7.503
   56POPC   C2B 1163   6.145   0.859   7.038
   56POPC   C3B 1164   5.877   0.717   6.687
   56POPC   C4B 1165   5.777   0.559   6.289
   57POPC   NC3 1166   9.546  10.967   8.195
   57POPC   PO4 1167   9.227  10.636   7.740
   57POPC   GL1 1168   9.478  10.995   7.648
   57POPC   GL2 1169   9.505  11.367   7.696
   57POPC   C1A 1170   9.477  11.148   7.219
   57POPC   D2A 1171   9.729  11.016   6.861
   57POPC   C3A 1172   9.531  10.956   6.457
   57POPC   C4A 1173   9.769  11.003   6.069
   57POPC   C1B 1174   9.808   0.002   7.367
   57POPC   C2B 1175   9.661   0.042   6.899
   57POPC   C3B 1176   9.686  11.439   6.440
   57POPC   C4B 1177   9.754   0.003   5.991
   58POPC   NC3 1178  10.517   8.333   8.366
   58POPC   PO4 1179   9.991   8.494   7.909
   58POPC   GL1 1180  10.108   8.280   7.578
   58POPC   GL2 1181  10.180   7.927   7.654
   58POPC   C1A 1182  10.153   8.187   7.157
   58POPC   D2A 1183  10.339   8.055   6.799
   58POPC   C3A 1184  10.282   8.300   6.465
   58POPC   C4A 1185  10.280   8.173   6.029
   58POPC   C1B 1186  10.557   8.009   7.389
   58POPC   C2B 1187  10.790   8.185   7.034
   58POPC   C3B 1188  10.791   8.250   6.591
   58POPC   C4B 1189  10.609   7.930   6.326
   59POPC   NC3 1190   4.634   1.214   8.046
   59POPC   PO4 1191   4.133   0.763   8.101
   59POPC   GL1 1192   4.004   1.031   7.767
   59POPC   GL2 1193   4.342   1.031   7.654
   59POPC   C1A 1194   3.905   0.932   7.332
   59POPC   D2A 1195   4.142   0.948   6.949
   59POPC   C3A 1196   3.994   0.943   6.554
   59POPC   C4A 1197   4.286   1.160   6.400
   59POPC   C1B 1198   4.265   1.309   7.303
   59POPC   C2B 1199   4.515   1.427   6.956
   59POPC   C3B 1200   4.578   1.534   6.542
   59POPC   C4B 1201   4.169   1.670   6.364
   60POPC   NC3 1202   1.350   4.841   8.200
   60POPC   PO4 1203   2.047   5.004   8.161
   60POPC   GL1 1204   2.029   4.924   7.715
   60POPC   GL2 1205   1.880   5.183   7.522
   60POPC   C1A 1206   1.986   4.734   7.306
   60POPC   D2A 1207   1.887   5.036   6.972
   60POPC   C3A 1208   1.864   4.820   6.580
   60POPC   C4A 1209   1.806   5.018   6.199
   60POPC   C1B 1210   2.252   5.197   7.308
   60POPC   C2B 1211   2.304   5.365   6.883
   60POPC   C3B 1212   2.236   5.193   6.455
   60POPC   C4B 1213   2.484   5.215   6.055
   61POPC   NC3 1214   9.812   5.166   8.225
   61POPC   PO4 1215   9.760   4.507   8.032
   61POPC   GL1 1216   9.942   4.845   7.750
   61POPC   GL2 1217   9.745   5.163   7.720
   61POPC   C1A 1218  10.065   4.986   7.310
   61POPC   D2A 1219  10.125   4.856   6.863
   61POPC   C3A 1220   9.790   4.942   6.524
   61POPC   C4A 1221   9.628   4.789   6.137
   61POPC   C1B 1222   9.560   5.088   7.315
   61POPC   C2B 1223   9.551   5.216   6.869
   61POPC   C3B 1224   9.356   5.217   6.442
   61POPC   C4B 1225   9.396   5.217   5.995
   62POPC   NC3 1226  11.312  11.102   7.914
   62POPC   PO4 1227  10.774  11.474   8.101
   62POPC   GL1 1228  11.074   0.023   7.755
   62POPC   GL2 1229  10.822  11.424   7.554
   62POPC   C1A 1230  11.301   0.052   7.353
   62POPC   D2A 1231  11.060   0.042   6.978
   62POPC   C3A 1232  11.322  11.479   6.628
   62POPC   C4A 1233  11.253   0.005   6.200
   62POPC   C1B 1234  11.019  11.122   7.305
   62POPC   C2B 1235  11.153  11.048   6.898
   62POPC   C3B 1236  11.259  10.980   6.469
   62POPC   C4B 1237  10.992  10.787   6.143
   63POPC   NC3 1238  10.209   3.400   8.231
   63POPC   PO4 1239  10.674   3.321   7.765
   63POPC   GL1 1240  10.290   3.300   7.576
   63POPC   GL2 1241  10.186   3.609   7.752
   63POPC   C1A 1242  10.306   3.306   7.110
   63POPC   D2A 1243  10.274   3.377   6.654
   63POPC   C3A 1244  10.637   3.491   6.351
   63POPC   C4A 1245  10.625   3.335   5.918
   63POPC   C1B 1246  10.142   3.780   7.348
   63POPC   C2B 1247  10.326   3.791   6.939
   63POPC   C3B 1248  10.184   3.891   6.548
   63POPC   C4B 1249  10.240   3.713   6.134
   64POPC   NC3 1250   6.749   0.075   8.251
   64POPC   PO4 1251   6.391   0.562   8.228
   64POPC   GL1 1252   6.350   0.417   7.770
   64POPC   GL2 1253   6.587   0.126   7.724
   64POPC   C1A 1254   6.292   0.363   7.289
   64POPC   D2A 1255   6.480   0.266   6.867
   64POPC   C3A 1256   6.415   0.599   6.561
   64POPC   C4A 1257   6.277   0.510   6.149
   64POPC   C1B 1258   6.777   0.452   7.463
   64POPC   C2B 1259   6.884   0.544   7.016
   64POPC   C3B 1260   6.928   0.470   6.557
   64POPC   C4B 1261   6.773   0.644   6.144
   65POPC   NC3 1262   4.678  10.379   8.223
   65POPC   PO4 1263   5.014  10.982   8.289
   65POPC   GL1 1264   4.969  10.633   7.871
   65POPC   GL2 1265   4.750  10.740   7.574
   65POPC   C1A 1266   5.192  10.426   7.472
   65POPC   D2A 1267   5.113  10.434   6.967
   65POPC   C3A 1268   5.161  10.105   6.629
   65POPC   C4A 1269   5.046  10.110   6.172
   65POPC   C1B 1270   5.108  10.868   7.258
   65POPC   C2B 1271   5.292  10.903   6.813
   65POPC   C3B 1272   5.179  10.684   6.405
   65POPC   C4B 1273   5.230  10.582   5.932
   66POPC   NC3 1274   0.007   5.449   8.116
   66POPC   PO4 1275   0.021   4.709   8.117
   66POPC   GL1 1276  11.199   4.847   7.857
   66POPC   GL2 1277  11.185   5.216   7.772
   66POPC   C1A 1278  11.106   4.821   7.426
   66POPC   D2A 1279  11.101   4.621   7.024
   66POPC   C3A 1280  11.149   4.868   6.668
   66POPC   C4A 1281  11.151   4.767   6.258
   66POPC   C1B 1282  10.855   5.278   7.456
   66POPC   C2B 1283  10.967   5.161   7.039
   66POPC   C3B 1284  10.936   5.349   6.621
   66POPC   C4B 1285  10.618   5.372   6.304
   67POPC   NC3 1286   7.928  10.278   8.093
   67POPC   PO4 1287   8.470   9.932   7.713
   67POPC   GL1 1288   8.069  10.142   7.617
   67POPC   GL2 1289   8.006  10.528   7.665
   67POPC   C1A 1290   7.874  10.287   7.222
   67POPC   D2A 1291   8.067  10.443   6.849
   67POPC   C3A 1292   8.154  10.153   6.527
   67POPC   C4A 1293   7.774  10.217   6.343
   67POPC   C1B 1294   7.806  10.759   7.371
   67POPC   C2B 1295   7.700  10.800   6.931
   67POPC   C3B 1296   7.951  10.894   6.614
   67POPC   C4B 1297   8.089  10.633   6.325
   68POPC   NC3 1298   4.549   2.836   8.464
   68POPC   PO4 1299   4.000   2.585   8.105
   68POPC   GL1 1300   4.190   2.648   7.696
   68POPC   GL2 1301   3.997   2.945   7.640
   68POPC   C1A 1302   4.491   2.593   7.312
   68POPC   D2A 1303   4.520   2.322   6.926
   68POPC   C3A 1304   4.574   2.556   6.541
   68POPC   C4A 1305   4.478   2.440   6.115
   68POPC   C1B 1306   3.983   2.739   7.227
   68POPC   C2B 1307   4.164   2.763   6.793
   68POPC   C3B 1308   4.157   2.792   6.324
   68POPC   C4B 1309   4.430   2.945   5.982
   69POPC   NC3 1310   1.403   6.201   8.196
   69POPC   PO4 1311   1.240   5.566   7.980
   69POPC   GL1 1312   1.240   5.903   7.688
   69POPC   GL2 1313   1.288   5.649   7.447
   69POPC   C1A 1314   1.052   6.069   7.267
   69POPC   D2A 1315   0.906   5.901   6.824
   69POPC   C3A 1316   0.939   6.133   6.412
   69POPC   C4A 1317   0.783   6.065   5.957
   69POPC   C1B 1318   1.585   5.450   7.200
   69POPC   C2B 1319   1.390   5.540   6.815
   69POPC   C3B 1320   1.255   5.707   6.429
   69POPC   C4B 1321   1.503   5.426   6.216
   70POPC   NC3 1322   3.531   0.104   8.149
   70POPC   PO4 1323   3.347  10.848   8.125
   70POPC   GL1 1324   3.517  10.962   7.716
   70POPC   GL2 1325   3.584  11.321   7.714
   70POPC   C1A 1326   3.770  10.987   7.325
   70POPC   D2A 1327   3.923  11.273   7.009
   70POPC   C3A 1328   3.766  11.167   6.589
   70POPC   C4A 1329   3.761  11.227   6.129
   70POPC   C1B 1330   3.327  11.302   7.330
   70POPC   C2B 1331   3.149  11.377   6.905
   70POPC   C3B 1332   3.300  11.354   6.451
   70POPC   C4B 1333   3.370  10.917   6.294
   71POPC   NC3 1334  11.134   4.461   8.252
   71POPC   PO4 1335  11.431   3.908   8.031
   71POPC   GL1 1336  11.382   4.290   7.799
   71POPC   GL2 1337  11.044   4.367   7.743
   71POPC   C1A 1338  11.445   4.437   7.367
   71POPC   D2A 1339  11.470   4.238   6.986
   71POPC   C3A 1340  11.396   4.360   6.573
   71POPC   C4A 1341  11.373   4.050   6.235
   71POPC   C1B 1342  11.000   4.219   7.334
   71POPC   C2B 1343  10.991   4.114   6.908
   71POPC   C3B 1344  10.900   4.419   6.573
   71POPC   C4B 1345  10.946   4.312   6.164
   72POPC   NC3 1346   9.370   4.281   8.078
   72POPC   PO4 1347  10.001   3.892   8.165
   72POPC   GL1 1348   9.810   3.965   7.751
   72POPC   GL2 1349   9.976   4.213   7.567
   72POPC   C1A 1350   9.588   3.826   7.357
   72POPC   D2A 1351   9.324   3.874   6.939
   72POPC   C3A 1352   9.438   3.889   6.500
   72POPC   C4A 1353   9.786   4.044   6.280
   72POPC   C1B 1354   9.752   4.562   7.357
   72POPC   C2B 1355   9.649   4.687   6.946
   72POPC   C3B 1356   9.620   4.459   6.550
   72POPC   C4B 1357   9.339   4.345   6.232
   73POPC   NC3 1358   2.628   8.132   8.065
   73POPC   PO4 1359   2.220   7.463   8.278
   73POPC   GL1 1360   2.103   7.439   7.834
   73POPC   GL2 1361   1.799   7.296   7.777
   73POPC   C1A 1362   2.145   7.509   7.368
   73POPC   D2A 1363   2.193   7.728   6.942
   73POPC   C3A 1364   2.198   7.543   6.513
   73POPC   C4A 1365   1.984   7.614   6.117
   73POPC   C1B 1366   1.664   7.397   7.344
   73POPC   C2B 1367   1.858   7.282   6.962
   73POPC   C3B 1368   1.734   7.325   6.549
   73POPC   C4B 1369   1.888   7.107   6.187
   74POPC   NC3 1370  10.587   1.312   8.337
   74POPC   PO4 1371  10.101   0.842   8.243
   74POPC   GL1 1372  10.263   1.079   7.859
   74POPC   GL2 1373  10.249   1.444   7.836
   74POPC   C1A 1374  10.389   1.076   7.412
   74POPC   D2A 1375  10.048   0.956   7.122
   74POPC   C3A 1376  10.058   1.053   6.676
   74POPC   C4A 1377  10.443   1.035   6.386
   74POPC   C1B 1378  10.154   1.504   7.376
   74POPC   C2B 1379  10.299   1.397   6.956
   74POPC   C3B 1380  10.242   1.506   6.506
   74POPC   C4B 1381  10.386   1.462   6.054
   75POPC   NC3 1382   0.549   4.788   8.031
   75POPC   PO4 1383   0.462   5.501   7.927
   75POPC   GL1 1384   0.518   5.144   7.663
   75POPC   GL2 1385   0.177   5.048   7.736
   75POPC   C1A 1386   0.624   5.077   7.228
   75POPC   D2A 1387   0.397   5.142   6.837
   75POPC   C3A 1388   0.595   5.050   6.468
   75POPC   C4A 1389   0.864   4.748   6.353
   75POPC   C1B 1390   0.133   4.906   7.298
   75POPC   C2B 1391   0.101   4.729   6.870
   75POPC   C3B 1392   0.106   4.931   6.433
   75POPC   C4B 1393   0.262   5.320   6.187
   76POPC   NC3 1394   1.038   7.478   8.111
   76POPC   PO4 1395   0.440   7.682   8.346
   76POPC   GL1 1396   0.561   7.663   7.859
   76POPC   GL2 1397   0.449   7.374   7.672
   76POPC   C1A 1398   0.545   7.729   7.353
   76POPC   D2A 1399   0.309   7.535   7.024
   76POPC   C3A 1400   0.495   7.634   6.636
   76POPC   C4A 1401   0.459   7.517   6.238
   76POPC   C1B 1402   0.499   7.128   7.337
   76POPC   C2B 1403   0.456   7.000   6.950
   76POPC   C3B 1404   0.397   7.133   6.580
   76POPC   C4B 1405   0.688   7.057   6.276
   77POPC   NC3 1406   2.057   4.425   7.995
   77POPC   PO4 1407   1.505   3.983   8.067
   77POPC   GL1 1408   1.621   4.202   7.684
   77POPC   GL2 1409   1.953   4.224   7.538
   77POPC   C1A 1410   1.558   4.356   7.243
   77POPC   D2A 1411   1.743   4.094   6.905
   77POPC   C3A 1412   1.624   4.154   6.465
   77POPC   C4A 1413   1.677   4.514   6.186
   77POPC   C1B 1414   2.184   4.008   7.193
   77POPC   C2B 1415   2.278   4.137   6.778
   77POPC   C3B 1416   2.104   4.365   6.423
   77POPC   C4B 1417   2.222   4.736   6.177
   78POPC   NC3 1418   7.130  10.257   8.034
   78POPC   PO4 1419   7.577  10.722   8.090
   78POPC   GL1 1420   7.493  10.474   7.678
   78POPC   GL2 1421   7.550  10.144   7.600
   78POPC   C1A 1422   7.329  10.627   7.235
   78POPC   D2A 1423   7.086  10.624   6.831
   78POPC   C3A 1424   7.396  10.532   6.521
   78POPC   C4A 1425   7.617  10.816   6.258
   78POPC   C1B 1426   7.184  10.159   7.340
   78POPC   C2B 1427   7.312  10.194   6.927
   78POPC   C3B 1428   7.218  10.046   6.521
   78POPC   C4B 1429   7.147  10.184   6.149
   79POPC   NC3 1430   1.995   1.104   8.086
   79POPC   PO4 1431   2.274   1.577   7.827
   79POPC   GL1 1432   2.037   1.309   7.573
   79POPC   GL2 1433   1.700   1.295   7.707
   79POPC   C1A 1434   2.093   1.164   7.129
   79POPC   D2A 1435   2.287   0.963   6.749
   79POPC   C3A 1436   2.103   1.191   6.386
   79POPC   C4A 1437   2.242   1.482   6.078
   79POPC   C1B 1438   1.613   1.124   7.306
   79POPC   C2B 1439   1.529   1.290   6.912
   79POPC   C3B 1440   1.578   1.176   6.496
   79POPC   C4B 1441   1.671   0.995   6.119
   80POPC   NC3 1442  10.381   9.101   8.259
   80POPC   PO4 1443  10.508   9.708   8.305
   80POPC   GL1 1444  10.523   9.701   7.806
   80POPC   GL2 1445  10.173   9.783   7.677
   80POPC   C1A 1446  10.494   9.552   7.341
   80POPC   D2A 1447  10.300   9.640   6.916
   80POPC   C3A 1448  10.366   9.574   6.463
   80POPC   C4A 1449  10.597   9.862   6.211
   80POPC   C1B 1450  10.164  10.002   7.271
   80POPC   C2B 1451   9.967  10.033   6.836
   80POPC   C3B 1452  10.152  10.090   6.390
   80POPC   C4B 1453  10.168   9.885   5.941
   81POPC   NC3 1454   1.815   3.646   7.997
   81POPC   PO4 1455   2.394   3.985   8.003
   81POPC   GL1 1456   2.167   3.770   7.646
   81POPC   GL2 1457   2.096   3.423   7.637
   81POPC   C1A 1458   1.793   3.717   7.334
   81POPC   D2A 1459   1.757   3.568   6.890
   81POPC   C3A 1460   1.982   3.790   6.555
   81POPC   C4A 1461   2.343   3.921   6.321
   81POPC   C1B 1462   2.006   3.236   7.230
   81POPC   C2B 1463   1.983   3.054   6.821
   81POPC   C3B 1464   1.974   3.292   6.448
   81POPC   C4B 1465   1.811   3.586   6.123
   82POPC   NC3 1466  10.302   2.137   7.979
   82POPC   PO4 1467   9.783   1.783   8.361
   82POPC   GL1 1468   9.807   1.721   7.822
   82POPC   GL2 1469   9.478   1.617   7.637
   82POPC   C1A 1470   9.902   1.940   7.373
   82POPC   D2A 1471  10.107   1.880   6.938
   82POPC   C3A 1472   9.853   1.850   6.508
   82POPC   C4A 1473   9.925   1.684   6.109
   82POPC   C1B 1474   9.428   1.835   7.247
   82POPC   C2B 1475   9.660   2.078   6.909
   82POPC   C3B 1476   9.622   2.342   6.502
   82POPC   C4B 1477   9.395   2.358   6.090
   83POPC   NC3 1478   0.829   5.694   8.185
   83POPC   PO4 1479   0.196   5.868   8.243
   83POPC   GL1 1480   0.228   5.964   7.781
   83POPC   GL2 1481   0.596   5.993   7.752
   83POPC   C1A 1482   0.219   5.755   7.349
   83POPC   D2A 1483   0.540   5.582   7.063
   83POPC   C3A 1484   0.454   5.596   6.612
   83POPC   C4A 1485   0.723   5.664   6.268
   83POPC   C1B 1486   0.547   6.127   7.309
   83POPC   C2B 1487   0.389   6.055   6.883
   83POPC   C3B 1488   0.435   6.071   6.417
   83POPC   C4B 1489   0.123   5.817   6.225
   84POPC   NC3 1490  10.327  10.086   8.098
   84POPC   PO4 1491  10.047  10.744   8.071
   84POPC   GL1 1492  10.182  10.424   7.706
   84POPC   GL2 1493  10.503  10.190   7.636
   84POPC   C1A 1494  10.335  10.521   7.283
   84POPC   D2A 1495  10.262  10.808   6.950
   84POPC   C3A 1496  10.245  10.638   6.557
   84POPC   C4A 1497  10.212  10.767   6.128
   84POPC   C1B 1498  10.845  10.413   7.423
   84POPC   C2B 1499  10.809  10.704   7.079
   84POPC   C3B 1500  10.811  10.709   6.628
   84POPC   C4B 1501  10.618  10.465   6.265
   85POPC   NC3 1502   4.430   0.462   7.898
   85POPC   PO4 1503   4.028  11.487   8.110
   85POPC   GL1 1504   3.946   0.194   7.682
   85POPC   GL2 1505   4.014   0.541   7.632
   85POPC   C1A 1506   4.031   0.257   7.203
   85POPC   D2A 1507   3.921   0.504   6.813
   85POPC   C3A 1508   4.032   0.334   6.384
   85POPC   C4A 1509   4.146   0.387   5.953
   85POPC   C1B 1510   4.341   0.658   7.308
   85POPC   C2B 1511   4.427   0.512   6.931
   85POPC   C3B 1512   4.410   0.657   6.521
   85POPC   C4B 1513   4.624   0.567   6.168
   86POPC   NC3 1514   1.945   1.808   8.070
   86POPC   PO4 1515   1.995   2.486   7.869
   86POPC   GL1 1516   2.072   2.238   7.580
   86POPC   GL2 1517   1.956   1.880   7.558
   86POPC   C1A 1518   2.114   2.337   7.156
   86POPC   D2A 1519   1.983   2.055   6.841
   86POPC   C3A 1520   2.064   2.207   6.429
   86POPC   C4A 1521   1.888   2.445   6.120
   86POPC   C1B 1522   1.816   1.627   7.202
   86POPC   C2B 1523   1.945   1.528   6.761
   86POPC   C3B 1524   1.806   1.627   6.342
   86POPC   C4B 1525   1.932   1.888   6.000
   87POPC   NC3 1526   9.572   3.729   8.140
   87POPC   PO4 1527   9.814   3.161   8.251
   87POPC   GL1 1528   9.753   3.343   7.813
   87POPC   GL2 1529   9.468   3.159   7.827
   87POPC   C1A 1530   9.838   3.378   7.319
   87POPC   D2A 1531   9.830   3.712   6.913
   87POPC   C3A 1532   9.809   3.544   6.477
   87POPC   C4A 1533   9.820   3.129   6.488
   87POPC   C1B 1534   9.375   3.180   7.397
   87POPC   C2B 1535   9.462   3.355   6.966
   87POPC   C3B 1536   9.327   3.285   6.544
   87POPC   C4B 1537   9.362   3.442   6.149
   88POPC   NC3 1538   8.855   9.039   8.132
   88POPC   PO4 1539   9.254   8.464   8.059
   88POPC   GL1 1540   8.946   8.682   7.732
   88POPC   GL2 1541   8.905   9.055   7.639
   88POPC   C1A 1542   8.699   8.746   7.321
   88POPC   D2A 1543   8.857   8.839   6.899
   88POPC   C3A 1544   8.689   8.677   6.520
   88POPC   C4A 1545   8.438   8.825   6.166
   88POPC   C1B 1546   9.005   9.216   7.218
   88POPC   C2B 1547   8.783   9.321   6.794
   88POPC   C3B 1548   8.825   9.169   6.328
   88POPC   C4B 1549   9.156   9.106   5.961
   89POPC   NC3 1550   2.650   1.356   8.056
   89POPC   PO4 1551   2.292   0.756   8.141
   89POPC   GL1 1552   2.440   0.984   7.705
   89POPC   GL2 1553   2.745   1.219   7.598
   89POPC   C1A 1554   2.569   0.964   7.218
   89POPC   D2A 1555   2.828   0.820   6.864
   89POPC   C3A 1556   2.706   0.915   6.445
   89POPC   C4A 1557   2.415   0.860   6.165
   89POPC   C1B 1558   3.088   1.378   7.356
   89POPC   C2B 1559   3.149   1.249   6.918
   89POPC   C3B 1560   3.068   1.253   6.497
   89POPC   C4B 1561   2.707   1.417   6.259
   90POPC   NC3 1562   9.660   8.215   8.065
   90POPC   PO4 1563   9.433   7.672   8.028
   90POPC   GL1 1564   9.306   8.071   7.709
   90POPC   GL2 1565   9.539   8.380   7.630
   90POPC   C1A 1566   9.275   8.237   7.259
   90POPC   D2A 1567   9.542   8.152   6.953
   90POPC   C3A 1568   9.544   8.181   6.567
   90POPC   C4A 1569   9.448   7.972   6.203
   90POPC   C1B 1570   9.736   7.987   7.380
   90POPC   C2B 1571   9.907   7.796   6.916
   90POPC   C3B 1572   9.952   7.915   6.428
   90POPC   C4B 1573   9.840   8.348   6.206
   91POPC   NC3 1574   6.709   1.649   8.017
   91POPC   PO4 1575   7.059   2.217   7.955
   91POPC   GL1 1576   6.987   1.889   7.625
   91POPC   GL2 1577   6.597   1.817   7.570
   91POPC   C1A 1578   6.889   1.845   7.177
   91POPC   D2A 1579   6.754   2.072   6.825
   91POPC   C3A 1580   6.858   1.817   6.504
   91POPC   C4A 1581   6.751   1.669   6.162
   91POPC   C1B 1582   6.231   1.781   7.296
   91POPC   C2B 1583   6.132   1.948   6.892
   91POPC   C3B 1584   6.346   1.965   6.516
   91POPC   C4B 1585   6.217   2.291   6.233
   92POPC   NC3 1586   6.285   3.400   8.308
   92POPC   PO4 1587   6.599   2.979   8.167
   92POPC   GL1 1588   6.472   3.222   7.767
   92POPC   GL2 1589   6.487   3.572   7.849
   92POPC   C1A 1590   6.432   3.190   7.262
   92POPC   D2A 1591   6.650   3.212   6.836
   92POPC   C3A 1592   6.428   3.237   6.417
   92POPC   C4A 1593   6.491   3.197   5.950
   92POPC   C1B 1594   6.636   3.622   7.430
   92POPC   C2B 1595   6.451   3.661   7.017
   92POPC   C3B 1596   6.624   3.676   6.598
   92POPC   C4B 1597   6.529   3.691   6.153
   93POPC   NC3 1598   8.125   1.362   8.188
   93POPC   PO4 1599   7.789   0.781   7.989
   93POPC   GL1 1600   7.937   1.068   7.626
   93POPC   GL2 1601   8.265   1.241   7.644
   93POPC   C1A 1602   7.941   1.337   7.218
   93POPC   D2A 1603   7.639   1.357   6.842
   93POPC   C3A 1604   7.852   1.140   6.493
   93POPC   C4A 1605   7.951   1.110   6.023
   93POPC   C1B 1606   8.281   0.857   7.316
   93POPC   C2B 1607   8.336   0.772   6.843
   93POPC   C3B 1608   8.306   0.914   6.393
   93POPC   C4B 1609   8.309   1.374   6.284
   94POPC   NC3 1610   6.425  10.740   8.125
   94POPC   PO4 1611   6.576  10.045   8.137
   94POPC   GL1 1612   6.537  10.348   7.793
   94POPC   GL2 1613   6.852  10.393   7.636
   94POPC   C1A 1614   6.396  10.573   7.400
   94POPC   D2A 1615   6.522  10.561   6.908
   94POPC   C3A 1616   6.249  10.692   6.530
   94POPC   C4A 1617   6.241  10.605   6.042
   94POPC   C1B 1618   6.646  10.137   7.321
   94POPC   C2B 1619   6.825  10.072   6.915
   94POPC   C3B 1620   6.784  10.304   6.534
   94POPC   C4B 1621   6.450  10.176   6.318
   95POPC   NC3 1622   6.877   2.634   8.058
   95POPC   PO4 1623   7.557   2.689   8.212
   95POPC   GL1 1624   7.338   2.710   7.781
   95POPC   GL2 1625   7.386   2.428   7.611
   95POPC   C1A 1626   7.030   2.675   7.374
   95POPC   D2A 1627   7.075   2.457   6.936
   95POPC   C3A 1628   7.072   2.708   6.520
   95POPC   C4A 1629   6.909   3.084   6.264
   95POPC   C1B 1630   7.501   2.574   7.204
   95POPC   C2B 1631   7.572   2.343   6.843
   95POPC   C3B 1632   7.610   2.496   6.443
   95POPC   C4B 1633   7.447   2.839   6.171
   96POPC   NC3 1634  11.113   2.123   8.080
   96POPC   PO4 1635  11.433   1.504   8.021
   96POPC   GL1 1636  11.279   1.799   7.721
   96POPC   GL2 1637  11.360   1.556   7.492
   96POPC   C1A 1638  11.064   1.960   7.346
   96POPC   D2A 1639  11.071   1.762   6.936
   96POPC   C3A 1640  11.155   2.010   6.555
   96POPC   C4A 1641  11.168   1.842   6.142
   96POPC   C1B 1642   0.044   1.817   7.194
   96POPC   C2B 1643   0.048   1.771   6.772
   96POPC   C3B 1644   0.147   1.907   6.401
   96POPC   C4B 1645   0.262   1.520   6.269
   97POPC   NC3 1646   5.264   0.782   8.172
   97POPC   PO4 1647   5.081   1.354   8.093
   97POPC   GL1 1648   4.995   1.159   7.688
   97POPC   GL2 1649   5.223   0.889   7.584
   97POPC   C1A 1650   4.730   1.106   7.301
   97POPC   D2A 1651   4.651   0.960   6.864
   97POPC   C3A 1652   4.919   0.857   6.530
   97POPC   C4A 1653   4.754   1.061   6.165
   97POPC   C1B 1654   5.219   1.195   7.239
   97POPC   C2B 1655   5.033   1.333   6.869
   97POPC   C3B 1656   5.065   1.338   6.446
   97POPC   C4B 1657   5.299   1.406   6.086
   98POPC   NC3 1658   0.311   3.645   7.868
   98POPC   PO4 1659   0.310   3.053   8.254
   98POPC   GL1 1660   0.590   3.092   7.772
   98POPC   GL2 1661   0.807   3.386   7.714
   98POPC   C1A 1662   0.496   3.147   7.265
   98POPC   D2A 1663   0.082   3.209   6.998
   98POPC   C3A 1664   0.045   3.084   6.548
   98POPC   C4A 1665   0.334   3.233   6.201
   98POPC   C1B 1666   0.784   3.576   7.277
   98POPC   C2B 1667   0.583   3.534   6.841
   98POPC   C3B 1668   0.602   3.661   6.382
   98POPC   C4B 1669   0.563   3.609   5.903
   99POPC   NC3 1670  10.280   6.573   7.994
   99POPC   PO4 1671  10.743   7.057   7.770
   99POPC   GL1 1672  10.408   6.881   7.600
   99POPC   GL2 1673  10.598   6.571   7.600
   99POPC   C1A 1674  10.353   6.810   7.162
   99POPC   D2A 1675  10.403   6.687   6.727
   99POPC   C3A 1676  10.570   6.967   6.427
   99POPC   C4A 1677  10.322   7.088   6.103
   99POPC   C1B 1678  10.536   6.320   7.252
   99POPC   C2B 1679  10.350   6.201   6.868
   99POPC   C3B 1680  10.405   6.263   6.421
   99POPC   C4B 1681  10.229   6.150   6.033
  100POPC   NC3 1682  10.555   5.824   8.103
  100POPC   PO4 1683   9.961   6.192   7.997
  100POPC   GL1 1684  10.330   6.118   7.715
  100POPC   GL2 1685  10.216   5.790   7.702
  100POPC   C1A 1686  10.615   5.842   7.417
  100POPC   D2A 1687  10.795   5.641   7.059
  100POPC   C3A 1688  10.716   5.876   6.696
  100POPC   C4A 1689  10.707   5.873   6.265
  100POPC   C1B 1690  10.144   5.911   7.267
  100POPC   C2B 1691  10.272   5.702   6.888
  100POPC   C3B 1692  10.240   5.765   6.442
  100POPC   C4B 1693  10.303   5.648   5.986
  101POPC   NC3 1694  11.439   2.870   8.047
  101POPC   PO4 1695  10.814   3.149   8.242
  101POPC   GL1 1696  11.009   2.969   7.772
  101POPC   GL2 1697  11.286   2.845   7.575
  101POPC   C1A 1698  10.949   3.032   7.273
  101POPC   D2A 1699  11.207   2.833   6.980
  101POPC   C3A 1700  10.979   2.664   6.682
  101POPC   C4A 1701  11.105   2.670   6.311
  101POPC   C1B 1702  11.226   2.461   7.345
  101POPC   C2B 1703  11.394   2.276   6.966
  101POPC   C3B 1704   0.029   2.418   6.564
  101POPC   C4B 1705  11.388   2.289   6.156
  102POPC   NC3 1706   3.636   2.939   8.056
  102POPC   PO4 1707   3.144   2.443   8.057
  102POPC   GL1 1708   3.314   2.697   7.728
  102POPC   GL2 1709   3.659   2.556   7.666
  102POPC   C1A 1710   3.260   2.884   7.314
  102POPC   D2A 1711   3.108   2.794   6.879
  102POPC   C3A 1712   3.299   2.943   6.482
  102POPC   C4A 1713   3.290   2.859   6.015
  102POPC   C1B 1714   3.562   2.433   7.222
  102POPC   C2B 1715   3.616   2.596   6.776
  102POPC   C3B 1716   3.679   2.601   6.319
  102POPC   C4B 1717   3.604   2.453   5.900
  103POPC   NC3 1718   9.537   7.232   8.106
  103POPC   PO4 1719  10.175   7.008   8.119
  103POPC   GL1 1720   9.940   7.104   7.737
  103POPC   GL2 1721   9.852   7.467   7.728
  103POPC   C1A 1722   9.868   7.005   7.277
  103POPC   D2A 1723   9.738   7.253   6.886
  103POPC   C3A 1724   9.618   7.048   6.444
  103POPC   C4A 1725   9.786   6.964   6.009
  103POPC   C1B 1726   9.579   7.497   7.368
  103POPC   C2B 1727   9.428   7.654   6.983
  103POPC   C3B 1728   9.533   7.615   6.557
  103POPC   C4B 1729   9.288   7.403   6.256
  104POPC   NC3 1730   5.462  10.369   8.448
  104POPC   PO4 1731   5.925   9.763   8.223
  104POPC   GL1 1732   5.698   9.934   7.873
  104POPC   GL2 1733   5.945   9.737   7.691
  104POPC   C1A 1734   5.600   9.976   7.420
  104POPC   D2A 1735   5.876   9.900   7.030
  104POPC   C3A 1736   5.686   9.916   6.577
  104POPC   C4A 1737   5.521   9.803   6.124
  104POPC   C1B 1738   5.759   9.500   7.316
  104POPC   C2B 1739   5.793   9.446   6.849
  104POPC   C3B 1740   5.727   9.427   6.409
  104POPC   C4B 1741   6.034   9.318   6.093
  105POPC   NC3 1742   1.984  11.352   8.142
  105POPC   PO4 1743   1.738  10.766   8.022
  105POPC   GL1 1744   1.756  11.109   7.704
  105POPC   GL2 1745   2.055  11.315   7.648
  105POPC   C1A 1746   1.859  11.073   7.262
  105POPC   D2A 1747   1.687  11.137   6.878
  105POPC   C3A 1748   1.968  11.074   6.544
  105POPC   C4A 1749   1.948  10.905   6.151
  105POPC   C1B 1750   2.267  11.460   7.291
  105POPC   C2B 1751   2.124  11.400   6.889
  105POPC   C3B 1752   2.343  11.444   6.490
  105POPC   C4B 1753   2.105  11.382   6.134
  106POPC   NC3 1754   4.104  10.070   7.937
  106POPC   PO4 1755   4.681   9.542   8.000
  106POPC   GL1 1756   4.456   9.765   7.731
  106POPC   GL2 1757   4.167   9.572   7.691
  106POPC   C1A 1758   4.433   9.850   7.302
  106POPC   D2A 1759   4.294   9.638   6.910
  106POPC   C3A 1760   4.364   9.891   6.537
  106POPC   C4A 1761   4.611   9.889   6.181
  106POPC   C1B 1762   3.936   9.625   7.302
  106POPC   C2B 1763   3.810   9.457   6.885
  106POPC   C3B 1764   3.920   9.616   6.462
  106POPC   C4B 1765   4.215   9.596   6.105
  107POPC   NC3 1766   2.620   9.527   8.060
  107POPC   PO4 1767   2.194   9.957   7.820
  107POPC   GL1 1768   2.599   9.776   7.612
  107POPC   GL2 1769   2.972   9.712   7.717
  107POPC   C1A 1770   2.782   9.924   7.247
  107POPC   D2A 1771   2.762   9.950   6.809
  107POPC   C3A 1772   2.412   9.850   6.641
  107POPC   C4A 1773   2.565   9.651   6.333
  107POPC   C1B 1774   2.956   9.446   7.337
  107POPC   C2B 1775   2.831   9.462   6.914
  107POPC   C3B 1776   3.019   9.551   6.526
  107POPC   C4B 1777   2.915   9.342   6.117
  108POPC   NC3 1778   6.876   8.741   8.035
  108POPC   PO4 1779   7.563   8.516   8.058
  108POPC   GL1 1780   7.525   8.847   7.747
  108POPC   GL2 1781   7.210   9.010   7.720
  108POPC   C1A 1782   7.509   8.850   7.286
  108POPC   D2A 1783   7.403   8.709   6.856
  108POPC   C3A 1784   7.631   8.757   6.491
  108POPC   C4A 1785   7.399   8.659   6.149
  108POPC   C1B 1786   7.143   9.240   7.331
  108POPC   C2B 1787   7.315   9.204   6.904
  108POPC   C3B 1788   7.174   9.008   6.487
  108POPC   C4B 1789   7.293   9.154   6.054
  109POPC   NC3 1790  10.509   2.902   7.899
  109POPC   PO4 1791  10.741   2.249   7.854
  109POPC   GL1 1792  10.492   2.483   7.570
  109POPC   GL2 1793  10.126   2.405   7.448
  109POPC   C1A 1794  10.735   2.557   7.210
  109POPC   D2A 1795  10.883   2.237   6.935
  109POPC   C3A 1796  10.698   2.241   6.518
  109POPC   C4A 1797  10.464   2.557   6.362
  109POPC   C1B 1798  10.255   2.789   7.217
  109POPC   C2B 1799  10.577   2.919   6.895
  109POPC   C3B 1800  10.613   3.012   6.477
  109POPC   C4B 1801  10.261   3.130   6.217
  110POPC   NC3 1802   9.647   8.778   8.068
  110POPC   PO4 1803   9.295   9.287   7.872
  110POPC   GL1 1804   9.400   8.897   7.638
  110POPC   GL2 1805   9.750   8.838   7.557
  110POPC   C1A 1806   9.302   8.767   7.210
  110POPC   D2A 1807   9.332   9.026   6.824
  110POPC   C3A 1808   9.197   8.852   6.444
  110POPC   C4A 1809   9.416   8.675   6.095
  110POPC   C1B 1810   9.778   8.521   7.228
  110POPC   C2B 1811   9.907   8.473   6.808
  110POPC   C3B 1812   9.685   8.700   6.536
  110POPC   C4B 1813   9.903   8.844   6.177
  111POPC   NC3 1814   3.140  10.426   8.128
  111POPC   PO4 1815   2.573  10.728   8.028
  111POPC   GL1 1816   2.886  10.604   7.737
  111POPC   GL2 1817   2.792  10.240   7.764
  111POPC   C1A 1818   3.034  10.744   7.345
  111POPC   D2A 1819   2.768  10.804   6.975
  111POPC   C3A 1820   2.970  10.738   6.595
  111POPC   C4A 1821   2.794  10.628   6.224
  111POPC   C1B 1822   2.609  10.411   7.368
  111POPC   C2B 1823   2.408  10.425   6.992
  111POPC   C3B 1824   2.557  10.384   6.612
  111POPC   C4B 1825   2.576  10.146   6.254
  112POPC   NC3 1826   7.845  11.134   7.991
  112POPC   PO4 1827   8.468  10.901   7.960
  112POPC   GL1 1828   8.234  11.161   7.635
  112POPC   GL2 1829   7.924  11.414   7.590
  112POPC   C1A 1830   8.225  10.995   7.217
  112POPC   D2A 1831   8.443  10.775   6.914
  112POPC   C3A 1832   8.447  10.989   6.580
  112POPC   C4A 1833   8.484  11.107   6.196
  112POPC   C1B 1834   8.078  11.493   7.237
  112POPC   C2B 1835   8.014  11.309   6.871
  112POPC   C3B 1836   8.147  11.388   6.475
  112POPC   C4B 1837   7.986  11.154   6.139
  113POPC   NC3 1838   2.413   2.326   8.009
  113POPC   PO4 1839   2.489   1.725   8.290
  113POPC   GL1 1840   2.628   1.902   7.827
  113POPC   GL2 1841   2.883   2.069   7.840
  113POPC   C1A 1842   2.432   1.967   7.365
  113POPC   D2A 1843   2.489   2.013   6.923
  113POPC   C3A 1844   2.348   1.784   6.526
  113POPC   C4A 1845   2.422   1.947   6.104
  113POPC   C1B 1846   2.927   1.941   7.397
  113POPC   C2B 1847   3.029   2.018   6.957
  113POPC   C3B 1848   3.095   2.193   6.554
  113POPC   C4B 1849   2.919   1.950   6.211
  114POPC   NC3 1850   4.359   9.212   8.031
  114POPC   PO4 1851   3.740   9.211   8.071
  114POPC   GL1 1852   3.844   9.162   7.633
  114POPC   GL2 1853   4.077   8.912   7.686
  114POPC   C1A 1854   4.089   9.152   7.220
  114POPC   D2A 1855   4.070   8.978   6.791
  114POPC   C3A 1856   4.201   9.171   6.388
  114POPC   C4A 1857   4.273   9.130   5.918
  114POPC   C1B 1858   4.386   8.757   7.384
  114POPC   C2B 1859   4.550   8.769   6.960
  114POPC   C3B 1860   4.563   8.834   6.505
  114POPC   C4B 1861   4.289   8.688   6.159
  115POPC   NC3 1862  11.008   1.386   7.847
  115POPC   PO4 1863  10.541   1.735   8.148
  115POPC   GL1 1864  10.668   1.756   7.703
  115POPC   GL2 1865  10.385   1.897   7.563
  115POPC   C1A 1866  10.670   1.619   7.243
  115POPC   D2A 1867  10.581   1.822   6.810
  115POPC   C3A 1868  10.741   1.709   6.421
  115POPC   C4A 1869  10.683   1.862   5.984
  115POPC   C1B 1870  10.485   2.104   7.227
  115POPC   C2B 1871  10.360   2.370   6.910
  115POPC   C3B 1872  10.128   2.260   6.574
  115POPC   C4B 1873  10.307   1.971   6.293
  116POPC   NC3 1874  10.939   6.745   8.035
  116POPC   PO4 1875  11.478   6.372   8.018
  116POPC   GL1 1876  11.412   6.394   7.647
  116POPC   GL2 1877  11.279   6.733   7.660
  116POPC   C1A 1878   0.016   6.243   7.260
  116POPC   D2A 1879  11.258   6.351   6.896
  116POPC   C3A 1880  11.488   6.222   6.588
  116POPC   C4A 1881   0.062   6.372   6.213
  116POPC   C1B 1882  11.041   6.555   7.342
  116POPC   C2B 1883  10.845   6.669   6.981
  116POPC   C3B 1884  11.015   6.752   6.573
  116POPC   C4B 1885  11.210   6.728   6.175
  117POPC   NC3 1886   2.160  10.406   7.933
  117POPC   PO4 1887   1.554   9.905   8.055
  117POPC   GL1 1888   1.601  10.073   7.641
  117POPC   GL2 1889   1.671  10.436   7.618
  117POPC   C1A 1890   1.706  10.130   7.188
  117POPC   D2A 1891   2.035  10.098   6.878
  117POPC   C3A 1892   2.020  10.119   6.425
  117POPC   C4A 1893   1.800  10.404   6.155
  117POPC   C1B 1894   1.973  10.567   7.308
  117POPC   C2B 1895   1.823  10.613   6.907
  117POPC   C3B 1896   2.053  10.582   6.577
  117POPC   C4B 1897   2.283  10.540   6.204
  118POPC   NC3 1898   2.771   0.506   8.109
  118POPC   PO4 1899   2.243   0.170   7.962
  118POPC   GL1 1900   2.424   0.460   7.717
  118POPC   GL2 1901   2.746   0.344   7.632
  118POPC   C1A 1902   2.388   0.502   7.286
  118POPC   D2A 1903   2.393   0.311   6.906
  118POPC   C3A 1904   2.455   0.483   6.534
  118POPC   C4A 1905   2.303   0.361   6.152
  118POPC   C1B 1906   2.789   0.182   7.216
  118POPC   C2B 1907   2.891   0.301   6.791
  118POPC   C3B 1908   2.861   0.189   6.372
  118POPC   C4B 1909   3.096   0.142   5.995
  119POPC   NC3 1910   2.923  11.026   8.030
  119POPC   PO4 1911   3.060   0.117   8.082
  119POPC   GL1 1912   2.949  11.383   7.682
  119POPC   GL2 1913   2.572  11.301   7.718
  119POPC   C1A 1914   2.814  11.195   7.291
  119POPC   D2A 1915   2.613  11.302   6.913
  119POPC   C3A 1916   2.813  11.222   6.548
  119POPC   C4A 1917   2.939  11.145   6.154
  119POPC   C1B 1918   2.371  10.959   7.416
  119POPC   C2B 1919   2.253  10.910   6.973
  119POPC   C3B 1920   2.448  10.888   6.575
  119POPC   C4B 1921   2.458  11.019   6.164
  120POPC   NC3 1922   1.531  10.362   8.096
  120POPC   PO4 1923   0.954  10.700   8.144
  120POPC   GL1 1924   1.191  10.611   7.791
  120POPC   GL2 1925   1.029  10.303   7.768
  120POPC   C1A 1926   1.078  10.664   7.359
  120POPC   D2A 1927   0.850  10.546   6.974
  120POPC   C3A 1928   1.102  10.595   6.569
  120POPC   C4A 1929   1.547  10.718   6.452
  120POPC   C1B 1930   1.174  10.157   7.366
  120POPC   C2B 1931   1.278  10.270   6.956
  120POPC   C3B 1932   1.557  10.223   6.637
  120POPC   C4B 1933   1.343  10.201   6.261
  121POPC   NC3 1934   9.807   1.194   8.151
  121POPC   PO4 1935   9.180   1.373   7.983
  121POPC   GL1 1936   9.455   1.102   7.724
  121POPC   GL2 1937   9.807   1.208   7.641
  121POPC   C1A 1938   9.573   0.847   7.350
  121POPC   D2A 1939   9.582   0.987   6.915
  121POPC   C3A 1940   9.317   1.049   6.584
  121POPC   C4A 1941   9.531   0.935   6.217
  121POPC   C1B 1942   9.686   1.364   7.251
  121POPC   C2B 1943   9.785   1.484   6.858
  121POPC   C3B 1944   9.700   1.366   6.449
  121POPC   C4B 1945   9.991   1.172   6.162
  122POPC   NC3 1946   9.896   0.348   8.130
  122POPC   PO4 1947   9.481   0.859   8.178
  122POPC   GL1 1948   9.776   0.732   7.834
  122POPC   GL2 1949   9.565   0.462   7.747
  122POPC   C1A 1950   9.992   0.526   7.467
  122POPC   D2A 1951  10.045   0.327   7.055
  122POPC   C3A 1952   9.820   0.539   6.718
  122POPC   C4A 1953  10.002   0.690   6.335
  122POPC   C1B 1954   9.428   0.325   7.360
  122POPC   C2B 1955   9.347   0.503   6.979
  122POPC   C3B 1956   9.337   0.332   6.572
  122POPC   C4B 1957   9.602   0.419   6.233
  123POPC   NC3 1958   5.100  11.422   8.407
  123POPC   PO4 1959   5.606   0.043   7.922
  123POPC   GL1 1960   5.371  11.273   7.608
  123POPC   GL2 1961   5.045  11.127   7.768
  123POPC   C1A 1962   5.303  11.349   7.149
  123POPC   D2A 1963   5.228   0.028   6.742
  123POPC   C3A 1964   5.160  11.236   6.419
  123POPC   C4A 1965   5.438  11.045   6.131
  123POPC   C1B 1966   4.852  11.282   7.396
  123POPC   C2B 1967   4.831  11.175   6.961
  123POPC   C3B 1968   4.710  11.377   6.619
  123POPC   C4B 1969   4.673  11.359   6.193
  124POPC   NC3 1970   0.345   9.186   8.341
  124POPC   PO4 1971   0.429   8.575   8.103
  124POPC   GL1 1972   0.444   8.798   7.687
  124POPC   GL2 1973   0.141   8.959   7.662
  124POPC   C1A 1974   0.548   8.924   7.255
  124POPC   D2A 1975   0.351   9.053   6.879
  124POPC   C3A 1976   0.629   8.902   6.564
  124POPC   C4A 1977   0.668   8.539   6.324
  124POPC   C1B 1978   0.133   8.649   7.294
  124POPC   C2B 1979   0.197   8.533   6.852
  124POPC   C3B 1980   0.192   8.638   6.408
  124POPC   C4B 1981   0.344   9.025   6.151
  125POPC   NC3 1982   4.205   0.362   8.345
  125POPC   PO4 1983   3.595   0.555   8.259
  125POPC   GL1 1984   3.520   0.537   7.783
  125POPC   GL2 1985   3.288   0.277   7.648
  125POPC   C1A 1986   3.607   0.498   7.307
  125POPC   D2A 1987   3.561   0.173   6.959
  125POPC   C3A 1988   3.530   0.319   6.505
  125POPC   C4A 1989   3.622   0.221   6.059
  125POPC   C1B 1990   3.106   0.557   7.306
  125POPC   C2B 1991   3.294   0.621   6.873
  125POPC   C3B 1992   3.127   0.628   6.421
  125POPC   C4B 1993   3.298   0.618   5.990
  126POPC   NC3 1994   0.789   8.870   8.048
  126POPC   PO4 1995   1.378   8.727   8.436
  126POPC   GL1 1996   1.372   8.771   7.888
  126POPC   GL2 1997   1.178   9.068   7.752
  126POPC   C1A 1998   1.533   8.846   7.383
  126POPC   D2A 1999   1.685   8.819   6.927
  126POPC   C3A 2000   1.721   9.101   6.590
  126POPC   C4A 2001   1.543   9.040   6.185
  126POPC   C1B 2002   1.025   8.809   7.388
  126POPC   C2B 2003   0.968   8.976   6.972
  126POPC   C3B 2004   1.194   8.941   6.620
  126POPC   C4B 2005   1.091   8.818   6.247
  127POPC   NC3 2006   9.671  10.523   7.882
  127POPC   PO4 2007   9.186  10.236   8.169
  127POPC   GL1 2008   9.366  10.152   7.672
  127POPC   GL2 2009   9.752  10.191   7.512
  127POPC   C1A 2010   9.409  10.178   7.171
  127POPC   D2A 2011   9.441   9.984   6.775
  127POPC   C3A 2012   9.413  10.263   6.420
  127POPC   C4A 2013   9.386  10.198   5.975
  127POPC   C1B 2014   9.825  10.509   7.192
  127POPC   C2B 2015   9.754  10.512   6.748
  127POPC   C3B 2016   9.804  10.545   6.313
  127POPC   C4B 2017   9.888  10.305   5.994
  128POPC   NC3 2018   3.383   8.984   7.903
  128POPC   PO4 2019   2.936   8.480   7.915
  128POPC   GL1 2020   3.228   8.653   7.542
  128POPC   GL2 2021   3.616   8.681   7.562
  128POPC   C1A 2022   3.117   8.776   7.104
  128POPC   D2A 2023   3.167   8.472   6.755
  128POPC   C3A 2024   3.199   8.674   6.398
  128POPC   C4A 2025   3.060   9.052   6.522
  128POPC   C1B 2026   3.602   8.961   7.202
  128POPC   C2B 2027   3.525   8.892   6.766
  128POPC   C3B 2028   3.745   8.862   6.392
  128POPC   C4B 2029   3.798   8.770   5.978
  129POPC   NC3 2030  10.523   0.696   8.326
  129POPC   PO4 2031  10.317   0.205   8.020
  129POPC   GL1 2032  10.501   0.311   7.646
  129POPC   GL2 2033  10.548   0.658   7.682
  129POPC   C1A 2034  10.503   0.111   7.210
  129POPC   D2A 2035  10.484   0.115   6.755
  129POPC   C3A 2036  10.130   0.174   6.502
  129POPC   C4A 2037  10.186   0.284   6.061
  129POPC   C1B 2038  10.439   0.614   7.228
  129POPC   C2B 2039  10.332   0.638   6.791
  129POPC   C3B 2040  10.479   0.529   6.427
  129POPC   C4B 2041  10.771   0.629   6.181
  130POPC   NC3 2042   2.519   7.154   8.089
  130POPC   PO4 2043   2.553   7.709   7.906
  130POPC   GL1 2044   2.562   7.359   7.600
  130POPC   GL2 2045   2.330   7.049   7.614
  130POPC   C1A 2046   2.617   7.518   7.174
  130POPC   D2A 2047   2.632   7.973   7.035
  130POPC   C3A 2048   2.619   7.972   6.590
  130POPC   C4A 2049   2.701   7.559   6.384
  130POPC   C1B 2050   2.304   7.079   7.141
  130POPC   C2B 2051   2.506   7.208   6.752
  130POPC   C3B 2052   2.580   7.035   6.332
  130POPC   C4B 2053   2.598   6.892   5.863
  131POPC   NC3 2054   1.111   1.861   8.080
  131POPC   PO4 2055   1.682   2.275   8.231
  131POPC   GL1 2056   1.567   2.098   7.814
  131POPC   GL2 2057   1.227   2.226   7.725
  131POPC   C1A 2058   1.595   2.186   7.346
  131POPC   D2A 2059   1.367   2.189   6.953
  131POPC   C3A 2060   1.540   1.988   6.596
  131POPC   C4A 2061   1.495   2.080   6.174
  131POPC   C1B 2062   1.039   2.033   7.350
  131POPC   C2B 2063   0.916   1.940   6.918
  131POPC   C3B 2064   1.028   2.073   6.489
  131POPC   C4B 2065   1.051   1.860   6.082
  132POPC   NC3 2066   5.146   9.612   8.017
  132POPC   PO4 2067   5.105  10.223   8.169
  132POPC   GL1 2068   4.972  10.030   7.712
  132POPC   GL2 2069   4.927   9.677   7.563
  132POPC   C1A 2070   5.122   9.986   7.234
  132POPC   D2A 2071   5.388   9.759   6.978
  132POPC   C3A 2072   5.133   9.591   6.682
  132POPC   C4A 2073   5.079   9.611   6.288
  132POPC   C1B 2074   5.008   9.437   7.169
  132POPC   C2B 2075   4.862   9.159   6.810
  132POPC   C3B 2076   5.024   9.089   6.385
  132POPC   C4B 2077   5.154   9.229   5.938
  133POPC   NC3 2078   5.786   1.626   8.054
  133POPC   PO4 2079   5.945   0.956   8.148
  133POPC   GL1 2080   5.952   1.216   7.778
  133POPC   GL2 2081   5.595   1.250   7.688
  133POPC   C1A 2082   6.071   1.295   7.341
  133POPC   D2A 2083   6.028   1.452   6.902
  133POPC   C3A 2084   5.923   1.247   6.519
  133POPC   C4A 2085   6.112   0.962   6.265
  133POPC   C1B 2086   5.671   0.983   7.311
  133POPC   C2B 2087   5.597   1.094   6.895
  133POPC   C3B 2088   5.458   1.017   6.494
  133POPC   C4B 2089   5.627   1.007   6.083
  134POPC   NC3 2090   9.452   9.606   8.167
  134POPC   PO4 2091   9.874  10.095   7.980
  134POPC   GL1 2092   9.658   9.736   7.717
  134POPC   GL2 2093   9.753   9.384   7.696
  134POPC   C1A 2094   9.725   9.722   7.274
  134POPC   D2A 2095   9.831   9.487   6.937
  134POPC   C3A 2096   9.724   9.627   6.545
  134POPC   C4A 2097   9.728   9.880   6.203
  134POPC   C1B 2098   9.575   9.214   7.285
  134POPC   C2B 2099   9.817   8.969   6.982
  134POPC   C3B 2100   9.921   9.149   6.577
  134POPC   C4B 2101   9.552   9.195   6.302
  135POPC   NC3 2102   8.773   1.538   7.838
  135POPC   PO4 2103   8.497   1.030   8.123
  135POPC   GL1 2104   8.654   0.913   7.698
  135POPC   GL2 2105   8.940   1.083   7.661
  135POPC   C1A 2106   8.666   1.168   7.261
  135POPC   D2A 2107   8.884   1.158   6.873
  135POPC   C3A 2108   8.791   1.110   6.431
  135POPC   C4A 2109   8.738   1.315   6.035
  135POPC   C1B 2110   9.196   1.219   7.293
  135POPC   C2B 2111   9.276   1.467   6.917
  135POPC   C3B 2112   8.971   1.580   6.596
  135POPC   C4B 2113   9.178   1.438   6.261
  136POPC   NC3 2114   9.019   0.903   8.130
  136POPC   PO4 2115   8.684   0.336   7.986
  136POPC   GL1 2116   9.031   0.519   7.797
  136POPC   GL2 2117   9.128   0.189   7.767
  136POPC   C1A 2118   9.088   0.705   7.398
  136POPC   D2A 2119   8.796   0.692   7.079
  136POPC   C3A 2120   8.975   0.691   6.677
  136POPC   C4A 2121   9.104   0.674   6.259
  136POPC   C1B 2122   8.914   0.236   7.369
  136POPC   C2B 2123   8.912   0.202   6.943
  136POPC   C3B 2124   8.612   0.361   6.675
  136POPC   C4B 2125   8.703   0.351   6.226
  137POPC   NC3 2126   3.597   1.040   8.120
  137POPC   PO4 2127   2.884   0.949   8.018
  137POPC   GL1 2128   3.230   0.972   7.687
  137POPC   GL2 2129   3.512   1.236   7.648
  137POPC   C1A 2130   3.395   0.966   7.255
  137POPC   D2A 2131   3.638   1.070   6.913
  137POPC   C3A 2132   3.492   0.953   6.536
  137POPC   C4A 2133   3.469   1.160   6.183
  137POPC   C1B 2134   3.756   1.414   7.299
  137POPC   C2B 2135   3.998   1.435   6.872
  137POPC   C3B 2136   3.774   1.401   6.500
  137POPC   C4B 2137   3.690   1.671   6.155
  138POPC   NC3 2138   3.747  10.523   8.288
  138POPC   PO4 2139   4.280  10.692   7.854
  138POPC   GL1 2140   3.846  10.525   7.712
  138POPC   GL2 2141   3.477  10.447   7.759
  138POPC   C1A 2142   3.617  10.481   7.288
  138POPC   D2A 2143   3.484  10.257   6.912
  138POPC   C3A 2144   3.575  10.480   6.525
  138POPC   C4A 2145   3.877  10.736   6.260
  138POPC   C1B 2146   3.161  10.263   7.424
  138POPC   C2B 2147   2.992  10.347   6.988
  138POPC   C3B 2148   3.068  10.243   6.515
  138POPC   C4B 2149   3.275  10.425   6.128
  139POPC   NC3 2150  11.238  10.271   8.466
  139POPC   PO4 2151  10.873  10.046   8.013
  139POPC   GL1 2152  11.279  10.080   7.730
  139POPC   GL2 2153  11.406  10.425   7.703
  139POPC   C1A 2154  11.301  10.153   7.254
  139POPC   D2A 2155  10.941  10.227   6.941
  139POPC   C3A 2156  10.934  10.102   6.499
  139POPC   C4A 2157  10.964  10.192   6.024
  139POPC   C1B 2158  11.300  10.671   7.301
  139POPC   C2B 2159  11.315  10.575   6.859
  139POPC   C3B 2160  11.264  10.470   6.440
  139POPC   C4B 2161  11.402  10.094   6.252
  140POPC   NC3 2162   3.369   2.049   8.114
  140POPC   PO4 2163   3.447   1.490   8.085
  140POPC   GL1 2164   3.310   1.755   7.691
  140POPC   GL2 2165   3.324   2.165   7.619
  140POPC   C1A 2166   3.387   1.786   7.243
  140POPC   D2A 2167   3.504   1.598   6.878
  140POPC   C3A 2168   3.300   1.702   6.489
  140POPC   C4A 2169   3.167   1.536   6.066
  140POPC   C1B 2170   3.730   2.022   7.524
  140POPC   C2B 2171   3.887   1.866   7.115
  140POPC   C3B 2172   3.797   1.930   6.629
  140POPC   C4B 2173   3.519   2.119   6.281
  141POPC   NC3 2174   2.807   3.772   7.997
  141POPC   PO4 2175   3.228   3.221   8.070
  141POPC   GL1 2176   2.969   3.167   7.725
  141POPC   GL2 2177   2.616   3.315   7.705
  141POPC   C1A 2178   3.033   3.371   7.339
  141POPC   D2A 2179   3.255   3.286   6.950
  141POPC   C3A 2180   3.028   3.391   6.573
  141POPC   C4A 2181   2.993   3.248   6.157
  141POPC   C1B 2182   2.460   3.489   7.289
  141POPC   C2B 2183   2.299   3.463   6.838
  141POPC   C3B 2184   2.503   3.436   6.408
  141POPC   C4B 2185   2.821   3.762   6.254
  142POPC   NC3 2186   8.798  10.032   8.029
  142POPC   PO4 2187   9.066   9.415   8.329
  142POPC   GL1 2188   9.097   9.717   7.832
  142POPC   GL2 2189   8.835   9.576   7.642
  142POPC   C1A 2190   9.226   9.746   7.373
  142POPC   D2A 2191   9.325   9.526   6.979
  142POPC   C3A 2192   9.216   9.465   6.565
  142POPC   C4A 2193   9.256   9.794   6.321
  142POPC   C1B 2194   8.765   9.684   7.179
  142POPC   C2B 2195   8.919   9.815   6.788
  142POPC   C3B 2196   8.776   9.689   6.373
  142POPC   C4B 2197   8.470   9.920   6.132
  143POPC   NC3 2198   7.226  10.963   8.291
  143POPC   PO4 2199   7.480  11.392   7.838
  143POPC   GL1 2200   7.488  11.047   7.621
  143POPC   GL2 2201   7.183  10.854   7.648
  143POPC   C1A 2202   7.647  11.211   7.221
  143POPC   D2A 2203   7.565   0.028   6.918
  143POPC   C3A 2204   7.630  11.336   6.522
  143POPC   C4A 2205   7.460  11.301   6.140
  143POPC   C1B 2206   7.156  11.131   7.248
  143POPC   C2B 2207   7.292  11.105   6.857
  143POPC   C3B 2208   7.202  11.007   6.483
  143POPC   C4B 2209   6.967  11.165   6.143
  144POPC   NC3 2210   8.635   2.421   8.024
  144POPC   PO4 2211   9.104   2.892   8.152
  144POPC   GL1 2212   9.096   2.822   7.728
  144POPC   GL2 2213   8.760   2.830   7.720
  144POPC   C1A 2214   9.143   2.729   7.293
  144POPC   D2A 2215   8.876   2.627   6.892
  144POPC   C3A 2216   9.028   2.662   6.465
  144POPC   C4A 2217   9.038   3.020   6.174
  144POPC   C1B 2218   8.637   2.617   7.348
  144POPC   C2B 2219   8.399   2.481   6.977
  144POPC   C3B 2220   8.519   2.504   6.561
  144POPC   C4B 2221   8.583   2.773   6.210
  145POPC   NC3 2222  11.335   1.016   8.354
  145POPC   PO4 2223  10.746   1.017   8.013
  145POPC   GL1 2224  11.017   0.897   7.696
  145POPC   GL2 2225  11.378   1.027   7.739
  145POPC   C1A 2226  10.865   0.896   7.277
  145POPC   D2A 2227  10.686   0.996   6.893
  145POPC   C3A 2228  10.991   0.841   6.596
  145POPC   C4A 2229  11.099   1.011   6.216
  145POPC   C1B 2230  11.329   1.082   7.288
  145POPC   C2B 2231  11.204   1.246   6.867
  145POPC   C3B 2232  11.271   1.445   6.443
  145POPC   C4B 2233  11.394   1.388   5.971
  146POPC   NC3 2234   5.122   0.100   7.922
  146POPC   PO4 2235   4.805   0.707   8.025
  146POPC   GL1 2236   4.755   0.706   7.605
  146POPC   GL2 2237   4.906   0.398   7.601
  146POPC   C1A 2238   4.873   0.630   7.175
  146POPC   D2A 2239   4.843   0.217   7.030
  146POPC   C3A 2240   4.827   0.360   6.627
  146POPC   C4A 2241   4.985   0.229   6.269
  146POPC   C1B 2242   5.267   0.351   7.329
  146POPC   C2B 2243   5.389   0.636   7.019
  146POPC   C3B 2244   5.362   0.511   6.607
  146POPC   C4B 2245   5.281   0.631   6.215
  147POPC   NC3 2246   5.219   7.680   8.535
  147POPC   PO4 2247   5.287   7.780   8.079
  147POPC   GL1 2248   5.179   7.839   7.609
  147POPC   GL2 2249   4.956   8.128   7.508
  147POPC   C1A 2250   5.213   7.894   7.133
  147POPC   D2A 2251   5.011   8.095   6.765
  147POPC   C3A 2252   5.239   8.110   6.375
  147POPC   C4A 2253   5.011   8.050   5.982
  147POPC   C1B 2254   5.064   8.429   7.154
  147POPC   C2B 2255   4.994   8.626   6.735
  147POPC   C3B 2256   4.930   8.520   6.309
  147POPC   C4B 2257   5.147   8.574   5.913
  148POPC   NC3 2258   0.785  11.125   8.143
  148POPC   PO4 2259   0.175  11.329   8.060
  148POPC   GL1 2260   0.219  11.453   7.659
  148POPC   GL2 2261   0.546  11.313   7.689
  148POPC   C1A 2262   0.211  11.233   7.248
  148POPC   D2A 2263   0.146  11.005   6.846
  148POPC   C3A 2264   0.248  11.221   6.482
  148POPC   C4A 2265   0.249  11.423   6.079
  148POPC   C1B 2266   0.593  10.927   7.410
  148POPC   C2B 2267   0.637  11.009   6.963
  148POPC   C3B 2268   0.609  10.822   6.560
  148POPC   C4B 2269   0.585  11.023   6.162
  149POPC   NC3 2270   0.857   5.544   7.688
  149POPC   PO4 2271   0.975   4.972   7.991
  149POPC   GL1 2272   1.061   5.096   7.602
  149POPC   GL2 2273   1.370   5.180   7.642
  149POPC   C1A 2274   1.137   5.199   7.177
  149POPC   D2A 2275   0.968   5.020   6.849
  149POPC   C3A 2276   0.922   5.376   6.661
  149POPC   C4A 2277   1.031   5.261   6.277
  149POPC   C1B 2278   1.509   4.894   7.344
  149POPC   C2B 2279   1.437   4.802   6.943
  149POPC   C3B 2280   1.402   5.050   6.579
  149POPC   C4B 2281   1.333   4.883   6.185
  150POPC   NC3 2282   1.082   4.214   8.030
  150POPC   PO4 2283   1.661   4.661   7.927
  150POPC   GL1 2284   1.256   4.626   7.702
  150POPC   GL2 2285   1.144   4.311   7.546
  150POPC   C1A 2286   1.039   4.706   7.277
  150POPC   D2A 2287   1.053   4.437   6.928
  150POPC   C3A 2288   1.271   4.516   6.548
  150POPC   C4A 2289   1.166   4.401   6.123
  150POPC   C1B 2290   0.867   4.099   7.282
  150POPC   C2B 2291   0.882   3.959   6.856
  150POPC   C3B 2292   0.811   4.164   6.449
  150POPC   C4B 2293   0.874   3.982   6.029
  151POPC   NC3 2294   0.418   0.976   7.908
  151POPC   PO4 2295   0.806   1.494   8.103
  151POPC   GL1 2296   0.704   1.373   7.716
  151POPC   GL2 2297   0.342   1.434   7.650
  151POPC   C1A 2298   0.779   1.338   7.298
  151POPC   D2A 2299   0.690   1.057   6.920
  151POPC   C3A 2300   0.601   1.251   6.542
  151POPC   C4A 2301   0.797   1.416   6.146
  151POPC   C1B 2302   0.324   1.138   7.277
  151POPC   C2B 2303   0.161   0.979   6.872
  151POPC   C3B 2304   0.096   1.010   6.427
  151POPC   C4B 2305   0.409   1.069   6.104
  152POPC   NC3 2306   0.398   1.788   8.061
  152POPC   PO4 2307  11.492   2.396   8.092
  152POPC   GL1 2308   0.051   2.237   7.660
  152POPC   GL2 2309   0.259   1.965   7.628
  152POPC   C1A 2310   0.316   2.285   7.260
  152POPC   D2A 2311   0.414   2.086   6.898
  152POPC   C3A 2312   0.534   2.254   6.541
  152POPC   C4A 2313   0.380   2.328   6.163
  152POPC   C1B 2314   0.553   1.803   7.330
  152POPC   C2B 2315   0.516   1.584   6.930
  152POPC   C3B 2316   0.641   1.750   6.521
  152POPC   C4B 2317   0.561   1.875   6.083
  153POPC   NC3 2318   9.488   6.287   8.054
  153POPC   PO4 2319   9.262   6.881   8.188
  153POPC   GL1 2320   9.488   6.743   7.772
  153POPC   GL2 2321   9.823   6.605   7.739
  153POPC   C1A 2322   9.531   6.571   7.307
  153POPC   D2A 2323   9.543   6.764   6.864
  153POPC   C3A 2324   9.474   6.552   6.449
  153POPC   C4A 2325   9.156   6.299   6.265
  153POPC   C1B 2326  10.038   6.431   7.391
  153POPC   C2B 2327   9.962   6.509   7.001
  153POPC   C3B 2328   9.936   6.395   6.602
  153POPC   C4B 2329  10.061   6.666   6.309
  154POPC   NC3 2330   2.597   8.772   8.060
  154POPC   PO4 2331   3.045   9.302   8.072
  154POPC   GL1 2332   2.742   9.181   7.717
  154POPC   GL2 2333   2.781   8.875   7.604
  154POPC   C1A 2334   2.536   9.153   7.274
  154POPC   D2A 2335   2.675   8.974   6.868
  154POPC   C3A 2336   2.560   9.175   6.464
  154POPC   C4A 2337   2.421   9.324   5.991
  154POPC   C1B 2338   2.622   8.634   7.274
  154POPC   C2B 2339   2.659   8.460   6.853
  154POPC   C3B 2340   2.676   8.640   6.442
  154POPC   C4B 2341   2.635   8.883   6.066
  155POPC   NC3 2342   0.230   7.352   8.110
  155POPC   PO4 2343  11.046   7.253   8.212
  155POPC   GL1 2344  11.291   7.229   7.811
  155POPC   GL2 2345  11.087   7.412   7.598
  155POPC   C1A 2346   0.009   7.251   7.368
  155POPC   D2A 2347  11.458   7.154   6.897
  155POPC   C3A 2348   0.010   7.512   6.590
  155POPC   C4A 2349  11.496   7.713   6.165
  155POPC   C1B 2350  11.037   7.126   7.213
  155POPC   C2B 2351  10.803   7.178   6.843
  155POPC   C3B 2352  10.974   7.307   6.458
  155POPC   C4B 2353  11.330   7.223   6.222
  156POPC   NC3 2354  10.173   4.306   8.025
  156POPC   PO4 2355  10.743   4.631   8.071
  156POPC   GL1 2356  10.527   4.451   7.667
  156POPC   GL2 2357  10.490   4.062   7.705
  156POPC   C1A 2358  10.255   4.511   7.275
  156POPC   D2A 2359  10.009   4.268   6.973
  156POPC   C3A 2360  10.137   4.422   6.567
  156POPC   C4A 2361  10.025   4.467   6.164
  156POPC   C1B 2362  10.530   4.095   7.276
  156POPC   C2B 2363  10.516   4.245   6.867
  156POPC   C3B 2364  10.669   3.984   6.511
  156POPC   C4B 2365  10.454   4.198   6.199
  157POPC   NC3 2366  10.358  11.240   8.086
  157POPC   PO4 2367   9.741  11.394   8.149
  157POPC   GL1 2368   9.958  11.163   7.780
  157POPC   GL2 2369  10.236  11.366   7.610
  157POPC   C1A 2370   9.971  11.013   7.339
  157POPC   D2A 2371  10.132  11.305   6.992
  157POPC   C3A 2372  10.132  11.149   6.551
  157POPC   C4A 2373  10.192  11.286   6.128
  157POPC   C1B 2374  10.484  11.089   7.339
  157POPC   C2B 2375  10.656  11.174   6.941
  157POPC   C3B 2376  10.833  11.264   6.558
  157POPC   C4B 2377  10.601  11.054   6.286
  158POPC   NC3 2378   1.364  11.050   8.041
  158POPC   PO4 2379   0.843   0.061   8.047
  158POPC   GL1 2380   1.138  11.408   7.736
  158POPC   GL2 2381   1.006  11.081   7.671
  158POPC   C1A 2382   1.365  11.225   7.353
  158POPC   D2A 2383   1.153  11.023   6.998
  158POPC   C3A 2384   1.274  11.110   6.604
  158POPC   C4A 2385   1.578  11.243   6.283
  158POPC   C1B 2386   0.863  11.351   7.300
  158POPC   C2B 2387   0.785   0.021   6.897
  158POPC   C3B 2388   0.811  11.300   6.516
  158POPC   C4B 2389   1.074  11.082   6.154
  159POPC   NC3 2390   0.144   9.682   8.015
  159POPC   PO4 2391   0.744   9.328   8.159
  159POPC   GL1 2392   0.452   9.332   7.816
  159POPC   GL2 2393   0.526   9.677   7.693
  159POPC   C1A 2394   0.322   9.342   7.365
  159POPC   D2A 2395   0.678   9.417   7.052
  159POPC   C3A 2396   0.840   9.373   6.632
  159POPC   C4A 2397   0.826   9.236   6.218
  159POPC   C1B 2398   0.213   9.834   7.371
  159POPC   C2B 2399   0.214   9.611   6.944
  159POPC   C3B 2400   0.462   9.707   6.586
  159POPC   C4B 2401   0.391   9.990   6.252
  160POPC   NC3 2402   9.821   5.740   8.017
  160POPC   PO4 2403   9.166   5.970   7.977
  160POPC   GL1 2404   9.522   5.940   7.652
  160POPC   GL2 2405   9.747   5.646   7.544
  160POPC   C1A 2406   9.662   6.052   7.236
  160POPC   D2A 2407   9.515   6.243   6.870
  160POPC   C3A 2408   9.547   6.027   6.480
  160POPC   C4A 2409   9.332   5.719   6.215
  160POPC   C1B 2410   9.886   5.474   7.192
  160POPC   C2B 2411   9.772   5.692   6.846
  160POPC   C3B 2412   9.753   5.538   6.457
  160POPC   C4B 2413   9.842   5.796   6.126
  161POPC   NC3 2414   6.138  10.133   8.070
  161POPC   PO4 2415   5.964  10.733   8.139
  161POPC   GL1 2416   6.048  10.536   7.766
  161POPC   GL2 2417   5.871  10.810   7.602
  161POPC   C1A 2418   6.097  10.171   7.443
  161POPC   D2A 2419   6.094  10.351   7.066
  161POPC   C3A 2420   6.110  10.207   6.696
  161POPC   C4A 2421   5.966  10.315   6.347
  161POPC   C1B 2422   5.694  10.482   7.391
  161POPC   C2B 2423   5.575  10.289   7.028
  161POPC   C3B 2424   5.561  10.417   6.647
  161POPC   C4B 2425   5.484  10.289   6.259
  162POPC   NC3 2426   4.340   2.276   8.031
  162POPC   PO4 2427   4.550   1.672   8.085
  162POPC   GL1 2428   4.425   1.614   7.668
  162POPC   GL2 2429   4.208   1.903   7.681
  162POPC   C1A 2430   4.441   1.842   7.242
  162POPC   D2A 2431   4.298   1.884   6.813
  162POPC   C3A 2432   4.553   2.036   6.461
  162POPC   C4A 2433   4.423   1.930   6.040
  162POPC   C1B 2434   4.145   2.242   7.362
  162POPC   C2B 2435   4.010   2.311   6.947
  162POPC   C3B 2436   4.120   2.316   6.529
  162POPC   C4B 2437   4.007   2.196   6.143
  163POPC   NC3 2438   8.924   5.591   8.051
  163POPC   PO4 2439   9.483   5.444   8.094
  163POPC   GL1 2440   9.294   5.458   7.672
  163POPC   GL2 2441   9.055   5.715   7.555
  163POPC   C1A 2442   9.377   5.571   7.198
  163POPC   D2A 2443   9.280   5.654   6.735
  163POPC   C3A 2444   8.929   5.517   6.434
  163POPC   C4A 2445   8.938   5.463   5.961
  163POPC   C1B 2446   9.146   6.027   7.202
  163POPC   C2B 2447   9.035   6.095   6.745
  163POPC   C3B 2448   8.767   6.014   6.387
  163POPC   C4B 2449   8.684   6.315   6.039
  164POPC   NC3 2450   7.808   2.977   7.938
  164POPC   PO4 2451   8.178   2.496   8.084
  164POPC   GL1 2452   7.934   2.372   7.699
  164POPC   GL2 2453   7.838   2.662   7.559
  164POPC   C1A 2454   7.951   2.337   7.202
  164POPC   D2A 2455   7.957   2.678   6.830
  164POPC   C3A 2456   8.082   2.659   6.372
  164POPC   C4A 2457   8.005   2.357   6.072
  164POPC   C1B 2458   8.172   2.824   7.287
  164POPC   C2B 2459   8.414   2.974   6.890
  164POPC   C3B 2460   8.292   3.120   6.447
  164POPC   C4B 2461   8.279   3.098   5.952
  165POPC   NC3 2462   1.158   0.390   7.974
  165POPC   PO4 2463   1.591   0.881   8.014
  165POPC   GL1 2464   1.510   0.673   7.594
  165POPC   GL2 2465   1.145   0.632   7.531
  165POPC   C1A 2466   1.437   0.606   7.113
  165POPC   D2A 2467   1.012   0.493   6.914
  165POPC   C3A 2468   1.074   0.562   6.477
  165POPC   C4A 2469   1.496   0.591   6.394
  165POPC   C1B 2470   1.216   0.217   7.323
  165POPC   C2B 2471   1.311   0.040   6.900
  165POPC   C3B 2472   1.252   0.098   6.451
  165POPC   C4B 2473   0.863   0.186   6.198
  166POPC   NC3 2474   9.558   2.779   8.162
  166POPC   PO4 2475  10.130   2.609   7.917
  166POPC   GL1 2476   9.876   2.865   7.642
  166POPC   GL2 2477   9.580   2.658   7.662
  166POPC   C1A 2478   9.704   2.838   7.210
  166POPC   D2A 2479   9.869   2.544   6.952
  166POPC   C3A 2480  10.117   2.767   6.679
  166POPC   C4A 2481   9.978   2.686   6.273
  166POPC   C1B 2482   9.503   2.354   7.327
  166POPC   C2B 2483   9.354   2.469   6.922
  166POPC   C3B 2484   9.463   2.816   6.711
  166POPC   C4B 2485   9.485   2.823   6.268
  167POPC   NC3 2486  10.480   8.494   7.875
  167POPC   PO4 2487  10.029   8.830   8.327
  167POPC   GL1 2488  10.163   8.943   7.823
  167POPC   GL2 2489  10.255   9.267   7.767
  167POPC   C1A 2490  10.223   8.764   7.339
  167POPC   D2A 2491  10.403   8.586   6.932
  167POPC   C3A 2492  10.295   8.799   6.541
  167POPC   C4A 2493  10.380   8.663   6.121
  167POPC   C1B 2494  10.085   9.255   7.337
  167POPC   C2B 2495  10.301   9.128   6.957
  167POPC   C3B 2496  10.640   9.180   6.659
  167POPC   C4B 2497  10.619   9.130   6.204
  168POPC   NC3 2498   1.625   1.190   3.927
  168POPC   PO4 2499   0.985   0.967   3.939
  168POPC   GL1 2500   1.232   1.135   4.237
  168POPC   GL2 2501   1.032   1.394   4.373
  168POPC   C1A 2502   1.439   1.128   4.635
  168POPC   D2A 2503   1.331   1.230   5.080
  168POPC   C3A 2504   1.647   1.391   5.366
  168POPC   C4A 2505   1.655   0.977   5.609
  168POPC   C1B 2506   0.913   1.016   4.630
  168POPC   C2B 2507   0.892   0.889   5.077
  168POPC   C3B 2508   1.145   0.888   5.463
  168POPC   C4B 2509   1.227   1.321   5.635
  169POPC   NC3 2510  10.875   3.437   3.830
  169POPC   PO4 2511  10.212   3.416   3.797
  169POPC   GL1 2512  10.217   3.667   4.200
  169POPC   GL2 2513  10.588   3.731   4.227
  169POPC   C1A 2514  10.098   3.515   4.633
  169POPC   D2A 2515  10.204   3.220   4.995
  169POPC   C3A 2516   9.970   3.213   5.387
  169POPC   C4A 2517  10.138   3.347   5.767
  169POPC   C1B 2518  10.580   3.584   4.690
  169POPC   C2B 2519  10.398   3.697   5.122
  169POPC   C3B 2520  10.417   3.740   5.601
  169POPC   C4B 2521  10.713   3.835   5.961
  170POPC   NC3 2522   9.689   5.711   3.689
  170POPC   PO4 2523   9.314   5.332   3.937
  170POPC   GL1 2524   9.641   5.458   4.183
  170POPC   GL2 2525   9.649   5.807   4.228
  170POPC   C1A 2526   9.677   5.451   4.611
  170POPC   D2A 2527   9.457   5.441   4.981
  170POPC   C3A 2528   9.650   5.624   5.333
  170POPC   C4A 2529   9.548   5.634   5.754
  170POPC   C1B 2530   9.840   5.937   4.681
  170POPC   C2B 2531   9.856   6.057   5.143
  170POPC   C3B 2532   9.583   6.206   5.495
  170POPC   C4B 2533   9.499   6.113   5.931
  171POPC   NC3 2534   3.603  10.303   3.898
  171POPC   PO4 2535   3.928  10.846   4.042
  171POPC   GL1 2536   3.779  10.635   4.375
  171POPC   GL2 2537   3.465  10.507   4.330
  171POPC   C1A 2538   3.900  10.694   4.789
  171POPC   D2A 2539   3.931  10.824   5.179
  171POPC   C3A 2540   3.869  10.508   5.528
  171POPC   C4A 2541   3.773  10.327   5.952
  171POPC   C1B 2542   3.499  10.361   4.750
  171POPC   C2B 2543   3.493  10.545   5.161
  171POPC   C3B 2544   3.362  10.394   5.573
  171POPC   C4B 2545   3.365  10.040   5.805
  172POPC   NC3 2546  10.507   2.113   4.057
  172POPC   PO4 2547   9.871   1.955   4.081
  172POPC   GL1 2548  10.094   2.180   4.380
  172POPC   GL2 2549  10.280   1.885   4.464
  172POPC   C1A 2550  10.323   2.270   4.782
  172POPC   D2A 2551  10.397   2.026   5.154
  172POPC   C3A 2552  10.313   2.319   5.495
  172POPC   C4A 2553  10.437   2.318   5.926
  172POPC   C1B 2554  10.565   1.638   4.733
  172POPC   C2B 2555  10.556   1.455   5.134
  172POPC   C3B 2556  10.529   1.596   5.556
  172POPC   C4B 2557  10.225   1.882   5.750
  173POPC   NC3 2558  10.164  11.188   3.908
  173POPC   PO4 2559  10.746  10.663   3.845
  173POPC   GL1 2560  10.491  10.914   4.215
  173POPC   GL2 2561  10.418  11.280   4.341
  173POPC   C1A 2562  10.375  10.936   4.693
  173POPC   D2A 2563  10.139  10.856   5.064
  173POPC   C3A 2564  10.394  10.754   5.414
  173POPC   C4A 2565  10.560  10.918   5.792
  173POPC   C1B 2566  10.232  11.458   4.727
  173POPC   C2B 2567  10.033  11.375   5.136
  173POPC   C3B 2568  10.152   0.123   5.489
  173POPC   C4B 2569  10.473  11.443   5.735
  174POPC   NC3 2570   6.436  11.346   3.856
  174POPC   PO4 2571   7.108  11.445   4.019
  174POPC   GL1 2572   6.767  11.266   4.242
  174POPC   GL2 2573   6.807  10.911   4.321
  174POPC   C1A 2574   6.498  11.318   4.589
  174POPC   D2A 2575   6.615  11.301   5.041
  174POPC   C3A 2576   6.358  11.495   5.359
  174POPC   C4A 2577   6.208  11.385   5.769
  174POPC   C1B 2578   6.610  10.848   4.737
  174POPC   C2B 2579   6.304  10.868   5.099
  174POPC   C3B 2580   6.461  10.958   5.507
  174POPC   C4B 2581   6.836  10.867   5.734
  175POPC   NC3 2582   3.127   9.996   4.086
  175POPC   PO4 2583   3.731   9.868   3.975
  175POPC   GL1 2584   3.566   9.926   4.363
  175POPC   GL2 2585   3.487   9.567   4.308
  175POPC   C1A 2586   3.680   9.890   4.798
  175POPC   D2A 2587   3.518  10.010   5.215
  175POPC   C3A 2588   3.814   9.974   5.554
  175POPC   C4A 2589   3.786   9.805   5.978
  175POPC   C1B 2590   3.378   9.497   4.724
  175POPC   C2B 2591   3.348   9.488   5.165
  175POPC   C3B 2592   3.470   9.589   5.573
  175POPC   C4B 2593   3.361   9.545   6.010
  176POPC   NC3 2594  10.540   7.915   3.846
  176POPC   PO4 2595  10.717   8.549   3.915
  176POPC   GL1 2596  10.468   8.402   4.277
  176POPC   GL2 2597  10.452   8.050   4.350
  176POPC   C1A 2598  10.444   8.318   4.762
  176POPC   D2A 2599  10.676   8.075   5.096
  176POPC   C3A 2600  10.507   8.343   5.380
  176POPC   C4A 2601  10.235   8.504   5.652
  176POPC   C1B 2602  10.358   7.810   4.760
  176POPC   C2B 2603  10.184   7.972   5.137
  176POPC   C3B 2604  10.233   7.948   5.569
  176POPC   C4B 2605  10.195   7.685   5.967
  177POPC   NC3 2606   9.574   2.252   4.272
  177POPC   PO4 2607   9.597   2.909   3.961
  177POPC   GL1 2608   9.580   2.775   4.327
  177POPC   GL2 2609   9.906   2.651   4.297
  177POPC   C1A 2610   9.428   2.767   4.733
  177POPC   D2A 2611   9.354   3.021   5.064
  177POPC   C3A 2612   9.501   2.918   5.421
  177POPC   C4A 2613   9.301   2.931   5.780
  177POPC   C1B 2614   9.892   2.545   4.730
  177POPC   C2B 2615   9.873   2.808   5.058
  177POPC   C3B 2616   9.959   2.691   5.453
  177POPC   C4B 2617   9.732   2.651   5.831
  178POPC   NC3 2618  10.809   0.435   3.749
  178POPC   PO4 2619  11.289   0.252   4.139
  178POPC   GL1 2620  11.283   0.578   4.440
  178POPC   GL2 2621   0.123   0.644   4.310
  178POPC   C1A 2622  11.025   0.535   4.845
  178POPC   D2A 2623  10.942   0.161   5.117
  178POPC   C3A 2624  11.063   0.238   5.561
  178POPC   C4A 2625  11.058   0.665   5.741
  178POPC   C1B 2626   0.173   0.392   4.696
  178POPC   C2B 2627  11.468   0.419   5.073
  178POPC   C3B 2628   0.026   0.487   5.476
  178POPC   C4B 2629  11.493   0.302   5.847
  179POPC   NC3 2630   6.651   9.544   3.838
  179POPC   PO4 2631   6.147   9.938   3.778
  179POPC   GL1 2632   6.401   9.898   4.178
  179POPC   GL2 2633   6.709   9.698   4.322
  179POPC   C1A 2634   6.381   9.999   4.624
  179POPC   D2A 2635   6.408   9.777   5.012
  179POPC   C3A 2636   6.249   9.841   5.434
  179POPC   C4A 2637   6.377   9.613   5.833
  179POPC   C1B 2638   6.875   9.844   4.741
  179POPC   C2B 2639   6.833  10.036   5.149
  179POPC   C3B 2640   6.745   9.846   5.541
  179POPC   C4B 2641   6.765   9.912   5.982
  180POPC   NC3 2642   9.328   8.966   3.821
  180POPC   PO4 2643   9.987   9.011   3.794
  180POPC   GL1 2644   9.700   9.178   4.140
  180POPC   GL2 2645   9.535   8.873   4.283
  180POPC   C1A 2646   9.579   9.297   4.585
  180POPC   D2A 2647   9.777   9.181   4.988
  180POPC   C3A 2648   9.606   9.220   5.401
  180POPC   C4A 2649   9.678   9.112   5.818
  180POPC   C1B 2650   9.456   8.824   4.726
  180POPC   C2B 2651   9.296   8.859   5.138
  180POPC   C3B 2652   9.372   8.781   5.580
  180POPC   C4B 2653   9.761   8.602   5.737
  181POPC   NC3 2654  11.193   8.418   4.066
  181POPC   PO4 2655  10.974   7.870   3.722
  181POPC   GL1 2656  10.942   7.960   4.170
  181POPC   GL2 2657  11.265   7.913   4.218
  181POPC   C1A 2658  10.922   8.102   4.633
  181POPC   D2A 2659  11.191   8.153   5.048
  181POPC   C3A 2660  11.000   8.309   5.464
  181POPC   C4A 2661  10.731   8.342   5.844
  181POPC   C1B 2662  11.342   7.784   4.643
  181POPC   C2B 2663  11.124   7.618   5.006
  181POPC   C3B 2664  11.042   7.801   5.421
  181POPC   C4B 2665  11.407   7.936   5.691
  182POPC   NC3 2666   5.764  11.003   3.935
  182POPC   PO4 2667   6.444  10.924   3.624
  182POPC   GL1 2668   6.313  10.974   4.155
  182POPC   GL2 2669   6.082  11.292   4.230
  182POPC   C1A 2670   6.127  10.968   4.609
  182POPC   D2A 2671   6.086  11.315   4.925
  182POPC   C3A 2672   5.932  11.211   5.349
  182POPC   C4A 2673   5.994  10.927   5.695
  182POPC   C1B 2674   5.717  11.276   4.560
  182POPC   C2B 2675   5.546  11.296   5.007
  182POPC   C3B 2676   5.461  11.438   5.435
  182POPC   C4B 2677   5.675  11.352   5.819
  183POPC   NC3 2678   1.156   8.069   3.756
  183POPC   PO4 2679   1.752   8.371   3.910
  183POPC   GL1 2680   1.406   8.274   4.205
  183POPC   GL2 2681   1.073   8.160   4.261
  183POPC   C1A 2682   1.453   8.112   4.631
  183POPC   D2A 2683   1.274   8.184   5.053
  183POPC   C3A 2684   1.354   7.943   5.426
  183POPC   C4A 2685   1.487   8.151   5.803
  183POPC   C1B 2686   0.946   8.036   4.689
  183POPC   C2B 2687   0.769   8.190   5.104
  183POPC   C3B 2688   0.908   8.151   5.513
  183POPC   C4B 2689   1.004   7.909   5.876
  184POPC   NC3 2690  11.054  10.983   4.053
  184POPC   PO4 2691  10.644   0.052   3.984
  184POPC   GL1 2692  10.927  11.387   4.343
  184POPC   GL2 2693  11.305  11.295   4.360
  184POPC   C1A 2694  10.774  11.300   4.751
  184POPC   D2A 2695  10.544  11.282   5.149
  184POPC   C3A 2696  10.870  11.269   5.463
  184POPC   C4A 2697  10.922  11.260   5.918
  184POPC   C1B 2698  11.317  11.492   4.784
  184POPC   C2B 2699  11.391  11.443   5.242
  184POPC   C3B 2700  11.379  11.328   5.662
  184POPC   C4B 2701  11.396  11.046   5.981
  185POPC   NC3 2702   2.045  11.057   3.942
  185POPC   PO4 2703   2.477  10.575   3.946
  185POPC   GL1 2704   2.235  10.738   4.304
  185POPC   GL2 2705   2.133  11.085   4.431
  185POPC   C1A 2706   2.376  10.766   4.731
  185POPC   D2A 2707   2.297  11.095   4.996
  185POPC   C3A 2708   2.087  10.996   5.336
  185POPC   C4A 2709   2.204  11.081   5.733
  185POPC   C1B 2710   1.855  11.195   4.741
  185POPC   C2B 2711   1.610  10.994   5.049
  185POPC   C3B 2712   1.595  11.029   5.469
  185POPC   C4B 2713   1.739  11.302   5.777
  186POPC   NC3 2714   3.612   2.865   3.833
  186POPC   PO4 2715   2.960   3.093   3.980
  186POPC   GL1 2716   3.324   2.952   4.269
  186POPC   GL2 2717   3.367   2.573   4.242
  186POPC   C1A 2718   3.383   2.788   4.732
  186POPC   D2A 2719   3.234   2.812   5.192
  186POPC   C3A 2720   3.562   2.822   5.548
  186POPC   C4A 2721   3.782   2.976   5.960
  186POPC   C1B 2722   3.110   2.373   4.617
  186POPC   C2B 2723   3.229   2.295   5.067
  186POPC   C3B 2724   3.214   2.417   5.556
  186POPC   C4B 2725   3.136   2.379   6.053
  187POPC   NC3 2726   9.703   1.535   4.189
  187POPC   PO4 2727   9.293   2.150   3.936
  187POPC   GL1 2728   9.148   1.982   4.372
  187POPC   GL2 2729   9.473   1.829   4.534
  187POPC   C1A 2730   9.061   1.810   4.823
  187POPC   D2A 2731   9.459   1.826   5.094
  187POPC   C3A 2732   9.557   1.730   5.534
  187POPC   C4A 2733   9.495   1.884   5.949
  187POPC   C1B 2734   9.865   1.968   4.797
  187POPC   C2B 2735   9.917   2.229   5.172
  187POPC   C3B 2736   9.816   2.184   5.627
  187POPC   C4B 2737   9.910   2.209   6.078
  188POPC   NC3 2738   2.719   7.293   3.788
  188POPC   PO4 2739   3.047   6.862   3.702
  188POPC   GL1 2740   2.946   7.096   4.211
  188POPC   GL2 2741   2.634   7.324   4.306
  188POPC   C1A 2742   2.937   7.245   4.722
  188POPC   D2A 2743   2.816   7.112   5.192
  188POPC   C3A 2744   2.913   7.310   5.630
  188POPC   C4A 2745   2.976   7.245   6.078
  188POPC   C1B 2746   2.475   7.051   4.654
  188POPC   C2B 2747   2.295   7.088   5.090
  188POPC   C3B 2748   2.421   7.243   5.508
  188POPC   C4B 2749   2.452   7.379   5.968
  189POPC   NC3 2750   8.492  11.285   4.120
  189POPC   PO4 2751   8.314  10.679   3.775
  189POPC   GL1 2752   8.367  10.792   4.213
  189POPC   GL2 2753   8.088  10.960   4.245
  189POPC   C1A 2754   8.341  10.961   4.666
  189POPC   D2A 2755   8.144  11.249   4.947
  189POPC   C3A 2756   8.075  11.126   5.361
  189POPC   C4A 2757   8.339  11.082   5.716
  189POPC   C1B 2758   7.862  11.260   4.510
  189POPC   C2B 2759   7.637  11.303   4.892
  189POPC   C3B 2760   7.570  11.287   5.324
  189POPC   C4B 2761   7.753  11.304   5.720
  190POPC   NC3 2762   5.749   0.241   3.567
  190POPC   PO4 2763   5.278   0.523   3.885
  190POPC   GL1 2764   5.017   0.553   4.280
  190POPC   GL2 2765   4.876   0.234   4.415
  190POPC   C1A 2766   5.145   0.516   4.736
  190POPC   D2A 2767   5.241   0.247   5.060
  190POPC   C3A 2768   5.271   0.433   5.433
  190POPC   C4A 2769   5.060   0.457   5.807
  190POPC   C1B 2770   4.660   0.296   4.727
  190POPC   C2B 2771   4.708   0.481   5.057
  190POPC   C3B 2772   4.720   0.531   5.436
  190POPC   C4B 2773   4.701   0.820   5.729
  191POPC   NC3 2774   4.773   1.767   3.896
  191POPC   PO4 2775   4.790   2.442   3.942
  191POPC   GL1 2776   4.892   2.199   4.312
  191POPC   GL2 2777   5.073   1.882   4.295
  191POPC   C1A 2778   4.709   2.183   4.744
  191POPC   D2A 2779   4.507   2.156   5.157
  191POPC   C3A 2780   4.815   2.246   5.481
  191POPC   C4A 2781   4.850   2.157   5.916
  191POPC   C1B 2782   4.861   1.706   4.670
  191POPC   C2B 2783   4.884   1.818   5.135
  191POPC   C3B 2784   5.071   1.801   5.602
  191POPC   C4B 2785   5.279   1.913   6.025
  192POPC   NC3 2786   4.129   0.226   3.784
  192POPC   PO4 2787   4.660   0.024   3.972
  192POPC   GL1 2788   4.372   0.268   4.304
  192POPC   GL2 2789   4.202   0.588   4.307
  192POPC   C1A 2790   4.154   0.175   4.726
  192POPC   D2A 2791   4.395   0.042   5.099
  192POPC   C3A 2792   4.346   0.176   5.509
  192POPC   C4A 2793   4.631   0.201   5.831
  192POPC   C1B 2794   4.299   0.668   4.754
  192POPC   C2B 2795   4.193   0.535   5.159
  192POPC   C3B 2796   4.227   0.705   5.561
  192POPC   C4B 2797   4.266   0.886   5.980
  193POPC   NC3 2798   1.437   2.185   3.936
  193POPC   PO4 2799   1.706   1.654   3.924
  193POPC   GL1 2800   1.508   1.611   4.313
  193POPC   GL2 2801   1.256   1.894   4.326
  193POPC   C1A 2802   1.333   1.611   4.737
  193POPC   D2A 2803   1.068   1.687   5.102
  193POPC   C3A 2804   1.274   1.931   5.397
  193POPC   C4A 2805   1.436   1.775   5.761
  193POPC   C1B 2806   0.902   1.895   4.651
  193POPC   C2B 2807   0.777   2.126   5.044
  193POPC   C3B 2808   0.955   2.355   5.368
  193POPC   C4B 2809   1.161   2.249   5.775
  194POPC   NC3 2810   5.898   0.524   4.098
  194POPC   PO4 2811   5.656  11.458   3.920
  194POPC   GL1 2812   5.514   0.204   4.317
  194POPC   GL2 2813   5.508   0.575   4.397
  194POPC   C1A 2814   5.662   0.254   4.773
  194POPC   D2A 2815   5.965   0.269   5.133
  194POPC   C3A 2816   5.883   0.245   5.560
  194POPC   C4A 2817   5.572   0.388   5.840
  194POPC   C1B 2818   5.860   0.728   4.687
  194POPC   C2B 2819   6.141   0.723   4.987
  194POPC   C3B 2820   6.088   0.885   5.405
  194POPC   C4B 2821   5.960   0.716   5.814
  195POPC   NC3 2822   4.176   9.803   3.865
  195POPC   PO4 2823   4.575   9.311   4.097
  195POPC   GL1 2824   4.085   9.442   4.198
  195POPC   GL2 2825   4.073   9.781   4.365
  195POPC   C1A 2826   3.881   9.420   4.636
  195POPC   D2A 2827   4.009   9.594   5.053
  195POPC   C3A 2828   4.241   9.349   5.367
  195POPC   C4A 2829   3.964   9.449   5.663
  195POPC   C1B 2830   4.392   9.678   4.710
  195POPC   C2B 2831   4.495   9.737   5.172
  195POPC   C3B 2832   4.509   9.765   5.630
  195POPC   C4B 2833   4.708  10.168   5.777
  196POPC   NC3 2834   3.018   1.766   3.995
  196POPC   PO4 2835   2.463   1.490   3.687
  196POPC   GL1 2836   2.426   1.730   4.186
  196POPC   GL2 2837   2.433   2.086   4.193
  196POPC   C1A 2838   2.297   1.759   4.630
  196POPC   D2A 2839   2.587   1.606   4.955
  196POPC   C3A 2840   2.541   1.754   5.392
  196POPC   C4A 2841   2.733   1.667   5.801
  196POPC   C1B 2842   2.730   2.002   4.540
  196POPC   C2B 2843   2.631   2.108   4.958
  196POPC   C3B 2844   2.832   2.152   5.345
  196POPC   C4B 2845   2.745   2.189   5.772
  197POPC   NC3 2846   7.593  11.445   3.908
  197POPC   PO4 2847   7.244   0.554   3.712
  197POPC   GL1 2848   7.405   0.518   4.197
  197POPC   GL2 2849   7.669   0.289   4.248
  197POPC   C1A 2850   7.219   0.613   4.643
  197POPC   D2A 2851   7.387   0.858   5.000
  197POPC   C3A 2852   7.276   0.737   5.416
  197POPC   C4A 2853   7.025   0.492   5.693
  197POPC   C1B 2854   7.411   0.136   4.583
  197POPC   C2B 2855   7.469   0.282   4.998
  197POPC   C3B 2856   7.367   0.231   5.413
  197POPC   C4B 2857   7.446   0.233   5.841
  198POPC   NC3 2858   1.091   7.534   3.697
  198POPC   PO4 2859   1.497   6.978   3.936
  198POPC   GL1 2860   1.338   7.309   4.221
  198POPC   GL2 2861   1.149   7.148   4.478
  198POPC   C1A 2862   1.414   7.586   4.580
  198POPC   D2A 2863   1.257   7.658   5.003
  198POPC   C3A 2864   1.435   7.368   5.331
  198POPC   C4A 2865   1.486   7.051   5.694
  198POPC   C1B 2866   0.882   7.519   4.623
  198POPC   C2B 2867   0.713   7.676   5.028
  198POPC   C3B 2868   0.916   7.656   5.429
  198POPC   C4B 2869   1.207   7.473   5.755
  199POPC   NC3 2870   0.825   3.724   3.970
  199POPC   PO4 2871   0.550   3.069   3.897
  199POPC   GL1 2872   0.564   3.347   4.252
  199POPC   GL2 2873   0.641   3.685   4.447
  199POPC   C1A 2874   0.443   3.259   4.664
  199POPC   D2A 2875   0.628   3.525   4.953
  199POPC   C3A 2876   0.625   3.362   5.355
  199POPC   C4A 2877   0.445   3.162   5.703
  199POPC   C1B 2878   0.224   3.717   4.661
  199POPC   C2B 2879   0.121   3.500   5.057
  199POPC   C3B 2880   0.203   3.574   5.513
  199POPC   C4B 2881   0.076   3.779   5.850
  200POPC   NC3 2882  10.453   5.788   3.974
  200POPC   PO4 2883  10.003   5.278   3.870
  200POPC   GL1 2884  10.159   5.499   4.269
  200POPC   GL2 2885  10.539   5.538   4.404
  200POPC   C1A 2886  10.169   5.381   4.694
  200POPC   D2A 2887  10.092   5.621   5.043
  200POPC   C3A 2888  10.150   5.529   5.480
  200POPC   C4A 2889   9.972   5.918   5.653
  200POPC   C1B 2890  10.423   5.844   4.717
  200POPC   C2B 2891  10.386   6.016   5.157
  200POPC   C3B 2892  10.478   5.919   5.576
  200POPC   C4B 2893  10.716   6.151   5.856
  201POPC   NC3 2894   8.943   5.595   3.797
  201POPC   PO4 2895   8.461   5.829   4.099
  201POPC   GL1 2896   8.803   5.568   4.321
  201POPC   GL2 2897   9.163   5.557   4.351
  201POPC   C1A 2898   8.927   5.614   4.795
  201POPC   D2A 2899   8.821   5.922   5.139
  201POPC   C3A 2900   8.670   5.761   5.562
  201POPC   C4A 2901   8.524   5.795   6.002
  201POPC   C1B 2902   9.324   5.887   4.615
  201POPC   C2B 2903   9.358   5.963   5.058
  201POPC   C3B 2904   9.190   5.872   5.484
  201POPC   C4B 2905   9.014   5.967   5.888
  202POPC   NC3 2906   6.044   1.499   3.933
  202POPC   PO4 2907   5.720   0.946   4.062
  202POPC   GL1 2908   5.522   1.085   4.422
  202POPC   GL2 2909   5.540   1.414   4.341
  202POPC   C1A 2910   5.444   0.955   4.844
  202POPC   D2A 2911   5.640   0.699   5.178
  202POPC   C3A 2912   5.588   0.950   5.551
  202POPC   C4A 2913   5.369   1.370   5.564
  202POPC   C1B 2914   5.970   1.267   4.556
  202POPC   C2B 2915   5.929   1.184   4.981
  202POPC   C3B 2916   5.854   1.366   5.368
  202POPC   C4B 2917   5.966   1.235   5.786
  203POPC   NC3 2918   7.039   1.411   3.992
  203POPC   PO4 2919   6.949   2.117   3.911
  203POPC   GL1 2920   7.291   1.949   4.209
  203POPC   GL2 2921   7.553   2.176   4.316
  203POPC   C1A 2922   7.468   1.806   4.634
  203POPC   D2A 2923   7.300   1.682   5.033
  203POPC   C3A 2924   7.318   1.724   5.467
  203POPC   C4A 2925   6.990   1.835   5.713
  203POPC   C1B 2926   7.662   2.275   4.763
  203POPC   C2B 2927   7.495   2.155   5.178
  203POPC   C3B 2928   7.298   2.235   5.590
  203POPC   C4B 2929   7.430   2.346   6.001
  204POPC   NC3 2930   8.018   1.485   3.803
  204POPC   PO4 2931   7.946   0.816   3.857
  204POPC   GL1 2932   8.272   0.994   4.106
  204POPC   GL2 2933   8.014   1.206   4.231
  204POPC   C1A 2934   8.454   1.119   4.520
  204POPC   D2A 2935   8.452   0.957   4.970
  204POPC   C3A 2936   8.479   1.177   5.346
  204POPC   C4A 2937   8.376   1.118   5.762
  204POPC   C1B 2938   7.977   1.162   4.660
  204POPC   C2B 2939   8.097   1.362   5.044
  204POPC   C3B 2940   8.024   1.367   5.488
  204POPC   C4B 2941   8.127   1.573   5.851
  205POPC   NC3 2942   8.697   9.209   3.905
  205POPC   PO4 2943   9.022   8.615   3.856
  205POPC   GL1 2944   9.010   8.888   4.238
  205POPC   GL2 2945   8.686   8.969   4.380
  205POPC   C1A 2946   9.072   9.155   4.645
  205POPC   D2A 2947   8.822   9.051   5.005
  205POPC   C3A 2948   8.952   9.076   5.449
  205POPC   C4A 2949   8.664   8.996   5.754
  205POPC   C1B 2950   8.940   8.663   4.687
  205POPC   C2B 2951   8.888   8.544   5.138
  205POPC   C3B 2952   8.915   8.552   5.607
  205POPC   C4B 2953   8.905   8.672   6.046
  206POPC   NC3 2954   4.914  11.207   3.745
  206POPC   PO4 2955   4.216  11.275   3.732
  206POPC   GL1 2956   4.234  11.299   4.217
  206POPC   GL2 2957   4.147  11.012   4.444
  206POPC   C1A 2958   4.493  11.315   4.611
  206POPC   D2A 2959   4.343  11.057   4.951
  206POPC   C3A 2960   4.616  11.101   5.296
  206POPC   C4A 2961   4.633  11.200   5.701
  206POPC   C1B 2962   3.849  11.212   4.711
  206POPC   C2B 2963   3.892  11.386   5.125
  206POPC   C3B 2964   4.128  11.212   5.459
  206POPC   C4B 2965   4.029  10.935   5.788
  207POPC   NC3 2966   0.529  10.813   3.910
  207POPC   PO4 2967   0.710   0.021   3.959
  207POPC   GL1 2968   0.645  11.202   4.218
  207POPC   GL2 2969   0.312  11.173   4.240
  207POPC   C1A 2970   0.702  11.021   4.633
  207POPC   D2A 2971   0.893  11.281   4.978
  207POPC   C3A 2972   0.741  11.181   5.397
  207POPC   C4A 2973   0.786  11.348   5.806
  207POPC   C1B 2974   0.208  11.157   4.644
  207POPC   C2B 2975   0.359  10.972   5.004
  207POPC   C3B 2976   0.248  11.087   5.368
  207POPC   C4B 2977   0.339  11.069   5.736
  208POPC   NC3 2978   8.722  10.510   3.911
  208POPC   PO4 2979   9.332  10.545   3.756
  208POPC   GL1 2980   9.136  10.590   4.252
  208POPC   GL2 2981   8.933  10.370   4.367
  208POPC   C1A 2982   8.766  10.684   4.678
  208POPC   D2A 2983   8.516  10.743   5.086
  208POPC   C3A 2984   8.721  10.769   5.504
  208POPC   C4A 2985   9.111  10.528   5.613
  208POPC   C1B 2986   9.218  10.473   4.735
  208POPC   C2B 2987   8.990  10.477   5.110
  208POPC   C3B 2988   8.646  10.304   5.325
  208POPC   C4B 2989   8.579  10.247   5.748
  209POPC   NC3 2990   5.099   0.117   4.003
  209POPC   PO4 2991   5.328  11.006   3.764
  209POPC   GL1 2992   5.271  11.183   4.206
  209POPC   GL2 2993   4.897  11.217   4.315
  209POPC   C1A 2994   5.213  11.420   4.641
  209POPC   D2A 2995   4.880  11.396   4.975
  209POPC   C3A 2996   4.930   0.031   5.431
  209POPC   C4A 2997   5.130  11.445   5.864
  209POPC   C1B 2998   4.848  10.937   4.722
  209POPC   C2B 2999   5.032  10.838   5.166
  209POPC   C3B 3000   5.183  11.001   5.599
  209POPC   C4B 3001   4.951  10.983   6.031
  210POPC   NC3 3002   0.506  10.050   3.770
  210POPC   PO4 3003  11.392   9.883   3.977
  210POPC   GL1 3004   0.230  10.135   4.214
  210POPC   GL2 3005   0.214  10.434   4.059
  210POPC   C1A 3006   0.272  10.081   4.680
  210POPC   D2A 3007   0.088  10.064   5.112
  210POPC   C3A 3008   0.361  10.197   5.468
  210POPC   C4A 3009   0.310  10.348   5.902
  210POPC   C1B 3010   0.357  10.575   4.513
  210POPC   C2B 3011   0.445  10.469   4.975
  210POPC   C3B 3012   0.568  10.666   5.373
  210POPC   C4B 3013   0.665  10.692   5.797
  211POPC   NC3 3014   2.144   1.792   3.801
  211POPC   PO4 3015   2.210   2.439   3.872
  211POPC   GL1 3016   1.942   2.278   4.190
  211POPC   GL2 3017   1.937   1.936   4.269
  211POPC   C1A 3018   2.126   2.261   4.617
  211POPC   D2A 3019   1.981   2.235   5.035
  211POPC   C3A 3020   2.292   2.217   5.341
  211POPC   C4A 3021   2.205   2.250   5.753
  211POPC   C1B 3022   1.695   1.979   4.645
  211POPC   C2B 3023   1.651   1.830   5.064
  211POPC   C3B 3024   1.834   1.916   5.453
  211POPC   C4B 3025   1.675   2.205   5.713
  212POPC   NC3 3026  11.021   8.796   3.676
  212POPC   PO4 3027   0.058   8.540   3.796
  212POPC   GL1 3028  11.434   8.844   4.151
  212POPC   GL2 3029  11.107   8.969   4.144
  212POPC   C1A 3030  11.290   8.857   4.628
  212POPC   D2A 3031  11.311   8.732   5.083
  212POPC   C3A 3032  11.479   8.435   5.402
  212POPC   C4A 3033  11.235   8.779   5.622
  212POPC   C1B 3034  10.915   9.189   4.478
  212POPC   C2B 3035  10.884   9.101   4.924
  212POPC   C3B 3036  11.073   9.188   5.327
  212POPC   C4B 3037  10.975   9.193   5.775
  213POPC   NC3 3038   7.136  10.942   3.895
  213POPC   PO4 3039   7.832  11.034   3.829
  213POPC   GL1 3040   7.587  10.882   4.173
  213POPC   GL2 3041   7.399  11.147   4.292
  213POPC   C1A 3042   7.573  10.848   4.643
  213POPC   D2A 3043   7.444  10.860   5.071
  213POPC   C3A 3044   7.652  10.794   5.426
  213POPC   C4A 3045   7.460  10.902   5.793
  213POPC   C1B 3046   7.126  11.181   4.633
  213POPC   C2B 3047   7.132  11.354   5.008
  213POPC   C3B 3048   7.066  11.132   5.360
  213POPC   C4B 3049   7.201  11.322   5.709
  214POPC   NC3 3050   4.040   1.403   4.068
  214POPC   PO4 3051   3.398   1.522   3.825
  214POPC   GL1 3052   3.318   1.420   4.252
  214POPC   GL2 3053   3.543   1.144   4.205
  214POPC   C1A 3054   3.553   1.418   4.666
  214POPC   D2A 3055   3.927   1.517   4.941
  214POPC   C3A 3056   3.727   1.532   5.330
  214POPC   C4A 3057   3.530   1.511   5.707
  214POPC   C1B 3058   3.285   0.964   4.532
  214POPC   C2B 3059   3.365   0.871   4.952
  214POPC   C3B 3060   3.335   0.834   5.379
  214POPC   C4B 3061   3.484   1.001   5.722
  215POPC   NC3 3062   9.711   6.647   4.021
  215POPC   PO4 3063  10.060   6.079   3.852
  215POPC   GL1 3064   9.890   6.252   4.274
  215POPC   GL2 3065   9.503   6.324   4.364
  215POPC   C1A 3066   9.863   6.478   4.688
  215POPC   D2A 3067   9.644   6.517   5.094
  215POPC   C3A 3068   9.875   6.712   5.479
  215POPC   C4A 3069   9.856   6.461   5.864
  215POPC   C1B 3070   9.407   6.734   4.656
  215POPC   C2B 3071   9.396   6.944   5.096
  215POPC   C3B 3072   9.374   6.720   5.512
  215POPC   C4B 3073   9.387   6.610   5.937
  216POPC   NC3 3074   4.453   8.870   4.096
  216POPC   PO4 3075   3.923   8.992   3.930
  216POPC   GL1 3076   4.016   8.974   4.392
  216POPC   GL2 3077   4.329   9.157   4.523
  216POPC   C1A 3078   3.967   8.974   4.857
  216POPC   D2A 3079   3.782   9.163   5.220
  216POPC   C3A 3080   3.994   8.935   5.548
  216POPC   C4A 3081   4.138   8.519   5.680
  216POPC   C1B 3082   4.495   8.888   4.801
  216POPC   C2B 3083   4.369   8.848   5.216
  216POPC   C3B 3084   4.548   8.818   5.616
  216POPC   C4B 3085   4.743   8.894   6.005
  217POPC   NC3 3086   1.189   4.314   3.838
  217POPC   PO4 3087   1.725   4.752   4.063
  217POPC   GL1 3088   1.347   4.468   4.279
  217POPC   GL2 3089   1.165   4.052   4.265
  217POPC   C1A 3090   1.157   4.367   4.647
  217POPC   D2A 3091   1.327   4.513   4.957
  217POPC   C3A 3092   1.295   4.498   5.359
  217POPC   C4A 3093   1.422   4.620   5.753
  217POPC   C1B 3094   1.071   3.865   4.705
  217POPC   C2B 3095   1.198   4.012   5.152
  217POPC   C3B 3096   1.176   4.100   5.638
  217POPC   C4B 3097   1.388   3.961   6.045
  218POPC   NC3 3098   1.714   3.725   3.806
  218POPC   PO4 3099   2.176   3.872   4.212
  218POPC   GL1 3100   1.925   3.615   4.387
  218POPC   GL2 3101   2.122   3.316   4.320
  218POPC   C1A 3102   1.897   3.723   4.797
  218POPC   D2A 3103   1.807   3.909   5.174
  218POPC   C3A 3104   1.949   3.700   5.555
  218POPC   C4A 3105   2.235   3.765   5.864
  218POPC   C1B 3106   1.926   3.207   4.730
  218POPC   C2B 3107   2.113   3.184   5.141
  218POPC   C3B 3108   1.998   3.186   5.586
  218POPC   C4B 3109   2.186   3.274   5.980
  219POPC   NC3 3110  10.583   1.147   3.812
  219POPC   PO4 3111   9.937   1.253   3.895
  219POPC   GL1 3112  10.215   1.088   4.256
  219POPC   GL2 3113  10.614   1.086   4.311
  219POPC   C1A 3114  10.311   1.155   4.715
  219POPC   D2A 3115  10.066   1.270   5.076
  219POPC   C3A 3116  10.040   1.641   5.306
  219POPC   C4A 3117  10.004   1.408   5.685
  219POPC   C1B 3118  10.815   1.016   4.712
  219POPC   C2B 3119  10.653   0.949   5.110
  219POPC   C3B 3120  10.438   1.079   5.492
  219POPC   C4B 3121  10.635   1.020   5.897
  220POPC   NC3 3122   8.701   3.573   3.879
  220POPC   PO4 3123   9.289   3.314   3.705
  220POPC   GL1 3124   9.164   3.327   4.184
  220POPC   GL2 3125   8.841   3.396   4.331
  220POPC   C1A 3126   9.245   3.494   4.644
  220POPC   D2A 3127   9.232   3.806   5.021
  220POPC   C3A 3128   9.128   3.569   5.391
  220POPC   C4A 3129   9.003   3.406   5.792
  220POPC   C1B 3130   8.551   3.323   4.681
  220POPC   C2B 3131   8.462   3.219   5.137
  220POPC   C3B 3132   8.535   3.370   5.553
  220POPC   C4B 3133   8.387   3.652   5.884
  221POPC   NC3 3134   0.883   0.522   3.874
  221POPC   PO4 3135   1.441   0.161   3.835
  221POPC   GL1 3136   1.162   0.276   4.210
  221POPC   GL2 3137   1.138   0.625   4.328
  221POPC   C1A 3138   1.032   0.221   4.635
  221POPC   D2A 3139   1.007   0.382   5.040
  221POPC   C3A 3140   0.835   0.175   5.366
  221POPC   C4A 3141   0.995   0.354   5.729
  221POPC   C1B 3142   1.363   0.624   4.740
  221POPC   C2B 3143   1.615   0.523   5.128
  221POPC   C3B 3144   1.611   0.324   5.554
  221POPC   C4B 3145   1.423   0.557   5.888
  222POPC   NC3 3146   1.561   8.763   4.105
  222POPC   PO4 3147   0.914   8.793   3.875
  222POPC   GL1 3148   1.054   8.677   4.259
  222POPC   GL2 3149   1.118   9.008   4.358
  222POPC   C1A 3150   1.222   8.568   4.670
  222POPC   D2A 3151   1.026   8.650   5.070
  222POPC   C3A 3152   1.238   8.526   5.448
  222POPC   C4A 3153   1.373   8.656   5.857
  222POPC   C1B 3154   1.368   9.064   4.733
  222POPC   C2B 3155   1.356   9.036   5.182
  222POPC   C3B 3156   1.022   8.992   5.472
  222POPC   C4B 3157   1.161   9.129   5.844
  223POPC   NC3 3158   9.959   0.620   3.876
  223POPC   PO4 3159   9.758  11.443   3.869
  223POPC   GL1 3160   9.725   0.269   4.184
  223POPC   GL2 3161   9.391   0.319   4.206
  223POPC   C1A 3162   9.678   0.343   4.637
  223POPC   D2A 3163   9.920   0.338   4.982
  223POPC   C3A 3164   9.720   0.394   5.347
  223POPC   C4A 3165   9.822   0.441   5.757
  223POPC   C1B 3166   9.239   0.552   4.551
  223POPC   C2B 3167   9.296   0.455   5.005
  223POPC   C3B 3168   9.326   0.704   5.403
  223POPC   C4B 3169   9.369   0.636   5.815
  224POPC   NC3 3170   8.096   2.937   4.012
  224POPC   PO4 3171   7.885   2.342   3.639
  224POPC   GL1 3172   8.141   2.437   4.053
  224POPC   GL2 3173   7.959   2.462   4.336
  224POPC   C1A 3174   8.447   2.536   4.440
  224POPC   D2A 3175   8.518   2.810   4.827
  224POPC   C3A 3176   8.529   2.729   5.315
  224POPC   C4A 3177   8.383   2.585   5.749
  224POPC   C1B 3178   7.980   2.715   4.688
  224POPC   C2B 3179   8.016   2.952   5.049
  224POPC   C3B 3180   8.070   2.898   5.486
  224POPC   C4B 3181   7.869   2.786   5.870
  225POPC   NC3 3182   7.488   0.907   3.883
  225POPC   PO4 3183   7.588   1.612   3.922
  225POPC   GL1 3184   7.521   1.372   4.324
  225POPC   GL2 3185   7.452   1.006   4.395
  225POPC   C1A 3186   7.517   1.310   4.785
  225POPC   D2A 3187   7.591   1.314   5.220
  225POPC   C3A 3188   7.558   1.135   5.608
  225POPC   C4A 3189   7.626   1.479   5.809
  225POPC   C1B 3190   7.047   1.131   4.681
  225POPC   C2B 3191   6.899   1.361   5.060
  225POPC   C3B 3192   7.090   1.246   5.447
  225POPC   C4B 3193   7.077   0.969   5.823
  226POPC   NC3 3194  10.307   4.907   3.823
  226POPC   PO4 3195  10.778   5.392   3.967
  226POPC   GL1 3196  10.548   5.064   4.242
  226POPC   GL2 3197  10.132   4.997   4.288
  226POPC   C1A 3198  10.612   5.105   4.698
  226POPC   D2A 3199  10.429   5.239   5.100
  226POPC   C3A 3200  10.632   5.279   5.492
  226POPC   C4A 3201  10.411   5.169   5.866
  226POPC   C1B 3202  10.315   4.705   4.560
  226POPC   C2B 3203  10.325   4.744   5.018
  226POPC   C3B 3204  10.237   4.914   5.443
  226POPC   C4B 3205  10.004   4.769   5.773
  227POPC   NC3 3206   2.175   4.288   4.006
  227POPC   PO4 3207   1.594   4.157   3.723
  227POPC   GL1 3208   1.667   4.050   4.216
  227POPC   GL2 3209   1.825   4.304   4.354
  227POPC   C1A 3210   1.587   4.121   4.743
  227POPC   D2A 3211   1.765   4.398   5.155
  227POPC   C3A 3212   1.676   4.181   5.586
  227POPC   C4A 3213   1.878   4.088   6.001
  227POPC   C1B 3214   2.083   4.258   4.724
  227POPC   C2B 3215   2.238   4.185   5.119
  227POPC   C3B 3216   2.192   4.157   5.543
  227POPC   C4B 3217   2.343   4.281   5.956
  228POPC   NC3 3218  11.072   4.274   3.941
  228POPC   PO4 3219  11.486   4.754   3.991
  228POPC   GL1 3220  11.492   4.530   4.325
  228POPC   GL2 3221  11.121   4.551   4.373
  228POPC   C1A 3222   0.189   4.450   4.724
  228POPC   D2A 3223   0.205   4.362   5.167
  228POPC   C3A 3224  11.311   4.373   5.397
  228POPC   C4A 3225  11.140   4.591   5.773
  228POPC   C1B 3226  11.278   4.142   4.576
  228POPC   C2B 3227  11.423   3.971   4.982
  228POPC   C3B 3228  11.287   3.843   5.391
  228POPC   C4B 3229  11.146   4.052   5.767
  229POPC   NC3 3230   3.447   5.709   3.978
  229POPC   PO4 3231   3.825   5.458   4.269
  229POPC   GL1 3232   3.629   5.787   4.537
  229POPC   GL2 3233   3.371   6.002   4.404
  229POPC   C1A 3234   3.525   5.913   4.990
  229POPC   D2A 3235   3.606   5.748   5.441
  229POPC   C3A 3236   3.755   6.038   5.771
  229POPC   C4A 3237   3.665   6.092   6.202
  229POPC   C1B 3238   3.147   5.687   4.688
  229POPC   C2B 3239   3.126   5.631   5.154
  229POPC   C3B 3240   3.150   5.589   5.600
  229POPC   C4B 3241   3.275   5.891   5.866
  230POPC   NC3 3242   9.121   2.914   3.851
  230POPC   PO4 3243   8.516   3.140   3.979
  230POPC   GL1 3244   8.794   2.883   4.254
  230POPC   GL2 3245   8.894   2.513   4.137
  230POPC   C1A 3246   8.992   3.024   4.641
  230POPC   D2A 3247   8.947   3.291   4.996
  230POPC   C3A 3248   8.944   3.084   5.383
  230POPC   C4A 3249   8.746   2.952   5.756
  230POPC   C1B 3250   8.963   2.512   4.600
  230POPC   C2B 3251   8.975   2.677   5.038
  230POPC   C3B 3252   9.046   2.594   5.487
  230POPC   C4B 3253   8.934   2.508   5.930
  231POPC   NC3 3254   9.987   3.144   4.093
  231POPC   PO4 3255  10.241   2.467   3.952
  231POPC   GL1 3256  10.422   2.582   4.324
  231POPC   GL2 3257  10.773   2.573   4.273
  231POPC   C1A 3258  10.309   2.821   4.688
  231POPC   D2A 3259  10.388   2.718   5.125
  231POPC   C3A 3260  10.412   2.982   5.497
  231POPC   C4A 3261  10.242   2.791   5.854
  231POPC   C1B 3262  10.744   2.556   4.740
  231POPC   C2B 3263  10.784   2.399   5.155
  231POPC   C3B 3264  10.730   2.591   5.588
  231POPC   C4B 3265  10.721   2.792   6.003
  232POPC   NC3 3266   1.768   7.365   3.982
  232POPC   PO4 3267   2.369   7.571   3.906
  232POPC   GL1 3268   2.147   7.500   4.291
  232POPC   GL2 3269   2.096   7.142   4.282
  232POPC   C1A 3270   2.079   7.361   4.715
  232POPC   D2A 3271   1.772   7.402   4.963
  232POPC   C3A 3272   2.012   7.540   5.288
  232POPC   C4A 3273   2.219   7.700   5.655
  232POPC   C1B 3274   1.677   7.074   4.555
  232POPC   C2B 3275   1.624   6.881   4.959
  232POPC   C3B 3276   1.835   7.030   5.328
  232POPC   C4B 3277   1.967   7.251   5.715
  233POPC   NC3 3278   0.446   8.772   3.934
  233POPC   PO4 3279   0.074   8.351   4.313
  233POPC   GL1 3280   0.300   8.744   4.486
  233POPC   GL2 3281   0.605   8.925   4.384
  233POPC   C1A 3282   0.253   9.092   4.769
  233POPC   D2A 3283   0.056   9.180   5.164
  233POPC   C3A 3284   0.212   8.876   5.429
  233POPC   C4A 3285   0.222   8.647   5.826
  233POPC   C1B 3286   0.787   9.053   4.788
  233POPC   C2B 3287   0.586   9.157   5.201
  233POPC   C3B 3288   0.560   9.169   5.664
  233POPC   C4B 3289   0.734   8.831   5.898
  234POPC   NC3 3290   3.494   9.116   3.954
  234POPC   PO4 3291   2.980   8.694   4.078
  234POPC   GL1 3292   3.368   8.763   4.347
  234POPC   GL2 3293   3.487   9.074   4.468
  234POPC   C1A 3294   3.550   8.668   4.783
  234POPC   D2A 3295   3.733   8.649   5.216
  234POPC   C3A 3296   3.473   8.582   5.606
  234POPC   C4A 3297   3.434   8.388   6.034
  234POPC   C1B 3298   3.220   9.052   4.862
  234POPC   C2B 3299   3.305   8.965   5.287
  234POPC   C3B 3300   3.528   9.091   5.675
  234POPC   C4B 3301   3.350   9.039   6.080
  235POPC   NC3 3302   2.631   2.670   3.814
  235POPC   PO4 3303   3.174   2.183   3.805
  235POPC   GL1 3304   2.867   2.365   4.167
  235POPC   GL2 3305   2.877   2.725   4.300
  235POPC   C1A 3306   2.591   2.483   4.595
  235POPC   D2A 3307   2.808   2.577   5.008
  235POPC   C3A 3308   2.644   2.603   5.423
  235POPC   C4A 3309   2.842   2.700   5.810
  235POPC   C1B 3310   2.897   2.977   4.723
  235POPC   C2B 3311   2.628   3.058   5.149
  235POPC   C3B 3312   2.526   3.049   5.620
  235POPC   C4B 3313   2.569   2.988   6.108
  236POPC   NC3 3314   1.861   0.316   3.885
  236POPC   PO4 3315   1.624  11.136   4.088
  236POPC   GL1 3316   1.611   0.060   4.324
  236POPC   GL2 3317   1.647   0.465   4.313
  236POPC   C1A 3318   1.737   0.211   4.739
  236POPC   D2A 3319   2.106   0.105   4.959
  236POPC   C3A 3320   1.998  11.498   5.355
  236POPC   C4A 3321   2.177   0.143   5.711
  236POPC   C1B 3322   2.086   0.518   4.529
  236POPC   C2B 3323   2.175   0.623   4.968
  236POPC   C3B 3324   2.069   0.533   5.389
  236POPC   C4B 3325   2.389   0.630   5.694
  237POPC   NC3 3326   1.873   2.746   3.932
  237POPC   PO4 3327   2.362   3.052   3.753
  237POPC   GL1 3328   2.400   2.904   4.210
  237POPC   GL2 3329   2.119   2.727   4.372
  237POPC   C1A 3330   2.392   2.978   4.689
  237POPC   D2A 3331   2.303   2.647   4.994
  237POPC   C3A 3332   2.146   2.726   5.389
  237POPC   C4A 3333   2.195   2.758   5.837
  237POPC   C1B 3334   1.842   2.680   4.748
  237POPC   C2B 3335   1.501   2.465   4.975
  237POPC   C3B 3336   1.419   2.534   5.411
  237POPC   C4B 3337   1.735   2.683   5.682
  238POPC   NC3 3338   0.245   0.154   4.037
  238POPC   PO4 3339   0.437   0.777   3.859
  238POPC   GL1 3340   0.632   0.695   4.279
  238POPC   GL2 3341   0.641   0.358   4.315
  238POPC   C1A 3342   0.642   0.593   4.741
  238POPC   D2A 3343   0.483   0.462   5.125
  238POPC   C3A 3344   0.655   0.644   5.461
  238POPC   C4A 3345   0.392   0.753   5.720
  238POPC   C1B 3346   0.557   0.042   4.645
  238POPC   C2B 3347   0.382  11.476   5.056
  238POPC   C3B 3348   0.341   0.067   5.504
  238POPC   C4B 3349   0.510   0.283   5.839
  239POPC   NC3 3350   1.916   9.549   3.886
  239POPC   PO4 3351   2.495   9.658   4.169
  239POPC   GL1 3352   2.082   9.734   4.361
  239POPC   GL2 3353   1.732   9.861   4.237
  239POPC   C1A 3354   2.047   9.613   4.796
  239POPC   D2A 3355   2.299   9.545   5.103
  239POPC   C3A 3356   2.275   9.919   5.350
  239POPC   C4A 3357   2.040   9.695   5.656
  239POPC   C1B 3358   1.610   9.562   4.571
  239POPC   C2B 3359   1.502   9.497   4.980
  239POPC   C3B 3360   1.663   9.483   5.370
  239POPC   C4B 3361   1.531   9.520   5.767
  240POPC   NC3 3362   0.412   1.938   4.171
  240POPC   PO4 3363  11.495   2.370   3.827
  240POPC   GL1 3364   0.211   2.390   4.327
  240POPC   GL2 3365   0.544   2.261   4.522
  240POPC   C1A 3366   0.181   2.401   4.820
  240POPC   D2A 3367   0.340   2.367   5.240
  240POPC   C3A 3368   0.276   1.975   5.463
  240POPC   C4A 3369   0.092   1.880   5.874
  240POPC   C1B 3370   0.371   1.912   4.834
  240POPC   C2B 3371   0.540   1.642   5.185
  240POPC   C3B 3372   0.772   1.830   5.558
  240POPC   C4B 3373   0.642   2.232   5.736
  241POPC   NC3 3374   9.143   7.464   3.924
  241POPC   PO4 3375   8.660   7.806   4.067
  241POPC   GL1 3376   8.874   7.538   4.364
  241POPC   GL2 3377   9.029   7.192   4.405
  241POPC   C1A 3378   8.938   7.612   4.767
  241POPC   D2A 3379   8.815   7.542   5.187
  241POPC   C3A 3380   9.069   7.383   5.506
  241POPC   C4A 3381   8.886   7.293   5.935
  241POPC   C1B 3382   8.966   7.111   4.887
  241POPC   C2B 3383   8.932   6.914   5.338
  241POPC   C3B 3384   8.924   6.783   5.807
  241POPC   C4B 3385   9.111   6.899   6.251
  242POPC   NC3 3386   2.895  10.842   3.890
  242POPC   PO4 3387   2.398  11.382   3.911
  242POPC   GL1 3388   2.586  11.119   4.207
  242POPC   GL2 3389   2.920  11.169   4.269
  242POPC   C1A 3390   2.593  11.294   4.636
  242POPC   D2A 3391   2.787  11.411   5.034
  242POPC   C3A 3392   2.529  11.315   5.393
  242POPC   C4A 3393   2.722  11.105   5.700
  242POPC   C1B 3394   2.900  10.890   4.592
  242POPC   C2B 3395   2.977  10.910   5.019
  242POPC   C3B 3396   3.140  10.857   5.426
  242POPC   C4B 3397   3.057  10.757   5.821
  243POPC   NC3 3398   6.461   2.058   3.920
  243POPC   PO4 3399   6.483   1.356   3.828
  243POPC   GL1 3400   6.474   1.592   4.203
  243POPC   GL2 3401   6.778   1.781   4.275
  243POPC   C1A 3402   6.331   1.673   4.619
  243POPC   D2A 3403   6.268   1.582   5.057
  243POPC   C3A 3404   6.583   1.747   5.357
  243POPC   C4A 3405   6.496   1.872   5.787
  243POPC   C1B 3406   6.961   1.896   4.696
  243POPC   C2B 3407   6.978   2.043   5.162
  243POPC   C3B 3408   6.763   2.238   5.499
  243POPC   C4B 3409   6.556   2.396   5.861
  244POPC   NC3 3410   9.486   1.386   3.757
  244POPC   PO4 3411   9.502   0.719   3.883
  244POPC   GL1 3412   9.670   0.973   4.234
  244POPC   GL2 3413   9.371   1.106   4.409
  244POPC   C1A 3414   9.790   1.078   4.676
  244POPC   D2A 3415   9.653   0.815   4.990
  244POPC   C3A 3416   9.802   0.925   5.372
  244POPC   C4A 3417   9.768   0.943   5.774
  244POPC   C1B 3418   9.389   1.383   4.786
  244POPC   C2B 3419   9.552   1.325   5.165
  244POPC   C3B 3420   9.428   1.236   5.544
  244POPC   C4B 3421   9.554   1.374   5.942
  245POPC   NC3 3422   8.056   8.710   3.668
  245POPC   PO4 3423   8.248   9.233   3.721
  245POPC   GL1 3424   8.165   8.987   4.153
  245POPC   GL2 3425   7.881   9.094   4.306
  245POPC   C1A 3426   8.236   9.024   4.662
  245POPC   D2A 3427   7.975   9.016   5.017
  245POPC   C3A 3428   8.259   8.998   5.392
  245POPC   C4A 3429   8.181   9.133   5.821
  245POPC   C1B 3430   7.872   8.678   4.597
  245POPC   C2B 3431   7.746   8.542   5.025
  245POPC   C3B 3432   7.899   8.455   5.443
  245POPC   C4B 3433   8.219   8.620   5.732
  246POPC   NC3 3434   7.565   8.135   4.023
  246POPC   PO4 3435   7.122   7.688   3.869
  246POPC   GL1 3436   7.174   7.933   4.313
  246POPC   GL2 3437   7.197   8.320   4.330
  246POPC   C1A 3438   7.183   8.060   4.792
  246POPC   D2A 3439   7.485   8.122   5.165
  246POPC   C3A 3440   7.377   7.981   5.595
  246POPC   C4A 3441   7.305   7.920   6.064
  246POPC   C1B 3442   7.336   8.550   4.710
  246POPC   C2B 3443   7.196   8.544   5.116
  246POPC   C3B 3444   7.384   8.518   5.512
  246POPC   C4B 3445   7.136   8.354   5.853
  247POPC   NC3 3446   4.321   2.339   3.942
  247POPC   PO4 3447   4.144   1.715   3.708
  247POPC   GL1 3448   4.146   1.899   4.134
  247POPC   GL2 3449   4.451   1.927   4.351
  247POPC   C1A 3450   3.960   1.890   4.553
  247POPC   D2A 3451   4.040   2.162   4.922
  247POPC   C3A 3452   4.050   1.934   5.314
  247POPC   C4A 3453   4.095   1.630   5.680
  247POPC   C1B 3454   4.380   1.776   4.815
  247POPC   C2B 3455   4.415   1.582   5.220
  247POPC   C3B 3456   4.560   1.796   5.568
  247POPC   C4B 3457   4.333   2.203   5.645
  248POPC   NC3 3458  10.858   0.381   4.243
  248POPC   PO4 3459  10.428   0.692   3.801
  248POPC   GL1 3460  10.418   0.616   4.238
  248POPC   GL2 3461  10.242   0.313   4.304
  248POPC   C1A 3462  10.513   0.571   4.722
  248POPC   D2A 3463  10.438   0.315   5.073
  248POPC   C3A 3464  10.677   0.514   5.376
  248POPC   C4A 3465  10.589   0.431   5.772
  248POPC   C1B 3466  10.052   0.668   4.578
  248POPC   C2B 3467  10.166   0.774   5.031
  248POPC   C3B 3468  10.194   0.627   5.455
  248POPC   C4B 3469  10.218   0.765   5.890
  249POPC   NC3 3470   9.147   0.445   3.774
  249POPC   PO4 3471   8.766  11.383   3.755
  249POPC   GL1 3472   9.038  11.456   4.153
  249POPC   GL2 3473   8.869   0.233   4.325
  249POPC   C1A 3474   9.193   0.015   4.659
  249POPC   D2A 3475   9.019   0.021   5.141
  249POPC   C3A 3476   9.223   0.208   5.531
  249POPC   C4A 3477   9.193   0.222   6.020
  249POPC   C1B 3478   8.816   0.343   4.791
  249POPC   C2B 3479   8.845   0.573   5.213
  249POPC   C3B 3480   8.868   0.565   5.686
  249POPC   C4B 3481   8.678   0.808   6.019
  250POPC   NC3 3482   7.842   2.005   3.951
  250POPC   PO4 3483   8.446   1.671   3.833
  250POPC   GL1 3484   8.219   1.688   4.241
  250POPC   GL2 3485   8.190   2.011   4.337
  250POPC   C1A 3486   7.982   1.705   4.671
  250POPC   D2A 3487   8.083   1.889   5.107
  250POPC   C3A 3488   7.819   1.834   5.457
  250POPC   C4A 3489   7.757   1.964   5.876
  250POPC   C1B 3490   8.169   2.220   4.732
  250POPC   C2B 3491   8.086   2.443   5.122
  250POPC   C3B 3492   7.974   2.336   5.541
  250POPC   C4B 3493   8.252   2.049   5.721
  251POPC   NC3 3494   2.961   8.507   3.671
  251POPC   PO4 3495   2.314   8.505   3.907
  251POPC   GL1 3496   2.382   8.352   4.372
  251POPC   GL2 3497   2.329   7.972   4.406
  251POPC   C1A 3498   2.527   8.332   4.859
  251POPC   D2A 3499   2.835   8.173   5.228
  251POPC   C3A 3500   3.041   8.214   5.674
  251POPC   C4A 3501   2.859   8.255   6.118
  251POPC   C1B 3502   2.325   7.831   4.855
  251POPC   C2B 3503   2.344   8.025   5.268
  251POPC   C3B 3504   2.545   8.077   5.702
  251POPC   C4B 3505   2.431   7.903   6.114
  252POPC   NC3 3506   6.529   3.611   4.032
  252POPC   PO4 3507   6.919   3.443   4.230
  252POPC   GL1 3508   6.608   3.600   4.539
  252POPC   GL2 3509   6.326   3.386   4.486
  252POPC   C1A 3510   6.412   3.649   4.976
  252POPC   D2A 3511   6.263   3.927   5.337
  252POPC   C3A 3512   6.575   3.908   5.663
  252POPC   C4A 3513   6.856   3.534   5.786
  252POPC   C1B 3514   6.620   3.166   4.790
  252POPC   C2B 3515   6.736   3.282   5.210
  252POPC   C3B 3516   6.443   3.448   5.489
  252POPC   C4B 3517   6.170   3.597   5.803
  253POPC   NC3 3518   8.189   9.664   3.934
  253POPC   PO4 3519   7.612   9.953   4.000
  253POPC   GL1 3520   7.934   9.881   4.330
  253POPC   GL2 3521   8.293   9.842   4.417
  253POPC   C1A 3522   7.983  10.071   4.757
  253POPC   D2A 3523   7.920   9.819   5.124
  253POPC   C3A 3524   7.682   9.834   5.493
  253POPC   C4A 3525   7.668   9.919   5.937
  253POPC   C1B 3526   8.139   9.568   4.738
  253POPC   C2B 3527   8.254   9.427   5.109
  253POPC   C3B 3528   7.992   9.431   5.465
  253POPC   C4B 3529   8.118   9.690   5.802
  254POPC   NC3 3530   9.454   9.863   3.774
  254POPC   PO4 3531   9.124   9.332   4.032
  254POPC   GL1 3532   9.305   9.654   4.281
  254POPC   GL2 3533   9.690   9.718   4.321
  254POPC   C1A 3534   9.220   9.664   4.709
  254POPC   D2A 3535   9.235   9.380   5.077
  254POPC   C3A 3536   9.208   9.529   5.517
  254POPC   C4A 3537   9.425   9.548   5.918
  254POPC   C1B 3538   9.885   9.670   4.780
  254POPC   C2B 3539   9.890   9.640   5.252
  254POPC   C3B 3540  10.005   9.478   5.653
  254POPC   C4B 3541   9.979   9.432   6.123
  255POPC   NC3 3542   5.250   0.976   4.004
  255POPC   PO4 3543   5.132   1.570   3.652
  255POPC   GL1 3544   5.014   1.394   4.147
  255POPC   GL2 3545   4.791   1.074   4.228
  255POPC   C1A 3546   5.082   1.261   4.600
  255POPC   D2A 3547   5.187   1.393   5.014
  255POPC   C3A 3548   4.872   1.356   5.333
  255POPC   C4A 3549   4.883   1.353   5.762
  255POPC   C1B 3550   4.762   0.845   4.624
  255POPC   C2B 3551   4.966   0.918   5.020
  255POPC   C3B 3552   5.097   0.912   5.427
  255POPC   C4B 3553   5.174   0.961   5.862
  256POPC   NC3 3554   0.177   8.059   3.958
  256POPC   PO4 3555   0.835   7.798   3.975
  256POPC   GL1 3556   0.570   8.017   4.295
  256POPC   GL2 3557   0.594   8.380   4.256
  256POPC   C1A 3558   0.438   8.056   4.741
  256POPC   D2A 3559   0.187   7.912   5.097
  256POPC   C3A 3560   0.381   8.072   5.478
  256POPC   C4A 3561   0.481   7.839   5.847
  256POPC   C1B 3562   0.715   8.503   4.662
  256POPC   C2B 3563   0.506   8.659   5.033
  256POPC   C3B 3564   0.635   8.583   5.464
  256POPC   C4B 3565   0.624   8.331   5.871
  257POPC   NC3 3566  10.189   7.331   4.223
  257POPC   PO4 3567   9.606   7.523   3.907
  257POPC   GL1 3568   9.718   7.529   4.345
  257POPC   GL2 3569   9.393   7.547   4.368
  257POPC   C1A 3570   9.918   7.460   4.799
  257POPC   D2A 3571  10.102   7.472   5.226
  257POPC   C3A 3572   9.817   7.652   5.507
  257POPC   C4A 3573   9.660   7.527   5.921
  257POPC   C1B 3574   9.397   7.386   4.759
  257POPC   C2B 3575   9.487   7.446   5.174
  257POPC   C3B 3576   9.593   7.188   5.517
  257POPC   C4B 3577   9.339   7.110   5.846
  258POPC   NC3 3578   8.290  11.136   3.685
  258POPC   PO4 3579   8.830  10.962   4.095
  258POPC   GL1 3580   8.813  11.139   4.470
  258POPC   GL2 3581   9.133  11.043   4.492
  258POPC   C1A 3582   8.633  11.366   4.812
  258POPC   D2A 3583   8.593  11.226   5.247
  258POPC   C3A 3584   8.669   0.026   5.578
  258POPC   C4A 3585   8.813  11.413   5.986
  258POPC   C1B 3586   9.009  11.045   4.921
  258POPC   C2B 3587   9.145  10.950   5.268
  258POPC   C3B 3588   9.091  11.212   5.588
  258POPC   C4B 3589   9.320  11.235   5.974
  259POPC   NC3 3590   1.659   6.556   3.822
  259POPC   PO4 3591   2.139   6.232   3.762
  259POPC   GL1 3592   1.919   6.337   4.182
  259POPC   GL2 3593   1.893   6.686   4.247
  259POPC   C1A 3594   1.807   6.310   4.649
  259POPC   D2A 3595   1.722   6.171   5.092
  259POPC   C3A 3596   1.925   6.303   5.507
  259POPC   C4A 3597   2.295   6.380   5.815
  259POPC   C1B 3598   2.056   6.762   4.674
  259POPC   C2B 3599   2.078   6.602   5.093
  259POPC   C3B 3600   2.219   6.759   5.497
  259POPC   C4B 3601   1.897   6.758   5.798
  260POPC   NC3 3602  11.171   5.629   3.913
  260POPC   PO4 3603  10.749   6.198   3.981
  260POPC   GL1 3604  10.895   5.884   4.269
  260POPC   GL2 3605  11.248   5.887   4.342
  260POPC   C1A 3606  10.926   5.729   4.705
  260POPC   D2A 3607  10.734   5.637   5.101
  260POPC   C3A 3608  10.928   5.737   5.483
  260POPC   C4A 3609  10.796   5.577   5.872
  260POPC   C1B 3610  11.433   5.970   4.752
  260POPC   C2B 3611  11.365   5.982   5.179
  260POPC   C3B 3612  11.425   5.818   5.588
  260POPC   C4B 3613  11.185   5.879   5.969
  261POPC   NC3 3614   5.031   9.290   4.012
  261POPC   PO4 3615   5.239  10.007   3.825
  261POPC   GL1 3616   5.117   9.750   4.193
  261POPC   GL2 3617   5.236   9.488   4.434
  261POPC   C1A 3618   4.955   9.876   4.606
  261POPC   D2A 3619   4.994   9.701   5.023
  261POPC   C3A 3620   4.952   9.916   5.407
  261POPC   C4A 3621   4.997   9.727   5.809
  261POPC   C1B 3622   4.848   9.339   4.698
  261POPC   C2B 3623   4.710   9.263   5.151
  261POPC   C3B 3624   4.720   9.300   5.628
  261POPC   C4B 3625   4.676   9.388   6.088
  262POPC   NC3 3626  10.875   6.659   3.947
  262POPC   PO4 3627  11.342   7.004   3.989
  262POPC   GL1 3628  11.197   6.772   4.327
  262POPC   GL2 3629  11.196   6.408   4.264
  262POPC   C1A 3630  11.285   6.714   4.724
  262POPC   D2A 3631  11.199   6.506   5.063
  262POPC   C3A 3632  11.190   6.749   5.425
  262POPC   C4A 3633  11.313   7.007   5.764
  262POPC   C1B 3634  11.013   6.243   4.636
  262POPC   C2B 3635  10.873   6.124   5.039
  262POPC   C3B 3636  11.017   6.233   5.456
  262POPC   C4B 3637  11.195   6.365   5.825
  263POPC   NC3 3638  11.120   7.439   3.876
  263POPC   PO4 3639  10.539   6.971   3.779
  263POPC   GL1 3640  10.859   7.129   4.174
  263POPC   GL2 3641  11.058   7.444   4.359
  263POPC   C1A 3642  10.937   7.084   4.682
  263POPC   D2A 3643  10.822   7.019   5.132
  263POPC   C3A 3644  10.885   7.171   5.538
  263POPC   C4A 3645  10.854   7.043   5.988
  263POPC   C1B 3646  11.405   7.256   4.626
  263POPC   C2B 3647  11.336   7.125   5.068
  263POPC   C3B 3648  11.345   7.397   5.446
  263POPC   C4B 3649  11.113   7.510   5.852
  264POPC   NC3 3650   5.324  10.643   4.046
  264POPC   PO4 3651   5.974  10.620   4.071
  264POPC   GL1 3652   5.823  10.497   4.401
  264POPC   GL2 3653   6.007  10.182   4.347
  264POPC   C1A 3654   5.712  10.689   4.808
  264POPC   D2A 3655   5.553  10.811   5.239
  264POPC   C3A 3656   5.650  10.572   5.614
  264POPC   C4A 3657   5.738  10.655   6.041
  264POPC   C1B 3658   5.829  10.171   4.770
  264POPC   C2B 3659   5.763  10.316   5.161
  264POPC   C3B 3660   5.800  10.093   5.497
  264POPC   C4B 3661   5.817  10.169   5.897
  265POPC   NC3 3662   0.131   3.445   3.984
  265POPC   PO4 3663  11.118   3.826   3.899
  265POPC   GL1 3664  11.207   3.524   4.224
  265POPC   GL2 3665  10.940   3.368   4.347
  265POPC   C1A 3666  11.408   3.326   4.594
  265POPC   D2A 3667  11.212   3.195   4.975
  265POPC   C3A 3668  11.331   3.261   5.406
  265POPC   C4A 3669  11.453   3.179   5.848
  265POPC   C1B 3670  11.071   3.681   4.687
  265POPC   C2B 3671  10.927   3.621   5.085
  265POPC   C3B 3672  10.872   3.537   5.494
  265POPC   C4B 3673  11.112   3.547   5.850
  266POPC   NC3 3674   1.187  11.322   3.986
  266POPC   PO4 3675   1.002  10.705   3.788
  266POPC   GL1 3676   1.068  10.868   4.275
  266POPC   GL2 3677   1.104  11.236   4.451
  266POPC   C1A 3678   1.196  10.857   4.767
  266POPC   D2A 3679   1.045  10.820   5.204
  266POPC   C3A 3680   1.129  10.921   5.647
  266POPC   C4A 3681   1.490  10.868   5.943
  266POPC   C1B 3682   1.371  11.356   4.745
  266POPC   C2B 3683   1.407   0.034   5.134
  266POPC   C3B 3684   1.247  11.414   5.522
  266POPC   C4B 3685   1.280  11.493   5.944
  267POPC   NC3 3686   1.398   4.966   3.840
  267POPC   PO4 3687   0.853   5.337   3.820
  267POPC   GL1 3688   1.141   5.313   4.221
  267POPC   GL2 3689   1.491   5.150   4.301
  267POPC   C1A 3690   1.280   5.409   4.672
  267POPC   D2A 3691   1.121   5.382   5.081
  267POPC   C3A 3692   1.334   5.445   5.454
  267POPC   C4A 3693   1.487   5.160   5.781
  267POPC   C1B 3694   1.231   4.890   4.593
  267POPC   C2B 3695   0.995   4.884   4.999
  267POPC   C3B 3696   1.109   4.962   5.431
  267POPC   C4B 3697   0.967   4.862   5.849
  268POPC   NC3 3698   1.103   6.741   4.070
  268POPC   PO4 3699   1.424   6.155   3.876
  268POPC   GL1 3700   1.397   6.254   4.314
  268POPC   GL2 3701   1.428   6.604   4.438
  268POPC   C1A 3702   1.161   6.226   4.732
  268POPC   D2A 3703   1.256   6.401   5.151
  268POPC   C3A 3704   1.041   6.342   5.548
  268POPC   C4A 3705   1.424   6.525   5.720
  268POPC   C1B 3706   1.134   6.739   4.771
  268POPC   C2B 3707   1.146   6.938   5.169
  268POPC   C3B 3708   1.024   6.841   5.568
  268POPC   C4B 3709   1.046   6.996   5.951
  269POPC   NC3 3710   0.450   5.209   4.049
  269POPC   PO4 3711   0.771   4.515   3.907
  269POPC   GL1 3712   0.515   4.741   4.250
  269POPC   GL2 3713   0.802   4.927   4.313
  269POPC   C1A 3714   0.411   4.931   4.685
  269POPC   D2A 3715   0.499   4.770   5.131
  269POPC   C3A 3716   0.505   4.954   5.556
  269POPC   C4A 3717   0.439   4.862   6.020
  269POPC   C1B 3718   0.816   5.225   4.662
  269POPC   C2B 3719   0.634   5.260   5.104
  269POPC   C3B 3720   0.800   5.363   5.505
  269POPC   C4B 3721   0.701   5.276   5.917
  270POPC   NC3 3722   6.497   0.879   3.748
  270POPC   PO4 3723   7.048   0.942   4.072
  270POPC   GL1 3724   6.643   0.804   4.273
  270POPC   GL2 3725   6.322   1.038   4.216
  270POPC   C1A 3726   6.645   0.690   4.730
  270POPC   D2A 3727   6.883   0.844   5.094
  270POPC   C3A 3728   6.692   0.874   5.495
  270POPC   C4A 3729   6.435   0.923   5.854
  270POPC   C1B 3730   6.490   1.177   4.635
  270POPC   C2B 3731   6.443   1.109   5.087
  270POPC   C3B 3732   6.375   1.301   5.485
  270POPC   C4B 3733   6.706   1.386   5.735
  271POPC   NC3 3734  10.267   7.362   3.667
  271POPC   PO4 3735  10.566   7.596   4.178
  271POPC   GL1 3736  10.571   7.374   4.528
  271POPC   GL2 3737  10.481   7.008   4.471
  271POPC   C1A 3738  10.463   7.312   4.901
  271POPC   D2A 3739  10.647   7.529   5.199
  271POPC   C3A 3740  10.515   7.525   5.588
  271POPC   C4A 3741  10.676   7.858   5.795
  271POPC   C1B 3742  10.249   6.850   4.790
  271POPC   C2B 3743  10.314   6.928   5.210
  271POPC   C3B 3744  10.395   7.027   5.584
  271POPC   C4B 3745  10.065   7.266   5.715
  272POPC   NC3 3746   9.550   7.996   3.956
  272POPC   PO4 3747  10.104   7.805   3.649
  272POPC   GL1 3748  10.035   7.867   4.116
  272POPC   GL2 3749   9.966   8.243   4.191
  272POPC   C1A 3750   9.888   7.936   4.588
  272POPC   D2A 3751   9.694   7.894   5.017
  272POPC   C3A 3752   9.779   8.155   5.413
  272POPC   C4A 3753   9.817   8.016   5.850
  272POPC   C1B 3754   9.602   8.368   4.509
  272POPC   C2B 3755   9.331   8.364   4.904
  272POPC   C3B 3756   9.302   8.329   5.343
  272POPC   C4B 3757   9.385   8.266   5.774
  273POPC   NC3 3758   0.955   9.273   3.902
  273POPC   PO4 3759   1.614   9.210   4.019
  273POPC   GL1 3760   1.280   9.472   4.220
  273POPC   GL2 3761   1.217   9.794   4.252
  273POPC   C1A 3762   1.085   9.500   4.647
  273POPC   D2A 3763   0.930   9.504   5.057
  273POPC   C3A 3764   1.137   9.495   5.434
  273POPC   C4A 3765   0.880   9.551   5.802
  273POPC   C1B 3766   1.308   9.967   4.640
  273POPC   C2B 3767   1.226   9.917   5.056
  273POPC   C3B 3768   1.353   9.970   5.462
  273POPC   C4B 3769   1.204   9.930   5.862
  274POPC   NC3 3770   0.514   6.124   3.727
  274POPC   PO4 3771   0.659   6.794   3.937
  274POPC   GL1 3772   0.378   6.488   4.133
  274POPC   GL2 3773   0.570   6.229   4.277
  274POPC   C1A 3774   0.165   6.401   4.555
  274POPC   D2A 3775   0.230   6.603   4.982
  274POPC   C3A 3776   0.081   6.404   5.384
  274POPC   C4A 3777   0.121   6.616   5.758
  274POPC   C1B 3778   0.679   6.468   4.656
  274POPC   C2B 3779   0.753   6.452   5.104
  274POPC   C3B 3780   0.571   6.541   5.510
  274POPC   C4B 3781   0.539   6.915   5.773
  275POPC   NC3 3782   4.827  10.222   3.712
  275POPC   PO4 3783   4.893  10.820   4.014
  275POPC   GL1 3784   4.790  10.476   4.225
  275POPC   GL2 3785   5.061  10.248   4.230
  275POPC   C1A 3786   4.854  10.394   4.668
  275POPC   D2A 3787   4.723  10.155   4.991
  275POPC   C3A 3788   4.733  10.396   5.332
  275POPC   C4A 3789   4.796  10.686   5.647
  275POPC   C1B 3790   5.350  10.287   4.590
  275POPC   C2B 3791   5.271  10.403   5.000
  275POPC   C3B 3792   5.223  10.393   5.428
  275POPC   C4B 3793   5.330  10.125   5.749
  276POPC   NC3 3794   4.603   2.873   3.963
  276POPC   PO4 3795   4.003   3.057   3.991
  276POPC   GL1 3796   4.216   2.713   4.287
  276POPC   GL2 3797   4.109   2.362   4.399
  276POPC   C1A 3798   4.395   2.594   4.730
  276POPC   D2A 3799   4.231   2.587   5.164
  276POPC   C3A 3800   4.498   2.672   5.535
  276POPC   C4A 3801   4.851   2.666   5.825
  276POPC   C1B 3802   3.879   2.619   4.693
  276POPC   C2B 3803   3.690   2.514   5.098
  276POPC   C3B 3804   3.881   2.405   5.480
  276POPC   C4B 3805   4.083   2.598   5.833
  277POPC   NC3 3806   8.721   4.623   3.870
  277POPC   PO4 3807   8.806   4.015   3.850
  277POPC   GL1 3808   9.014   3.873   4.245
  277POPC   GL2 3809   9.133   4.160   4.423
  277POPC   C1A 3810   8.846   3.807   4.691
  277POPC   D2A 3811   8.693   3.700   5.134
  277POPC   C3A 3812   8.752   3.845   5.572
  277POPC   C4A 3813   8.535   4.153   5.813
  277POPC   C1B 3814   9.012   4.299   4.853
  277POPC   C2B 3815   8.950   4.211   5.301
  277POPC   C3B 3816   9.050   4.280   5.754
  277POPC   C4B 3817   8.841   4.352   6.167
  278POPC   NC3 3818   1.063   3.001   4.046
  278POPC   PO4 3819   1.262   3.645   3.874
  278POPC   GL1 3820   1.391   3.592   4.283
  278POPC   GL2 3821   1.077   3.428   4.355
  278POPC   C1A 3822   1.449   3.502   4.727
  278POPC   D2A 3823   1.643   3.436   5.140
  278POPC   C3A 3824   1.462   3.678   5.461
  278POPC   C4A 3825   1.409   3.516   5.838
  278POPC   C1B 3826   0.999   3.232   4.762
  278POPC   C2B 3827   1.106   3.480   5.144
  278POPC   C3B 3828   0.974   3.640   5.567
  278POPC   C4B 3829   0.952   3.245   5.735
  279POPC   NC3 3830   3.144   1.126   3.720
  279POPC   PO4 3831   2.776   1.391   4.145
  279POPC   GL1 3832   2.803   1.106   4.436
  279POPC   GL2 3833   2.508   0.885   4.364
  279POPC   C1A 3834   2.918   1.194   4.889
  279POPC   D2A 3835   3.239   1.320   5.207
  279POPC   C3A 3836   3.063   1.263   5.632
  279POPC   C4A 3837   3.002   1.031   6.032
  279POPC   C1B 3838   2.344   1.237   4.602
  279POPC   C2B 3839   2.338   1.167   4.996
  279POPC   C3B 3840   2.611   1.255   5.359
  279POPC   C4B 3841   2.581   1.176   5.793
  280POPC   NC3 3842   3.794  11.277   3.947
  280POPC   PO4 3843   3.098  11.343   3.793
  280POPC   GL1 3844   3.348  11.402   4.188
  280POPC   GL2 3845   3.459  11.055   4.291
  280POPC   C1A 3846   3.227  11.365   4.668
  280POPC   D2A 3847   3.316   0.034   5.111
  280POPC   C3A 3848   3.120  11.364   5.483
  280POPC   C4A 3849   3.329  11.225   5.861
  280POPC   C1B 3850   3.414  10.872   4.696
  280POPC   C2B 3851   3.480  11.058   5.078
  280POPC   C3B 3852   3.615  11.041   5.494
  280POPC   C4B 3853   3.560  10.775   5.849
  281POPC   NC3 3854   5.113   8.154   3.866
  281POPC   PO4 3855   4.804   8.602   3.965
  281POPC   GL1 3856   4.958   8.382   4.321
  281POPC   GL2 3857   5.294   8.238   4.349
  281POPC   C1A 3858   5.002   8.363   4.775
  281POPC   D2A 3859   4.946   8.095   5.131
  281POPC   C3A 3860   4.942   8.304   5.532
  281POPC   C4A 3861   4.639   8.395   5.892
  281POPC   C1B 3862   5.323   7.950   4.745
  281POPC   C2B 3863   5.229   7.672   5.105
  281POPC   C3B 3864   5.204   7.837   5.532
  281POPC   C4B 3865   5.447   8.168   5.754
  282POPC   NC3 3866   6.948   0.416   4.028
  282POPC   PO4 3867   6.267   0.379   3.839
  282POPC   GL1 3868   6.454   0.240   4.279
  282POPC   GL2 3869   6.122   0.235   4.490
  282POPC   C1A 3870   6.843   0.191   4.624
  282POPC   D2A 3871   6.975   0.347   5.035
  282POPC   C3A 3872   6.859   0.110   5.398
  282POPC   C4A 3873   6.708  11.353   5.737
  282POPC   C1B 3874   6.390   0.250   4.852
  282POPC   C2B 3875   6.514   0.474   5.198
  282POPC   C3B 3876   6.343   0.483   5.554
  282POPC   C4B 3877   6.571   0.326   5.794
  283POPC   NC3 3878   7.885  10.525   3.885
  283POPC   PO4 3879   8.456  10.060   3.880
  283POPC   GL1 3880   8.442  10.290   4.263
  283POPC   GL2 3881   8.126  10.343   4.287
  283POPC   C1A 3882   8.443  10.283   4.726
  283POPC   D2A 3883   8.419   9.937   5.056
  283POPC   C3A 3884   8.182  10.079   5.468
  283POPC   C4A 3885   8.096  10.228   5.929
  283POPC   C1B 3886   8.003  10.583   4.609
  283POPC   C2B 3887   7.992  10.740   5.023
  283POPC   C3B 3888   8.151  10.612   5.454
  283POPC   C4B 3889   7.957  10.732   5.845
  284POPC   NC3 3890   2.486   5.972   3.897
  284POPC   PO4 3891   3.172   5.997   3.737
  284POPC   GL1 3892   2.951   5.877   4.143
  284POPC   GL2 3893   2.643   5.755   4.329
  284POPC   C1A 3894   2.893   6.110   4.587
  284POPC   D2A 3895   2.748   6.141   5.060
  284POPC   C3A 3896   2.879   6.005   5.495
  284POPC   C4A 3897   2.785   6.090   5.942
  284POPC   C1B 3898   2.580   5.735   4.789
  284POPC   C2B 3899   2.630   5.644   5.237
  284POPC   C3B 3900   2.639   5.563   5.676
  284POPC   C4B 3901   2.442   5.728   6.064
  285POPC   NC3 3902   1.801   5.881   3.816
  285POPC   PO4 3903   2.310   5.557   3.989
  285POPC   GL1 3904   1.980   5.564   4.256
  285POPC   GL2 3905   1.944   5.871   4.349
  285POPC   C1A 3906   1.776   5.429   4.612
  285POPC   D2A 3907   1.645   5.487   5.037
  285POPC   C3A 3908   1.798   5.748   5.376
  285POPC   C4A 3909   1.630   5.671   5.801
  285POPC   C1B 3910   2.041   5.844   4.780
  285POPC   C2B 3911   2.240   6.026   5.132
  285POPC   C3B 3912   2.334   5.950   5.543
  285POPC   C4B 3913   2.040   5.938   5.861
  286POPC   NC3 3914   7.192   9.873   4.186
  286POPC   PO4 3915   7.334  10.517   3.889
  286POPC   GL1 3916   7.191  10.562   4.334
  286POPC   GL2 3917   7.188  10.234   4.538
  286POPC   C1A 3918   7.100  10.663   4.781
  286POPC   D2A 3919   7.224  10.388   5.178
  286POPC   C3A 3920   7.175  10.511   5.629
  286POPC   C4A 3921   7.130  10.682   6.103
  286POPC   C1B 3922   7.551  10.358   4.765
  286POPC   C2B 3923   7.754  10.308   5.168
  286POPC   C3B 3924   7.715  10.323   5.593
  286POPC   C4B 3925   7.548  10.420   5.957
  287POPC   NC3 3926   2.025   5.141   3.990
  287POPC   PO4 3927   2.445   4.653   3.910
  287POPC   GL1 3928   2.174   4.677   4.356
  287POPC   GL2 3929   2.050   5.009   4.467
  287POPC   C1A 3930   1.753   4.680   4.698
  287POPC   D2A 3931   1.528   4.973   5.022
  287POPC   C3A 3932   1.720   4.863   5.427
  287POPC   C4A 3933   1.954   4.577   5.747
  287POPC   C1B 3934   2.257   5.342   4.714
  287POPC   C2B 3935   2.166   5.500   5.137
  287POPC   C3B 3936   2.149   5.458   5.597
  287POPC   C4B 3937   2.064   5.071   5.782
  288POPC   NC3 3938   0.317   4.425   3.915
  288POPC   PO4 3939   0.387   3.839   4.033
  288POPC   GL1 3940   0.393   4.137   4.362
  288POPC   GL2 3941   0.705   4.259   4.337
  288POPC   C1A 3942   0.557   4.069   4.804
  288POPC   D2A 3943   0.422   3.903   5.201
  288POPC   C3A 3944   0.460   4.100   5.601
  288POPC   C4A 3945   0.269   4.510   5.660
  288POPC   C1B 3946   0.705   4.538   4.694
  288POPC   C2B 3947   0.838   4.391   5.102
  288POPC   C3B 3948   0.798   4.505   5.529
  288POPC   C4B 3949   0.684   4.438   5.967
  289POPC   NC3 3950   1.973   8.654   3.630
  289POPC   PO4 3951   2.215   9.232   3.724
  289POPC   GL1 3952   2.119   9.122   4.171
  289POPC   GL2 3953   2.043   8.754   4.277
  289POPC   C1A 3954   2.167   9.136   4.646
  289POPC   D2A 3955   1.910   9.151   5.051
  289POPC   C3A 3956   2.118   9.207   5.471
  289POPC   C4A 3957   2.218   8.888   5.767
  289POPC   C1B 3958   1.805   8.761   4.693
  289POPC   C2B 3959   1.612   8.572   5.050
  289POPC   C3B 3960   1.732   8.637   5.475
  289POPC   C4B 3961   1.652   9.031   5.652
  290POPC   NC3 3962   0.655   1.138   3.688
  290POPC   PO4 3963   0.188   1.541   3.965
  290POPC   GL1 3964   0.332   1.436   4.347
  290POPC   GL2 3965   0.566   1.191   4.217
  290POPC   C1A 3966   0.130   1.447   4.768
  290POPC   D2A 3967  11.452   1.687   5.119
  290POPC   C3A 3968   0.055   1.506   5.498
  290POPC   C4A 3969   0.414   1.486   5.775
  290POPC   C1B 3970   0.355   0.995   4.602
  290POPC   C2B 3971   0.268   0.926   5.046
  290POPC   C3B 3972   0.471   1.142   5.387
  290POPC   C4B 3973   0.764   1.106   5.731
  291POPC   NC3 3974   8.337   0.595   3.752
  291POPC   PO4 3975   8.102   0.024   3.947
  291POPC   GL1 3976   8.160   0.457   4.210
  291POPC   GL2 3977   7.914   0.704   4.389
  291POPC   C1A 3978   8.377   0.593   4.605
  291POPC   D2A 3979   8.373   0.418   5.057
  291POPC   C3A 3980   8.385   0.657   5.483
  291POPC   C4A 3981   8.200   0.643   5.931
  291POPC   C1B 3982   7.922   0.310   4.718
  291POPC   C2B 3983   7.929   0.152   5.199
  291POPC   C3B 3984   7.945   0.265   5.674
  291POPC   C4B 3985   7.828   0.166   6.147
  292POPC   NC3 3986   8.908   1.943   3.746
  292POPC   PO4 3987   9.236   1.518   4.138
  292POPC   GL1 3988   8.758   1.660   4.295
  292POPC   GL2 3989   8.663   2.013   4.174
  292POPC   C1A 3990   8.498   1.624   4.709
  292POPC   D2A 3991   8.599   1.823   5.130
  292POPC   C3A 3992   8.582   1.639   5.561
  292POPC   C4A 3993   8.585   1.774   5.994
  292POPC   C1B 3994   8.663   2.095   4.615
  292POPC   C2B 3995   8.590   2.320   5.011
  292POPC   C3B 3996   8.681   2.229   5.470
  292POPC   C4B 3997   9.104   2.081   5.634
  293POPC   NC3 3998   9.712  10.373   3.944
  293POPC   PO4 3999   9.182  10.109   4.049
  293POPC   GL1 4000   9.438  10.168   4.370
  293POPC   GL2 4001   9.638  10.454   4.428
  293POPC   C1A 4002   9.536  10.069   4.772
  293POPC   D2A 4003   9.450   9.849   5.125
  293POPC   C3A 4004   9.328  10.032   5.490
  293POPC   C4A 4005   9.704   9.909   5.692
  293POPC   C1B 4006   9.776  10.529   4.834
  293POPC   C2B 4007   9.499  10.451   5.179
  293POPC   C3B 4008   9.629  10.429   5.573
  293POPC   C4B 4009   9.962  10.683   5.682
  294POPC   NC3 4010   2.576   1.066   3.879
  294POPC   PO4 4011   1.950   0.776   3.914
  294POPC   GL1 4012   1.988   1.037   4.274
  294POPC   GL2 4013   2.001   1.410   4.263
  294POPC   C1A 4014   1.920   0.972   4.695
  294POPC   D2A 4015   1.830   1.001   5.108
  294POPC   C3A 4016   2.145   1.027   5.432
  294POPC   C4A 4017   2.102   1.058   5.846
  294POPC   C1B 4018   1.869   1.483   4.717
  294POPC   C2B 4019   2.098   1.595   5.124
  294POPC   C3B 4020   2.125   1.515   5.578
  294POPC   C4B 4021   1.776   1.425   5.862
  295POPC   NC3 4022   3.571   1.947   3.708
  295POPC   PO4 4023   3.881   2.480   3.942
  295POPC   GL1 4024   3.685   2.168   4.201
  295POPC   GL2 4025   3.358   2.046   4.247
  295POPC   C1A 4026   3.586   2.212   4.662
  295POPC   D2A 4027   3.585   1.905   4.982
  295POPC   C3A 4028   3.539   2.034   5.388
  295POPC   C4A 4029   3.761   1.990   5.761
  295POPC   C1B 4030   3.223   1.835   4.619
  295POPC   C2B 4031   3.062   1.795   5.031
  295POPC   C3B 4032   3.116   1.749   5.467
  295POPC   C4B 4033   3.258   1.961   5.820
  296POPC   NC3 4034   1.074   5.752   3.925
  296POPC   PO4 4035   1.630   5.376   3.858
  296POPC   GL1 4036   1.479   5.703   4.241
  296POPC   GL2 4037   1.129   5.816   4.403
  296POPC   C1A 4038   1.529   5.870   4.699
  296POPC   D2A 4039   1.287   5.870   5.115
  296POPC   C3A 4040   1.438   6.048   5.528
  296POPC   C4A 4041   1.324   6.073   5.991
  296POPC   C1B 4042   0.890   5.735   4.759
  296POPC   C2B 4043   0.751   5.767   5.158
  296POPC   C3B 4044   0.963   5.834   5.543
  296POPC   C4B 4045   1.114   5.607   5.908
  297POPC   NC3 4046   0.219   9.643   4.202
  297POPC   PO4 4047   0.828   9.735   3.896
  297POPC   GL1 4048   0.702   9.800   4.282
  297POPC   GL2 4049   0.683   9.438   4.349
  297POPC   C1A 4050   0.802   9.969   4.674
  297POPC   D2A 4051   0.615   9.976   5.060
  297POPC   C3A 4052   0.827   9.920   5.431
  297POPC   C4A 4053   0.718  10.063   5.844
  297POPC   C1B 4054   0.505   9.542   4.783
  297POPC   C2B 4055   0.316   9.607   5.220
  297POPC   C3B 4056   0.372   9.695   5.666
  297POPC   C4B 4057   0.454   9.524   6.078
  298POPC   NC3 4058   0.126   2.818   3.868
  298POPC   PO4 4059   0.627   2.309   3.995
  298POPC   GL1 4060   0.638   2.697   4.250
  298POPC   GL2 4061   0.315   2.894   4.319
  298POPC   C1A 4062   0.599   2.739   4.700
  298POPC   D2A 4063   0.621   2.975   5.053
  298POPC   C3A 4064   0.627   2.751   5.437
  298POPC   C4A 4065   0.537   2.704   5.872
  298POPC   C1B 4066   0.069   2.864   4.678
  298POPC   C2B 4067   0.123   2.925   5.126
  298POPC   C3B 4068   0.132   2.795   5.546
  298POPC   C4B 4069   0.128   2.390   5.721
  299POPC   NC3 4070   7.337   2.355   3.854
  299POPC   PO4 4071   7.673   2.783   4.096
  299POPC   GL1 4072   7.447   2.663   4.446
  299POPC   GL2 4073   7.143   2.467   4.329
  299POPC   C1A 4074   7.493   2.747   4.896
  299POPC   D2A 4075   7.643   2.634   5.298
  299POPC   C3A 4076   7.402   2.742   5.652
  299POPC   C4A 4077   7.162   3.106   5.809
  299POPC   C1B 4078   7.156   2.371   4.785
  299POPC   C2B 4079   7.116   2.549   5.212
  299POPC   C3B 4080   6.897   2.726   5.569
  299POPC   C4B 4081   6.998   2.647   5.998
  300POPC   NC3 4082   1.333  10.361   3.856
  300POPC   PO4 4083   0.612  10.454   3.582
  300POPC   GL1 4084   0.721  10.392   4.115
  300POPC   GL2 4085   1.006  10.247   4.223
  300POPC   C1A 4086   0.843  10.500   4.622
  300POPC   D2A 4087   0.963  10.342   5.069
  300POPC   C3A 4088   1.009  10.403   5.553
  300POPC   C4A 4089   1.094  10.571   6.022
  300POPC   C1B 4090   1.352  10.447   4.498
  300POPC   C2B 4091   1.475  10.393   4.935
  300POPC   C3B 4092   1.488  10.527   5.359
  300POPC   C4B 4093   1.473  10.372   5.773
  301POPC   NC3 4094   8.858   1.397   3.874
  301POPC   PO4 4095   8.777   0.729   3.729
  301POPC   GL1 4096   8.745   0.752   4.215
  301POPC   GL2 4097   8.885   1.080   4.258
  301POPC   C1A 4098   8.852   0.829   4.695
  301POPC   D2A 4099   9.143   0.981   5.024
  301POPC   C3A 4100   8.958   1.055   5.471
  301POPC   C4A 4101   9.130   1.056   5.908
  301POPC   C1B 4102   8.907   1.322   4.646
  301POPC   C2B 4103   8.840   1.383   5.051
  301POPC   C3B 4104   9.072   1.581   5.352
  301POPC   C4B 4105   9.093   1.587   5.786
  302POPC   NC3 4106   0.065   1.042   3.992
  302POPC   PO4 4107  10.945   0.873   3.941
  302POPC   GL1 4108  11.163   1.070   4.324
  302POPC   GL2 4109  11.308   1.423   4.344
  302POPC   C1A 4110  11.333   0.997   4.754
  302POPC   D2A 4111  11.208   0.864   5.187
  302POPC   C3A 4112  11.481   0.996   5.503
  302POPC   C4A 4113  11.470   0.886   5.923
  302POPC   C1B 4114  11.093   1.487   4.773
  302POPC   C2B 4115  11.062   1.354   5.220
  302POPC   C3B 4116  11.033   1.193   5.644
  302POPC   C4B 4117  10.896   1.418   6.036
  303POPC   NC3 4118   2.114   8.037   3.921
  303POPC   PO4 4119   1.497   7.716   3.848
  303POPC   GL1 4120   1.741   7.863   4.222
  303POPC   GL2 4121   1.884   8.219   4.358
  303POPC   C1A 4122   1.873   7.807   4.636
  303POPC   D2A 4123   1.717   7.922   5.029
  303POPC   C3A 4124   1.855   8.020   5.417
  303POPC   C4A 4125   1.707   7.683   5.686
  303POPC   C1B 4126   2.005   8.290   4.784
  303POPC   C2B 4127   2.138   8.548   5.146
  303POPC   C3B 4128   2.178   8.411   5.579
  303POPC   C4B 4129   2.018   8.106   5.891
  304POPC   NC3 4130   0.561   5.469   3.488
  304POPC   PO4 4131   0.619   5.799   4.024
  304POPC   GL1 4132   0.588   5.593   4.361
  304POPC   GL2 4133   0.225   5.716   4.340
  304POPC   C1A 4134   0.366   5.449   4.727
  304POPC   D2A 4135   0.231   5.630   5.091
  304POPC   C3A 4136   0.280   5.438   5.484
  304POPC   C4A 4137   0.434   5.675   5.837
  304POPC   C1B 4138   0.439   5.963   4.681
  304POPC   C2B 4139   0.366   6.120   5.052
  304POPC   C3B 4140   0.424   6.018   5.461
  304POPC   C4B 4141   0.244   6.134   5.827
  305POPC   NC3 4142  10.372   6.426   3.839
  305POPC   PO4 4143  10.058   6.903   4.139
  305POPC   GL1 4144  10.305   6.546   4.336
  305POPC   GL2 4145  10.671   6.534   4.382
  305POPC   C1A 4146  10.346   6.337   4.740
  305POPC   D2A 4147  10.152   6.463   5.120
  305POPC   C3A 4148  10.265   6.375   5.538
  305POPC   C4A 4149  10.315   6.633   5.882
  305POPC   C1B 4150  10.743   6.635   4.815
  305POPC   C2B 4151  10.662   6.546   5.250
  305POPC   C3B 4152  10.769   6.642   5.682
  305POPC   C4B 4153  10.725   6.571   6.153
  306POPC   NC3 4154   9.286  10.972   3.960
  306POPC   PO4 4155   9.980  10.747   4.018
  306POPC   GL1 4156   9.647  10.950   4.337
  306POPC   GL2 4157   9.521  11.297   4.288
  306POPC   C1A 4158   9.486  10.924   4.811
  306POPC   D2A 4159   9.676  10.971   5.227
  306POPC   C3A 4160   9.498  10.907   5.636
  306POPC   C4A 4161   9.373  10.696   6.034
  306POPC   C1B 4162   9.716  11.352   4.692
  306POPC   C2B 4163   9.526  11.478   5.086
  306POPC   C3B 4164   9.644  11.400   5.510
  306POPC   C4B 4165  10.025  11.170   5.648
  307POPC   NC3 4166   7.400   9.119   3.955
  307POPC   PO4 4167   7.687   8.548   3.888
  307POPC   GL1 4168   7.499   8.759   4.286
  307POPC   GL2 4169   7.156   8.880   4.353
  307POPC   C1A 4170   7.540   9.052   4.684
  307POPC   D2A 4171   7.467   8.953   5.126
  307POPC   C3A 4172   7.744   8.944   5.466
  307POPC   C4A 4173   7.754   8.872   5.885
  307POPC   C1B 4174   7.047   8.994   4.798
  307POPC   C2B 4175   7.066   9.225   5.226
  307POPC   C3B 4176   7.131   8.950   5.583
  307POPC   C4B 4177   6.930   8.807   5.985
  308POPC   NC3 4178   9.647   4.989   3.952
  308POPC   PO4 4179   9.144   4.540   4.053
  308POPC   GL1 4180   9.399   4.629   4.422
  308POPC   GL2 4181   9.584   4.961   4.443
  308POPC   C1A 4182   9.446   4.708   4.873
  308POPC   D2A 4183   9.455   4.960   5.246
  308POPC   C3A 4184   9.486   4.743   5.642
  308POPC   C4A 4185   9.140   4.753   5.958
  308POPC   C1B 4186   9.886   4.968   4.769
  308POPC   C2B 4187   9.906   5.172   5.157
  308POPC   C3B 4188   9.774   5.188   5.601
  308POPC   C4B 4189   9.912   5.281   6.031
  309POPC   NC3 4190  11.208   9.444   3.871
  309POPC   PO4 4191   0.260   9.217   4.039
  309POPC   GL1 4192  11.436   9.294   4.403
  309POPC   GL2 4193  11.213   9.596   4.365
  309POPC   C1A 4194  11.469   9.546   4.802
  309POPC   D2A 4195  11.247   9.668   5.151
  309POPC   C3A 4196  11.379   9.548   5.542
  309POPC   C4A 4197   0.032   9.201   5.768
  309POPC   C1B 4198  10.933   9.626   4.720
  309POPC   C2B 4199  10.732   9.562   5.095
  309POPC   C3B 4200  10.863   9.611   5.500
  309POPC   C4B 4201  10.997   9.694   5.921
  310POPC   NC3 4202   9.754   3.309   3.626
  310POPC   PO4 4203   9.790   3.890   3.981
  310POPC   GL1 4204   9.551   3.730   4.312
  310POPC   GL2 4205   9.642   3.373   4.360
  310POPC   C1A 4206   9.676   3.755   4.752
  310POPC   D2A 4207   9.849   3.988   5.108
  310POPC   C3A 4208   9.900   3.761   5.503
  310POPC   C4A 4209   9.785   3.681   5.938
  310POPC   C1B 4210   9.705   3.238   4.788
  310POPC   C2B 4211   9.588   3.467   5.181
  310POPC   C3B 4212   9.531   3.381   5.635
  310POPC   C4B 4213   9.741   3.145   5.979
  311POPC   NC3 4214   3.141   0.278   3.636
  311POPC   PO4 4215   3.690   0.232   3.911
  311POPC   GL1 4216   3.460   0.403   4.306
  311POPC   GL2 4217   3.686   0.675   4.406
  311POPC   C1A 4218   3.301   0.408   4.760
  311POPC   D2A 4219   3.033   0.456   5.164
  311POPC   C3A 4220   3.260   0.349   5.548
  311POPC   C4A 4221   3.633   0.052   5.572
  311POPC   C1B 4222   3.791   0.541   4.819
  311POPC   C2B 4223   3.656   0.450   5.227
  311POPC   C3B 4224   3.736   0.565   5.672
  311POPC   C4B 4225   3.783   0.740   6.118
  312POPC   NC3 4226   4.402  10.900   3.966
  312POPC   PO4 4227   4.357  10.215   3.739
  312POPC   GL1 4228   4.072  10.255   4.118
  312POPC   GL2 4229   4.263  10.501   4.243
  312POPC   C1A 4230   4.019  10.230   4.604
  312POPC   D2A 4231   3.943  10.256   5.077
  312POPC   C3A 4232   4.268  10.176   5.425
  312POPC   C4A 4233   4.210  10.062   5.903
  312POPC   C1B 4234   4.407  10.627   4.625
  312POPC   C2B 4235   4.358  10.551   5.034
  312POPC   C3B 4236   4.337  10.709   5.437
  312POPC   C4B 4237   4.329  10.527   5.807
  313POPC   NC3 4238   0.028   1.915   3.726
  313POPC   PO4 4239  10.864   2.013   3.798
  313POPC   GL1 4240  11.018   2.116   4.236
  313POPC   GL2 4241  11.370   2.021   4.212
  313POPC   C1A 4242  10.882   2.063   4.711
  313POPC   D2A 4243  10.897   1.849   5.141
  313POPC   C3A 4244  10.757   2.067   5.530
  313POPC   C4A 4245  10.960   2.261   5.897
  313POPC   C1B 4246  11.386   1.950   4.659
  313POPC   C2B 4247  11.298   2.169   5.061
  313POPC   C3B 4248  11.269   2.058   5.490
  313POPC   C4B 4249  11.089   1.698   5.654
  314POPC   NC3 4250  11.043   4.980   3.996
  314POPC   PO4 4251   0.079   5.426   3.823
  314POPC   GL1 4252  11.433   5.243   4.230
  314POPC   GL2 4253  11.104   5.366   4.363
  314POPC   C1A 4254  11.415   4.976   4.627
  314POPC   D2A 4255   0.111   5.111   5.061
  314POPC   C3A 4256  11.492   4.910   5.463
  314POPC   C4A 4257  11.460   4.986   5.918
  314POPC   C1B 4258  11.355   5.465   4.742
  314POPC   C2B 4259  11.259   5.470   5.201
  314POPC   C3B 4260  11.196   5.330   5.643
  314POPC   C4B 4261  10.918   5.080   5.936
  315POPC   NC3 4262  11.116  10.423   4.032
  315POPC   PO4 4263   0.029  10.888   3.933
  315POPC   GL1 4264  11.426  10.775   4.352
  315POPC   GL2 4265  11.378  10.411   4.459
  315POPC   C1A 4266  11.432  10.761   4.812
  315POPC   D2A 4267  11.312  10.916   5.214
  315POPC   C3A 4268   0.037  10.668   5.563
  315POPC   C4A 4269  11.340  10.504   5.923
  315POPC   C1B 4270  11.226  10.048   4.693
  315POPC   C2B 4271  10.920  10.041   5.046
  315POPC   C3B 4272  11.077  10.063   5.484
  315POPC   C4B 4273  11.442  10.027   5.737
  316POPC   NC3 4274   6.316  10.355   3.918
  316POPC   PO4 4275   6.837   9.967   3.901
  316POPC   GL1 4276   6.740  10.263   4.285
  316POPC   GL2 4277   6.453  10.513   4.364
  316POPC   C1A 4278   6.722  10.340   4.759
  316POPC   D2A 4279   6.734  10.577   5.162
  316POPC   C3A 4280   6.691  10.354   5.540
  316POPC   C4A 4281   6.719  10.429   5.976
  316POPC   C1B 4282   6.226  10.484   4.739
  316POPC   C2B 4283   6.282  10.292   5.122
  316POPC   C3B 4284   6.183  10.433   5.536
  316POPC   C4B 4285   6.313  10.132   5.840
  317POPC   NC3 4286   5.695   9.834   3.814
  317POPC   PO4 4287   5.490   9.261   4.033
  317POPC   GL1 4288   5.717   9.594   4.266
  317POPC   GL2 4289   5.574   9.919   4.320
  317POPC   C1A 4290   5.960   9.701   4.633
  317POPC   D2A 4291   5.886   9.778   5.086
  317POPC   C3A 4292   5.854   9.403   5.351
  317POPC   C4A 4293   5.642   9.215   5.739
  317POPC   C1B 4294   5.456   9.817   4.762
  317POPC   C2B 4295   5.410   9.937   5.198
  317POPC   C3B 4296   5.475   9.685   5.565
  317POPC   C4B 4297   5.871   9.675   5.772
  318POPC   NC3 4298   2.628   3.401   3.916
  318POPC   PO4 4299   2.573   4.009   3.866
  318POPC   GL1 4300   2.620   3.694   4.329
  318POPC   GL2 4301   2.682   3.308   4.394
  318POPC   C1A 4302   2.372   3.510   4.734
  318POPC   D2A 4303   2.260   3.676   5.135
  318POPC   C3A 4304   2.436   3.505   5.470
  318POPC   C4A 4305   2.633   3.472   5.885
  318POPC   C1B 4306   2.888   3.507   4.742
  318POPC   C2B 4307   3.059   3.328   5.111
  318POPC   C3B 4308   2.983   3.297   5.554
  318POPC   C4B 4309   3.096   3.661   5.831
  319POPC   NC3 4310  11.019   2.448   3.811
  319POPC   PO4 4311  11.232   3.103   3.862
  319POPC   GL1 4312  11.298   2.974   4.240
  319POPC   GL2 4313  11.283   2.632   4.209
  319POPC   C1A 4314  11.038   2.933   4.573
  319POPC   D2A 4315  10.722   3.082   4.863
  319POPC   C3A 4316  10.862   2.953   5.256
  319POPC   C4A 4317  10.956   3.068   5.663
  319POPC   C1B 4318  11.228   2.449   4.586
  319POPC   C2B 4319  11.199   2.660   4.981
  319POPC   C3B 4320  11.208   2.564   5.404
  319POPC   C4B 4321  11.214   2.683   5.823
  320POPC   NC3 4322   9.390   4.144   3.982
  320POPC   PO4 4323   9.965   4.577   3.866
  320POPC   GL1 4324   9.886   4.534   4.315
  320POPC   GL2 4325   9.742   4.215   4.377
  320POPC   C1A 4326   9.936   4.459   4.791
  320POPC   D2A 4327   9.857   4.636   5.200
  320POPC   C3A 4328   9.800   4.340   5.497
  320POPC   C4A 4329   9.654   4.299   5.858
  320POPC   C1B 4330   9.501   4.217   4.750
  320POPC   C2B 4331   9.428   4.285   5.175
  320POPC   C3B 4332   9.415   3.978   5.514
  320POPC   C4B 4333   9.341   3.908   5.960
  321POPC   NC3 4334   7.259  10.082   3.728
  321POPC   PO4 4335   7.087   9.454   3.978
  321POPC   GL1 4336   7.175   9.392   4.383
  321POPC   GL2 4337   7.524   9.467   4.332
  321POPC   C1A 4338   7.238   9.464   4.820
  321POPC   D2A 4339   7.597   9.431   5.125
  321POPC   C3A 4340   7.458   9.360   5.560
  321POPC   C4A 4341   7.027   9.442   5.702
  321POPC   C1B 4342   7.640   9.710   4.683
  321POPC   C2B 4343   7.416   9.918   4.993
  321POPC   C3B 4344   7.212   9.747   5.320
  321POPC   C4B 4345   7.215   9.998   5.684
  322POPC   NC3 4346  10.359  10.451   3.979
  322POPC   PO4 4347  10.914  10.668   4.364
  322POPC   GL1 4348  10.516  10.470   4.496
  322POPC   GL2 4349  10.158  10.542   4.447
  322POPC   C1A 4350  10.367  10.408   4.926
  322POPC   D2A 4351  10.538  10.253   5.313
  322POPC   C3A 4352  10.812  10.483   5.612
  322POPC   C4A 4353  11.061  10.842   5.648
  322POPC   C1B 4354  10.041  10.141   4.638
  322POPC   C2B 4355   9.917  10.129   5.113
  322POPC   C3B 4356  10.087  10.193   5.522
  322POPC   C4B 4357  10.362  10.394   5.824
  323POPC   NC3 4358   2.395  10.137   4.115
  323POPC   PO4 4359   1.764  10.180   3.829
  323POPC   GL1 4360   1.788  10.482   4.187
  323POPC   GL2 4361   2.011  10.283   4.395
  323POPC   C1A 4362   1.829  10.671   4.646
  323POPC   D2A 4363   2.005  10.409   5.001
  323POPC   C3A 4364   2.155  10.503   5.412
  323POPC   C4A 4365   1.905  10.653   5.716
  323POPC   C1B 4366   1.803  10.053   4.697
  323POPC   C2B 4367   1.755   9.939   5.118
  323POPC   C3B 4368   1.832  10.137   5.504
  323POPC   C4B 4369   2.157  10.195   5.839
  324POPC   NC3 4370   2.655   9.348   3.861
  324POPC   PO4 4371   2.753  10.035   3.846
  324POPC   GL1 4372   2.774   9.978   4.419
  324POPC   GL2 4373   2.984   9.669   4.448
  324POPC   C1A 4374   2.683   9.772   4.850
  324POPC   D2A 4375   2.807   9.444   5.192
  324POPC   C3A 4376   2.548   9.541   5.549
  324POPC   C4A 4377   2.522   9.845   5.851
  324POPC   C1B 4378   3.159   9.941   4.805
  324POPC   C2B 4379   3.025   9.903   5.249
  324POPC   C3B 4380   2.986   9.753   5.675
  324POPC   C4B 4381   2.989   9.866   6.132
  325POPC   NC3 4382  10.282   8.663   3.819
  325POPC   PO4 4383  10.793   9.184   3.787
  325POPC   GL1 4384  10.575   8.951   4.187
  325POPC   GL2 4385  10.198   8.859   4.276
  325POPC   C1A 4386  10.715   8.732   4.579
  325POPC   D2A 4387  10.852   8.544   4.965
  325POPC   C3A 4388  10.802   8.769   5.329
  325POPC   C4A 4389  10.635   8.824   5.710
  325POPC   C1B 4390  10.281   8.987   4.695
  325POPC   C2B 4391  10.335   8.827   5.118
  325POPC   C3B 4392  10.075   8.965   5.465
  325POPC   C4B 4393  10.216   9.066   5.862
  326POPC   NC3 4394  10.159   4.134   3.872
  326POPC   PO4 4395  10.719   4.588   3.917
  326POPC   GL1 4396  10.606   4.247   4.191
  326POPC   GL2 4397  10.280   4.203   4.345
  326POPC   C1A 4398  10.717   4.075   4.604
  326POPC   D2A 4399  10.941   4.128   4.990
  326POPC   C3A 4400  10.770   4.038   5.380
  326POPC   C4A 4401  10.687   4.281   5.733
  326POPC   C1B 4402  10.197   4.011   4.713
  326POPC   C2B 4403  10.340   4.218   5.073
  326POPC   C3B 4404  10.288   4.396   5.463
  326POPC   C4B 4405  10.142   4.118   5.811
  327POPC   NC3 4406   2.557   8.831   4.155
  327POPC   PO4 4407   3.072   9.144   3.774
  327POPC   GL1 4408   2.974   9.165   4.292
  327POPC   GL2 4409   2.899   8.857   4.532
  327POPC   C1A 4410   2.696   9.261   4.720
  327POPC   D2A 4411   2.458   9.041   5.105
  327POPC   C3A 4412   2.654   9.063   5.542
  327POPC   C4A 4413   3.052   9.246   5.643
  327POPC   C1B 4414   2.996   8.590   4.871
  327POPC   C2B 4415   2.827   8.680   5.258
  327POPC   C3B 4416   2.687   8.573   5.656
  327POPC   C4B 4417   3.049   8.686   5.893
  328POPC   NC3 4418   0.694   2.663   3.718
  328POPC   PO4 4419   1.396   2.655   3.924
  328POPC   GL1 4420   1.127   2.457   4.231
  328POPC   GL2 4421   1.462   2.373   4.415
  328POPC   C1A 4422   1.020   2.402   4.668
  328POPC   D2A 4423   1.040   2.706   4.978
  328POPC   C3A 4424   1.085   2.944   5.322
  328POPC   C4A 4425   1.049   2.752   5.745
  328POPC   C1B 4426   1.361   2.786   4.578
  328POPC   C2B 4427   1.454   3.015   4.908
  328POPC   C3B 4428   1.669   2.943   5.248
  328POPC   C4B 4429   1.465   3.085   5.616
  329POPC   NC3 4430   5.366   2.230   4.006
  329POPC   PO4 4431   6.002   1.961   3.954
  329POPC   GL1 4432   5.909   1.772   4.342
  329POPC   GL2 4433   5.590   1.928   4.371
  329POPC   C1A 4434   5.816   1.679   4.787
  329POPC   D2A 4435   5.887   1.921   5.137
  329POPC   C3A 4436   6.071   1.798   5.515
  329POPC   C4A 4437   6.089   2.175   5.746
  329POPC   C1B 4438   5.337   1.858   4.754
  329POPC   C2B 4439   5.395   1.820   5.202
  329POPC   C3B 4440   5.577   1.948   5.589
  329POPC   C4B 4441   5.694   1.651   5.877
  330POPC   NC3 4442  10.243   9.308   4.038
  330POPC   PO4 4443  10.099   9.904   3.766
  330POPC   GL1 4444  10.273   9.778   4.241
  330POPC   GL2 4445  10.657   9.672   4.243
  330POPC   C1A 4446  10.401   9.496   4.656
  330POPC   D2A 4447  10.263   9.343   5.081
  330POPC   C3A 4448  10.508   9.252   5.454
  330POPC   C4A 4449  10.508   9.488   5.860
  330POPC   C1B 4450  10.567   9.976   4.618
  330POPC   C2B 4451  10.337   9.877   4.998
  330POPC   C3B 4452  10.369   9.767   5.424
  330POPC   C4B 4453  10.617   9.980   5.723
  331POPC   NC3 4454   2.507  10.296   3.582
  331POPC   PO4 4455   3.141  10.425   3.913
  331POPC   GL1 4456   2.961  10.455   4.311
  331POPC   GL2 4457   2.648  10.473   4.400
  331POPC   C1A 4458   2.970  10.414   4.776
  331POPC   D2A 4459   3.000  10.412   5.212
  331POPC   C3A 4460   2.702  10.219   5.501
  331POPC   C4A 4461   2.874  10.267   5.862
  331POPC   C1B 4462   2.447  10.240   4.730
  331POPC   C2B 4463   2.516  10.407   5.075
  331POPC   C3B 4464   2.597  10.751   5.344
  331POPC   C4B 4465   2.517  10.647   5.774
  332POPC   NC3 4466   8.785   8.213   3.912
  332POPC   PO4 4467   9.240   7.838   3.665
  332POPC   GL1 4468   9.129   7.948   4.189
  332POPC   GL2 4469   9.110   8.310   4.317
  332POPC   C1A 4470   9.325   7.938   4.639
  332POPC   D2A 4471   9.198   7.885   5.096
  332POPC   C3A 4472   9.034   7.923   5.518
  332POPC   C4A 4473   9.192   7.719   5.861
  332POPC   C1B 4474   8.876   8.149   4.717
  332POPC   C2B 4475   8.706   8.062   5.153
  332POPC   C3B 4476   8.562   8.184   5.604
  332POPC   C4B 4477   8.479   8.323   6.063
  333POPC   NC3 4478   2.813   4.386   3.923
  333POPC   PO4 4479   3.274   4.616   4.240
  333POPC   GL1 4480   2.768   4.573   4.386
  333POPC   GL2 4481   2.555   4.236   4.353
  333POPC   C1A 4482   2.538   4.503   4.789
  333POPC   D2A 4483   2.715   4.319   5.188
  333POPC   C3A 4484   2.575   4.514   5.571
  333POPC   C4A 4485   2.676   4.742   5.949
  333POPC   C1B 4486   2.572   3.983   4.767
  333POPC   C2B 4487   2.746   3.803   5.173
  333POPC   C3B 4488   2.669   3.945   5.619
  333POPC   C4B 4489   2.850   4.209   5.944
  334POPC   NC3 4490   8.923   9.757   3.925
  334POPC   PO4 4491   8.430   9.403   4.211
  334POPC   GL1 4492   8.784   9.515   4.387
  334POPC   GL2 4493   8.809   9.873   4.391
  334POPC   C1A 4494   8.717   9.566   4.817
  334POPC   D2A 4495   8.751   9.489   5.227
  334POPC   C3A 4496   8.514   9.453   5.571
  334POPC   C4A 4497   8.804   9.467   5.904
  334POPC   C1B 4498   8.900  10.063   4.764
  334POPC   C2B 4499   8.957   9.938   5.141
  334POPC   C3B 4500   8.827   9.867   5.546
  334POPC   C4B 4501   8.961   9.940   5.941
  335POPC   NC3 4502   0.288   7.066   3.977
  335POPC   PO4 4503   0.042   7.626   3.842
  335POPC   GL1 4504   0.155   7.578   4.257
  335POPC   GL2 4505   0.486   7.497   4.243
  335POPC   C1A 4506   0.311   7.573   4.699
  335POPC   D2A 4507   0.308   7.340   5.059
  335POPC   C3A 4508   0.343   7.541   5.456
  335POPC   C4A 4509   0.190   7.346   5.848
  335POPC   C1B 4510   0.559   7.127   4.560
  335POPC   C2B 4511   0.661   6.955   4.974
  335POPC   C3B 4512   0.716   7.190   5.370
  335POPC   C4B 4513   0.711   7.381   5.808
  336POPC   NC3 4514   4.420   1.481   3.438
  336POPC   PO4 4515   4.490   1.474   4.084
  336POPC   GL1 4516   4.462   1.408   4.476
  336POPC   GL2 4517   4.299   1.097   4.463
  336POPC   C1A 4518   4.620   1.275   4.868
  336POPC   D2A 4519   4.496   0.984   5.209
  336POPC   C3A 4520   4.429   1.221   5.592
  336POPC   C4A 4521   4.433   1.421   5.994
  336POPC   C1B 4522   3.921   1.033   4.738
  336POPC   C2B 4523   3.834   0.952   5.193
  336POPC   C3B 4524   3.941   1.134   5.593
  336POPC   C4B 4525   3.938   1.259   6.022
  337POPC   NC3 4526   2.799   0.101   4.019
  337POPC   PO4 4527   2.933   0.702   3.746
  337POPC   GL1 4528   2.959   0.609   4.260
  337POPC   GL2 4529   2.925   0.266   4.468
  337POPC   C1A 4530   2.875   0.706   4.736
  337POPC   D2A 4531   2.650   0.792   5.156
  337POPC   C3A 4532   2.871   0.754   5.588
  337POPC   C4A 4533   2.787   0.556   6.019
  337POPC   C1B 4534   2.562   0.307   4.779
  337POPC   C2B 4535   2.508   0.309   5.240
  337POPC   C3B 4536   2.730   0.228   5.621
  337POPC   C4B 4537   2.594  11.491   5.988
  338W        W 4538   4.570   7.148   1.910
  339W        W 4539   5.150   6.016   0.000
  340W        W 4540   7.843   4.661  10.371
  341W        W 4541  10.027   0.235  10.594
  342W        W 4542   0.146   4.687   3.513
  343W        W 4543   7.478   3.854  10.484
  344W        W 4544  10.861   8.800  11.756
  345W        W 4545   8.574   3.205   8.911
  346W        W 4546   1.429   0.909   0.905
  347W        W 4547   1.256   6.505  10.839
  348W        W 4548   4.362   9.016   2.213
  349W        W 4549   7.646   6.548   2.736
  350W        W 4550  11.356   1.008   2.127
  351W        W 4551  10.033   2.850   3.675
  352W        W 4552   0.421   0.004   3.293
  353W        W 4553   2.236  10.429  10.439
  354W        W 4554  10.715   5.802  11.464
  355W        W 4555   3.826   7.644   0.885
  356W        W 4556  11.499   8.168  11.808
  357W        W 4557  11.105   7.995   2.197
  358W        W 4558   5.986   3.641   7.952
  359W        W 4559   5.988   4.084   3.944
  360W        W 4560   2.538   3.023   0.103
  361W        W 4561   9.180   5.299   2.910
  362W        W 4562   2.420  10.311   0.440
  363W        W 4563   2.544  10.829   3.525
  364W        W 4564   4.631   0.369   0.473
  365W        W 4565   6.198   0.363   2.759
  366W        W 4566   2.367   5.767   0.959
  367W        W 4567   9.310  11.142  10.311
  368W        W 4568   7.265   6.152  10.506
  369W        W 4569   5.804   6.830  11.565
  370W        W 4570  11.287  10.566  11.307
  371W        W 4571   2.195  10.909   3.170
  372W        W 4572   7.954   8.420   1.831
  373W        W 4573   7.016   4.736   1.433
  374W        W 4574   0.897   1.413  10.446
  375W        W 4575   5.651   0.498   0.021
  376W        W 4576  10.451   2.779   3.154
  377W        W 4577   2.609   8.882   3.662
  378W        W 4578   3.273   8.578   0.823
  379W        W 4579   5.248   2.425  10.769
  380W        W 4580   2.706   2.567   9.888
  381W        W 4581   2.645   4.712   3.369
  382W        W 4582   3.852   8.921   2.941
  383W        W 4583   6.080   0.495   9.307
  384W        W 4584   6.755   6.479   1.993
  385W        W 4585   5.843   4.137   8.152
  386W        W 4586   0.612   2.467  11.835
  387W        W 4587   1.746   5.374  10.377
  388W        W 4588   0.577   2.806   0.695
  389W        W 4589   3.240   1.514   0.032
  390W        W 4590   6.600   1.001   0.882
  391W        W 4591   6.077   7.406  10.286
  392W        W 4592   4.419   8.908   0.727
  393W        W 4593   2.654   4.130   9.787
  394W        W 4594   3.696   4.749  11.659
  395W        W 4595  10.776   6.740  11.083
  396W        W 4596   0.886  10.501   2.761
  397W        W 4597   9.559   0.308   1.956
  398W        W 4598   8.924   2.463  10.960
  399W        W 4599   9.176   8.956   3.024
  400W        W 4600   9.144  10.827   9.954
  401W        W 4601   8.990  11.302   1.678
  402W        W 4602   9.049   9.540   9.907
  403W        W 4603   5.228   9.255   1.306
  404W        W 4604   9.360  10.411  11.444
  405W        W 4605   7.672   5.233   0.734
  406W        W 4606   1.496   2.802   1.470
  407W        W 4607   3.859   4.642   2.746
  408W        W 4608   5.685  10.341  11.322
  409W        W 4609  10.479   3.272   9.040
  410W        W 4610   9.837  10.570  11.437
  411W        W 4611   4.254   1.767  10.592
  412W        W 4612   3.185   8.196   9.574
  413W        W 4613  10.509   4.638   1.461
  414W        W 4614   1.080   8.393   8.846
  415W        W 4615  11.362   4.365   0.552
  416W        W 4616  10.445   7.407   1.668
  417W        W 4617   6.564   7.581  11.452
  418W        W 4618   5.528   6.168   0.310
  419W        W 4619   4.211   2.817   0.452
  420W        W 4620   4.714   6.228   0.155
  421W        W 4621   8.047   9.979  10.881
  422W        W 4622   9.464  11.298   1.902
  423W        W 4623   4.310   0.163   9.738
  424W        W 4624   7.090   4.299   0.085
  425W        W 4625   9.142   7.293   3.440
  426W        W 4626   9.464   4.238  11.526
  427W        W 4627   5.422   3.565   9.129
  428W        W 4628  10.611   8.862   0.369
  429W        W 4629   5.670  11.245   2.222
  430W        W 4630   5.675   4.483   2.951
  431W        W 4631   5.113  11.483  10.601
  432W        W 4632   5.762   3.269  10.302
  433W        W 4633  10.937   8.057  11.113
  434W        W 4634   1.831   3.203   3.103
  435W        W 4635  11.221   0.397  10.804
  436W        W 4636   5.992  10.065  11.713
  437W        W 4637   3.609   5.187   8.128
  438W        W 4638   4.743   8.896   8.151
  439W        W 4639   2.239  10.240   9.872
  440W        W 4640   1.764   9.810   0.022
  441W        W 4641   6.973   2.671   1.619
  442W        W 4642  10.040   2.373  10.857
  443W        W 4643   0.346   0.411   9.030
  444W        W 4644   6.464   0.174  11.028
  445W        W 4645   6.484   3.819   9.849
  446W        W 4646   0.940   6.279   3.930
  447W        W 4647   9.292   9.398   8.921
  448W        W 4648   5.237   7.346   1.687
  449W        W 4649  10.228   7.666   0.844
  450W        W 4650   9.128   5.041  11.945
  451W        W 4651   4.984  10.541  10.644
  452W        W 4652   1.357   3.407  10.632
  453W        W 4653   2.697   4.034  11.954
  454W        W 4654   4.470   0.348   8.817
  455W        W 4655   4.738   3.153   2.759
  456W        W 4656   4.055   4.276  11.418
  457W        W 4657   2.622  10.307   0.917
  458W        W 4658  10.800   1.788  10.938
  459W        W 4659   7.024   9.666   3.508
  460W        W 4660  10.900   0.921   0.251
  461W        W 4661   9.840   1.242   9.797
  462W        W 4662   8.439   9.148   8.960
  463W        W 4663   2.474   5.363   1.665
  464W        W 4664   7.771   3.839   4.051
  465W        W 4665   1.112   6.604   8.389
  466W        W 4666   7.395   7.510  10.727
  467W        W 4667   2.162   6.512   3.269
  468W        W 4668   8.783   9.467   1.807
  469W        W 4669   9.509   0.594   9.805
  470W        W 4670   8.134   4.639  10.782
  471W        W 4671   2.116   2.305   0.241
  472W        W 4672  11.167   4.955  11.125
  473W        W 4673   8.377   5.592   0.332
  474W        W 4674   1.358   3.387  11.624
  475W        W 4675   2.350   3.746  10.012
  476W        W 4676   6.222   1.041   9.900
  477W        W 4677   6.567   6.906   2.215
  478W        W 4678  11.049  11.300   2.199
  479W        W 4679   3.507   6.193   1.741
  480W        W 4680   4.672   2.215  11.293
  481W        W 4681   9.508   0.318  11.371
  482W        W 4682   9.440   9.130  10.278
  483W        W 4683  10.435   8.682  11.452
  484W        W 4684   6.025   6.914   0.841
  485W        W 4685   2.475   8.203   9.085
  486W        W 4686   2.897  10.480   3.316
  487W        W 4687   5.749   3.648  11.373
  488W        W 4688   9.647   7.206   9.500
  489W        W 4689  10.567   7.021  11.896
  490W        W 4690   3.304   6.951  11.450
  491W        W 4691  11.303  11.135   0.068
  492W        W 4692   2.741   4.542   0.067
  493W        W 4693   6.561   4.073   9.386
  494W        W 4694   3.995   8.293   3.479
  495W        W 4695   1.235   9.938  10.751
  496W        W 4696   7.635  11.061   1.665
  497W        W 4697  10.005   3.756  11.622
  498W        W 4698  11.116   5.468  10.865
  499W        W 4699   7.215   3.996   2.466
  500W        W 4700   1.857   6.123  11.346
  501W        W 4701   9.749   9.027   0.894
  502W        W 4702   8.442   1.627  10.844
  503W        W 4703   9.600  11.229   2.770
  504W        W 4704   1.366   1.751   0.692
  505W        W 4705   4.340   9.102   1.191
  506W        W 4706   0.334   4.741  11.703
  507W        W 4707   0.590   4.215   0.721
  508W        W 4708  10.498  10.228   0.678
  509W        W 4709   0.809   0.337  11.819
  510W        W 4710   8.457   5.446   3.742
  511W        W 4711   0.839  10.767   9.870
  512W        W 4712   4.678   0.875   2.167
  513W        W 4713   3.597   8.569  11.732
  514W        W 4714   3.415   8.032   3.070
  515W        W 4715   4.257   3.327   2.827
  516W        W 4716   1.176   7.821   1.078
  517W        W 4717   8.758   1.522   2.994
  518W        W 4718   5.274   8.683   8.635
  519W        W 4719   8.095   1.166   9.301
  520W        W 4720   0.934  11.261   0.951
  521W        W 4721   6.820   5.594   2.387
  522W        W 4722   4.362   1.354   9.479
  523W        W 4723   2.173   6.588   1.304
  524W        W 4724   0.913   7.973   9.099
  525W        W 4725   3.526   0.468   2.333
  526W        W 4726   1.992   3.729   8.475
  527W        W 4727   7.155   1.401  11.434
  528W        W 4728   3.660   6.542   3.103
  529W        W 4729   0.825   6.597  10.025
  530W        W 4730   1.590   5.327   0.831
  531W        W 4731   1.608   2.701  11.674
  532W        W 4732   6.413   8.867  10.267
  533W        W 4733   3.079  10.967   3.415
  534W        W 4734  10.628   0.330   1.758
  535W        W 4735  10.024   8.624   9.703
  536W        W 4736   5.248   3.561  11.334
  537W        W 4737  10.574   3.094  11.571
  538W        W 4738   1.732   0.496   2.613
  539W        W 4739   5.513   3.506   4.270
  540W        W 4740   2.469   8.495  10.746
  541W        W 4741   1.767   7.944   3.015
  542W        W 4742   7.990   3.460   2.111
  543W        W 4743   9.674   9.632   0.083
  544W        W 4744   7.986  11.303   2.920
  545W        W 4745  10.011   7.424   0.463
  546W        W 4746   5.554   8.562  10.695
  547W        W 4747   2.129   0.958   9.388
  548W        W 4748   7.256   1.255   2.268
  549W        W 4749   7.148  10.389  10.876
  550W        W 4750   0.718   6.461   2.761
  551W        W 4751   2.305   1.732   2.433
  552W        W 4752   5.700   4.207   0.119
  553W        W 4753   2.031   5.229  11.731
  554W        W 4754   0.489   5.141   2.804
  555W        W 4755   4.146   8.519  10.504
  556W        W 4756   3.375   9.403   1.906
  557W        W 4757   5.249   8.257   2.956
  558W        W 4758  10.036   3.518   0.060
  559W        W 4759   0.685   3.619   2.814
  560W        W 4760   9.614   1.437  10.586
  561W        W 4761   4.334   6.569   1.736
  562W        W 4762  11.133   9.519   9.527
  563W        W 4763   9.275   9.446   3.100
  564W        W 4764   4.064  11.038   3.159
  565W        W 4765   7.037  11.057   1.534
  566W        W 4766   2.182   9.835  10.760
  567W        W 4767   4.152   2.660   2.339
  568W        W 4768   6.223   4.120   8.650
  569W        W 4769   3.185  11.467   2.198
  570W        W 4770   6.110   7.197   3.955
  571W        W 4771  10.488   6.505   2.843
  572W        W 4772   3.435   9.030   3.338
  573W        W 4773   6.735  11.067   0.546
  574W        W 4774   6.131   3.012   8.629
  575W        W 4775   5.574   5.553  10.010
  576W        W 4776   1.352   4.195   2.877
  577W        W 4777   7.621   0.503  11.579
  578W        W 4778   6.918   6.518   0.690
  579W        W 4779   2.311   4.822  10.957
  580W        W 4780   0.500   1.304   9.888
  581W        W 4781   5.933   0.596   9.828
  582W        W 4782   7.598   2.475   1.208
  583W        W 4783   3.802   2.324  11.767
  584W        W 4784   8.238   1.306   1.743
  585W        W 4785   0.793   9.091   2.971
  586W        W 4786   9.954  11.399   9.863
  587W        W 4787   4.886   1.838   3.318
  588W        W 4788   3.639   1.630   9.037
  589W        W 4789   7.375   7.133  11.488
  590W        W 4790   3.194   4.227   2.770
  591W        W 4791   5.622   7.551  10.441
  592W        W 4792  10.468   4.710   1.950
  593W        W 4793   5.145   5.599   0.305
  594W        W 4794   9.441   7.691   9.417
  595W        W 4795   4.957   1.416  11.550
  596W        W 4796   4.946   3.074   8.684
  597W        W 4797   0.316   9.047   9.276
  598W        W 4798   3.787   5.158   2.650
  599W        W 4799  10.333   4.750   2.420
  600W        W 4800   4.353   1.708  11.510
  601W        W 4801   2.239   3.602   1.754
  602W        W 4802  10.894   8.458  11.402
  603W        W 4803   3.734  11.330  10.872
  604W        W 4804   5.720   0.118   1.857
  605W        W 4805   1.632   1.890   1.773
  606W        W 4806   6.216   3.410   0.028
  607W        W 4807   5.060   8.107  11.281
  608W        W 4808   2.855   7.388   0.667
  609W        W 4809   3.526   2.865  11.261
  610W        W 4810   4.236   9.564   8.933
  611W        W 4811   5.657   6.604   1.120
  612W        W 4812  10.712   9.453  11.122
  613W        W 4813   3.695   7.545   3.075
  614W        W 4814   1.304   8.651  11.926
  615W        W 4815   0.196   3.016   9.288
  616W        W 4816   2.715   3.604   1.534
  617W        W 4817   3.207   2.955   2.296
  618W        W 4818   1.912   8.549   9.903
  619W        W 4819   4.653   2.907  11.827
  620W        W 4820   1.749   9.454   2.566
  621W        W 4821   4.082  10.273  11.828
  622W        W 4822   3.631   6.270  11.890
  623W        W 4823   1.257   9.041   0.719
  624W        W 4824   5.168   1.028   9.954
  625W        W 4825   9.055   8.077   2.942
  626W        W 4826   2.778   8.353   1.506
  627W        W 4827   0.865   3.018  11.036
  628W        W 4828   9.150   0.967   8.653
  629W        W 4829   4.288   8.036  11.977
  630W        W 4830   6.155   8.653   3.644
  631W        W 4831   7.789   2.061  11.866
  632W        W 4832   1.262   9.916   3.102
  633W        W 4833   3.268   0.368   1.883
  634W        W 4834   4.196   5.895   8.294
  635W        W 4835   3.156   6.171   0.717
  636W        W 4836   7.606   6.874   9.968
  637W        W 4837  11.211   5.641   2.763
  638W        W 4838   1.415   9.502  10.495
  639W        W 4839   7.426  11.170  11.866
  640W        W 4840   2.043   2.303  10.478
  641W        W 4841   9.295   9.911  11.382
  642W        W 4842   2.355  11.040   9.125
  643W        W 4843   8.353   6.127   3.127
  644W        W 4844   3.269   3.504   4.049
  645W        W 4845   6.525   1.828   0.441
  646W        W 4846   5.292   7.607   0.810
  647W        W 4847  10.845   6.396   3.516
  648W        W 4848   9.424   0.836   9.081
  649W        W 4849   3.595   4.985  10.785
  650W        W 4850   6.048   9.935  11.207
  651W        W 4851   1.699   4.098   9.427
  652W        W 4852   1.647   7.108   0.987
  653W        W 4853   8.153   3.393   2.610
  654W        W 4854   7.352   0.928  11.403
  655W        W 4855   7.043   1.858   1.636
  656W        W 4856   5.228   2.661  11.793
  657W        W 4857   7.931   8.971   0.850
  658W        W 4858  10.079   4.330   9.384
  659W        W 4859   9.863   3.920   3.036
  660W        W 4860   7.432   5.985   9.867
  661W        W 4861   8.517   1.399  11.455
  662W        W 4862   1.447   8.178   1.321
  663W        W 4863   8.020  10.786   0.557
  664W        W 4864   5.221   0.637   0.941
  665W        W 4865   8.233   6.102   0.372
  666W        W 4866   9.086   8.074  10.739
  667W        W 4867   5.471   6.540   9.169
  668W        W 4868   6.239   9.927   8.594
  669W        W 4869   9.935   5.625   9.032
  670W        W 4870  11.212   3.819   2.680
  671W        W 4871   7.529   4.714   1.642
  672W        W 4872   8.521   8.961  11.981
  673W        W 4873   2.690   6.154   1.990
  674W        W 4874   1.242   6.567  10.324
  675W        W 4875   4.757   9.431   1.184
  676W        W 4876   5.190   9.403   9.978
  677W        W 4877   5.206   8.563   2.062
  678W        W 4878  11.399   2.949   8.873
  679W        W 4879   0.801   9.087   0.500
  680W        W 4880   5.977   2.090   2.782
  681W        W 4881   4.079   2.887  11.092
  682W        W 4882   7.038   0.093   9.239
  683W        W 4883   1.730   7.932   0.396
  684W        W 4884  10.872   6.372   9.300
  685W        W 4885   1.288   6.491   9.786
  686W        W 4886   9.008  10.854   2.031
  687W        W 4887   8.046   7.149   0.680
  688W        W 4888   1.201  10.877   9.513
  689W        W 4889   1.398   6.961  10.991
  690W        W 4890   8.602   9.808   9.816
  691W        W 4891   8.839   4.065  11.756
  692W        W 4892   6.254   2.188   3.221
  693W        W 4893   6.027   9.478   0.806
  694W        W 4894   1.115   0.293  10.885
  695W        W 4895   4.738   5.651   0.627
  696W        W 4896   4.212   7.546  10.515
  697W        W 4897   8.959   8.671   8.480
  698W        W 4898   2.968   5.281   1.605
  699W        W 4899   6.319   3.303   1.340
  700W        W 4900   6.531   8.369  11.018
  701W        W 4901   4.033   7.233   2.781
  702W        W 4902  10.763   4.159  10.064
  703W        W 4903   2.670   1.207  10.830
  704W        W 4904   9.206   5.899  10.785
  705W        W 4905   6.993   0.613  11.201
  706W        W 4906   7.145   6.235   2.257
  707W        W 4907   3.086   3.112   9.529
  708W        W 4908   4.945   5.225  11.483
  709W        W 4909   4.123   0.275   1.536
  710W        W 4910   0.871   1.273   1.517
  711W        W 4911   4.636   2.814   3.456
  712W        W 4912  10.397   6.471   9.026
  713W        W 4913   2.620   6.116   2.867
  714W        W 4914   9.974   8.876  11.580
  715W        W 4915   8.259   0.297  10.498
  716W        W 4916   8.837   0.252   1.844
  717W        W 4917   6.590   8.147   1.967
  718W        W 4918   4.148   6.059   0.842
  719W        W 4919   6.298   1.449  11.616
  720W        W 4920   8.014   6.465   0.014
  721W        W 4921   2.655   3.284   0.550
  722W        W 4922   1.259   0.772   9.960
  723W        W 4923   4.687   5.683  11.510
  724W        W 4924   2.993   3.755   2.825
  725W        W 4925  11.074   1.606   2.832
  726W        W 4926   6.919   7.507  11.851
  727W        W 4927   3.778  10.876   8.993
  728W        W 4928   4.958  10.706   3.524
  729W        W 4929   4.402   0.713  11.658
  730W        W 4930  10.468   6.903  10.695
  731W        W 4931   6.636   1.570   0.863
  732W        W 4932   0.218   3.495   9.909
  733W        W 4933   5.004  10.368  11.953
  734W        W 4934   0.813   7.159   0.511
  735W        W 4935   6.103   2.693   1.210
  736W        W 4936   8.908   1.459   1.725
  737W        W 4937   1.021  10.079   3.562
  738W        W 4938  10.931   1.308  10.662
  739W        W 4939   1.645  11.440  10.119
  740W        W 4940   1.143   7.309   1.035
  741W        W 4941   2.117   6.210   0.918
  742W        W 4942   4.508   3.206   2.240
  743W        W 4943  10.029  10.819  10.898
  744W        W 4944  10.349   8.837  10.949
  745W        W 4945   8.105  10.159  10.419
  746W        W 4946  10.000   7.206   1.877
  747W        W 4947   5.469   8.427   9.049
  748W        W 4948   3.811  10.437   1.420
  749W        W 4949   4.805   1.000  11.791
  750W        W 4950   1.274  10.673   1.952
  751W        W 4951   1.777   2.423   2.797
  752W        W 4952   6.685   5.222   1.390
  753W        W 4953  10.012   8.450   9.230
  754W        W 4954   3.367   4.678   2.611
  755W        W 4955   4.581   3.725   1.993
  756W        W 4956   4.301   2.440  10.974
  757W        W 4957   8.591   1.956   9.379
  758W        W 4958  11.294   4.249   9.391
  759W        W 4959   9.447   5.557  10.021
  760W        W 4960   8.386   8.080  10.009
  761W        W 4961   6.933   4.185   0.583
  762W        W 4962   1.257   5.339   1.262
  763W        W 4963   3.442   3.205  10.390
  764W        W 4964   4.707   0.374   9.388
  765W        W 4965   9.754   6.711   8.235
  766W        W 4966   8.195   0.431   9.981
  767W        W 4967   6.319   6.132  11.471
  768W        W 4968   5.184   4.837  11.737
  769W        W 4969   2.242   3.829   8.931
  770W        W 4970   0.004  11.224   0.971
  771W        W 4971   9.928   6.157   8.905
  772W        W 4972   1.145   9.532   9.009
  773W        W 4973   6.292   5.290   1.755
  774W        W 4974   7.925   9.796  11.803
  775W        W 4975   4.553   2.290  10.017
  776W        W 4976   0.454   0.297   1.930
  777W        W 4977   7.504   1.037   3.015
  778W        W 4978   7.472   1.469  10.485
  779W        W 4979   0.070   7.305   0.345
  780W        W 4980  10.701   2.963   9.420
  781W        W 4981   8.490   2.385  11.239
  782W        W 4982   5.754   3.667   2.289
  783W        W 4983   7.227   8.445  11.942
  784W        W 4984   7.796   4.238   1.582
  785W        W 4985   0.148   6.141   9.870
  786W        W 4986   4.791   4.122   9.616
  787W        W 4987   7.670   9.554   9.776
  788W        W 4988   5.570   0.289  11.549
  789W        W 4989   5.557   9.888   8.566
  790W        W 4990  11.250   2.231  10.616
  791W        W 4991   7.792   7.915   0.604
  792W        W 4992  11.056   7.010  11.945
  793W        W 4993   7.964   4.292   2.822
  794W        W 4994   6.758   8.071   0.249
  795W        W 4995  11.266   0.276   9.911
  796W        W 4996   7.574  10.597   2.643
  797W        W 4997   4.537   0.840  10.335
  798W        W 4998   7.446   5.209  11.764
  799W        W 4999   7.216   0.881   9.791
  800W        W 5000   6.629  11.346   9.058
  801W        W 5001   7.952   6.160   8.738
  802W        W 5002   4.610   3.086   0.297
  803W        W 5003   3.057   9.018  11.531
  804W        W 5004   7.552   1.705  11.082
  805W        W 5005   8.836   7.992   2.017
  806W        W 5006  11.305  10.791   0.742
  807W        W 5007   0.789   7.508  11.751
  808W        W 5008   4.708   7.491  11.332
  809W        W 5009   1.026   7.966   9.611
  810W        W 5010   9.844   6.543  11.773
  811W        W 5011   0.094  11.451  11.766
  812W        W 5012  10.532   0.341   9.269
  813W        W 5013   5.366   6.632   2.099
  814W        W 5014   2.902  10.118   1.808
  815W        W 5015   5.314   6.754  11.610
  816W        W 5016  10.220   5.686   9.450
  817W        W 5017  11.071   4.476  10.365
  818W        W 5018   6.451   3.761   8.961
  819W        W 5019   4.198   6.531   2.228
  820W        W 5020   4.033   6.716  10.029
  821W        W 5021   8.864   9.919  11.149
  822W        W 5022   8.954   1.088  11.436
  823W        W 5023   9.712   8.162   1.755
  824W        W 5024   3.795   9.558   2.228
  825W        W 5025   0.269   7.508   1.927
  826W        W 5026   4.703   9.813   8.831
  827W        W 5027   7.088   9.352  11.697
  828W        W 5028   5.430  10.342  10.321
  829W        W 5029   5.480   3.772   8.653
  830W        W 5030  10.456  11.347   9.851
  831W        W 5031  11.475   8.476  10.824
  832W        W 5032   1.342  10.814   3.028
  833W        W 5033   8.884   1.442  10.678
  834W        W 5034   7.253   0.089   9.706
  835W        W 5035  10.328   5.656   0.402
  836W        W 5036   8.636   3.741   8.189
  837W        W 5037  10.306   7.302  10.357
  838W        W 5038  10.342   2.910   9.767
  839W        W 5039   0.452   2.207  10.782
  840W        W 5040  10.941   0.073   0.803
  841W        W 5041   7.873   5.732   0.322
  842W        W 5042  10.875   0.712   9.896
  843W        W 5043   4.064   5.539  11.786
  844W        W 5044   3.738   8.934  10.085
  845W        W 5045   9.550  10.560  11.889
  846W        W 5046   4.690   0.479   0.975
  847W        W 5047   1.001   2.669   2.149
  848W        W 5048   1.967   0.439  11.048
  849W        W 5049  10.907   6.173  11.796
  850W        W 5050   9.358   5.671   0.667
  851W        W 5051   5.919   3.643   8.957
  852W        W 5052   1.648   9.296   2.097
  853W        W 5053   0.030   7.153   3.525
  854W        W 5054   8.001   7.209   2.556
  855W        W 5055   0.864   3.283  11.464
  856W        W 5056   6.569   0.284   1.962
  857W        W 5057   8.088   0.476   3.318
  858W        W 5058  10.696   9.780  11.519
  859W        W 5059   7.711   2.226   2.167
  860W        W 5060   5.117   7.007  10.455
  861W        W 5061   9.645   2.064   1.804
  862W        W 5062   6.633  11.268  10.768
  863W        W 5063   4.422   9.757   0.898
  864W        W 5064   5.937   6.631  10.406
  865W        W 5065   1.233   7.608   9.247
  866W        W 5066   1.882  10.605   9.850
  867W        W 5067  10.754   8.361   0.363
  868W        W 5068   8.864   9.972   1.049
  869W        W 5069   0.725   5.957   2.809
  870W        W 5070  10.816   9.606  10.066
  871W        W 5071   9.990  10.075   1.687
  872W        W 5072   2.649   2.116   3.721
  873W        W 5073   5.542  11.486   3.102
  874W        W 5074  11.010  11.168   9.003
  875W        W 5075   7.990   1.854   1.940
  876W        W 5076   2.970   0.667   9.551
  877W        W 5077  10.853   9.158   9.765
  878W        W 5078   4.648   1.939   2.500
  879W        W 5079   5.445   7.160  11.913
  880W        W 5080   8.569   3.223  11.290
  881W        W 5081   9.967   9.995   9.232
  882W        W 5082   0.347   6.094   9.406
  883W        W 5083   4.120   1.607  11.949
  884W        W 5084   8.475   1.716   8.945
  885W        W 5085  10.501   9.801   0.410
  886W        W 5086   4.205   7.229  10.907
  887W        W 5087   5.506   9.914   2.416
  888W        W 5088   4.979   6.910  11.951
  889W        W 5089   5.044   4.525   1.230
  890W        W 5090   4.451  11.307   2.925
  891W        W 5091   7.108   7.476   2.654
  892W        W 5092  11.189  10.320   2.384
  893W        W 5093   0.533   9.989   1.859
  894W        W 5094   0.816   0.680   9.122
  895W        W 5095   5.653   0.885  11.676
  896W        W 5096   7.853  10.395   0.277
  897W        W 5097   6.609   7.148   1.755
  898W        W 5098   9.410   7.342   1.852
  899W        W 5099   6.443   3.203   9.560
  900W        W 5100   6.211   6.991   3.054
  901W        W 5101   6.184   3.557  10.295
  902W        W 5102   3.394   9.355   0.293
  903W        W 5103   3.869   1.658  10.921
  904W        W 5104   2.007   0.458   9.522
  905W        W 5105   1.917   1.560   2.729
  906W        W 5106   5.165   6.951   9.258
  907W        W 5107  10.628   5.030  10.364
  908W        W 5108   8.949   9.319   9.323
  909W        W 5109   1.355   3.154   9.790
  910W        W 5110   3.816   3.745   2.186
  911W        W 5111   5.888   7.467   9.321
  912W        W 5112   6.741   7.835   3.241
  913W        W 5113   6.402  10.034   2.943
  914W        W 5114   0.902   3.632   9.320
  915W        W 5115   5.686  10.373  10.790
  916W        W 5116   3.529   0.803  10.472
  917W        W 5117   7.117   6.921   9.803
  918W        W 5118   9.727  11.429  10.328
  919W        W 5119   4.954   8.373   0.260
  920W        W 5120   7.047   0.503   2.687
  921W        W 5121   0.306   7.345  10.344
  922W        W 5122   3.532  10.421   2.559
  923W        W 5123   6.981   7.418   9.822
  924W        W 5124   9.065   6.447   8.403
  925W        W 5125   3.947   9.823  11.566
  926W        W 5126  10.426   7.655  11.529
  927W        W 5127   9.883   6.663  10.764
  928W        W 5128   2.836   1.325   3.337
  929W        W 5129   2.960   9.865   9.478
  930W        W 5130   7.641   6.687   0.321
  931W        W 5131   9.370  10.591   0.362
  932W        W 5132   0.247   4.607   0.810
  933W        W 5133  11.071   2.675  10.791
  934W        W 5134   1.859  10.423   2.629
  935W        W 5135   2.445   0.701   1.631
  936W        W 5136   9.815   4.161  11.910
  937W        W 5137  10.026   3.691  11.131
  938W        W 5138   1.438   7.664   3.343
  939W        W 5139   5.036   3.651  10.066
  940W        W 5140   8.667  10.519   0.900
  941W        W 5141   1.942   8.413   1.581
  942W        W 5142   9.338   2.895   1.570
  943W        W 5143   9.269   5.756   8.439
  944W        W 5144   6.783   7.575   0.778
  945W        W 5145   3.134   7.473   0.216
  946W        W 5146   4.783   9.417   3.356
  947W        W 5147   4.486   1.203  11.452
  948W        W 5148   7.618   3.343   2.452
  949W        W 5149   3.147  10.376  11.781
  950W        W 5150   6.680   8.978   9.839
  951W        W 5151   0.310   2.609   9.994
  952W        W 5152   2.323   7.191   9.043
  953W        W 5153   6.250   3.762  11.441
  954W        W 5154   0.708   7.327   2.640
  955W        W 5155   3.637   9.415   0.749
  956W        W 5156   0.515   1.695   9.087
  957W        W 5157  11.444   0.039   8.878
  958W        W 5158   6.754   9.798   0.377
  959W        W 5159   5.882   7.304  11.695
  960W        W 5160   4.946   7.984  10.660
  961W        W 5161   3.275   2.143   9.207
  962W        W 5162   3.715   1.975  11.314
  963W        W 5163   7.236   3.111  10.149
  964W        W 5164   7.725   9.552   0.247
  965W        W 5165   9.931   5.020   9.245
  966W        W 5166   4.445  10.994   0.924
  967W        W 5167   9.775   2.394  11.297
  968W        W 5168  10.787   9.345   9.170
  969W        W 5169   5.303   5.116   0.331
  970W        W 5170   9.137   5.938  10.254
  971W        W 5171   6.082   9.430   2.981
  972W        W 5172  11.283   6.524  11.885
  973W        W 5173   1.008   0.280   9.595
  974W        W 5174   1.014   0.511  10.423
  975W        W 5175   7.343   7.951  10.450
  976W        W 5176   0.212   0.791   2.861
  977W        W 5177   6.067   7.579  11.281
  978W        W 5178   4.549   4.546   1.338
  979W        W 5179  10.379  10.811   1.961
  980W        W 5180   3.061   0.826   1.226
  981W        W 5181   8.628   4.703   1.741
  982W        W 5182   4.708   7.588  10.325
  983W        W 5183   8.605   4.823  11.990
  984W        W 5184   3.211   7.389  11.712
  985W        W 5185   7.279   2.322   1.854
  986W        W 5186   8.447   2.728   3.549
  987W        W 5187   5.704  10.822   9.462
  988W        W 5188  11.374   8.657  11.634
  989W        W 5189   9.016   4.553   8.361
  990W        W 5190   9.330   0.361   1.072
  991W        W 5191   7.059   5.511  11.996
  992W        W 5192   3.897   2.172   2.911
  993W        W 5193   8.122   6.544   1.371
  994W        W 5194   3.897   6.655   8.986
  995W        W 5195   5.268  11.473   9.699
  996W        W 5196   6.918   8.611   1.308
  997W        W 5197  10.927  10.091  11.882
  998W        W 5198   1.876   5.018  10.733
  999W        W 5199   4.300   8.166   1.379
 1000W        W 5200   0.957   5.038   2.611
 1001W        W 5201  10.387   8.954  11.889
 1002W        W 5202   2.685   1.193  10.320
 1003W        W 5203   8.881   2.799   1.809
 1004W        W 5204   7.922   9.051   2.644
 1005W        W 5205   7.137   3.085  10.674
 1006W        W 5206  11.022   5.672  11.844
 1007W        W 5207   2.706   3.107   9.877
 1008W        W 5208   3.937   0.756   1.608
 1009W        W 5209   7.215   9.023  11.266
 1010W        W 5210   7.602   3.625  10.948
 1011W        W 5211   2.685   4.118   1.512
 1012W        W 5212   1.389   3.864   3.368
 1013W        W 5213  10.854  10.636   1.736
 1014W        W 5214   0.794   6.066   2.320
 1015W        W 5215  10.147   8.115   8.846
 1016W        W 5216   3.744  10.469   1.930
 1017W        W 5217  10.785   2.320   9.273
 1018W        W 5218   0.547   0.480   9.510
 1019W        W 5219   6.091   0.095   3.207
 1020W        W 5220   5.259   7.259   2.790
 1021W        W 5221   9.496  10.677   3.273
 1022W        W 5222   0.034   5.884   3.603
 1023W        W 5223   6.001   9.903   3.247
 1024W        W 5224   5.182   6.552   9.605
 1025W        W 5225   6.743  10.958  10.324
 1026W        W 5226   7.870   2.211  10.224
 1027W        W 5227   0.165  10.880   1.709
 1028W        W 5228   9.105   5.085   8.140
 1029W        W 5229   5.643   3.718   0.261
 1030W        W 5230   0.837   2.857   3.134
 1031W        W 5231   1.276   2.560  10.405
 1032W        W 5232   9.085   2.103   9.451
 1033W        W 5233   6.881   8.106  10.705
 1034W        W 5234   2.929   8.067   0.002
 1035W        W 5235   4.051   0.184   2.314
 1036W        W 5236   9.439   3.727   8.963
 1037W        W 5237  10.796   6.586   0.093
 1038W        W 5238   8.223   4.888   0.539
 1039W        W 5239   0.906  11.154   8.994
 1040W        W 5240  11.035   9.578   8.796
 1041W        W 5241   8.873   7.633   3.161
 1042W        W 5242   0.985   2.043   8.634
 1043W        W 5243   5.917   1.282   1.212
 1044W        W 5244   5.768   5.784   2.485
 1045W        W 5245   7.460   8.568   9.644
 1046W        W 5246  11.245   0.727   2.543
 1047W        W 5247   9.010   9.010  10.719
 1048W        W 5248   5.559   4.544  11.204
 1049W        W 5249   2.867   0.431   0.752
 1050W        W 5250   4.199  10.090   8.754
 1051W        W 5251   3.183   6.738  10.780
 1052W        W 5252   0.455  11.487   8.750
 1053W        W 5253   7.117   0.779   1.829
 1054W        W 5254   5.302  11.481   3.549
 1055W        W 5255   1.579   7.223  10.209
 1056W        W 5256   4.759   8.624   8.596
 1057W        W 5257   3.511   0.294   3.220
 1058W        W 5258   3.194   5.736   1.542
 1059W        W 5259   7.286   6.079   1.427
 1060W        W 5260   6.129   2.162   1.268
 1061W        W 5261   3.665   8.491   3.135
 1062W        W 5262   7.582   9.726   2.326
 1063W        W 5263   4.831   9.622  10.269
 1064W        W 5264   5.494   7.560   1.248
 1065W        W 5265   7.418   4.947   9.467
 1066W        W 5266  11.358   0.771  10.003
 1067W        W 5267   3.177   9.478   3.225
 1068W        W 5268   5.720   7.498   1.676
 1069W        W 5269   2.785   4.576  11.185
 1070W        W 5270   9.808   1.874  11.383
 1071W        W 5271   0.187   1.307   8.915
 1072W        W 5272   9.526   3.140  11.057
 1073W        W 5273   1.437   3.926  10.436
 1074W        W 5274   4.312   4.164   0.637
 1075W        W 5275   5.762  10.336   2.283
 1076W        W 5276   9.147   3.177   2.582
 1077W        W 5277   5.806  11.086   1.753
 1078W        W 5278   1.181   2.691   3.461
 1079W        W 5279  10.941  11.446  10.885
 1080W        W 5280   7.662  11.293   2.119
 1081W        W 5281   7.076   1.008   2.675
 1082W        W 5282   2.531   4.374  11.592
 1083W        W 5283   1.001   4.594  10.926
 1084W        W 5284   2.029   1.492   8.487
 1085W        W 5285   7.309   2.217  11.884
 1086W        W 5286   0.785   3.760   1.314
 1087W        W 5287   9.733   9.531   2.016
 1088W        W 5288   7.771   3.890  11.381
 1089W        W 5289   6.445   7.424   3.163
 1090W        W 5290   8.641   5.124   0.416
 1091W        W 5291   4.708   9.001   3.646
 1092W        W 5292   4.282   6.518   9.531
 1093W        W 5293   4.174   4.161   1.209
 1094W        W 5294   8.091   5.139   3.935
 1095W        W 5295   7.076   3.956   9.520
 1096W        W 5296   2.859   1.272   9.284
 1097W        W 5297   5.510   3.222   3.058
 1098W        W 5298   6.932   0.980   9.353
 1099W        W 5299   7.958   9.445   2.973
 1100W        W 5300   4.528   6.521   9.972
 1101W        W 5301   5.138   2.386   1.334
 1102W        W 5302   4.535   6.562  11.460
 1103W        W 5303   7.673   7.473   0.883
 1104W        W 5304   5.456  10.373   0.272
 1105W        W 5305  10.917   2.280  11.986
 1106W        W 5306   5.109   2.035  10.443
 1107W        W 5307   4.662   5.590  11.003
 1108W        W 5308   2.902   0.857   2.614
 1109W        W 5309   1.189   0.437   0.207
 1110W        W 5310  10.468   0.799   1.901
 1111W        W 5311   6.052   7.886  10.489
 1112W        W 5312   5.120   4.458   3.397
 1113W        W 5313   0.542   6.174   8.912
 1114W        W 5314   3.816   4.078   0.850
 1115W        W 5315   4.856   2.731   9.041
 1116W        W 5316   3.271   9.132  10.570
 1117W        W 5317   6.656   9.028  11.696
 1118W        W 5318   5.827   3.256  11.685
 1119W        W 5319   5.068   4.657   2.142
 1120W        W 5320   5.342   6.110   9.997
 1121W        W 5321   4.614   5.114  10.697
 1122W        W 5322   5.241   0.309   1.833
 1123W        W 5323   2.630  11.021   1.596
 1124W        W 5324   1.800   7.780  10.917
 1125W        W 5325   3.640   0.727   0.206
 1126W        W 5326   9.359   0.366  11.882
 1127W        W 5327   4.969   0.220   8.841
 1128W        W 5328   8.169   8.920  11.237
 1129W        W 5329   7.460   0.163  11.936
 1130W        W 5330  10.332  10.377   3.174
 1131W        W 5331   0.611   8.789   1.315
 1132W        W 5332   7.476   9.410   3.313
 1133W        W 5333   0.475   8.190   2.109
 1134W        W 5334  10.447   6.932   1.865
 1135W        W 5335   6.430   0.047  11.910
 1136W        W 5336   5.754   7.567   2.181
 1137W        W 5337   7.001   6.508  11.801
 1138W        W 5338   9.884   8.100   1.288
 1139W        W 5339   6.074   9.618   9.146
 1140W        W 5340   7.207  10.915   3.292
 1141W        W 5341   5.250  11.279   0.466
 1142W        W 5342   4.604  11.402  10.603
 1143W        W 5343  10.464   0.998   8.776
 1144W        W 5344   6.183   2.963   1.721
 1145W        W 5345  11.233   2.713   1.417
 1146W        W 5346   0.895   7.062   0.003
 1147W        W 5347   9.435  10.751   2.772
 1148W        W 5348  10.880   1.129  10.181
 1149W        W 5349   3.437   0.811   1.685
 1150W        W 5350   8.842   2.476   0.933
 1151W        W 5351   8.476  10.249   1.312
 1152W        W 5352   0.979   7.112   9.271
 1153W        W 5353   7.384   1.147   0.730
 1154W        W 5354   6.638   7.580   0.281
 1155W        W 5355   5.072   9.852  11.824
 1156W        W 5356  11.051   3.213   1.347
 1157W        W 5357   1.422   1.461  10.642
 1158W        W 5358   5.038   1.677   2.312
 1159W        W 5359   0.111   6.474   0.524
 1160W        W 5360   0.399   6.606  11.525
 1161W        W 5361   4.820   3.303  11.463
 1162W        W 5362   4.798  11.323  11.576
 1163W        W 5363   7.960   4.423   2.051
 1164W        W 5364   5.238   0.896   2.472
 1165W        W 5365   9.836   0.870   1.053
 1166W        W 5366   8.775   3.592   8.648
 1167W        W 5367   4.098   2.373   9.808
 1168W        W 5368   2.472   1.891   0.962
 1169W        W 5369   0.245  10.790   3.510
 1170W        W 5370   0.119   8.205  10.421
 1171W        W 5371   2.274   9.654   8.936
 1172W        W 5372   5.040   5.676   1.366
 1173W        W 5373   9.313   4.223   9.066
 1174W        W 5374  11.280   5.225   0.539
 1175W        W 5375   1.743   1.032   8.808
 1176W        W 5376   3.564   7.240   1.020
 1177W        W 5377   3.632   4.928   9.471
 1178W        W 5378   7.381  10.892   1.210
 1179W        W 5379   3.129   1.176  11.075
 1180W        W 5380   9.882   9.005  11.086
 1181W        W 5381   3.445   7.457   9.835
 1182W        W 5382  11.228   1.881  11.888
 1183W        W 5383  11.461   1.262   9.814
 1184W        W 5384   7.869   4.616   1.253
 1185W        W 5385   7.876  10.681  10.499
 1186W        W 5386   9.995   5.216   2.937
 1187W        W 5387   7.484   4.115  10.930
 1188W        W 5388   0.078   0.858  11.723
 1189W        W 5389   5.843   1.327  11.853
 1190W        W 5390   2.770   4.071  10.978
 1191W        W 5391   6.783   8.209  11.587
 1192W        W 5392   9.210   1.158  10.435
 1193W        W 5393   4.808   0.162   9.859
 1194W        W 5394   7.996   5.229   1.434
 1195W        W 5395   5.043  10.883   1.793
 1196W        W 5396   8.322  10.978   0.928
 1197W        W 5397  10.280   8.966   0.996
 1198W        W 5398  11.315   5.069   3.565
 1199W        W 5399   1.737   5.198   8.978
 1200W        W 5400   2.552   8.029   0.944
 1201W        W 5401   6.159   6.713   3.825
 1202W        W 5402   7.027   5.649   1.456
 1203W        W 5403   8.732   4.076   2.297
 1204W        W 5404   0.016   1.841   9.088
 1205W        W 5405   9.057   2.379   2.973
 1206W        W 5406   1.438   1.749   0.188
 1207W        W 5407   1.762   2.382   1.794
 1208W        W 5408   0.809   9.795   9.863
 1209W        W 5409   6.890   9.934  10.922
 1210W        W 5410   4.530   4.778   8.265
 1211W        W 5411   7.928   8.930  10.394
 1212W        W 5412   4.658   3.816   0.857
 1213W        W 5413   8.966   9.876  10.620
 1214W        W 5414   1.977   7.565  11.353
 1215W        W 5415   6.012   3.582   4.105
 1216W        W 5416   0.006   0.407  10.392
 1217W        W 5417   7.997  10.788  11.542
 1218W        W 5418   5.831   3.094   1.387
 1219W        W 5419   2.293   4.114  10.590
 1220W        W 5420   0.696   8.726   9.027
 1221W        W 5421   6.221   4.544   9.396
 1222W        W 5422  11.395   9.811   1.631
 1223W        W 5423   1.864  10.085  11.580
 1224W        W 5424   0.930   1.922   9.376
 1225W        W 5425   8.443   9.531   2.777
 1226W        W 5426   5.486   0.830   9.587
 1227W        W 5427   5.432   3.368   1.099
 1228W        W 5428   9.237   2.051   0.397
 1229W        W 5429   5.609   8.981   1.997
 1230W        W 5430  10.021   9.899   2.712
 1231W        W 5431   6.643   4.185   3.142
 1232W        W 5432   9.929   9.855   1.209
 1233W        W 5433   9.213   0.640  10.405
 1234W        W 5434   3.790   8.031  10.010
 1235W        W 5435   8.714   2.184   0.257
 1236W        W 5436   9.091   9.484   1.377
 1237W        W 5437   1.825   2.630  10.122
 1238W        W 5438   8.920   7.181   9.989
 1239W        W 5439   5.624   9.539   8.921
 1240W        W 5440   3.113   2.364  10.127
 1241W        W 5441   1.253   4.727   0.146
 1242W        W 5442  11.418   1.883   1.995
 1243W        W 5443   9.433   5.175   9.075
 1244W        W 5444  11.239  11.265   0.541
 1245W        W 5445   2.601  10.763   9.569
 1246W        W 5446   8.562   9.538   0.796
 1247W        W 5447   3.871   0.430   9.688
 1248W        W 5448   5.940   4.755  11.884
 1249W        W 5449   0.778   0.092   0.261
 1250W        W 5450   7.213   2.293   9.348
 1251W        W 5451   2.585   2.330   0.425
 1252W        W 5452   3.191   1.755   2.484
 1253W        W 5453  10.854   7.985  11.605
 1254W        W 5454   8.495   1.745   1.864
 1255W        W 5455   9.362   7.623   3.077
 1256W        W 5456   8.520   5.748  11.837
 1257W        W 5457   5.638   2.127  10.900
 1258W        W 5458   2.117   6.536   8.532
 1259W        W 5459  10.871   4.125   9.113
 1260W        W 5460   4.826  10.231   9.157
 1261W        W 5461   3.346   6.106  10.202
 1262W        W 5462  11.246   2.318   2.931
 1263W        W 5463   1.194   1.803  10.313
 1264W        W 5464   8.888   9.947   2.042
 1265W        W 5465   3.216   1.592   9.598
 1266W        W 5466   0.745  10.691   8.786
 1267W        W 5467  10.532   1.359  11.032
 1268W        W 5468  11.356   8.832  11.156
 1269W        W 5469   8.779   3.198   3.531
 1270W        W 5470   2.215  11.361   1.410
 1271W        W 5471   3.461  11.167   2.546
 1272W        W 5472   5.893   4.152  11.441
 1273W        W 5473   2.341   8.990   1.011
 1274W        W 5474   0.930   0.366   2.637
 1275W        W 5475   7.654  11.097   2.576
 1276W        W 5476   3.795   8.164   8.724
 1277W        W 5477   6.081   6.499   0.307
 1278W        W 5478  11.356   7.420  11.912
 1279W        W 5479   1.537   4.373   9.010
 1280W        W 5480   5.467   0.030   2.595
 1281W        W 5481  11.425   7.584   1.094
 1282W        W 5482   6.125   4.844   0.840
 1283W        W 5483   4.673   3.582  10.988
 1284W        W 5484   8.520   2.482   1.364
 1285W        W 5485   1.951  10.877  10.945
 1286W        W 5486   7.707   4.372   3.267
 1287W        W 5487   6.689   8.361   8.999
 1288W        W 5488   7.721   2.244   2.683
 1289W        W 5489   1.582   7.040  11.538
 1290W        W 5490   7.096   1.886  11.291
 1291W        W 5491   5.576   6.610   2.601
 1292W        W 5492   9.026   3.329   1.134
 1293W        W 5493   9.385   7.450   0.414
 1294W        W 5494   8.008   2.938  11.868
 1295W        W 5495   0.494   7.100  11.718
 1296W        W 5496  10.816  10.996   2.633
 1297W        W 5497   5.410   2.370   3.532
 1298W        W 5498   1.111   2.455  11.702
 1299W        W 5499   9.934   9.450   2.481
 1300W        W 5500   0.931   8.418   8.320
 1301W        W 5501   9.173   4.222   2.110
 1302W        W 5502   6.212  10.402   1.997
 1303W        W 5503   5.690   4.108   3.529
 1304W        W 5504   3.774   9.819   8.908
 1305W        W 5505  11.017  11.014  10.457
 1306W        W 5506   3.832   9.794  10.610
 1307W        W 5507   2.533   7.532   1.138
 1308W        W 5508  10.893  10.022   0.898
 1309W        W 5509   0.960   3.657   1.817
 1310W        W 5510   2.143   0.858   9.887
 1311W        W 5511   7.003   1.273   1.023
 1312W        W 5512   6.688   4.332  11.759
 1313W        W 5513  10.924   8.536   1.870
 1314W        W 5514   1.039   0.825  10.871
 1315W        W 5515   3.601  11.239  10.383
 1316W        W 5516   9.324   1.043   2.583
 1317W        W 5517   9.519   2.434   0.107
 1318W        W 5518   1.767  10.817   0.146
 1319W        W 5519  10.030   6.102  11.978
 1320W        W 5520   6.562   4.782   1.117
 1321W        W 5521   2.790   7.376   8.915
 1322W        W 5522   8.954  11.439   3.250
 1323W        W 5523  11.031  10.092   3.658
 1324W        W 5524   1.063   5.625   3.424
 1325W        W 5525   2.396   7.976   1.448
 1326W        W 5526   0.439   3.131   2.800
 1327W        W 5527   6.428   6.684   0.626
 1328W        W 5528   3.192  10.007   3.329
 1329W        W 5529   3.609   0.372   1.443
 1330W        W 5530   2.559   1.101   9.678
 1331W        W 5531   3.320   7.151   0.562
 1332W        W 5532  11.054   1.660   9.340
 1333W        W 5533   2.624   3.505  11.789
 1334W        W 5534   5.725   5.266   1.195
 1335W        W 5535   6.163   2.896  11.806
 1336W        W 5536   6.013   1.313  10.298
 1337W        W 5537   4.629   7.956  11.551
 1338W        W 5538  11.326   9.286   9.116
 1339W        W 5539  11.311   9.780   0.717
 1340W        W 5540   7.479   6.830   9.441
 1341W        W 5541   3.327  10.612   9.126
 1342W        W 5542   2.272   6.940   2.286
 1343W        W 5543   8.710   4.693  10.621
 1344W        W 5544   8.969   3.279   3.057
 1345W        W 5545   7.488   7.045   2.681
 1346W        W 5546   9.094   6.485   0.949
 1347W        W 5547   5.327   0.019   9.172
 1348W        W 5548   0.919   9.788  11.816
 1349W        W 5549  10.723  11.149   1.824
 1350W        W 5550   5.800  10.493   2.812
 1351W        W 5551   3.925   1.608   2.070
 1352W        W 5552   3.221   4.655  11.861
 1353W        W 5553   7.032   9.511   3.025
 1354W        W 5554   4.051   1.293  10.614
 1355W        W 5555   3.593  10.723  10.349
 1356W        W 5556   5.391   4.036  11.425
 1357W        W 5557   6.958   9.030   1.050
 1358W        W 5558   8.909   1.432  10.137
 1359W        W 5559   1.938   3.876  10.289
 1360W        W 5560   0.238   5.003   9.453
 1361W        W 5561   3.344   7.649  11.291
 1362W        W 5562   6.496   2.584   1.823
 1363W        W 5563   4.146  11.273   9.414
 1364W        W 5564   1.309   4.382   3.345
 1365W        W 5565   4.108   8.188   2.238
 1366W        W 5566   5.625   1.206  10.897
 1367W        W 5567   1.842   7.105   9.790
 1368W        W 5568   1.810   3.609  11.717
 1369W        W 5569   3.144   8.686   1.328
 1370W        W 5570   8.159   7.635   0.818
 1371W        W 5571   4.576   1.855   9.405
 1372W        W 5572   7.723   1.476   2.204
 1373W        W 5573   7.664   1.411   9.245
 1374W        W 5574   9.336   0.361   8.212
 1375W        W 5575   3.387   2.543   3.509
 1376W        W 5576   2.959   9.618   1.714
 1377W        W 5577   1.290   0.282  10.055
 1378W        W 5578   3.980   4.042  10.565
 1379W        W 5579   2.180   5.319   1.137
 1380W        W 5580   5.088   3.616   3.930
 1381W        W 5581   3.734   8.806  11.107
 1382W        W 5582   7.110   8.922   9.548
 1383W        W 5583   9.047  10.341   9.286
 1384W        W 5584   6.617   1.395   3.347
 1385W        W 5585   2.189   9.993   3.144
 1386W        W 5586   4.154   6.216  10.771
 1387W        W 5587   4.150   9.348   0.766
 1388W        W 5588   4.476  11.445   2.431
 1389W        W 5589   1.433   1.136  11.042
 1390W        W 5590   2.689  11.118  11.748
 1391W        W 5591   8.482   0.999   1.089
 1392W        W 5592   5.084   3.269  10.964
 1393W        W 5593   9.299   0.758   2.999
 1394W        W 5594   3.241   2.689   2.753
 1395W        W 5595  11.225   2.188   3.438
 1396W        W 5596   8.570   9.605   3.614
 1397W        W 5597   5.990   7.286   8.625
 1398W        W 5598   3.085   2.363   0.471
 1399W        W 5599   3.618  10.613  11.747
 1400W        W 5600   2.342   4.136   0.865
 1401W        W 5601   8.439   0.741  10.714
 1402W        W 5602  10.289  10.482   9.747
 1403W        W 5603   2.760   7.851   0.462
 1404W        W 5604   8.431   8.816   8.543
 1405W        W 5605   8.181   5.989   8.290
 1406W        W 5606   5.749  10.312   1.747
 1407W        W 5607   6.610   8.089   0.716
 1408W        W 5608   5.658   2.348   8.682
 1409W        W 5609   3.489   1.933   2.125
 1410W        W 5610   3.316   5.722  10.552
 1411W        W 5611  11.308   2.724   3.472
 1412W        W 5612   6.021   2.808   3.651
 1413W        W 5613   6.188  10.546   1.516
 1414W        W 5614   9.684   1.452  11.103
 1415W        W 5615  10.450   0.704   0.468
 1416W        W 5616   2.596   5.644   2.603
 1417W        W 5617   6.089   8.871   2.793
 1418W        W 5618   5.593   8.641   9.931
 1419W        W 5619  10.991   9.902   0.357
 1420W        W 5620   6.539   4.374   8.971
 1421W        W 5621   8.681   8.100   0.067
 1422W        W 5622   7.436   4.327  10.314
 1423W        W 5623   4.642   5.636  10.493
 1424W        W 5624   8.824   4.814   0.814
 1425W        W 5625   4.762   9.703   3.823
 1426W        W 5626   2.397   7.064   1.430
 1427W        W 5627   9.946   2.837  11.103
 1428W        W 5628   1.369   1.648   9.325
 1429W        W 5629   9.701   9.184   0.414
 1430W        W 5630  10.422   1.659   0.226
 1431W        W 5631   4.173   4.695   9.372
 1432W        W 5632   2.220   6.383   9.400
 1433W        W 5633   9.561   6.530   9.071
 1434W        W 5634   7.715   9.407  10.281
 1435W        W 5635   2.434   8.208   1.917
 1436W        W 5636   8.090   8.626   8.920
 1437W        W 5637   9.718   2.079   0.721
 1438W        W 5638   8.978   7.509  11.499
 1439W        W 5639   8.478   4.747   2.677
 1440W        W 5640   8.596   6.478   9.688
 1441W        W 5641   1.677  10.982   1.881
 1442W        W 5642   8.151   6.404   9.464
 1443W        W 5643  11.332   5.988   3.127
 1444W        W 5644   8.027   0.276  11.327
 1445W        W 5645   7.570   7.177   0.482
 1446W        W 5646   0.324   5.853   2.256
 1447W        W 5647   5.213  10.812  10.255
 1448W        W 5648   7.342   7.838   2.317
 1449W        W 5649   6.041   2.025   8.867
 1450W        W 5650   6.323   6.066  10.133
 1451W        W 5651   8.691   4.065   3.344
 1452W        W 5652   5.599   9.303  11.313
 1453W        W 5653   7.264   9.746   0.046
 1454W        W 5654   8.665   3.719   0.422
 1455W        W 5655   8.886  11.190  11.893
 1456W        W 5656   4.973  11.152   0.899
 1457W        W 5657   4.873   3.255   9.182
 1458W        W 5658   1.922   4.732   8.914
 1459W        W 5659   5.441   6.612  10.359
 1460W        W 5660   1.254   1.236   0.049
 1461W        W 5661   6.231   8.007   0.244
 1462W        W 5662   9.770   8.624   0.576
 1463W        W 5663  10.762   2.782   1.205
 1464W        W 5664   0.297  10.361  11.312
 1465W        W 5665   6.015   0.872   0.048
 1466W        W 5666   1.345   9.072  11.660
 1467W        W 5667   2.296   1.460  10.610
 1468W        W 5668   2.092   9.359   9.345
 1469W        W 5669   5.244   9.222   3.269
 1470W        W 5670   6.504   9.482   2.319
 1471W        W 5671   5.990   5.512  10.361
 1472W        W 5672   8.461   3.062   3.093
 1473W        W 5673   3.912   0.430  10.938
 1474W        W 5674   7.255   5.077   9.960
 1475W        W 5675   7.592   5.890  11.210
 1476W        W 5676   2.962   1.274   0.423
 1477W        W 5677   8.425   9.758   1.266
 1478W        W 5678  10.690   5.274  11.763
 1479W        W 5679   3.165   4.516   3.462
 1480W        W 5680   0.575   0.802  11.745
 1481W        W 5681   8.582   6.919  10.258
 1482W        W 5682   0.701   8.163  10.044
 1483W        W 5683   0.355   0.750  11.281
 1484W        W 5684   5.936   9.010   0.996
 1485W        W 5685   4.745   0.476   1.850
 1486W        W 5686   2.852   0.445   8.950
 1487W        W 5687   7.808   3.083   2.864
 1488W        W 5688   9.119   3.325   9.452
 1489W        W 5689   2.719   4.218   3.441
 1490W        W 5690   1.732   2.697  10.628
 1491W        W 5691  10.848   9.861   9.191
 1492W        W 5692   0.282   7.635  10.822
 1493W        W 5693   9.152   6.235   2.289
 1494W        W 5694   7.481   5.745  11.720
 1495W        W 5695   5.939   5.174  11.374
 1496W        W 5696   1.466   6.182   1.667
 1497W        W 5697   1.903   6.144   1.402
 1498W        W 5698  10.938   4.066   0.588
 1499W        W 5699   9.458   5.949   9.713
 1500W        W 5700   2.569   5.263  11.815
 1501W        W 5701   7.915   1.356   3.157
 1502W        W 5702   2.387   0.975  11.990
 1503W        W 5703   6.124   1.259  10.799
 1504W        W 5704   5.255   1.548  10.599
 1505W        W 5705   0.054   0.352   9.493
 1506W        W 5706   0.393   8.436   0.979
 1507W        W 5707   2.065   4.030  11.403
 1508W        W 5708   2.871   0.325   9.924
 1509W        W 5709   0.252   5.609   2.705
 1510W        W 5710   6.466   2.073  11.871
 1511W        W 5711   4.254   2.554  11.875
 1512W        W 5712   3.554   2.078  10.004
 1513W        W 5713   1.024   2.064   0.088
 1514W        W 5714   6.576   8.135   9.503
 1515W        W 5715   0.157  10.535   2.354
 1516W        W 5716   1.328   3.990   1.961
 1517W        W 5717   4.342  10.980   9.012
 1518W        W 5718  10.950   6.718   9.729
 1519W        W 5719   1.397  10.405   3.348
 1520W        W 5720   2.505   5.785  10.001
 1521W        W 5721   4.887   2.360   3.414
 1522W        W 5722   3.295   5.009  10.053
 1523W        W 5723   2.106   4.575  11.419
 1524W        W 5724  11.336   3.310  10.581
 1525W        W 5725   1.677   7.476   1.718
 1526W        W 5726   6.581   0.771   8.902
 1527W        W 5727   7.827   9.861  11.308
 1528W        W 5728  10.665   4.292  11.766
 1529W        W 5729   6.820   0.998  11.515
 1530W        W 5730   3.168   9.774   0.473
 1531W        W 5731   3.741   2.783   1.158
 1532W        W 5732   7.355   5.618  10.816
 1533W        W 5733   7.155   4.877  11.173
 1534W        W 5734   8.531   8.715   3.944
 1535W        W 5735   8.003   5.736  10.034
 1536W        W 5736  10.538   5.996   2.754
 1537W        W 5737   6.457   4.723  10.186
 1538W        W 5738   2.510   0.558   8.578
 1539W        W 5739   3.304   2.722  10.445
 1540W        W 5740   5.704   1.817   8.538
 1541W        W 5741   5.824   6.126   1.357
 1542W        W 5742   1.879   7.495   9.026
 1543W        W 5743   9.978   9.849  11.721
 1544W        W 5744   1.476   3.292   2.708
 1545W        W 5745   7.741   0.064   0.355
 1546W        W 5746   8.483  11.442   2.122
 1547W        W 5747   5.190   3.967   3.573
 1548W        W 5748   3.782   8.506   0.701
 1549W        W 5749   7.971   1.423   2.664
 1550W        W 5750   3.805   0.743   0.856
 1551W        W 5751   8.025   8.448   2.344
 1552W        W 5752  10.484   2.289   2.979
 1553W        W 5753   2.212   8.101   9.921
 1554W        W 5754  10.987   7.187  10.986
 1555W        W 5755   4.557   3.526   8.647
 1556W        W 5756   5.041   3.557   8.797
 1557W        W 5757   3.852   1.263   1.676
 1558W        W 5758  11.055   0.397   2.900
 1559W        W 5759  10.561   5.207   2.247
 1560W        W 5760   7.201   5.272  10.446
 1561W        W 5761   4.800   3.568   2.443
 1562W        W 5762   8.924   1.977   8.960
 1563W        W 5763   8.620   3.330   0.788
 1564W        W 5764   5.695   2.721   0.011
 1565W        W 5765   4.583  10.775   9.435
 1566W        W 5766   0.833   4.705  10.454
 1567W        W 5767   2.842   1.360   2.813
 1568W        W 5768   5.267   5.085   1.960
 1569W        W 5769   3.297   7.465   8.978
 1570W        W 5770   5.539   2.685   1.444
 1571W        W 5771   4.243   0.747   9.075
 1572W        W 5772   5.553   4.963  10.875
 1573W        W 5773  10.346   4.760  10.718
 1574W        W 5774  10.937   9.862   2.216
 1575W        W 5775   7.949   6.559   2.299
 1576W        W 5776   0.356   5.659   1.049
 1577W        W 5777   8.611   0.740   9.873
 1578W        W 5778  10.508   2.390  11.051
 1579W        W 5779   8.001   7.898   1.785
 1580W        W 5780   5.543   3.863   1.102
 1581W        W 5781   9.107   8.398   0.035
 1582W        W 5782   9.702   5.115  10.005
 1583W        W 5783   9.915   9.108   9.571
 1584W        W 5784  11.288   7.216   0.770
 1585W        W 5785   4.674  10.701  11.024
 1586W        W 5786   9.521  10.094   0.350
 1587W        W 5787   0.722   0.638   0.221
 1588W        W 5788   2.773   6.636   1.778
 1589W        W 5789   3.182   0.428  10.524
 1590W        W 5790   4.825   5.133   0.523
 1591W        W 5791   0.819   4.519   9.902
 1592W        W 5792   1.523   1.863   1.157
 1593W        W 5793   3.979   2.638   9.089
 1594W        W 5794   4.418   6.622   9.058
 1595W        W 5795   9.483   0.091   9.907
 1596W        W 5796  10.573   8.553   0.824
 1597W        W 5797  10.803   2.704   0.707
 1598W        W 5798   0.531  11.020   3.159
 1599W        W 5799   9.006  11.350   2.204
 1600W        W 5800  10.411   3.823  10.845
 1601W        W 5801   1.717   7.266  10.705
 1602W        W 5802   0.905  11.358   2.480
 1603W        W 5803   4.010   1.073   1.205
 1604W        W 5804   0.093   4.604   9.181
 1605W        W 5805  11.369  10.835   1.278
 1606W        W 5806   1.259   8.633  11.407
 1607W        W 5807   1.851   3.382   8.851
 1608W        W 5808   4.346   2.271  10.498
 1609W        W 5809   0.639   3.309   3.213
 1610W        W 5810   3.018   9.450   2.705
 1611W        W 5811   7.605   7.196  11.968
 1612W        W 5812   1.642   0.171  10.737
 1613W        W 5813   7.405   9.834  11.564
 1614W        W 5814  11.404   4.543  11.480
 1615W        W 5815  11.053   2.020   8.954
 1616W        W 5816   8.630   6.416  10.232
 1617W        W 5817   0.262  11.003  11.953
 1618W        W 5818   2.487   6.886   4.075
 1619W        W 5819   4.620   7.055  11.606
 1620W        W 5820   9.849   1.222   1.686
 1621W        W 5821   5.205   1.362   2.782
 1622W        W 5822   1.721   4.898   1.854
 1623W        W 5823   3.821  10.014   2.692
 1624W        W 5824   8.850   2.819   2.321
 1625W        W 5825   4.473   8.212   9.063
 1626W        W 5826   6.728   3.593   9.435
 1627W        W 5827   9.831   6.973   9.089
 1628W        W 5828   4.424   2.773   9.282
 1629W        W 5829   8.624   8.885   2.443
 1630W        W 5830   2.210   0.987  10.364
 1631W        W 5831   2.527   4.501   0.550
 1632W        W 5832   6.063   7.937   9.532
 1633W        W 5833   1.543   1.312   2.250
 1634W        W 5834   4.336   1.474   1.754
 1635W        W 5835   1.494   8.652   1.496
 1636W        W 5836   2.891   2.352  11.609
 1637W        W 5837   8.366   1.387   3.410
 1638W        W 5838   5.003   7.237   9.644
 1639W        W 5839   2.539   3.553   2.581
 1640W        W 5840  10.319   7.945   0.420
 1641W        W 5841   3.836   5.968   0.464
 1642W        W 5842   3.803   0.927  10.894
 1643W        W 5843   5.427   3.299   1.608
 1644W        W 5844   7.277   3.812  11.353
 1645W        W 5845   3.519   0.880   3.390
 1646W        W 5846   2.199   1.767  11.037
 1647W        W 5847   2.234   5.217   0.199
 1648W        W 5848   0.025   4.226  10.252
 1649W        W 5849   2.835   5.064   2.587
 1650W        W 5850   7.928   5.048   9.524
 1651W        W 5851   2.878   9.865   0.894
 1652W        W 5852   4.030   9.845   0.075
 1653W        W 5853   9.087   3.950  11.260
 1654W        W 5854  10.766  10.761   9.159
 1655W        W 5855  11.425   0.052   3.550
 1656W        W 5856   0.539   7.467   0.203
 1657W        W 5857   4.710   2.099  10.795
 1658W        W 5858   8.108   3.189   1.168
 1659W        W 5859   9.159   6.263   2.813
 1660W        W 5860   1.606   8.421   8.884
 1661W        W 5861  10.902   5.750   9.987
 1662W        W 5862   5.526   0.255   0.470
 1663W        W 5863   2.196   8.172   2.759
 1664W        W 5864   0.317  11.257   3.726
 1665W        W 5865   1.065   2.228   2.374
 1666W        W 5866   8.020   7.545   2.149
 1667W        W 5867   9.080   1.988   2.644
 1668W        W 5868   2.318   5.575  11.438
 1669W        W 5869   6.326   8.314  10.354
 1670W        W 5870   8.096   8.000  11.580
 1671W        W 5871   0.181   4.208   3.357
 1672W        W 5872  11.476   5.191   2.780
 1673W        W 5873   2.919  10.213   0.451
 1674W        W 5874   6.098   3.010   2.360
 1675W        W 5875   2.031   4.806   2.749
 1676W        W 5876   9.043  11.149  11.291
 1677W        W 5877   4.771   9.941   2.963
 1678W        W 5878   8.360   7.616  10.733
 1679W        W 5879   4.732   9.399   9.750
 1680W        W 5880   8.093   0.664  11.662
 1681W        W 5881   1.661   9.545   9.607
 1682W        W 5882   7.571   2.016   3.415
 1683W        W 5883   8.931   1.448   8.826
 1684W        W 5884   1.985   7.625   9.915
 1685W        W 5885   0.013  10.941  10.641
 1686W        W 5886   0.208   0.289  11.030
 1687W        W 5887   4.343  10.449   9.098
 1688W        W 5888   6.619   4.392   8.455
 1689W        W 5889   8.614  11.392  11.436
 1690W        W 5890   4.706   2.067   8.487
 1691W        W 5891   9.419   4.125   3.144
 1692W        W 5892   9.016   8.776   9.373
 1693W        W 5893   2.102   7.227   1.874
 1694W        W 5894   9.570   2.618  10.852
 1695W        W 5895   3.272   2.912   1.345
 1696W        W 5896   7.074   1.818   9.466
 1697W        W 5897   3.557   3.849  11.810
 1698W        W 5898  11.117   4.980  10.487
 1699W        W 5899   8.925   9.134   3.441
 1700W        W 5900  11.236   9.373   2.420
 1701W        W 5901   4.314   2.451   3.209
 1702W        W 5902   0.305   7.527   0.746
 1703W        W 5903   3.055   6.148   9.353
 1704W        W 5904   1.323   0.316  11.724
 1705W        W 5905  10.461   9.384   1.267
 1706W        W 5906   9.001   3.766  10.794
 1707W        W 5907   6.009   2.308  10.105
 1708W        W 5908  11.275   3.304  10.076
 1709W        W 5909   8.816   7.107   2.565
 1710W        W 5910   8.359   9.871  11.312
 1711W        W 5911   2.769  11.388   0.702
 1712W        W 5912   7.522   2.712   2.671
 1713W        W 5913  10.517   9.559   8.788
 1714W        W 5914   4.626   8.567   3.282
 1715W        W 5915   0.420   1.931   3.337
 1716W        W 5916   2.358   2.836   1.327
 1717W        W 5917   6.064   9.345  11.064
 1718W        W 5918   7.325   7.819   1.450
 1719W        W 5919   6.142   0.509   8.773
 1720W        W 5920   6.468  10.879   8.825
 1721W        W 5921   7.932   0.481   8.821
 1722W        W 5922   7.113   7.234   9.362
 1723W        W 5923   5.951   7.566   0.241
 1724W        W 5924   1.702   7.421   3.003
 1725W        W 5925  10.458   3.135   2.382
 1726W        W 5926   1.424   9.791   3.800
 1727W        W 5927  10.676   6.976   1.390
 1728W        W 5928   8.359   6.865   9.347
 1729W        W 5929   7.093  10.034   9.091
 1730W        W 5930   4.420   8.096   3.209
 1731W        W 5931   4.586   7.093  10.531
 1732W        W 5932   2.885   9.466  10.884
 1733W        W 5933   3.103   9.950  11.062
 1734W        W 5934   8.146   6.646  10.400
 1735W        W 5935  11.293   1.415   1.805
 1736W        W 5936   4.207   7.617   3.118
 1737W        W 5937   2.152   7.161   0.985
 1738W        W 5938   0.331   1.319   9.418
 1739W        W 5939  11.047  11.259   1.262
 1740W        W 5940   4.481   5.288   0.953
 1741W        W 5941   5.247   7.829   1.628
 1742W        W 5942   9.697   5.489   9.473
 1743W        W 5943   9.135   4.896   8.724
 1744W        W 5944  11.325   5.462  10.388
 1745W        W 5945  10.746   0.562   2.516
 1746W        W 5946   8.250   1.479   2.227
 1747W        W 5947   9.629   7.140  11.802
 1748W        W 5948   1.778   0.567  11.510
 1749W        W 5949   8.522   0.466   2.248
 1750W        W 5950  10.957   7.220   3.129
 1751W        W 5951  10.905   9.135   2.720
 1752W        W 5952   1.725   2.680  11.151
 1753W        W 5953   2.583   7.246   2.763
 1754W        W 5954   6.504   0.165   0.962
 1755W        W 5955   8.639   1.012   1.573
 1756W        W 5956   7.091   8.909  10.771
 1757W        W 5957   9.011   7.441   9.075
 1758W        W 5958   4.875   3.237   3.654
 1759W        W 5959   0.367   8.607  11.848
 1760W        W 5960   5.625   2.738   2.362
 1761W        W 5961  11.417   5.962   0.560
 1762W        W 5962   1.436   2.704   2.500
 1763W        W 5963   1.515   7.175   8.553
 1764W        W 5964   7.202   3.343  11.119
 1765W        W 5965  10.838   7.465  11.804
 1766W        W 5966   6.680   0.546   0.671
 1767W        W 5967   4.360   2.060  11.929
 1768W        W 5968  10.083   6.846  10.326
 1769W        W 5969   1.759  11.283  11.930
 1770W        W 5970   2.212   5.653   0.488
 1771W        W 5971   3.105  11.437  10.131
 1772W        W 5972   3.200   6.462   1.151
 1773W        W 5973  10.890   3.841   3.112
 1774W        W 5974   3.673   9.814   0.420
 1775W        W 5975   3.335   3.759   2.035
 1776W        W 5976   3.400  11.168  11.540
 1777W        W 5977   3.375   4.242   1.785
 1778W        W 5978   3.605   4.811   0.166
 1779W        W 5979   2.966   4.241   0.439
 1780W        W 5980   2.457  11.419   1.882
 1781W        W 5981   8.390   3.131   2.187
 1782W        W 5982   6.279  10.935   1.834
 1783W        W 5983   3.301  11.008   1.995
 1784W        W 5984   0.871   3.198   9.971
 1785W        W 5985   7.995  10.481  10.047
 1786W        W 5986   7.414   8.985  10.381
 1787W        W 5987   8.164   5.165   2.721
 1788W        W 5988   5.705  10.329   9.375
 1789W        W 5989   6.631   7.303   9.181
 1790W        W 5990   2.095   5.614   2.435
 1791W        W 5991   5.424   5.112  11.346
 1792W        W 5992   6.272   0.854   1.407
 1793W        W 5993   7.868   4.546   0.710
 1794W        W 5994   4.133   5.150  10.035
 1795W        W 5995   6.184   3.299  11.236
 1796W        W 5996  10.401   0.288   2.242
 1797W        W 5997   4.303  10.564   0.550
 1798W        W 5998   2.829   5.048   9.874
 1799W        W 5999   7.649   7.595   2.743
 1800W        W 6000   0.508   1.495  10.820
 1801W        W 6001   2.456   9.856   9.368
 1802W        W 6002   9.067   0.391   9.954
 1803W        W 6003   8.953  10.503  10.314
 1804W        W 6004   9.409   1.501   9.587
 1805W        W 6005  11.272   0.977   8.875
 1806W        W 6006   8.591   3.325   9.421
 1807W        W 6007   0.299   5.745  11.350
 1808W        W 6008   4.341   8.326  10.058
 1809W        W 6009   1.534   7.800  11.475
 1810W        W 6010   6.876   3.312   0.481
 1811W        W 6011   8.061   0.677   1.011
 1812W        W 6012   9.949  10.990   9.461
 1813W        W 6013   2.839   3.926   1.972
 1814W        W 6014   5.459   5.286   0.770
 1815W        W 6015   9.527   7.061   4.267
 1816W        W 6016   8.116  10.579   9.199
 1817W        W 6017   5.599   5.725  11.967
 1818W        W 6018  10.015   9.997   0.216
 1819W        W 6019   3.706  11.354   2.162
 1820W        W 6020   3.778   1.223  11.961
 1821W        W 6021   6.299   4.322   1.742
 1822W        W 6022   1.918   2.627   2.260
 1823W        W 6023   3.734   0.207   0.800
 1824W        W 6024  11.469   2.138   0.313
 1825W        W 6025   0.816   9.583   0.307
 1826W        W 6026   9.331   5.502  10.498
 1827W        W 6027   4.292   9.541   1.447
 1828W        W 6028   7.899   4.942  11.874
 1829W        W 6029   7.758   8.658   1.307
 1830W        W 6030   0.393   5.199   2.311
 1831W        W 6031   5.034   0.986   9.431
 1832W        W 6032   2.098   7.477   1.409
 1833W        W 6033   5.059   8.506   3.512
 1834W        W 6034   0.584   8.386  10.504
 1835W        W 6035   6.114   4.053  10.139
 1836W        W 6036   9.997   4.626  11.076
 1837W        W 6037   5.984   3.291   0.942
 1838W        W 6038   7.609  10.479   0.721
 1839W        W 6039   5.299   6.957   0.375
 1840W        W 6040   6.023   2.386  11.761
 1841W        W 6041   4.670   4.796  11.582
 1842W        W 6042   1.565   0.827  11.910
 1843W        W 6043   3.611   5.096  11.286
 1844W        W 6044   5.417   5.740   9.171
 1845W        W 6045  10.249   0.409  11.016
 1846W        W 6046   6.266   6.584   3.350
 1847W        W 6047   6.492   5.568  11.035
 1848W        W 6048   7.960   0.567   2.420
 1849W        W 6049   8.680   2.452   9.405
 1850W        W 6050  11.298   7.024  10.262
 1851W        W 6051   9.538   3.281   1.309
 1852W        W 6052   9.130   5.986   4.083
 1853W        W 6053  11.425  10.380   1.519
 1854W        W 6054   7.166   6.865   0.417
 1855W        W 6055   1.943   5.532  10.812
 1856W        W 6056   8.677   3.239  10.776
 1857W        W 6057   9.078   3.693   2.479
 1858W        W 6058   4.109   0.352  11.470
 1859W        W 6059   3.363   2.381   1.328
 1860W        W 6060   0.365   4.161   2.031
 1861W        W 6061   5.200   6.729   1.637
 1862W        W 6062   6.768   6.706   1.533
 1863W        W 6063  10.086   8.165   0.804
 1864W        W 6064   3.102   1.236   8.821
 1865W        W 6065   4.531   9.460   8.481
 1866W        W 6066   6.151   2.187   0.263
 1867W        W 6067  10.743   0.426  10.946
 1868W        W 6068   8.592   9.982   8.849
 1869W        W 6069   1.172   5.254   9.037
 1870W        W 6070   3.729   9.310   8.976
 1871W        W 6071   5.017  11.278   0.024
 1872W        W 6072  10.323   3.095   0.032
 1873W        W 6073   6.884   2.239  11.629
 1874W        W 6074   2.285   1.262  11.185
 1875W        W 6075   7.137   2.701  11.745
 1876W        W 6076   4.158   3.329   0.378
 1877W        W 6077   4.485   3.521   1.244
 1878W        W 6078   5.329   2.093   3.120
 1879W        W 6079   3.513   2.855   9.467
 1880W        W 6080   9.642   6.236   1.889
 1881W        W 6081   3.102   8.786   8.674
 1882W        W 6082   2.623   9.587  11.432
 1883W        W 6083  10.299  10.044  10.477
 1884W        W 6084   0.300   6.714  11.013
 1885W        W 6085   2.350   9.872   0.881
 1886W        W 6086  10.096   9.511   0.371
 1887W        W 6087   0.356   2.318   0.626
 1888W        W 6088   1.937   0.153   0.407
 1889W        W 6089   9.467   9.407   2.644
 1890W        W 6090  11.408   6.615   9.962
 1891W        W 6091   3.095   8.386   2.313
 1892W        W 6092   3.083   8.531  11.814
 1893W        W 6093   5.633   1.665   0.226
 1894W        W 6094   2.993   4.876   3.866
 1895W        W 6095   4.730   6.123  10.268
 1896W        W 6096   1.633   6.780  10.577
 1897W        W 6097   2.264   6.232   1.740
 1898W        W 6098   1.167   3.680   2.953
 1899W        W 6099   4.312   3.161  11.488
 1900W        W 6100   7.449   6.128   8.650
 1901W        W 6101   9.918  10.926  10.386
 1902W        W 6102   5.904   7.103   3.434
 1903W        W 6103   2.320   8.691   1.789
 1904W        W 6104   1.754   6.244   2.478
 1905W        W 6105   1.324   0.949   1.520
 1906W        W 6106   6.976   4.247  11.332
 1907W        W 6107   6.092   1.281   2.667
 1908W        W 6108   8.628   5.348   1.467
 1909W        W 6109   5.806   3.831  10.528
 1910W        W 6110   3.185   0.723  11.463
 1911W        W 6111   4.705   3.709   3.487
 1912W        W 6112   5.897   4.564   3.421
 1913W        W 6113   0.458   1.446   1.235
 1914W        W 6114   9.530  10.058  11.814
 1915W        W 6115   2.798   8.099  10.795
 1916W        W 6116   2.248   3.510  11.435
 1917W        W 6117   3.630   5.248  11.828
 1918W        W 6118   2.487   4.739  10.101
 1919W        W 6119   7.970   9.575   3.472
 1920W        W 6120   1.112   2.218  10.024
 1921W        W 6121   1.651   9.421   9.088
 1922W        W 6122   7.189   4.203   3.255
 1923W        W 6123   2.262   1.467   9.458
 1924W        W 6124   7.342  11.342   3.025
 1925W        W 6125   3.252   5.254   9.616
 1926W        W 6126   2.508   7.690   9.872
 1927W        W 6127   1.389   8.316   2.771
 1928W        W 6128   2.024   5.622   9.981
 1929W        W 6129   2.373   2.323   1.230
 1930W        W 6130   2.177   6.662   9.930
 1931W        W 6131   0.751   9.954  10.529
 1932W        W 6132   4.681   7.972   2.370
 1933W        W 6133   2.096   6.160  10.021
 1934W        W 6134  10.729   5.878   9.429
 1935W        W 6135   0.376   8.428   3.417
 1936W        W 6136   1.439   2.308   1.391
 1937W        W 6137   3.082   5.015   3.371
 1938W        W 6138   0.710   8.572   2.722
 1939W        W 6139   1.400   4.876   1.434
 1940W        W 6140   9.071   8.475   8.957
 1941W        W 6141   3.156   4.027   3.254
 1942W        W 6142   5.616   8.080   3.941
 1943W        W 6143  10.052   4.571   8.941
 1944W        W 6144   8.162   9.755   9.573
 1945W        W 6145  10.749  11.394   9.421
 1946W        W 6146   0.318   6.598   1.624
 1947W        W 6147   7.384   2.182   9.862
 1948W        W 6148   9.526   9.136   8.456
 1949W        W 6149   8.111   5.235   9.975
 1950W        W 6150   3.953   9.538   2.786
 1951W        W 6151   0.378   6.566   0.964
 1952W        W 6152  10.969   8.946   3.183
 1953W        W 6153   0.430   2.831   8.868
 1954W        W 6154   3.306  11.425   0.426
 1955W        W 6155   0.780   5.903  11.276
 1956W        W 6156   6.456   8.460   0.414
 1957W        W 6157   6.483   1.712   2.534
 1958W        W 6158   6.598   2.738  11.103
 1959W        W 6159   2.836   8.393  10.384
 1960W        W 6160   6.036   5.525   2.134
 1961W        W 6161   0.940   2.197  10.530
 1962W        W 6162   4.692  10.494   2.771
 1963W        W 6163   4.674   9.341   0.687
 1964W        W 6164   8.912  10.399   9.782
 1965W        W 6165   2.015   2.149   2.451
 1966W        W 6166   8.646  10.743  10.786
 1967W        W 6167   1.260   0.474   1.345
 1968W        W 6168   5.713   0.867   3.262
 1969W        W 6169   8.378  10.320   2.121
 1970W        W 6170   4.379   1.342   0.360
 1971W        W 6171   0.405   1.260   2.982
 1972W        W 6172   1.216   5.825   8.507
 1973W        W 6173   4.176   3.688   0.732
 1974W        W 6174   7.451   5.071   8.932
 1975W        W 6175   4.767   4.415  11.914
 1976W        W 6176   2.682   3.512  10.866
 1977W        W 6177   3.123   9.518  11.340
 1978W        W 6178   5.612   8.477   1.266
 1979W        W 6179  10.585   0.031  11.775
 1980W        W 6180   9.008   4.418   3.120
 1981W        W 6181  11.107   4.577   9.040
 1982W        W 6182  11.127   0.554   0.885
 1983W        W 6183   1.509   0.635  10.934
 1984W        W 6184   2.776   5.382  10.269
 1985W        W 6185   3.114   5.111   1.146
 1986W        W 6186   8.242   5.246   1.870
 1987W        W 6187   9.825   0.952   3.479
 1988W        W 6188   1.894   8.039   9.114
 1989W        W 6189   2.217   4.339  11.993
 1990W        W 6190   2.826   2.265   0.908
 1991W        W 6191   4.365   9.521  10.092
 1992W        W 6192   8.520   9.879   2.377
 1993W        W 6193   0.075  10.429   0.999
 1994W        W 6194   5.133   7.652  11.093
 1995W        W 6195   1.877   1.378  10.883
 1996W        W 6196   4.127   3.148   1.396
 1997W        W 6197   7.274   9.262   0.175
 1998W        W 6198   6.746   1.400   9.581
 1999W        W 6199  10.198   1.802  11.736
 2000W        W 6200  10.516  10.922   9.575
 2001W        W 6201   1.876   1.375  10.351
 2002W        W 6202   4.752   6.712   0.398
 2003W        W 6203   0.242   6.974   0.698
 2004W        W 6204  11.272   4.576   2.388
 2005W        W 6205  10.065   8.137   2.144
 2006W        W 6206   3.356   5.124   2.368
 2007W        W 6207  10.090   8.745   1.501
 2008W        W 6208   5.679  10.982   2.961
 2009W        W 6209  11.030  11.424   2.735
 2010W        W 6210  10.909  10.320   1.336
 2011W        W 6211   5.018  10.962  11.289
 2012W        W 6212   8.176   8.950   1.309
 2013W        W 6213   8.706   8.150   9.133
 2014W        W 6214   6.052   8.228   1.225
 2015W        W 6215   8.854   3.778   0.916
 2016W        W 6216   2.295   3.805  11.004
 2017W        W 6217   9.796   2.563   1.814
 2018W        W 6218   1.172   4.775   3.036
 2019W        W 6219   4.252   4.592   0.909
 2020W        W 6220   7.113  10.950   0.197
 2021W        W 6221   8.993  11.367   9.993
 2022W        W 6222  11.308   2.369   9.946
 2023W        W 6223   7.249   4.113   1.544
 2024W        W 6224   1.215   6.946   9.994
 2025W        W 6225   3.215   8.930   2.844
 2026W        W 6226   2.453   0.170   0.985
 2027W        W 6227   3.712   5.775   1.991
 2028W        W 6228  10.015   3.617   9.078
 2029W        W 6229   6.091   0.868   1.910
 2030W        W 6230  10.012   3.669  10.022
 2031W        W 6231   8.450  10.039   0.778
 2032W        W 6232   4.819   2.078   0.157
 2033W        W 6233   6.683   8.645   9.430
 2034W        W 6234   1.713   8.831   0.305
 2035W        W 6235   4.411   5.906   2.477
 2036W        W 6236  10.853   1.205   9.099
 2037W        W 6237  11.038   7.388   0.312
 2038W        W 6238  11.099   5.546   9.539
 2039W        W 6239   9.090   7.937  11.232
 2040W        W 6240   5.809   4.868   9.582
 2041W        W 6241   5.744   3.839   9.395
 2042W        W 6242   0.248   5.560   0.555
 2043W        W 6243   9.595   8.859   9.885
 2044W        W 6244   1.817   6.260   0.512
 2045W        W 6245   3.870   7.521  10.117
 2046W        W 6246   7.183   1.707   9.950
 2047W        W 6247   0.145   5.121   0.055
 2048W        W 6248   3.485   0.779   9.543
 2049W        W 6249   3.637   3.284   1.339
 2050W        W 6250  10.433  10.609   8.742
 2051W        W 6251   6.914   4.931  10.725
 2052W        W 6252   9.117   8.587   1.356
 2053W        W 6253   9.617   3.244   8.964
 2054W        W 6254   1.435   5.245  10.946
 2055W        W 6255   4.652   3.674   2.937
 2056W        W 6256   0.581   5.998  11.745
 2057W        W 6257   2.338   4.314  11.061
 2058W        W 6258   1.845   4.642   2.302
 2059W        W 6259   6.513   8.854   8.941
 2060W        W 6260   8.182   3.311  10.937
 2061W        W 6261   9.216   5.548  11.746
 2062W        W 6262   8.294   4.408   1.477
 2063W        W 6263   3.273   4.678  11.337
 2064W        W 6264   9.549   5.023  10.491
 2065W        W 6265   8.511   0.573   0.768
 2066W        W 6266   8.318   8.019   0.473
 2067W        W 6267   5.442   3.285   2.112
 2068W        W 6268   8.170  10.458   0.933
 2069W        W 6269   6.841   0.755  10.735
 2070W        W 6270   8.283   3.768   3.492
 2071W        W 6271   7.575  10.223   2.166
 2072W        W 6272   9.123   5.204   0.987
 2073W        W 6273   8.827  10.036   3.496
 2074W        W 6274   0.125   7.987   8.641
 2075W        W 6275   3.741   7.660   8.834
 2076W        W 6276   9.883   5.168   8.757
 2077W        W 6277   3.531  11.376   3.528
 2078W        W 6278   8.020   3.103  11.375
 2079W        W 6279  10.095   0.428   1.835
 2080W        W 6280   1.043   4.124   1.021
 2081W        W 6281   7.758  11.164  10.523
 2082W        W 6282   9.981   3.706  10.565
 2083W        W 6283   6.624   3.168   8.670
 2084W        W 6284   7.581   8.116   2.750
 2085W        W 6285   4.474   1.372  10.330
 2086W        W 6286   8.353   2.390   0.882
 2087W        W 6287   3.258  10.591   2.967
 2088W        W 6288   4.050   8.643  11.491
 2089W        W 6289  11.195   6.965   1.320
 2090W        W 6290  10.853   2.064   2.709
 2091W        W 6291   5.847   6.608   3.051
 2092W        W 6292   6.165   9.467   4.031
 2093W        W 6293   6.308  10.539   2.980
 2094W        W 6294   2.520   9.531   2.942
 2095W        W 6295   8.921   4.074   8.530
 2096W        W 6296   3.307   8.950  11.992
 2097W        W 6297   4.783   4.793  10.311
 2098W        W 6298   0.250   6.256   3.307
 2099W        W 6299   1.623   2.951   3.510
 2100W        W 6300   9.588   8.020  11.775
 2101W        W 6301   2.188   9.695   2.152
 2102W        W 6302   8.621   8.035  10.975
 2103W        W 6303   2.722   8.179   9.940
 2104W        W 6304   2.903   9.466   1.214
 2105W        W 6305   6.115   1.669   1.530
 2106W        W 6306   6.599   1.893   3.459
 2107W        W 6307  10.346   2.691   2.636
 2108W        W 6308   3.146   3.413   1.253
 2109W        W 6309   7.994   2.585  11.305
 2110W        W 6310   5.983   6.217  11.086
 2111W        W 6311   2.772   3.302   2.959
 2112W        W 6312   0.460  10.462   9.632
 2113W        W 6313  11.362   9.534   1.175
 2114W        W 6314   6.326   7.113  11.515
 2115W        W 6315   0.329   2.622   0.230
 2116W        W 6316   9.423   6.064   1.003
 2117W        W 6317   2.604   8.480   0.017
 2118W        W 6318   4.675   8.116   1.009
 2119W        W 6319   6.844   3.490   0.004
 2120W        W 6320   1.993   5.591   8.746
 2121W        W 6321  10.907   0.300  11.416
 2122W        W 6322   9.080   7.595  10.650
 2123W        W 6323   5.310   0.839   0.401
 2124W        W 6324   7.343  10.502   0.275
 2125W        W 6325  10.699   1.834  11.828
 2126W        W 6326   5.665   6.725   0.073
 2127W        W 6327   9.825   4.102   8.885
 2128W        W 6328   7.700   6.427   9.720
 2129W        W 6329   9.393   2.945   0.372
 2130W        W 6330   7.946   7.237  10.056
 2131W        W 6331   1.772   8.087   2.522
 2132W        W 6332   5.571   3.527  10.897
 2133W        W 6333   9.793   1.705   1.042
 2134W        W 6334   1.378   6.228   0.234
 2135W        W 6335   5.294   8.661   9.485
 2136W        W 6336   3.411   0.525   8.775
 2137W        W 6337   3.393   9.491   1.388
 2138W        W 6338   8.018   2.630   2.845
 2139W        W 6339   2.332   1.564   1.945
 2140W        W 6340   9.860   9.391  11.507
 2141W        W 6341   4.999   3.769   8.321
 2142W        W 6342   0.267   1.330   0.411
 2143W        W 6343   2.571   4.238   9.274
 2144W        W 6344   3.686   5.273   9.865
 2145W        W 6345   5.932   5.808  10.777
 2146W        W 6346   5.634   6.232   2.261
 2147W        W 6347   2.141   0.757   2.343
 2148W        W 6348   8.919   6.723   2.199
 2149W        W 6349   3.694   5.584  11.387
 2150W        W 6350   5.774   1.659  10.671
 2151W        W 6351   0.792   7.913   0.240
 2152W        W 6352  11.300   1.928   2.497
 2153W        W 6353   7.009   5.059   1.039
 2154W        W 6354  11.189   2.413  11.542
 2155W        W 6355   7.044   7.980   2.810
 2156W        W 6356   9.482   6.431   1.371
 2157W        W 6357   1.192   3.627   9.959
 2158W        W 6358   7.704   5.632   2.065
 2159W        W 6359   3.405   9.055   1.055
 2160W        W 6360   2.934   3.879   1.138
 2161W        W 6361   9.501   9.966   0.864
 2162W        W 6362   5.254   8.740   3.112
 2163W        W 6363   8.799   8.212   0.554
 2164W        W 6364   6.939   9.391   2.002
 2165W        W 6365   5.650   1.514   0.741
 2166W        W 6366   7.459   8.056   9.554
 2167W        W 6367   2.072  10.599   3.614
 2168W        W 6368   8.367   1.179   2.936
 2169W        W 6369   9.219   5.594   9.341
 2170W        W 6370  10.490   9.329   0.689
 2171W        W 6371   8.581   5.928   3.587
 2172W        W 6372   2.268   6.334  10.863
 2173W        W 6373   7.972   4.765   3.042
 2174W        W 6374   5.317   2.407   0.335
 2175W        W 6375   9.559   6.512   3.069
 2176W        W 6376  11.288   3.971   0.217
 2177W        W 6377  10.804   3.642   1.476
 2178W        W 6378   6.547   7.368  10.538
 2179W        W 6379   9.529  10.763  11.072
 2180W        W 6380   5.666   0.517   8.994
 2181W        W 6381   1.871   5.872  10.390
 2182W        W 6382   6.941   9.713   9.996
 2183W        W 6383   3.709   1.944   1.159
 2184W        W 6384   6.407   4.237  11.347
 2185W        W 6385   2.468  10.718   2.200
 2186W        W 6386   1.853   8.913   9.021
 2187W        W 6387   5.346   4.169   1.456
 2188W        W 6388   6.162   5.428   3.100
 2189W        W 6389  10.830  10.029  10.457
 2190W        W 6390   4.533   0.865   9.481
 2191W        W 6391   5.766   2.380   3.160
 2192W        W 6392   1.677   6.689  10.075
 2193W        W 6393   4.627   5.714   9.972
 2194W        W 6394   3.047   8.020   2.697
 2195W        W 6395   1.388  10.202   1.751
 2196W        W 6396   0.841   3.165   1.927
 2197W        W 6397   7.820   8.581   2.790
 2198W        W 6398   8.981   3.145  11.612
 2199W        W 6399  10.488   4.196   0.398
 2200W        W 6400   9.081   7.957  11.755
 2201W        W 6401  10.025   1.552   2.924
 2202W        W 6402   0.684   8.824   9.555
 2203W        W 6403   9.308   9.936   1.325
 2204W        W 6404   6.252   2.365   9.182
 2205W        W 6405   8.860   5.552   0.633
 2206W        W 6406  10.533   1.519   8.804
 2207W        W 6407   3.684  10.017   3.500
 2208W        W 6408   3.736   8.547   1.730
 2209W        W 6409   8.716   0.997  10.311
 2210W        W 6410   5.236   7.641   2.111
 2211W        W 6411   7.190  10.051  10.498
 2212W        W 6412  10.322   6.193   9.481
 2213W        W 6413   2.828   1.501   9.926
 2214W        W 6414  10.352   6.036   1.690
 2215W        W 6415  10.078   2.470   3.311
 2216W        W 6416   5.595   2.182  10.389
 2217W        W 6417   0.831   2.687  10.157
 2218W        W 6418   5.689   8.956   1.473
 2219W        W 6419   9.098   6.274   0.377
 2220W        W 6420  11.026   8.346  11.922
 2221W        W 6421  10.868   1.619  10.047
 2222W        W 6422  11.016   8.035   8.811
 2223W        W 6423   3.646   1.650  11.715
 2224W        W 6424  10.037  10.306  11.049
 2225W        W 6425  10.862   4.757   1.130
 2226W        W 6426   9.972   0.888   2.053
 2227W        W 6427   7.447   4.808   3.277
 2228W        W 6428   1.613   7.565   1.207
 2229W        W 6429   7.159   2.848   9.342
 2230W        W 6430  10.530  11.306   1.389
 2231W        W 6431   1.273   9.086   0.202
 2232W        W 6432   1.299   2.923  10.788
 2233W        W 6433   5.639   9.697  11.946
 2234W        W 6434   2.387  10.047   1.804
 2235W        W 6435   5.651  11.033  11.836
 2236W        W 6436   8.882   1.958  10.853
 2237W        W 6437   3.830   6.257   9.979
 2238W        W 6438   7.467   1.518   3.315
 2239W        W 6439   7.262   1.415   1.780
 2240W        W 6440  10.071   3.220   8.720
 2241W        W 6441   3.228   8.147  11.102
 2242W        W 6442   6.589   0.776   1.804
 2243W        W 6443   7.615   1.385   0.325
 2244W        W 6444   6.391   3.184   0.497
 2245W        W 6445   6.138   5.550   1.233
 2246W        W 6446   3.335   0.709  10.968
 2247W        W 6447   4.173   2.421   1.891
 2248W        W 6448   9.865   3.089   0.933
 2249W        W 6449   4.061   9.950   3.180
 2250W        W 6450   3.449   6.072  11.443
 2251W        W 6451   4.953   4.105   4.054
 2252W        W 6452   0.597   6.513   0.457
 2253W        W 6453   9.994   7.644   8.644
 2254W        W 6454   4.775   8.954   2.534
 2255W        W 6455   8.157   9.160  10.787
 2256W        W 6456   3.705   2.384   9.471
 2257W        W 6457   3.952   3.790   9.270
 2258W        W 6458   5.259   2.131   2.297
 2259W        W 6459   9.946   4.749   9.698
 2260W        W 6460   9.383  11.490   9.007
 2261W        W 6461   4.805  10.729   8.997
 2262W        W 6462   3.714   1.248  10.261
 2263W        W 6463   5.940   3.674   9.841
 2264W        W 6464   9.737   4.183   3.561
 2265W        W 6465   0.405   8.157  10.919
 2266W        W 6466   0.166   4.169  10.751
 2267W        W 6467   0.117   8.820   1.408
 2268W        W 6468   3.809   8.089   1.245
 2269W        W 6469   8.189  11.253   0.325
 2270W        W 6470   5.727  11.332   9.478
 2271W        W 6471   2.699   9.998   3.183
 2272W        W 6472  10.294   5.490  11.478
 2273W        W 6473   6.028   1.022   3.672
 2274W        W 6474   1.517   0.557  10.427
 2275W        W 6475   8.135  10.175   8.658
 2276W        W 6476   1.901   6.041   3.327
 2277W        W 6477   5.618   7.941   0.459
 2278W        W 6478   0.645   6.982  11.258
 2279W        W 6479   5.855   5.299   2.669
 2280W        W 6480   6.683   4.140  10.910
 2281W        W 6481   2.170   2.793  10.909
 2282W        W 6482   9.288  10.869   0.786
 2283W        W 6483   8.968   7.057   1.811
 2284W        W 6484   6.482   0.631  11.266
 2285W        W 6485   5.200   0.933  10.907
 2286W        W 6486   3.194   0.832   2.134
 2287W        W 6487   8.088   5.961  11.051
 2288W        W 6488   3.635   2.602   9.928
 2289W        W 6489   5.555   0.457   2.310
 2290W        W 6490   6.074   1.918  11.508
 2291W        W 6491   0.983   1.733   1.061
 2292W        W 6492  10.716   6.281  11.279
 2293W        W 6493   0.777   7.519   9.508
 2294W        W 6494   0.212   8.512   2.938
 2295W        W 6495   3.869   9.402   1.197
 2296W        W 6496   2.259   2.330  10.018
 2297W        W 6497   4.892   4.324   1.690
 2298W        W 6498   6.014   4.562   0.374
 2299W        W 6499  10.223   6.996   0.263
 2300W        W 6500   3.156   4.236   9.633
 2301W        W 6501   0.823   7.642   0.726
 2302W        W 6502   1.092   7.497   0.219
 2303W        W 6503   0.217   4.774   2.555
 2304W        W 6504   6.978   6.595  10.415
 2305W        W 6505   8.396   1.903   1.014
 2306W        W 6506   2.342   0.207   3.025
 2307W        W 6507   9.785   5.765   0.257
 2308W        W 6508  10.005  11.434   0.654
 2309W        W 6509   5.083   0.215  11.737
 2310W        W 6510   1.465   3.011  10.287
 2311W        W 6511   7.580  11.243   3.445
 2312W        W 6512   3.133   9.954   1.365
 2313W        W 6513  10.403  11.025   2.943
 2314W        W 6514   4.014   5.045   1.026
 2315W        W 6515   9.427  11.031   2.328
 2316W        W 6516   2.809   6.763  11.363
 2317W        W 6517   4.398   0.716   1.365
 2318W        W 6518  10.005   5.675  10.832
 2319W        W 6519   0.808   6.578   2.278
 2320W        W 6520   5.659   8.519   2.315
 2321W        W 6521   4.166   9.401  11.874
 2322W        W 6522   2.841   1.852  10.814
 2323W        W 6523   1.923   2.583   1.349
 2324W        W 6524   2.848   2.608   1.310
 2325W        W 6525   2.811   2.830  10.310
 2326W        W 6526  11.370   5.648   9.104
 2327W        W 6527  10.339  10.978   0.956
 2328W        W 6528   1.821   4.604   9.413
 2329W        W 6529  10.843   1.379   0.507
 2330W        W 6530   4.438   7.136   3.100
 2331W        W 6531   4.176   0.271   9.256
 2332W        W 6532   9.056   4.914   3.246
 2333W        W 6533  10.511   8.957   2.426
 2334W        W 6534   8.482   0.708   2.713
 2335W        W 6535   8.185   5.643   2.205
 2336W        W 6536  10.651   0.812   2.955
 2337W        W 6537  10.397   6.130   1.160
 2338W        W 6538   0.991   7.947  10.431
 2339W        W 6539   8.607   6.490  11.166
 2340W        W 6540   0.540   1.015  10.886
 2341W        W 6541   6.005   2.374   9.611
 2342W        W 6542   6.466   8.598  11.501
 2343W        W 6543   3.150  10.755   2.437
 2344W        W 6544  10.833   6.565  10.206
 2345W        W 6545   6.073   7.852   2.728
 2346W        W 6546   0.869   4.046  10.087
 2347W        W 6547   9.425   5.274   8.565
 2348W        W 6548   7.730  11.281   1.227
 2349W        W 6549   6.347  10.751   0.320
 2350W        W 6550   7.856   5.058   3.482
 2351W        W 6551   2.941   7.286  11.282
 2352W        W 6552   9.136   1.821   9.882
 2353W        W 6553   3.646  10.421  10.856
 2354W        W 6554   0.410  10.261   2.716
 2355W        W 6555   0.098   3.720  10.374
 2356W        W 6556   4.673  10.900  10.348
 2357W        W 6557   1.819   1.813  10.601
 2358W        W 6558   1.973   1.839   0.927
 2359W        W 6559   9.241   7.023   0.097
 2360W        W 6560   3.224   9.106  10.045
 2361W        W 6561   5.208   8.835   1.621
 2362W        W 6562   3.165  10.328   9.539
 2363W        W 6563   1.212   6.318   1.238
 2364W        W 6564  11.228   3.443   3.472
 2365W        W 6565   3.388   3.888   0.381
 2366W        W 6566   0.032   2.460   9.025
 2367W        W 6567   0.230   9.770  10.396
 2368W        W 6568   2.132   1.322   8.977
 2369W        W 6569   7.772  10.509   8.808
 2370W        W 6570   7.849   4.036   0.638
 2371W        W 6571  11.182   6.164  10.069
 2372W        W 6572   5.274   1.271   2.140
 2373W        W 6573   9.735   7.585   0.058
 2374W        W 6574   2.675   5.496   0.274
 2375W        W 6575   7.340   3.264   2.865
 2376W        W 6576   5.208   9.087   2.283
 2377W        W 6577   2.808   5.344   4.068
 2378W        W 6578   7.176   8.632   3.907
 2379W        W 6579   3.873   4.198   1.676
 2380W        W 6580  10.347   8.559   2.155
 2381W        W 6581   0.367   9.287   0.306
 2382W        W 6582  11.411   2.227   1.391
 2383W        W 6583   7.586   4.321   0.279
 2384W        W 6584   2.274   1.300   1.509
 2385W        W 6585   3.672   6.738   1.142
 2386W        W 6586   1.144  10.973   8.548
 2387W        W 6587   9.508   2.978   9.419
 2388W        W 6588   1.397  10.444   0.032
 2389W        W 6589   4.275   3.630   2.410
 2390W        W 6590   0.461   5.040  10.597
 2391W        W 6591   3.224   7.349  10.419
 2392W        W 6592   4.111   5.598   9.756
 2393W        W 6593  10.400   5.899   9.880
 2394W        W 6594   2.607   5.068   1.269
 2395W        W 6595   0.863   6.656   9.016
 2396W        W 6596   4.434   3.652  11.435
 2397W        W 6597   2.370   6.603   2.720
 2398W        W 6598   1.617   7.443   0.276
 2399W        W 6599   2.346   9.386   0.249
 2400W        W 6600   0.859   3.524   2.322
 2401W        W 6601   8.166   6.071   2.496
 2402W        W 6602   7.623  10.090   2.693
 2403W        W 6603   6.448   5.232   2.263
 2404W        W 6604   7.146   4.867   1.952
 2405W        W 6605   1.564   7.024   2.742
 2406W        W 6606   4.189   1.789   2.680
 2407W        W 6607   3.653  10.780  11.245
 2408W        W 6608   1.560   2.264   2.249
 2409W        W 6609   6.459   0.671  10.190
 2410W        W 6610   4.658   9.912   1.315
 2411W        W 6611   5.474   9.185   8.589
 2412W        W 6612   0.884   6.682   9.530
 2413W        W 6613   9.509  10.163   3.360
 2414W        W 6614   1.361   4.397  11.739
 2415W        W 6615   1.049   5.914  11.972
 2416W        W 6616   0.542   1.377   2.496
 2417W        W 6617   8.504   9.607   9.209
 2418W        W 6618   7.179   4.540   2.354
 2419W        W 6619   0.967   1.180   9.999
 2420W        W 6620   5.157   2.944   1.219
 2421W        W 6621   0.416   7.906   1.129
 2422W        W 6622   9.472   9.681  10.363
 2423W        W 6623   9.070  11.368   2.733
 2424W        W 6624  10.644   8.090   1.973
 2425W        W 6625   9.410   7.646   2.273
 2426W        W 6626   9.555   8.342   9.006
 2427W        W 6627  10.807  10.159   2.670
 2428W        W 6628   3.382   0.505   1.021
 2429W        W 6629   7.226   8.034  11.452
 2430W        W 6630   7.549   2.753   3.580
 2431W        W 6631   8.373  10.676  10.361
 2432W        W 6632   9.529   2.430   1.373
 2433W        W 6633   5.493  10.546   3.259
 2434W        W 6634  11.375   2.870   9.842
 2435W        W 6635   5.202   2.889   1.832
 2436W        W 6636   7.075   9.047   3.233
 2437W        W 6637  11.404   3.305  11.087
 2438W        W 6638   4.644   2.732   2.495
 2439W        W 6639   6.428   0.866   9.389
 2440W        W 6640   0.792  10.235   1.378
 2441W        W 6641   8.652   4.873   8.574
 2442W        W 6642   2.330   1.172   3.294
 2443W        W 6643  10.281   3.380   0.983
 2444W        W 6644   2.618   8.838   0.451
 2445W        W 6645   5.525   8.953  10.357
 2446W        W 6646   6.580   4.283   1.273
 2447W        W 6647  10.905   6.258   3.021
 2448W        W 6648   8.423   3.781  11.938
 2449W        W 6649   8.884   0.366   0.222
 2450W        W 6650   4.618   3.021   1.190
 2451W        W 6651   9.290   2.224   0.947
 2452W        W 6652   1.949   9.520   1.743
 2453W        W 6653   0.999   9.082   9.233
 2454W        W 6654   4.795   8.066  10.163
 2455W        W 6655   2.366   5.025  11.407
 2456W        W 6656   1.007   2.760   1.640
 2457W        W 6657   4.304   6.075   9.786
 2458W        W 6658   0.557   2.663   1.913
 2459W        W 6659   9.492   3.985   2.654
 2460W        W 6660   3.878   3.785  11.419
 2461W        W 6661   2.214   7.961   2.302
 2462W        W 6662   0.262   4.919  11.193
 2463W        W 6663   8.396   6.982  11.511
 2464W        W 6664   3.439   3.915   9.314
 2465W        W 6665   0.975   3.707  11.736
 2466W        W 6666   8.136   8.181  11.043
 2467W        W 6667   6.548   9.921  11.328
 2468W        W 6668   1.091   1.828   2.738
 2469W        W 6669  10.142  10.943   9.934
 2470W        W 6670   2.707   4.139   8.803
 2471W        W 6671   0.663   8.056   8.654
 2472W        W 6672   4.955   3.364   1.426
 2473W        W 6673   9.806   3.650   8.593
 2474W        W 6674   5.986   8.500  11.363
 2475W        W 6675   5.186   9.315  10.485
 2476W        W 6676  11.084   5.923  10.511
 2477W        W 6677  10.884  10.239  11.372
 2478W        W 6678   4.358   4.314   1.728
 2479W        W 6679   1.316   1.409   1.282
 2480W        W 6680   6.497   3.435   2.712
 2481W        W 6681   7.461  10.085   1.673
 2482W        W 6682  10.014   7.450   9.141
 2483W        W 6683   4.137   3.436   1.929
 2484W        W 6684   6.907   2.052   0.165
 2485W        W 6685   6.262   2.684   0.259
 2486W        W 6686  11.363   6.109  10.894
 2487W        W 6687   2.604   3.888  11.437
 2488W        W 6688   1.721   1.264   9.289
 2489W        W 6689   8.908   2.839   1.295
 2490W        W 6690   6.584   1.812   1.360
 2491W        W 6691   2.916   6.627   2.680
 2492W        W 6692   8.460   4.528  11.579
 2493W        W 6693   0.301   4.634   0.309
 2494W        W 6694   1.855  11.188   9.089
 2495W        W 6695   0.489   4.327  11.954
 2496W        W 6696  10.700   2.257  11.517
 2497W        W 6697   8.360   7.266  11.964
 2498W        W 6698   2.721   1.754   9.482
 2499W        W 6699   6.241   3.027  10.329
 2500W        W 6700  10.014   8.091   3.223
 2501W        W 6701   2.853   2.266  11.109
 2502W        W 6702   9.204  11.405   9.514
 2503W        W 6703   2.699   3.741   3.244
 2504W        W 6704   6.659   8.628   2.128
 2505W        W 6705   1.886   1.613   1.404
 2506W        W 6706   7.132  11.149  10.912
 2507W        W 6707   4.196   3.044  11.975
 2508W        W 6708   1.662  10.738   1.411
 2509W        W 6709   4.785   8.848  10.991
 2510W        W 6710   3.207   5.117  11.584
 2511W        W 6711   5.695  10.486   0.706
 2512W        W 6712   6.486   3.848  11.878
 2513W        W 6713   3.484   4.934   3.678
 2514W        W 6714   2.280  10.743   2.688
 2515W        W 6715   4.758   2.415  11.761
 2516W        W 6716   3.083   8.438   0.338
 2517W        W 6717   0.776   6.587   1.316
 2518W        W 6718  10.042  11.326   1.202
 2519W        W 6719   7.589   2.850  10.524
 2520W        W 6720   7.955  10.276   1.832
 2521W        W 6721   5.436   1.418   1.197
 2522W        W 6722   1.008   6.902   2.617
 2523W        W 6723   3.130   2.728  10.958
 2524W        W 6724   3.067   4.256  10.591
 2525W        W 6725   5.571   1.881   3.635
 2526W        W 6726  10.031   6.656   2.698
 2527W        W 6727   6.650   9.929   1.302
 2528W        W 6728   8.228   7.645  10.223
 2529W        W 6729   4.303  10.145  11.326
 2530W        W 6730   3.530   0.967   1.220
 2531W        W 6731  10.783   1.423   1.931
 2532W        W 6732   3.308   5.749   9.559
 2533W        W 6733   0.975   3.669   0.263
 2534W        W 6734   2.955   1.768   1.028
 2535W        W 6735  10.043   2.822  10.603
 2536W        W 6736   7.096   9.043   2.732
 2537W        W 6737   8.500   6.257  11.930
 2538W        W 6738   2.447   0.239   0.460
 2539W        W 6739  11.250   3.605   1.779
 2540W        W 6740  10.261   9.397   9.792
 2541W        W 6741   7.488   6.675  11.826
 2542W        W 6742   5.477   7.218   8.524
 2543W        W 6743   3.612   4.461  10.726
 2544W        W 6744   0.924   3.274   1.439
 2545W        W 6745   6.271   3.275   3.729
 2546W        W 6746   1.419   1.387  10.130
 2547W        W 6747  10.208   7.108  11.273
 2548W        W 6748   6.695   9.157   9.348
 2549W        W 6749   3.128  10.471  10.861
 2550W        W 6750   2.626   1.880   3.254
 2551W        W 6751   3.687   2.630  10.778
 2552W        W 6752   9.481   4.639  10.005
 2553W        W 6753   8.133   0.869   1.477
 2554W        W 6754   2.408   6.590  10.380
 2555W        W 6755   5.837   6.099   9.157
 2556W        W 6756   0.887   6.035   1.500
 2557W        W 6757   6.968   5.262  11.547
 2558W        W 6758  10.005   2.241   9.918
 2559W        W 6759   3.343   6.981   2.387
 2560W        W 6760   4.615   0.239   1.410
 2561W        W 6761  11.076   0.546   1.944
 2562W        W 6762  10.460   9.960   1.931
 2563W        W 6763   6.445   5.256  11.466
 2564W        W 6764   5.932  11.466  11.767
 2565W        W 6765   9.543   0.131  10.781
 2566W        W 6766   1.277   8.400   1.893
 2567W        W 6767   6.414   4.900   9.709
 2568W        W 6768   5.016   9.044   0.266
 2569W        W 6769  11.220   3.984   1.410
 2570W        W 6770  10.043   6.304   3.091
 2571W        W 6771   1.105   7.124  11.389
 2572W        W 6772   8.687  10.043   0.236
 2573W        W 6773   7.590   2.985   1.192
 2574W        W 6774   2.634   4.613   9.630
 2575W        W 6775   8.296  11.005   9.640
 2576W        W 6776   0.244   6.949   8.572
 2577W        W 6777   7.507   1.207  10.926
 2578W        W 6778   5.333  10.628  11.611
 2579W        W 6779  10.930   0.978   1.723
 2580W        W 6780  10.566   3.506  11.228
 2581W        W 6781   6.895   3.704   0.787
 2582W        W 6782   8.149   2.982   8.704
 2583W        W 6783   1.920   8.816   1.259
 2584W        W 6784   1.717   0.668   1.238
 2585W        W 6785   2.498   9.386   2.441
 2586W        W 6786  10.840   2.747   8.972
 2587W        W 6787   1.219   5.730  11.482
 2588W        W 6788   4.988   5.299   1.006
 2589W        W 6789  10.775   6.239   9.781
 2590W        W 6790  10.753   5.121  10.851
 2591W        W 6791   0.618   9.482  11.473
 2592W        W 6792   7.656   6.135   2.401
 2593W        W 6793   1.417   7.121   1.447
 2594W        W 6794   5.635   2.199  11.434
 2595W        W 6795   5.788  11.141   9.945
 2596W        W 6796   0.321   0.930   2.357
 2597W        W 6797   6.055   5.695  11.252
 2598W        W 6798   0.758   1.491   3.319
 2599W        W 6799   6.735   1.740   2.987
 2600W        W 6800   8.670   6.103   2.743
 2601W        W 6801   4.083   5.149   9.538
 2602W        W 6802   0.009   2.393  11.051
 2603W        W 6803  11.460   4.580  10.976
 2604W        W 6804   1.398   3.251   1.222
 2605W        W 6805   9.412  10.614   9.563
 2606W        W 6806   1.927   4.421   0.920
 2607W        W 6807   8.525   0.221   3.459
 2608W        W 6808   4.927   7.652   9.346
 2609W        W 6809   5.285   2.799   9.827
 2610W        W 6810   8.584   2.339  11.752
 2611W        W 6811   5.793   8.762   8.631
 2612W        W 6812   6.950   2.638   2.138
 2613W        W 6813   4.767   9.414   2.801
 2614W        W 6814   8.965   6.319   3.719
 2615W        W 6815   2.792   8.964  11.977
 2616W        W 6816  10.534   7.475   0.385
 2617W        W 6817   3.062   6.507   9.939
 2618W        W 6818  10.749   4.779   3.086
 2619W        W 6819   0.362  10.136  11.782
 2620W        W 6820   7.528   4.193   8.762
 2621W        W 6821   1.395   3.641   1.553
 2622W        W 6822  10.955   4.395   0.193
 2623W        W 6823   1.192  10.549   1.419
 2624W        W 6824   6.540   6.150   9.685
 2625W        W 6825   3.610   1.193   8.716
 2626W        W 6826   3.339   1.004  11.854
 2627W        W 6827  10.409   6.690   0.994
 2628W        W 6828   2.101   3.222   0.403
 2629W        W 6829   9.015   4.782   2.750
 2630W        W 6830   2.489   9.431   9.649
 2631W        W 6831   1.699   8.350   0.099
 2632W        W 6832   1.209   7.365   9.706
 2633W        W 6833   0.307   5.761   3.173
 2634W        W 6834  10.927   4.837   2.113
 2635W        W 6835   3.504  10.709   0.682
 2636W        W 6836   6.635   6.224   8.774
 2637W        W 6837   1.516   2.232  11.963
 2638W        W 6838   3.880   2.337   1.434
 2639W        W 6839   8.431   5.568  11.313
 2640W        W 6840   7.907   3.598  11.833
 2641W        W 6841   7.984  11.490  10.197
 2642W        W 6842   0.252   0.910   3.377
 2643W        W 6843   6.734   3.093   0.923
 2644W        W 6844   9.843  10.372   3.019
 2645W        W 6845  11.005   0.367   9.475
 2646W        W 6846   2.029   6.858   3.679
 2647W        W 6847   6.440   9.073   0.894
 2648W        W 6848   5.600   5.577  11.471
 2649W        W 6849   8.145   1.769   1.468
 2650W        W 6850   4.688   4.588   9.426
 2651W        W 6851   7.604   9.390  11.779
 2652W        W 6852   8.803   6.808   3.570
 2653W        W 6853   5.693   0.450   0.906
 2654W        W 6854  10.470   5.083   2.772
 2655W        W 6855   0.517   2.108   0.179
 2656W        W 6856   1.461   6.163  10.533
 2657W        W 6857   0.380   0.799   1.862
 2658W        W 6858   5.462   2.884   0.455
 2659W        W 6859   6.180   1.337   0.234
 2660W        W 6860   7.091   3.531  10.413
 2661W        W 6861   6.062   6.148   3.158
 2662W        W 6862   5.010   2.791   0.233
 2663W        W 6863  10.889   0.463  11.912
 2664W        W 6864  10.378   5.186   0.152
 2665W        W 6865   6.365   6.051   0.361
 2666W        W 6866  11.126   3.946  10.397
 2667W        W 6867   5.594   8.063   2.608
 2668W        W 6868   5.949   8.070   2.239
 2669W        W 6869   4.040   5.991   0.002
 2670W        W 6870   1.841   6.910  11.972
 2671W        W 6871  11.154   6.376   0.372
 2672W        W 6872   6.796   2.187   1.930
 2673W        W 6873   1.064   0.797  11.851
 2674W        W 6874   8.214   7.170  10.499
 2675W        W 6875   1.734   2.244  10.860
 2676W        W 6876   6.214   9.949   2.265
 2677W        W 6877   9.092   0.903   9.981
 2678W        W 6878   6.894   9.110  10.325
 2679W        W 6879   6.814   0.746   2.262
 2680W        W 6880   9.967   4.206  11.387
 2681W        W 6881   9.934   6.702   1.729
 2682W        W 6882   8.534  10.905  11.257
 2683W        W 6883   7.244   4.662   4.129
 2684W        W 6884  10.885   2.133  10.163
 2685W        W 6885   9.295   4.160  10.145
 2686W        W 6886   3.814   6.629   1.645
 2687W        W 6887   5.623   1.792  11.739
 2688W        W 6888   4.348   6.972   9.742
 2689W        W 6889   2.978  11.398   1.712
 2690W        W 6890   8.489   8.897  10.428
 2691W        W 6891   3.884  11.077  11.674
 2692W        W 6892   6.538   7.879  11.854
 2693W        W 6893   4.200   2.210  11.476
 2694W        W 6894   8.082   3.812  10.914
 2695W        W 6895   5.711   2.910   1.878
 2696W        W 6896   6.431   7.798   1.076
 2697W        W 6897   8.707   5.134  11.130
 2698W        W 6898   0.707   5.550   2.497
 2699W        W 6899   3.642   0.524  11.353
 2700W        W 6900   4.957  11.038  10.766
 2701W        W 6901   2.883   8.984   0.960
 2702W        W 6902   8.038   2.692  10.294
 2703W        W 6903   7.122   0.774   0.930
 2704W        W 6904   4.752   7.162   2.686
 2705W        W 6905   6.717   3.681   2.226
 2706W        W 6906  10.091   1.496  10.761
 2707W        W 6907   4.500   9.857   3.415
 2708W        W 6908   8.880   5.623   2.640
 2709W        W 6909   8.228   4.241   3.246
 2710W        W 6910   1.763   6.537  11.023
 2711W        W 6911   0.778   1.814   2.349
 2712W        W 6912   1.308   7.548  10.508
 2713W        W 6913   8.821   7.092  11.797
 2714W        W 6914   0.016   3.757   2.229
 2715W        W 6915   4.717   6.641   1.430
 2716W        W 6916   7.497   4.084   2.877
 2717W        W 6917   7.789  10.685  11.094
 2718W        W 6918   7.924   7.695   1.275
 2719W        W 6919   0.779   6.446  10.533
 2720W        W 6920   7.538   4.662   9.951
 2721W        W 6921   6.569   0.885   3.227
 2722W        W 6922   6.100   5.595   0.274
 2723W        W 6923   9.078   6.687   3.144
 2724W        W 6924   5.444   8.887   1.018
 2725W        W 6925   5.519  10.928  11.235
 2726W        W 6926   6.545  10.947   1.413
 2727W        W 6927   9.048   9.949   9.613
 2728W        W 6928   2.914   6.030   3.297
 2729W        W 6929   3.223   5.545  10.064
 2730W        W 6930   8.441   5.944   9.617
 2731W        W 6931   2.179   5.622   3.491
 2732W        W 6932   5.057   3.793   1.174
 2733W        W 6933   5.583   9.314   9.377
 2734W        W 6934   7.569  10.006   0.397
 2735W        W 6935  10.589   4.521   8.945
 2736W        W 6936   2.642   9.088   1.872
 2737W        W 6937   2.791   7.691  11.690
 2738W        W 6938  11.275  11.447  10.307
 2739W        W 6939   7.566  10.572   1.707
 2740W        W 6940   0.450   9.149   2.239
 2741W        W 6941   4.764  10.212  11.012
 2742W        W 6942   1.881   0.060  11.506
 2743W        W 6943   9.026   6.712  10.964
 2744W        W 6944   3.805   2.724   0.118
 2745W        W 6945   7.874   9.784   1.726
 2746W        W 6946  10.242   5.018  11.664
 2747W        W 6947  10.986   2.958   3.154
 2748W        W 6948   7.101   8.713  10.042
 2749W        W 6949  10.332   7.694   2.081
 2750W        W 6950   6.957   1.270  10.036
 2751W        W 6951   9.110   0.378   2.243
 2752W        W 6952   4.590  11.396   3.403
 2753W        W 6953   8.895   3.553  10.349
 2754W        W 6954  11.496   8.023   1.378
 2755W        W 6955   7.486   7.288   3.133
 2756W        W 6956   5.256  10.783   0.623
 2757W        W 6957  10.685   7.131  11.417
 2758W        W 6958   1.753   9.837   0.534
 2759W        W 6959   2.206   1.870  10.272
 2760W        W 6960   8.455   7.659   1.858
 2761W        W 6961   8.415   4.195  10.759
 2762W        W 6962   2.116   9.844   1.399
 2763W        W 6963   5.060   7.775   0.408
 2764W        W 6964   3.162  11.410  10.631
 2765W        W 6965   5.287   6.930   9.958
 2766W        W 6966   8.649   5.863   1.372
 2767W        W 6967   1.791   8.614  11.336
 2768W        W 6968   1.875   9.389   1.234
 2769W        W 6969   7.537   9.185   9.451
 2770W        W 6970   2.384   6.946   3.114
 2771W        W 6971   1.900   9.036   3.302
 2772W        W 6972   0.895   9.019   2.484
 2773W        W 6973   2.622  11.360  10.895
 2774W        W 6974   6.213  10.428  11.361
 2775W        W 6975   1.251  11.466   1.319
 2776W        W 6976   8.001   7.617   8.851
 2777W        W 6977   6.535   6.696  11.714
 2778W        W 6978   4.235   3.917   8.817
 2779W        W 6979   2.687  10.168  11.989
 2780W        W 6980   6.798   6.549   2.507
 2781W        W 6981   1.116   7.111   1.867
 2782W        W 6982   0.726   8.336   9.390
 2783W        W 6983   7.508   2.552   0.698
 2784W        W 6984   3.537  10.010   9.698
 2785W        W 6985   9.766   1.477   3.357
 2786W        W 6986   9.046   6.169   1.363
 2787W        W 6987   7.654   4.274   2.423
 2788W        W 6988   5.626   5.665   0.477
 2789W        W 6989   2.657   5.074   8.893
 2790W        W 6990  10.105  11.257   2.584
 2791W        W 6991   4.765   0.661   9.906
 2792W        W 6992   1.300   4.403  10.202
 2793W        W 6993   1.315   1.787   9.804
 2794W        W 6994   3.922   8.057   3.021
 2795W        W 6995   3.964   6.461   2.686
 2796W        W 6996  11.318   8.567   9.512
 2797W        W 6997   2.183   7.733   1.856
 2798W        W 6998   5.678   4.295  10.256
 2799W        W 6999   5.212  10.741   8.707
 2800W        W 7000  11.281   2.835  11.237
 2801W        W 7001  10.937   8.427   9.151
 2802W        W 7002   2.503   5.529   8.706
 2803W        W 7003   0.174   9.131  10.846
 2804W        W 7004   8.922   5.669   8.920
 2805W        W 7005   2.696   9.507   3.398
 2806W        W 7006   5.788   8.879  11.013
 2807W        W 7007   0.392   8.940   0.816
 2808W        W 7008   8.557   9.789  10.313
 2809W        W 7009   4.541   3.980  11.800
 2810W        W 7010   6.835   2.286  11.120
 2811W        W 7011   0.345   4.023   9.891
 2812W        W 7012   4.193   0.423   0.029
 2813W        W 7013   4.914   2.804  11.418
 2814W        W 7014   1.776   0.949  10.650
 2815W        W 7015   6.016   5.111  10.000
 2816W        W 7016   9.550   9.878   2.422
 2817W        W 7017   0.005   0.372   1.643
 2818W        W 7018   8.901   1.764   2.184
 2819W        W 7019  11.067   0.048   1.711
 2820W        W 7020   2.846   8.528  11.093
 2821W        W 7021   6.524   3.639  10.889
 2822W        W 7022  10.320   9.173  11.340
 2823W        W 7023   3.880   1.344   3.453
 2824W        W 7024   5.212   4.120  11.907
 2825W        W 7025   1.876   1.984   3.036
 2826W        W 7026   3.290   8.607  11.338
 2827W        W 7027   6.676   6.638   3.673
 2828W        W 7028   2.685   0.008   2.397
 2829W        W 7029   1.102   5.419   0.760
 2830W        W 7030   9.985   1.173  10.321
 2831W        W 7031   2.873   5.889  10.359
 2832W        W 7032   4.857   9.535   0.221
 2833W        W 7033   6.234   5.831   9.402
 2834W        W 7034   5.537   1.929   9.546
 2835W        W 7035   0.457   0.954   1.360
 2836W        W 7036   9.088   5.025   4.271
 2837W        W 7037   6.756   2.594   4.010
 2838W        W 7038   3.306   0.543   2.812
 2839W        W 7039   0.235   2.150   2.817
 2840W        W 7040   6.444  11.171   0.963
 2841W        W 7041   4.512   8.618   0.232
 2842W        W 7042   8.137  10.040   9.147
 2843W        W 7043   0.795  11.141   3.594
 2844W        W 7044  10.043  10.345  11.832
 2845W        W 7045   2.644   8.158   2.968
 2846W        W 7046   9.945   6.242   1.467
 2847W        W 7047   3.398   9.254   2.394
 2848W        W 7048   8.309   0.776   8.990
 2849W        W 7049   0.036   0.675   1.189
 2850W        W 7050   5.229  10.128  10.803
 2851W        W 7051   8.921   9.509   0.407
 2852W        W 7052   9.336   2.265  10.092
 2853W        W 7053   5.632   7.056   9.024
 2854W        W 7054   6.561   9.552   2.835
 2855W        W 7055   8.467   9.033   1.750
 2856W        W 7056   4.585   9.742  10.995
 2857W        W 7057   4.383   9.564  11.444
 2858W        W 7058   4.167  10.057   0.536
 2859W        W 7059   7.942  10.065   0.729
 2860W        W 7060   4.320   1.437  11.031
 2861W        W 7061   8.981   0.656   9.507
 2862W        W 7062   7.576  10.389   1.233
 2863W        W 7063   0.440   9.922   9.492
 2864W        W 7064  10.817   0.226   1.285
 2865W        W 7065   2.773   7.371  10.179
 2866W        W 7066   9.907   6.520   0.280
 2867W        W 7067  10.364   1.296   9.238
 2868W        W 7068   8.378   5.037  11.504
 2869W        W 7069   7.409   0.960   9.172
 2870W        W 7070   8.749   7.553  11.052
 2871W        W 7071   0.742   2.307   9.656
 2872W        W 7072   2.149   9.187   2.811
 2873W        W 7073   8.476   3.237   8.388
 2874W        W 7074   0.291   1.730  10.064
 2875W        W 7075   8.331   4.119   0.496
 2876W        W 7076   6.278   5.738   0.773
 2877W        W 7077   6.084   0.991   8.989
 2878W        W 7078   6.064   7.452   9.792
 2879W        W 7079   2.329   0.241  11.347
 2880W        W 7080   4.335   6.816   2.685
 2881W        W 7081   2.096   7.841   1.049
 2882W        W 7082   8.038   9.257   9.569
 2883W        W 7083   7.626   6.709  11.331
 2884W        W 7084  10.853  11.429   0.226
 2885W        W 7085   2.203   7.447   3.056
 2886W        W 7086   2.410   5.272   2.165
 2887W        W 7087   3.302   4.710   8.963
 2888W        W 7088   2.164   2.889   9.320
 2889W        W 7089  10.541  10.050   3.497
 2890W        W 7090   8.857   0.623   8.978
 2891W        W 7091   3.429  10.878   3.813
 2892W        W 7092   0.127   1.443   2.213
 2893W        W 7093   6.809   7.952  11.175
 2894W        W 7094   2.691  10.693  10.413
 2895W        W 7095   4.593   4.024   2.551
 2896W        W 7096   8.157   3.652   0.348
 2897W        W 7097   2.372   7.574   0.671
 2898W        W 7098   6.466   9.394  10.403
 2899W        W 7099   4.097   6.417  11.241
 2900W        W 7100  10.964   5.367  11.347
 2901W        W 7101   0.896   6.715  11.615
 2902W        W 7102   0.266   0.419   9.954
 2903W        W 7103   7.055  11.332   3.535
 2904W        W 7104   5.926   7.994  10.991
 2905W        W 7105   7.405   9.605   1.855
 2906W        W 7106   5.652  11.342   1.347
 2907W        W 7107   7.946   3.672  10.439
 2908W        W 7108   2.253   1.125   2.773
 2909W        W 7109   0.077   4.185   2.537
 2910W        W 7110   4.080   3.418   8.875
 2911W        W 7111   9.393   6.571   3.559
 2912W        W 7112   5.322  11.304   1.761
 2913W        W 7113   9.025   2.300   1.376
 2914W        W 7114   8.953   9.029   1.553
 2915W        W 7115   9.915   0.456   2.328
 2916W        W 7116   0.350   9.260   1.210
 2917W        W 7117   0.676   9.521   1.989
 2918W        W 7118   5.112   9.599   8.552
 2919W        W 7119   0.285   8.029   3.110
 2920W        W 7120   8.042   9.504   2.459
 2921W        W 7121  11.489  11.375   2.510
 2922W        W 7122   7.126   2.952   4.095
 2923W        W 7123   4.844  10.835   9.871
 2924W        W 7124   6.439   2.359  10.815
 2925W        W 7125   5.212   6.923   3.592
 2926W        W 7126   4.080  11.064  11.181
 2927W        W 7127   2.801  11.103   2.086
 2928W        W 7128  10.617   0.476   0.894
 2929W        W 7129   5.218   2.625   0.826
 2930W        W 7130   0.211   6.974   1.249
 2931W        W 7131   0.592   1.750   2.873
 2932W        W 7132   0.880   7.676  10.005
 2933W        W 7133   1.571   2.162  10.302
 2934W        W 7134   0.133   9.544   2.065
 2935W        W 7135   2.882   2.124   0.063
 2936W        W 7136   8.429   6.764  11.985
 2937W        W 7137  10.626   8.583  10.479
 2938W        W 7138   1.904   9.314  11.812
 2939W        W 7139   6.303  10.471  11.881
 2940W        W 7140   0.347   3.384   2.370
 2941W        W 7141   7.279   2.409  11.350
 2942W        W 7142   3.278   5.734   2.849
 2943W        W 7143   3.583   4.329   3.077
 2944W        W 7144  11.085   0.896  10.950
 2945W        W 7145   3.244   5.182   2.876
 2946W        W 7146   0.823   9.494  10.295
 2947W        W 7147  10.386   0.434   0.027
 2948W        W 7148   5.062  10.159   2.546
 2949W        W 7149   9.543   5.029   2.660
 2950W        W 7150   9.496   6.931   8.674
 2951W        W 7151   2.655   1.964   1.857
 2952W        W 7152   3.865   1.445   9.462
 2953W        W 7153  10.893   5.682   0.736
 2954W        W 7154   3.957  11.301   9.987
 2955W        W 7155   2.668  10.271  10.718
 2956W        W 7156   0.249   5.118   3.255
 2957W        W 7157   7.564   3.348  10.503
 2958W        W 7158   9.867   9.627   9.556
 2959W        W 7159   5.161   9.331   9.004
 2960W        W 7160   5.525   6.330  11.822
 2961W        W 7161   1.225   3.236   0.186
 2962W        W 7162   5.988   1.738   2.416
 2963W        W 7163   0.905  10.341   1.859
 2964W        W 7164   3.835   1.270   2.448
 2965W        W 7165   9.371   2.778   1.041
 2966W        W 7166   7.411   5.011   3.763
 2967W        W 7167   5.056   6.082   0.506
 2968W        W 7168   4.933  10.084   1.695
 2969W        W 7169   9.369   8.135   1.373
 2970W        W 7170   7.937   9.079   9.102
 2971W        W 7171   3.854   5.513   0.244
 2972W        W 7172   1.714   3.150  10.946
 2973W        W 7173   8.945   8.835   0.265
 2974W        W 7174   2.907  10.289   9.108
 2975W        W 7175   9.080   1.491   2.592
 2976W        W 7176   5.127   7.333   8.900
 2977W        W 7177  10.789   3.273   0.911
 2978W        W 7178   2.737   1.853   2.681
 2979W        W 7179   5.846   3.299   9.386
 2980W        W 7180  10.025   9.464   0.867
 2981W        W 7181   8.962   2.943   0.771
 2982W        W 7182   0.177   4.039  11.667
 2983W        W 7183   5.204   1.439  11.091
 2984W        W 7184   2.172   4.265   9.594
 2985W        W 7185   6.798   2.111   2.435
 2986W        W 7186   0.510   0.424  10.394
 2987W        W 7187  10.162   7.096   9.505
 2988W        W 7188   3.545   6.708   9.838
 2989W        W 7189   6.146   6.526   9.946
 2990W        W 7190   2.753   6.708   8.252
 2991W        W 7191   0.335   0.087   1.144
 2992W        W 7192   2.076   4.277   9.084
 2993W        W 7193  11.411   3.895   0.749
 2994W        W 7194   3.708   0.847   9.079
 2995W        W 7195   6.531   4.594  10.709
 2996W        W 7196   8.619  10.469   9.012
 2997W        W 7197   0.101   0.420   3.217
 2998W        W 7198   8.860   4.870  11.529
 2999W        W 7199   9.798  11.332  11.727
 3000W        W 7200   0.461   3.334   8.902
 3001W        W 7201   2.216   0.003   0.000
 3002W        W 7202  10.929   0.438   0.429
 3003W        W 7203   4.876   1.466   9.571
 3004W        W 7204   0.912   1.347   2.854
 3005W        W 7205   4.322   2.308   2.651
 3006W        W 7206   7.261   2.810   3.108
 3007W        W 7207   3.524   9.309   2.884
 3008W        W 7208   4.358   3.693  10.587
 3009W        W 7209  10.778   0.800  10.561
 3010W        W 7210   9.886   7.678   2.973
 3011W        W 7211   1.206   5.765   1.826
 3012W        W 7212   0.773   8.508  11.232
 3013W        W 7213   2.975   5.998   9.862
 3014W        W 7214   1.312   3.167   1.748
 3015W        W 7215   7.399   2.102   0.935
 3016W        W 7216   1.411   8.584   0.964
 3017W        W 7217   4.101   9.192  10.435
 3018W        W 7218   0.725   8.330   3.774
 3019W        W 7219   3.750   4.932  10.290
 3020W        W 7220   9.593   5.122  11.723
 3021W        W 7221  10.002   8.108   2.685
 3022W        W 7222   2.275   1.961   9.252
 3023W        W 7223   5.672   9.023   2.519
 3024W        W 7224   5.131   3.815  10.916
 3025W        W 7225   6.710   2.647   8.566
 3026W        W 7226   4.267   1.121  11.909
 3027W        W 7227   6.550   1.674   8.746
 3028W        W 7228   3.212   5.294  11.040
 3029W        W 7229   2.627   0.605   1.177
 3030W        W 7230   3.845   5.839   1.507
 3031W        W 7231   3.631   4.340   1.243
 3032W        W 7232   5.088   5.711  10.206
 3033W        W 7233   0.694   7.992  11.347
 3034W        W 7234   8.674   7.430  10.366
 3035W        W 7235   4.618   7.961  11.046
 3036W        W 7236  11.190  11.028   1.740
 3037W        W 7237  10.054   5.182   2.442
 3038W        W 7238   6.263   3.265   9.069
 3039W        W 7239   1.391   5.728  10.203
 3040W        W 7240   2.661   1.700  10.361
 3041W        W 7241  10.129   9.591   1.643
 3042W        W 7242   2.650   0.180  11.827
 3043W        W 7243   0.153   2.587   1.014
 3044W        W 7244   3.137   7.539   1.658
 3045W        W 7245   3.587   9.763   3.082
 3046W        W 7246   0.972  10.795  11.987
 3047W        W 7247   6.283   7.666   0.619
 3048W        W 7248   6.057   1.393   8.452
 3049W        W 7249   9.874   5.142  11.302
 3050W        W 7250   9.195   7.942   9.028
 3051W        W 7251   7.967   4.709   2.522
 3052W        W 7252   6.766   8.818  11.145
 3053W        W 7253   7.723   3.640   2.823
 3054W        W 7254   3.153  10.889  11.899
 3055W        W 7255   7.742   7.597  10.368
 3056W        W 7256  10.986  11.481   3.247
 3057W        W 7257   7.060   0.575   9.074
 3058W        W 7258   0.506  10.858  11.555
 3059W        W 7259   9.927   7.608   9.624
 3060W        W 7260   0.905   0.465   0.665
 3061W        W 7261   2.329   7.204   9.934
 3062W        W 7262   1.195   1.184   9.175
 3063W        W 7263   4.426   2.670  11.409
 3064W        W 7264   3.704  11.382   9.087
 3065W        W 7265  10.411   8.174  11.473
 3066W        W 7266  10.936   2.740   0.214
 3067W        W 7267   9.945   4.868   3.443
 3068W        W 7268   8.873   7.250   0.319
 3069W        W 7269   2.777   1.812  11.645
 3070W        W 7270   7.482  10.381   9.800
 3071W        W 7271   9.467   8.864   8.930
 3072W        W 7272   7.471   6.778   3.233
 3073W        W 7273   5.497  10.729   1.963
 3074W        W 7274   1.458   5.269  11.485
 3075W        W 7275   0.036  10.095   2.036
 3076W        W 7276   5.529   0.622  10.142
 3077W        W 7277   5.815   7.555   0.786
 3078W        W 7278   5.244   3.748   2.261
 3079W        W 7279  10.533   1.391   2.909
 3080W        W 7280   8.184   5.045  10.459
 3081W        W 7281   6.650  10.473   1.242
 3082W        W 7282   6.757   3.762  11.332
 3083W        W 7283   6.049  11.024   1.282
 3084W        W 7284   9.862   4.680  11.572
 3085W        W 7285  11.291   9.283   3.391
 3086W        W 7286   0.531   5.899  10.836
 3087W        W 7287   7.457   8.503  11.475
 3088W        W 7288   5.198   5.731   9.678
 3089W        W 7289   8.031  11.482   3.418
 3090W        W 7290   2.653  10.216  10.222
 3091W        W 7291   8.326   0.780  11.214
 3092W        W 7292   9.426   7.377   1.046
 3093W        W 7293   8.965   1.602   9.323
 3094W        W 7294   5.597   4.465   1.096
 3095W        W 7295   2.915   4.619   8.620
 3096W        W 7296   5.332  10.982   9.783
 3097W        W 7297   1.857   6.603   2.833
 3098W        W 7298   4.156  11.438   8.852
 3099W        W 7299   6.600   9.861   8.947
 3100W        W 7300   5.816   6.042  11.546
 3101W        W 7301   0.851   2.656  10.696
 3102W        W 7302   4.604   5.441   1.430
 3103W        W 7303   4.284   7.829  10.079
 3104W        W 7304   2.853   7.490   2.070
 3105W        W 7305   1.441   8.179  10.531
 3106W        W 7306   7.503   2.759   1.645
 3107W        W 7307  11.384   1.242   0.053
 3108W        W 7308   8.054   0.828   1.984
 3109W        W 7309   6.130   0.450  11.777
 3110W        W 7310   5.264  10.528   1.063
 3111W        W 7311   8.122   2.444  11.933
 3112W        W 7312   7.038   4.086   1.084
 3113W        W 7313   3.239   8.653   9.354
 3114W        W 7314   3.584   5.765  11.866
 3115W        W 7315   5.800  10.778   0.272
 3116W        W 7316   4.039   0.779  10.440
 3117W        W 7317  11.378   5.198   9.755
 3118W        W 7318   6.439   4.784  11.702
 3119W        W 7319   1.170   8.610   9.322
 3120W        W 7320   3.263   7.949   0.373
 3121W        W 7321   3.292   8.195   1.274
 3122W        W 7322   1.804  11.216  10.562
 3123W        W 7323   4.575  11.497   0.911
 3124W        W 7324   8.466  11.305   2.634
 3125W        W 7325   6.167   1.296   0.745
 3126W        W 7326   0.869   7.238   4.058
 3127W        W 7327   0.375   3.808   0.994
 3128W        W 7328   3.730   3.201  11.883
 3129W        W 7329   1.624  10.324   9.016
 3130W        W 7330   3.581  11.304   3.028
 3131W        W 7331  11.052   8.733   0.583
 3132W        W 7332   5.704   2.299   9.207
 3133W        W 7333   2.611   5.151   3.624
 3134W        W 7334   6.757  10.530   9.080
 3135W        W 7335   5.748   2.826  10.022
 3136W        W 7336   3.984   4.678   9.839
 3137W        W 7337   4.503   9.132   0.255
 3138W        W 7338   7.769   8.323   9.234
 3139W        W 7339   0.261   0.849  10.283
 3140W        W 7340  11.468   1.267   1.305
 3141W        W 7341  11.181  10.789   3.571
 3142W        W 7342   1.289  11.346  10.498
 3143W        W 7343   6.838   7.852   2.338
 3144W        W 7344   6.500   4.496   2.604
 3145W        W 7345   1.031   4.511   1.342
 3146W        W 7346   4.239  10.345   1.948
 3147W        W 7347   0.643  10.059   0.193
 3148W        W 7348   1.389   9.537  11.014
 3149W        W 7349   8.975   1.079   9.183
 3150W        W 7350   2.925   0.267   0.261
 3151W        W 7351  11.409   8.728   3.336
 3152W        W 7352  11.163   4.611   3.380
 3153W        W 7353  11.212   4.337   9.879
 3154W        W 7354   1.912   1.871   0.048
 3155W        W 7355   6.969   9.794   0.909
 3156W        W 7356   5.286   8.952  10.997
 3157W        W 7357   1.887   3.883   0.871
 3158W        W 7358  10.500   8.431  11.919
 3159W        W 7359   4.394   9.940   9.240
 3160W        W 7360   2.566   1.203   2.386
 3161W        W 7361   8.406   5.555   8.989
 3162W        W 7362   1.574  10.408   1.002
 3163W        W 7363   3.739   1.769  10.424
 3164W        W 7364   5.611   1.670   1.613
 3165W        W 7365   8.186   1.021   2.450
 3166W        W 7366  10.564   9.342   0.174
 3167W        W 7367   6.252   5.073  10.480
 3168W        W 7368   3.605  10.982   9.459
 3169W        W 7369   8.488   2.673   9.987
 3170W        W 7370   2.293   8.678   9.125
 3171W        W 7371  10.872   9.628   3.521
 3172W        W 7372   9.337   4.276   9.637
 3173W        W 7373   5.749   7.995   9.097
 3174W        W 7374   3.161   6.945   1.048
 3175W        W 7375   9.991   4.557  10.179
 3176W        W 7376   2.826   2.801   0.485
 3177W        W 7377   5.579   2.835   3.388
 3178W        W 7378   6.962   0.784  10.239
 3179W        W 7379  11.473  11.005   2.170
 3180W        W 7380   2.125   6.111  11.769
 3181W        W 7381  11.340   7.611   1.623
 3182W        W 7382   1.681   0.688   9.176
 3183W        W 7383  10.591   8.864   1.390
 3184W        W 7384   3.261   8.890   1.977
 3185W        W 7385   6.099   8.303   1.768
 3186W        W 7386   0.375  11.080   1.292
 3187W        W 7387   5.993  10.903  11.437
 3188W        W 7388   9.870   2.228  11.777
 3189W        W 7389   8.931   0.872  10.750
 3190W        W 7390   8.600   3.769   2.668
 3191W        W 7391   1.201   6.529   3.552
 3192W        W 7392   8.878   1.235   9.670
 3193W        W 7393   3.817   7.784  11.425
 3194W        W 7394   8.310   9.539   2.013
 3195W        W 7395   9.309   7.854   1.836
 3196W        W 7396   0.945   9.885   9.364
 3197W        W 7397   8.769   4.546   1.258
 3198W        W 7398   1.104  11.317  11.937
 3199W        W 7399   1.207   0.987   2.651
 3200W        W 7400   5.759   3.270   8.376
 3201W        W 7401   9.931   6.175   9.844
 3202W        W 7402   5.670   0.946   2.190
 3203W        W 7403   2.693   7.186  11.722
 3204W        W 7404   5.757  11.279   0.425
 3205W        W 7405   2.646   2.843   9.452
 3206W        W 7406   3.824   2.609   3.212
 3207W        W 7407  10.935   8.894   9.327
 3208W        W 7408   2.251  11.257   2.782
 3209W        W 7409   9.053   4.692   9.690
 3210W        W 7410   8.133   9.386   1.563
 3211W        W 7411   7.538   8.998   2.985
 3212W        W 7412   1.995   7.634   2.631
 3213W        W 7413   8.719  11.352   0.378
 3214W        W 7414   0.792   1.591  11.349
 3215W        W 7415   8.451   0.571   1.749
 3216W        W 7416   7.494   7.976   1.003
 3217W        W 7417   4.002   2.817   9.578
 3218W        W 7418   0.832   8.806   0.060
 3219W        W 7419  10.765   4.880  11.435
 3220W        W 7420  11.289   8.179   0.368
 3221W        W 7421   2.735   1.531  11.216
 3222W        W 7422   6.590   0.769   2.715
 3223W        W 7423   4.319   0.966   3.356
 3224W        W 7424  10.824  10.803  10.885
 3225W        W 7425   7.263   1.345   9.574
 3226W        W 7426  10.917   2.557   9.698
 3227W        W 7427   9.431   6.629   0.330
 3228W        W 7428   1.867   2.909   2.690
 3229W        W 7429   3.477   4.398   0.457
 3230W        W 7430   9.570   6.551   0.819
 3231W        W 7431  10.247   1.271   3.346
 3232W        W 7432   7.514   9.428  11.293
 3233W        W 7433   9.902   9.471  10.522
 3234W        W 7434   3.918  10.063   9.346
 3235W        W 7435   3.442   7.961   1.732
 3236W        W 7436  10.615   1.836   9.192
 3237W        W 7437  10.782   0.844   3.444
 3238W        W 7438   3.599   8.962   0.558
 3239W        W 7439   6.984   4.321   2.778
 3240W        W 7440   3.138   3.217   0.450
 3241W        W 7441   6.508   9.191   8.474
 3242W        W 7442   6.115   5.228  11.885
 3243W        W 7443   4.334   8.616   2.552
 3244W        W 7444   6.280  11.291   0.381
 3245W        W 7445   3.667   6.501   2.143
 3246W        W 7446   2.813   4.327   0.934
 3247W        W 7447   1.268  10.065   1.261
 3248W        W 7448  11.316  10.294   9.930
 3249W        W 7449   8.077  10.307  11.281
 3250W        W 7450   0.929   5.628   9.955
 3251W        W 7451   8.419   7.101   9.816
 3252W        W 7452   0.777   7.783  10.872
 3253W        W 7453   3.954   3.206   0.891
 3254W        W 7454   6.395   5.763  10.563
 3255W        W 7455  10.418   9.787   0.927
 3256W        W 7456   0.791   9.961   0.676
 3257W        W 7457   0.395  11.030   9.950
 3258W        W 7458   4.636   4.396  10.015
 3259W        W 7459   0.853   1.261  11.729
 3260W        W 7460  11.486   0.172   0.706
 3261W        W 7461  10.916   1.270   3.213
 3262W        W 7462   1.883  10.430   3.142
 3263W        W 7463   6.300   6.033   1.204
 3264W        W 7464   0.309  11.458  10.241
 3265W        W 7465  10.263   0.519   2.735
 3266W        W 7466   5.369  10.099   0.765
 3267W        W 7467   5.931  11.401   2.765
 3268W        W 7468   2.786   9.387   9.245
 3269W        W 7469   8.376   9.307   3.237
 3270W        W 7470   9.916   2.834   0.463
 3271W        W 7471   9.395   0.038   1.458
 3272W        W 7472   4.959   0.016   2.582
 3273W        W 7473   9.693   0.037   0.168
 3274W        W 7474   8.397   8.622   2.055
 3275W        W 7475   3.351   8.433   2.748
 3276W        W 7476   0.371   6.091   0.754
 3277W        W 7477   4.194   6.535   8.578
 3278W        W 7478   5.056   2.373   9.987
 3279W        W 7479   1.182   8.769   2.861
 3280W        W 7480   2.625   8.587   3.250
 3281W        W 7481   0.405  11.051   8.463
 3282W        W 7482   7.502   1.431   1.186
 3283W        W 7483   1.377   2.233   3.306
 3284W        W 7484   9.960   7.188   9.952
 3285W        W 7485   1.292   0.597   2.359
 3286W        W 7486   2.684   3.463   1.025
 3287W        W 7487  11.299   6.871   0.363
 3288W        W 7488   7.474   8.192   0.307
 3289W        W 7489   6.980  10.176   0.064
 3290W        W 7490   0.487   0.460   1.456
 3291W        W 7491   5.503   3.241   0.090
 3292W        W 7492   8.639   5.923  10.091
 3293W        W 7493   2.224   4.117   1.742
 3294W        W 7494   0.398   2.966  11.848
 3295W        W 7495   7.663   0.077   1.667
 3296W        W 7496   1.937   5.132   2.305
 3297W        W 7497   7.486   2.687   2.159
 3298W        W 7498   1.409   6.937   9.516
 3299W        W 7499   8.524   0.249   2.951
 3300W        W 7500   1.560   9.445   0.833
 3301W        W 7501  11.331   1.612   0.429
 3302W        W 7502   6.611   7.100   9.668
 3303W        W 7503   9.052   8.904  11.229
 3304W        W 7504   3.747   4.641   0.827
 3305W        W 7505   1.803   0.467  10.015
 3306W        W 7506   8.383   8.899   9.411
 3307W        W 7507   1.040   7.936  11.747
 3308W        W 7508   0.430   5.547  10.474
 3309W        W 7509   2.958   9.500   9.834
 3310W        W 7510  10.833   0.667   8.957
 3311W        W 7511   3.245   8.201  10.084
 3312W        W 7512   7.471   0.532   0.268
 3313W        W 7513  11.320   6.449  10.463
 3314W        W 7514   3.190   1.242   1.553
 3315W        W 7515   3.183   7.696  10.801
 3316W        W 7516   6.728   9.046   2.394
 3317W        W 7517   8.002   0.518   0.275
 3318W        W 7518   1.885   3.078   1.271
 3319W        W 7519   4.977  10.369   0.470
 3320W        W 7520  10.316   3.692   8.660
 3321W        W 7521   3.897   2.342   0.896
 3322W        W 7522   7.540   5.627   1.566
 3323W        W 7523   1.352   8.896   1.940
 3324W        W 7524   6.217  10.148   1.197
 3325W        W 7525  10.586   6.093   0.676
 3326W        W 7526   3.982   2.203   3.518
 3327W        W 7527   9.760   3.070   1.861
 3328W        W 7528   0.194   4.597   3.022
 3329W        W 7529   0.554   3.885  10.582
 3330W        W 7530   6.053  10.595   1.036
 3331W        W 7531  10.477  11.206   0.500
 3332W        W 7532  10.343  10.484   9.225
 3333W        W 7533   4.361   5.993  11.176
 3334W        W 7534   9.356   1.012   9.556
 3335W        W 7535   3.061   1.450  10.566
 3336W        W 7536   4.738   6.789   9.494
 3337W        W 7537   4.608   1.119   2.955
 3338W        W 7538  10.726   3.628   2.664
 3339W        W 7539   0.608   9.033  10.522
 3340W        W 7540   8.526   1.429   8.496
 3341W        W 7541   0.978   0.497   3.135
 3342W        W 7542   0.508   2.319   8.813
 3343W        W 7543   6.182  11.479   9.871
 3344W        W 7544   4.080   1.607   1.314
 3345W        W 7545   9.937   6.667  11.282
 3346W        W 7546   4.055   5.050   0.050
 3347W        W 7547   8.049  10.540   1.418
 3348W        W 7548   7.268   5.489   1.039
 3349W        W 7549  11.381   6.010   2.438
 3350W        W 7550   9.470   8.396   2.746
 3351W        W 7551   0.580   7.490  11.255
 3352W        W 7552   7.460   6.045   1.909
 3353W        W 7553   3.076   9.654   3.712
 3354W        W 7554   6.779   4.213   2.272
 3355W        W 7555   3.449   6.550   2.627
 3356W        W 7556   4.985   7.531   1.267
 3357W        W 7557   0.866   8.417  11.724
 3358W        W 7558   7.412   9.904  10.047
 3359W        W 7559   0.936   5.674  10.470
 3360W        W 7560   8.000   8.952   3.205
 3361W        W 7561   5.705   3.125  11.181
 3362W        W 7562  11.462   2.802   2.959
 3363W        W 7563   5.216  10.536  11.104
 3364W        W 7564   2.238   8.543   0.779
 3365W        W 7565   0.381   1.759  11.604
 3366W        W 7566   2.884   7.166  10.790
 3367W        W 7567   8.353   5.655   2.731
 3368W        W 7568   0.948   8.028   1.485
 3369W        W 7569   6.724   9.151   4.180
 3370W        W 7570   1.097  11.248   0.469
 3371W        W 7571   6.585   3.055   0.047
 3372W        W 7572   9.178   6.432   1.804
 3373W        W 7573   2.842   2.957   1.936
 3374W        W 7574   6.506   4.362   9.818
 3375W        W 7575   3.196   3.494   3.206
 3376W        W 7576   4.755   0.770  11.298
 3377W        W 7577   9.369   4.076  10.641
 3378W        W 7578   7.790   3.368   8.755
 3379W        W 7579   3.793   6.469   9.464
 3380W        W 7580  10.319   9.496  11.753
 3381W        W 7581   3.813   4.126   2.649
 3382W        W 7582   4.535   7.297   9.408
 3383W        W 7583   6.933   0.490   9.591
 3384W        W 7584   1.062   6.232   8.806
 3385W        W 7585   1.282   2.441  10.910
 3386W        W 7586   4.899   6.560  10.610
 3387W        W 7587   9.363   2.322  11.625
 3388W        W 7588  10.956   6.721   2.677
 3389W        W 7589   4.276   5.305   1.849
 3390W        W 7590   5.040   2.377   1.849
 3391W        W 7591   5.474   4.958   2.778
 3392W        W 7592   9.783   9.940  11.272
 3393W        W 7593   4.395   7.011   0.633
 3394W        W 7594   8.267   6.958   3.352
 3395W        W 7595  10.854  11.038  11.838
 3396W        W 7596  10.494   6.095   3.279
 3397W        W 7597   5.244   2.251   8.976
 3398W        W 7598   7.022   1.031   8.826
 3399W        W 7599   7.061   2.868  11.253
 3400W        W 7600   6.794   7.041  10.189
 3401W        W 7601   5.231   5.733   0.847
 3402W        W 7602  10.029   7.158  10.802
 3403W        W 7603   9.004   6.184   9.799
 3404W        W 7604   4.185   1.958   1.684
 3405W        W 7605   2.947   8.639   9.908
 3406W        W 7606   0.396   9.665   8.494
 3407W        W 7607   9.910   8.629   8.770
 3408W        W 7608   6.516   9.642   9.414
 3409W        W 7609   3.125   1.668   1.878
 3410W        W 7610   8.428   2.522   8.538
 3411W        W 7611   5.234   1.429   9.196
 3412W        W 7612   4.156   3.145   9.932
 3413W        W 7613   9.520  10.270  10.971
 3414W        W 7614   3.012   3.148  10.660
 3415W        W 7615   3.570   8.578   0.236
 3416W        W 7616   1.356   2.645   9.896
 3417W        W 7617   1.793   7.669  10.402
 3418W        W 7618   4.104   6.742  10.848
 3419W        W 7619   7.843   6.920   1.545
 3420W        W 7620   1.935   2.860   1.790
 3421W        W 7621   8.417   6.302   0.820
 3422W        W 7622   6.699  11.267   2.356
 3423W        W 7623   2.768   2.576   9.040
 3424W        W 7624   2.325   6.891   9.499
 3425W        W 7625   4.317   0.371  10.610
 3426W        W 7626   3.122  10.833   9.557
 3427W        W 7627   7.106   5.012   0.095
 3428W        W 7628  10.819   9.015   0.954
 3429W        W 7629   9.592   1.479   2.631
 3430W        W 7630   4.315   9.936   2.747
 3431W        W 7631   0.705   0.853   2.708
 3432W        W 7632   6.772  10.652   3.183
 3433W        W 7633  10.940  10.907   0.332
 3434W        W 7634  10.936   8.062   2.715
 3435W        W 7635   5.839   6.677  10.918
 3436W        W 7636   8.964   4.406  11.390
 3437W        W 7637   2.170   8.366   9.489
 3438W        W 7638   4.114   3.057   3.248
 3439W        W 7639   2.475   2.241   2.269
 3440W        W 7640   4.166   3.622  10.131
 3441W        W 7641   6.551  10.500  10.173
 3442W        W 7642   3.514   8.767   2.413
 3443W        W 7643   6.631   5.197  11.976
 3444W        W 7644   9.904   2.683   9.599
 3445W        W 7645  10.827   8.947  11.240
 3446W        W 7646   1.329   5.209   0.357
 3447W        W 7647   7.197   6.970   0.924
 3448W        W 7648   2.310   1.056   1.955
 3449W        W 7649   8.654   7.791   0.873
 3450W        W 7650   6.994   3.919  11.764
 3451W        W 7651   7.105   8.570   3.413
 3452W        W 7652   9.805   4.564   1.022
 3453W        W 7653   8.639  11.230   1.272
 3454W        W 7654   1.683   0.838   9.654
 3455W        W 7655   8.106   0.965   3.408
 3456W        W 7656   8.194  10.474  10.818
 3457W        W 7657  10.841   5.739   3.113
 3458W        W 7658   2.157   4.893   3.560
 3459W        W 7659   5.275   7.882  10.278
 3460W        W 7660   1.766   2.700   9.594
 3461W        W 7661   0.100   1.755  10.560
 3462W        W 7662   9.401   2.728   3.027
 3463W        W 7663   3.408   1.237   9.277
 3464W        W 7664   7.112   3.932   1.985
 3465W        W 7665   8.782   5.172   8.980
 3466W        W 7666   0.283   8.286   0.239
 3467W        W 7667   7.701   8.044  11.266
 3468W        W 7668   5.129   6.849   2.510
 3469W        W 7669   2.402   9.459  10.159
 3470W        W 7670   6.703   6.912  10.706
 3471W        W 7671   5.071   4.222   2.404
 3472W        W 7672   0.046   9.640  10.917
 3473W        W 7673   5.916   7.520   3.117
 3474W        W 7674  11.370   8.779   9.058
 3475W        W 7675   7.732   8.544  11.949
 3476W        W 7676   5.200   9.323   1.832
 3477W        W 7677   1.607   9.511   3.051
 3478W        W 7678   3.033   5.257   0.642
 3479W        W 7679   5.959   6.056   0.064
 3480W        W 7680  10.836   4.534   9.474
 3481W        W 7681   9.011   6.708   1.409
 3482W        W 7682   0.817  10.800   1.182
 3483W        W 7683   5.977   0.808  10.322
 3484W        W 7684  11.473   1.291  10.800
 3485W        W 7685   9.576   5.411  10.944
 3486W        W 7686   4.291   9.451   9.460
 3487W        W 7687  10.296   2.786   8.941
 3488W        W 7688   4.045   5.552   2.362
 3489W        W 7689  10.825   8.187  10.144
 3490W        W 7690   4.813   0.712   3.211
 3491W        W 7691   1.375   6.109  11.149
 3492W        W 7692   6.063   6.458  11.792
 3493W        W 7693   9.771   4.094  10.309
 3494W        W 7694   8.325   1.434   0.854
 3495W        W 7695   5.737   5.759   0.983
 3496W        W 7696   3.588   8.308   2.168
 3497W        W 7697   8.546   4.675   3.193
 3498W        W 7698   1.252   8.617   0.449
 3499W        W 7699   8.884  10.473   0.453
 3500W        W 7700   0.809   4.767   2.195
 3501W        W 7701   0.534  10.597  10.904
 3502W        W 7702  10.043   1.700   9.603
 3503W        W 7703   4.301   3.722   9.645
 3504W        W 7704   2.437   2.999   3.238
 3505W        W 7705   3.311   9.576   8.836
 3506W        W 7706   2.385   5.332  10.979
 3507W        W 7707   9.375   7.018   0.677
 3508W        W 7708   7.505   4.590   2.803
 3509W        W 7709  11.062  11.382   8.537
 3510W        W 7710   1.610   8.610   3.201
 3511W        W 7711  10.849   8.373   1.292
 3512W        W 7712   6.793   5.240   1.889
 3513W        W 7713  11.317   5.760   1.911
 3514W        W 7714   8.300  11.195  10.496
 3515W        W 7715   2.785   5.038  10.879
 3516W        W 7716   2.256   6.630  11.287
 3517W        W 7717   1.593   8.525   2.319
 3518W        W 7718   3.038  10.559   0.793
 3519W        W 7719   3.257   5.600   9.046
 3520W        W 7720   1.028  10.721  11.003
 3521W        W 7721   1.816   6.589  11.552
 3522W        W 7722   8.120   8.447   3.193
 3523W        W 7723   4.596   9.035   9.381
 3524W        W 7724  11.356   3.314   9.554
 3525W        W 7725   3.194   4.166  11.995
 3526W        W 7726   9.050   2.284   2.232
 3527W        W 7727   1.294   0.730  11.386
 3528W        W 7728   3.140   4.752   9.530
 3529W        W 7729   5.257   1.398   0.424
 3530W        W 7730   9.329   4.678   2.328
 3531W        W 7731   0.521   0.373   2.940
 3532W        W 7732   0.777   6.423  11.140
 3533W        W 7733   3.744   2.615   2.685
 3534W        W 7734   1.080  10.397   0.891
 3535W        W 7735   6.145   7.678   8.926
 3536W        W 7736   0.727   3.327  11.978
 3537W        W 7737   1.707   9.854   8.822
 3538W        W 7738   4.310   1.857   0.390
 3539W        W 7739   3.335   4.613  10.350
 3540W        W 7740  10.435  10.888   0.090
 3541W        W 7741   6.568   9.288  11.189
 3542W        W 7742   8.163   2.144  11.532
 3543W        W 7743   0.947   3.759  11.237
 3544W        W 7744   4.627   1.502  11.937
 3545W        W 7745   5.241  10.620   9.293
 3546W        W 7746   8.858  10.414   2.275
 3547W        W 7747  11.135   5.186  -0.001
 3548W        W 7748   8.079  10.376   2.948
 3549W        W 7749   9.379   5.533   2.470
 3550W        W 7750   1.627   1.860  11.613
 3551W        W 7751   6.457   9.364   8.948
 3552W        W 7752   5.990  10.425  10.355
 3553W        W 7753   7.889   8.937   1.736
 3554W        W 7754  10.961   7.429   1.343
 3555W        W 7755   1.912   8.948   2.423
 3556W        W 7756   4.950   8.307  11.745
 3557W        W 7757  10.192  11.402   0.107
 3558W        W 7758   6.693  11.281   1.842
 3559W        W 7759   4.774   9.888   9.563
 3560W        W 7760   8.579  10.334  11.108
 3561W        W 7761   5.424   7.305   3.289
 3562W        W 7762   6.307   3.837   1.371
 3563W        W 7763   2.709   3.054  11.073
 3564W        W 7764  11.359   5.566   0.909
 3565W        W 7765   7.931   3.212   9.590
 3566W        W 7766   5.275  11.038   3.268
 3567W        W 7767   1.355   0.100   2.381
 3568W        W 7768   1.252   9.128   3.223
 3569W        W 7769   7.107   7.402   2.121
 3570W        W 7770   4.090   6.475  11.768
 3571W        W 7771  10.982   1.870   1.703
 3572W        W 7772   9.281  11.445   3.681
 3573W        W 7773   6.173   2.484   8.649
 3574W        W 7774   6.680   9.929   2.511
 3575W        W 7775   3.596   3.578   8.963
 3576W        W 7776   3.101  10.046   9.995
 3577W        W 7777   8.029   0.253   0.741
 3578W        W 7778   9.986  10.317   8.842
 3579W        W 7779   8.695   2.395   2.575
 3580W        W 7780   0.411   2.267   1.338
 3581W        W 7781   3.660   0.372   9.234
 3582W        W 7782  11.440  11.052   8.703
 3583W        W 7783  11.026   2.323   2.308
 3584W        W 7784   1.838   6.040  10.859
 3585W        W 7785   3.441   8.610   9.825
 3586W        W 7786   2.590   7.096   1.914
 3587W        W 7787   9.948   4.844   0.629
 3588W        W 7788   7.716   8.836   2.219
 3589W        W 7789  11.325  10.568   1.962
 3590W        W 7790   0.898   5.418   1.612
 3591W        W 7791   6.981   1.892   0.662
 3592W        W 7792   1.984   2.294  11.761
 3593W        W 7793   6.538   5.696   1.503
 3594W        W 7794   9.121   3.452  11.210
 3595W        W 7795   3.496   7.460   2.614
 3596W        W 7796   3.595   7.080  10.186
 3597W        W 7797   7.269   6.216  11.015
 3598W        W 7798   4.003   9.336   8.520
 3599W        W 7799   6.125   2.828   0.733
 3600W        W 7800   9.537   9.048  11.751
 3601W        W 7801   2.401   9.151   8.974
 3602W        W 7802   9.179   5.806   3.043
 3603W        W 7803   4.988   6.656  11.225
 3604W        W 7804   4.260   4.726  11.244
 3605W        W 7805   5.344   8.851  11.919
 3606W        W 7806   3.230   7.902   2.212
 3607W        W 7807   8.447   1.803   0.512
 3608W        W 7808  11.342   7.828   3.018
 3609W        W 7809   0.984   8.267  10.828
 3610W        W 7810   1.129   4.271  11.292
 3611W        W 7811   6.086   5.293   9.488
 3612W        W 7812   6.683  10.212   0.816
 3613W        W 7813   6.809   0.299  10.069
 3614W        W 7814   5.629   4.067   9.824
 3615W        W 7815   4.608   1.620   2.940
 3616W        W 7816   8.095   8.114   0.975
 3617W        W 7817   1.895  10.313   0.228
 3618W        W 7818   1.328   2.706   9.313
 3619W        W 7819   6.490   2.610   2.338
 3620W        W 7820   4.117   7.551   9.649
 3621W        W 7821   2.304   5.563  10.435
 3622W        W 7822   9.548   8.263  10.732
 3623W        W 7823   1.877   7.020   9.271
 3624W        W 7824   9.973   0.865   0.553
 3625W        W 7825   6.170   8.532   2.225
 3626W        W 7826  11.302   1.099   0.544
 3627W        W 7827   7.491   7.673   0.226
 3628W        W 7828  11.066   6.176   0.863
 3629W        W 7829   2.154   8.995   0.522
 3630W        W 7830   8.382   6.881   2.320
 3631W        W 7831   3.253   4.702   2.097
 3632W        W 7832  10.947   1.398   1.440
 3633W        W 7833   4.677   1.908   0.906
 3634W        W 7834   5.645   0.630   1.791
 3635W        W 7835   3.167   7.591   3.016
 3636W        W 7836   1.066   7.637  11.326
 3637W        W 7837  10.027   9.954   3.234
 3638W        W 7838   5.766   2.201   2.337
 3639W        W 7839   9.046  10.823   1.535
 3640W        W 7840   6.553   8.192   2.907
 3641W        W 7841   1.825  10.397  10.735
 3642W        W 7842   9.942   8.745   0.087
 3643W        W 7843   1.735   4.258   9.925
 3644W        W 7844   4.238   8.482   0.933
 3645W        W 7845   9.840   5.666  11.314
 3646W        W 7846   0.173   1.712   0.059
 3647W        W 7847   3.663  10.471   9.487
 3648W        W 7848   8.525  10.868   0.425
 3649W        W 7849   5.015   3.878   9.210
 3650W        W 7850   8.025   0.043   2.424
 3651W        W 7851   5.452   7.445   0.362
 3652W        W 7852  10.469   0.857  10.955
 3653W        W 7853   8.223   1.905   0.068
 3654W        W 7854   0.677   0.062  11.057
 3655W        W 7855   8.083  10.319   3.455
 3656W        W 7856   8.559   6.601   3.127
 3657W        W 7857  10.970   8.574  10.898
 3658W        W 7858   1.355   0.251   2.881
 3659W        W 7859   5.044   5.245  10.437
 3660W        W 7860   8.538   4.633  11.098
 3661W        W 7861   2.335   5.211   2.670
 3662W        W 7862   9.385   2.294   9.076
 3663W        W 7863   4.053   1.226   9.045
 3664W        W 7864   2.627   6.567   2.268
 3665W        W 7865   7.297   7.953  10.961
 3666W        W 7866   5.098   3.869   2.750
 3667W        W 7867   4.439   9.914   1.772
 3668W        W 7868   8.368  11.439   9.267
 3669W        W 7869   8.441   0.299   8.923
 3670W        W 7870   0.909   2.299   1.442
 3671W        W 7871   2.899  10.547   9.931
 3672W        W 7872   5.108   3.251   0.459
 3673W        W 7873   9.650   3.493   9.422
 3674W        W 7874  10.064   7.192   2.817
 3675W        W 7875  10.601   2.671  11.846
 3676W        W 7876   5.051   3.053   3.187
 3677W        W 7877   6.337   6.583  10.856
 3678W        W 7878   0.376  10.822   0.867
 3679W        W 7879  11.396   3.069   0.075
 3680W        W 7880   1.247   0.354   9.119
 3681W        W 7881  11.212   2.350   1.838
 3682W        W 7882   3.768   5.245   2.056
 3683W        W 7883   2.378   3.100   1.768
 3684W        W 7884   4.308   9.243  10.959
 3685W        W 7885   6.022   5.314  10.872
 3686W        W 7886   5.703   1.384   3.522
 3687W        W 7887   3.286   8.662  10.833
 3688W        W 7888   8.727   5.145   1.944
 3689W        W 7889   6.284   3.990  10.614
 3690W        W 7890   2.278  10.320   1.292
 3691W        W 7891   4.890   4.077   3.152
 3692W        W 7892   8.153  10.744   0.065
 3693W        W 7893   7.293   2.125  10.903
 3694W        W 7894   2.839  11.042   9.941
 3695W        W 7895   6.507   5.691   2.000
 3696W        W 7896   7.078   7.548  11.332
 3697W        W 7897   4.354   5.995   1.528
 3698W        W 7898   9.715   0.097   3.384
 3699W        W 7899   4.195   9.050   1.705
 3700W        W 7900   9.500   4.517   2.807
 3701W        W 7901   3.389   2.269  11.006
 3702W        W 7902   6.129   5.632   9.886
 3703W        W 7903   2.372   7.968  11.521
 3704W        W 7904   2.262   5.669  11.969
 3705W        W 7905   0.363   6.587   9.178
 3706W        W 7906   9.977   1.031  11.019
 3707W        W 7907   0.423  11.310   1.771
 3708W        W 7908  11.380   2.678  10.351
 3709W        W 7909   7.957   6.644   3.716
 3710W        W 7910   2.674   6.661  10.819
 3711W        W 7911   3.151   5.938   2.007
 3712W        W 7912   5.750   6.686   1.626
 3713W        W 7913  11.417   9.064   2.908
 3714W        W 7914   1.118   2.962  11.769
 3715W        W 7915  11.054   7.949   9.346
 3716W        W 7916   5.698   9.419   1.724
 3717W        W 7917   3.837   2.457  11.232
 3718W        W 7918   9.577   5.216   0.735
 3719W        W 7919   8.518   7.426   1.387
 3720W        W 7920   9.523   3.275  11.561
 3721W        W 7921   2.303   3.586  10.519
 3722W        W 7922   9.718   9.594   3.428
 3723W        W 7923   8.592  11.299  10.916
 3724W        W 7924   7.108   2.655  10.322
 3725W        W 7925   3.155   6.232   2.897
 3726W        W 7926   1.129   0.897   0.430
 3727W        W 7927   8.545   5.660   1.845
 3728W        W 7928  10.063   6.139   2.606
 3729W        W 7929   4.162   7.738  10.991
 3730W        W 7930  10.446  11.494   0.933
 3731W        W 7931   0.138   2.631   8.514
 3732W        W 7932   6.124   2.781  11.309
 3733W        W 7933   4.251   0.051   0.447
 3734W        W 7934   6.345   6.948   1.330
 3735W        W 7935   6.077   4.813   1.775
 3736W        W 7936   7.772   5.577   1.113
 3737W        W 7937   7.300   9.385   0.992
 3738W        W 7938   5.177   9.199   0.731
 3739W        W 7939   1.876  10.015   1.864
 3740W        W 7940   5.287   4.638  10.280
 3741W        W 7941   4.302   3.802   0.230
 3742W        W 7942   3.092   2.569   9.465
 3743W        W 7943   6.901   4.709   9.865
 3744W        W 7944   5.042   9.681   0.724
 3745W        W 7945   5.252   0.900   2.992
 3746W        W 7946   9.383   3.565   2.926
 3747W        W 7947   0.284   6.326  10.668
 3748W        W 7948   0.804  11.276   1.440
 3749W        W 7949   3.259   4.238  11.056
 3750W        W 7950   4.053   0.305  10.168
 3751W        W 7951   0.455   5.764   1.554
 3752W        W 7952  10.831   3.223   0.018
 3753W        W 7953   8.147   8.181   2.760
 3754W        W 7954   6.222   8.303  11.829
 3755W        W 7955   9.092   6.499   9.387
 3756W        W 7956   2.154   3.888   2.654
 3757W        W 7957   3.542  10.828   1.188
 3758W        W 7958   9.630   1.906   9.817
 3759W        W 7959   8.299   4.321   2.437
 3760W        W 7960   9.487  10.775   1.853
 3761W        W 7961   9.536   8.533  11.786
 3762W        W 7962   3.307   1.941   0.296
 3763W        W 7963   3.917   9.118   2.479
 3764W        W 7964   9.259   1.402   3.070
 3765W        W 7965   6.108   0.317  10.248
 3766W        W 7966   7.624   4.610  10.962
 3767W        W 7967  10.848  11.061   0.826
 3768W        W 7968   6.062   8.112   0.720
 3769W        W 7969   6.678   4.660  11.220
 3770W        W 7970   2.211   4.261  10.099
 3771W        W 7971   8.518   3.626   9.977
 3772W        W 7972   0.727   9.760   1.175
 3773W        W 7973   3.020   0.416   2.394
 3774W        W 7974   8.434   3.613  10.541
 3775W        W 7975   2.912   5.129   2.092
 3776W        W 7976   6.087   4.111   9.131
 3777W        W 7977   9.257   5.369   3.428
 3778W        W 7978   2.565   5.651   3.124
 3779W        W 7979   6.912  10.678   8.612
 3780W        W 7980   4.174   5.648  10.253
 3781W        W 7981   6.677   3.125   2.329
 3782W        W 7982   0.802  11.226   9.508
 3783W        W 7983   0.298   7.500   8.791
 3784W        W 7984   7.993   1.879   2.443
 3785W        W 7985   9.792   7.888   0.472
 3786W        W 7986   9.833   6.014   9.375
 3787W        W 7987   3.350   3.320  11.564
 3788W        W 7988   5.692   0.894   2.704
 3789W        W 7989  10.961   9.982   3.128
 3790W        W 7990   2.107   8.352   8.739
 3791W        W 7991   8.599  10.081   9.379
 3792W        W 7992   1.824   5.987   9.104
 3793W        W 7993  11.274   7.483   2.107
 3794W        W 7994  10.079   5.349   1.506
 3795W        W 7995   7.952   8.178   9.702
 3796W        W 7996   8.003   1.931   8.906
 3797W        W 7997   9.818   0.917   2.539
 3798W        W 7998   5.700   9.900   0.431
 3799W        W 7999  10.793   2.730  11.285
 3800W        W 8000   9.782   1.536  11.796
 3801W        W 8001   8.997   2.977  11.095
 3802W        W 8002   3.407   5.676   0.574
 3803W        W 8003   0.689   1.194   9.078
 3804W        W 8004   2.561   2.234  10.435
 3805W        W 8005   1.847   3.591   1.305
 3806W        W 8006   3.626   7.864   9.569
 3807W        W 8007   7.896   7.399  10.821
 3808W        W 8008   5.229   3.503  10.527
 3809W        W 8009   4.710  10.032  10.538
 3810W        W 8010   7.959   3.803   9.080
 3811W        W 8011   3.633   8.578   1.201
 3812W        W 8012   6.662   7.374   2.353
 3813W        W 8013   7.586   7.551  11.216
 3814W        W 8014   3.137  10.458  10.361
 3815W        W 8015   0.628   2.787   1.244
 3816W        W 8016   9.799   2.370  10.401
 3817W        W 8017   8.487   9.374  11.141
 3818W        W 8018   8.522  10.563   9.511
 3819W        W 8019   4.459  11.347  10.120
 3820W        W 8020  11.210   9.154  11.536
 3821W        W 8021   1.595   9.379   3.533
 3822W        W 8022   8.101   5.455   8.220
 3823W        W 8023   2.017   8.887   9.530
 3824W        W 8024   8.755   5.307   3.365
 3825W        W 8025   8.429   8.193   1.782
 3826W        W 8026  10.950   1.235   9.664
 3827W        W 8027   9.103   8.108   2.438
 3828W        W 8028   3.927   9.983   1.780
 3829W        W 8029   8.188   5.493   9.479
 3830W        W 8030  10.690   2.284   1.895
 3831W        W 8031   7.388   4.468   1.222
 3832W        W 8032   9.459   6.967  10.822
 3833W        W 8033   0.477   6.866   2.562
 3834W        W 8034  10.372   6.554   0.479
 3835W        W 8035   1.779   4.108  11.835
 3836W        W 8036   4.663   4.097  10.899
 3837W        W 8037   0.561   4.925   3.662
 3838W        W 8038   1.776  10.230   1.417
 3839W        W 8039   7.222  11.423   0.340
 3840W        W 8040   6.297   6.994  10.073
 3841W        W 8041  10.015   9.754   8.773
 3842W        W 8042   2.469  10.542   1.716
 3843W        W 8043   8.921   2.968   0.173
 3844W        W 8044   9.414   0.383   9.348
 3845W        W 8045  10.283   1.294   1.991
 3846W        W 8046   0.800   3.478  10.838
 3847W        W 8047   6.957   1.513   2.593
 3848W        W 8048   8.430  10.514  11.571
 3849W        W 8049  11.001  10.324  10.859
 3850W        W 8050   9.498   1.926  11.956
 3851W        W 8051   3.518   3.347   2.333
 3852W        W 8052  10.020   0.373   0.370
 3853W        W 8053   3.812   8.991  11.969
 3854W        W 8054   8.987  10.365   1.354
 3855W        W 8055   3.764   0.231   0.287
 3856W        W 8056   2.308   1.415  10.034
 3857W        W 8057   9.423   3.626  10.325
 3858W        W 8058   7.008   9.472   9.568
 3859W        W 8059   8.607   5.122   4.112
 3860W        W 8060  10.132   0.803   1.475
 3861W        W 8061   1.424   1.442   2.719
 3862W        W 8062   0.798   9.368   1.510
 3863W        W 8063   7.285  10.943   0.692
 3864W        W 8064   6.447   2.285   2.747
 3865W        W 8065   9.587   1.818   3.018
 3866W        W 8066   4.973   3.386   1.934
 3867W        W 8067   2.474   1.376  11.652
 3868W        W 8068   7.194   3.475   2.205
 3869W        W 8069   8.507  10.951   9.176
 3870W        W 8070  10.426  10.954  10.590
 3871W        W 8071   9.814   3.571   1.830
 3872W        W 8072  11.410   6.676   8.914
 3873W        W 8073   0.208   9.576   3.680
 3874W        W 8074   3.557   5.410   1.364
 3875W        W 8075   6.003   1.867   9.345
 3876W        W 8076   4.707   4.310   0.922
 3877W        W 8077   6.047   1.743   0.515
 3878W        W 8078   3.129   3.452   9.150
 3879W        W 8079   6.090   7.472  10.781
 3880W        W 8080   4.485   8.894  10.579
 3881W        W 8081  10.969   9.393   0.513
 3882W        W 8082   5.123   4.679   0.699
 3883W        W 8083   4.477   8.710   9.006
 3884W        W 8084   5.777   1.834   3.160
 3885W        W 8085  10.329  10.143  11.443
 3886W        W 8086   5.740   4.376   9.419
 3887W        W 8087   9.519   7.379   9.006
 3888W        W 8088   4.768   0.696  10.767
 3889W        W 8089   4.301   4.247   9.580
 3890W        W 8090   7.236   1.827   2.955
 3891W        W 8091   1.324  10.447  11.509
 3892W        W 8092   4.460   1.257   1.293
 3893W        W 8093   4.793   3.625   9.592
 3894W        W 8094   3.359   7.182   3.272
 3895W        W 8095   9.049  10.734  11.734
 3896W        W 8096  11.258   5.797  11.348
 3897W        W 8097   4.795  10.644   0.854
 3898W        W 8098  11.319   0.165   0.198
 3899W        W 8099   4.177   9.861   9.750
 3900W        W 8100   3.564   7.999   2.592
 3901W        W 8101   3.141   9.910  11.994
 3902W        W 8102   2.693   9.078   9.939
 3903W        W 8103   9.445   9.291  10.749
 3904W        W 8104   5.524   4.687   0.175
 3905W        W 8105   8.451   0.500  11.973
 3906W        W 8106  10.878  11.261  11.370
 3907W        W 8107   8.854   5.861  11.460
 3908W        W 8108   9.550   3.626  10.851
 3909W        W 8109   6.316   5.093   2.736
 3910W        W 8110   5.235  10.131   9.454
 3911W        W 8111   0.467   3.308   0.875
 3912W        W 8112  11.413   1.330   3.117
 3913W        W 8113   8.356   1.248  10.549
 3914W        W 8114   4.913  10.859  11.774
 3915W        W 8115   1.745   0.175   9.155
 3916W        W 8116   4.623   8.424  10.734
 3917W        W 8117   5.599  11.280  10.792
 3918W        W 8118   8.542   1.755   2.558
 3919W        W 8119   6.374   7.292   0.954
 3920W        W 8120   0.262   8.961   8.786
 3921W        W 8121  10.511   2.256   2.377
 3922W        W 8122   4.258   9.478   1.977
 3923W        W 8123  10.376   8.519   2.668
 3924W        W 8124  11.326   3.825   9.953
 3925W        W 8125   7.148   0.330  11.580
 3926W        W 8126   2.267   5.759   1.965
 3927W        W 8127   0.465   3.655   1.944
 3928W        W 8128   8.049   2.215   1.252
 3929W        W 8129   7.251   7.824   9.960
 3930W        W 8130   2.723   7.920   2.295
 3931W        W 8131   7.416   5.245   2.259
 3932W        W 8132   8.423   6.421   3.583
 3933W        W 8133   7.650   5.081   2.699
 3934W        W 8134   9.665  10.252   2.046
 3935W        W 8135   6.091   7.781   1.836
 3936W        W 8136  10.453  11.480  10.762
 3937W        W 8137   5.665   1.718  11.191
 3938W        W 8138   7.207   5.195   1.567
 3939W        W 8139   8.568   1.839  11.729
 3940W        W 8140   3.284   2.703   1.825
 3941W        W 8141   0.509   4.335  10.335
 3942W        W 8142   1.234  11.035   1.593
 3943W        W 8143   3.892   4.104   0.355
 3944W        W 8144   9.475   4.794   8.342
 3945W        W 8145   9.036   4.752  11.039
 3946W        W 8146   7.677   1.022   2.495
 3947W        W 8147   4.577  10.836   8.547
 3948W        W 8148   7.196   8.411   0.887
 3949W        W 8149   7.595   8.448   3.228
 3950W        W 8150   5.394   7.774   3.064
 3951W        W 8151   6.283  11.336  11.410
 3952W        W 8152   3.784   2.791   1.655
 3953W        W 8153   7.523   3.103  11.841
 3954W        W 8154   3.259   1.843   1.408
 3955W        W 8155   7.932   3.163   1.631
 3956W        W 8156   1.968   9.458  10.428
 3957W        W 8157   1.027   5.575  10.975
 3958W        W 8158   9.319   2.874   2.085
 3959W        W 8159   2.678   7.604   3.183
 3960W        W 8160   8.455   4.296   0.018
 3961W        W 8161   7.123   7.352   1.623
 3962W        W 8162   7.149   4.551   3.635
 3963W        W 8163   6.660   3.089   1.808
 3964W        W 8164   4.175   3.845   2.870
 3965W        W 8165   4.262   8.847  10.098
 3966W        W 8166   7.875   4.448  11.715
 3967W        W 8167   2.184   7.423  10.859
 3968W        W 8168   9.518   4.610  11.934
 3969W        W 8169   2.109   6.161   2.855
 3970W        W 8170   1.364   8.718  10.615
 3971W        W 8171   8.322   5.079   9.165
 3972W        W 8172   4.818  10.415   1.322
 3973W        W 8173   6.063   3.208   9.882
 3974W        W 8174   9.051   5.600   1.617
 3975W        W 8175   8.454   7.133   1.871
 3976W        W 8176   9.048   4.704   0.350
 3977W        W 8177   5.861   2.632  10.478
 3978W        W 8178   2.086   5.667   2.959
 3979W        W 8179   1.774   8.803  11.804
 3980W        W 8180  11.441   9.023   0.453
 3981W        W 8181   0.715   7.737   2.946
 3982W        W 8182   5.142   9.957   9.932
 3983W        W 8183   8.633   9.302  10.124
 3984W        W 8184   4.789   0.736   9.006
 3985W        W 8185   7.707   2.186   9.242
 3986W        W 8186   4.841   0.813   0.626
 3987W        W 8187   7.645  11.191  11.064
 3988W        W 8188   2.361   3.822   2.186
 3989W        W 8189   8.090   7.208   1.187
 3990W        W 8190   6.741   4.960   0.601
 3991W        W 8191   6.645  10.902   2.736
 3992W        W 8192   1.285   3.794   2.470
 3993W        W 8193   0.718   5.727   0.661
 3994W        W 8194   4.712   1.724   8.922
 3995W        W 8195   8.966   9.550   2.708
 3996W        W 8196   2.031   0.499  10.527
 3997W        W 8197   6.570   1.262   9.083
 3998W        W 8198   6.135   6.939  11.985
 3999W        W 8199   8.925   7.744   0.423
 4000W        W 8200   5.276   8.041   0.044
 4001W        W 8201   2.190   0.886   1.201
 4002W        W 8202   9.485   4.597   3.345
 4003W        W 8203  10.407   0.551   9.713
 4004W        W 8204   7.454   9.235   2.406
 4005W        W 8205  11.265   1.750   1.253
 4006W        W 8206   7.620   8.466  10.991
 4007W        W 8207   1.947  10.789   2.280
 4008W        W 8208   4.356   9.503   3.084
 4009W        W 8209   4.237   2.803   2.824
 4010W        W 8210   9.625   5.987   2.357
 4011W        W 8211   7.969   3.752   9.940
 4012W        W 8212   3.301   5.451   1.968
 4013W        W 8213   4.648   4.346   2.141
 4014W        W 8214   5.908   4.036   3.057
 4015W        W 8215   7.179  10.936   2.770
 4016W        W 8216   9.313   4.615   1.355
 4017W        W 8217   2.648   7.607  10.709
 4018W        W 8218  10.725   2.197  10.636
 4019W        W 8219   1.318   2.274   0.449
 4020W        W 8220   6.093   6.407   0.908
 4021W        W 8221   3.370   1.396   3.308
 4022W        W 8222   6.616   7.053   3.996
 4023W        W 8223   5.689   8.205  10.354
 4024W        W 8224   1.294   5.175   3.375
 4025W        W 8225   2.887   9.277   8.747
 4026W        W 8226   8.221   5.640   3.316
 4027W        W 8227   0.357   2.873   3.368
 4028W        W 8228   2.937   0.726   1.700
 4029W        W 8229   5.696  10.833   8.570
 4030W        W 8230   5.934   1.293  11.297
 4031W        W 8231   6.444   6.161   1.729
 4032W        W 8232   1.265   0.798   8.854
 4033W        W 8233   9.522   4.154   0.853
 4034W        W 8234   3.866   6.884   2.424
 4035W        W 8235   4.321   8.524   9.482
 4036W        W 8236   4.610   8.045   0.502
 4037W        W 8237   3.004   5.108   0.048
 4038W        W 8238   9.382   1.369   9.077
 4039W        W 8239   6.893  10.590   0.509
 4040W        W 8240   5.678   1.156   1.698
 4041W        W 8241  11.323   6.635   1.797
 4042W        W 8242   3.971  10.468   3.454
 4043W        W 8243   3.729   0.264  11.785
 4044W        W 8244   4.035   8.506   0.008
 4045W        W 8245   2.485   0.567   9.648
 4046W        W 8246   2.755  11.383   9.035
 4047W        W 8247   1.786   3.614  11.203
 4048W        W 8248   3.661   6.360   8.625
 4049W        W 8249   1.189   1.870   1.530
 4050W        W 8250  11.310   7.491  10.053
 4051W        W 8251   6.746   7.869   8.274
 4052W        W 8252   0.417  11.255  10.727
 4053W        W 8253   8.770   7.591  11.955
 4054W        W 8254   5.527   3.029  10.686
 4055W        W 8255   6.648   1.877  10.861
 4056W        W 8256  11.272   5.138   9.245
 4057W        W 8257   8.100   9.322  11.961
 4058W        W 8258   7.441   0.528   9.485
 4059W        W 8259   3.244   4.630   0.935
 4060W        W 8260   7.698   9.993   9.518
 4061W        W 8261   4.020   8.471   9.071
 4062W        W 8262   1.772  11.172   0.498
 4063W        W 8263   9.469  11.047   8.723
 4064W        W 8264   0.546   6.195   1.869
 4065W        W 8265   5.016   3.830   1.697
 4066W        W 8266   5.539   5.204  11.855
 4067W        W 8267   2.130   8.404  11.749
 4068W        W 8268   2.367   3.402   8.636
 4069W        W 8269  10.784   5.520  10.461
 4070W        W 8270   3.991   0.937   9.516
 4071W        W 8271   7.620   3.755   1.657
 4072W        W 8272   4.735   9.121  10.195
 4073W        W 8273  10.809   3.901   0.065
 4074W        W 8274   7.947  11.183  11.879
 4075W        W 8275   5.629   0.228  10.490
 4076W        W 8276   3.073   5.123   9.178
 4077W        W 8277   6.765  10.629   0.015
 4078W        W 8278   2.213   9.734  11.771
 4079W        W 8279   4.012   3.169   2.370
 4080W        W 8280   3.128   6.379   4.072
 4081W        W 8281   7.559   0.092   2.653
 4082W        W 8282   3.094  10.005  10.563
 4083W        W 8283   2.928  10.636   1.917
 4084W        W 8284   6.782   2.032   8.381
 4085W        W 8285   8.463   7.498  11.510
 4086W        W 8286   9.550   4.590   8.805
 4087W        W 8287   6.310   8.053  11.378
 4088W        W 8288   1.036   6.284   1.912
 4089W        W 8289  11.009   1.820  11.420
 4090W        W 8290   2.667   7.473   9.409
 4091W        W 8291   8.313   7.767  11.970
 4092W        W 8292   9.531   4.900   0.341
 4093W        W 8293   0.047   2.885  10.800
 4094W        W 8294   6.723  10.287  10.589
 4095W        W 8295   3.772   3.879   8.583
 4096W        W 8296   5.766   8.846   9.474
 4097W        W 8297   3.518   5.322   3.307
 4098W        W 8298   6.633   6.805  11.206
 4099W        W 8299   0.561   9.483   0.766
 4100W        W 8300   3.734   1.686   3.072
 4101W        W 8301   0.554   3.832  12.000
 4102W        W 8302   9.766   1.938  10.860
 4103W        W 8303   5.683   2.166   0.085
 4104W        W 8304   6.389   6.550   2.842
 4105W        W 8305   2.321   4.814  11.874
 4106W        W 8306   0.786   8.503   1.748
 4107W        W 8307  11.084  10.577  11.805
 4108W        W 8308   5.008   4.724   9.845
 4109W        W 8309   2.989   0.781   8.553
 4110W        W 8310   4.482   4.841   9.819
 4111W        W 8311   0.540   7.447   3.725
 4112W        W 8312  10.877   9.530   0.982
 4113W        W 8313   9.822   9.507  11.014
 4114W        W 8314   3.997   0.042   3.272
 4115W        W 8315   9.623   5.946  10.469
 4116W        W 8316   1.951   0.800   1.688
 4117W        W 8317  11.234   2.765   2.430
 4118W        W 8318   3.179   6.716   3.126
 4119W        W 8319   9.938   7.666  10.121
 4120W        W 8320   6.844  11.186   8.592
 4121W        W 8321   2.190   1.370   0.998
 4122W        W 8322   5.281   0.967   1.376
 4123W        W 8323   0.396  10.575   1.370
 4124W        W 8324   8.465   6.176   8.671
 4125W        W 8325  10.828  10.311   8.959
 4126W        W 8326   1.687   8.527   9.392
 4127W        W 8327  10.851   7.879   0.462
 4128W        W 8328   0.058   6.211   1.976
 4129W        W 8329  11.434   7.624   9.578
 4130W        W 8330  10.006   8.492  11.230
 4131W        W 8331  11.353   4.103  11.243
 4132W        W 8332  11.458  10.073   2.924
 4133W        W 8333   6.035   3.765  10.984
 4134W        W 8334   9.816   4.099  10.900
 4135W        W 8335  10.986   6.825  10.616
 4136W        W 8336   2.435  10.499   9.174
 4137W        W 8337   4.334   4.313   0.145
 4138W        W 8338   2.778   0.744  10.996
 4139W        W 8339   6.569   1.265   2.854
 4140W        W 8340   9.440   4.059   8.546
 4141W        W 8341   6.743   2.732   3.161
 4142W        W 8342   6.585  11.049   9.843
 4143W        W 8343   8.809  11.028   0.821
 4144W        W 8344   0.160   2.651  11.529
 4145W        W 8345   6.810   0.831   0.256
 4146W        W 8346   0.324   4.363  11.276
 4147W        W 8347   1.068   4.936   1.799
 4148W        W 8348   6.710  10.340  11.603
 4149W        W 8349   4.024   4.609   0.398
 4150W        W 8350   0.967   3.344   8.876
 4151W        W 8351   0.859  10.828   0.673
 4152W        W 8352   8.198   6.653   1.856
 4153W        W 8353   1.747   9.876   1.046
 4154W        W 8354   7.732   9.604   0.796
 4155W        W 8355  10.094   1.757   0.630
 4156W        W 8356   7.598   4.001   1.157
 4157W        W 8357   9.522   6.218   0.034
 4158W        W 8358   2.831  10.832   9.115
 4159W        W 8359   1.650   4.323  11.311
 4160W        W 8360   7.034   3.232   3.291
 4161W        W 8361   3.665   6.076   2.838
 4162W        W 8362   9.434  11.196   3.245
 4163W        W 8363  10.698   7.122   9.501
 4164W        W 8364   8.151  10.977  10.915
 4165W        W 8365   5.667   7.721   3.521
 4166W        W 8366   2.724   6.356   3.676
 4167W        W 8367  10.514   6.151   0.170
 4168W        W 8368   2.673   3.440   2.017
 4169W        W 8369   6.580   1.866  11.393
 4170W        W 8370  11.267   8.938  10.610
 4171W        W 8371   8.768   6.983   9.055
 4172W        W 8372  10.701  10.350   2.181
 4173W        W 8373  10.025   8.984   3.246
 4174W        W 8374   2.786   6.131  10.848
 4175W        W 8375   9.841   1.082  11.591
 4176W        W 8376   9.626  10.578   8.542
 4177W        W 8377   9.155  10.370   0.876
 4178W        W 8378  10.420   2.162   1.452
 4179W        W 8379   3.505   1.505  11.226
 4180W        W 8380   5.625   1.360   2.491
 4181W        W 8381   4.026   0.674   2.462
 4182W        W 8382  10.813   4.213   8.597
 4183W        W 8383   7.647  10.703  11.908
 4184W        W 8384   7.727   9.026   0.115
 4185W        W 8385  10.828   9.984   8.570
 4186W        W 8386   6.052   4.292  10.964
 4187W        W 8387   8.981   2.776   3.336
 4188W        W 8388   9.894   8.559   2.449
 4189W        W 8389   3.136   3.726  10.870
 4190W        W 8390   2.392   4.641   8.304
 4191W        W 8391   1.903   7.057  11.139
 4192W        W 8392   2.056   1.280   2.322
 4193W        W 8393   2.766   0.465  11.410
 4194W        W 8394   9.944  11.073   1.836
 4195W        W 8395   1.795  10.248  10.206
 4196W        W 8396   9.617   8.576   1.448
 4197W        W 8397  10.706  10.294   9.997
 4198W        W 8398   9.505   6.984   3.264
 4199W        W 8399   5.552   5.270  10.461
 4200W        W 8400   5.712   7.695   8.395
 4201W        W 8401  11.418   6.758  11.421
 4202W        W 8402   9.734   8.294   0.188
 4203W        W 8403   3.770  11.487  11.351
 4204W        W 8404  10.310   8.175  10.571
 4205W        W 8405  10.808   0.947   0.772
 4206W        W 8406   0.806   7.432  10.460
 4207W        W 8407   8.168   6.549   8.448
 4208W        W 8408  10.875   5.183   0.849
 4209W        W 8409   7.606   2.570  10.973
 4210W        W 8410   4.655   7.505  10.826
 4211W        W 8411  10.363   6.433  10.500
 4212W        W 8412   6.063   0.364  10.762
 4213W        W 8413   3.974  11.270   2.677
 4214W        W 8414   2.844   4.548   2.491
 4215W        W 8415   5.002  11.191   8.853
 4216W        W 8416   1.704  11.249   1.446
 4217W        W 8417   2.908   6.086   2.447
 4218W        W 8418   9.886   1.650   2.031
 4219W        W 8419   4.711   1.244   9.121
 4220W        W 8420   4.231   2.762   0.960
 4221W        W 8421   6.608   0.290   2.475
 4222W        W 8422   7.446   0.718   8.717
 4223W        W 8423   7.922   8.197   3.586
 4224W        W 8424   9.459   0.047   2.405
 4225W        W 8425   6.747   5.671   1.017
 4226W        W 8426   9.626   3.428   0.387
 4227W        W 8427  10.846   2.628   2.764
 4228W        W 8428   2.696   9.781   2.144
 4229W        W 8429   8.018   9.391  11.415
 4230W        W 8430   8.348   9.890   3.253
 4231W        W 8431  10.011   3.088   9.264
 4232W        W 8432   4.897   0.022   2.080
 4233W        W 8433   0.008   8.072   0.860
 4234W        W 8434   8.825   6.906   0.968
 4235W        W 8435   3.682   4.456   3.570
 4236W        W 8436  10.313   2.223   9.016
 4237W        W 8437   2.852   7.792  11.187
 4238W        W 8438   3.689   8.436  10.280
 4239W        W 8439   9.119   4.163   1.210
 4240W        W 8440   1.716   5.718   1.648
 4241W        W 8441   8.267   8.397   9.338
 4242W        W 8442  10.901   1.842   0.295
 4243W        W 8443   9.515   7.883   9.892
 4244W        W 8444   7.800   6.106   1.525
 4245W        W 8445   9.712   7.198   1.445
 4246W        W 8446   1.223   4.948   0.946
 4247W        W 8447  10.813   4.986   9.050
 4248W        W 8448   5.052   7.039   2.038
 4249W        W 8449   4.046  10.915   1.301
 4250W        W 8450   4.324   9.622  10.589
 4251W        W 8451  11.150   4.234  10.803
 4252W        W 8452   9.140   0.811   0.316
 4253W        W 8453   0.963   3.122  10.464
 4254W        W 8454   6.833   6.215  11.374
 4255W        W 8455   4.309   1.094   2.557
 4256W        W 8456   8.078   1.167  11.642
 4257W        W 8457   8.364   6.098  11.464
 4258W        W 8458   0.951  10.431   0.370
 4259W        W 8459   0.365   4.685   8.492
 4260W        W 8460   3.885   8.847   8.730
 4261W        W 8461   5.375   9.836   1.694
 4262W        W 8462   0.823   8.163   0.956
 4263W        W 8463   3.468   1.305   2.023
 4264W        W 8464   9.115   1.359   0.461
 4265W        W 8465   8.441   4.301   1.956
 4266W        W 8466  10.269   9.538   9.237
 4267W        W 8467   0.999   8.492   9.795
 4268W        W 8468   7.256   2.325   2.884
 4269W        W 8469   9.453   4.406   0.416
 4270W        W 8470  10.416   6.673  11.479
 4271W        W 8471   2.922   9.025   3.276
 4272W        W 8472   5.954   4.753   2.625
 4273W        W 8473   5.336   3.127   9.374
 4274W        W 8474   0.777   0.133   9.155
 4275W        W 8475   7.228   1.927  10.402
 4276W        W 8476   1.445   7.174   9.057
 4277W        W 8477   4.201   7.429  11.416
 4278W        W 8478  10.975   5.712   2.293
 4279W        W 8479   9.179   9.793   0.092
 4280W        W 8480   7.998   4.066   0.072
 4281W        W 8481  11.049   8.052   1.656
 4282W        W 8482  10.987   5.222   3.005
 4283W        W 8483   1.354   6.595  11.864
 4284W        W 8484   7.940   4.323   9.066
 4285W        W 8485   0.247   8.519   2.440
 4286W        W 8486   0.309   1.834  11.101
 4287W        W 8487   8.880   0.957   0.751
 4288W        W 8488   6.288   2.137   2.258
 4289W        W 8489  10.176   1.028   2.883
 4290W        W 8490   0.033   3.812   9.499
 4291W        W 8491   7.971   7.803   3.916
 4292W        W 8492   9.533   9.108   2.223
 4293W        W 8493  11.254   6.987   2.192
 4294W        W 8494   7.120  10.362   1.938
 4295W        W 8495   7.108  10.130   0.552
 4296W        W 8496   0.930   7.998   1.988
 4297W        W 8497   4.250   8.456   8.615
 4298W        W 8498  10.066   9.000   2.705
 4299W        W 8499   2.408   9.090   3.243
 4300W        W 8500   0.565   0.475   3.461
 4301W        W 8501   8.265   3.229   3.553
 4302W        W 8502   4.068   7.159   1.023
 4303W        W 8503   4.725   6.032   3.528
 4304W        W 8504  10.793   8.497   2.975
 4305W        W 8505   8.170   9.514  10.017
 4306W        W 8506   3.138   6.508   2.159
 4307W        W 8507   0.281   6.495   0.022
 4308W        W 8508   1.678   1.413   0.933
 4309W        W 8509   2.766   8.498   0.995
 4310W        W 8510   7.679   5.132  10.247
 4311W        W 8511   8.144   7.699   2.632
 4312W        W 8512   4.638   0.292  11.484
 4313W        W 8513   6.553   6.224  11.915
 4314W        W 8514   7.050   1.193  10.535
 4315W        W 8515  10.946   1.128   2.702
 4316W        W 8516   0.626   4.665   9.442
 4317W        W 8517   9.481  10.938  11.539
 4318W        W 8518   9.364   9.862   1.851
 4319W        W 8519   9.042   3.632   9.874
 4320W        W 8520   9.966   4.751   2.775
 4321W        W 8521   3.836   5.967   9.517
 4322W        W 8522   8.954   9.000   8.896
 4323W        W 8523   6.804   2.222   3.087
 4324W        W 8524   7.708   6.200   0.468
 4325W        W 8525   4.558   3.438  11.926
 4326W        W 8526   6.472   3.185   3.204
 4327W        W 8527   4.496   2.065   3.556
 4328W        W 8528   7.540   1.902   1.401
 4329W        W 8529   9.826   3.578   2.653
 4330W        W 8530  11.129   9.460   1.917
 4331W        W 8531   9.144   8.561   9.878
 4332W        W 8532   4.487  10.264   0.182
 4333W        W 8533   2.768   4.234   7.752
 4334W        W 8534   2.714  10.614  11.664
 4335W        W 8535  10.470   5.932  10.714
 4336W        W 8536   6.039   3.702   3.600
 4337W        W 8537   6.223   3.660   9.410
 4338W        W 8538   1.189   7.048  10.507
 4339W        W 8539   6.163   0.918  11.563
 4340W        W 8540   7.192  10.514  11.733
 4341W        W 8541   4.699   2.485   1.097
 4342W        W 8542   3.162  11.283  11.111
 4343W        W 8543  10.205   4.209   8.541
 4344W        W 8544   8.420  10.023  11.802
 4345W        W 8545   9.168   3.137  10.231
 4346W        W 8546   6.523   9.843   3.437
 4347W        W 8547   6.284  10.301   3.414
 4348W        W 8548   1.305   5.299   2.872
 4349W        W 8549   9.353   4.739  11.465
 4350W        W 8550   1.752   2.557   0.482
 4351W        W 8551   8.916   4.275  10.882
 4352W        W 8552   2.768   0.303   1.967
 4353W        W 8553   0.658   8.671   2.210
 4354W        W 8554   4.447   0.830   0.289
 4355W        W 8555  10.376   7.921  10.142
 4356W        W 8556   6.984  11.302  10.018
 4357W        W 8557   6.692   0.157  11.473
 4358W        W 8558  10.018   8.385  11.730
 4359W        W 8559   4.061   8.839   0.391
 4360W        W 8560  10.903   6.555   1.185
 4361W        W 8561   8.879   0.515   8.441
 4362W        W 8562   5.035   3.236   9.777
 4363W        W 8563   1.149  10.532   9.111
 4364W        W 8564   3.876  10.353   0.898
 4365W        W 8565   2.987   3.162  11.897
 4366W        W 8566   5.939   6.628   8.961
 4367W        W 8567   8.748   6.849   8.183
 4368W        W 8568   9.841   1.324   9.293
 4369W        W 8569  11.369  10.359   3.365
 4370W        W 8570   2.400   1.997  11.951
 4371W        W 8571   6.148  10.041   9.433
 4372W        W 8572  10.271   2.621   1.284
 4373W        W 8573   5.230   2.584   3.112
 4374W        W 8574   7.604   3.404  11.433
 4375W        W 8575   4.069   7.046  10.423
 4376W        W 8576   4.524   6.648  11.949
 4377W        W 8577   3.826   2.236   2.377
 4378W        W 8578   3.181   1.024   3.010
 4379W        W 8579   6.144   9.027  11.543
 4380W        W 8580   0.758   0.965   3.209
 4381W        W 8581   8.310   6.043   9.129
 4382W        W 8582   2.797  10.483   2.748
 4383W        W 8583   8.128   3.301   9.132
 4384W        W 8584  11.306   9.569   2.931
 4385W        W 8585  11.361   8.470   1.135
 4386W        W 8586   4.415   0.072   1.923
 4387W        W 8587   8.064   7.414   3.055
 4388W        W 8588  11.446   3.216   2.648
 4389W        W 8589   4.806   2.584  10.972
 4390W        W 8590  10.357   7.649   3.218
 4391W        W 8591   9.407   2.690  10.387
 4392W        W 8592  10.966   7.121   1.778
 4393W        W 8593   9.341   8.818   1.812
 4394W        W 8594   0.900   4.099   3.183
 4395W        W 8595   6.063   2.268  11.139
 4396W        W 8596   7.840  10.821   1.039
 4397W        W 8597   7.214  11.351  11.394
 4398W        W 8598   3.103   4.077  10.112
 4399W        W 8599   7.530   7.086  10.987
 4400W        W 8600   9.862   0.027   1.632
 4401W        W 8601  11.410   5.035  11.596
 4402W        W 8602   9.547   6.183   3.866
 4403W        W 8603   3.701   6.781  11.918
 4404W        W 8604  10.942  10.806   2.196
 4405W        W 8605   9.945   6.696   9.835
 4406W        W 8606   4.730   9.489   1.715
 4407W        W 8607   0.577   6.025  10.329
 4408W        W 8608   4.581   2.524   0.260
 4409W        W 8609   4.896   0.295   3.541
 4410W        W 8610   7.740   4.545   9.509
 4411W        W 8611   3.131   1.292   1.039
 4412W        W 8612   8.449   2.220   8.958
 4413W        W 8613   0.807   2.851   0.158
 4414W        W 8614   4.338   9.068   2.788
 4415W        W 8615   7.995   2.851   3.311
 4416W        W 8616   0.344   3.127   1.943
 4417W        W 8617   3.563   6.797   3.542
 4418W        W 8618   0.132   2.566   9.521
 4419W        W 8619   8.894   2.494   8.931
 4420W        W 8620   9.220   8.339   1.839
 4421W        W 8621   9.845   9.944  10.718
 4422W        W 8622  10.336   8.999  10.449
 4423W        W 8623   6.413   7.969   3.678
 4424W        W 8624   5.598   3.345   0.613
 4425W        W 8625   9.959   4.416   3.163
 4426W        W 8626  11.021   3.599   2.245
 4427W        W 8627  10.880   2.000   9.679
 4428W        W 8628   3.469   7.688   1.280
 4429W        W 8629   3.257   1.964  11.745
 4430W        W 8630   9.001   6.125  11.877
 4431W        W 8631   0.683   1.204   2.013
 4432W        W 8632   3.826   9.495   1.693
 4433W        W 8633   5.695   1.324   2.996
 4434W        W 8634  10.724   2.724   2.249
 4435W        W 8635   8.720   9.119   2.891
 4436W        W 8636   1.170   1.546   8.470
 4437W        W 8637  10.318  11.000   9.094
 4438W        W 8638   6.566  11.491   3.380
 4439W        W 8639   1.438   4.831   9.175
 4440W        W 8640   4.599  11.375   8.573
 4441W        W 8641   9.802   3.612   0.849
 4442W        W 8642   2.775   2.464   1.860
 4443W        W 8643   6.815   6.292   9.266
 4444W        W 8644   2.346   8.415  11.257
 4445W        W 8645   3.193   0.060   0.910
 4446W        W 8646   3.063   3.740  11.733
 4447W        W 8647   7.585   0.286   2.185
 4448W        W 8648   0.231   2.839   2.435
 4449W        W 8649   5.133   8.197   2.444
 4450W        W 8650  11.323   0.509   9.071
 4451W        W 8651   1.313   1.803   2.201
 4452W        W 8652   1.204   3.203   9.314
 4453W        W 8653   9.978   4.344   0.404
 4454W        W 8654   9.447   1.572   1.776
 4455W        W 8655   2.620   8.329   0.515
 4456W        W 8656   9.802  10.575   9.944
 4457W        W 8657   1.296   3.308   0.716
 4458W        W 8658   1.636   1.431   3.475
 4459W        W 8659   1.950   9.856   9.299
 4460W        W 8660   2.357   5.830  10.895
 4461W        W 8661   1.068   5.012   9.556
 4462W        W 8662   7.563   3.157   9.186
 4463W        W 8663   0.074   5.948  10.368
 4464W        W 8664   9.240   4.578  10.589
 4465W        W 8665   3.094   0.615   3.273
 4466W        W 8666   9.254   1.190  10.987
 4467W        W 8667  10.403   6.774   2.381
 4468W        W 8668   9.007   1.197   1.282
 4469W        W 8669   4.755   1.713  11.190
 4470W        W 8670   9.411   6.350  10.095
 4471W        W 8671   1.865   3.677   3.299
 4472W        W 8672   9.497   4.984   9.552
 4473W        W 8673  10.914   4.393  11.306
 4474W        W 8674   6.135   9.215   1.501
 4475W        W 8675   4.439   7.795   9.341
 4476W        W 8676   7.027   8.933   9.034
 4477W        W 8677   8.208   0.850  10.264
 4478W        W 8678   8.637   6.657   8.656
 4479W        W 8679   2.946   9.343   2.178
 4480W        W 8680   6.047   6.834   2.598
 4481W        W 8681   3.413   6.227   9.698
 4482W        W 8682   6.761   9.356   0.107
 4483W        W 8683   7.056   3.234  11.610
 4484W        W 8684   1.513   6.094  11.735
 4485W        W 8685   1.212   8.307   3.283
 4486W        W 8686   8.918   6.616   0.018
 4487W        W 8687   3.191   6.092   8.809
 4488W        W 8688   8.042   2.825  10.810
 4489W        W 8689  11.358  10.817   9.162
 4490W        W 8690   1.302   2.242   9.533
 4491W        W 8691   2.539   6.819   3.578
 4492W        W 8692   2.273   3.352   9.136
 4493W        W 8693   0.937   1.637   1.899
 4494W        W 8694   4.058   5.090  11.534
 4495W        W 8695   3.765   0.806  10.004
 4496W        W 8696  10.953   3.956   9.641
 4497W        W 8697   5.690   0.146   9.970
 4498W        W 8698   8.636   1.766   9.854
 4499W        W 8699   7.473   1.851   1.926
 4500W        W 8700  10.775   4.309   3.255
 4501W        W 8701   0.958   2.835   8.966
 4502W        W 8702   4.791   8.044   1.492
 4503W        W 8703   9.070   1.224   2.153
 4504W        W 8704   9.954   5.080  10.796
 4505W        W 8705   5.904   4.113   1.322
 4506W        W 8706   2.160   8.458   0.282
 4507W        W 8707   8.826   3.074   9.803
 4508W        W 8708  10.851   1.857   2.218
 4509W        W 8709   4.276   4.694  10.267
 4510W        W 8710   5.532   5.466  10.943
 4511W        W 8711   1.775   4.185   3.227
 4512W        W 8712   0.455   2.667  11.038
 4513W        W 8713   4.357   0.874   0.845
 4514W        W 8714   4.503  10.570  11.803
 4515W        W 8715  10.480   0.042  11.269
 4516W        W 8716   4.861   6.163   1.515
 4517W        W 8717   8.903   0.684   1.197
 4518W        W 8718  10.799   0.801  11.356
 4519W        W 8719   8.101   2.460   2.368
 4520W        W 8720   7.652  10.913   3.042
 4521W        W 8721   5.617   7.525  10.942
 4522W        W 8722   8.406   2.826   2.593
 4523W        W 8723   4.331   0.701   2.904
 4524W        W 8724   8.538   9.333   9.636
 4525W        W 8725   3.106   1.919  10.351
 4526W        W 8726   8.863   2.924   9.238
 4527W        W 8727   3.379   6.073   0.274
 4528W        W 8728   1.682   9.140   8.576
 4529W        W 8729   3.561   9.043  11.534
 4530W        W 8730   6.108   4.535   8.372
 4531W        W 8731   9.407   5.751   1.968
 4532W        W 8732   4.734  11.334   0.449
 4533W        W 8733   6.304   1.655  10.532
 4534W        W 8734   3.584   1.032  11.382
 4535W        W 8735   0.001   3.155  11.578
 4536W        W 8736   3.961   4.376   8.617
 4537W        W 8737   6.512   2.351   9.846
 4538W        W 8738   5.225   9.138   2.783
 4539W        W 8739   1.875   0.935  11.171
 4540W        W 8740   3.927   0.549   3.423
 4541W        W 8741   6.978   3.638   9.915
 4542W        W 8742   2.125   2.035   1.924
 4543W        W 8743   3.495   4.552   9.864
 4544W        W 8744   6.516   7.286  11.042
 4545W        W 8745   7.160   6.417   9.633
 4546W        W 8746   2.193   3.308  10.972
 4547W        W 8747   7.299   4.965   8.380
 4548W        W 8748   8.568   4.122  11.255
 4549W        W 8749  10.738   9.528  10.596
 4550W        W 8750   4.135   7.087  11.821
 4551W        W 8751   6.870   2.248  10.582
 4552W        W 8752  10.521   1.765  11.358
 4553W        W 8753   3.908   9.349   0.315
 4554W        W 8754   6.524   7.455  10.045
 4555W        W 8755   7.145   0.339   0.632
 4556W        W 8756   4.577   4.159   9.128
 4557W        W 8757   6.953   3.516   1.745
 4558W        W 8758   9.675   4.010   9.355
 4559W        W 8759   9.056  10.993   3.534
 4560W        W 8760   3.559   3.820   3.018
 4561W        W 8761   7.822   3.531   0.703
 4562W        W 8762   4.192   9.923   2.249
 4563W        W 8763   7.210   0.449  10.557
 4564W        W 8764   9.435   6.852   1.680
 4565W        W 8765   2.901   6.516   9.048
 4566W        W 8766   0.059   0.673   0.634
 4567W        W 8767   2.708  10.278   2.269
 4568W        W 8768   3.165   8.563   3.212
 4569W        W 8769   8.598   8.650   9.028
 4570W        W 8770  11.357   7.526  11.097
 4571W        W 8771   4.189   3.367  10.970
 4572W        W 8772   7.144   2.265   1.345
 4573W        W 8773   5.256   3.132   4.009
 4574W        W 8774   6.614   8.819   3.363
 4575W        W 8775   8.864   1.978   0.767
 4576W        W 8776  10.084   7.937  11.953
 4577W        W 8777  11.324   6.828   3.161
 4578W        W 8778   3.287   9.497   9.361
 4579W        W 8779   0.063   7.017   9.282
 4580W        W 8780   4.641  11.263  11.100
 4581W        W 8781  10.012   9.906   2.197
 4582W        W 8782  10.888   3.122  10.420
 4583W        W 8783  10.308  10.308   2.661
 4584W        W 8784   2.394   9.467   1.196
 4585W        W 8785   2.274   7.265   3.513
 4586W        W 8786  10.810   6.753   3.160
 4587W        W 8787  11.241   7.553   3.408
 4588W        W 8788   6.571   4.250  10.302
 4589W        W 8789   9.538   9.472   1.028
 4590W        W 8790   2.162   7.381   9.486
 4591W        W 8791   8.956   1.664   8.367
 4592W        W 8792   0.343   3.133   0.348
 4593W        W 8793   9.050  10.012   2.523
 4594W        W 8794   0.497   3.503   3.651
 4595W        W 8795   8.819   2.893   8.596
 4596W        W 8796  11.358   7.460  10.566
 4597W        W 8797  10.317   2.860   0.824
 4598W        W 8798   5.040   4.797  11.214
 4599W        W 8799   2.837   5.531   9.700
 4600W        W 8800   1.471   2.748   1.990
 4601W        W 8801   6.413   3.546   1.786
 4602W        W 8802   5.192   1.660   8.722
 4603W        W 8803   3.409   3.829   2.527
 4604W        W 8804   9.635  10.452   0.778
 4605W        W 8805   5.636   6.263  10.702
 4606W        W 8806   8.708   8.467  10.156
 4607W        W 8807   1.760   2.230   9.273
 4608W        W 8808  10.510   3.777   9.819
 4609W        W 8809   3.811   4.702   8.995
 4610W        W 8810   5.383   7.405   9.324
 4611W        W 8811   5.536   2.434   1.943
 4612W        W 8812   5.565   0.716  11.210
 4613W        W 8813   6.689   8.493  11.973
 4614W        W 8814   1.853   6.662   0.836
 4615W        W 8815   2.815   9.286  10.396
 4616W        W 8816  10.457   1.152   0.245
 4617W        W 8817   7.002   7.798   9.468
 4618W        W 8818   1.378  10.372  10.994
 4619W        W 8819   3.464   0.944   2.557
 4620W        W 8820  10.797   5.456   0.278
 4621W        W 8821   8.162   3.153   0.673
 4622W        W 8822   3.123   1.407  11.549
 4623W        W 8823   8.294   3.157   9.934
 4624W        W 8824   1.825  10.556  11.736
 4625W        W 8825  10.861   7.529   0.825
 4626W        W 8826   0.036  10.481  10.857
 4627W        W 8827  11.010   2.242  11.089
 4628W        W 8828  11.157   4.149  11.730
 4629W        W 8829   1.479   2.299  11.378
 4630W        W 8830   8.889   0.184  11.753
 4631W        W 8831  10.806   5.748   1.801
 4632W        W 8832   9.226   0.139  10.377
 4633W        W 8833   5.123   7.712   2.607
 4634W        W 8834   9.026   6.748  10.451
 4635W        W 8835   3.544   9.091   9.623
 4636W        W 8836   4.229   6.155  10.278
 4637W        W 8837   2.302   2.580   2.650
 4638W        W 8838   6.629   9.340   3.339
 4639W        W 8839   6.100   8.830   9.861
 4640W        W 8840   8.197   4.075  11.592
 4641W        W 8841   1.318  10.870   0.984
 4642W        W 8842   3.177   2.942   9.065
 4643W        W 8843   6.985   0.139  10.993
 4644W        W 8844   3.787   1.955   0.126
 4645W        W 8845   5.740   2.632  10.976
 4646W        W 8846   3.599   4.928   8.583
 4647W        W 8847  10.330   3.369   9.537
 4648W        W 8848  10.494   7.391   1.161
 4649W        W 8849   2.688   9.663  11.940
 4650W        W 8850  10.458   3.334  10.032
 4651W        W 8851   9.859   2.574   0.963
 4652W        W 8852   6.456   6.599  10.361
 4653W        W 8853  10.776  10.557  10.428
 4654W        W 8854   3.603  10.128  11.966
 4655W        W 8855   4.759   4.068   0.338
 4656W        W 8856  11.247   7.667   2.570
 4657W        W 8857   7.272   9.623   0.539
 4658W        W 8858  10.726   3.404   3.331
 4659W        W 8859  10.293   9.343  10.836
 4660W        W 8860   1.861   6.060   2.000
 4661W        W 8861   8.977   3.763   1.961
 4662W        W 8862  10.245  10.868   1.449
 4663W        W 8863   0.345   6.375   2.377
 4664W        W 8864   5.209   0.686  11.880
 4665W        W 8865   5.756   5.257   1.771
 4666W        W 8866   3.469   1.195   0.356
 4667W        W 8867   9.532   7.774  10.946
 4668W        W 8868   9.994   6.553   9.338
 4669W        W 8869   9.941   0.630  11.401
 4670W        W 8870   2.246   8.886   0.033
 4671W        W 8871  10.013   5.254   0.996
 4672W        W 8872  10.105   6.104   0.493
 4673W        W 8873   9.514   9.893   8.982
 4674W        W 8874   7.731   0.268   9.832
 4675W        W 8875   7.985   0.836   2.912
 4676W        W 8876   4.338   5.362   2.729
 4677W        W 8877   1.331   4.782  10.583
 4678W        W 8878   2.721   4.262   2.942
 4679W        W 8879   1.131   4.882  10.093
 4680W        W 8880   4.787   1.355   1.977
 4681W        W 8881  11.028   9.068   0.138
 4682W        W 8882   9.697   7.154  11.265
 4683W        W 8883   2.635   6.394   8.629
 4684W        W 8884   6.226   7.694   8.374
 4685W        W 8885  10.479   6.668   9.505
 4686W        W 8886   4.831   8.804  11.843
 4687W        W 8887   5.155   2.671   4.207
 4688W        W 8888   5.660   2.745   9.490
 4689W        W 8889   5.934   9.978   2.715
 4690W        W 8890   9.619   6.916   2.779
 4691W        W 8891   5.021   3.233  11.953
 4692W        W 8892   8.879   0.348  10.760
 4693W        W 8893  11.377   8.373   9.982
 4694W        W 8894   1.015   9.286  10.729
 4695W        W 8895   2.620   7.449   0.190
 4696W        W 8896   4.044   3.301   9.396
 4697W        W 8897   5.629   7.552   8.879
 4698W        W 8898   2.527   3.052  11.573
 4699W        W 8899   6.635  11.109   0.048
 4700W        W 8900   8.131   9.610  10.517
 4701W        W 8901  10.208   7.994   1.672
 4702W        W 8902   0.755   0.966   9.547
 4703W        W 8903   7.615   4.865   0.351
 4704W        W 8904   6.485   1.055  11.935
 4705W        W 8905   4.607   3.061  11.067
 4706W        W 8906  10.520   4.154   9.489
 4707W        W 8907   1.441  10.862  11.249
 4708W        W 8908   5.222   0.940   3.499
 4709W        W 8909   9.107  10.293   0.014
 4710W        W 8910   9.997   3.837   2.246
 4711W        W 8911   0.296   6.643   2.993
 4712W        W 8912   3.529   3.378   9.444
 4713W        W 8913   3.712   3.384   3.251
 4714W        W 8914   8.357   4.607   8.915
 4715W        W 8915   3.753   4.110  11.048
 4716W        W 8916   6.867   3.107   2.830
 4717W        W 8917   1.005   1.622   8.961
 4718W        W 8918   8.465   6.383   2.208
 4719W        W 8919   5.266   4.228   9.516
 4720W        W 8920   3.346  10.081   8.686
 4721W        W 8921   5.664   6.618   0.589
 4722W        W 8922   0.256   8.633   1.917
 4723W        W 8923   8.137   8.374   8.464
 4724W        W 8924   1.420   4.316  10.819
 4725W        W 8925   3.565   1.216   9.781
 4726W        W 8926   5.218   8.956   3.683
 4727W        W 8927  10.893   4.417   1.802
 4728W        W 8928  10.471   5.002   9.884
 4729W        W 8929  11.291   7.757  11.546
 4730W        W 8930   0.798   0.741   2.207
 4731W        W 8931   5.556   4.480  10.702
 4732W        W 8932   8.192  11.489   1.151
 4733W        W 8933  11.266   0.904  10.475
 4734W        W 8934   7.014   1.115  11.045
 4735W        W 8935   0.794   0.182  10.052
 4736W        W 8936   1.973  11.355   3.188
 4737W        W 8937   9.012   1.720   1.281
 4738W        W 8938   4.728   2.345   9.531
 4739W        W 8939   9.854   2.924   3.212
 4740W        W 8940   3.808   3.639   0.200
 4741W        W 8941   7.684   0.274   1.151
 4742W        W 8942   8.221   9.008   9.981
 4743W        W 8943  10.039   9.237   8.663
 4744W        W 8944   7.405  10.870   9.552
 4745W        W 8945  11.456   1.171   2.630
 4746W        W 8946  10.952   5.929   0.293
 4747W        W 8947   5.570   2.169   1.501
 4748W        W 8948   4.594   3.266   3.225
 4749W        W 8949   8.567   5.235   0.948
 4750W        W 8950   8.307   7.046   8.833
 4751W        W 8951   3.293  10.483   0.246
 4752W        W 8952  10.369   6.546   1.482
 4753W        W 8953   7.933   2.943   2.387
 4754W        W 8954   3.172   3.865   8.838
 4755W        W 8955   5.537   5.788  10.468
 4756W        W 8956   3.256   8.106   8.652
 4757W        W 8957   9.024   0.166  11.234
 4758W        W 8958   4.209   6.744   1.272
 4759W        W 8959   0.809   0.043  10.556
 4760W        W 8960  10.809   4.712   2.590
 4761W        W 8961  11.056   6.852   9.246
 4762W        W 8962  11.471   3.973   9.004
 4763W        W 8963  10.912   5.376   1.456
 4764W        W 8964  11.407   6.531   9.452
 4765W        W 8965   9.988   1.363   0.260
 4766W        W 8966   4.117   7.000   9.293
 4767W        W 8967   1.797   3.340   1.749
 4768W        W 8968  10.114  10.554   0.752
 4769W        W 8969   8.368   2.219   9.755
 4770W        W 8970   6.736   4.556   9.413
 4771W        W 8971  10.574   2.767   1.704
 4772W        W 8972   4.969   7.031   3.145
 4773W        W 8973   0.230   2.145   9.783
 4774W        W 8974   7.824   7.979   2.308
 4775W        W 8975   3.960   6.008  11.513
 4776W        W 8976  11.346   4.627   1.865
 4777W        W 8977   4.582   7.563   0.339
 4778W        W 8978   5.492   4.560   2.454
 4779W        W 8979  10.452   7.552   9.380
 4780W        W 8980   7.482   4.330  11.394
 4781W        W 8981   8.311   8.745   2.817
 4782W        W 8982   3.659   3.237   1.862
 4783W        W 8983   2.027   7.004  10.298
 4784W        W 8984  10.279   1.774   1.136
 4785W        W 8985  11.394   8.666   8.552
 4786W        W 8986  10.153   2.188   1.914
 4787W        W 8987   7.126   9.943   2.751
 4788W        W 8988   0.288   6.226  11.167
 4789W        W 8989   1.190   1.007   2.019
 4790W        W 8990  10.470   9.871   2.977
 4791W        W 8991   8.718  11.500  10.436
 4792W        W 8992   9.349   2.197  11.116
 4793W        W 8993   8.533   3.491   1.272
 4794W        W 8994   9.134   5.187  10.828
 4795W        W 8995   4.777   7.921   0.028
 4796W        W 8996  11.445  11.432  10.786
 4797W        W 8997   0.621   9.710   3.412
 4798W        W 8998   0.455   0.010   9.725
 4799W        W 8999   1.944   7.923  11.816
 4800W        W 9000  10.434   8.537   8.918
 4801W        W 9001   3.814   2.875  10.334
 4802W        W 9002   4.881   4.979   1.410
 4803W        W 9003   1.139   2.812   0.590
 4804W        W 9004   7.387   3.780   0.740
 4805W        W 9005   8.534   6.775  10.744
 4806W        W 9006   2.129   4.741   0.360
 4807W        W 9007   4.750   1.599  10.702
 4808W        W 9008   1.538   2.857   0.924
 4809W        W 9009   9.040  10.970   0.341
 4810W        W 9010   0.691   7.117   2.167
 4811W        W 9011   1.242   2.794  11.300
 4812W        W 9012  11.034  10.151   1.809
 4813W        W 9013   4.807   1.250   2.490
 4814W        W 9014   9.600   9.811   2.964
 4815W        W 9015  10.809   4.566   0.658
 4816W        W 9016   5.962   6.102   9.740
 4817W        W 9017   9.953   5.303   0.412
 4818W        W 9018   9.193   4.711   9.192
 4819W        W 9019   9.098   7.656  10.137
 4820W        W 9020   0.239   2.251   1.831
 4821W        W 9021   9.962  11.055  11.340
 4822W        W 9022   9.508  10.119   9.454
 4823W        W 9023   9.431   6.623  11.257
 4824W        W 9024   1.111   9.560   3.471
 4825W        W 9025   9.818   8.614   1.948
 4826W        W 9026   8.046   4.560   0.203
 4827W        W 9027   9.958   1.885   0.164
 4828W        W 9028   6.587   7.502   8.697
 4829W        W 9029   7.137   4.560   8.679
 4830W        W 9030   0.501   7.929   9.622
 4831W        W 9031   3.454   6.047   1.245
 4832W        W 9032   1.585   6.169  10.043
 4833W        W 9033   1.683   0.838   2.121
 4834W        W 9034   6.000   1.341   2.103
 4835W        W 9035   1.103   8.534   2.383
 4836W        W 9036   1.856   4.043  10.902
 4837W        W 9037   6.686   2.384   3.551
 4838W        W 9038   6.534   8.547   1.644
 4839W        W 9039   0.905   3.654   0.805
 4840W        W 9040   6.853  11.199   3.086
 4841W        W 9041   1.181   5.537   9.461
 4842W        W 9042   6.835   1.208   1.976
 4843W        W 9043  10.437   9.975  11.924
 4844W        W 9044   6.700   4.690   0.151
 4845W        W 9045   1.627   7.965   0.886
 4846W        W 9046   0.282   3.493  10.795
 4847W        W 9047  10.022   7.566  11.117
 4848W        W 9048   7.106  10.176  11.328
 4849W        W 9049   7.976   5.231   0.303
 4850W        W 9050   5.630   1.369   8.799
 4851W        W 9051   8.950   6.163   8.839
 4852W        W 9052   2.255   4.180   8.520
 4853W        W 9053   5.131   5.649  11.238
 4854W        W 9054   4.729   8.578  10.254
 4855W        W 9055   7.761   1.817   2.959
 4856W        W 9056   0.156   9.468   9.485
 4857W        W 9057   7.678   1.330  11.392
 4858W        W 9058   6.307   4.014   2.231
 4859W        W 9059   0.613   2.211  10.134
 4860W        W 9060   7.599   6.191  11.953
 4861W        W 9061   0.778   5.221  10.252
 4862W        W 9062   7.985   2.475   8.851
 4863W        W 9063   7.405   4.289   0.751
 4864W        W 9064   8.372   3.282  11.769
 4865W        W 9065   8.570   4.561   9.799
 4866W        W 9066   0.388   0.297  11.515
 4867W        W 9067   3.026   3.518   2.370
 4868W        W 9068   8.999   0.442   0.707
 4869W        W 9069   0.332   8.342  11.420
 4870W        W 9070   3.046   5.519   3.239
 4871W        W 9071   1.995   1.019  11.678
 4872W        W 9072  10.510   8.367  11.009
 4873W        W 9073   5.874  10.044   8.948
 4874W        W 9074   2.586   5.987   9.513
 4875W        W 9075   4.118   0.523   0.534
 4876W        W 9076   4.316   8.118   2.702
 4877W        W 9077   8.753   7.095   3.140
 4878W        W 9078   8.044   1.915  11.013
 4879W        W 9079   3.970   8.675   2.193
 4880W        W 9080   2.691  10.892   3.055
 4881W        W 9081   9.656   4.257   2.257
 4882W        W 9082   5.567   1.831   9.039
 4883W        W 9083   3.769   4.627  11.165
 4884W        W 9084   0.409   5.247  11.567
 4885W        W 9085   5.635   4.799   0.675
 4886W        W 9086   7.912   8.751   9.517
 4887W        W 9087   0.757   3.028   8.522
 4888W        W 9088   2.888   7.054   1.482
 4889W        W 9089   5.774  10.880  10.400
 4890W        W 9090   1.267  11.384   9.326
 4891W        W 9091   2.521   2.479   3.182
 4892W        W 9092   0.584   2.633   9.300
 4893W        W 9093   9.771   9.091   1.753
 4894W        W 9094   1.392   6.062   2.183
 4895W        W 9095   9.352   2.836  11.820
 4896W        W 9096   6.142  11.037   9.608
 4897W        W 9097   1.822   3.589  10.693
 4898W        W 9098   1.714   9.909  10.572
 4899W        W 9099   4.391  10.491  10.084
 4900W        W 9100   7.708   0.858  11.940
 4901W        W 9101   5.107   8.495   1.095
 4902W        W 9102   3.190   2.182   1.781
 4903W        W 9103   0.653   9.146  11.075
 4904W        W 9104   9.511   2.356   9.600
 4905W        W 9105   9.938   2.156   1.272
 4906W        W 9106   9.300  11.406  11.661
 4907W        W 9107   7.921   5.506  10.507
 4908W        W 9108  10.604   3.110   0.467
 4909W        W 9109   5.658   8.483   0.745
 4910W        W 9110   5.123   6.331   2.420
 4911W        W 9111   7.461   1.326   8.778
 4912W        W 9112   6.543   1.152  10.337
 4913W        W 9113   7.588   6.517   1.317
 4914W        W 9114   0.577  10.355   0.930
 4915W        W 9115   3.995   7.607   1.357
 4916W        W 9116   5.786   9.950  10.311
 4917W        W 9117   8.490   2.659  10.526
 4918W        W 9118   9.341   7.944   0.218
 4919W        W 9119   3.072   9.131   1.568
 4920W        W 9120   1.720   4.622   3.558
 4921W        W 9121   1.685   0.174   1.177
 4922W        W 9122   7.479   0.912  10.450
 4923W        W 9123   7.379   7.320  10.145
 4924W        W 9124   1.842   1.188   3.086
 4925W        W 9125   9.495   7.623  11.455
 4926W        W 9126   6.589   3.953   2.682
 4927W        W 9127   1.108   5.142  11.862
 4928W        W 9128  11.374   7.208   8.843
 4929W        W 9129   2.071   5.933   9.574
 4930W        W 9130   9.391   9.781  10.889
 4931W        W 9131   1.779   4.902   1.037
 4932W        W 9132   2.711  11.000   2.567
 4933W        W 9133   0.500   1.764   9.594
 4934W        W 9134  10.368   2.229  11.944
 4935W        W 9135   7.018   9.572  11.248
 4936W        W 9136  11.288   6.707   0.851
 4937W        W 9137   6.949   6.091  10.048
 4938W        W 9138   4.647   4.531   3.127
 4939W        W 9139   3.319   3.225   3.614
 4940W        W 9140   5.145   8.888   9.989
 4941W        W 9141   3.883  10.871  10.738
 4942W        W 9142   4.337   0.947  10.840
 4943W        W 9143   4.728   2.803   0.702
 4944W        W 9144   9.824   7.686   1.890
 4945W        W 9145   2.775  11.460  11.380
 4946W        W 9146   7.226  11.394   1.862
 4947W        W 9147  10.870   2.618  10.288
 4948W        W 9148   9.883   6.377  10.307
 4949W        W 9149   2.725   3.102   2.418
 4950W        W 9150   6.424   8.721   8.263
 4951W        W 9151  10.977   9.574  11.954
 4952W        W 9152   0.826   2.430   0.428
 4953W        W 9153   5.469   4.103   9.057
 4954W        W 9154   2.896  10.933  10.814
 4955W        W 9155   8.609   6.413   1.275
 4956W        W 9156   5.162   9.556   2.515
 4957W        W 9157   5.872   6.699   2.140
 4958W        W 9158   9.979   1.969   3.420
 4959W        W 9159   0.810   6.238   0.938
 4960W        W 9160   0.739  10.819   1.700
 4961W        W 9161   5.734   9.192  11.827
 4962W        W 9162   2.662   2.269   9.483
 4963W        W 9163   0.257   1.439   3.469
 4964W        W 9164   9.949   4.255   2.669
 4965W        W 9165   3.815   8.114  11.793
 4966W        W 9166   2.991   5.639   8.590
 4967W        W 9167  10.002   6.170  10.768
 4968W        W 9168   5.504   0.982   9.108
 4969W        W 9169  11.393   2.647   0.531
 4970W        W 9170   9.801  10.934   0.931
 4971W        W 9171   9.952  10.800   2.759
 4972W        W 9172   2.726   7.979   9.475
 4973W        W 9173  10.766   7.642   2.363
 4974W        W 9174   4.773   7.593   1.747
 4975W        W 9175  10.780   4.938   3.563
 4976W        W 9176  10.297   1.927  10.941
 4977W        W 9177   1.620   6.169   0.983
 4978W        W 9178  10.377   7.001   9.060
 4979W        W 9179   8.115   9.944   0.258
 4980W        W 9180   6.929   4.416   1.826
 4981W        W 9181   4.615   4.726   3.600
 4982W        W 9182   6.560   5.436   0.457
 4983W        W 9183   7.916   9.966   9.993
 4984W        W 9184   5.022   4.599   3.893
 4985W        W 9185   2.233   3.279   2.232
 4986W        W 9186   5.680   9.058   3.046
 4987W        W 9187   5.541   4.085   2.587
 4988W        W 9188   2.539   2.672   0.882
 4989W        W 9189  10.258   7.265   2.338
 4990W        W 9190   5.665   3.177   8.888
 4991W        W 9191   8.434  11.006  11.745
 4992W        W 9192   1.038   4.087   0.514
 4993W        W 9193   3.387   6.606  10.323
 4994W        W 9194  10.309   6.571  11.968
 4995W        W 9195   4.158   9.084   9.104
 4996W        W 9196   9.927   5.674   9.907
 4997W        W 9197   3.482   8.514   8.926
 4998W        W 9198   4.365  10.992  10.757
 4999W        W 9199   9.979   1.637  10.103
 5000W        W 9200  10.039   1.307   8.804
 5001W        W 9201  10.059   0.855   0.032
 5002W        W 9202   6.074   5.788   1.690
 5003W        W 9203   1.262   9.437  10.008
 5004W        W 9204   2.492   7.745   2.715
 5005W        W 9205   9.918   0.791   8.880
 5006W        W 9206   3.985   1.350  11.470
 5007W        W 9207   2.089   1.623   3.325
 5008W        W 9208   8.651   3.093  10.288
 5009W        W 9209  10.506  10.830   3.414
 5010W        W 9210   2.211   9.316  11.291
 5011W        W 9211   8.449   2.642   2.047
 5012W        W 9212   7.311  11.333   8.810
 5013W        W 9213   8.129   0.890   8.464
 5014W        W 9214   0.249   6.118   2.803
 5015W        W 9215   8.658   9.988   2.860
 5016W        W 9216   4.556   5.317   9.662
 5017W        W 9217   5.970   6.264   2.659
 5018W        W 9218   3.742  10.807   2.818
 5019W        W 9219   1.622   5.589   3.191
 5020W        W 9220   4.714   4.530   2.611
 5021W        W 9221   8.105   4.622   3.539
 5022W        W 9222   6.845   9.363   0.659
 5023W        W 9223   0.082   5.660  10.826
 5024W        W 9224   0.625   1.465   0.746
 5025W        W 9225   2.353   0.670   0.761
 5026W        W 9226   8.365   2.153   3.712
 5027W        W 9227   4.914   6.100   1.001
 5028W        W 9228  10.224  11.429   9.399
 5029W        W 9229   7.104   2.631   9.797
 5030W        W 9230  10.889   7.562   9.664
 5031W        W 9231   5.549   6.439  11.279
 5032W        W 9232   0.973   2.345   9.110
 5033W        W 9233   5.486   0.001   0.021
 5034W        W 9234   1.628   3.486  10.199
 5035W        W 9235   4.713   2.811   2.005
 5036W        W 9236   4.968   8.083   1.971
 5037W        W 9237   8.543   5.483   9.852
 5038W        W 9238   0.708   4.153  11.003
 5039W        W 9239  11.290   2.192   9.426
 5040W        W 9240   9.622   8.368   9.913
 5041W        W 9241   5.794   9.866   1.993
 5042W        W 9242   6.969   4.564   0.920
 5043W        W 9243   4.793   1.650   0.429
 5044W        W 9244   2.290  11.249  11.435
 5045W        W 9245   1.288   0.515   1.864
 5046W        W 9246   4.084   2.328   0.309
 5047W        W 9247   7.232   4.456   9.555
 5048W        W 9248   9.877  10.481   9.410
 5049W        W 9249   1.933   6.389  10.457
 5050W        W 9250   7.016   8.297   9.724
 5051W        W 9251   0.766   8.404   0.415
 5052W        W 9252   9.386   3.921   1.678
 5053W        W 9253   9.861   2.615   2.817
 5054W        W 9254   6.757  10.744   1.857
 5055W        W 9255   5.478   8.100   2.039
 5056W        W 9256   9.405   0.943  11.871
 5057W        W 9257   5.503  11.035   9.041
 5058W        W 9258   6.230   2.747   9.890
 5059W        W 9259   2.303   7.079   0.062
 5060W        W 9260  11.272  11.433   9.354
 5061W        W 9261   5.665   0.701  10.711
 5062W        W 9262  10.898   8.342   9.659
 5063W        W 9263  10.288   5.962  11.190
 5064W        W 9264   6.978   3.163   1.378
 5065W        W 9265   2.733   8.494   9.451
 5066W        W 9266  10.855   7.627   1.854
 5067W        W 9267   9.406   4.387  11.051
 5068W        W 9268   7.473  11.343   9.319
 5069W        W 9269  10.817   3.916   1.899
 5070W        W 9270   2.584   6.301   9.989
 5071W        W 9271  10.588   7.869   0.007
 5072W        W 9272   0.472  11.332   0.709
 5073W        W 9273  11.433   5.016   2.172
 5074W        W 9274   4.610  11.427   9.119
 5075W        W 9275   8.928   5.353   8.527
 5076W        W 9276   8.879   2.832   2.832
 5077W        W 9277   0.484   3.607  11.537
 5078W        W 9278   8.443   2.954   1.547
 5079W        W 9279   8.063   3.931   1.921
 5080W        W 9280   0.501   5.381  11.012
 5081W        W 9281   2.454   2.520  11.879
 5082W        W 9282   2.782   3.107   1.439
 5083W        W 9283   6.177  10.568   9.403
 5084W        W 9284   4.669  10.896   1.382
 5085W        W 9285   1.046   9.502   0.763
 5086W        W 9286   4.653   6.834   2.293
 5087W        W 9287   5.212   9.855   9.016
 5088W        W 9288   0.279   9.916   0.913
 5089W        W 9289   5.815   7.086   0.388
 5090W        W 9290   7.889   6.937   2.981
 5091W        W 9291   3.843  10.788   9.886
 5092W        W 9292   2.612   6.223  11.879
 5093W        W 9293   1.381   2.021   8.973
 5094W        W 9294   0.827   1.881  10.923
 5095W        W 9295   4.090   0.870  11.298
 5096W        W 9296   2.018  11.102  10.072
 5097W        W 9297   1.448   7.899   8.833
 5098W        W 9298   2.163   4.956   1.501
 5099W        W 9299   2.638   9.768  10.514
 5100W        W 9300  10.531  11.262   2.295
 5101W        W 9301   6.164   0.589   3.385
 5102W        W 9302   3.857   7.347   2.238
 5103W        W 9303   3.859   8.430   2.644
 5104W        W 9304  10.034   3.309   1.436
 5105W        W 9305   3.478   2.225  10.501
 5106W        W 9306   0.358   9.601   1.584
 5107W        W 9307   8.874   4.128   9.872
 5108W        W 9308   0.187   3.655   2.767
 5109W        W 9309   0.508   3.063  10.680
 5110W        W 9310   4.213  10.833   1.800
 5111W        W 9311   4.139  10.911  10.301
 5112W        W 9312   5.359   9.455   0.331
 5113W        W 9313   0.294  10.552   3.088
 5114W        W 9314  10.576   0.878  11.838
 5115W        W 9315   2.866   8.571   2.791
 5116W        W 9316   9.525   2.710   3.518
 5117W        W 9317   5.762   7.796  10.024
 5118W        W 9318   8.547   1.472   1.333
 5119W        W 9319   8.125   9.411   1.051
 5120W        W 9320   9.375   2.722  11.312
 5121W        W 9321   6.754   7.886   9.913
 5122W        W 9322   5.780   4.817  10.366
 5123W        W 9323   7.655  10.293  10.804
 5124W        W 9324   5.105   5.715  10.733
 5125W        W 9325   9.157   3.744   0.211
 5126W        W 9326   2.185   0.795   8.908
 5127W        W 9327   0.272   7.551   3.292
 5128W        W 9328   6.861   8.604   2.965
 5129W        W 9329   0.655  10.357   2.295
 5130W        W 9330   2.938   0.258  10.964
 5131W        W 9331   2.989   4.569   9.986
 5132W        W 9332   6.483   4.031   0.803
 5133W        W 9333   3.781   4.660   8.190
 5134W        W 9334   4.817   2.729   1.534
 5135W        W 9335   8.153   1.815   9.985
 5136W        W 9336   3.359   2.374   0.017
 5137W        W 9337   8.504   1.885  11.245
 5138W        W 9338   3.756  10.349   8.954
 5139W        W 9339   9.614   0.620   0.232
 5140W        W 9340   8.592   5.005  10.138
 5141W        W 9341   6.658  10.371  11.095
 5142W        W 9342   9.553   2.367   2.214
 5143W        W 9343  10.708   1.308  11.529
 5144W        W 9344   1.421   3.887  11.482
 5145W        W 9345   8.052   2.771   0.363
 5146W        W 9346   0.423   5.710   9.957
 5147W        W 9347   4.160   7.460   9.071
 5148W        W 9348  10.361   4.561  11.449
 5149W        W 9349   4.695   3.557   0.430
 5150W        W 9350   6.781   3.143   9.176
 5151W        W 9351   7.686   5.774   8.322
 5152W        W 9352   4.609   6.377   2.500
 5153W        W 9353   5.568   8.970   0.411
 5154W        W 9354   2.757   3.398  10.298
 5155W        W 9355   2.878   2.312   2.807
 5156W        W 9356   5.485   2.381   2.713
 5157W        W 9357   6.723   2.803   0.466
 5158W        W 9358   3.164   0.820   9.114
 5159W        W 9359   8.991  10.007  10.129
 5160W        W 9360  11.376   5.583   0.212
 5161W        W 9361   4.520   3.203   9.554
 5162W        W 9362   8.055   1.833   3.438
 5163W        W 9363   8.479   6.968   0.464
 5164W        W 9364  10.463   8.081   2.949
 5165W        W 9365   7.631   0.736   3.397
 5166W        W 9366   4.091  11.392  10.503
 5167W        W 9367   1.911   5.203  11.222
 5168W        W 9368   4.553   5.459   2.257
 5169W        W 9369   5.579   3.674   3.799
 5170W        W 9370   7.377   4.795  10.531
 5171W        W 9371  11.345   6.415   2.823
 5172W        W 9372   1.706   2.316   0.947
 5173W        W 9373   5.062   9.776   2.083
 5174W        W 9374  11.495   0.008   2.009
 5175W        W 9375   9.172   9.544   2.240
 5176W        W 9376   0.770   7.178   9.942
 5177W        W 9377   6.955   1.250  11.944
 5178W        W 9378   0.775   7.502   1.808
 5179W        W 9379   0.858   9.146   1.053
 5180W        W 9380   5.160   5.580  11.756
 5181W        W 9381  10.118   5.025  10.297
 5182W        W 9382  10.118   1.962  10.471
 5183W        W 9383   4.995   1.511  10.119
 5184W        W 9384   8.840   6.913   9.547
 5185W        W 9385   0.813   2.035  11.620
 5186W        W 9386   0.779   5.506   3.013
 5187W        W 9387   6.291   5.003   0.348
 5188W        W 9388   1.254   5.272  10.446
 5189W        W 9389   5.339   6.713  10.850
 5190W        W 9390   1.611   5.071  11.967
 5191W        W 9391   0.271  11.436   0.243
 5192W        W 9392   0.486   4.585  10.835
 5193W        W 9393  11.317   8.901   1.880
 5194W        W 9394   8.722  11.255   9.576
 5195W        W 9395  10.508   7.362  10.945
 5196W        W 9396   9.104   9.060   2.522
 5197W        W 9397  11.262   4.792   0.814
 5198W        W 9398   3.285   2.638   0.867
 5199W        W 9399   8.543   0.934   9.415
 5200W        W 9400   7.066   8.349   1.969
 5201W        W 9401   5.021  11.469   3.106
 5202W        W 9402   3.021   3.963   4.136
 5203W        W 9403   1.217   8.128   0.635
 5204W        W 9404   1.352   9.556   0.381
 5205W        W 9405   0.739   0.932  10.430
 5206W        W 9406  10.355   2.569   9.398
 5207W        W 9407  10.552   1.582   9.635
 5208W        W 9408  10.243   8.467   0.399
 5209W        W 9409   2.343  10.228   2.672
 5210W        W 9410   9.978   8.065  10.948
 5211W        W 9411   2.286  11.257   0.477
 5212W        W 9412   7.651   2.470   3.164
 5213W        W 9413  10.162   0.306  10.098
 5214W        W 9414   8.451  11.275   3.175
 5215W        W 9415   9.444   6.684   2.159
 5216W        W 9416   4.126   8.079   9.641
 5217W        W 9417   9.818   0.816   9.435
 5218W        W 9418   7.193  10.439   3.407
 5219W        W 9419   0.679   6.935  10.380
 5220W        W 9420  11.306   1.811  10.971
 5221W        W 9421   2.162   2.941   8.790
 5222W        W 9422   7.740   7.725   9.866
 5223W        W 9423   8.599   6.006  11.012
 5224W        W 9424   7.489   7.073   1.876
 5225W        W 9425   1.811  10.967   2.807
 5226W        W 9426   1.802  10.484  11.243
 5227W        W 9427   2.966   7.850  10.367
 5228W        W 9428   1.785   3.754   2.318
 5229W        W 9429   9.444   8.784   0.215
 5230W        W 9430   0.408   6.049   0.248
 5231W        W 9431   0.485   3.878   2.428
 5232W        W 9432   4.734   2.671   2.988
 5233W        W 9433   0.724   0.688   9.977
 5234W        W 9434  10.404   7.467   9.877
 5235W        W 9435   3.221   0.147   9.141
 5236W        W 9436   3.808   0.623   2.927
 5237W        W 9437   1.190   5.666   2.434
 5238W        W 9438   7.584   1.048   1.938
 5239W        W 9439   7.482   8.369   2.299
 5240W        W 9440   8.605   6.455   0.384
 5241W        W 9441  10.209   2.231   0.841
 5242W        W 9442   6.637   9.855   2.010
 5243W        W 9443   3.681  11.462   9.585
 5244W        W 9444   4.650   4.622  10.904
 5245W        W 9445   4.803   8.985   3.065
 5246W        W 9446   2.660   1.141   1.231
 5247W        W 9447   4.771   6.997  10.045
 5248W        W 9448   1.383   9.514  11.887
 5249W        W 9449   2.375   3.797   9.466
 5250W        W 9450   4.652   4.755   1.811
 5251W        W 9451   2.901  10.001  11.532
 5252W        W 9452   9.237   7.357  11.077
 5253W        W 9453   8.809   8.684   0.752
 5254W        W 9454   8.070   1.429   8.741
 5255W        W 9455   9.626   9.563   1.515
 5256W        W 9456   0.708   4.699  11.325
 5257W        W 9457   8.091   8.855  11.750
 5258W        W 9458   1.811   7.413  11.813
 5259W        W 9459   4.722   8.509   0.709
 5260W        W 9460   6.337   7.461   1.470
 5261W        W 9461   3.718   8.859  10.587
 5262W        W 9462  10.353   5.042  11.157
 5263W        W 9463   1.426   5.202   2.367
 5264W        W 9464   1.899   0.469   0.807
 5265W        W 9465   2.819   7.042   2.367
 5266W        W 9466   7.908   5.217  11.430
 5267W        W 9467   1.809   5.274   2.774
 5268W        W 9468   6.375   1.257   1.737
 5269W        W 9469   1.630   3.042   0.448
 5270W        W 9470  11.072   0.933   1.229
 5271W        W 9471   1.466   0.025   0.267
 5272W        W 9472   4.091   3.526  11.794
 5273W        W 9473   5.177   0.818   1.922
 5274W        W 9474  10.057   8.970   9.109
 5275W        W 9475   1.996  10.381   9.399
 5276W        W 9476   2.747   4.607   1.356
 5277W        W 9477   4.542   5.136  11.205
 5278W        W 9478   9.005   5.680   9.785
 5279W        W 9479   4.642   4.020   1.362
 5280W        W 9480   7.812   9.519  10.902
 5281W        W 9481   4.162   1.373   2.998
 5282W        W 9482   9.392   8.623   2.292
 5283W        W 9483   1.427   5.556  11.926
 5284W        W 9484   3.728   1.121   2.988
 5285W        W 9485   9.973   2.747  10.100
 5286W        W 9486   1.169   7.343   2.893
 5287W        W 9487   5.921   5.591   9.065
 5288W        W 9488   6.528   2.861   3.613
 5289W        W 9489   9.680   1.123   2.998
 5290W        W 9490   4.088  11.349   0.882
 5291W        W 9491   0.894  11.039  10.649
 5292W        W 9492   8.311   6.790   0.945
 5293W        W 9493   7.123   7.018  11.938
 5294W        W 9494   9.962  10.869  11.879
 5295W        W 9495   3.721   6.925  11.155
 5296W        W 9496   2.188   8.042   0.576
 5297W        W 9497   9.638   4.213   1.345
 5298W        W 9498  10.632   0.701   1.382
 5299W        W 9499   7.573   7.357   2.299
 5300W        W 9500   1.994   5.336   1.840
 5301W        W 9501  10.570  10.484  11.765
 5302W        W 9502   1.621   7.001   1.910
 5303W        W 9503   8.305   4.021  10.282
 5304W        W 9504   5.651   3.207   2.555
 5305W        W 9505   6.090   0.310   2.233
 5306W        W 9506   9.561   7.679   1.438
 5307W        W 9507   9.916   3.184   9.784
 5308W        W 9508   9.621   4.903   1.720
 5309W        W 9509   8.214   3.655   9.514
 5310W        W 9510   6.687   3.974   1.702
 5311W        W 9511   9.987   8.533  10.723
 5312W        W 9512   8.482  10.266  10.042
 5313W        W 9513   0.293  11.455   9.251
 5314W        W 9514   3.695   3.617  10.962
 5315W        W 9515  11.456  10.716   9.675
 5316W        W 9516   0.176   7.193  11.331
 5317W        W 9517   8.942   9.367  11.425
 5318W        W 9518   2.616   0.833   9.218
 5319W        W 9519   0.547   3.440  10.314
 5320W        W 9520  10.224   2.718   2.100
 5321W        W 9521   5.646   8.527   1.781
 5322W        W 9522   3.959   8.022   1.742
 5323W        W 9523   8.299   3.894   3.992
 5324W        W 9524   1.219   4.038   9.243
 5325W        W 9525   2.260   1.887   9.761
 5326W        W 9526   9.870  10.771   2.240
 5327W        W 9527   5.004   9.865   3.405
 5328W        W 9528   1.965   2.167  11.287
 5329W        W 9529   7.986  10.393   2.431
 5330W        W 9530   1.957   3.206   8.362
 5331W        W 9531   0.392  10.020  10.925
 5332W        W 9532   8.571   3.567   3.139
 5333W        W 9533   9.911   7.693   2.396
 5334W        W 9534   6.558  10.928   9.336
 5335W        W 9535   2.790   5.289  11.343
 5336W        W 9536   4.955   2.523   8.616
 5337W        W 9537   6.730   8.634   0.815
 5338W        W 9538   1.896   6.931   8.774
 5339W        W 9539   3.678   0.179   2.708
 5340W        W 9540   4.988   8.306   8.935
 5341W        W 9541   7.027   9.341   8.586
 5342W        W 9542   1.236   7.578   2.070
 5343W        W 9543   7.995   5.919   0.786
 5344W        W 9544   5.616  10.950   0.964
 5345W        W 9545   0.663   8.762  10.086
 5346W        W 9546   4.000   6.209   1.854
 5347W        W 9547  10.738   7.466   3.521
 5348W        W 9548   1.633   6.677   8.327
 5349W        W 9549   0.305  10.997   9.462
 5350W        W 9550   5.255   4.678   1.656
 5351W        W 9551   2.791   4.826  11.632
 5352W        W 9552   3.147   3.342   1.775
 5353W        W 9553   0.146   7.908  10.002
 5354W        W 9554   6.309   6.478   2.316
 5355W        W 9555   2.186  10.984   1.844
 5356W        W 9556   0.466   0.422   2.432
 5357W        W 9557   9.719   7.046   0.293
 5358W        W 9558   0.896   7.080   1.414
 5359W        W 9559   5.193   1.386   1.663
 5360W        W 9560   1.730   4.800  10.277
 5361W        W 9561   5.803   5.146   0.299
 5362W        W 9562   1.761   8.038   9.632
 5363W        W 9563   1.194   1.897  11.282
 5364W        W 9564  10.975   9.978   9.697
 5365W        W 9565   3.902   9.328   3.269
 5366W        W 9566   6.892   2.611   2.668
 5367W        W 9567   6.379   2.529  10.341
 5368W        W 9568   2.219   1.467   0.079
 5369W        W 9569   1.161   1.314   3.628
 5370W        W 9570   7.769   0.367   3.715
 5371W        W 9571   2.294   5.771   9.134
 5372W        W 9572   8.936   7.475   2.156
 5373W        W 9573  11.257   5.127   1.204
 5374W        W 9574   1.380  10.332   2.824
 5375W        W 9575   2.819   3.258   3.474
 5376W        W 9576  10.490   8.943   2.967
 5377W        W 9577   8.629   7.365   9.437
 5378W        W 9578   1.898   4.538  10.907
 5379W        W 9579  10.081   1.299   1.214
 5380W        W 9580   7.577   1.785   9.586
 5381W        W 9581   3.145   5.613   0.101
 5382W        W 9582   4.046   5.153  11.022
 5383W        W 9583   2.690   3.104   8.992
 5384W        W 9584   0.180   1.798   1.514
 5385W        W 9585   9.797   1.300   0.759
 5386W        W 9586   8.945   0.759   1.907
 5387W        W 9587   7.566   5.071   1.236
 5388W        W 9588   6.720  10.394   2.716
 5389W        W 9589   0.835  10.277  10.086
 5390W        W 9590   0.088   9.376   0.756
 5391W        W 9591   7.665   1.023   9.597
 5392W        W 9592   7.698   6.520   1.839
 5393W        W 9593   8.121   6.698   9.900
 5394W        W 9594   3.752   9.079   1.998
 5395W        W 9595   1.735   8.927  10.886
 5396W        W 9596   7.016   5.993  11.828
 5397W        W 9597   6.141   0.805   2.424
 5398W        W 9598   8.065  10.824   2.730
 5399W        W 9599   0.231   5.467   1.899
 5400W        W 9600   8.099   3.751   1.418
 5401W        W 9601  10.880   1.386   0.003
 5402W        W 9602   8.975   8.578   2.722
 5403W        W 9603   8.460   1.465   9.476
 5404W        W 9604   0.285   7.579  11.704
 5405W        W 9605   7.113   6.683  11.331
 5406W        W 9606   2.326   7.934  10.994
 5407W        W 9607   0.354   1.279  11.843
 5408W        W 9608   3.953   6.287   1.282
 5409W        W 9609   6.660   7.504   3.672
 5410W        W 9610  11.323   8.460   2.179
 5411W        W 9611   9.123  11.424   0.724
 5412W        W 9612   0.164   5.159   0.920
 5413W        W 9613   9.904   0.361  11.835
 5414W        W 9614   5.072   0.244   0.244
 5415W        W 9615   6.242   3.485   2.258
 5416W        W 9616  10.849  10.454   3.342
 5417W        W 9617  11.192   5.269   8.760
 5418W        W 9618   5.726   8.613   3.334
 5419W        W 9619   9.000   3.661   3.439
 5420W        W 9620  11.189   1.505   8.846
 5421W        W 9621   2.737  11.262   0.222
 5422W        W 9622   5.705   2.394   1.028
 5423W        W 9623   5.092   7.737  11.647
 5424W        W 9624   1.184   8.220   0.137
 5425W        W 9625  10.620   7.847   1.413
 5426W        W 9626   7.659   3.058   0.699
 5427W        W 9627  11.412   3.789   3.152
 5428W        W 9628   4.366   5.007   1.415
 5429W        W 9629   0.180   9.238  10.330
 5430W        W 9630   8.737   7.961  10.380
 5431W        W 9631   1.703  10.826   9.416
 5432W        W 9632   9.364   6.645  11.787
 5433W        W 9633   9.140   7.328   9.570
 5434W        W 9634  11.491  11.329   9.795
 5435W        W 9635  10.754   0.229   9.913
 5436W        W 9636   1.986  10.697   8.987
 5437W        W 9637   7.757   6.295   8.260
 5438W        W 9638   0.196   5.531   9.511
 5439W        W 9639  10.844   7.154   8.884
 5440W        W 9640   6.444   2.790   8.985
 5441W        W 9641  10.114   0.741  10.574
 5442W        W 9642   6.788   6.115   1.318
 5443W        W 9643   9.512   3.308   2.272
 5444W        W 9644   5.275   5.813   2.347
 5445W        W 9645   7.309   0.458  10.054
 5446W        W 9646   8.898   0.812   2.415
 5447W        W 9647   3.670   3.599   0.715
 5448W        W 9648   0.205   3.064  10.246
 5449W        W 9649   0.425   8.688  10.895
 5450W        W 9650   7.592   6.344   3.483
 5451W        W 9651   1.294   7.852  10.914
 5452W        W 9652   3.985   1.017   0.454
 5453W        W 9653   9.491   2.797   9.904
 5454W        W 9654   7.287   1.007   0.263
 5455W        W 9655   6.824   0.785   8.413
 5456W        W 9656   5.518   3.766   1.815
 5457W        W 9657   9.523   1.366   1.309
 5458W        W 9658   0.513   7.061   9.006
 5459W        W 9659   0.202   8.719  10.402
 5460W        W 9660   0.299   3.862  11.146
 5461W        W 9661   1.428  10.888  11.779
 5462W        W 9662  10.753   9.375   2.258
 5463W        W 9663   2.105   8.419   3.199
 5464W        W 9664   1.642  10.386   2.161
 5465W        W 9665   4.645   8.118   9.672
 5466W        W 9666   9.454   6.889   9.860
 5467W        W 9667   3.696   5.439  10.351
 5468W        W 9668  11.390   6.053   0.051
 5469W        W 9669   3.347   7.219  10.958
 5470W        W 9670  10.892   8.556   8.656
 5471W        W 9671  10.735   6.990   0.397
 5472W        W 9672   3.311   9.120  11.078
 5473W        W 9673   1.653   9.631  11.459
 5474W        W 9674   5.886   1.525   9.799
 5475W        W 9675   4.899  10.394  10.177
 5476W        W 9676   1.299   5.730   0.383
 5477W        W 9677   2.133   1.755  11.579
 5478W        W 9678   9.822   0.632   3.010
 5479W        W 9679   7.705   9.048   9.914
 5480W        W 9680   7.151   7.106  10.547
 5481W        W 9681  11.445   9.847   8.685
 5482W        W 9682   1.346  10.437   9.975
 5483W        W 9683   5.526  10.801   2.476
 5484W        W 9684   4.979   8.006   3.344
 5485W        W 9685   3.248   0.191  11.462
 5486W        W 9686   2.274   7.514  10.342
 5487W        W 9687   1.495   4.255   2.367
 5488W        W 9688  10.486   2.444   9.933
 5489W        W 9689   4.950   6.410  11.722
 5490W        W 9690   7.075   1.759   1.144
 5491W        W 9691   0.423   0.344   0.516
 5492W        W 9692   8.362   7.190  11.018
 5493W        W 9693   2.338   3.089   2.741
 5494W        W 9694  10.577   6.008   2.194
 5495W        W 9695   4.293  11.383  11.524
 5496W        W 9696   2.407  10.170  11.531
 5497W        W 9697   0.922  11.433   8.546
 5498W        W 9698   9.424   0.779   2.137
 5499W        W 9699   7.711   6.613   8.687
 5500W        W 9700   6.655   8.614   3.835
 5501W        W 9701   2.375   0.389   9.160
 5502W        W 9702   8.468   5.036   9.639
 5503W        W 9703   3.735   0.866   2.089
 5504W        W 9704   1.714   0.347   1.641
 5505W        W 9705   4.271   2.266   9.290
 5506W        W 9706   0.381   8.010   9.113
 5507W        W 9707   9.998  10.039   0.723
 5508W        W 9708   0.423   3.388   1.486
 5509W        W 9709   4.219   0.025  11.001
 5510W        W 9710  11.127   1.440   2.325
 5511W        W 9711   5.095   7.022   1.030
 5512W        W 9712  11.469   5.577   1.428
 5513W        W 9713   1.377   7.052   0.095
 5514W        W 9714   1.405   3.738   1.030
 5515W        W 9715   3.291   7.632   0.783
 5516W        W 9716   6.137   1.706   3.490
 5517W        W 9717   8.480   8.403   3.544
 5518W        W 9718   9.982  10.370   3.533
 5519W        W 9719   9.524   7.736  10.422
 5520W        W 9720   8.046  10.990  10.091
 5521W        W 9721  10.868   8.694  10.024
 5522W        W 9722   2.512   4.326   2.127
 5523W        W 9723   8.678   8.521  11.757
 5524W        W 9724   2.394   6.075  10.435
 5525W        W 9725   2.837   8.928  10.772
 5526W        W 9726   7.122   5.757  11.353
 5527W        W 9727   2.875   9.350   0.299
 5528W        W 9728   5.108   9.077  11.478
 5529W        W 9729   3.439   0.214  10.984
 5530W        W 9730   4.628   4.561   0.494
 5531W        W 9731   0.632   0.524  10.861
 5532W        W 9732   8.406   7.879   3.105
 5533W        W 9733  10.396   5.615   0.906
 5534W        W 9734   1.840   5.692  11.651
 5535W        W 9735   2.036   4.689   9.873
 5536W        W 9736  11.058   5.308   1.955
 5537W        W 9737   4.847  10.460  11.453
 5538W        W 9738   4.397   4.084   3.254
 5539W        W 9739   7.269   2.265   8.797
 5540W        W 9740   3.693   1.827   1.665
 5541W        W 9741   8.400   4.155   9.270
 5542W        W 9742   7.857   3.256   0.243
 5543W        W 9743   4.360   3.241   3.672
 5544W        W 9744   8.986   4.997   1.450
 5545W        W 9745   4.245   7.022   8.781
 5546W        W 9746   7.771   0.928   0.448
 5547W        W 9747   6.123   4.561   1.310
 5548W        W 9748  10.353   6.424   9.990
 5549W        W 9749   5.866   9.408   0.323
 5550W        W 9750   4.177   1.369   0.828
 5551W        W 9751  11.237   9.863  10.186
 5552W        W 9752   7.223   9.542  10.379
 5553W        W 9753   6.028   4.254   2.606
 5554W        W 9754   4.965   2.343   2.670
 5555W        W 9755  10.352   9.481  10.283
 5556W        W 9756   2.602   9.899  11.048
 5557W        W 9757   1.423   1.742   3.131
 5558W        W 9758   5.557   5.376   2.250
 5559W        W 9759   4.861   7.102   1.494
 5560W        W 9760   0.380   1.300  11.311
 5561W        W 9761   5.579   4.624   9.016
 5562W        W 9762   5.917   6.522   9.460
 5563W        W 9763   0.244   6.810   2.096
 5564W        W 9764   9.918  10.479   1.237
 5565W        W 9765   2.306   3.345   1.331
 5566W        W 9766   4.959   9.105   8.567
 5567W        W 9767   8.535   3.871   1.713
 5568W        W 9768   1.523   4.797   2.672
 5569W        W 9769   6.250  11.466   1.384
 5570W        W 9770   1.883   6.965   3.184
 5571W        W 9771   3.162   3.601   0.773
 5572W        W 9772   7.708   9.205   1.284
 5573W        W 9773   7.883   8.072  10.207
 5574W        W 9774   9.581  11.406   0.992
 5575W        W 9775   6.753   6.568   9.944
 5576W        W 9776   3.060   5.533   2.438
 5577W        W 9777   7.317   8.572   2.748
 5578W        W 9778   3.395  10.927  10.808
 5579W        W 9779   8.034   1.311   1.258
 5580W        W 9780   5.929   3.071   0.311
 5581W        W 9781  11.272   1.030   3.548
 5582W        W 9782  10.314   3.698   1.704
 5583W        W 9783   4.608   3.362  10.046
 5584W        W 9784   8.507   7.677   9.054
 5585W        W 9785   7.740   5.237   8.536
 5586W        W 9786   1.728   3.131   2.242
 5587W        W 9787   3.142   7.036   9.905
 5588W        W 9788   2.282   2.480   1.719
 5589W        W 9789   9.495   7.389   9.961
 5590W        W 9790   7.489   0.245  11.156
 5591W        W 9791   6.633   2.339   1.376
 5592W        W 9792   8.646   7.632   9.887
 5593W        W 9793  10.973   3.583   0.454
 5594W        W 9794   3.595   2.345   0.466
 5595W        W 9795   8.130   6.609  11.285
 5596W        W 9796   6.952   0.344   1.120
 5597W        W 9797   0.929   5.726   9.005
 5598W        W 9798  10.290   5.657   2.439
 5599W        W 9799   4.184   6.915  11.345
 5600W        W 9800   0.102   0.757  10.825
 5601W        W 9801   1.452  11.362   0.844
 5602W        W 9802   9.999   0.318   9.128
 5603W        W 9803   2.252   1.935   8.724
 5604W        W 9804   1.380   1.430   1.780
 5605W        W 9805   9.118   9.963   3.077
 5606W        W 9806   8.625   1.156  11.021
 5607W        W 9807   9.288   2.656   2.547
 5608W        W 9808   9.196  11.466   0.204
 5609W        W 9809   7.519   8.772   9.156
 5610W        W 9810   2.785   1.572   1.497
 5611W        W 9811  10.666  10.595   2.883
 5612W        W 9812  10.464   8.212   3.446
 5613W        W 9813   8.382   7.916   1.359
 5614W        W 9814   2.155   0.648   2.853
 5615W        W 9815   6.440   1.153  11.200
 5616W        W 9816   7.200   6.475   1.729
 5617W        W 9817   5.434   5.275   9.554
 5618W        W 9818   0.127   1.623   2.728
 5619W        W 9819   3.175   2.818   9.927
 5620W        W 9820   3.018   4.695   2.981
 5621W        W 9821   2.044   5.157   0.666
 5622W        W 9822   6.044   9.366   9.606
 5623W        W 9823   9.048   5.130   2.385
 5624W        W 9824   8.467   0.433   1.246
 5625W        W 9825  10.334   6.475  11.006
 5626W        W 9826   7.087   8.419  11.088
 5627W        W 9827   4.038   4.752  10.706
 5628W        W 9828   2.374   7.706   8.993
 5629W        W 9829   6.553   3.072   4.130
 5630W        W 9830  11.226  11.048  11.062
 5631W        W 9831   0.002   3.448   9.074
 5632W        W 9832   2.972   8.381   8.997
 5633W        W 9833   6.237   9.317  11.982
 5634W        W 9834   2.255   2.818   9.826
 5635W        W 9835   9.904   6.157  11.460
 5636W        W 9836   8.686   6.581   1.771
 5637W        W 9837  10.434  10.469  10.793
 5638W        W 9838  10.038   4.088   0.891
 5639W        W 9839   7.072   0.760   3.149
 5640W        W 9840  10.404   4.479   2.849
 5641W        W 9841   8.753   2.302   1.822
 5642W        W 9842   9.212   3.827   9.424
 5643W        W 9843   5.484   5.034  10.000
 5644W        W 9844   6.947  10.778   2.345
 5645W        W 9845   3.497   7.745  11.943
 5646W        W 9846   0.223   2.702   1.527
 5647W        W 9847   1.816   8.193   2.004
 5648W        W 9848   9.144   9.071   9.770
 5649W        W 9849   1.191   4.806  11.470
 5650W        W 9850  11.365   9.816   9.197
 5651W        W 9851   8.597   9.347  10.630
 5652W        W 9852   7.972   2.333  10.708
 5653W        W 9853   0.504   8.036  11.827
 5654W        W 9854   4.484   2.814  10.648
 5655W        W 9855   8.924   1.565  11.186
 5656W        W 9856   3.488   3.797   1.174
 5657W        W 9857   6.434   3.521   0.876
 5658W        W 9858   6.567   2.851   1.361
 5659W        W 9859  10.446   3.292  10.622
 5660W        W 9860   3.707   8.286  11.292
 5661W        W 9861   4.128   6.576   0.777
 5662W        W 9862   4.739   0.315  10.342
 5663W        W 9863   9.983   0.117  11.353
 5664W        W 9864  10.986  11.259   9.930
 5665W        W 9865   0.778   5.047   3.220
 5666W        W 9866  10.076   1.366   2.451
 5667W        W 9867   8.885   4.180   0.268
 5668W        W 9868   0.758  10.171   3.139
 5669W        W 9869  10.872   9.655   2.688
 5670W        W 9870   3.434   3.146   0.878
 5671W        W 9871  11.020   7.009   3.584
 5672W        W 9872   1.276   2.320   2.825
 5673W        W 9873   2.188  10.830   1.361
 5674W        W 9874   7.165  10.335   2.438
 5675W        W 9875   3.419  11.073   9.929
 5676W        W 9876   2.210   3.331   9.641
 5677W        W 9877   3.490   3.979  10.626
 5678W        W 9878   1.877   5.536   9.329
 5679W        W 9879   8.678   5.192   2.865
 5680W        W 9880   5.546   7.371   9.804
 5681W        W 9881   4.308   7.504   0.761
 5682W        W 9882   0.948   2.683   2.666
 5683W        W 9883   0.198   6.826  10.511
 5684W        W 9884   5.465   4.104   4.027
 5685W        W 9885   8.200   8.095   8.944
 5686W        W 9886   8.895   5.461  10.230
 5687W        W 9887   7.475   2.365  10.498
 5688W        W 9888   7.700  11.240   9.784
 5689W        W 9889   0.193   5.244   8.983
 5690W        W 9890   1.899   6.998   1.459
 5691W        W 9891   0.968   5.285   2.144
 5692W        W 9892   7.647   0.577   1.772
 5693W        W 9893  11.410   5.687   9.933
 5694W        W 9894   2.619  11.256   9.521
 5695W        W 9895  10.864   7.168  10.005
 5696W        W 9896   3.748   4.775   2.259
 5697W        W 9897   4.688   9.943   0.495
 5698W        W 9898   7.878   1.548  11.922
 5699W        W 9899   0.769   0.407   8.694
 5700W        W 9900  11.326   0.032  11.295
 5701W        W 9901   0.458   8.008   0.621
 5702W        W 9902  10.233  11.334  10.311
 5703W        W 9903   1.440   4.241   0.229
 5704W        W 9904   4.936   1.310   3.258
 5705W        W 9905   7.672   8.980  10.886
 5706W        W 9906   6.880   8.852   8.543
 5707W        W 9907   3.673   5.490  10.867
 5708W        W 9908   4.929   4.341  10.506
 5709W        W 9909   0.389   8.779   0.330
 5710W        W 9910   6.950   4.584  10.351
 5711W        W 9911   8.212   9.633   8.785
 5712W        W 9912   5.026   2.895  10.623
 5713W        W 9913   9.750   4.553  10.633
 5714W        W 9914  11.152   8.475  10.421
 5715W        W 9915   4.460   7.998   1.880
 5716W        W 9916   6.415   1.318   1.233
 5717W        W 9917   1.438   9.078   1.191
 5718W        W 9918   9.911   6.489   3.570
 5719W        W 9919   1.334   7.149   2.320
 5720W        W 9920   8.077   4.166   1.078
 5721W        W 9921   4.800   5.239   1.862
 5722W        W 9922   0.391   3.479   9.424
 5723W        W 9923   6.987   1.717   2.126
 5724W        W 9924   4.414  10.283   0.960
 5725W        W 9925  10.037   8.092   9.818
 5726W        W 9926  10.296   3.974  11.982
 5727W        W 9927   8.389   6.164   1.705
 5728W        W 9928  11.296   3.405   0.857
 5729W        W 9929   4.462   6.312   1.150
 5730W        W 9930   0.032   8.551   0.644
 5731W        W 9931   8.823   1.161   3.391
 5732W        W 9932   3.880   7.107   1.494
 5733W        W 9933   9.023   4.331   0.736
 5734W        W 9934   7.751   1.480   1.661
 5735W        W 9935  11.363  10.125  11.629
 5736W        W 9936   4.179   5.063   2.319
 5737W        W 9937   8.922   7.588   1.661
 5738W        W 9938   3.157   7.710   9.396
 5739W        W 9939   2.289   4.797   0.958
 5740W        W 9940   1.368  11.435   8.820
 5741W        W 9941   1.429  11.318  11.526
 5742W        W 9942   7.133   2.927   8.823
 5743W        W 9943  11.180   9.282  11.001
 5744W        W 9944   0.430   3.776   3.234
 5745W        W 9945   1.033   8.479  10.328
 5746W        W 9946   8.830   5.989   8.368
 5747W        W 9947   6.346   0.804  10.681
 5748W        W 9948   5.517   3.706   8.146
 5749W        W 9949   9.525   8.640   3.197
 5750W        W 9950   5.906   3.385   1.869
 5751W        W 9951   2.263   8.442  10.288
 5752W        W 9952   5.717   9.082   3.578
 5753W        W 9953   3.613   1.888   9.505
 5754W        W 9954   1.352   4.730   2.180
 5755W        W 9955   6.056   8.353   2.686
 5756W        W 9956  10.384   6.599   3.367
 5757W        W 9957   0.293  10.558   9.141
 5758W        W 9958   9.564   5.549   1.128
 5759W        W 9959   8.532   1.001   2.074
 5760W        W 9960   2.895   7.878   1.309
 5761W        W 9961   0.092  10.580  11.734
 5762W        W 9962   5.189   0.965  11.438
 5763W        W 9963   9.057   7.602   2.655
 5764W        W 9964   2.268   0.856  10.851
 5765W        W 9965   6.290  10.511  10.768
 5766W        W 9966   3.493   3.747   3.559
 5767W        W 9967  10.571   9.989  10.984
 5768W        W 9968   6.166   1.742  11.029
 5769W        W 9969   8.103   7.676  11.187
 5770W        W 9970   2.253   8.882  11.016
 5771W        W 9971   8.921   6.044   0.790
 5772W        W 9972  10.188   4.252  10.582
 5773W        W 9973   3.279   9.082   9.069
 5774W        W 9974  10.501   9.044   8.842
 5775W        W 9975  10.047   9.014   2.189
 5776W        W 9976  10.335   5.357  10.630
 5777W        W 9977   1.672   3.798   2.838
 5778W        W 9978  11.267  10.276   0.615
 5779W        W 9979   1.946  11.443   1.859
 5780W        W 9980   4.515  10.920  11.443
 5781W        W 9981   2.756   2.057   9.032
 5782W        W 9982   6.180   9.047   2.312
 5783W        W 9983   8.972   0.421   2.748
 5784W        W 9984   9.553   6.441   9.593
 5785W        W 9985   1.374   3.823  10.951
 5786W        W 9986   7.429   7.607  11.708
 5787W        W 9987   0.990   3.675  10.415
 5788W        W 9988   4.893   7.210   0.564
 5789W        W 9989  10.379  10.777   2.466
 5790W        W 9990   3.316   3.752   9.772
 5791W        W 9991   1.756  11.339   3.631
 5792W        W 9992   7.190   7.487   1.078
 5793W        W 9993   3.130  10.796  11.305
 5794W        W 9994   0.305  10.069   1.393
 5795W        W 9995   8.621   1.989   1.449
 5796W        W 9996   5.167   1.935  10.944
 5797W        W 9997   4.710   6.060  10.778
 5798W        W 9998  10.062   7.595   1.360
 5799W        W 9999   2.169   9.749   2.663
 5800W        W10000  10.353   4.971   8.840
 5801W        W10001   4.680  10.548   1.805
 5802W        W10002   6.994   0.374   0.129
 5803W        W10003   0.603  11.351  11.781
 5804W        W10004   9.213   5.220  11.333
 5805W        W10005   8.022   5.665   8.684
 5806W        W10006   8.562  11.042   1.774
 5807W        W10007   2.521   4.750   2.862
 5808W        W10008   3.713   3.075   9.047
 5809W        W10009   3.557   9.509   3.604
 5810W        W10010   2.595   9.357   0.732
 5811W        W10011   2.672   4.301  10.272
 5812W        W10012   3.707   4.269   2.171
 5813W        W10013   8.473   9.586   0.167
 5814W        W10014   7.722   6.425   9.173
 5815W        W10015   1.918   0.987   0.743
 5816W        W10016   8.974  10.883   2.535
 5817W        W10017   2.832   5.557  10.763
 5818W        W10018  10.890  10.534   0.871
 5819W        W10019   5.651  10.136   9.846
 5820W        W10020   5.665   9.519   3.292
 5821W        W10021   6.482   1.207   2.339
 5822W        W10022   6.107   1.517   8.974
 5823W        W10023   0.868   4.869   8.518
 5824W        W10024   8.698   4.745   9.283
 5825W        W10025   6.231   1.684   2.978
 5826W        W10026   6.669   0.579  11.766
 5827W        W10027   4.685   1.301   0.789
 5828W        W10028   9.444   8.766  10.839
 5829W        W10029   2.673   9.111  11.218
 5830W        W10030   3.666   2.347   1.893
 5831W        W10031   0.003   8.950   2.358
 5832W        W10032   1.842   8.751   1.946
 5833W        W10033   8.947   8.456  11.032
 5834W        W10034   8.041   4.796   1.719
 5835W        W10035   7.094   6.500   1.176
 5836W        W10036   5.968   8.478   0.330
 5837W        W10037   9.897   1.862   2.493
 5838W        W10038   8.647   6.466   9.147
 5839W        W10039   6.227   3.637   3.138
 5840W        W10040   2.657   8.856   1.410
 5841W        W10041   3.651   9.940   1.352
 5842W        W10042   0.877   4.606  11.803
 5843W        W10043  11.416   3.651  11.466
 5844W        W10044  10.474   5.710  11.917
 5845W        W10045   7.495   4.072   9.818
 5846W        W10046   7.890   7.925   3.129
 5847W        W10047   1.450   9.888   9.279
 5848W        W10048  10.508   0.038   2.830
 5849W        W10049   2.246  10.660   0.873
 5850W        W10050   2.892   3.447  11.345
 5851W        W10051  11.432   1.069  11.282
 5852W        W10052   8.289   3.730   0.863
 5853W        W10053   5.234   9.786   1.193
 5854W        W10054   0.326   7.483   9.293
 5855W        W10055  10.412   4.212   1.783
 5856W        W10056   8.912   0.126   8.781
 5857W        W10057   0.366   8.359   1.485
 5858W        W10058  10.770   1.830   1.230
 5859W        W10059   1.170  10.321   2.348
 5860W        W10060  10.081   3.257  11.454
 5861W        W10061   6.415   7.839  10.893
 5862W        W10062   6.043   4.327   0.848
 5863W        W10063   6.645   1.287   0.435
 5864W        W10064   7.999   4.262  11.118
 5865W        W10065   8.741   5.800  10.573
 5866W        W10066   7.416   8.292  10.077
 5867W        W10067   8.932   8.074   9.893
 5868W        W10068   6.751  11.425   1.345
 5869W        W10069   1.631   6.181   9.534
 5870W        W10070   1.701   0.951  10.147
 5871W        W10071   1.758   2.446   3.553
 5872W        W10072   6.840   1.391   1.496
 5873W        W10073   5.230   2.154  11.843
 5874W        W10074  11.366   0.400  11.724
 5875W        W10075   2.161   9.171   2.039
 5876W        W10076   8.907   8.523   2.200
 5877W        W10077   3.897   7.075   3.253
 5878W        W10078  10.852   5.886   3.603
 5879W        W10079   2.487   7.079  10.502
 5880W        W10080  10.488   5.644   1.405
 5881W        W10081   3.187   5.625  11.532
 5882W        W10082   7.934   7.036   9.583
 5883W        W10083   6.653   0.358   3.019
 5884W        W10084   9.393   3.352   8.501
 5885W        W10085   4.720   7.037   9.019
 5886W        W10086   5.080   7.151  10.972
 5887W        W10087   8.331   4.817   2.166
 5888W        W10088  11.308   4.790   0.283
 5889W        W10089   2.349   8.673   2.807
 5890W        W10090   6.474   8.009   8.683
 5891W        W10091  11.052   2.858   1.880
 5892W        W10092   6.539   8.470   9.911
 5893W        W10093   5.557   3.275   9.815
 5894W        W10094  10.553   5.539  11.046
 5895W        W10095  10.291   0.285   1.355
 5896W        W10096   3.422  10.198   0.645
 5897W        W10097   4.918   1.154  10.509
 5898W        W10098   2.662  10.962  11.261
 5899W        W10099   7.529  10.173  11.921
 5900W        W10100   2.121   6.654   0.357
 5901W        W10101  10.367   1.064   9.694
 5902W        W10102   7.336   8.347   1.392
 5903W        W10103   2.574   8.831  10.348
 5904W        W10104   2.691   5.829   1.599
 5905W        W10105   7.492   9.573   2.810
 5906W        W10106   8.653   3.270   2.631
 5907W        W10107   6.454  11.400   2.816
 5908W        W10108   5.301   4.765   9.420
 5909W        W10109   1.678   9.733  10.093
 5910W        W10110   0.257   7.625   2.752
 5911W        W10111   2.860  10.393   1.385
 5912W        W10112  10.397   3.822   1.210
 5913W        W10113   6.227   8.163   9.100
 5914W        W10114   9.520   0.237   0.596
 5915W        W10115   6.046   7.108   1.709
 5916W        W10116   4.482  10.495  10.594
 5917W        W10117   0.393  11.030   8.972
 5918W        W10118  11.077   1.875   0.792
 5919W        W10119   3.378   9.791   0.951
 5920W        W10120   5.429   1.055  10.429
 5921W        W10121   6.567   9.516   1.633
 5922W        W10122   6.247   1.938   8.409
 5923W        W10123   0.331   8.444   8.776
 5924W        W10124   1.664   3.145  11.947
 5925W        W10125   9.018   8.535   3.286
 5926W        W10126   4.664   8.775   9.796
 5927W        W10127   9.295   2.828   8.961
 5928W        W10128   7.267  11.478   1.321
 5929W        W10129   6.299   8.809   0.021
 5930W        W10130   9.443   6.192   8.683
 5931W        W10131  10.014   4.570   1.777
 5932W        W10132   1.736   1.946   3.522
 5933W        W10133   1.009   2.255   3.664
 5934W        W10134  11.257   9.470  10.519
 5935W        W10135   2.598   1.094   8.776
 5936W        W10136  10.884   4.724   9.961
 5937W        W10137   2.128   6.811  10.761
 5938W        W10138   7.139   7.949  11.957
 5939W        W10139   1.441  10.879  10.739
 5940W        W10140   9.263   7.496  11.915
 5941W        W10141   4.266   8.479   1.826
 5942W        W10142  10.014   5.782   1.227
 5943W        W10143   4.490  10.643   2.289
 5944W        W10144  10.072   2.655  11.970
 5945W        W10145   2.783   8.605   1.979
 5946W        W10146  10.517   4.543  10.294
 5947W        W10147   7.403   9.868  10.993
 5948W        W10148   4.160  11.099   2.234
 5949W        W10149   8.254   8.576   0.805
 5950W        W10150   8.972   6.776   0.502
 5951W        W10151   6.709   1.863   9.810
 5952W        W10152   1.608   0.677   0.424
 5953W        W10153   9.176   6.735   2.638
 5954W        W10154   8.995   7.389   0.796
 5955W        W10155   7.112   5.569   9.968
 5956W        W10156   2.626   9.915   1.357
 5957W        W10157  11.323   0.676   0.155
 5958W        W10158   7.125   2.531   0.260
 5959W        W10159   5.305   5.244   1.484
 5960W        W10160   5.218   0.221  10.175
 5961W        W10161  11.004   8.898   2.281
 5962W        W10162   0.686   9.254   8.847
 5963W        W10163   7.452   1.850   2.451
 5964W        W10164  10.978   5.982   8.969
 5965W        W10165   2.723  11.385   2.900
 5966W        W10166   0.695   4.108  11.538
 5967W        W10167   8.885   5.585  11.026
 5968W        W10168  11.184   7.212  11.479
 5969W        W10169   5.786   6.998  10.075
 5970W        W10170   9.205   2.327   3.478
 5971W        W10171   1.775  11.279   2.311
 5972W        W10172   6.937   2.224  10.086
 5973W        W10173  10.465   7.551   8.873
 5974W        W10174   0.913   0.224   1.646
 5975W        W10175   8.608   8.978  11.483
 5976W        W10176   1.438   9.779   2.033
 5977W        W10177   4.276   4.332   2.811
 5978W        W10178  10.073   5.076   1.943
 5979W        W10179  10.397  11.079  11.605
 5980W        W10180  10.612   3.171   2.878
 5981W        W10181  10.966   7.671  10.794
 5982W        W10182   7.025   7.124  11.050
 5983W        W10183   9.360   9.523  11.692
 5984W        W10184  10.599   8.009   0.895
 5985W        W10185   5.056   5.237  10.958
 5986W        W10186   1.574   1.937   2.634
 5987W        W10187   1.457   4.502   1.092
 5988W        W10188   9.244   7.063  11.503
 5989W        W10189   0.207   9.433   2.607
 5990W        W10190   1.065   6.686   0.320
 5991W        W10191  11.424   1.499  11.577
 5992W        W10192   6.251   8.952   9.380
 5993W        W10193   3.724  10.830   2.283
 5994W        W10194   6.165   5.712  11.749
 5995W        W10195   5.532   1.840   2.674
 5996W        W10196   2.513   8.969   9.475
 5997W        W10197  10.028  10.962   0.427
 5998W        W10198   9.919   8.520   3.497
 5999W        W10199   6.947   7.075   3.605
 6000W        W10200   4.209  10.018  10.293
 6001W        W10201   3.319  10.335  11.309
 6002W        W10202   3.015   6.231   1.589
 6003W        W10203   2.832   0.378   2.918
 6004W        W10204   6.150  11.011  11.925
 6005W        W10205   7.988   6.105   2.012
 6006W        W10206   4.557   4.330  11.368
 6007W        W10207   5.042   0.174   0.753
 6008W        W10208   4.064   9.688  11.068
 6009W        W10209   9.965   8.546   2.965
 6010W        W10210   5.117   3.586   3.198
 6011W        W10211  10.426   1.917  10.046
 6012W        W10212   2.736   5.646   3.622
 6013W        W10213   7.669   9.858  10.518
 6014W        W10214   8.267   5.573   1.204
 6015W        W10215   3.882   0.764  11.753
 6016W        W10216   1.026   7.014   3.623
 6017W        W10217   2.258   7.926   3.221
 6018W        W10218   0.492   7.929   3.570
 6019W        W10219   7.940   1.426   9.735
 6020W        W10220   1.356   2.527   8.793
 6021W        W10221   8.255   8.065  10.555
 6022W        W10222  10.850   0.976   2.224
 6023W        W10223   0.503   1.903   1.001
 6024W        W10224   9.377   9.617   9.414
 6025W        W10225   7.935   5.180   2.267
 6026W        W10226   8.799   4.602   2.270
 6027W        W10227   5.135   3.701   0.206
 6028W        W10228   9.288   7.141   2.346
 6029W        W10229   8.347   0.450   9.438
 6030W        W10230   7.916  11.250   0.753
 6031W        W10231   1.017   7.327  10.921
 6032W        W10232   9.160   5.153   9.908
 6033W        W10233   6.527  10.266   0.318
 6034W        W10234   6.992   3.590   2.673
 6035W        W10235   6.195  11.433   1.879
 6036W        W10236   6.143   9.480   3.515
 6037W        W10237   1.468   8.875   3.619
 6038W        W10238   5.525   9.567   0.788
 6039W        W10239  11.014   3.226   9.114
 6040W        W10240   0.694   6.520   3.461
 6041W        W10241  11.492   5.359  11.226
 6042W        W10242   2.741   4.027   2.480
 6043W        W10243   9.772   3.085   0.023
 6044W        W10244   7.097   4.459  10.852
 6045W        W10245   3.801   6.963   0.627
 6046W        W10246   7.413   6.688   2.249
 6047W        W10247  11.044  10.983   9.519
 6048W        W10248   6.984   8.666  11.565
 6049W        W10249   4.631   7.218   1.032
 6050W        W10250   1.736   0.320   2.141
 6051W        W10251   5.505   4.551   9.841
 6052W        W10252  10.404   3.046  11.089
 6053W        W10253  10.187   7.050   1.403
 6054W        W10254   2.433   8.622   9.850
 6055W        W10255   8.429   0.294  10.997
 6056W        W10256  10.946   5.405   3.487
 6057W        W10257  10.603   1.403   2.409
 6058W        W10258   9.590   8.245   0.899
 6059W        W10259   3.641   9.488  11.306
 6060W        W10260   6.581   0.333  10.557
 6061W        W10261   3.666   5.778   9.962
 6062W        W10262   6.979   1.750  11.764
 6063W        W10263   9.850   8.141  10.326
 6064W        W10264  10.379   3.996   2.577
 6065W        W10265   8.240   2.176   2.758
 6066W        W10266  10.216   2.175  11.398
 6067W        W10267   2.415  10.460   3.116
 6068W        W10268   3.798   9.803  10.096
 6069W        W10269   8.638   0.934   8.610
 6070W        W10270   2.595   4.866   1.789
 6071W        W10271   6.049   3.234   2.857
 6072W        W10272   2.682   3.387   9.434
 6073W        W10273  10.015   7.677  10.619
 6074W        W10274   6.903   5.876  10.908
 6075W        W10275   5.950  10.809   2.201
 6076W        W10276   4.489   7.683   1.252
 6077W        W10277   9.632  11.076   1.427
 6078W        W10278   5.974   5.042   2.220
 6079W        W10279   9.931   2.195   9.361
 6080W        W10280   4.552   4.459   4.057
 6081W        W10281   9.083   8.235   0.972
 6082W        W10282   6.058   8.462  10.794
 6083W        W10283  10.193  10.370   2.147
 6084W        W10284   6.274   8.485   8.685
 6085W        W10285   7.698   3.493   1.190
 6086W        W10286   1.831   1.730   2.218
 6087W        W10287   3.127  11.345   9.597
 6088W        W10288   8.958   0.686  11.790
 6089W        W10289   0.769   9.266   9.833
 6090W        W10290   9.350   4.745   0.815
 6091W        W10291   2.207   5.737   1.456
 6092W        W10292   0.775   4.300   9.097
 6093W        W10293   8.913   3.917   9.019
 6094W        W10294   0.293   9.782   0.428
 6095W        W10295   2.020   7.837   8.621
 6096W        W10296   4.854   8.941   1.013
 6097W        W10297  10.871   5.052   9.553
 6098W        W10298   7.391   9.655   9.291
 6099W        W10299   4.335   9.466   2.478
 6100W        W10300  11.086   4.303   1.015
 6101W        W10301   0.876   4.070   2.165
 6102W        W10302   5.801   6.160  10.221
 6103W        W10303   3.457   9.531   9.848
 6104W        W10304   9.932   1.709   1.532
 6105W        W10305   9.499   5.370   0.153
 6106W        W10306   2.845   5.729   0.709
 6107W        W10307   6.987   4.742  11.658
 6108W        W10308   8.769   8.582   1.720
 6109W        W10309   3.898   9.828   0.900
 6110W        W10310   9.562   3.758  11.355
 6111W        W10311   3.678   0.247  10.528
 6112W        W10312   4.616   6.994  11.079
 6113W        W10313   7.829   0.855  11.242
 6114W        W10314   8.484  11.277  10.039
 6115W        W10315   2.762  10.650   0.179
 6116W        W10316   8.967   2.828  10.607
 6117W        W10317   4.459  10.875   3.459
 6118W        W10318  10.328  10.640  11.315
 6119W        W10319   3.740   8.104   0.298
 6120W        W10320   2.829   8.205  11.496
 6121W        W10321   4.720   3.303  10.552
 6122W        W10322   1.164   8.971   9.744
 6123W        W10323  10.123   1.457  11.339
 6124W        W10324   6.246   1.377   9.477
 6125W        W10325   0.490   7.845  10.402
 6126W        W10326   3.110   8.933   0.474
 6127W        W10327   3.347   0.430   0.520
 6128W        W10328   5.188   8.162   9.422
 6129W        W10329  11.209   2.798   9.345
 6130W        W10330   9.347  10.523   2.326
 6131W        W10331   9.020  10.490   3.340
 6132W        W10332   0.339   8.851  11.379
 6133W        W10333   2.174   2.398   9.526
 6134W        W10334   8.036   0.371   1.488
 6135W        W10335   9.700  11.448   9.425
 6136W        W10336   1.694   4.813  11.544
 6137W        W10337   1.957  10.534   1.786
 6138W        W10338   8.141   8.901   0.367
 6139W        W10339   6.308   6.690   1.838
 6140W        W10340   4.200   4.629  11.763
 6141W        W10341   7.105   8.945   0.569
 6142W        W10342   4.173   2.727   3.626
 6143W        W10343   2.983   3.718   3.668
 6144W        W10344   3.723   8.845   9.233
 6145W        W10345   6.438   0.465   0.207
 6146W        W10346   6.189  11.270   2.348
 6147W        W10347   5.149   6.572   0.684
 6148W        W10348   5.217  11.109   2.768
 6149W        W10349   2.733   0.200  10.438
 6150W        W10350   7.712  10.757   2.167
 6151W        W10351   8.150  11.042   1.412
 6152W        W10352   5.448   8.000  10.770
 6153W        W10353  10.297   1.298   0.688
 6154W        W10354   5.499   8.555   3.799
 6155W        W10355   9.523   2.522   0.602
 6156W        W10356   5.160   4.463   2.868
 6157W        W10357   0.942   3.145   3.578
 6158W        W10358   2.378  11.148   0.975
 6159W        W10359   3.643   6.909  10.660
 6160W        W10360   6.603   5.622  10.109
 6161W        W10361   6.439   2.392  11.458
 6162W        W10362   1.979   8.461  10.893
 6163W        W10363   1.170   9.460   9.518
 6164W        W10364   6.310   7.183   0.432
 6165W        W10365   8.833   1.677   0.181
 6166W        W10366   9.777   2.834   2.345
 6167W        W10367   4.029   4.627   1.388
 6168W        W10368   5.446  10.114   2.886
 6169W        W10369   6.312  10.299   8.980
 6170W        W10370   7.026  10.970   9.048
 6171W        W10371   5.725   2.813   2.890
 6172W        W10372   1.163   1.671  11.757
 6173W        W10373  11.496   9.098  11.950
 6174W        W10374   7.877   5.467  11.883
 6175W        W10375   5.532   7.063  11.196
 6176W        W10376   4.296   2.047   8.796
 6177W        W10377   6.171   6.483   1.407
 6178W        W10378   3.251  10.043   2.785
 6179W        W10379   0.723   1.152   0.198
 6180W        W10380   0.276  10.051   9.014
 6181W        W10381   7.152   9.984   9.603
 6182W        W10382  10.925   6.231   2.506
 6183W        W10383   6.678  10.341   2.208
 6184W        W10384  10.852   3.429   9.624
 6185W        W10385   7.942   1.317  10.252
 6186W        W10386   9.820   4.246   9.809
 6187W        W10387   7.328   0.716   2.294
 6188W        W10388   0.935   8.074   2.562
 6189W        W10389  10.380   9.893   9.969
 6190W        W10390   3.731   6.478   0.357
 6191W        W10391   5.382   5.499   2.739
 6192W        W10392   1.855   4.098   1.343
 6193W        W10393   9.092  10.740   8.949
 6194W        W10394  10.126   1.732   9.111
 6195W        W10395  10.272   0.744   3.307
 6196W        W10396   1.335   6.600  11.346
 6197W        W10397   6.514   1.760   9.268
 6198W        W10398   9.313   0.460   8.744
 6199W        W10399   6.620  10.540   9.674
 6200W        W10400   1.794   8.550  10.422
 6201W        W10401   6.565   4.201   0.240
 6202W        W10402   0.617   4.510   3.361
 6203W        W10403   9.315   4.145  11.988
 6204W        W10404   6.686   9.446   1.145
 6205W        W10405   9.943  10.577   1.747
 6206W        W10406   2.102   7.587   0.245
 6207W        W10407   8.877   1.020   2.894
 6208W        W10408   8.538  10.381   3.170
 6209W        W10409   6.972  11.445  11.871
 6210W        W10410   3.401   9.907   1.807
 6211W        W10411   6.201   8.588   0.845
 6212W        W10412  11.210   7.916  10.365
 6213W        W10413  11.226   0.859   3.053
 6214W        W10414   7.736   0.760  10.029
 6215W        W10415   8.135   5.426   0.740
 6216W        W10416   9.066   5.691   1.118
 6217W        W10417   6.149   7.540   3.578
 6218W        W10418   8.832   1.464   0.877
 6219W        W10419   5.974  11.351  10.384
 6220W        W10420   5.966   8.080   8.636
 6221W        W10421   8.463   7.407   2.334
 6222W        W10422   4.581   0.064  11.998
 6223W        W10423  10.009   3.312   2.266
 6224W        W10424   8.717   8.405   9.578
 6225W        W10425  11.359   3.212   2.146
 6226W        W10426   0.694   1.654   0.019
 6227W        W10427   4.888   2.294   0.617
 6228W        W10428   9.412   8.374   3.630
 6229W        W10429  10.282   2.676  11.451
 6230W        W10430  10.590   8.050   9.130
 6231W        W10431   8.542   8.819   3.276
 6232W        W10432   0.931  10.298  11.844
 6233W        W10433   8.213   5.972  10.476
 6234W        W10434   2.338   9.780   3.670
 6235W        W10435   3.622   7.251   0.072
 6236W        W10436   4.745   9.924  11.448
 6237W        W10437   0.368  10.300  10.491
 6238W        W10438   9.287   0.567  10.945
 6239W        W10439   5.040   1.842   2.805
 6240W        W10440   2.003  10.225   0.751
 6241W        W10441   1.012   6.062  10.787
 6242W        W10442   4.900   7.537   3.058
 6243W        W10443   5.342   0.456   3.302
 6244W        W10444   7.933   0.490  10.875
 6245W        W10445   4.552   3.212   1.690
 6246W        W10446   2.260   6.737   1.797
 6247W        W10447   9.332   1.442   0.015
 6248W        W10448   3.785   0.338   1.915
 6249W        W10449   7.486   3.556  10.011
 6250W        W10450   4.513   7.523  11.824
 6251W        W10451   4.595   3.890  10.041
 6252W        W10452   5.746   5.686   9.546
 6253W        W10453   8.875  10.277  11.540
 6254W        W10454   5.473   1.368  11.512
 6255W        W10455   5.194   0.474   9.743
 6256W        W10456  11.473   6.890   2.658
 6257W        W10457   1.917   8.111  11.306
 6258W        W10458   5.976   5.333   0.741
 6259W        W10459  10.824   7.285  10.500
 6260W        W10460   5.694   8.048   1.561
 6261W        W10461   0.911  10.996   2.827
 6262W        W10462   0.803   6.386  11.997
 6263W        W10463   1.357  11.220   2.712
 6264W        W10464   7.274   6.906   1.436
 6265W        W10465   4.763   9.320  11.205
 6266W        W10466   8.924   9.018   2.049
 6267W        W10467   8.579   4.556   0.447
 6268W        W10468   8.897   4.239   1.674
 6269W        W10469   7.854   3.524   3.641
 6270W        W10470   5.633   8.013   0.988
 6271W        W10471   0.864   9.685  11.032
 6272W        W10472   9.906  11.469   2.162
 6273W        W10473   1.846   0.357   3.134
 6274W        W10474   9.064   6.230  11.153
 6275W        W10475   9.863  10.451  10.597
 6276W        W10476   7.833   5.617   2.579
 6277W        W10477  11.337   6.509   2.321
 6278W        W10478   0.143   2.195  10.302
 6279W        W10479   3.539   4.261  11.496
 6280W        W10480  10.501   0.391  10.467
 6281W        W10481   9.671   0.725   1.676
 6282W        W10482   3.978   3.650   1.199
 6283W        W10483   2.613   6.190   0.755
 6284W        W10484  11.082   4.703  11.817
 6285W        W10485   1.638   4.816   0.522
 6286W        W10486   4.162  10.553  11.014
 6287W        W10487   1.625   1.833   8.519
 6288W        W10488   3.674   8.355   9.426
 6289W        W10489   1.443  10.740   2.502
 6290W        W10490   4.291  10.340   9.599
 6291W        W10491   7.294   3.686   3.151
 6292W        W10492   1.197   4.555   0.635
 6293W        W10493   7.589  10.346  11.435
 6294W        W10494   9.001   9.821   9.122
 6295W        W10495   3.310   2.109   0.867
 6296W        W10496   4.231   2.005   2.201
 6297W        W10497   3.376   1.801  10.796
 6298W        W10498   1.350   8.054   2.271
 6299W        W10499   3.096   4.269   9.130
 6300W        W10500   7.142   3.048   1.919
 6301W        W10501   2.690   9.058   2.804
 6302W        W10502   7.668   3.650   9.512
 6303W        W10503  10.949  10.958   3.130
 6304W        W10504   7.720   0.395  10.403
 6305W        W10505   2.337   4.356   2.611
 6306W        W10506   8.401   2.870   9.511
 6307W        W10507   3.404   4.451   8.501
 6308W        W10508   9.178   6.744   3.999
 6309W        W10509   6.702   2.834  10.065
 6310W        W10510   7.845   0.996   8.893
 6311W        W10511   3.866   6.489  10.450
 6312W        W10512   5.692   1.866   1.114
 6313W        W10513   9.578   1.836   9.253
 6314W        W10514   8.945  11.219   9.101
 6315W        W10515   1.485   0.736   3.009
 6316W        W10516   2.664   8.695  11.550
 6317W        W10517   6.860  10.118   3.173
 6318W        W10518   6.927   1.942   9.000
 6319W        W10519   3.645   9.377  10.335
 6320W        W10520   9.494   0.543   3.406
 6321W        W10521   5.044   4.617   8.192
 6322W        W10522   9.995   2.339   0.372
 6323W        W10523   2.147   4.605   1.883
 6324W        W10524   6.761   8.369   8.469
 6325W        W10525  10.661   6.088  10.274
 6326W        W10526   7.486   1.255  10.025
 6327W        W10527   4.113   1.896   9.617
 6328W        W10528   5.954   9.126   9.010
 6329W        W10529   1.391   3.584   9.016
 6330W        W10530   9.581   6.140  11.052
 6331W        W10531   1.083   4.523   2.566
 6332W        W10532   1.741   3.925   8.891
 6333W        W10533   1.925   2.101   1.389
 6334W        W10534   3.744   3.138  10.800
 6335W        W10535   5.644   1.000   0.850
 6336W        W10536   9.438   0.837  11.351
 6337W        W10537   5.485   7.046   1.365
 6338W        W10538   3.644   9.530  11.872
 6339W        W10539  10.429   7.115   3.244
 6340W        W10540   0.159   2.392   3.273
 6341W        W10541  10.363   4.053   3.123
 6342W        W10542   9.414   3.169   3.254
 6343W        W10543   0.900   4.060   2.675
 6344W        W10544   8.191   3.853   2.932
 6345W        W10545   7.911   7.992   0.127
 6346W        W10546   0.759   4.684   0.918
 6347W        W10547   8.162   2.389   9.340
 6348W        W10548   5.626   4.745   2.010
 6349W        W10549   3.918   8.933   0.958
 6350W        W10550   8.888   6.030   1.857
 6351W        W10551   6.702   0.901   9.809
 6352W        W10552   8.807   3.452  11.989
 6353W        W10553   6.552   2.596   0.916
 6354W        W10554   6.928   6.012   1.822
 6355W        W10555   9.546   8.631   9.434
 6356W        W10556   1.326  10.799   0.418
 6357W        W10557   3.719   8.388  10.792
 6358W        W10558   0.822   1.730   9.978
 6359W        W10559   1.812   9.347   0.324
 6360W        W10560   2.351   5.226   9.999
 6361W        W10561   9.310   1.706   0.858
 6362W        W10562   9.849   0.179   2.760
 6363W        W10563   9.450  11.018   9.248
 6364W        W10564   2.009   2.704   3.169
 6365W        W10565   9.305   1.084   1.712
 6366W        W10566  10.406   5.950   9.034
 6367W        W10567   3.084   1.116   9.701
 6368W        W10568   8.459   7.515   0.419
 6369W        W10569   5.494  10.005   3.373
 6370W        W10570   9.105   1.914   3.177
 6371W        W10571   9.439   3.312   9.854
 6372W        W10572   9.325   5.738  11.273
 6373W        W10573   0.518   7.002   3.482
 6374W        W10574  10.254   3.217   3.334
 6375W        W10575   3.642   3.128   9.894
 6376W        W10576   1.379   8.132   9.280
 6377W        W10577   0.426   9.796   2.896
 6378W        W10578   1.419   0.389   3.392
 6379W        W10579   6.595   7.031   2.718
 6380W        W10580   7.354   3.572  11.878
 6381W        W10581   7.644  11.049   0.319
 6382W        W10582   4.828   8.923   2.000
 6383W        W10583   4.216   4.360   3.663
 6384W        W10584   5.465   8.469   0.248
 6385W        W10585   1.760   2.218   9.805
 6386W        W10586   8.614   5.902   2.287
 6387W        W10587   1.199   9.922  10.247
 6388W        W10588   3.038   7.416   1.162
 6389W        W10589   9.820   2.851   1.390
 6390W        W10590   6.094   0.399   1.192
 6391W        W10591   4.344  11.320   1.350
 6392W        W10592   5.963   6.278   1.850
 6393W        W10593   0.811  10.499  11.394
 6394W        W10594   7.112   2.742   1.117
 6395W        W10595   5.337   4.163   8.307
 6396W        W10596   1.395  10.964   9.025
 6397W        W10597   4.611   9.197   8.903
 6398W        W10598   1.161   9.992   0.230
 6399W        W10599   4.929   3.360   0.916
 6400W        W10600  11.175   1.611   3.507
 6401W        W10601   4.903   2.833   9.515
 6402W        W10602  10.139   7.958   9.331
 6403W        W10603   5.210  10.102  11.351
 6404W        W10604   2.751   3.861  10.497
 6405W        W10605   7.183   3.012   2.434
 6406W        W10606   2.846   6.032   0.293
 6407W        W10607   9.452   5.680   8.902
 6408W        W10608   8.462   4.097   8.764
 6409W        W10609  11.010   2.296   0.492
 6410W        W10610   5.239   2.410   9.466
 6411W        W10611   2.157   9.023  10.021
 6412W        W10612   4.032  10.417   2.417
 6413W        W10613   0.436   6.948   0.221
 6414W        W10614   9.580   5.035   1.218
 6415W        W10615   3.323  10.402   1.641
 6416W        W10616   3.385   6.657   0.688
 6417W        W10617   3.287   1.593   0.662
 6418W        W10618   4.618   8.424  11.252
 6419W        W10619   7.951   2.831   9.236
 6420W        W10620  10.389   1.803   3.188
 6421W        W10621   3.675   1.272   0.820
 6422W        W10622   1.662   9.091   9.856
 6423W        W10623   4.592   5.242  10.184
 6424W        W10624   5.144   0.432  11.270
 6425W        W10625   8.149  10.755   1.879
 6426W        W10626   2.393   9.338  10.758
 6427W        W10627  10.434   3.982  11.411
 6428W        W10628   6.145   2.841   9.398
 6429W        W10629   1.344   7.592   0.662
 6430W        W10630   4.028   2.899   8.627
 6431W        W10631  10.114   3.824   0.462
 6432W        W10632  11.329   1.389  10.293
 6433W        W10633   8.015   6.996   0.201
 6434W        W10634   1.124   9.477  11.442
 6435W        W10635  11.401   9.847   2.471
 6436W        W10636   9.589  11.117  10.725
 6437W        W10637   4.184   8.141  11.428
 6438W        W10638   9.408   6.889   1.163
 6439W        W10639   4.732   5.744   1.809
 6440W        W10640   3.143  10.965  10.353
 6441W        W10641   7.174   2.916   0.627
 6442W        W10642   6.678   0.025   9.637
 6443W        W10643   7.141  10.481   0.944
 6444W        W10644   9.604   1.252   2.168
 6445W        W10645   3.829  11.252   0.439
 6446W        W10646   6.741   8.009   4.060
 6447W        W10647   1.266   9.374   1.734
 6448W        W10648   4.174   6.652   3.141
 6449W        W10649   9.529   8.728  11.332
 6450W        W10650   1.197   5.923   0.839
 6451W        W10651   0.045   0.521   2.158
 6452W        W10652   2.900   7.969   1.819
 6453W        W10653   4.747   4.441   8.608
 6454W        W10654  10.449   3.747  10.345
 6455W        W10655   6.071   4.575   8.893
 6456W        W10656   3.417   0.019   8.666
 6457W        W10657   0.930   5.091  10.809
 6458W        W10658   0.227  10.561  10.081
 6459W        W10659   9.148  10.837  10.728
 6460W        W10660   7.593   6.073   1.040
 6461W        W10661   9.536   9.117   3.385
 6462W        W10662   7.697   2.142  11.316
 6463W        W10663   0.464   9.114  11.807
 6464W        W10664  10.355   5.457  10.135
 6465W        W10665   8.891   3.297   2.144
 6466W        W10666   0.381   8.956   2.706
 6467W        W10667   9.172   3.297  10.715
 6468W        W10668   4.811   8.512   9.373
 6469W        W10669  11.228   4.760   2.877
 6470W        W10670   7.213  11.245   2.354
 6471W        W10671   6.106   4.043   0.398
 6472W        W10672   1.870   3.734   9.797
 6473W        W10673  11.226   8.638   2.679
 6474W        W10674   1.537   8.273  11.640
 6475W        W10675   8.005  11.469   8.890
 6476W        W10676   0.696   5.292   8.782
 6477W        W10677   3.792   9.290  10.853
 6478W        W10678   2.773   6.976   9.258
 6479W        W10679   8.062   5.963  11.910
 6480W        W10680   3.899   2.365  10.294
 6481W        W10681   8.412   1.298   9.992
 6482W        W10682   0.472  10.913   2.135
 6483W        W10683   0.880   2.356  11.191
 6484W        W10684   9.619   6.118   3.368
 6485W        W10685   2.703   5.166   3.078
 6486W        W10686   1.752   8.953   0.806
 6487W        W10687   7.004  10.711  11.260
 6488W        W10688  11.067   7.211   2.620
 6489W        W10689   9.847   5.460  10.388
 6490W        W10690   1.284   3.243   3.207
 6491W        W10691   7.544   2.833   0.258
 6492W        W10692   4.391   0.508  11.089
 6493W        W10693   0.862   9.994   2.669
 6494W        W10694  10.338   0.890   0.992
 6495W        W10695   5.584   6.921   9.536
 6496W        W10696   0.199   6.645   3.664
 6497W        W10697   6.427   8.129   2.433
 6498W        W10698   5.623   3.652   2.806
 6499W        W10699   5.275   3.125  10.216
 6500W        W10700   1.345   5.830   1.316
 6501W        W10701   8.414   7.938   9.508
 6502W        W10702   5.722   0.878   8.616
 6503W        W10703   7.449   0.019  10.704
 6504W        W10704   9.019   2.024  11.867
 6505W        W10705   8.843   9.917   1.549
 6506W        W10706   4.181   8.235  10.932
 6507W        W10707  10.038   8.629  10.216
 6508W        W10708   6.413   0.453   9.723
 6509W        W10709   5.162  11.119   2.248
 6510W        W10710   2.861   6.980   0.346
 6511W        W10711   1.823   1.763   9.522
 6512W        W10712   7.882   0.179   9.341
 6513W        W10713   9.312   1.717  10.888
 6514W        W10714   4.013  11.311   1.758
 6515W        W10715   0.480   0.584   0.961
 6516W        W10716  11.393   9.514   0.268
 6517W        W10717   2.198  10.985  11.881
 6518W        W10718  10.442   0.828  10.167
 6519W        W10719   8.788   9.488   8.782
 6520W        W10720   0.037   8.114   9.521
 6521W        W10721   9.583   1.649   0.428
 6522W        W10722   5.238   4.277   0.386
 6523W        W10723   0.649   4.999   0.045
 6524W        W10724   3.478   7.798  10.344
 6525W        W10725  10.093   6.981  11.747
 6526W        W10726   4.078  11.415  11.995
 6527W        W10727   4.186   0.354   1.027
 6528W        W10728   1.758   8.111  10.137
 6529W        W10729   7.531   8.888   3.504
 6530W        W10730  10.463   9.860   2.435
 6531W        W10731   6.113   7.168   2.207
 6532W        W10732  10.342   4.694   0.946
 6533W        W10733  10.485   5.141   1.199
 6534W        W10734   7.850   9.930   3.131
 6535W        W10735  11.476   7.124   1.732
 6536W        W10736   6.149  10.335   9.869
 6537W        W10737   7.627   0.243   3.201
 6538W        W10738   2.882   6.634   0.752
 6539W        W10739   2.755  10.400  11.207
 6540W        W10740   4.202   3.585   3.302
 6541W        W10741  10.467   8.456   1.678
 6542W        W10742   0.201   0.863   9.218
 6543W        W10743   5.565   8.813  11.454
 6544W        W10744   5.978   8.302   9.938
 6545W        W10745   7.360   2.103   0.422
 6546W        W10746   3.139   1.811   3.001
 6547W        W10747   1.415   5.304   1.797
 6548W        W10748   5.959   8.599   9.080
 6549W        W10749   0.320   1.820   0.533
 6550W        W10750   0.323   4.693   2.060
 6551W        W10751   1.715   9.908   3.385
 6552W        W10752   1.311   6.639   2.159
 6553W        W10753   0.561   4.393   2.445
 6554W        W10754   5.765   0.792   1.315
 6555W        W10755   1.577   6.160   2.948
 6556W        W10756   0.442   8.093   2.634
 6557W        W10757   9.016   7.222   1.319
 6558W        W10758   1.728  10.896   3.347
 6559W        W10759   9.801   5.626   8.514
 6560W        W10760   0.628   7.694   2.289
 6561W        W10761   6.236   7.917   3.207
 6562W        W10762   4.399   5.384   0.258
 6563W        W10763   4.914   5.210   0.011
 6564W        W10764   6.583   0.365   9.229
 6565W        W10765   0.878   6.835  10.846
 6566W        W10766   6.510   9.094   1.920
 6567W        W10767   2.707   2.036   9.973
 6568W        W10768   5.020   8.411   9.849
 6569W        W10769   9.290   3.295   0.019
 6570W        W10770   8.389   7.912   3.625
 6571W        W10771   1.243   6.804   1.102
 6572W        W10772   8.917   2.132  11.380
 6573W        W10773   8.565   4.045   1.234
 6574W        W10774  10.135   5.917  10.324
 6575W        W10775   1.741   1.009   2.623
 6576W        W10776   4.208   4.343  10.920
 6577W        W10777   6.000  11.447   0.908
 6578W        W10778   1.047   6.228  11.560
 6579W        W10779   8.948   6.633  11.501
 6580W        W10780   5.476   6.196   0.823
 6581W        W10781   0.839   0.497  11.327
 6582W        W10782   2.594   0.213   1.497
 6583W        W10783   6.880   2.529   9.040
 6584W        W10784   7.819   9.358   2.024
 6585W        W10785   9.515   7.905   2.697
 6586W        W10786   5.595   5.672   1.487
 6587W        W10787   4.181   8.305   0.456
 6588W        W10788   7.705   6.919   1.007
 6589W        W10789   1.261   1.806   3.628
 6590W        W10790   6.156   6.214  10.583
 6591W        W10791   9.463   1.921   1.352
 6592W        W10792   2.306   3.132   0.878
 6593W        W10793   2.223   9.121   1.529
 6594W        W10794   7.113   3.807   0.292
 6595W        W10795   4.037   4.269   9.135
 6596W        W10796   2.812   0.673  11.864
 6597W        W10797   4.134  10.407   2.928
 6598W        W10798   9.530   4.885  11.001
 6599W        W10799   8.986   9.467  10.936
 6600W        W10800  11.441   2.146   8.598
 6601W        W10801   8.026  11.481  10.858
 6602W        W10802   8.634   1.803  10.383
 6603W        W10803   4.772   8.498   1.739
 6604W        W10804   8.626   0.212   9.798
 6605W        W10805   4.102   5.115   9.028
 6606W        W10806   3.204   7.214   9.430
 6607W        W10807   3.710   7.269  11.571
 6608W        W10808   5.546   7.117   0.829
 6609W        W10809   4.929   1.408   1.241
 6610W        W10810   9.515   7.053   3.755
 6611W        W10811   0.996   0.121   3.530
 6612W        W10812   3.789   9.573   9.427
 6613W        W10813  11.320   0.195   1.188
 6614W        W10814   0.922   8.776  10.825
 6615W        W10815   1.462  10.388   9.488
 6616W        W10816   6.229  10.393   2.511
 6617W        W10817   9.453  11.049   0.033
 6618W        W10818   0.381   2.160   9.290
 6619W        W10819   7.374   3.356   0.397
 6620W        W10820   2.429   4.589   8.802
 6621W        W10821   9.925   7.249   0.976
 6622W        W10822   0.481   3.834   9.059
 6623W        W10823   9.543   3.817   9.834
 6624W        W10824   8.607   1.297   0.440
 6625W        W10825   0.293   9.041   9.837
 6626W        W10826   8.001  10.321  11.791
 6627W        W10827   6.259   7.890  10.001
 6628W        W10828   2.793   0.942   0.779
 6629W        W10829   2.906   4.439   1.835
 6630W        W10830   6.086  10.055  10.725
 6631W        W10831  10.451   1.689   1.645
 6632W        W10832   0.441  11.374   2.782
 6633W        W10833   2.136   6.448   2.202
 6634W        W10834   5.399   4.074   3.106
 6635W        W10835   3.117   0.809   0.269
 6636W        W10836   7.621  10.718   3.507
 6637W        W10837   4.552   7.112   0.139
 6638W        W10838  10.832   6.611   1.695
 6639W        W10839   2.460  10.737   8.716
 6640W        W10840   7.021   6.914   1.935
 6641W        W10841   0.299   1.932   2.363
 6642W        W10842   2.666   7.053   0.997
 6643W        W10843   1.568   6.208   8.711
 6644W        W10844   6.064   9.270  10.121
 6645W        W10845   6.111   0.823   0.921
 6646W        W10846   6.165  10.229   0.684
 6647W        W10847   3.653   7.888  10.913
 6648W        W10848   7.436   4.652  11.912
 6649W        W10849   9.782   0.544  10.936
 6650W        W10850   7.137   7.900   0.570
 6651W        W10851   1.434   3.058   8.876
 6652W        W10852  10.808   9.040   1.836
 6653W        W10853   8.585   8.886  10.950
 6654W        W10854   9.058   8.882  11.760
 6655W        W10855   1.770   6.760   2.348
 6656W        W10856   7.463  10.879  11.445
 6657W        W10857   1.792   3.858   1.808
 6658W        W10858   1.494   5.640   8.903
 6659W        W10859   5.447   8.179   3.446
 6660W        W10860   9.426   9.597   0.524
 6661W        W10861   0.838   1.954   0.602
 6662W        W10862   4.873   3.938  11.327
 6663W        W10863  10.159   4.320   2.206
 6664W        W10864   8.529   0.935  11.689
 6665W        W10865   2.185   4.614  10.488
 6666W        W10866   1.090   9.018  10.273
 6667W        W10867   7.969   2.717   0.907
 6668W        W10868   2.233   0.002  10.425
 6669W        W10869   7.058   1.443   9.119
 6670W        W10870   1.033   8.487   1.293
 6671W        W10871   7.437   0.705  10.934
 6672W        W10872   6.496   8.623   2.613
 6673W        W10873  10.243   4.124  10.082
 6674W        W10874   1.490   1.467   8.857
 6675W        W10875   2.256  10.674  11.415
 6676W        W10876   0.976   0.018  11.457
 6677W        W10877   1.259   8.136  10.034
 6678W        W10878   2.109   4.010   3.598
 6679W        W10879   1.652   6.581   1.304
 6680W        W10880   1.404   6.708   8.806
 6681W        W10881   9.266   2.443   1.802
 6682W        W10882   8.372   4.093   9.787
 6683W        W10883   5.031   5.276   9.910
 6684W        W10884   0.259   4.091   0.354
 6685W        W10885   4.154   1.871   0.870
 6686W        W10886   7.036   4.267   9.102
 6687W        W10887   2.372   6.652   0.831
 6688W        W10888   7.016   4.085  10.490
 6689W        W10889   8.895   2.643  11.473
 6690W        W10890   8.983   2.683  10.110
 6691W        W10891  10.499   3.554   0.253
 6692W        W10892   4.033   4.024  11.855
 6693W        W10893   9.860   5.567   2.161
 6694W        W10894   7.933   7.163  11.296
 6695W        W10895   8.241   8.272   3.986
 6696W        W10896   8.705   5.525   9.382
 6697W        W10897   7.567   9.184   0.576
 6698W        W10898   8.019   6.513   3.228
 6699W        W10899   5.451   8.135   8.627
 6700W        W10900   0.082   4.224   1.125
 6701W        W10901   1.201   2.187   0.937
 6702W        W10902   9.966   9.225   1.313
 6703W        W10903   1.399   8.982   2.428
 6704W        W10904   3.708   1.891   0.644
 6705W        W10905   5.100   8.602  11.358
 6706W        W10906  10.871  10.402   0.298
 6707W        W10907   6.163   7.096   9.081
 6708W        W10908   0.926   6.130   0.437
 6709W        W10909   6.206   8.492   3.157
 6710W        W10910  11.269   0.805   9.508
 6711W        W10911   0.930   0.821   1.131
 6712W        W10912   7.514   8.095   1.857
 6713W        W10913   7.631  10.031   9.000
 6714W        W10914   5.231   8.813   4.177
 6715W        W10915  11.143   0.483   3.391
 6716W        W10916   6.054   3.550   0.496
 6717W        W10917   5.263  10.454   1.580
 6718W        W10918   8.504  11.295   8.786
 6719W        W10919   6.702   3.235  11.147
 6720W        W10920  10.885   3.768  11.563
 6721W        W10921   9.808  10.126  10.223
 6722W        W10922   0.415   5.694   9.069
 6723W        W10923   8.592   9.289   1.311
 6724W        W10924   7.577   2.581   9.549
 6725W        W10925   0.741   4.129   1.670
 6726W        W10926   8.692   3.652  11.514
 6727W        W10927   3.971   7.712   2.648
 6728W        W10928   5.765  11.362  11.297
 6729W        W10929   7.092   7.372   0.357
 6730W        W10930   7.421   1.815   9.056
 6731W        W10931   8.824   0.201   9.298
 6732W        W10932   7.432   9.262   8.952
 6733W        W10933   4.270  10.851   2.705
 6734W        W10934  11.166   2.412   0.972
 6735W        W10935   2.987   2.252   3.312
 6736W        W10936  10.966   9.290   1.418
 6737W        W10937   1.410   3.773  11.993
 6738W        W10938   1.577   1.245   8.381
 6739W        W10939   2.793   0.217   9.423
 6740W        W10940   8.432   2.722   9.027
 6741W        W10941   7.036  10.772   9.914
 6742W        W10942   2.401   2.764   2.156
 6743W        W10943   9.113   1.950   1.752
 6744W        W10944   1.596   5.705   9.725
 6745W        W10945   2.031   8.083  10.572
 6746W        W10946   1.056   6.118  10.189
 6747W        W10947  11.178   4.097   3.472
 6748W        W10948   7.496   5.691  10.294
 6749W        W10949   7.876   6.104   2.921
 6750W        W10950   7.663   4.693   8.630
 6751W        W10951   9.437   9.062   1.341
 6752W        W10952   4.059   4.549   3.214
 6753W        W10953   3.172   6.690   9.472
 6754W        W10954   7.821   1.859   0.384
 6755W        W10955   9.305   3.723   0.692
 6756W        W10956  10.551   1.678  10.503
 6757W        W10957   4.145   4.774   1.886
 6758W        W10958   8.107  11.069   2.293
 6759W        W10959   4.640   2.132   3.001
 6760W        W10960   1.791  10.674   0.627
 6761W        W10961   2.006   2.772   0.020
 6762W        W10962  10.644   9.528   1.746
 6763W        W10963  10.845   5.491   9.095
 6764W        W10964   9.847   5.623   2.678
 6765W        W10965   2.829   4.649   8.044
 6766W        W10966  10.091   5.247   9.690
 6767W        W10967   4.343   7.314  10.089
 6768W        W10968   4.231   3.823   1.616
 6769W        W10969   7.949   2.702   1.926
 6770W        W10970   6.162   4.539   2.197
 6771W        W10971   2.887   4.873  10.387
 6772W        W10972   0.680   6.145   9.820
 6773W        W10973   5.208   8.185   0.677
 6774W        W10974   5.195   9.621   9.500
 6775W        W10975   3.790   4.134   9.660
 6776W        W10976  11.043   9.792  10.890
 6777W        W10977   7.102   6.764   2.873
 6778W        W10978   3.354   7.424   2.128
 6779W        W10979   3.748   5.733   0.972
 6780W        W10980   8.729   5.945   0.298
 6781W        W10981   0.280  10.314   0.501
 6782W        W10982   0.119   6.174  11.633
 6783W        W10983   1.667   7.521   9.509
 6784W        W10984   5.107   8.428  10.878
 6785W        W10985   7.519   5.726   0.676
 6786W        W10986  10.818   8.134  10.640
 6787W        W10987   5.643   2.902   0.944
 6788W        W10988  10.660   4.342   2.261
 6789W        W10989  11.054   1.383  11.154
 6790W        W10990   3.714   7.419  10.598
 6791W        W10991   1.322   1.953  10.772
 6792W        W10992   6.756  11.188  11.265
 6793W        W10993   4.126   1.221   9.939
 6794W        W10994   5.810   2.526   0.475
 6795W        W10995   0.042   0.331   2.710
 6796W        W10996   4.324  10.487   1.434
 6797W        W10997   6.979   7.575  10.325
 6798W        W10998   5.777   5.748   2.985
 6799W        W10999   6.799   1.646  10.360
 6800W        W11000   8.812  11.008  10.372
 6801W        W11001   8.446   9.041   0.890
 6802W        W11002  10.950   3.167   2.499
 6803W        W11003   1.835   3.151  11.452
 6804W        W11004   6.232  11.495   9.366
 6805W        W11005   0.876   5.447   0.244
 6806W        W11006   9.961   7.949  11.443
 6807W        W11007   9.625   5.609   3.153
 6808W        W11008   5.569   7.662  11.915
 6809W        W11009   5.207   9.655   3.008
 6810W        W11010   5.246   0.644   8.707
 6811W        W11011   4.095   8.969   9.601
 6812W        W11012   5.192   9.937   0.301
 6813W        W11013  10.791   6.158   1.489
 6814W        W11014   9.634   3.940   0.365
 6815W        W11015   9.898   5.792   1.716
 6816W        W11016   9.115   4.695   1.858
 6817W        W11017   5.370   3.281   3.540
 6818W        W11018   4.115   5.483   1.269
 6819W        W11019   1.773   2.704   9.053
 6820W        W11020   7.848   1.300   0.790
 6821W        W11021  11.152   0.262   2.368
 6822W        W11022   0.370  10.460   1.876
 6823W        W11023   2.115   8.943  10.531
 6824W        W11024   9.955   9.144  10.109
 6825W        W11025   0.753   8.224   3.084
 6826W        W11026   2.376   4.792   2.339
 6827W        W11027   6.958   5.351  11.032
 6828W        W11028   5.789   8.133   3.075
 6829W        W11029   1.844   4.316   2.736
 6830W        W11030   9.835   8.982  10.578
 6831W        W11031  10.900   2.317   1.412
 6832W        W11032   8.832   0.652  11.201
 6833W        W11033   2.233   6.211   8.901
 6834W        W11034   0.675   0.945   0.659
 6835W        W11035  10.040   3.241  10.300
 6836W        W11036   8.016   2.698   1.418
 6837W        W11037   0.139   9.322  11.328
 6838W        W11038   5.224   9.107   8.132
 6839W        W11039   6.203   2.827  10.800
 6840W        W11040   8.384   2.239  10.254
 6841W        W11041   8.444  11.485  11.931
 6842W        W11042   6.670  10.262   1.697
 6843W        W11043   6.488   7.617   9.563
 6844W        W11044   8.478   2.877   1.015
 6845W        W11045   7.456   1.430   2.722
 6846W        W11046   9.651   5.797  11.767
 6847W        W11047   3.170   3.830   1.573
 6848W        W11048   4.529   9.806  11.912
 6849W        W11049   2.283   4.403   1.314
 6850W        W11050   8.870   7.148  10.742
 6851W        W11051   5.375   1.439   9.706
 6852W        W11052   4.261   0.710   9.910
 6853W        W11053   6.135   0.837   2.941
 6854W        W11054   1.851   8.557   2.759
 6855W        W11055   7.052   1.326   3.075
 6856W        W11056   8.450   2.119   2.213
 6857W        W11057   7.262   6.693  10.836
 6858W        W11058  11.334  10.322   8.978
 6859W        W11059   4.387   2.326   0.715
 6860W        W11060   8.853   6.017   9.326
 6861W        W11061   1.434   3.633   9.518
 6862W        W11062  11.265   5.737   8.545
 6863W        W11063   7.453  10.008   0.905
 6864W        W11064  11.493   1.722   9.590
 6865W        W11065   1.656   5.605   2.152
 6866W        W11066   0.722   9.198   3.463
 6867W        W11067  11.344   1.259   9.299
 6868W        W11068  10.868   7.585  11.286
 6869W        W11069   0.703   5.722   9.501
 6870W        W11070   4.464   6.110  11.710
 6871W        W11071   9.320   1.189   0.880
 6872W        W11072   1.480   8.392  10.995
 6873W        W11073   1.303   1.195   3.151
 6874W        W11074   9.963  11.013   8.519
 6875W        W11075   0.782   7.498   8.980
 6876W        W11076   8.994   3.894   2.964
 6877W        W11077  10.462   3.549  11.746
 6878W        W11078   7.150   4.645   0.445
 6879W        W11079  10.857   6.646   2.187
 6880W        W11080   1.300  11.048   3.563
 6881W        W11081   8.402   4.919   1.356
 6882W        W11082   8.712   3.809   9.508
 6883W        W11083   1.853   1.779   9.008
 6884W        W11084   8.080  10.956   8.853
 6885W        W11085   7.879   9.582   9.189
 6886W        W11086   5.922   6.060   0.595
 6887W        W11087   9.372  10.168  10.485
 6888W        W11088   0.822   7.362   3.280
 6889W        W11089   2.818   8.866   9.094
 6890W        W11090   9.545   8.205  11.267
 6891W        W11091   1.198   7.559   1.533
 6892W        W11092   1.265   3.339  11.129
 6893W        W11093   6.151   8.709   1.347
 6894W        W11094   1.451  11.370   3.200
 6895W        W11095   8.696   0.490  10.302
 6896W        W11096  10.502   2.143   0.426
 6897W        W11097   9.467   5.916   1.487
 6898W        W11098  10.913   6.683  11.578
 6899W        W11099   1.721   3.171   9.362
 6900W        W11100   5.902  10.841  10.908
 6901W        W11101   2.164  10.297   2.200
 6902W        W11102   2.289   2.730  10.348
 6903W        W11103   8.505   9.800  10.825
 6904W        W11104   6.398   1.517  10.011
 6905W        W11105  11.426   0.886   1.642
 6906W        W11106   0.421   2.253  11.368
 6907W        W11107   8.137   1.264  11.132
 6908W        W11108   9.626   6.036   2.871
 6909W        W11109   7.035   2.799   3.606
 6910W        W11110   9.626   1.896  10.346
 6911W        W11111   1.892   7.080   0.502
 6912W        W11112   5.112   2.777   3.650
 6913W        W11113   4.862   6.150   9.766
 6914W        W11114   8.030   3.878   2.445
 6915W        W11115   4.650   1.150   9.904
 6916W        W11116   8.403   2.797  11.534
 6917W        W11117   2.764   5.776  11.227
 6918W        W11118   8.440   0.057   1.605
 6919W        W11119   3.817  11.416   1.296
 6920W        W11120  11.387  10.607   0.227
 6921W        W11121   5.818   0.688   0.475
 6922W        W11122   1.773   4.323  10.447
 6923W        W11123   5.100   4.789  10.716
 6924W        W11124  10.590   1.748   0.735
 6925W        W11125   3.576  11.219   0.869
 6926W        W11126   0.101   4.669  10.502
 6927W        W11127   6.218   9.642   1.254
 6928W        W11128  11.428   7.739   9.066
 6929W        W11129   4.541   6.494  10.966
 6930W        W11130   5.286  10.248   2.063
 6931W        W11131   1.476   7.606   2.561
 6932W        W11132   5.970   7.738   1.271
 6933W        W11133   7.335   5.877   0.231
 6934W        W11134   0.190   7.275   2.378
 6935W        W11135   6.039   7.088  11.108
 6936W        W11136   9.566   0.963  10.141
 6937W        W11137   9.919   9.664  10.060
 6938W        W11138   0.955   3.873   8.835
 6939W        W11139   0.738  10.761   9.313
 6940W        W11140   8.646   7.914   2.645
 6941W        W11141  11.178   9.659  11.364
 6942W        W11142   3.362   3.794  11.322
 6943W        W11143  10.424   2.644   0.344
 6944W        W11144   5.722   7.085   2.924
 6945W        W11145   7.255   2.310   2.385
 6946W        W11146   2.497   5.000   7.897
 6947W        W11147  10.016   2.349   2.410
 6948W        W11148   9.592   5.150   2.179
 6949W        W11149   5.232  10.996   1.327
 6950W        W11150   4.404   2.536   8.829
 6951W        W11151  11.484   4.410  11.995
 6952W        W11152   9.026   3.348   0.479
 6953W        W11153   7.553  10.815  10.084
 6954W        W11154   8.893   4.286   9.381
 6955W        W11155  10.294   3.192   1.868
 6956W        W11156   7.428   6.514   0.774
 6957W        W11157  11.028   5.803   1.222
 6958W        W11158   3.228   5.222  10.521
 6959W        W11159  10.712   5.514   2.674
 6960W        W11160  11.439   9.332   8.603
 6961W        W11161   5.204   4.199   0.893
 6962W        W11162   8.992   7.052   8.600
 6963W        W11163   7.438   4.792   0.841
 6964W        W11164   3.144   1.869  11.258
 6965W        W11165  11.046   5.177   2.484
 6966W        W11166   3.652   4.673   1.750
 6967W        W11167   0.735   2.372   0.948
 6968W        W11168   2.711   6.612   1.258
 6969W        W11169   2.284   3.510   3.043
 6970W        W11170   5.708   1.069   9.961
 6971W        W11171   9.574   8.145   2.247
 6972W        W11172   8.067   1.661  11.466
 6973W        W11173  10.424   8.409   9.951
 6974W        W11174   0.357   7.464   9.831
 6975W        W11175   7.236   8.463  10.562
 6976W        W11176  11.465   9.276   1.586
 6977W        W11177  10.474  11.464   8.926
 6978W        W11178   5.140   1.660  11.977
 6979W        W11179  10.851   2.483   3.293
 6980W        W11180   7.876  10.740   9.640
 6981W        W11181   7.430   5.338  11.263
 6982W        W11182   1.710   9.983  11.073
 6983W        W11183  10.482   3.618   2.190
 6984W        W11184  11.231   6.045   9.546
 6985W        W11185   4.205   4.069   2.152
 6986W        W11186   8.245   5.183   8.664
 6987W        W11187   3.253   5.816  11.047
 6988W        W11188   6.056  11.065   9.113
 6989W        W11189   7.346   6.247  11.513
 6990W        W11190   3.229   5.616   1.038
 6991W        W11191   0.686   1.835   1.489
 6992W        W11192   7.457   4.574   9.093
 6993W        W11193   1.157   0.817   3.485
 6994W        W11194   6.926   8.353   2.473
 6995W        W11195   5.623   9.137   9.869
 6996W        W11196   3.017   2.867  11.454
 6997W        W11197   8.616   8.315   8.640
 6998W        W11198   6.029   3.311  10.739
 6999W        W11199  11.474   9.845   9.744
 7000W        W11200   8.472   3.682   9.072
 7001W        W11201   2.331   0.760  11.353
 7002W        W11202   0.295  11.330  11.315
 7003W        W11203   5.355   2.631  10.315
 7004W        W11204   7.977   8.414   0.397
 7005W        W11205   8.845   8.069   3.417
 7006W        W11206   0.006   5.131  10.773
 7007W        W11207   0.515   7.047   9.521
 7008W        W11208   0.855   6.205   9.321
 7009W        W11209   9.340   2.220  10.619
 7010W        W11210   8.641  10.548   0.018
 7011W        W11211   4.174   5.681  10.786
 7012W        W11212   4.855   1.160   0.261
 7013W        W11213  10.974   8.336   3.507
 7014W        W11214   1.502   9.028   9.372
 7015W        W11215   6.111   4.451  10.466
 7016W        W11216  10.409  10.031   8.956
 7017W        W11217  10.433   9.947   1.407
 7018W        W11218   0.395   3.162  11.218
 7019W        W11219   7.641   0.930   1.139
 7020W        W11220   3.402   2.176   2.720
 7021W        W11221   0.603   1.824  10.452
 7022W        W11222   4.722   4.221   3.620
 7023W        W11223   3.090  11.432  11.882
 7024W        W11224   1.178   6.209   2.612
 7025W        W11225   4.707   6.704   8.632
 7026W        W11226   2.583   8.376   2.429
 7027W        W11227   2.349   5.509   9.568
 7028W        W11228   1.360   4.146   1.467
 7029W        W11229  11.445   4.826   8.739
 7030W        W11230   2.412   3.572   0.229
 7031W        W11231   7.062   3.773  10.883
 7032W        W11232   2.607   7.526   1.631
 7033W        W11233   4.602   2.267   1.629
 7034W        W11234   3.679   9.018   1.491
 7035W        W11235   3.939   8.529   9.831
 7036W        W11236  11.452   6.510   1.282
 7037W        W11237   6.992   0.297   1.663
 7038W        W11238   7.233   3.664   1.302
 7039W        W11239  11.065   1.777  10.502
 7040W        W11240   9.684   0.463  10.287
 7041W        W11241   5.458   4.818   3.284
 7042W        W11242   5.717   0.428   2.918
 7043W        W11243   4.125   7.788   0.390
 7044W        W11244   8.010   0.313   2.855
 7045W        W11245   9.357   8.701   0.924
 7046W        W11246   6.016   9.517   2.460
 7047W        W11247   9.248   7.202  10.378
 7048W        W11248   4.525  10.372   3.273
 7049W        W11249   3.088   1.269   2.367
 7050W        W11250  10.929   9.807   1.411
 7051W        W11251   8.460   7.444   3.396
 7052W        W11252  10.699   2.234   0.926
 7053W        W11253   8.118   1.427   0.368
 7054W        W11254   8.537  10.813   2.263
 7055W        W11255   0.249   9.410   3.170
 7056W        W11256   8.854   3.273   1.624
 7057W        W11257   5.969   2.471   1.634
 7058W        W11258   4.289   1.942  11.060
 7059W        W11259   6.728   6.622   0.216
 7060W        W11260   1.426   0.677   3.897
 7061W        W11261   2.533   5.299   0.759
 7062W        W11262   3.903   4.026   3.350
 7063W        W11263   3.792   3.568  10.465
 7064W        W11264   5.263  10.481   9.825
 7065W        W11265   0.703  10.002  11.408
 7066W        W11266   8.987  10.660  11.205
 7067W        W11267   7.948   7.499  11.699
 7068W        W11268   8.221   8.358  11.924
 7069W        W11269  10.874   1.933   3.200
 7070W        W11270  11.465   7.075  10.878
 7071W        W11271   4.299   8.915  11.857
 7072W        W11272   4.973  11.263  10.128
 7073W        W11273   5.218   0.449  10.746
 7074W        W11274   3.706   5.473   9.395
 7075W        W11275   6.882   8.161   1.530
 7076W        W11276   2.976   8.078   3.336
 7077W        W11277   1.797   9.949   2.369
 7078W        W11278   2.927   6.013   1.144
 7079W        W11279   1.873   1.323   1.842
 7080W        W11280   6.059   9.059  10.613
 7081W        W11281   6.076   1.769  11.992
 7082W        W11282   7.597   3.811   2.169
 7083W        W11283   7.565   2.636  10.057
 7084W        W11284   2.017   4.188   2.219
 7085W        W11285  11.021   3.296  11.434
 7086W        W11286  10.742  11.436  10.344
 7087W        W11287   2.606   6.515   0.337
 7088W        W11288  10.523   7.709  10.570
 7089W        W11289   2.280   3.617   0.725
 7090W        W11290   5.943   3.747   8.459
 7091W        W11291   5.274   2.128   0.912
 7092W        W11292   6.953   9.499   9.064
 7093W        W11293  10.588   3.710   9.279
 7094W        W11294   3.421   6.099   2.392
 7095W        W11295   7.235   6.391   0.254
 7096W        W11296   2.896   6.398  10.413
 7097W        W11297   2.697   6.524   3.172
 7098W        W11298   6.750   3.647   3.126
 7099W        W11299   5.141   4.180  10.029
 7100W        W11300   9.605   0.918  10.654
 7101W        W11301   9.025  10.338  10.824
 7102W        W11302   0.986   4.140  12.000
 7103W        W11303   8.029   6.081   3.507
 7104W        W11304   9.279   6.970   9.218
 7105W        W11305   9.477   0.526   2.590
 7106W        W11306   4.980   8.847   9.035
 7107W        W11307   3.305   0.912   0.739
 7108W        W11308   6.697   6.162  10.495
 7109W        W11309   5.724   9.423   1.223
 7110W        W11310   3.808  10.280  11.378
 7111W        W11311   2.527   0.484   2.539
 7112W        W11312   9.533  11.326  11.198
 7113W        W11313   9.569   5.071   3.168
 7114W        W11314   7.583   7.327   1.381
 7115W        W11315   6.597   9.011   1.413
 7116W        W11316   1.333   9.818   2.560
 7117W        W11317  11.354   9.061   9.577
 7118W        W11318   6.575   1.584   0.012
 7119W        W11319   0.419   9.884   2.358
 7120W        W11320   3.326   8.103  11.609
 7121W        W11321   2.749   5.532   9.182
 7122W        W11322  10.120   3.296   0.511
 7123W        W11323   3.520   4.823   3.143
 7124W        W11324   7.875   2.211   0.764
 7125W        W11325   2.236  11.489   8.866
 7126W        W11326   1.141   4.504   9.461
 7127W        W11327   1.862   1.306   9.794
 7128W        W11328   8.215   6.212   9.992
 7129W        W11329   4.106   8.670   1.379
 7130W        W11330   1.506   4.733   9.789
 7131W        W11331   6.109   4.111   9.639
 7132W        W11332   7.200   5.157   0.579
 7133W        W11333   9.913   7.300   3.311
 7134W        W11334   3.042   8.102   0.817
 7135W        W11335   8.483   8.486  11.272
 7136W        W11336   3.672   6.273   0.843
 7137W        W11337   8.372   6.981   2.826
 7138W        W11338  10.822   8.432   2.378
 7139W        W11339   0.480   7.896   1.662
 7140W        W11340  10.266   1.310  11.814
 7141W        W11341   5.289   2.822  11.098
 7142W        W11342  11.442   3.135   1.646
 7143W        W11343   7.621   7.390   9.171
 7144W        W11344   7.567  10.915   9.052
 7145W        W11345   4.662   1.859   1.954
 7146W        W11346   2.371  10.726  10.022
 7147W        W11347   2.875   6.230  11.434
 7148W        W11348  11.337   3.760  10.852
 7149W        W11349   8.503   2.557   3.024
 7150W        W11350   8.636   8.740   1.254
 7151W        W11351   5.644   8.583   2.830
 7152W        W11352   1.775   0.340  11.970
 7153W        W11353   2.373   7.451   2.289
 7154W        W11354   2.191   8.867  11.520
 7155W        W11355   5.669   7.068  10.621
 7156W        W11356   0.986   1.351  10.941
 7157W        W11357   0.369   8.913   3.224
 7158W        W11358   1.284   9.938   9.754
 7159W        W11359   2.193   9.885   0.276
 7160W        W11360  10.555   7.969   9.665
 7161W        W11361   2.643   2.646  10.764
 7162W        W11362   6.113   6.193   8.714
 7163W        W11363   0.041   2.357   2.330
 7164W        W11364  11.344   4.634   1.336
 7165W        W11365   9.899  11.302   8.979
 7166W        W11366   6.203   9.838   0.326
 7167W        W11367   6.084   6.993   9.593
 7168W        W11368   4.667   4.940   2.299
 7169W        W11369   7.944  11.150   9.316
 7170W        W11370   8.958   1.535  11.693
 7171W        W11371   5.216  10.596   2.816
 7172W        W11372   3.861   5.084   0.528
 7173W        W11373   3.089  11.472   3.241
 7174W        W11374   6.952   8.859   1.778
 7175W        W11375  10.439   2.894  10.259
 7176W        W11376   4.447   7.992  10.546
 7177W        W11377  11.040  10.716   8.719
 7178W        W11378   9.477   3.794   2.161
 7179W        W11379   0.107   3.297   3.157
 7180W        W11380   0.426   6.197   1.305
 7181W        W11381   4.322  10.941   9.832
 7182W        W11382   2.860   1.172  11.932
 7183W        W11383   7.347   9.941   3.212
 7184W        W11384   5.257   7.858   9.024
 7185W        W11385   6.729   8.582  10.568
 7186W        W11386   9.034  10.933   3.039
 7187W        W11387   2.084   9.513   3.293
 7188W        W11388  10.054   4.861   1.361
 7189W        W11389  10.471   8.061   2.444
 7190W        W11390   6.059   4.647  11.369
 7191W        W11391   6.557  10.010   9.838
 7192W        W11392   4.697   6.711   0.922
 7193W        W11393   3.074   1.774   3.498
 7194W        W11394   1.667   1.790  11.102
 7195W        W11395   3.653  10.297   3.070
 7196W        W11396   1.296   7.424  11.749
 7197W        W11397   3.935   6.071   2.349
 7198W        W11398   8.486   2.773   0.029
 7199W        W11399   9.042   9.421  10.407
 7200W        W11400   8.507   8.549   0.313
 7201W        W11401   0.277   8.537   9.284
 7202W        W11402   0.822   3.235   0.497
 7203W        W11403   9.099   2.655   9.604
 7204W        W11404   9.377   0.204   3.003
 7205W        W11405   6.499   9.461   9.890
 7206W        W11406   9.316   1.031   3.436
 7207W        W11407   7.015   8.468   0.410
 7208W        W11408   5.616   9.503   2.761
 7209W        W11409  11.432   8.051   3.505
 7210W        W11410   1.451   5.695  10.708
 7211W        W11411   6.973   0.012   2.716
 7212W        W11412   0.446  10.834   2.663
 7213W        W11413   8.722   2.309   3.394
 7214W        W11414  11.391   7.974  10.848
 7215W        W11415   9.154  11.178   1.184
 7216W        W11416   5.251   3.324   8.363
 7217W        W11417  10.394   4.514   9.805
 7218W        W11418   4.637   6.723   3.396
 7219W        W11419   8.506   7.280   0.887
 7220W        W11420   5.690   4.838   1.456
 7221W        W11421   2.815   2.103   1.400
 7222W        W11422   9.551   9.363   9.844
 7223W        W11423   3.279   0.451  11.926
 7224W        W11424   9.403   3.235   0.807
 7225W        W11425   7.785   3.116  10.091
 7226W        W11426   6.974   7.985   1.061
 7227W        W11427   9.461   0.730   0.723
 7228W        W11428   5.883  10.602   8.984
 7229W        W11429  10.738   4.160   1.390
 7230W        W11430   9.927   6.218   0.953
 7231W        W11431   5.330   4.917   1.099
 7232W        W11432   1.345   1.217  11.548
 7233W        W11433   9.822  10.339   2.512
 7234W        W11434   3.668   6.539  11.466
 7235W        W11435  10.155   4.287   1.343
 7236W        W11436   3.179   0.051   2.724
 7237W        W11437   0.658   9.453   9.350
 7238W        W11438   2.120  11.444  10.944
 7239W        W11439  10.416   1.374  10.092
 7240W        W11440   5.208   8.393  10.336
 7241W        W11441   6.184  10.839  10.078
 7242W        W11442   7.621  10.452   9.308
 7243W        W11443   0.423   9.089   1.727
 7244W        W11444  10.392   1.834   2.670
 7245W        W11445   8.544   1.983   8.506
 7246W        W11446   4.737   0.536  11.989
 7247W        W11447  10.282   9.478   2.120
 7248W        W11448   4.817   0.927   1.133
 7249W        W11449   8.469   3.224   0.287
 7250W        W11450   8.328   7.987   2.239
 7251W        W11451   0.844   8.691   3.315
 7252W        W11452   3.465   8.640   3.827
 7253W        W11453   5.922   4.961   3.085
 7254W        W11454   2.339   2.109   2.861
 7255W        W11455   5.279  10.831   0.120
 7256W        W11456  10.420   6.937   9.941
 7257W        W11457   3.217   6.526  11.719
 7258W        W11458   3.600   6.996   1.939
 7259W        W11459   6.456   5.251   0.926
 7260W        W11460   4.649   7.602   9.801
 7261W        W11461   2.020   2.732   0.885
 7262W        W11462   1.698   9.107   1.622
 7263W        W11463   5.132   4.324  10.990
 7264W        W11464   6.408   7.071   3.531
 7265W        W11465   0.488   7.174  10.810
 7266W        W11466   5.677   2.059   0.612
 7267W        W11467   5.485   8.932   9.047
 7268W        W11468   8.631   0.805   0.322
 7269W        W11469   0.844   6.753   0.817
 7270W        W11470   1.303   7.046   0.617
 7271W        W11471   9.679   8.133   9.463
 7272W        W11472   0.130   3.072   1.174
 7273W        W11473   2.761   1.637   2.225
 7274W        W11474   8.504   5.631   8.498
 7275W        W11475   8.583   8.444  10.670
 7276W        W11476   0.616   7.187   0.992
 7277W        W11477   2.111   9.719   9.791
 7278W        W11478   7.765   6.362  10.998
 7279W        W11479   5.118   0.027   1.262
 7280W        W11480   2.378   6.056   2.398
 7281W        W11481  10.017   9.463   3.008
 7282W        W11482   5.577   7.065   1.918
 7283W        W11483   3.611   6.919   9.345
 7284W        W11484   7.107   0.253   3.247
 7285W        W11485   4.740   2.220   9.032
 7286W        W11486   2.313   3.848   1.278
 7287W        W11487  10.965   3.776   1.013
 7288W        W11488   0.419   5.084   0.496
 7289W        W11489   4.097  10.660  11.509
 7290W        W11490   0.836   1.007  11.307
 7291W        W11491   6.405   2.450   8.195
 7292W        W11492   3.668   7.500   1.742
 7293W        W11493   0.917   5.216  11.330
 7294W        W11494   3.124  10.949   0.419
 7295W        W11495   4.343   4.977   0.576
 7296W        W11496   1.533  10.960   9.909
 7297W        W11497   3.917   2.815  11.595
 7298W        W11498   5.327   4.022  10.498
 7299W        W11499   6.656   4.728   2.151
 7300W        W11500   6.575   7.695   2.751
 7301W        W11501   9.005   6.666   9.955
 7302W        W11502   8.129  11.254  11.351
 7303W        W11503   7.582   3.215   3.315
 7304W        W11504   9.339   1.762   8.728
 7305W        W11505   3.054   0.936  10.611
 7306W        W11506   1.745   5.259   1.399
 7307W        W11507   8.773   5.353  11.617
 7308W        W11508   6.209   1.938   9.793
 7309W        W11509   2.889   7.878   8.985
 7310W        W11510   9.540   2.219   2.697
 7311W        W11511   8.567   6.373   8.181
 7312W        W11512   7.897   4.830   9.062
 7313W        W11513   4.732   8.482   2.264
 7314W        W11514   9.521   3.718   3.433
 7315W        W11515   0.363  10.075   9.993
 7316W        W11516   4.769   1.195   3.727
 7317W        W11517   6.424   2.890   2.754
 7318W        W11518   1.966   3.415   2.645
 7319W        W11519   1.430   7.937   1.771
 7320W        W11520   3.120   6.514   0.252
 7321W        W11521   4.247   0.574   1.977
 7322W        W11522   7.012   2.400   0.750
 7323W        W11523   1.741   8.412   0.607
 7324W        W11524   0.032   2.065   0.916
 7325W        W11525   5.566   2.717   3.892
 7326W        W11526   6.532   3.366  11.619
 7327W        W11527   5.598   4.607   8.267
 7328W        W11528   7.442   8.858   0.943
 7329W        W11529   0.444   9.637  11.937
 7330W        W11530   5.733   1.416   9.318
 7331W        W11531   5.560   2.362   9.870
 7332W        W11532   0.806   5.536  11.717
 7333W        W11533   3.606  10.870   0.197
 7334W        W11534   5.289   9.822  10.406
 7335W        W11535   8.856   9.339  11.926
 7336W        W11536  10.816   3.684   8.819
 7337W        W11537   4.270   7.706   2.255
 7338W        W11538   9.588   6.440   2.569
 7339W        W11539   4.468   8.448  11.736
 7340W        W11540   4.130   5.539   0.687
 7341W        W11541  11.352   8.978   0.983
 7342W        W11542   2.991   9.713   8.432
 7343W        W11543   4.209   1.873   3.186
 7344W        W11544  11.444   1.856   3.137
 7345W        W11545   0.487   3.638   0.475
 7346W        W11546   8.956   3.743   1.444
 7347W        W11547   0.882  10.509  10.539
 7348W        W11548   7.674   1.919  10.633
 7349W        W11549   3.103  11.037   0.933
 7350W        W11550   0.626   4.068   3.634
 7351W        W11551   1.712  11.331   9.588
 7352W        W11552   1.081   1.264   0.845
 7353W        W11553   4.391   4.622   8.926
 7354W        W11554   3.659   3.189   0.393
 7355W        W11555   8.176   7.533   9.707
 7356W        W11556   2.229  10.267  11.046
 7357W        W11557   1.920   3.759   0.253
 7358W        W11558  10.863   3.597  10.663
 7359W        W11559   3.594  10.886   3.313
 7360W        W11560   9.421   1.840   2.249
 7361W        W11561   3.283   0.633  10.027
 7362W        W11562   0.000  11.348   1.500
 7363W        W11563   2.284   2.746   0.451
 7364W        W11564  11.342   8.887  10.076
 7365W        W11565   4.751   5.954   4.053
 7366W        W11566   6.380  10.904  11.082
 7367W        W11567   6.643   5.732  11.519
 7368W        W11568   7.868   2.197   9.728
 7369W        W11569  11.106   3.698   9.251
 7370W        W11570  10.829   4.963   0.358
 7371W        W11571   2.435   9.254  11.751
 7372W        W11572   1.599   5.336   8.484
 7373W        W11573   0.882   9.592   3.007
 7374W        W11574   1.861   7.923   1.498
 7375W        W11575   1.819   5.701   1.132
 7376W        W11576   1.858   7.530   0.730
 7377W        W11577   3.821   3.562   2.671
 7378W        W11578   6.153   9.491   1.950
 7379W        W11579   7.646   4.554   3.753
 7380W        W11580   1.265   6.666   1.630
 7381W        W11581   9.863  10.490   0.300
 7382W        W11582   1.823   4.589   1.445
 7383W        W11583   1.635   5.665  11.189
 7384W        W11584   9.365  10.329   9.986
 7385W        W11585   2.753   5.532   1.193
 7386W        W11586   5.659   7.551   2.677
 7387W        W11587   0.981   4.201  10.567
 7388W        W11588   9.524   4.411   1.795
 7389W        W11589   2.659  10.266   9.583
 7390W        W11590   5.334   4.239   1.969
 7391W        W11591   0.446   1.725   1.935
 7392W        W11592   3.702   1.767   2.560
 7393W        W11593   0.862   0.758   1.672
 7394W        W11594   2.348   7.014   8.556
 7395W        W11595   8.356   5.268  11.949
 7396W        W11596  10.385   2.089   9.564
 7397W        W11597   1.202   5.799   2.946
 7398W        W11598   6.042   2.571   2.104
 7399W        W11599   3.558   5.171   9.016
 7400W        W11600   8.021   5.685   3.834
 7401W        W11601   2.413   6.075   3.356
 7402W        W11602  11.027   8.273   0.795
 7403W        W11603   4.405   0.378   3.324
 7404W        W11604   9.222   0.490   1.586
 7405W        W11605   5.598   4.043  10.966
 7406W        W11606   9.598   7.397   2.669
 7407W        W11607   0.025  10.250   9.450
 7408W        W11608   5.964  10.285   0.208
 7409W        W11609   2.748   9.905   2.654
 7410W        W11610   1.837   7.261   2.315
 7411W        W11611   1.433   8.652  10.064
 7412W        W11612   9.011   5.131   9.428
 7413W        W11613   4.070  10.764   9.408
 7414W        W11614   6.411   7.985   1.528
 7415W        W11615  10.374   4.702   0.384
 7416W        W11616   7.326   5.742   2.410
 7417W        W11617   3.283   8.202  10.596
 7418W        W11618   2.656   0.845   3.072
 7419W        W11619  10.688   9.406   3.110
 7420W        W11620   6.650   3.755  10.338
 7421W        W11621   3.238   6.939   8.993
 7422W        W11622   8.460   0.183   8.421
 7423W        W11623   3.755   2.778   0.659
 7424W        W11624   2.572  11.326   3.389
 7425W        W11625  11.153   7.943   9.851
 7426W        W11626   5.010   3.100   2.333
 7427W        W11627   6.750   9.801  10.448
 7428W        W11628   3.538   4.447   9.355
 7429W        W11629  11.097   8.808   1.423
 7430W        W11630   3.108  10.862   1.480
 7431W        W11631   6.993  11.151   9.522
 7432W        W11632   6.384   9.390   0.463
 7433W        W11633   8.369   9.971   1.745
 7434W        W11634   4.957   3.699  11.745
 7435W        W11635   7.664   1.760  10.109
 7436W        W11636   3.681  10.925   1.673
 7437W        W11637   0.330   4.306   8.830
 7438W        W11638   4.713   5.718   0.028
 7439W        W11639  10.751   0.823   9.425
 7440W        W11640   1.191  11.334   9.836
 7441W        W11641   2.452   8.874   2.337
 7442W        W11642  10.549   4.219   0.923
 7443W        W11643   0.169   2.198  11.829
 7444W        W11644   2.936   2.662   0.010
 7445W        W11645  10.727   5.254   8.556
 7446W        W11646   7.602   8.095  11.765
 7447W        W11647   0.574   5.101   1.849
 7448W        W11648   2.239   3.847  11.842
 7449W        W11649  10.315   0.986  11.415
 7450W        W11650  11.377  10.087  11.131
 7451W        W11651  10.468  11.362   3.343
 7452W        W11652   7.093   1.853   3.460
 7453W        W11653   2.965   2.119   2.239
 7454W        W11654   8.138   9.942   2.708
 7455W        W11655   3.194   9.602  10.283
 7456W        W11656  10.650   0.375   3.242
 7457W        W11657   3.285   4.120   0.842
 7458W        W11658   4.101   6.971   1.954
 7459W        W11659  11.022  10.708   9.962
 7460W        W11660   5.117   7.224  11.506
 7461W        W11661   8.105  10.839   3.280
 7462W        W11662   2.212   5.060   8.638
 7463W        W11663  10.810   0.334   8.535
 7464W        W11664   5.580   7.245   3.794
 7465W        W11665  10.374   5.483   8.832
 7466W        W11666   2.932   2.774   3.350
 7467W        W11667  10.736   9.272  11.626
 7468W        W11668  10.323   5.599   3.012
 7469W        W11669   8.128  10.264   9.613
 7470W        W11670   1.766  10.077   9.729
 7471W        W11671   5.504   4.535   3.743
 7472W        W11672   4.695   9.304  11.770
 7473W        W11673   7.610   4.776   2.165
 7474W        W11674   7.136   8.442   9.252
 7475W        W11675   1.039   4.757   3.550
 7476W        W11676   1.645   8.110   3.491
 7477W        W11677   3.997   7.600  11.898
 7478W        W11678   9.163   3.667  11.682
 7479W        W11679   5.623   0.333   9.485
 7480W        W11680   8.620   8.010  11.522
 7481W        W11681  11.322  10.034   1.164
 7482W        W11682  11.414   8.264   9.044
 7483W        W11683   3.374  10.345   1.129
 7484W        W11684   1.887   8.333   1.089
 7485W        W11685   1.249   9.055  11.131
 7486W        W11686   2.649   9.787   0.444
 7487W        W11687   5.045   5.326   2.355
 7488W        W11688   7.746   2.370   0.269
 7489W        W11689  10.309   9.124   1.746
 7490W        W11690   8.940  10.448   2.822
 7491W        W11691   1.080   4.407   8.688
 7492W        W11692   2.968   8.884   2.396
 7493W        W11693   1.712   1.419  11.892
 7494W        W11694   3.495   2.554   9.013
 7495W        W11695   7.171   8.789   2.260
 7496W        W11696   6.802   7.660   1.404
 7497W        W11697   2.670   0.347   3.419
 7498W        W11698   1.210   9.540   1.237
 7499W        W11699   7.824   8.576  10.007
 7500W        W11700   6.163   7.344   2.690
 7501W        W11701   2.634   0.705   0.344
 7502W        W11702   3.110   1.673   9.103
 7503W        W11703   8.044   4.725  11.296
 7504W        W11704   4.616   8.561   1.261
 7505W        W11705   5.076   6.081   1.974
 7506W        W11706   4.709   4.837   0.945
 7507W        W11707   1.221   0.749   9.445
 7508W        W11708   7.510   2.628   9.054
 7509W        W11709   6.566   9.032  10.731
 7510W        W11710   1.811   6.634   9.585
 7511W        W11711  10.480   0.199   0.472
 7512W        W11712   8.213   8.495  10.310
 7513W        W11713   4.489   5.262  11.739
 7514W        W11714   0.928   3.097   0.973
 7515W        W11715   9.978   6.819   0.695
 7516W        W11716   2.405   7.992   0.076
 7517W        W11717   0.718   5.699   1.985
 7518W        W11718   8.675   2.049   2.948
 7519W        W11719   5.052   4.395  11.502
 7520W        W11720   9.292   8.383   0.510
 7521W        W11721   8.869   2.291  10.436
 7522W        W11722   3.940   2.390   8.617
 7523W        W11723  10.960   5.242  10.040
 7524W        W11724   6.779   5.122  10.156
 7525W        W11725   9.041   2.534   0.467
 7526W        W11726   8.864   4.454   8.876
 7527W        W11727   3.221   8.412   1.781
 7528W        W11728   3.571   4.871   1.257
 7529W        W11729  10.547   3.738   0.722
 7530W        W11730   6.571   3.333  10.036
 7531W        W11731   0.960   4.786   9.051
 7532W        W11732   5.446   8.380  11.699
 7533W        W11733   1.901   3.651   9.295
 7534W        W11734   3.896   2.152  10.791
 7535W        W11735  10.437   1.174  10.558
 7536W        W11736   3.372   5.182   4.141
 7537W        W11737   6.168   2.738   3.164
 7538W        W11738   4.054   9.158  11.404
 7539W        W11739   6.031   4.788  10.856
 7540W        W11740   8.230   8.438   1.375
 7541W        W11741   9.313   1.821  11.461
 7542W        W11742   1.647   6.517   3.308
 7543W        W11743   8.155   7.337   9.241
 7544W        W11744   8.268   1.706   2.987
 7545W        W11745   8.558  10.842   2.867
 7546W        W11746   2.282   4.046   3.117
 7547W        W11747  11.465   9.601  11.773
 7548W        W11748   0.445   2.626   2.871
 7549W        W11749   6.176   5.056   1.324
 7550W        W11750   6.583   9.046   2.904
 7551W        W11751   7.689  11.449  11.524
 7552W        W11752   6.318   0.886   0.458
 7553W        W11753   0.856   8.943  11.514
 7554W        W11754   2.146   9.804  11.267
 7555W        W11755   5.001   7.414   0.047
 7556W        W11756  10.749  10.838   1.283
 7557W        W11757   3.968   7.958   9.179
 7558W        W11758   5.061   4.063   8.735
 7559W        W11759   9.090   3.317   8.942
 7560W        W11760   4.352   9.597   0.367
 7561W        W11761   2.382   6.690   8.999
 7562W        W11762   6.146   6.005   2.228
 7563W        W11763   6.210   4.495   3.026
 7564W        W11764   0.857   5.662   1.158
 7565W        W11765   0.357   9.552   9.949
 7566W        W11766   8.570   5.214   8.187
 7567W        W11767   3.347   2.448   2.287
 7568W        W11768  10.371   0.485   8.792
 7569W        W11769   8.565   3.673  11.026
 7570W        W11770  11.356   8.258  11.296
 7571W        W11771  10.157   0.259   3.174
 7572W        W11772   6.184   6.619  11.329
 7573W        W11773  10.802   3.308   1.872
 7574W        W11774   5.134   7.404  10.109
 7575W        W11775   0.480  10.833  10.427
 7576W        W11776   5.217   8.673   2.576
 7577W        W11777   9.996  11.345  10.918
 7578W        W11778   7.072   9.342   1.491
 7579W        W11779   9.184   8.254   9.442
 7580W        W11780   5.230   1.920   0.418
 7581W        W11781   4.216   4.547   2.351
 7582W        W11782   8.974   8.923  10.225
 7583W        W11783   0.674   2.395   3.283
 7584W        W11784   7.584   6.408   4.004
 7585W        W11785   9.027   6.483   7.896
 7586W        W11786   7.978   6.848  10.857
 7587W        W11787   2.802  11.334   1.222
 7588W        W11788   9.646   4.551   9.316
 7589W        W11789   6.899   7.590  10.834
 7590W        W11790   5.637   9.818  10.862
 7591W        W11791   0.391   6.562   9.684
 7592W        W11792   2.137   0.386   1.337
 7593W        W11793   3.014   2.332  10.638
 7594W        W11794  10.818  10.762  11.397
 7595W        W11795   1.226   7.868   2.934
 7596W        W11796   0.405   7.143   3.001
 7597W        W11797   5.042   8.836  10.548
 7598W        W11798   7.454   1.658   0.721
 7599W        W11799   5.603   0.249  11.010
 7600W        W11800   7.917   7.807   9.343
 7601W        W11801   6.436   9.683  10.867
 7602W        W11802   5.244   2.874   2.714
 7603W        W11803   5.189   6.163  10.471
 7604W        W11804   5.225   2.114   8.498
 7605W        W11805   1.468   0.234  11.240
 7606W        W11806   2.713   1.623   0.126
 7607W        W11807   0.852   6.854   3.101
 7608W        W11808   8.236   3.624   8.633
 7609W        W11809   0.878   9.057   1.960
 7610W        W11810   6.106  11.333  10.901
 7611W        W11811   5.624   9.457  10.283
 7612W        W11812   3.563   0.159  10.044
 7613W        W11813  11.163  10.495   2.909
 7614W        W11814   6.613   8.943   0.417
 7615W        W11815   0.333   4.205   9.371
 7616W        W11816   1.504   7.418  11.155
 7617W        W11817   8.512   2.818  11.005
 7618W        W11818   2.859   9.799   8.957
 7619W        W11819   4.821   2.462  10.442
 7620W        W11820   3.514   1.302  10.728
 7621W        W11821   4.785   7.663   0.817
 7622W        W11822   1.567   5.183   9.496
 7623W        W11823   3.479   5.450   8.556
 7624W        W11824  10.327   5.575   1.929
 7625W        W11825   2.729   5.739  11.750
 7626W        W11826   9.210   5.194   1.877
 7627W        W11827   2.699   3.641   8.975
 7628W        W11828   5.968  10.357   8.528
 7629W        W11829   6.674  10.132   9.371
 7630W        W11830   2.239   2.437   9.019
 7631W        W11831   6.324   8.197   8.234
 7632W        W11832   6.978   0.005  10.481
 7633W        W11833   8.639  10.795   9.944
 7634W        W11834   6.024   4.546   9.935
 7635W        W11835   5.651   2.710  11.494
 7636W        W11836   4.107  10.636   8.681
 7637W        W11837   5.764   3.203   3.859
 7638W        W11838   5.062   0.700  10.331
 7639W        W11839   2.652   4.545  10.704
 7640W        W11840  11.090  11.484  11.770
 7641W        W11841   7.445   1.275  11.840
 7642W        W11842   5.558   5.939  11.099
 7643W        W11843   1.815   6.403   0.026
 7644W        W11844   5.456  11.273  10.291
 7645W        W11845   2.900   8.386   8.415
 7646W        W11846   4.219   5.534  11.306
 7647W        W11847   4.773   7.469   2.265
 7648W        W11848   6.060   2.117  10.605
 7649W        W11849   9.283   8.163  10.261
 7650W        W11850   2.811   1.217   1.909
 7651W        W11851   8.890   1.151   0.016
 7652W        W11852   4.732   9.321  10.690
 7653W        W11853   0.890  11.261   1.957
 7654W        W11854   1.125   2.657   1.137
 7655W        W11855   8.202   6.070   1.222
 7656W        W11856   9.934   0.353   9.633
 7657W        W11857   0.288   6.965   9.998
 7658W        W11858   2.568   8.604   8.712
 7659W        W11859   2.696   5.026   8.394
 7660W        W11860   2.741   4.223   8.302
 7661W        W11861  11.392   4.801  10.069
 7662W        W11862   4.274   2.702  10.212
 7663W        W11863   5.043   4.414   9.101
 7664W        W11864   5.646   9.829   9.349
 7665W        W11865   5.848   3.599   1.407
 7666W        W11866   9.501  10.431   9.046
 7667W        W11867   6.260   5.620   2.594
 7668W        W11868  10.422   5.243   9.283
 7669W        W11869   9.328   7.443   8.532
 7670W        W11870  11.258   8.314   3.083
 7671W        W11871  11.494   6.025   1.089
 7672W        W11872  11.285   4.738   9.564
 7673W        W11873  11.312   1.868  10.052
 7674W        W11874   2.958   6.903  10.359
 7675W        W11875   6.839   7.123  11.532
 7676W        W11876   6.443   6.633   9.540
 7677W        W11877   5.165   2.358  11.315
 7678W        W11878   7.751   5.067  10.763
 7679W        W11879   6.740   3.618   1.278
 7680W        W11880   2.651   1.445   0.782
 7681W        W11881   2.843   2.600   2.374
 7682W        W11882   7.174  10.449   2.919
 7683W        W11883   9.777   9.418   9.098
 7684W        W11884  10.606   4.780  11.930
 7685W        W11885   7.622  10.387   3.134
 7686W        W11886   0.897   1.445   9.524
 7687W        W11887   3.635   3.960  10.133
 7688W        W11888  10.535   5.156   1.715
 7689W        W11889   0.726   9.504   2.526
 7690W        W11890   1.819   5.158   9.935
 7691W        W11891   3.824   3.279  11.349
 7692W        W11892   9.948  10.094   9.742
 7693W        W11893  10.312  11.440   1.847
 7694W        W11894   7.128   2.603  10.835
 7695W        W11895   4.758   9.517   9.245
 7696W        W11896   5.154   9.585  11.393
 7697W        W11897  10.014   2.113   2.919
 7698W        W11898   7.981   5.725  11.476
 7699W        W11899   9.950   4.907   0.068
 7700W        W11900   1.200  10.841  10.277
 7701W        W11901   7.595   0.569   0.759
 7702W        W11902   6.809   7.157   1.234
 7703W        W11903  10.286   0.784   9.234
 7704W        W11904   0.051   6.953  11.880
 7705W        W11905   6.492   4.522   0.642
 7706W        W11906   8.155  11.488   9.718
 7707W        W11907   0.694   3.008   2.374
 7708W        W11908   5.160   7.989   1.149
 7709W        W11909  10.358   0.918   2.405
 7710W        W11910   0.225   9.823  11.388
 7711W        W11911   8.464   9.488  11.646
 7712W        W11912   2.216   0.664   3.370
 7713W        W11913   2.291  10.479  11.936
 7714W        W11914   0.083   1.554   0.885
 7715W        W11915   2.339   8.476   1.278
 7716W        W11916   3.780   3.089   2.832
 7717W        W11917   4.334   9.377   3.631
 7718W        W11918   2.288  11.185   2.295
 7719W        W11919   3.647   7.598   0.421
 7720W        W11920   2.633   4.967   0.364
 7721W        W11921   1.380  10.008  11.757
 7722W        W11922   7.913   1.484  10.747
 7723W        W11923  10.481   1.179   1.536
 7724W        W11924   0.711   3.125   9.302
 7725W        W11925   7.107   1.623  10.828
 7726W        W11926   6.266   7.665   2.293
 7727W        W11927   6.575   6.545   1.094
 7728W        W11928   1.766   2.036   0.507
 7729W        W11929   9.396   1.327  11.506
 7730W        W11930   3.698   3.711   1.656
 7731W        W11931   7.446   4.318   1.965
 7732W        W11932   1.907   1.536   0.485
 7733W        W11933   1.147   9.409   2.237
 7734W        W11934   9.952   6.639   8.723
 7735W        W11935   5.978  10.738   3.326
 7736W        W11936   0.259   9.516   8.981
 7737W        W11937   7.860   5.505  11.011
 7738W        W11938   8.200   9.067   2.205
 7739W        W11939   0.973   3.203   2.772
 7740W        W11940   3.016   4.222  11.512
 7741W        W11941  10.200   4.482  11.936
 7742W        W11942   7.573  10.325  10.298
 7743W        W11943   1.641   9.025   2.868
 7744W        W11944  10.820   6.577   0.679
 7745W        W11945   6.708   0.072   0.430
 7746W        W11946  11.296   6.112   1.549
 7747W        W11947   9.594   3.694  11.916
 7748W        W11948   2.006  11.466   0.866
 7749W        W11949   3.744   7.819   2.154
 7750W        W11950   1.730   5.787   0.646
 7751W        W11951   8.861   8.120   1.487
 7752W        W11952   4.933   6.528   9.089
 7753W        W11953   0.027   2.728   1.985
 7754W        W11954  10.445  11.076  11.088
 7755W        W11955   6.706   2.209   9.400
 7756W        W11956   4.405   1.523   2.283
 7757W        W11957   3.570   4.209   8.916
 7758W        W11958   4.789   0.225  10.954
 7759W        W11959   2.842   7.112   3.278
 7760W        W11960   5.726  10.634   9.948
 7761W        W11961  10.926   4.774   8.591
 7762W        W11962   9.235   9.103   0.617
 7763W        W11963  10.581   2.763  10.716
 7764W        W11964   6.177   1.734   1.009
 7765W        W11965   6.488  10.683   0.804
 7766W        W11966   3.176   4.215   2.257
 7767W        W11967   5.222   6.825   8.768
 7768W        W11968   0.404   5.570   0.045
 7769W        W11969  11.464   6.172   9.071
 7770W        W11970  10.901   5.908  10.994
 7771W        W11971   4.238  10.092  10.804
 7772W        W11972   8.985   9.063   1.053
 7773W        W11973   5.051  11.096   9.356
 7774W        W11974   8.532   5.307   2.377
 7775W        W11975   3.169   3.315   9.984
 7776W        W11976   8.192   0.969   0.105
 7777W        W11977   1.375  10.374  10.482
 7778W        W11978   1.917   4.265   0.427
 7779W        W11979   6.543   3.699   0.384
 7780W        W11980   6.447  10.802   2.287
 7781W        W11981   0.699   9.778   8.923
 7782W        W11982   6.180   4.294  11.878
 7783W        W11983   9.563  11.073   9.803
 7784W        W11984   2.414   5.070  10.511
 7785W        W11985   8.218   5.112  10.993
 7786W        W11986   9.409   3.749   1.186
 7787W        W11987   7.034   7.010   2.434
 7788W        W11988   1.753   7.724   2.151
 7789W        W11989  11.327   9.395   9.984
 7790W        W11990   2.483   3.109  10.611
 7791W        W11991   8.875   9.799  11.686
 7792W        W11992   5.171   1.882   1.839
 7793W        W11993   4.811  11.321   1.622
 7794W        W11994   2.919   3.662   0.241
 7795W        W11995   5.374   2.737   9.043
 7796W        W11996   7.982   0.207  11.869
 7797W        W11997   6.407   9.093   3.751
 7798W        W11998   8.361   3.407   1.753
 7799W        W11999   5.995   0.192   0.222
 7800W        W12000   6.507  10.837  11.579
 7801W        W12001  10.468   2.214   3.525
 7802W        W12002   0.785   6.716   1.805
 7803W        W12003   8.429   1.407  11.960
 7804W        W12004   1.775   1.760  10.038
 7805W        W12005   3.255   8.682  10.324
 7806W        W12006   6.603   6.132   0.802
 7807W        W12007   9.500   8.115   3.192
 7808W        W12008   1.419   3.515   2.073
 7809W        W12009   6.272   8.840  11.085
 7810W        W12010   8.871   6.198   3.235
 7811W        W12011   8.793   9.587   3.177
 7812W        W12012   5.707   5.120   9.145
 7813W        W12013   9.326   3.393   1.790
 7814W        W12014   7.635   5.420   9.817
 7815W        W12015   3.129   2.091   9.690
 7816W        W12016   0.948   1.959   3.220
 7817W        W12017   8.970   0.467   3.278
 7818W        W12018  10.409   6.441   1.987
 7819W        W12019   7.916   4.264  10.043
 7820W        W12020   6.679   2.539  11.992
 7821W        W12021   4.510   5.791   1.072
 7822W        W12022  10.843   7.023   0.920
 7823W        W12023   4.451   3.244   0.775
 7824W        W12024  10.646   9.605   9.583
 7825W        W12025  11.383   5.484   3.241
 7826W        W12026   6.658   2.729   9.500
 7827W        W12027   5.481  10.167  11.803
 7828W        W12028   2.789   4.841   0.843
 7829W        W12029   2.458   9.546   1.715
 7830W        W12030   5.144   6.522   1.182
 7831W        W12031   1.806   3.357   0.835
 7832W        W12032  10.444   9.061   9.434
 7833W        W12033   4.313   8.648   3.670
 7834W        W12034   0.844   0.246   1.131
 7835W        W12035   5.956   8.180   3.564
 7836W        W12036   7.644   6.551  10.531
 7837W        W12037   4.440   4.217  10.455
 7838W        W12038   8.963  10.829   9.455
 7839W        W12039   7.864   6.929   9.087
 7840W        W12040   8.517   6.914   1.403
 7841W        W12041   2.691  10.791   1.138
 7842W        W12042   9.987  11.279   3.095
 7843W        W12043   3.095   7.027   1.938
 7844W        W12044   3.781   5.965  11.030
 7845W        W12045   4.815   6.145  11.303
 7846W        W12046   9.540   8.619  10.349
 7847W        W12047   3.385  10.007   9.197
 7848W        W12048   2.230   7.867   9.461
 7849W        W12049   3.351   3.468   0.070
 7850W        W12050   1.474   7.835  11.982
 7851W        W12051   4.482   2.738   9.772
 7852W        W12052   8.587   9.147   0.434
 7853W        W12053   9.103  11.351  10.797
 7854W        W12054   7.185   2.368   3.382
 7855W        W12055   2.558   2.626  11.287
 7856W        W12056   0.330   4.811   1.256
 7857W        W12057   4.682   0.299   2.899
 7858W        W12058   5.761   4.389   1.695
 7859W        W12059   6.652   6.081   2.288
 7860W        W12060   5.885   2.724   8.984
 7861W        W12061   8.293   5.138   3.215
 7862W        W12062   6.945   5.090   2.374
 7863W        W12063   9.121   8.415  11.506
 7864W        W12064   2.244   5.267   9.098
 7865W        W12065   1.279   4.099   9.760
 7866W        W12066   0.920   0.248   2.146
 7867W        W12067   7.459  11.482  10.185
 7868W        W12068   0.742   2.157   1.947
 7869W        W12069   7.170   0.765  11.843
 7870W        W12070   8.350   4.534  10.293
 7871W        W12071  11.108   4.108   2.282
 7872W        W12072   9.905   3.788   1.342
 7873W        W12073   3.125   9.373   0.759
 7874W        W12074   3.812   1.637   9.932
 7875W        W12075  10.843   4.630  10.817
 7876W        W12076   8.253   6.365  10.811
 7877W        W12077  10.100   3.835   9.539
 7878W        W12078  10.697   4.153  10.581
 7879W        W12079   5.142   7.506  10.610
 7880W        W12080  11.333  10.907   2.655
 7881W        W12081   0.425   5.287   1.393
 7882W        W12082  10.080   3.778   3.473
 7883W        W12083   6.349   3.948   8.186
 7884W        W12084   3.170   5.375   3.711
 7885W        W12085   8.533   0.741   3.231
 7886W        W12086   1.821   6.512   9.077
 7887W        W12087   2.317   1.853   0.452
 7888W        W12088  10.861   3.922  11.076
 7889W        W12089   5.225   1.841  11.433
 7890W        W12090   5.454   8.170   9.897
 7891W        W12091   5.885   2.011   1.889
 7892W        W12092   2.307   7.536  11.787
 7893W        W12093   3.087   0.298   1.389
 7894W        W12094   7.652   3.117  10.966
 7895W        W12095   2.440  10.699  10.889
 7896W        W12096   4.196   3.208  10.458
 7897W        W12097   8.588   4.253   2.857
 7898W        W12098   1.381   0.393   0.827
 7899W        W12099   0.298   0.398   0.010
 7900W        W12100   7.054   0.247   2.211
 7901W        W12101   9.106   6.635   8.877
 7902W        W12102   4.176   7.493   1.822
 7903W        W12103   8.599   1.819   3.376
 7904W        W12104   1.515   0.328   9.591
 7905W        W12105   1.447   2.893   8.357
 7906W        W12106   7.345   6.456  10.101
 7907W        W12107  10.579   7.104   2.749
 7908W        W12108  11.365   9.805   3.390
 7909W        W12109   6.444   9.773   0.808
 7910W        W12110   1.934   7.670   3.539
 7911W        W12111   2.847   1.889   0.544
 7912W        W12112   7.021   4.834   9.109
 7913W        W12113   3.293   6.219  10.707
 7914W        W12114   9.610   3.109   2.762
 7915W        W12115   6.455   6.082  10.981
 7916W        W12116  10.357  10.388   0.226
 7917W        W12117   3.124   6.051  11.843
 7918W        W12118   5.359   1.913  10.017
 7919W        W12119   7.720   5.955  10.694
 7920W        W12120   7.495   5.387   0.244
 7921W        W12121   9.410  10.250   2.787
 7922W        W12122   1.010   9.831   1.660
 7923W        W12123   4.607   1.778   1.419
 7924W        W12124   6.147   2.270   0.768
 7925W        W12125   1.817   2.263   8.750
 7926W        W12126   2.175   7.080  11.565
 7927W        W12127   9.442   9.122   9.367
 7928W        W12128   4.656   1.883  10.293
 7929W        W12129   1.346   6.980   3.223
 7930W        W12130   9.987   3.277  10.849
 7931W        W12131   8.971   5.041   3.742
 7932W        W12132   6.473   9.965  11.899
 7933W        W12133   5.225   8.325   1.574
 7934W        W12134   6.593   2.324   0.467
 7935W        W12135  11.291  10.528  10.398
 7936W        W12136   4.776   0.972   1.636
 7937W        W12137   7.708   8.962  11.415
 7938W        W12138   5.529   7.559  11.428
 7939W        W12139   7.622   3.134   2.011
 7940W        W12140   7.944   6.878  11.715
 7941W        W12141   4.769   9.370   2.219
 7942W        W12142   2.265   6.133   0.275
 7943W        W12143   3.930   0.417   8.795
 7944W        W12144   5.940   0.974   9.475
 7945W        W12145   7.510   4.096   9.277
 7946W        W12146   9.502   1.900   3.548
 7947W        W12147   4.640  11.075   2.052
 7948W        W12148   5.712   1.171   0.350
 7949W        W12149   5.410  10.811  10.733
 7950W        W12150   6.989   4.192   9.976
 7951W        W12151   7.681   7.069  10.480
 7952W        W12152   3.681   6.459  10.933
 7953W        W12153  10.020   8.308   8.394
 7954W        W12154  11.000   0.411  10.329
 7955W        W12155  10.835   4.197   2.735
 7956W        W12156   1.330   6.606   2.888
 7957W        W12157   2.302   4.705   9.268
 7958W        W12158   2.388   1.580   2.926
 7959W        W12159   2.973   7.533   2.549
 7960W        W12160   5.483  11.451   0.886
 7961W        W12161   9.580   5.407   1.617
 7962W        W12162   1.020   7.072   8.739
 7963W        W12163   7.087   3.036   0.115
 7964W        W12164   1.782   5.419   0.298
 7965W        W12165   6.813   3.273   3.743
 7966W        W12166   6.679   5.356  10.594
 7967W        W12167   3.580   1.466   1.286
 7968W        W12168   4.195   7.985   0.883
 7969W        W12169   4.339   4.845   2.778
 7970W        W12170   2.224   0.386   1.962
 7971W        W12171   8.344  10.391   0.430
 7972W        W12172   5.225   9.363  11.864
 7973W        W12173   7.649   2.574  11.789
 7974W        W12174   2.752   2.806   2.851
 7975W        W12175   4.829   2.875  10.126
 7976W        W12176   0.768   7.582   1.277
 7977W        W12177   8.611  10.835   3.388
 7978W        W12178   0.795   4.104   9.570
 7979W        W12179   6.117   0.410   1.700
 7980W        W12180  10.540  10.718   0.564
 7981W        W12181   5.009  10.631   2.316
 7982W        W12182   5.609   9.638   9.811
 7983W        W12183   8.041   7.383   1.668
 7984W        W12184   3.029   9.062   9.555
 7985W        W12185  10.294   3.586   2.952
 7986W        W12186   5.127   1.652   0.844
 7987W        W12187   5.116   1.135   8.793
 7988W        W12188  10.013  10.803   3.269
 7989W        W12189   8.506   0.389  11.492
 7990W        W12190   8.541   7.453   2.837
 7991W        W12191   4.502   0.446   2.409
 7992W        W12192   7.464   3.046   9.703
 7993W        W12193   7.254  10.884   1.964
 7994W        W12194   0.001   5.533  11.722
 7995W        W12195   5.033  10.319   3.196
 7996W        W12196   8.675   9.379   2.327
 7997W        W12197   9.552   1.114   0.354
 7998W        W12198   6.557   9.516  11.642
 7999W        W12199   1.797   5.898   0.133
 8000W        W12200   5.625   3.661   3.301
 8001W        W12201   8.642   1.256   2.501
 8002W        W12202   9.007   4.531  11.878
 8003W        W12203  11.022   9.046   8.778
 8004W        W12204   2.466   7.049  11.079
 8005W        W12205   0.944   9.902   2.176
 8006W        W12206   9.693  10.973   3.649
 8007W        W12207   8.811   7.079  11.249
 8008W        W12208   6.546   2.196   8.806
 8009W        W12209   3.239   6.479  11.198
 8010W        W12210   0.697   3.648   9.806
 8011W        W12211   8.107   6.212   3.989
 8012W        W12212  10.478   8.523   9.439
 8013W        W12213  10.771   9.041  10.747
 8014W        W12214   6.559   4.784   1.643
 8015W        W12215   7.955   4.134   3.670
 8016W        W12216   7.547   2.870  11.393
 8017W        W12217   3.342   2.780   0.331
 8018W        W12218   2.698   6.513   9.531
 8019W        W12219   7.216   6.643   3.692
 8020W        W12220   1.465   2.788   3.021
 8021W        W12221   1.383   6.025   3.396
 8022W        W12222   0.671   5.220   0.932
 8023W        W12223   8.343   5.581  10.816
 8024W        W12224   8.684  10.501   1.769
 8025W        W12225   2.513   8.061   8.579
 8026W        W12226   6.920   9.857  11.679
 8027W        W12227   9.139   1.803  10.402
 8028W        W12228   2.716   6.014   8.982
 8029W        W12229   2.260   6.613  11.837
 8030W        W12230   5.275   6.043  11.506
 8031W        W12231   5.830   2.706   8.335
 8032W        W12232   0.296   7.470   1.412
 8033W        W12233  10.818   7.665  10.154
 8034W        W12234   3.420   5.242   0.319
 8035W        W12235   9.295   9.320   1.810
 8036W        W12236   6.996   9.827   1.672
 8037W        W12237   5.937   8.656  10.321
 8038W        W12238   5.845   0.043   9.026
 8039W        W12239  10.875   7.927   3.228
 8040W        W12240   3.231  10.299   2.160
 8041W        W12241   6.497  11.405  10.267
 8042W        W12242   5.294   9.535   3.652
 8043W        W12243   4.478   1.637   9.883
 8044W        W12244   2.439   2.160  11.457
 8045W        W12245   6.076   8.833   1.834
 8046W        W12246   0.292  10.084   3.312
 8047W        W12247   3.419  10.495   9.936
 8048W        W12248   9.084  10.221   8.782
 8049W        W12249   6.987  10.976  11.688
 8050W        W12250   8.685   5.730   3.111
 8051W        W12251  10.321   2.422  10.411
 8052W        W12252   5.019   6.519  10.102
 8053W        W12253   6.926   9.052   3.712
 8054W        W12254   9.907   4.069   1.789
 8055W        W12255   9.348   6.083   9.208
 8056W        W12256   0.355   1.331  10.378
 8057W        W12257  11.286   4.256   2.984
 8058W        W12258   7.241  11.078  10.402
 8059W        W12259  10.352   1.785   2.163
 8060W        W12260   8.656   5.215  10.631
 8061W        W12261   7.573   4.829  11.452
 8062W        W12262   3.115   4.764   0.420
 8063W        W12263   3.442   8.016   9.111
 8064W        W12264   7.799   3.870   3.263
 8065W        W12265   2.470   7.494  11.306
 8066W        W12266   4.206   3.865  11.038
 8067W        W12267   0.446   0.847   8.761
 8068W        W12268   7.903   0.686   9.305
 8069W        W12269   9.799   2.825  11.582
 8070W        W12270  11.398   8.626   0.142
 8071W        W12271   3.417   9.892  11.547
 8072W        W12272   1.766   4.592   0.021
 8073W        W12273   0.905  11.482   3.019
 8074W        W12274   5.217   5.583   1.870
 8075W        W12275   6.723   0.465   3.539
 8076W        W12276   2.411   7.078   0.550
 8077W        W12277   9.556  11.193   0.515
 8078W        W12278   2.796   6.896   8.735
 8079W        W12279  10.389   5.097   3.281
 8080W        W12280   1.457   3.724   0.495
 8081W        W12281  10.397   5.146   0.662
 8082W        W12282  11.372   8.439   1.650
 8083W        W12283   4.142   4.126  10.044
 8084W        W12284   4.805   0.751   2.679
 8085W        W12285   9.619   2.297   3.202
 8086W        W12286   7.567   7.586   1.844
 8087W        W12287   6.592   2.080   0.928
 8088W        W12288  10.146   8.990   0.500
 8089W        W12289   6.552   0.410   1.430
 8090W        W12290   3.293   6.659   1.637
 8091W        W12291   3.553   8.070   0.799
 8092W        W12292   3.247   3.225   2.759
 8093W        W12293   0.761   2.221   2.803
 8094W        W12294   5.950   3.822  11.857
 8095W        W12295   0.427   3.042   9.745
 8096W        W12296  10.425  10.047   9.479
 8097W        W12297   9.054   4.998  10.371
 8098W        W12298   5.566   9.449   2.216
 8099W        W12299   3.119   5.122   8.680
 8100W        W12300   3.617   9.945  11.059
 8101W        W12301   4.301   2.666   1.458
 8102W        W12302   8.467  10.399   2.618
 8103W        W12303   2.190   2.276   0.747
 8104W        W12304   4.759   0.326   8.363
 8105W        W12305   9.811   7.018   2.325
 8106W        W12306   0.446   4.805  10.119
 8107W        W12307   3.782   5.956  10.484
 8108W        W12308  11.063   2.875  11.717
 8109W        W12309   2.793   0.808  10.025
 8110W        W12310   0.512   9.503  10.718
 8111W        W12311   6.954  11.398   0.864
 8112W        W12312   6.863   6.072   0.342
 8113W        W12313   0.820  11.191  10.172
 8114W        W12314   7.370   8.922  11.776
 8115W        W12315  10.581   8.709   3.415
 8116W        W12316   3.826   2.118   9.057
 8117W        W12317   4.157   1.957  10.129
 8118W        W12318   6.306   6.305   9.181
 8119W        W12319   5.170   1.144   0.849
 8120W        W12320   0.677   5.237   9.288
 8121W        W12321   8.062   5.696   1.672
 8122W        W12322   9.071   8.536  10.536
 8123W        W12323  10.919   9.145  10.273
 8124W        W12324   6.327  10.034  10.288
 8125W        W12325   8.189   6.552   8.959
 8126W        W12326   2.075   7.082   2.725
 8127W        W12327   7.096  10.563   1.478
 8128W        W12328   6.085   9.796   9.901
 8129W        W12329  10.980   4.896   1.609
 8130W        W12330   0.384   2.612  10.490
 8131W        W12331   9.989   0.770   9.941
 8132W        W12332   1.854  11.008  11.486
 8133W        W12333   0.212   4.520   9.756
 8134W        W12334   2.465   6.162   1.281
 8135W        W12335   7.509   9.705   1.334
 8136W        W12336  11.117   7.846   0.030
 8137W        W12337   4.367   8.962   8.525
 8138W        W12338   8.154   3.181  10.444
 8139W        W12339   1.223   9.967  11.280
 8140W        W12340   3.962  10.864   0.793
 8141W        W12341   6.277  10.972  10.559
 8142W        W12342   5.097   9.640  10.881
 8143W        W12343   5.133   2.620   2.278
 8144W        W12344   3.672   4.351  11.977
 8145W        W12345   2.692  11.200  10.415
 8146W        W12346   7.520   4.058  11.831
 8147W        W12347   9.065   9.542   0.882
 8148W        W12348   7.965   8.477  11.431
 8149W        W12349   2.242  10.957  10.502
 8150W        W12350   2.820   3.653   9.858
 8151W        W12351   7.444  10.781  10.748
 8152W        W12352   1.260   1.006  10.443
 8153W        W12353   6.017   3.815   0.924
 8154W        W12354   5.725   4.256   8.647
 8155W        W12355   2.931   3.022   0.942
 8156W        W12356  10.456   7.863  11.051
 8157W        W12357   1.464  10.305   0.511
 8158W        W12358   6.093   8.961   0.490
 8159W        W12359   2.676   0.765   2.145
 8160W        W12360   1.044   1.379   2.351
 8161W        W12361   5.542   1.487  10.195
 8162W        W12362   2.543  11.450   9.998
 8163W        W12363   7.262  10.504   8.951
 8164W        W12364  10.403   8.924   9.938
 8165W        W12365   1.638   9.058  10.360
 8166W        W12366   9.583   6.137   0.529
 8167W        W12367   3.585   6.993   2.850
 8168W        W12368   7.893   5.344   9.059
 8169W        W12369   8.507   1.231   9.002
 8170W        W12370  11.281   6.602  10.957
 8171W        W12371   3.693   2.811   2.170
 8172W        W12372  11.369   2.563   0.003
 8173W        W12373   3.559  10.175  10.353
 8174W        W12374  10.788   7.597   2.864
 8175W        W12375  10.244   9.675  11.259
 8176W        W12376   3.703   7.428   9.328
 8177W        W12377  11.421  10.972  10.141
 8178W        W12378   3.214   6.964  11.987
 8179W        W12379   5.550   4.463  11.701
 8180W        W12380   4.805  10.934   3.077
 8181W        W12381   4.594   6.285   0.655
 8182W        W12382   5.922   7.241   1.217
 8183W        W12383   5.686   6.666   3.572
 8184W        W12384   2.077   0.072   9.869
 8185W        W12385   3.894   5.103   1.574
 8186W        W12386   6.642   8.319   3.394
 8187W        W12387   8.919   7.797   9.457
 8188W        W12388   3.390   1.414   2.775
 8189W        W12389  10.610   5.460   9.697
 8190W        W12390   1.270   6.439   0.722
 8191W        W12391   8.122   6.598   0.494
 8192W        W12392   6.745  10.392   3.635
 8193W        W12393   3.440   8.239   3.528
 8194W        W12394   6.199   7.006  10.607
 8195W        W12395   0.185  10.865  11.157
 8196W        W12396   7.492   0.286   9.027
 8197W        W12397  11.203   2.913   0.950
 8198W        W12398   8.076   0.292   1.984
 8199W        W12399   0.356   8.456   9.788
 8200W        W12400   1.486   1.251   0.497
 8201W        W12401   7.715   8.426   0.839
 8202W        W12402   8.250   2.254   1.744
 8203W        W12403  11.106   1.367   0.941
 8204W        W12404   6.892  10.916   1.041
 8205W        W12405   0.001   0.546   3.748
 8206W        W12406   1.878   9.452  10.934
 8207W        W12407   9.948   6.520   2.212
 8208W        W12408   8.006   2.712   9.780
 8209W        W12409   2.190   9.920  10.263
 8210W        W12410   6.641   1.366  10.790
 8211W        W12411   8.689   6.599   2.638
 8212W        W12412   2.184   5.189   3.152
 8213W        W12413   8.115   8.641  10.807
 8214W        W12414   7.477   8.609   1.820
 8215W        W12415   5.172   6.237  10.966
 8216W        W12416   6.116  10.906   2.694
 8217W        W12417   5.335   6.064   1.284
 8218W        W12418   9.993   5.429  11.903
 8219W        W12419   7.115  10.577  10.392
 8220W        W12420   3.134  11.071   2.908
 8221W        W12421   4.477   3.600   9.169
 8222W        W12422   2.125  10.171   8.932
 8223W        W12423   7.240   3.313   0.931
 8224W        W12424   7.387   9.105   1.897
 8225W        W12425   2.146  11.001   9.592
 8226W        W12426   7.551   0.587   2.769
 8227W        W12427   8.930   4.547  10.170
 8228W        W12428   3.374   9.589  10.785
 8229W        W12429   7.180   5.577   1.945
 8230W        W12430   0.446   4.155   2.900
 8231W        W12431  10.320   7.636   2.690
 8232W        W12432   0.675  11.055  11.118
 8233W        W12433   2.324   2.274  10.928
 8234W        W12434   7.106   1.490   0.376
 8235W        W12435   2.226  10.769   0.359
 8236W        W12436   3.227   9.770   2.291
 8237W        W12437  11.051   7.912   1.145
 8238W        W12438   6.565   7.858  10.399
 8239W        W12439   0.072   3.802   3.633
 8240W        W12440  10.904   3.148  10.947
 8241W        W12441  10.946   0.166   9.002
 8242W        W12442   5.461   3.656  11.791
 8243W        W12443   6.219   4.155   3.449
 8244W        W12444   2.378   4.047   0.365
 8245W        W12445   2.111   2.715  11.501
 8246W        W12446  10.331   4.068   9.018
 8247W        W12447   1.369   2.706   0.137
 8248W        W12448   8.242   0.980   0.625
 8249W        W12449   7.946   4.091   9.533
 8250W        W12450   5.847   7.635   4.005
 8251W        W12451   8.075   4.732   9.902
 8252W        W12452   4.138   5.222  10.531
 8253W        W12453   1.107   4.434   1.848
 8254W        W12454  11.388  10.061  10.621
 8255W        W12455  11.208   6.298  11.368
 8256W        W12456   7.062   6.421   4.144
 8257W        W12457   5.014   4.728   0.207
 8258W        W12458   9.961   9.227  11.977
 8259W        W12459   0.935   3.656   3.446
 8260W        W12460   5.253   4.539   8.650
 8261W        W12461  11.480   3.512   0.389
 8262W        W12462   1.391  11.487   1.842
 8263W        W12463   1.305  11.126   2.201
 8264W        W12464   9.558   6.777  10.355
 8265W        W12465   5.627   6.527   9.885
 8266W        W12466   3.384   7.137   1.483
 8267W        W12467   1.310   5.994   9.199
 8268W        W12468   1.305   9.921   0.779
 8269W        W12469   0.445  11.418   2.270
 8270W        W12470   6.465   2.035  10.251
 8271W        W12471  10.269  10.539  10.270
 8272W        W12472   7.941   0.973  10.716
 8273W        W12473   6.618   7.817   9.116
 8274W        W12474   1.648   7.243   3.521
 8275W        W12475   4.082  10.747   0.049
 8276W        W12476   8.558  10.742   1.339
 8277W        W12477   6.593   5.722   0.036
 8278W        W12478   6.761   7.071   0.660
 8279W        W12479   6.643   3.281  10.550
 8280W        W12480   7.921   6.431   0.919
 8281W        W12481  10.057   5.874   3.371
 8282W        W12482   4.613  10.010  10.011
 8283W        W12483   9.420  10.661   1.221
 8284W        W12484   9.071   4.282   2.617
 8285W        W12485   8.963   5.569   2.134
 8286W        W12486   9.975   6.817   3.172
 8287W        W12487  11.080   0.952  11.752
 8288W        W12488   3.816   4.432  10.266
 8289W        W12489   9.247   5.812   0.197
 8290W        W12490   5.469   6.270   1.729
 8291W        W12491  11.426   7.312   2.977
 8292W        W12492  10.414   9.403   2.669
 8293W        W12493   6.539   8.316   1.164
 8294W        W12494   9.750   7.265  10.405
 8295W        W12495   4.328   7.216   2.366
 8296W        W12496  11.106   6.357   8.392
 8297W        W12497   4.108   4.872   8.566
 8298W        W12498  11.118   3.106   0.493
 8299W        W12499   1.584   6.687   0.381
 8300W        W12500   8.127   9.390   0.526
 8301W        W12501   8.033   9.936   2.196
 8302W        W12502   4.752  10.799   0.284
 8303W        W12503   8.690   8.865   9.813
 8304W        W12504   3.818  10.404   0.356
 8305W        W12505   9.574   8.895   2.709
 8306W        W12506   6.099   3.757   2.659
 8307W        W12507   0.712  10.271   9.141
 8308W        W12508   1.797   6.537   1.802
 8309W        W12509   0.018   5.063   1.647
 8310W        W12510   3.939   9.360   9.879
 8311W        W12511   1.663  11.282  11.072
 8312W        W12512   3.557   5.599   2.442
 8313W        W12513   2.188   0.166   3.524
 8314W        W12514   9.430   9.248  11.257
 8315W        W12515   6.437   1.680   2.022
 8316W        W12516  10.457   5.557   3.518
 8317W        W12517   1.949   3.135  10.486
 8318W        W12518   1.779   0.005   2.756
 8319W        W12519   6.913   8.245  10.221
 8320W        W12520   9.294   9.270   0.136
 8321W        W12521   2.483   7.983  10.365
 8322W        W12522   2.348   1.835   1.467
 8323W        W12523   4.799   8.008   2.866
 8324W        W12524  11.445  10.061   0.143
 8325W        W12525   7.670   5.177   1.815
 8326W        W12526   2.618   0.699  10.501
 8327W        W12527   3.423   6.460   9.092
 8328W        W12528   5.758  11.200   3.460
 8329W        W12529   4.713   9.798   2.475
 8330W        W12530   2.156   3.274  11.882
 8331W        W12531   3.854   7.127   9.748
 8332W        W12532   3.781   7.420  11.093
 8333W        W12533   7.735   8.455  10.500
 8334W        W12534   0.131   7.799   0.173
 8335W        W12535   1.645   5.748   2.659
 8336W        W12536  10.375   4.748   9.351
 8337W        W12537   6.143   1.248   3.232
 8338W        W12538   1.741   9.130  11.351
 8339W        W12539   8.553   2.722   0.529
 8340W        W12540   3.909  10.287   9.951
 8341W        W12541   9.062   9.977   0.570
 8342W        W12542   2.295   3.235  10.139
 8343W        W12543   8.624   0.060   0.858
 8344W        W12544   7.782   7.930  10.757
 8345W        W12545   1.570   9.754   1.525
 8346W        W12546  10.380   4.573   3.436
 8347W        W12547   6.151   9.017   3.281
 8348W        W12548   7.968  10.032   1.265
 8349W        W12549   8.861   5.469   0.115
 8350W        W12550  11.029   6.195   1.991
 8351W        W12551  11.319   7.702   0.587
 8352W        W12552   5.524   3.687  10.136
 8353W        W12553   8.449   2.181  10.767
 8354W        W12554   3.172   4.798   1.578
 8355W        W12555   1.485   4.763  11.072
 8356W        W12556   3.086   7.112   2.816
 8357W        W12557  10.832   6.345  10.729
 8358W        W12558   3.384  10.463   3.468
 8359W        W12559   6.249   9.962   1.700
 8360W        W12560   1.810   1.400  11.389
 8361W        W12561  10.881   6.601   8.827
 8362W        W12562   6.934   4.645   3.180
 8363W        W12563  10.343   8.306   1.224
 8364W        W12564   2.353   1.136   0.490
 8365W        W12565   0.563   2.428   2.377
 8366W        W12566   6.656   2.862  11.584
 8367W        W12567  10.794   2.912   3.630
 8368W        W12568   2.603   9.858   9.888
 8369W        W12569   2.240   0.509  11.797
 8370W        W12570   7.795   8.159   1.401
 8371W        W12571   0.280   1.293   1.713
 8372W        W12572  11.042  10.446   9.467
 8373W        W12573   5.494   6.150   9.520
 8374W        W12574   3.494   2.125   3.234
 8375W        W12575   0.475   7.091   1.699
 8376W        W12576   3.888   1.507   0.390
 8377W        W12577   5.560   7.822   9.539
 8378W        W12578   9.074   7.739   1.193
 8379W        W12579   7.514   8.682   0.425
 8380W        W12580  10.417  10.395   1.657
 8381W        W12581   4.179   8.539   3.046
 8382W        W12582   4.327   9.001   3.285
 8383W        W12583   8.604   8.346   3.019
 8384W        W12584   5.524   0.337   1.383
 8385W        W12585  11.101   3.405   2.960
 8386W        W12586   5.817  10.558  11.785
 8387W        W12587   4.530   4.868   0.094
 8388W        W12588   1.704   4.933   3.149
 8389W        W12589   8.088   1.838   9.430
 8390W        W12590   9.836   3.431   3.141
 8391W        W12591   7.883   1.763   1.014
 8392W        W12592  11.341  11.031  11.564
 8393W        W12593   5.176   6.501   0.174
 8394W        W12594   2.178  11.474   9.381
 8395W        W12595   0.653  11.081   0.268
 8396W        W12596   5.176   1.852   1.332
 8397W        W12597   6.467   5.056  10.972
 8398W        W12598   3.143   4.301   1.338
 8399W        W12599   1.746   9.972   2.873
 8400W        W12600   4.627   8.220   3.667
 8401W        W12601   6.975   8.879   0.075
 8402W        W12602   5.075   1.905   9.307
 8403W        W12603   2.056  11.067   8.614
 8404W        W12604   7.428   3.286   1.575
 8405W        W12605   0.241   1.074   0.895
 8406W        W12606   1.008  10.995  11.500
 8407W        W12607   4.471  11.076  11.931
 8408W        W12608   1.150  10.057   8.903
 8409W        W12609   5.613   9.811  11.437
 8410W        W12610   5.198   0.424   2.798
 8411W        W12611   3.300   3.275  11.058
 8412W        W12612  10.077   6.034   2.115
 8413W        W12613   0.506  10.561   0.079
 8414W        W12614   2.153   4.546   3.177
 8415W        W12615   3.379   2.418  11.489
 8416W        W12616   4.310   2.183   1.223
 8417W        W12617   5.840   8.665  11.862
 8418W        W12618   6.036   0.321  11.290
 8419W        W12619   4.179   0.232   2.809
 8420W        W12620   0.797   4.516   0.321
 8421W        W12621   9.942   8.583   1.051
 8422W        W12622   6.033   0.822  11.073
 8423W        W12623   5.205   0.531   9.228
 8424W        W12624   9.002   2.514  11.965
 8425W        W12625   7.760   6.160  10.225
 8426W        W12626   2.085   5.070   9.529
 8427W        W12627   2.437   0.354  10.845
 8428W        W12628   9.984   5.379   3.398
 8429W        W12629   5.096   9.122   9.492
 8430W        W12630   4.366   7.210   1.452
 8431W        W12631   8.406   0.237   0.400
 8432W        W12632   0.873  10.216  10.969
 8433W        W12633   2.078   9.452   0.757
 8434W        W12634   4.834   3.831  10.496
 8435W        W12635   3.530   5.235   0.868
 8436W        W12636   1.201   3.116   2.300
 8437W        W12637   7.328   0.561   1.374
 8438W        W12638   0.275   3.921   1.520
 8439W        W12639   8.847   2.249   9.895
 8440W        W12640   0.165  10.983   0.445
 8441W        W12641   9.479   9.856   9.884
 8442W        W12642  10.401   6.172  11.653
 8443W        W12643   1.307   6.499   9.264
 8444W        W12644   8.823   4.084  10.404
 8445W        W12645   7.967   7.501   0.292
 8446W        W12646   0.721   2.783  11.465
 8447W        W12647   6.352   7.639   4.064
 8448W        W12648   0.479   4.828   8.961
 8449W        W12649   5.023   0.465   2.298
 8450W        W12650   6.994  10.246  10.020
 8451W        W12651   3.879   8.815   3.455
 8452W        W12652   4.533   8.913  11.421
 8453W        W12653   4.628   2.336   2.173
 8454W        W12654   0.572   4.300   1.224
 8455W        W12655   3.739   7.141   8.897
 8456W        W12656   0.361   6.472  10.189
 8457W        W12657   0.277   0.870   9.722
 8458W        W12658   5.780   8.129   0.005
 8459W        W12659   5.611   9.304  10.779
 8460W        W12660   1.899   1.078   0.222
 8461W        W12661   2.808   4.675   9.144
 8462W        W12662  10.745   7.150   2.233
 8463W        W12663  10.373   7.143   0.738
 8464W        W12664  10.608   1.345   1.071
 8465W        W12665   6.175   0.382   0.657
 8466W        W12666  11.429   8.161   2.621
 8467W        W12667   2.567   1.585   9.001
 8468W        W12668   4.398   6.608  10.457
 8469W        W12669   8.589  10.245  10.571
 8470W        W12670   3.313   0.309   9.625
 8471W        W12671   3.211   3.652  10.361
 8472W        W12672   7.111   6.052   0.871
 8473W        W12673   7.053   7.582   8.976
 8474W        W12674   8.145   1.851  10.491
 8475W        W12675  11.388   4.117   1.861
 8476W        W12676   4.791   1.907  11.677
 8477W        W12677   6.985   5.734  10.434
 8478W        W12678   6.020   9.571  10.580
 8479W        W12679   5.103   7.819   9.799
 8480W        W12680   3.816   3.624   9.771
 8481W        W12681   1.067   8.941   1.506
 8482W        W12682   5.181   8.697   0.616
 8483W        W12683   7.954   7.042   2.067
 8484W        W12684   9.142   5.185   0.468
 8485W        W12685   4.797  10.373   9.666
 8486W        W12686   8.388   5.511  10.317
 8487W        W12687   2.655  10.882   0.627
 8488W        W12688   9.384   0.845   1.258
 8489W        W12689   9.788   2.641   9.099
 8490W        W12690  10.854   3.011   9.923
 8491W        W12691  11.338   0.574  11.263
 8492W        W12692   2.770   1.025  11.430
 8493W        W12693   2.199   2.153   3.418
 8494W        W12694   9.457   1.470  10.096
 8495W        W12695   5.934   1.819  10.207
 8496W        W12696   4.501   7.606   2.704
 8497W        W12697   5.463   6.105   2.749
 8498W        W12698   4.784   8.509   2.800
 8499W        W12699   4.194   2.932   1.915
 8500W        W12700   6.053  10.960   0.696
 8501W        W12701   7.896   4.190  10.589
 8502W        W12702   4.299  11.052   0.420
 8503W        W12703   5.188  11.422  11.103
 8504W        W12704   7.238   9.244   9.954
 8505W        W12705   9.388   6.184  11.541
 8506W        W12706  10.670   3.890   3.596
 8507W        W12707   3.941   8.004  10.499
 8508W        W12708   6.791  10.768  10.789
 8509W        W12709   4.897  10.125   0.922
 8510W        W12710   1.678   0.877   3.473
 8511W        W12711   7.094  10.474   9.459
 8512W        W12712   9.857  10.791   8.986
 8513W        W12713   2.143   0.167   2.436
 8514W        W12714   2.385   6.115  11.330
 8515W        W12715   4.161   1.716   9.144
 8516W        W12716  10.464   4.320  11.014
 8517W        W12717   9.785   0.402   1.295
 8518W        W12718   0.914   4.980   0.515
 8519W        W12719   1.328   5.308   9.925
 8520W        W12720   8.478   5.804   0.811
 8521W        W12721   1.167   8.148  11.307
 8522W        W12722   0.215   3.457  11.942
 8523W        W12723   2.730   3.851   0.674
 8524W        W12724   2.616   5.090   9.419
 8525W        W12725   9.882   5.703   0.747
 8526W        W12726   8.589   8.273   1.040
 8527W        W12727   6.046   9.443   8.616
 8528W        W12728   9.608   3.135  10.530
 8529W        W12729   6.346   2.099   1.727
 8530W        W12730   5.816   9.868   1.464
 8531W        W12731   7.116   9.895   2.184
 8532W        W12732   4.642  11.262   9.613
 8533W        W12733   5.705   8.331   9.489
 8534W        W12734   5.652   5.826   1.972
 8535ION    NA+12735   2.768   6.713  11.892
 8536ION    NA+12736   4.193   1.089   2.056
 8537ION    NA+12737   0.915  10.670   3.311
 8538ION    NA+12738   6.829   0.868   1.354
 8539ION    NA+12739   7.203   3.419   9.475
 8540ION    NA+12740  10.308   9.596   3.462
 8541ION    NA+12741  11.464   2.012  11.415
 8542ION    NA+12742   5.634   4.057   0.641
 8543ION    NA+12743  11.238   7.147   9.655
 8544ION    NA+12744   8.226   4.615   9.418
 8545ION    NA+12745   6.827   6.436  10.902
 8546ION    NA+12746   7.750   2.287   1.665
 8547ION    NA+12747   8.059   4.987   0.990
 8548ION    NA+12748   8.125   2.304   3.239
 8549ION    NA+12749   1.845  11.006   1.007
 8550ION    NA+12750   0.921   9.291  11.896
 8551ION    NA+12751   7.861   6.239  11.510
 8552ION    NA+12752   5.342   1.601   3.229
 8553ION    NA+12753   3.996  10.438  10.469
 8554ION    NA+12754   1.842   3.111   9.922
 8555ION    NA+12755   9.845   4.726   2.264
 8556ION    NA+12756   0.873   8.678   0.838
 8557ION    NA+12757   6.328   7.428  11.914
 8558ION    NA+12758   8.052   3.415   3.135
 8559ION    NA+12759   8.886   6.300  10.670
 8560ION    NA+12760   9.734   7.753   0.951
 8561ION    NA+12761   6.397  11.004   3.162
 8562ION    NA+12762   8.238   2.287   0.405
 8563ION    NA+12763   0.932   2.803   9.642
 8564ION    NA+12764   2.117   0.624   0.300
 8565ION    NA+12765   3.398   2.835  11.797
 8566ION    NA+12766   6.631   7.643   1.896
 8567ION    NA+12767   3.220   4.871   8.250
 8568ION    NA+12768   4.744  11.048   2.581
 8569ION    NA+12769   5.694  10.295   1.212
 8570ION    NA+12770   3.162   4.708  10.829
 8571ION    NA+12771  10.421   0.481  11.519
 8572ION    NA+12772   7.109   7.529   3.409
 8573ION    NA+12773   7.637   3.767   0.262
 8574ION    NA+12774  10.240   7.437  11.968
 8575ION    NA+12775   3.677  10.055   2.217
 8576ION    NA+12776   3.217   1.131  10.181
 8577ION    NA+12777   1.472   7.684   9.995
 8578ION    NA+12778   1.332   8.858   8.888
 8579ION    NA+12779   3.131   9.416  11.843
 8580ION    NA+12780   8.908   0.164   1.302
 8581ION    NA+12781   0.544   5.229   9.797
 8582ION    NA+12782   5.616   7.096   2.420
 8583ION    NA+12783   2.912   3.857   9.392
 8584ION    NA+12784   7.020   5.632   0.563
 8585ION    NA+12785   3.496  11.435   1.714
 8586ION    NA+12786   0.930  10.804   2.320
 8587ION    NA+12787   4.826   6.522   1.940
 8588ION    NA+12788   1.032   6.261   3.100
 8589ION    NA+12789   9.809   1.956   8.799
 8590ION    NA+12790   6.693   6.829   3.172
 8591ION    NA+12791   9.174  10.355   1.845
 8592ION    NA+12792   1.500   4.164   0.733
 8593ION    NA+12793   1.659   4.373   1.877
 8594ION    NA+12794   3.202   6.446   3.564
 8595ION    NA+12795   9.643   7.697   3.469
 8596ION    NA+12796   5.773   8.039  11.485
 8597ION    NA+12797   1.169   6.003   9.697
 8598ION    NA+12798   8.466   3.648   2.195
 8599ION    NA+12799   9.832   2.324   3.773
 8600ION    NA+12800   7.407   1.750   0.049
 8601ION    NA+12801   8.530   8.387   2.502
 8602ION    NA+12802  11.478  10.979   3.148
 8603ION    NA+12803   6.822   7.499   4.195
 8604ION    NA+12804   5.314  11.286  11.575
 8605ION    NA+12805   6.046   2.558   2.612
 8606ION    NA+12806   8.295   8.543   9.815
 8607ION    NA+12807   7.321   8.898   1.428
 8608ION    NA+12808   4.701  10.154   2.136
 8609ION    NA+12809   4.261   5.809   1.993
 8610ION    NA+12810   0.029   8.018   1.898
 8611ION    NA+12811   4.152  10.018   1.311
 8612ION    NA+12812   8.143   0.911   9.746
 8613ION    NA+12813   4.358   5.916   0.383
 8614ION    NA+12814  10.098   0.423   0.874
 8615ION    NA+12815   9.724   7.862   9.025
 8616ION    NA+12816   6.007   3.904   1.824
 8617ION    NA+12817   7.322   9.363  10.835
 8618ION    NA+12818   5.908   3.236   3.344
 8619ION    NA+12819   1.768   1.143   1.353
 8620ION    NA+12820   7.657   2.865   8.639
 8621ION    NA+12821   6.196   8.467   9.512
 8622ION    NA+12822   0.648   4.670   1.611
 8623ION    NA+12823   3.193   6.579   8.611
 8624ION    NA+12824   4.129   6.807   0.255
 8625ION    CL-12825   5.549   1.719   2.141
 8626ION    CL-12826   0.205   7.860  11.282
 8627ION    CL-12827  11.334   4.323   8.647
 8628ION    CL-12828   2.109   8.478   2.309
 8629ION    CL-12829   7.038   7.829   1.870
 8630ION    CL-12830   4.723   9.005   1.513
 8631ION    CL-12831   8.192   3.594  11.387
 8632ION    CL-12832   0.133   7.836   2.290
 8633ION    CL-12833   9.245   5.852   3.560
 8634ION    CL-12834   0.279   0.878   0.203
 8635ION    CL-12835   7.458  11.459   0.807
 8636ION    CL-12836   3.320  11.301   1.328
 8637ION    CL-12837   6.938   3.145   9.707
 8638ION    CL-12838   5.026   0.533   1.414
 8639ION    CL-12839  11.466  11.412   3.033
 8640ION    CL-12840   4.768   1.191  11.017
 8641ION    CL-12841   5.821   9.940   0.954
 8642ION    CL-12842  11.132   7.355   9.273
 8643ION    CL-12843   0.257   4.443   1.621
 8644ION    CL-12844   6.054   7.776  11.753
 8645ION    CL-12845  10.609  10.944  10.120
 8646ION    CL-12846   3.570  11.332  11.996
 8647ION    CL-12847   7.230   1.057   1.420
 8648ION    CL-12848   9.117   1.577   3.542
 8649ION    CL-12849   3.243  11.137   9.126
 8650ION    CL-12850   0.967  10.350   9.588
 8651ION    CL-12851   3.430   2.944   3.180
 8652ION    CL-12852   6.928   7.215   3.116
 8653ION    CL-12853   6.706   2.784  10.611
 8654ION    CL-12854  11.466   3.541   1.303
 8655ION    CL-12855   2.363   0.438  10.130
 8656ION    CL-12856   9.465  10.662  10.358
 8657ION    CL-12857   0.979   7.858   3.387
 8658ION    CL-12858   6.488   7.297   4.431
 8659ION    CL-12859   8.480   4.938   3.645
 8660ION    CL-12860   5.384   2.847   8.535
 8661ION    CL-12861   8.191   6.510   2.750
 8662ION    CL-12862   7.001   9.501   2.506
 8663ION    CL-12863   5.198   3.382   2.725
 8664ION    CL-12864  11.204   3.553  11.927
 8665ION    CL-12865  10.530   3.203   1.402
 8666ION    CL-12866   7.515   7.312   9.667
 8667ION    CL-12867   1.020   1.520   0.399
 8668ION    CL-12868   3.331   1.554  10.100
 8669ION    CL-12869  10.881   3.603  10.120
 8670ION    CL-12870   1.353   1.230   9.657
 8671ION    CL-12871  11.440   5.491   2.328
 8672ION    CL-12872   2.660   6.824   9.956
 8673ION    CL-12873   6.886   9.420  10.768
 8674ION    CL-12874   8.319   4.620   0.960
 8675ION    CL-12875   4.249   8.733  11.011
 8676ION    CL-12876   5.301   3.755   0.674
 8677ION    CL-12877   0.227   5.258  10.112
 8678ION    CL-12878   5.812   4.154   2.141
 8679ION    CL-12879   9.181   9.560   3.570
 8680ION    CL-12880  10.981   5.550   8.113
 8681ION    CL-12881   3.025   7.759   9.877
 8682ION    CL-12882   5.320   1.178  11.964
 8683ION    CL-12883   9.900   6.692   1.198
 8684ION    CL-12884   9.202   7.179   2.914
 8685ION    CL-12885   4.086   7.263   0.306
 8686ION    CL-12886   9.327   6.386  10.660
 8687ION    CL-12887   0.684   4.656   2.869
 8688ION    CL-12888  10.436  10.447   1.142
 8689ION    CL-12889   7.128  10.104   1.279
 8690ION    CL-12890   5.306   3.697   9.626
 8691ION    CL-12891   4.535   6.175   2.004
 8692ION    CL-12892   4.231   6.351   0.302
 8693ION    CL-12893  10.906   0.882   8.499
 8694ION    CL-12894   5.539   8.308  11.194
 8695ION    CL-12895   5.331   3.116  11.558
 8696ION    CL-12896   4.461   3.060   8.855
 8697ION    CL-12897   9.966   7.465  11.616
 8698ION    CL-12898   0.722   6.006   3.325
 8699ION    CL-12899  10.106   3.125   2.833
 8700ION    CL-12900   9.337   7.826   0.756
 8701ION    CL-12901   7.485   1.758  11.609
 8702ION    CL-12902   2.747   5.635   2.064
 8703ION    CL-12903   5.672  10.702   1.416
 8704ION    CL-12904   1.233   2.288   1.860
 8705ION    CL-12905   1.152  11.270  11.034
 8706ION    CL-12906   4.896   1.927   9.806
 8707ION    CL-12907   8.076  11.294   1.836
 8708ION    CL-12908   1.227   9.336   2.745
 8709ION    CL-12909   6.628   7.108   0.033
 8710ION    CL-12910   1.754  10.743  10.345
 8711ION    CL-12911   0.858   4.983   1.349
 8712ION    CL-12912   6.040   9.547  11.558
 8713ION    CL-12913   5.459  10.330   8.902
 8714ION    CL-12914   9.525  10.317   1.571
  11.50000  11.50000  12.00000
