Protein in INSANE! Membrane UpperLeaflet>POPC=1.0 LowerLeaflet>POPC=1.0
11125
    1AU     AUC    1   5.238   5.287   6.002
    1AU     AUC    2   5.529   5.282   5.836
    1AU     AUC    3   5.480   5.268   6.176
    1AU     AUC    4   4.971   5.282   5.838
    1AU     AUC    5   4.972   5.328   6.186
    1AU     AUC    6   5.082   5.568   6.000
    1AU     AUC    7   5.427   5.554   5.991
    1AU     AUC    8   5.046   5.019   6.003
    1AU     AUC    9   5.398   5.001   6.008
    1AU     AUC   10   5.232   5.109   6.273
    1AU     AUC   11   5.235   5.475   6.264
    1AU     AUC   12   5.234   5.121   5.733
    1AU     AUC   13   5.274   5.439   5.720
    1AU     AUC   14   5.857   5.272   5.694
    1AU     AUC   15   5.846   5.255   6.032
    1AU     AUC   16   5.776   5.242   6.384
    1AU     AUC   17   4.651   5.296   5.672
    1AU     AUC   18   4.636   5.338   6.037
    1AU     AUC   19   4.682   5.373   6.371
    1AU     AUC   20   4.937   5.889   5.972
    1AU     AUC   21   5.291   5.902   5.944
    1AU     AUC   22   5.615   5.836   5.979
    1AU     AUC   23   4.841   4.743   6.000
    1AU     AUC   24   5.178   4.676   5.970
    1AU     AUC   25   5.566   4.683   5.997
    1AU     AUC   26   5.208   4.929   6.568
    1AU     AUC   27   5.231   5.290   6.605
    1AU     AUC   28   5.274   5.649   6.553
    1AU     AUC   29   5.266   4.951   5.455
    1AU     AUC   30   5.259   5.271   5.386
    1AU     AUC   31   5.266   5.584   5.408
    1AU     AUC   32   5.492   5.048   6.502
    1AU     AUC   33   5.536   5.435   6.499
    1AU     AUC   34   5.581   5.111   5.526
    1AU     AUC   35   5.579   5.456   5.531
    1AU     AUC   36   4.930   5.168   6.517
    1AU     AUC   37   4.963   5.541   6.489
    1AU     AUC   38   4.935   5.110   5.549
    1AU     AUC   39   4.922   5.425   5.497
    1AU     AUC   40   5.782   5.561   5.826
    1AU     AUC   41   5.704   5.546   6.195
    1AU     AUC   42   4.763   5.600   5.836
    1AU     AUC   43   4.787   5.664   6.189
    1AU     AUC   44   5.742   4.965   5.868
    1AU     AUC   45   5.681   4.930   6.195
    1AU     AUC   46   4.707   5.004   5.870
    1AU     AUC   47   4.757   5.054   6.216
    1AU     AUC   48   5.110   5.825   6.257
    1AU     AUC   49   5.443   5.767   6.273
    1AU     AUC   50   5.028   4.824   6.291
    1AU     AUC   51   5.349   4.753   6.270
    1AU     AUC   52   5.082   5.720   5.682
    1AU     AUC   53   5.464   5.735   5.662
    1AU     AUC   54   5.033   4.809   5.712
    1AU     AUC   55   5.422   4.830   5.722
    1AU    AUSL   56   5.763   5.159   6.758
    1AU    AUSL   57   5.489   4.743   6.670
    1AU     AUL   58   5.764   4.770   6.856
    1AU       S   59   5.820   4.350   6.655
    1AU     LIG   60   5.938   3.988   6.920
    1AU     LIG   61   6.144   3.640   7.189
    1AU     LIG   62   6.392   3.460   7.550
    1AU     LIG   63   6.389   3.439   8.021
    1AU       S   64   6.024   5.153   6.930
    1AU     LIG   65   6.253   5.397   7.248
    1AU     LIG   66   6.438   5.278   7.674
    1AU     LIG   67   6.690   5.164   8.070
    1AU     LIG   68   7.014   5.233   8.419
    1AU    AUSL   69   5.354   5.078   6.913
    1AU    AUSL   70   5.100   5.473   6.936
    1AU     AUL   71   5.300   5.351   7.202
    1AU       S   72   5.655   5.043   7.215
    1AU     LIG   73   5.301   4.783   7.489
    1AU     LIG   74   5.311   4.617   7.937
    1AU     LIG   75   5.629   4.606   8.301
    1AU     LIG   76   5.902   4.662   8.689
    1AU       S   77   4.862   5.224   7.152
    1AU     LIG   78   4.887   5.169   7.646
    1AU     LIG   79   4.693   5.121   8.072
    1AU     LIG   80   4.543   5.193   8.514
    1AU     LIG   81   4.621   5.453   8.915
    1AU    AUSL   82   5.433   5.462   6.673
    1AU    AUSL   83   5.886   5.550   6.618
    1AU     AUL   84   5.678   5.466   6.950
    1AU       S   85   5.346   5.825   7.098
    1AU     LIG   86   5.627   5.957   7.425
    1AU     LIG   87   5.728   6.001   7.896
    1AU     LIG   88   5.770   5.983   8.380
    1AU     LIG   89   5.785   5.893   8.851
    1AU       S   90   6.056   5.712   6.833
    1AU     LIG   91   6.477   5.752   6.926
    1AU     LIG   92   6.747   5.999   7.200
    1AU     LIG   93   6.945   6.236   7.544
    1AU     LIG   94   7.286   6.434   7.795
    1AU    AUSL   95   5.740   5.314   5.380
    1AU    AUSL   96   5.663   5.752   5.349
    1AU     AUL   97   5.832   5.633   5.108
    1AU       S   98   5.699   5.351   4.785
    1AU     LIG   99   6.022   5.311   4.457
    1AU     LIG  100   6.243   5.019   4.181
    1AU     LIG  101   6.342   4.924   3.742
    1AU     LIG  102   6.561   5.096   3.370
    1AU       S  103   6.042   5.966   5.369
    1AU     LIG  104   6.135   6.185   4.962
    1AU     LIG  105   6.305   6.402   4.575
    1AU     LIG  106   6.503   6.647   4.240
    1AU     LIG  107   6.713   6.978   4.011
    1AU    AUSL  108   5.545   5.040   5.092
    1AU    AUSL  109   5.993   4.975   5.449
    1AU     AUL  110   5.940   5.165   5.166
    1AU       S  111   6.091   4.714   5.230
    1AU     LIG  112   6.258   4.393   4.899
    1AU     LIG  113   6.477   4.004   4.727
    1AU     LIG  114   6.750   3.731   4.449
    1AU     LIG  115   7.153   3.721   4.184
    1AU       S  116   5.687   5.128   4.774
    1AU     LIG  117   5.895   4.803   4.556
    1AU     LIG  118   5.872   4.669   4.109
    1AU     LIG  119   5.857   4.765   3.653
    1AU     LIG  120   6.107   4.845   3.263
    1AU    AUSL  121   5.386   5.459   5.181
    1AU    AUSL  122   5.138   5.086   5.235
    1AU     AUL  123   5.259   5.100   4.933
    1AU       S  124   4.802   5.113   4.801
    1AU     LIG  125   4.722   4.785   4.477
    1AU     LIG  126   4.621   4.596   4.044
    1AU     LIG  127   4.498   4.679   3.596
    1AU     LIG  128   4.628   4.800   3.163
    1AU       S  129   5.464   5.504   4.837
    1AU     LIG  130   5.500   5.358   4.343
    1AU     LIG  131   5.790   5.184   3.991
    1AU     LIG  132   5.975   5.258   3.554
    1AU     LIG  133   5.905   5.454   3.127
    1AU    AUSL  134   4.701   5.433   6.747
    1AU    AUSL  135   5.030   5.773   6.634
    1AU     AUL  136   4.869   5.709   6.960
    1AU       S  137   4.688   5.334   7.190
    1AU     LIG  138   4.395   5.185   7.481
    1AU     LIG  139   4.290   4.912   7.845
    1AU     LIG  140   4.141   4.929   8.298
    1AU     LIG  141   3.779   5.078   8.580
    1AU       S  142   4.634   6.051   6.735
    1AU     LIG  143   4.525   6.241   7.156
    1AU     LIG  144   4.352   6.459   7.556
    1AU     LIG  145   4.122   6.715   7.903
    1AU     LIG  146   3.950   6.847   8.336
    1AU    AUSL  147   5.006   5.136   6.666
    1AU    AUSL  148   4.578   5.013   6.641
    1AU     AUL  149   4.501   5.236   6.780
    1AU       S  150   4.467   4.778   6.898
    1AU     LIG  151   4.016   4.578   6.901
    1AU     LIG  152   3.770   4.168   6.927
    1AU     LIG  153   3.525   3.829   7.172
    1AU     LIG  154   3.089   3.705   7.367
    1AU       S  155   4.878   5.072   7.050
    1AU     LIG  156   4.700   4.792   7.380
    1AU     LIG  157   4.772   4.670   7.804
    1AU     LIG  158   4.564   4.625   8.201
    1AU     LIG  159   4.439   4.597   8.634
    1AU    AUSL  160   4.721   5.206   5.285
    1AU    AUSL  161   4.911   4.816   5.474
    1AU     AUL  162   4.915   4.828   5.140
    1AU       S  163   4.585   5.108   4.968
    1AU     LIG  164   4.290   4.973   4.694
    1AU     LIG  165   4.245   4.897   4.234
    1AU     LIG  166   4.052   4.908   3.797
    1AU     LIG  167   3.621   5.042   3.603
    1AU       S  168   4.505   4.686   5.293
    1AU     LIG  169   4.312   4.361   5.036
    1AU     LIG  170   4.022   4.054   4.797
    1AU     LIG  171   3.750   3.824   4.486
    1AU     LIG  172   3.698   3.567   4.098
    1AU    AUSL  173   4.983   5.483   5.052
    1AU    AUSL  174   4.521   5.573   5.421
    1AU     AUL  175   4.633   5.545   5.100
    1AU       S  176   4.245   5.759   5.269
    1AU     LIG  177   4.051   6.056   4.943
    1AU     LIG  178   3.957   6.282   4.542
    1AU     LIG  179   3.618   6.418   4.251
    1AU     LIG  180   3.141   6.475   4.181
    1AU       S  181   4.881   5.339   4.761
    1AU     LIG  182   4.609   5.272   4.367
    1AU     LIG  183   4.590   5.107   3.915
    1AU     LIG  184   4.628   5.214   3.459
    1AU     LIG  185   4.759   5.465   3.070
    1AU    AUSL  186   6.052   5.787   6.029
    1AU    AUSL  187   6.010   5.560   5.604
    1AU     AUL  188   6.318   5.857   5.778
    1AU       S  189   6.129   5.628   5.448
    1AU     LIG  190   6.459   5.782   5.139
    1AU     LIG  191   6.632   6.090   4.843
    1AU     LIG  192   6.821   6.313   4.491
    1AU     LIG  193   7.038   6.654   4.261
    1AU       S  194   6.498   5.835   6.201
    1AU     LIG  195   6.931   5.928   6.017
    1AU     LIG  196   7.363   6.123   5.982
    1AU     LIG  197   7.539   6.541   6.097
    1AU     LIG  198   7.812   6.793   6.384
    1AU    AUSL  199   6.226   5.379   5.931
    1AU    AUSL  200   6.143   5.059   6.266
    1AU     AUL  201   6.313   5.294   6.413
    1AU       S  202   6.450   5.462   5.992
    1AU     LIG  203   6.882   5.413   5.887
    1AU     LIG  204   7.279   5.617   5.789
    1AU     LIG  205   7.705   5.741   5.811
    1AU     LIG  206   8.079   5.537   5.588
    1AU       S  207   6.397   4.913   6.131
    1AU     LIG  208   6.790   4.689   6.272
    1AU     LIG  209   7.234   4.486   6.227
    1AU     LIG  210   7.671   4.347   6.317
    1AU     LIG  211   8.094   4.487   6.479
    1AU    AUSL  212   5.904   5.407   6.218
    1AU    AUSL  213   5.708   5.799   6.292
    1AU     AUL  214   6.075   5.733   6.366
    1AU       S  215   6.046   5.999   6.747
    1AU     LIG  216   6.374   6.266   6.949
    1AU     LIG  217   6.699   6.541   7.186
    1AU     LIG  218   6.896   6.972   7.304
    1AU     LIG  219   6.990   7.464   7.284
    1AU       S  220   6.504   5.643   6.192
    1AU     LIG  221   6.918   5.570   6.374
    1AU     LIG  222   7.359   5.700   6.286
    1AU     LIG  223   7.780   5.714   6.460
    1AU     LIG  224   8.124   5.967   6.636
    1AU    AUSL  225   4.628   5.891   6.010
    1AU    AUSL  226   4.661   5.684   6.407
    1AU     AUL  227   4.388   6.018   6.235
    1AU       S  228   4.519   5.839   6.638
    1AU     LIG  229   4.197   5.883   6.929
    1AU     LIG  230   4.022   6.167   7.258
    1AU     LIG  231   3.836   6.397   7.615
    1AU     LIG  232   3.592   6.523   8.000
    1AU       S  233   4.645   6.281   5.933
    1AU     LIG  234   4.220   6.478   5.774
    1AU     LIG  235   3.742   6.621   5.865
    1AU     LIG  236   3.265   6.767   5.961
    1AU     LIG  237   2.797   6.673   6.063
    1AU    AUSL  238   4.569   5.489   5.830
    1AU    AUSL  239   4.691   5.946   5.590
    1AU     AUL  240   4.397   5.850   5.711
    1AU       S  241   4.185   5.268   5.449
    1AU     LIG  242   3.790   5.510   5.365
    1AU     LIG  243   3.403   5.769   5.513
    1AU     LIG  244   3.069   6.109   5.463
    1AU     LIG  245   2.601   6.163   5.470
    1AU       S  246   4.541   6.203   5.424
    1AU     LIG  247   4.256   6.456   5.212
    1AU     LIG  248   4.191   6.662   4.798
    1AU     LIG  249   3.951   7.000   4.577
    1AU     LIG  250   3.622   7.314   4.682
    1AU    AUSL  251   4.321   5.564   6.187
    1AU    AUSL  252   4.270   5.192   5.905
    1AU     AUL  253   4.166   5.495   5.881
    1AU       S  254   4.051   5.134   6.177
    1AU     LIG  255   3.624   5.149   5.947
    1AU     LIG  256   3.350   4.835   5.748
    1AU     LIG  257   2.948   4.636   5.730
    1AU     LIG  258   2.558   4.800   5.629
    1AU       S  259   4.159   5.610   6.379
    1AU     LIG  260   3.684   5.541   6.332
    1AU     LIG  261   3.263   5.693   6.483
    1AU     LIG  262   2.865   5.948   6.443
    1AU     LIG  263   2.467   6.215   6.338
    1AU    AUSL  264   5.960   4.695   6.085
    1AU    AUSL  265   5.743   4.960   6.385
    1AU     AUL  266   6.070   4.856   6.486
    1AU       S  267   6.288   4.618   6.125
    1AU     LIG  268   6.557   4.280   6.039
    1AU     LIG  269   6.992   4.099   5.983
    1AU     LIG  270   7.443   3.939   6.060
    1AU     LIG  271   7.777   3.844   6.375
    1AU       S  272   5.955   4.427   6.519
    1AU     LIG  273   6.328   4.275   6.747
    1AU     LIG  274   6.484   4.029   7.131
    1AU     LIG  275   6.744   3.838   7.482
    1AU     LIG  276   7.042   3.865   7.858
    1AU    AUSL  277   5.938   5.073   5.859
    1AU    AUSL  278   5.843   4.618   5.672
    1AU     AUL  279   6.129   4.770   5.713
    1AU       S  280   6.471   4.965   5.936
    1AU     LIG  281   6.770   4.671   5.764
    1AU     LIG  282   7.187   4.494   5.714
    1AU     LIG  283   7.608   4.353   5.794
    1AU     LIG  284   7.994   4.310   5.554
    1AU       S  285   6.051   4.468   5.352
    1AU     LIG  286   5.998   4.037   5.198
    1AU     LIG  287   6.230   3.654   5.010
    1AU     LIG  288   6.545   3.361   4.789
    1AU     LIG  289   6.761   2.922   4.790
    1AU    AUSL  290   4.442   4.814   6.066
    1AU    AUSL  291   4.581   5.038   5.654
    1AU     AUL  292   4.222   4.897   5.784
    1AU       S  293   4.433   4.846   5.376
    1AU     LIG  294   4.041   4.789   5.157
    1AU     LIG  295   3.764   4.423   5.055
    1AU     LIG  296   3.481   4.113   4.841
    1AU     LIG  297   3.119   4.047   4.538
    1AU       S  298   4.037   4.898   6.222
    1AU     LIG  299   3.669   4.657   6.114
    1AU     LIG  300   3.214   4.539   6.166
    1AU     LIG  301   2.875   4.319   6.396
    1AU     LIG  302   2.555   3.967   6.323
    1AU    AUSL  303   4.536   5.201   6.261
    1AU    AUSL  304   4.785   4.802   6.324
    1AU     AUL  305   4.445   4.780   6.399
    1AU       S  306   4.492   4.557   6.796
    1AU     LIG  307   4.256   4.160   6.691
    1AU     LIG  308   4.001   3.744   6.705
    1AU     LIG  309   3.726   3.417   6.923
    1AU     LIG  310   3.295   3.324   7.108
    1AU       S  311   4.144   5.133   6.375
    1AU     LIG  312   3.631   5.053   6.451
    1AU     LIG  313   3.201   5.048   6.217
    1AU     LIG  314   2.769   4.870   6.166
    1AU     LIG  315   2.443   4.656   6.439
    1AU    AUSL  316   5.310   6.005   6.398
    1AU    AUSL  317   4.871   6.057   6.329
    1AU     AUL  318   5.101   6.089   6.694
    1AU       S  319   4.730   6.266   6.457
    1AU     LIG  320   4.368   6.471   6.728
    1AU     LIG  321   4.149   6.660   7.123
    1AU     LIG  322   3.927   7.041   7.347
    1AU     LIG  323   3.695   7.490   7.352
    1AU       S  324   5.347   6.399   6.462
    1AU     LIG  325   5.507   6.584   6.840
    1AU     LIG  326   5.567   7.025   6.965
    1AU     LIG  327   5.635   7.481   7.084
    1AU     LIG  328   5.659   7.805   7.427
    1AU    AUSL  329   5.147   6.239   6.052
    1AU    AUSL  330   5.444   6.164   5.679
    1AU     AUL  331   5.359   6.504   5.852
    1AU       S  332   5.161   6.463   6.284
    1AU     LIG  333   5.225   6.886   6.522
    1AU     LIG  334   5.327   7.351   6.640
    1AU     LIG  335   5.117   7.795   6.660
    1AU     LIG  336   4.891   8.177   6.842
    1AU       S  337   5.236   6.387   5.429
    1AU     LIG  338   5.499   6.797   5.298
    1AU     LIG  339   5.687   7.260   5.201
    1AU     LIG  340   5.998   7.671   5.248
    1AU     LIG  341   6.182   8.130   5.259
    1AU    AUSL  342   5.592   6.155   6.092
    1AU    AUSL  343   5.570   5.864   6.705
    1AU     AUL  344   5.713   6.104   6.444
    1AU       S  345   5.797   5.944   6.904
    1AU     LIG  346   6.119   5.951   7.266
    1AU     LIG  347   6.404   6.247   7.494
    1AU     LIG  348   6.631   6.593   7.731
    1AU     LIG  349   6.719   6.798   8.150
    1AU       S  350   5.520   6.500   6.290
    1AU     LIG  351   5.736   6.876   6.481
    1AU     LIG  352   5.873   7.316   6.645
    1AU     LIG  353   5.890   7.783   6.743
    1AU     LIG  354   5.678   8.100   6.995
    1AU    AUSL  355   5.169   4.596   6.417
    1AU    AUSL  356   5.592   4.565   6.272
    1AU     AUL  357   5.372   4.446   6.642
    1AU       S  358   5.117   4.098   6.485
    1AU     LIG  359   5.094   3.785   6.787
    1AU     LIG  360   4.847   3.411   6.914
    1AU     LIG  361   4.896   2.944   6.894
    1AU     LIG  362   5.054   2.495   6.940
    1AU       S  363   5.742   4.342   6.340
    1AU     LIG  364   6.066   3.963   6.409
    1AU     LIG  365   6.361   3.729   6.727
    1AU     LIG  366   6.636   3.508   7.077
    1AU     LIG  367   6.881   3.085   7.147
    1AU    AUSL  368   4.850   4.427   6.143
    1AU    AUSL  369   4.939   4.728   6.747
    1AU     AUL  370   4.826   4.466   6.494
    1AU       S  371   4.939   4.038   6.343
    1AU     LIG  372   4.760   3.626   6.431
    1AU     LIG  373   4.641   3.166   6.490
    1AU     LIG  374   4.468   2.759   6.682
    1AU     LIG  375   4.600   2.312   6.757
    1AU       S  376   4.733   4.612   6.936
    1AU     LIG  377   4.431   4.271   7.177
    1AU     LIG  378   4.119   3.896   7.182
    1AU     LIG  379   3.908   3.540   7.412
    1AU     LIG  380   3.977   3.372   7.851
    1AU    AUSL  381   5.285   4.318   6.100
    1AU    AUSL  382   5.043   4.477   5.754
    1AU     AUL  383   4.915   4.205   5.912
    1AU       S  384   5.270   4.157   5.623
    1AU     LIG  385   5.032   3.697   5.563
    1AU     LIG  386   4.849   3.222   5.548
    1AU     LIG  387   4.724   2.754   5.492
    1AU     LIG  388   4.604   2.439   5.180
    1AU       S  389   5.276   4.130   6.245
    1AU     LIG  390   5.272   3.655   6.297
    1AU     LIG  391   5.166   3.263   6.542
    1AU     LIG  392   5.365   2.847   6.679
    1AU     LIG  393   5.794   2.645   6.705
    1AU    AUSL  394   5.260   5.912   5.346
    1AU    AUSL  395   5.721   5.853   5.763
    1AU     AUL  396   5.583   6.072   5.363
    1AU       S  397   5.178   6.292   5.239
    1AU     LIG  398   5.230   6.581   4.922
    1AU     LIG  399   5.402   6.998   4.830
    1AU     LIG  400   5.506   7.416   4.685
    1AU     LIG  401   5.575   7.652   4.280
    1AU       S  402   5.936   6.058   5.646
    1AU     LIG  403   6.171   6.437   5.415
    1AU     LIG  404   6.486   6.556   5.044
    1AU     LIG  405   6.763   6.778   4.708
    1AU     LIG  406   7.126   7.105   4.645
    1AU    AUSL  407   5.076   5.946   5.753
    1AU    AUSL  408   4.962   5.621   5.452
    1AU     AUL  409   4.915   5.924   5.312
    1AU       S  410   5.003   6.313   5.575
    1AU     LIG  411   4.949   6.762   5.341
    1AU     LIG  412   5.151   7.191   5.255
    1AU     LIG  413   5.044   7.660   5.285
    1AU     LIG  414   4.804   8.020   5.098
    1AU       S  415   4.478   5.982   5.180
    1AU     LIG  416   4.545   6.243   4.837
    1AU     LIG  417   4.442   6.410   4.421
    1AU     LIG  418   4.141   6.696   4.211
    1AU     LIG  419   4.127   7.160   4.067
    1AU    AUSL  420   5.264   4.584   5.386
    1AU    AUSL  421   4.639   4.605   5.748
    1AU     AUL  422   4.894   4.438   5.446
    1AU       S  423   4.451   4.563   5.546
    1AU     LIG  424   4.062   4.340   5.479
    1AU     LIG  425   3.867   3.964   5.277
    1AU     LIG  426   3.684   3.645   4.976
    1AU     LIG  427   3.494   3.211   4.849
    1AU       S  428   5.304   4.186   5.400
    1AU     LIG  429   5.274   3.798   5.134
    1AU     LIG  430   5.017   3.380   5.086
    1AU     LIG  431   4.834   2.935   5.012
    1AU     LIG  432   4.779   2.572   4.703
    1AU    AUSL  433   5.450   4.588   5.811
    1AU    AUSL  434   5.545   4.893   5.486
    1AU     AUL  435   5.600   4.544   5.422
    1AU       S  436   5.516   4.200   5.716
    1AU     LIG  437   5.559   3.753   5.568
    1AU     LIG  438   5.369   3.325   5.455
    1AU     LIG  439   5.221   2.874   5.372
    1AU     LIG  440   5.371   2.410   5.424
    1AU       S  441   5.866   4.688   5.085
    1AU     LIG  442   5.756   4.338   4.831
    1AU     LIG  443   5.957   3.947   4.679
    1AU     LIG  444   6.226   3.634   4.453
    1AU     LIG  445   6.450   3.549   4.045
    2POPC   NC3  446  10.051   5.962   8.072
    2POPC   PO4  447  10.434   5.416   8.022
    2POPC   GL1  448  10.267   5.503   7.676
    2POPC   GL2  449  10.284   5.804   7.658
    2POPC   C1A  450  10.172   5.342   7.286
    2POPC   D2A  451  10.363   5.390   6.905
    2POPC   C3A  452  10.155   5.427   6.489
    2POPC   C4A  453  10.145   5.402   5.993
    2POPC   C1B  454  10.239   5.901   7.291
    2POPC   C2B  455  10.244   5.995   6.915
    2POPC   C3B  456  10.015   5.911   6.602
    2POPC   C4B  457  10.213   5.848   6.231
    3POPC   NC3  458   0.467   9.274   8.320
    3POPC   PO4  459   0.696   9.626   7.858
    3POPC   GL1  460   0.519   9.500   7.505
    3POPC   GL2  461   0.385   9.216   7.579
    3POPC   C1A  462   0.243   9.568   7.194
    3POPC   D2A  463   0.384   9.678   6.815
    3POPC   C3A  464   0.084   9.685   6.522
    3POPC   C4A  465   0.252   9.711   6.156
    3POPC   C1B  466   0.262   9.038   7.208
    3POPC   C2B  467   0.501   9.125   6.822
    3POPC   C3B  468   0.421   9.315   6.425
    3POPC   C4B  469   0.494   9.314   5.932
    4POPC   NC3  470   9.460   7.339   8.186
    4POPC   PO4  471   9.081   6.785   8.134
    4POPC   GL1  472   9.210   7.074   7.819
    4POPC   GL2  473   9.549   7.070   7.743
    4POPC   C1A  474   9.177   7.096   7.377
    4POPC   D2A  475   9.146   6.896   6.969
    4POPC   C3A  476   9.201   7.167   6.596
    4POPC   C4A  477   9.203   7.116   6.158
    4POPC   C1B  478   9.719   7.186   7.349
    4POPC   C2B  479   9.788   7.006   6.968
    4POPC   C3B  480   9.857   7.197   6.597
    4POPC   C4B  481   9.633   7.412   6.291
    5POPC   NC3  482   5.912   8.567   8.000
    5POPC   PO4  483   5.761   9.244   8.112
    5POPC   GL1  484   5.948   8.999   7.754
    5POPC   GL2  485   5.641   8.969   7.547
    5POPC   C1A  486   6.074   9.050   7.305
    5POPC   D2A  487   5.798   9.256   6.980
    5POPC   C3A  488   5.730   9.081   6.557
    5POPC   C4A  489   5.674   8.730   6.297
    5POPC   C1B  490   5.763   8.662   7.213
    5POPC   C2B  491   5.603   8.568   6.793
    5POPC   C3B  492   5.606   8.241   6.471
    5POPC   C4B  493   5.702   8.262   6.017
    6POPC   NC3  494   6.439   1.962   8.102
    6POPC   PO4  495   6.048   2.432   8.005
    6POPC   GL1  496   6.371   2.164   7.638
    6POPC   GL2  497   6.491   1.797   7.608
    6POPC   C1A  498   6.487   2.051   7.156
    6POPC   D2A  499   6.277   2.278   6.783
    6POPC   C3A  500   6.523   2.343   6.392
    6POPC   C4A  501   6.384   2.253   5.947
    6POPC   C1B  502   6.673   1.462   7.304
    6POPC   C2B  503   6.739   1.593   6.869
    6POPC   C3B  504   6.571   1.889   6.644
    6POPC   C4B  505   6.387   1.865   6.268
    7POPC   NC3  506   9.053   5.910   8.071
    7POPC   PO4  507   8.854   5.295   8.175
    7POPC   GL1  508   8.855   5.373   7.730
    7POPC   GL2  509   8.547   5.475   7.649
    7POPC   C1A  510   8.930   5.519   7.281
    7POPC   D2A  511   9.082   5.653   6.854
    7POPC   C3A  512   8.949   5.498   6.439
    7POPC   C4A  513   8.899   5.664   6.025
    7POPC   C1B  514   8.421   5.650   7.238
    7POPC   C2B  515   8.561   5.608   6.795
    7POPC   C3B  516   8.468   5.656   6.347
    7POPC   C4B  517   8.122   5.642   6.084
    8POPC   NC3  518   3.707   9.685   8.050
    8POPC   PO4  519   3.063   9.731   8.173
    8POPC   GL1  520   3.271   9.700   7.768
    8POPC   GL2  521   3.383   9.347   7.785
    8POPC   C1A  522   3.348   9.803   7.330
    8POPC   D2A  523   3.164   9.720   6.899
    8POPC   C3A  524   3.459   9.582   6.578
    8POPC   C4A  525   3.435   9.429   6.139
    8POPC   C1B  526   3.441   9.180   7.384
    8POPC   C2B  527   3.435   9.250   6.964
    8POPC   C3B  528   3.545   9.049   6.552
    8POPC   C4B  529   3.776   8.941   6.185
    9POPC   NC3  530   2.596   7.859   8.418
    9POPC   PO4  531   3.037   8.226   8.089
    9POPC   GL1  532   2.669   7.982   7.882
    9POPC   GL2  533   2.434   8.177   7.690
    9POPC   C1A  534   2.601   7.757   7.447
    9POPC   D2A  535   2.847   7.652   7.055
    9POPC   C3A  536   2.672   7.729   6.639
    9POPC   C4A  537   2.524   7.524   6.258
    9POPC   C1B  538   2.869   8.197   7.449
    9POPC   C2B  539   3.004   8.143   7.027
    9POPC   C3B  540   3.012   8.104   6.556
    9POPC   C4B  541   2.797   7.969   6.164
   10POPC   NC3  542   8.642   6.783   8.333
   10POPC   PO4  543   8.548   7.482   8.347
   10POPC   GL1  544   8.759   7.376   7.889
   10POPC   GL2  545   8.720   7.041   7.705
   10POPC   C1A  546   8.768   7.488   7.375
   10POPC   D2A  547   8.521   7.688   6.976
   10POPC   C3A  548   8.431   7.510   6.519
   10POPC   C4A  549   8.439   7.549   6.042
   10POPC   C1B  550   8.697   7.009   7.235
   10POPC   C2B  551   8.741   7.203   6.825
   10POPC   C3B  552   8.735   7.046   6.387
   10POPC   C4B  553   8.747   7.145   5.923
   11POPC   NC3  554   6.134   9.039   8.257
   11POPC   PO4  555   6.284   8.377   8.182
   11POPC   GL1  556   6.363   8.595   7.761
   11POPC   GL2  557   6.686   8.745   7.702
   11POPC   C1A  558   6.315   8.604   7.291
   11POPC   D2A  559   6.650   8.445   6.993
   11POPC   C3A  560   6.565   8.499   6.550
   11POPC   C4A  561   6.414   8.536   6.120
   11POPC   C1B  562   6.734   8.879   7.293
   11POPC   C2B  563   6.510   8.972   6.928
   11POPC   C3B  564   6.584   9.001   6.498
   11POPC   C4B  565   6.162   8.970   6.259
   12POPC   NC3  566   5.043   1.166   8.084
   12POPC   PO4  567   5.262   1.818   8.085
   12POPC   GL1  568   4.935   1.569   7.765
   12POPC   GL2  569   4.887   1.220   7.623
   12POPC   C1A  570   4.727   1.544   7.293
   12POPC   D2A  571   5.005   1.506   6.894
   12POPC   C3A  572   4.802   1.511   6.494
   12POPC   C4A  573   4.843   1.415   6.042
   12POPC   C1B  574   4.941   1.067   7.212
   12POPC   C2B  575   4.826   1.068   6.786
   12POPC   C3B  576   5.012   1.056   6.376
   12POPC   C4B  577   4.618   0.973   6.165
   13POPC   NC3  578   0.198   9.535   7.899
   13POPC   PO4  579   9.954   9.446   8.056
   13POPC   GL1  580  10.193   9.561   7.729
   13POPC   GL2  581  10.326   9.223   7.668
   13POPC   C1A  582  10.127   9.814   7.356
   13POPC   D2A  583  10.315   9.780   6.948
   13POPC   C3A  584  10.099   9.877   6.557
   13POPC   C4A  585  10.217   9.680   6.158
   13POPC   C1B  586  10.298   9.319   7.251
   13POPC   C2B  587  10.466   9.270   6.836
   13POPC   C3B  588  10.141   9.357   6.558
   13POPC   C4B  589   9.985   9.231   6.170
   14POPC   NC3  590   1.423   5.556   7.913
   14POPC   PO4  591   0.880   5.582   8.094
   14POPC   GL1  592   1.005   5.674   7.673
   14POPC   GL2  593   1.258   5.390   7.479
   14POPC   C1A  594   1.119   5.844   7.314
   14POPC   D2A  595   1.239   5.651   6.903
   14POPC   C3A  596   1.087   5.856   6.513
   14POPC   C4A  597   1.144   5.667   6.108
   14POPC   C1B  598   0.864   5.407   7.238
   14POPC   C2B  599   0.796   5.355   6.807
   14POPC   C3B  600   0.842   5.368   6.361
   14POPC   C4B  601   0.834   5.290   5.878
   15POPC   NC3  602   8.535   3.389   8.027
   15POPC   PO4  603   8.599   4.033   7.834
   15POPC   GL1  604   8.698   3.675   7.520
   15POPC   GL2  605   8.707   3.284   7.547
   15POPC   C1A  606   8.844   3.536   7.089
   15POPC   D2A  607   8.615   3.442   6.701
   15POPC   C3A  608   8.851   3.371   6.349
   15POPC   C4A  609   8.809   3.564   5.970
   15POPC   C1B  610   8.377   3.389   7.225
   15POPC   C2B  611   8.204   3.664   6.919
   15POPC   C3B  612   8.122   3.500   6.522
   15POPC   C4B  613   8.375   3.590   6.208
   16POPC   NC3  614   0.472   2.789   8.102
   16POPC   PO4  615   0.324   2.123   8.157
   16POPC   GL1  616   0.391   2.398   7.745
   16POPC   GL2  617   0.154   2.692   7.712
   16POPC   C1A  618   0.146   2.411   7.312
   16POPC   D2A  619   0.168   2.647   6.914
   16POPC   C3A  620   0.474   2.548   6.567
   16POPC   C4A  621   0.140   2.477   6.268
   16POPC   C1B  622   0.433   2.829   7.337
   16POPC   C2B  623   0.451   3.076   6.953
   16POPC   C3B  624   0.322   3.039   6.518
   16POPC   C4B  625   0.484   2.865   6.144
   17POPC   NC3  626   8.931   7.740   8.307
   17POPC   PO4  627   8.605   8.156   7.939
   17POPC   GL1  628   8.671   7.958   7.590
   17POPC   GL2  629   8.988   7.792   7.707
   17POPC   C1A  630   8.603   8.236   7.238
   17POPC   D2A  631   8.338   8.273   6.898
   17POPC   C3A  632   8.496   8.070   6.584
   17POPC   C4A  633   8.597   8.182   6.161
   17POPC   C1B  634   9.069   7.934   7.262
   17POPC   C2B  635   8.951   8.129   6.845
   17POPC   C3B  636   8.955   7.935   6.425
   17POPC   C4B  637   8.906   7.511   6.284
   18POPC   NC3  638   2.808  10.089   8.355
   18POPC   PO4  639   3.305  10.262   7.918
   18POPC   GL1  640   3.601  10.187   7.634
   18POPC   GL2  641   3.934  10.096   7.767
   18POPC   C1A  642   3.579  10.270   7.197
   18POPC   D2A  643   3.426  10.175   6.779
   18POPC   C3A  644   3.597  10.411   6.392
   18POPC   C4A  645   3.401  10.331   5.953
   18POPC   C1B  646   3.885   9.872   7.368
   18POPC   C2B  647   3.723   9.789   6.979
   18POPC   C3B  648   3.819   9.938   6.583
   18POPC   C4B  649   3.557   9.935   6.230
   19POPC   NC3  650   9.671   8.266   8.068
   19POPC   PO4  651   9.375   7.719   8.421
   19POPC   GL1  652   9.491   7.744   7.901
   19POPC   GL2  653   9.464   8.019   7.677
   19POPC   C1A  654   9.378   7.561   7.467
   19POPC   D2A  655   9.176   7.477   7.026
   19POPC   C3A  656   9.333   7.658   6.611
   19POPC   C4A  657   9.326   7.756   6.120
   19POPC   C1B  658   9.549   8.192   7.310
   19POPC   C2B  659   9.458   8.053   6.908
   19POPC   C3B  660   9.436   8.143   6.468
   19POPC   C4B  661   9.700   8.095   6.111
   20POPC   NC3  662   8.377   9.252   8.179
   20POPC   PO4  663   8.945   8.971   8.076
   20POPC   GL1  664   8.723   9.103   7.686
   20POPC   GL2  665   8.491   9.409   7.683
   20POPC   C1A  666   8.610   9.168   7.233
   20POPC   D2A  667   8.763   9.133   6.830
   20POPC   C3A  668   8.575   9.126   6.459
   20POPC   C4A  669   8.795   9.130   6.099
   20POPC   C1B  670   8.868   9.551   7.423
   20POPC   C2B  671   8.908   9.604   6.979
   20POPC   C3B  672   8.595   9.603   6.652
   20POPC   C4B  673   8.668   9.602   6.231
   21POPC   NC3  674   9.362   4.642   8.478
   21POPC   PO4  675   9.361   4.488   7.876
   21POPC   GL1  676   9.499   4.752   7.625
   21POPC   GL2  677   9.528   5.038   7.811
   21POPC   C1A  678   9.494   4.750   7.190
   21POPC   D2A  679   9.205   4.750   6.898
   21POPC   C3A  680   9.331   4.711   6.488
   21POPC   C4A  681   9.006   4.629   6.221
   21POPC   C1B  682   9.658   5.195   7.403
   21POPC   C2B  683   9.395   5.280   7.065
   21POPC   C3B  684   9.280   5.199   6.669
   21POPC   C4B  685   9.454   5.175   6.292
   22POPC   NC3  686   0.826   0.901   8.117
   22POPC   PO4  687   1.407   0.772   8.017
   22POPC   GL1  688   1.142   0.937   7.694
   22POPC   GL2  689   1.044   1.275   7.820
   22POPC   C1A  690   1.145   1.075   7.266
   22POPC   D2A  691   1.394   1.084   6.918
   22POPC   C3A  692   1.212   0.889   6.591
   22POPC   C4A  693   1.164   1.092   6.217
   22POPC   C1B  694   1.334   1.461   7.531
   22POPC   C2B  695   1.259   1.565   7.100
   22POPC   C3B  696   1.095   1.450   6.686
   22POPC   C4B  697   1.393   1.520   6.370
   23POPC   NC3  698   6.889   8.712   8.160
   23POPC   PO4  699   7.333   9.236   8.196
   23POPC   GL1  700   7.089   9.061   7.831
   23POPC   GL2  701   7.250   8.727   7.770
   23POPC   C1A  702   7.198   9.048   7.385
   23POPC   D2A  703   7.217   8.783   7.011
   23POPC   C3A  704   7.275   8.898   6.575
   23POPC   C4A  705   7.026   8.821   6.196
   23POPC   C1B  706   7.066   8.493   7.418
   23POPC   C2B  707   7.146   8.265   7.037
   23POPC   C3B  708   7.068   8.434   6.635
   23POPC   C4B  709   6.918   8.333   6.219
   24POPC   NC3  710   0.160   6.357   8.343
   24POPC   PO4  711   9.992   6.392   8.252
   24POPC   GL1  712   9.903   6.463   7.797
   24POPC   GL2  713  10.163   6.299   7.678
   24POPC   C1A  714   9.844   6.316   7.291
   24POPC   D2A  715  10.000   6.459   6.859
   24POPC   C3A  716   9.770   6.357   6.505
   24POPC   C4A  717   9.768   6.079   6.194
   24POPC   C1B  718  10.334   6.406   7.265
   24POPC   C2B  719  10.492   6.431   6.833
   24POPC   C3B  720  10.302   6.349   6.415
   24POPC   C4B  721  10.422   6.574   6.026
   25POPC   NC3  722   5.375   0.403   8.206
   25POPC   PO4  723   4.734   0.088   8.194
   25POPC   GL1  724   4.810   0.329   7.813
   25POPC   GL2  725   4.934   0.696   7.840
   25POPC   C1A  726   4.993   0.274   7.384
   25POPC   D2A  727   5.110   0.432   6.962
   25POPC   C3A  728   4.987   0.147   6.616
   25POPC   C4A  729   5.158   0.117   6.201
   25POPC   C1B  730   4.692   0.693   7.465
   25POPC   C2B  731   4.632   0.662   7.019
   25POPC   C3B  732   4.780   0.620   6.573
   25POPC   C4B  733   4.970   0.595   6.160
   26POPC   NC3  734   5.945   1.241   8.048
   26POPC   PO4  735   5.413   0.833   8.001
   26POPC   GL1  736   5.359   1.018   7.574
   26POPC   GL2  737   5.430   1.374   7.656
   26POPC   C1A  738   5.431   1.139   7.099
   26POPC   D2A  739   5.770   1.224   6.758
   26POPC   C3A  740   5.590   1.027   6.376
   26POPC   C4A  741   5.403   0.845   6.021
   26POPC   C1B  742   5.687   1.520   7.273
   26POPC   C2B  743   5.506   1.673   6.874
   26POPC   C3B  744   5.405   1.517   6.476
   26POPC   C4B  745   5.802   1.461   6.246
   27POPC   NC3  746   9.397   5.183   8.285
   27POPC   PO4  747   9.560   5.877   8.175
   27POPC   GL1  748   9.412   5.834   7.729
   27POPC   GL2  749   9.673   6.039   7.682
   27POPC   C1A  750   9.382   5.766   7.258
   27POPC   D2A  751   9.517   6.016   6.877
   27POPC   C3A  752   9.363   5.857   6.477
   27POPC   C4A  753   9.296   5.993   6.080
   27POPC   C1B  754   9.825   5.679   7.476
   27POPC   C2B  755   9.851   5.632   7.033
   27POPC   C3B  756   9.682   5.503   6.668
   27POPC   C4B  757   9.738   5.581   6.239
   28POPC   NC3  758   5.312   9.166   7.903
   28POPC   PO4  759   5.661   9.744   8.100
   28POPC   GL1  760   5.543   9.557   7.716
   28POPC   GL2  761   5.823   9.467   7.644
   28POPC   C1A  762   5.404   9.344   7.291
   28POPC   D2A  763   5.167   9.464   6.922
   28POPC   C3A  764   5.308   9.366   6.520
   28POPC   C4A  765   5.432   9.560   6.152
   28POPC   C1B  766   5.769   9.722   7.301
   28POPC   C2B  767   5.594   9.758   6.923
   28POPC   C3B  768   5.752   9.615   6.552
   28POPC   C4B  769   5.947   9.454   6.203
   29POPC   NC3  770   9.526   2.613   8.344
   29POPC   PO4  771   9.703   3.236   8.160
   29POPC   GL1  772   9.646   2.886   7.839
   29POPC   GL2  773   9.275   2.776   7.769
   29POPC   C1A  774   9.624   2.703   7.402
   29POPC   D2A  775   9.279   2.768   7.081
   29POPC   C3A  776   9.404   2.856   6.660
   29POPC   C4A  777   9.633   2.617   6.346
   29POPC   C1B  778   9.195   2.415   7.463
   29POPC   C2B  779   9.135   2.276   7.055
   29POPC   C3B  780   9.281   2.352   6.657
   29POPC   C4B  781   9.175   2.392   6.240
   30POPC   NC3  782   2.691   3.436   8.531
   30POPC   PO4  783   2.250   3.400   8.182
   30POPC   GL1  784   2.324   3.492   7.768
   30POPC   GL2  785   2.374   3.165   7.635
   30POPC   C1A  786   2.575   3.557   7.371
   30POPC   D2A  787   2.746   3.364   6.997
   30POPC   C3A  788   2.589   3.454   6.565
   30POPC   C4A  789   2.441   3.473   6.131
   30POPC   C1B  790   2.824   3.100   7.474
   30POPC   C2B  791   2.971   2.912   7.080
   30POPC   C3B  792   2.961   3.038   6.644
   30POPC   C4B  793   3.159   3.229   6.283
   31POPC   NC3  794   4.673  10.137   8.330
   31POPC   PO4  795   4.152   9.776   8.133
   31POPC   GL1  796   4.425   9.930   7.816
   31POPC   GL2  797   4.473  10.253   7.740
   31POPC   C1A  798   4.415   9.875   7.359
   31POPC   D2A  799   4.201   9.975   6.963
   31POPC   C3A  800   4.313   9.828   6.565
   31POPC   C4A  801   4.446   9.973   6.172
   31POPC   C1B  802   4.163  10.320   7.357
   31POPC   C2B  803   3.969  10.407   6.916
   31POPC   C3B  804   4.160  10.312   6.537
   31POPC   C4B  805   4.184   0.026   6.187
   32POPC   NC3  806   2.835   5.304   8.597
   32POPC   PO4  807   2.385   5.204   8.161
   32POPC   GL1  808   2.380   5.384   7.693
   32POPC   GL2  809   2.432   5.748   7.637
   32POPC   C1A  810   2.574   5.443   7.237
   32POPC   D2A  811   2.671   5.597   6.800
   32POPC   C3A  812   2.848   5.395   6.406
   32POPC   C4A  813   3.104   5.519   6.024
   32POPC   C1B  814   2.420   5.943   7.183
   32POPC   C2B  815   2.290   5.929   6.732
   32POPC   C3B  816   2.438   5.709   6.351
   32POPC   C4B  817   2.382   5.874   5.910
   33POPC   NC3  818   5.729  10.200   8.146
   33POPC   PO4  819   6.365  10.100   7.990
   33POPC   GL1  820   5.973  10.031   7.689
   33POPC   GL2  821   5.577  10.085   7.683
   33POPC   C1A  822   5.844  10.213   7.289
   33POPC   D2A  823   5.989  10.353   6.911
   33POPC   C3A  824   5.854  10.114   6.572
   33POPC   C4A  825   6.002  10.159   6.148
   33POPC   C1B  826   5.339  10.315   7.332
   33POPC   C2B  827   5.478  10.255   6.925
   33POPC   C3B  828   5.391  10.324   6.522
   33POPC   C4B  829   5.502  10.184   6.122
   34POPC   NC3  830   6.176   9.662   7.989
   34POPC   PO4  831   6.571   9.083   8.140
   34POPC   GL1  832   6.423   9.231   7.710
   34POPC   GL2  833   6.724   9.339   7.527
   34POPC   C1A  834   6.223   9.513   7.364
   34POPC   D2A  835   6.121   9.645   6.932
   34POPC   C3A  836   6.187   9.323   6.627
   34POPC   C4A  837   6.449   9.397   6.233
   34POPC   C1B  838   6.640   9.615   7.145
   34POPC   C2B  839   6.609   9.548   6.743
   34POPC   C3B  840   6.754   9.746   6.436
   34POPC   C4B  841   6.962   9.854   6.121
   35POPC   NC3  842   0.602   1.843   7.885
   35POPC   PO4  843  10.426   1.775   7.987
   35POPC   GL1  844   0.179   1.634   7.720
   35POPC   GL2  845   0.199   1.957   7.593
   35POPC   C1A  846   0.294   1.536   7.314
   35POPC   D2A  847   0.351   1.687   6.925
   35POPC   C3A  848   0.519   1.537   6.590
   35POPC   C4A  849   0.400   1.690   6.210
   35POPC   C1B  850   0.478   2.032   7.291
   35POPC   C2B  851   0.408   2.188   6.921
   35POPC   C3B  852   0.284   2.060   6.540
   35POPC   C4B  853   0.566   2.163   6.192
   36POPC   NC3  854   3.347   1.090   8.323
   36POPC   PO4  855   3.087   1.438   7.906
   36POPC   GL1  856   3.381   1.196   7.696
   36POPC   GL2  857   3.518   0.851   7.648
   36POPC   C1A  858   3.289   1.143   7.285
   36POPC   D2A  859   3.036   1.085   6.949
   36POPC   C3A  860   3.285   1.191   6.608
   36POPC   C4A  861   3.159   1.339   6.205
   36POPC   C1B  862   3.804   1.047   7.349
   36POPC   C2B  863   3.837   1.254   6.982
   36POPC   C3B  864   3.836   1.094   6.613
   36POPC   C4B  865   3.651   1.213   6.246
   37POPC   NC3  866   9.773   4.294   8.025
   37POPC   PO4  867  10.494   4.418   8.018
   37POPC   GL1  868  10.323   4.438   7.673
   37POPC   GL2  869  10.056   4.201   7.618
   37POPC   C1A  870  10.410   4.437   7.286
   37POPC   D2A  871  10.132   4.450   6.983
   37POPC   C3A  872  10.361   4.478   6.645
   37POPC   C4A  873  10.242   4.616   6.249
   37POPC   C1B  874  10.249   3.947   7.306
   37POPC   C2B  875  10.135   3.938   6.907
   37POPC   C3B  876   9.979   4.175   6.581
   37POPC   C4B  877  10.129   4.123   6.170
   38POPC   NC3  878   7.679   0.042   7.931
   38POPC   PO4  879   7.668   0.742   8.002
   38POPC   GL1  880   7.938   0.505   7.724
   38POPC   GL2  881   7.976   0.162   7.563
   38POPC   C1A  882   7.901   0.590   7.292
   38POPC   D2A  883   7.848   0.856   6.971
   38POPC   C3A  884   7.772   0.674   6.601
   38POPC   C4A  885   7.984   0.752   6.259
   38POPC   C1B  886   7.983   0.107   7.145
   38POPC   C2B  887   7.699   0.229   6.846
   38POPC   C3B  888   7.926   0.190   6.479
   38POPC   C4B  889   7.923   0.289   6.050
   39POPC   NC3  890   8.046   1.968   8.086
   39POPC   PO4  891   7.469   1.601   8.198
   39POPC   GL1  892   7.536   1.660   7.732
   39POPC   GL2  893   7.878   1.716   7.680
   39POPC   C1A  894   7.616   1.649   7.257
   39POPC   D2A  895   7.910   1.713   6.934
   39POPC   C3A  896   7.636   1.771   6.604
   39POPC   C4A  897   7.559   1.774   6.196
   39POPC   C1B  898   7.963   2.024   7.385
   39POPC   C2B  899   8.220   2.117   6.996
   39POPC   C3B  900   8.020   2.096   6.578
   39POPC   C4B  901   7.847   2.207   6.192
   40POPC   NC3  902  10.319   7.834   7.964
   40POPC   PO4  903   9.883   7.351   7.991
   40POPC   GL1  904   9.897   7.592   7.605
   40POPC   GL2  905   9.960   7.944   7.609
   40POPC   C1A  906   9.780   7.710   7.173
   40POPC   D2A  907   9.972   7.958   6.842
   40POPC   C3A  908  10.029   7.826   6.405
   40POPC   C4A  909  10.403   7.793   6.106
   40POPC   C1B  910  10.288   7.819   7.290
   40POPC   C2B  911  10.488   7.877   6.869
   40POPC   C3B  912  10.396   8.168   6.529
   40POPC   C4B  913  10.199   8.265   6.131
   41POPC   NC3  914   2.188   4.762   8.061
   41POPC   PO4  915   1.678   5.234   8.090
   41POPC   GL1  916   1.880   5.262   7.663
   41POPC   GL2  917   1.848   4.929   7.583
   41POPC   C1A  918   2.204   5.099   7.283
   41POPC   D2A  919   2.181   4.968   6.815
   41POPC   C3A  920   2.383   5.155   6.422
   41POPC   C4A  921   2.271   4.949   6.015
   41POPC   C1B  922   1.734   5.223   7.167
   41POPC   C2B  923   1.686   5.150   6.711
   41POPC   C3B  924   1.903   4.910   6.366
   41POPC   C4B  925   1.769   4.651   5.982
   42POPC   NC3  926   7.655   8.639   8.195
   42POPC   PO4  927   8.227   8.326   8.335
   42POPC   GL1  928   8.099   8.484   7.847
   42POPC   GL2  929   7.777   8.626   7.699
   42POPC   C1A  930   8.089   8.414   7.351
   42POPC   D2A  931   7.879   8.502   6.934
   42POPC   C3A  932   7.930   8.300   6.530
   42POPC   C4A  933   8.143   8.391   6.150
   42POPC   C1B  934   7.674   8.829   7.287
   42POPC   C2B  935   7.827   8.989   6.860
   42POPC   C3B  936   7.764   8.831   6.440
   42POPC   C4B  937   7.513   8.964   6.075
   43POPC   NC3  938   1.076   5.963   8.260
   43POPC   PO4  939   1.187   6.613   8.081
   43POPC   GL1  940   1.272   6.276   7.773
   43POPC   GL2  941   0.958   6.203   7.659
   43POPC   C1A  942   1.423   6.233   7.335
   43POPC   D2A  943   1.226   6.175   6.948
   43POPC   C3A  944   1.433   6.278   6.596
   43POPC   C4A  945   1.511   6.115   6.212
   43POPC   C1B  946   1.106   6.611   7.418
   43POPC   C2B  947   1.161   6.836   7.034
   43POPC   C3B  948   1.256   6.921   6.588
   43POPC   C4B  949   1.160   6.598   6.289
   44POPC   NC3  950   1.440   3.200   8.393
   44POPC   PO4  951   0.871   3.019   8.049
   44POPC   GL1  952   1.130   3.184   7.696
   44POPC   GL2  953   1.250   3.546   7.752
   44POPC   C1A  954   1.220   3.315   7.267
   44POPC   D2A  955   1.168   3.595   6.929
   44POPC   C3A  956   1.247   3.321   6.631
   44POPC   C4A  957   1.061   3.274   6.268
   44POPC   C1B  958   1.457   3.756   7.377
   44POPC   C2B  959   1.673   3.557   7.028
   44POPC   C3B  960   1.605   3.686   6.619
   44POPC   C4B  961   1.416   3.616   6.234
   45POPC   NC3  962   1.186   9.538   7.967
   45POPC   PO4  963   0.757   8.959   8.156
   45POPC   GL1  964   0.872   9.131   7.729
   45POPC   GL2  965   1.022   9.416   7.525
   45POPC   C1A  966   0.785   9.087   7.268
   45POPC   D2A  967   1.036   9.364   6.990
   45POPC   C3A  968   0.884   9.456   6.611
   45POPC   C4A  969   0.874   9.180   6.268
   45POPC   C1B  970   1.343   9.592   7.338
   45POPC   C2B  971   1.433   9.723   6.939
   45POPC   C3B  972   1.411   9.513   6.591
   45POPC   C4B  973   1.237   9.500   6.226
   46POPC   NC3  974   8.833   2.506   8.389
   46POPC   PO4  975   8.428   2.999   8.263
   46POPC   GL1  976   8.490   2.821   7.785
   46POPC   GL2  977   8.730   2.521   7.773
   46POPC   C1A  978   8.347   2.874   7.316
   46POPC   D2A  979   8.568   2.984   6.938
   46POPC   C3A  980   8.376   3.008   6.527
   46POPC   C4A  981   8.564   3.001   6.138
   46POPC   C1B  982   8.782   2.638   7.308
   46POPC   C2B  983   8.658   2.458   6.902
   46POPC   C3B  984   8.709   2.605   6.478
   46POPC   C4B  985   9.033   2.878   6.302
   47POPC   NC3  986   0.465   8.588   8.080
   47POPC   PO4  987   0.065   9.136   8.109
   47POPC   GL1  988   0.155   8.805   7.738
   47POPC   GL2  989   0.535   8.732   7.578
   47POPC   C1A  990   0.106   8.520   7.384
   47POPC   D2A  991   0.116   8.404   6.960
   47POPC   C3A  992   0.280   8.682   6.641
   47POPC   C4A  993   0.131   8.535   6.219
   47POPC   C1B  994   0.586   8.649   7.098
   47POPC   C2B  995   0.808   8.431   6.757
   47POPC   C3B  996   0.857   8.701   6.425
   47POPC   C4B  997   0.489   8.869   6.192
   48POPC   NC3  998   2.808   0.548   8.019
   48POPC   PO4  999   2.651  10.430   8.067
   48POPC   GL1 1000   2.511   0.268   7.709
   48POPC   GL2 1001   2.631   0.628   7.567
   48POPC   C1A 1002   2.572   0.241   7.263
   48POPC   D2A 1003   2.606   0.533   6.951
   48POPC   C3A 1004   2.733   0.344   6.572
   48POPC   C4A 1005   2.527   0.380   6.186
   48POPC   C1B 1006   2.980   0.707   7.295
   48POPC   C2B 1007   3.106   0.596   6.864
   48POPC   C3B 1008   3.018   0.773   6.530
   48POPC   C4B 1009   2.922   0.678   6.180
   49POPC   NC3 1010   9.792   0.343   8.350
   49POPC   PO4 1011   9.623   0.763   7.891
   49POPC   GL1 1012   9.567   0.473   7.597
   49POPC   GL2 1013   9.225   0.464   7.626
   49POPC   C1A 1014   9.488   0.338   7.171
   49POPC   D2A 1015   9.132   0.173   6.912
   49POPC   C3A 1016   9.327   0.231   6.511
   49POPC   C4A 1017   9.667   0.189   6.193
   49POPC   C1B 1018   9.285   0.778   7.298
   49POPC   C2B 1019   9.208   0.684   6.891
   49POPC   C3B 1020   9.298   0.810   6.504
   49POPC   C4B 1021   9.436   0.632   6.208
   50POPC   NC3 1022   3.867   0.984   7.984
   50POPC   PO4 1023   4.556   1.191   8.165
   50POPC   GL1 1024   4.430   1.033   7.776
   50POPC   GL2 1025   4.314   0.709   7.828
   50POPC   C1A 1026   4.436   1.108   7.328
   50POPC   D2A 1027   4.373   1.348   6.960
   50POPC   C3A 1028   4.377   1.229   6.551
   50POPC   C4A 1029   4.354   1.491   6.173
   50POPC   C1B 1030   4.162   0.666   7.394
   50POPC   C2B 1031   4.154   0.851   6.985
   50POPC   C3B 1032   4.233   0.723   6.584
   50POPC   C4B 1033   4.108   0.952   6.220
   51POPC   NC3 1034   3.182   2.728   8.023
   51POPC   PO4 1035   3.754   2.772   8.098
   51POPC   GL1 1036   3.662   2.752   7.646
   51POPC   GL2 1037   3.430   2.458   7.634
   51POPC   C1A 1038   3.653   2.943   7.195
   51POPC   D2A 1039   3.445   2.980   6.771
   51POPC   C3A 1040   3.641   3.021   6.351
   51POPC   C4A 1041   3.530   3.153   5.907
   51POPC   C1B 1042   3.296   2.531   7.204
   51POPC   C2B 1043   3.146   2.536   6.781
   51POPC   C3B 1044   3.315   2.634   6.393
   51POPC   C4B 1045   3.227   2.343   6.045
   52POPC   NC3 1046   2.472   1.210   7.946
   52POPC   PO4 1047   2.844   1.622   8.351
   52POPC   GL1 1048   2.667   1.627   7.759
   52POPC   GL2 1049   2.797   1.252   7.555
   52POPC   C1A 1050   2.649   1.599   7.237
   52POPC   D2A 1051   2.889   1.540   6.811
   52POPC   C3A 1052   2.747   1.215   6.482
   52POPC   C4A 1053   2.553   1.351   6.072
   52POPC   C1B 1054   2.589   1.023   7.234
   52POPC   C2B 1055   2.351   0.991   6.866
   52POPC   C3B 1056   2.467   0.782   6.511
   52POPC   C4B 1057   2.443   0.867   6.096
   53POPC   NC3 1058   3.453   7.968   8.091
   53POPC   PO4 1059   3.909   8.494   8.040
   53POPC   GL1 1060   3.663   8.339   7.650
   53POPC   GL2 1061   3.336   8.149   7.649
   53POPC   C1A 1062   3.555   8.197   7.198
   53POPC   D2A 1063   3.425   8.294   6.793
   53POPC   C3A 1064   3.493   8.013   6.432
   53POPC   C4A 1065   3.302   8.072   6.026
   53POPC   C1B 1066   3.252   7.817   7.357
   53POPC   C2B 1067   3.351   7.777   6.904
   53POPC   C3B 1068   3.161   7.612   6.513
   53POPC   C4B 1069   3.154   7.599   6.069
   54POPC   NC3 1070   3.607   8.840   7.930
   54POPC   PO4 1071   3.042   9.018   8.002
   54POPC   GL1 1072   3.046   8.927   7.591
   54POPC   GL2 1073   3.232   8.643   7.610
   54POPC   C1A 1074   2.969   8.695   7.185
   54POPC   D2A 1075   3.242   8.776   6.874
   54POPC   C3A 1076   3.193   8.651   6.491
   54POPC   C4A 1077   3.211   8.934   6.158
   54POPC   C1B 1078   3.567   8.700   7.262
   54POPC   C2B 1079   3.782   8.659   6.825
   54POPC   C3B 1080   3.683   8.485   6.390
   54POPC   C4B 1081   3.519   8.553   5.944
   55POPC   NC3 1082   1.391   4.160   8.118
   55POPC   PO4 1083   0.969   4.588   8.159
   55POPC   GL1 1084   0.935   4.360   7.757
   55POPC   GL2 1085   1.061   4.030   7.739
   55POPC   C1A 1086   1.176   4.410   7.362
   55POPC   D2A 1087   1.241   4.604   6.936
   55POPC   C3A 1088   1.008   4.505   6.570
   55POPC   C4A 1089   1.097   4.412   6.144
   55POPC   C1B 1090   0.995   3.934   7.300
   55POPC   C2B 1091   1.325   4.085   6.962
   55POPC   C3B 1092   1.266   4.056   6.508
   55POPC   C4B 1093   0.943   3.757   6.394
   56POPC   NC3 1094   9.056   8.524   8.086
   56POPC   PO4 1095   9.625   8.801   8.041
   56POPC   GL1 1096   9.455   8.595   7.690
   56POPC   GL2 1097   9.195   8.820   7.654
   56POPC   C1A 1098   9.500   8.708   7.238
   56POPC   D2A 1099   9.283   8.532   6.846
   56POPC   C3A 1100   9.484   8.647   6.517
   56POPC   C4A 1101   9.483   8.562   6.098
   56POPC   C1B 1102   9.139   9.098   7.308
   56POPC   C2B 1103   9.246   9.028   6.885
   56POPC   C3B 1104   9.089   8.951   6.471
   56POPC   C4B 1105   9.295   9.028   6.073
   57POPC   NC3 1106   1.082   7.855   8.133
   57POPC   PO4 1107   1.405   8.311   7.814
   57POPC   GL1 1108   1.255   7.950   7.644
   57POPC   GL2 1109   0.877   7.924   7.670
   57POPC   C1A 1110   1.387   7.994   7.230
   57POPC   D2A 1111   1.510   7.748   6.917
   57POPC   C3A 1112   1.346   7.878   6.551
   57POPC   C4A 1113   1.545   7.838   6.205
   57POPC   C1B 1114   0.851   7.759   7.271
   57POPC   C2B 1115   0.979   7.927   6.908
   57POPC   C3B 1116   0.808   7.909   6.520
   57POPC   C4B 1117   0.988   7.958   6.159
   58POPC   NC3 1118   2.071   7.305   8.011
   58POPC   PO4 1119   1.446   7.577   8.013
   58POPC   GL1 1120   1.608   7.283   7.674
   58POPC   GL2 1121   1.922   7.255   7.540
   58POPC   C1A 1122   1.544   7.090   7.266
   58POPC   D2A 1123   1.764   7.283   6.909
   58POPC   C3A 1124   1.625   7.265   6.471
   58POPC   C4A 1125   1.688   6.869   6.213
   58POPC   C1B 1126   2.322   7.320   7.365
   58POPC   C2B 1127   2.398   7.412   6.940
   58POPC   C3B 1128   2.134   7.475   6.601
   58POPC   C4B 1129   2.091   7.217   6.224
   59POPC   NC3 1130   6.909   9.418   8.164
   59POPC   PO4 1131   7.342   9.896   8.048
   59POPC   GL1 1132   7.146   9.629   7.741
   59POPC   GL2 1133   7.421   9.412   7.684
   59POPC   C1A 1134   7.115   9.547   7.283
   59POPC   D2A 1135   6.939   9.239   6.985
   59POPC   C3A 1136   7.047   9.346   6.575
   59POPC   C4A 1137   6.966   9.321   6.166
   59POPC   C1B 1138   7.610   9.338   7.299
   59POPC   C2B 1139   7.430   9.278   6.932
   59POPC   C3B 1140   7.570   9.332   6.536
   59POPC   C4B 1141   7.462   9.459   6.163
   60POPC   NC3 1142   0.534   7.560   7.863
   60POPC   PO4 1143   0.640   8.165   8.072
   60POPC   GL1 1144   0.439   8.230   7.694
   60POPC   GL2 1145   0.207   7.962   7.631
   60POPC   C1A 1146   0.577   8.195   7.291
   60POPC   D2A 1147   0.481   8.058   6.898
   60POPC   C3A 1148   0.399   8.213   6.521
   60POPC   C4A 1149   0.622   8.334   6.195
   60POPC   C1B 1150   0.319   7.730   7.254
   60POPC   C2B 1151   0.479   7.573   6.842
   60POPC   C3B 1152   0.279   7.725   6.459
   60POPC   C4B 1153   0.458   7.885   6.067
   61POPC   NC3 1154   2.632   1.967   8.152
   61POPC   PO4 1155   2.020   2.185   8.276
   61POPC   GL1 1156   2.294   2.210   7.793
   61POPC   GL2 1157   2.639   2.137   7.678
   61POPC   C1A 1158   2.375   2.054   7.275
   61POPC   D2A 1159   2.581   1.937   6.828
   61POPC   C3A 1160   2.455   2.167   6.412
   61POPC   C4A 1161   2.333   2.198   5.916
   61POPC   C1B 1162   2.970   1.972   7.408
   61POPC   C2B 1163   3.098   2.052   6.973
   61POPC   C3B 1164   2.997   2.053   6.540
   61POPC   C4B 1165   2.759   1.714   6.348
   62POPC   NC3 1166   4.169   2.585   8.088
   62POPC   PO4 1167   4.581   3.090   7.927
   62POPC   GL1 1168   4.259   2.848   7.616
   62POPC   GL2 1169   4.124   2.489   7.585
   62POPC   C1A 1170   4.179   2.771   7.138
   62POPC   D2A 1171   3.974   2.971   6.774
   62POPC   C3A 1172   4.159   3.019   6.365
   62POPC   C4A 1173   4.004   2.967   5.960
   62POPC   C1B 1174   3.792   2.457   7.248
   62POPC   C2B 1175   3.688   2.543   6.807
   62POPC   C3B 1176   3.913   2.565   6.403
   62POPC   C4B 1177   4.355   2.451   6.295
   63POPC   NC3 1178   2.816   8.626   8.000
   63POPC   PO4 1179   2.300   9.087   8.118
   63POPC   GL1 1180   2.549   8.990   7.747
   63POPC   GL2 1181   2.613   8.641   7.557
   63POPC   C1A 1182   2.636   9.078   7.333
   63POPC   D2A 1183   2.531   8.881   6.977
   63POPC   C3A 1184   2.742   8.891   6.601
   63POPC   C4A 1185   2.594   8.896   6.207
   63POPC   C1B 1186   2.497   8.412   7.200
   63POPC   C2B 1187   2.658   8.418   6.789
   63POPC   C3B 1188   2.683   8.428   6.367
   63POPC   C4B 1189   3.005   8.475   6.065
   64POPC   NC3 1190   5.816   0.543   7.961
   64POPC   PO4 1191   5.442   0.017   7.942
   64POPC   GL1 1192   5.629   0.178   7.632
   64POPC   GL2 1193   5.418   0.476   7.620
   64POPC   C1A 1194   5.673   0.182   7.207
   64POPC   D2A 1195   5.570   0.227   6.802
   64POPC   C3A 1196   5.804   0.115   6.449
   64POPC   C4A 1197   5.679   0.146   5.997
   64POPC   C1B 1198   5.662   0.688   7.272
   64POPC   C2B 1199   5.576   0.731   6.820
   64POPC   C3B 1200   5.432   0.531   6.427
   64POPC   C4B 1201   5.817   0.582   6.211
   65POPC   NC3 1202   8.899   4.402   7.908
   65POPC   PO4 1203   9.444   4.139   8.316
   65POPC   GL1 1204   9.390   4.005   7.811
   65POPC   GL2 1205   9.642   3.844   7.658
   65POPC   C1A 1206   9.427   4.208   7.332
   65POPC   D2A 1207   9.519   4.320   6.877
   65POPC   C3A 1208   9.137   4.258   6.613
   65POPC   C4A 1209   9.196   4.129   6.207
   65POPC   C1B 1210   9.735   3.828   7.208
   65POPC   C2B 1211   9.650   3.811   6.772
   65POPC   C3B 1212   9.635   3.909   6.347
   65POPC   C4B 1213   9.645   4.369   6.242
   66POPC   NC3 1214   1.436  10.231   8.247
   66POPC   PO4 1215   0.876   0.054   8.143
   66POPC   GL1 1216   1.156  10.397   7.783
   66POPC   GL2 1217   1.209  10.041   7.764
   66POPC   C1A 1218   1.359  10.459   7.374
   66POPC   D2A 1219   1.346  10.213   6.962
   66POPC   C3A 1220   1.418  10.392   6.595
   66POPC   C4A 1221   1.362  10.340   6.188
   66POPC   C1B 1222   1.073  10.019   7.344
   66POPC   C2B 1223   0.944   9.891   6.902
   66POPC   C3B 1224   1.113   9.950   6.470
   66POPC   C4B 1225   1.131   9.933   5.996
   67POPC   NC3 1226  10.351   1.340   8.149
   67POPC   PO4 1227   0.543   1.258   8.148
   67POPC   GL1 1228   0.266   1.136   7.805
   67POPC   GL2 1229   0.568   1.207   7.644
   67POPC   C1A 1230   0.228   1.038   7.324
   67POPC   D2A 1231   0.057   1.244   6.961
   67POPC   C3A 1232   0.223   1.118   6.578
   67POPC   C4A 1233   0.223   0.988   6.149
   67POPC   C1B 1234   0.798   1.437   7.357
   67POPC   C2B 1235   0.709   1.248   6.978
   67POPC   C3B 1236   0.736   1.063   6.572
   67POPC   C4B 1237   0.712   1.293   6.190
   68POPC   NC3 1238   8.774   6.557   7.868
   68POPC   PO4 1239   8.747   5.934   7.729
   68POPC   GL1 1240   8.867   6.198   7.458
   68POPC   GL2 1241   8.994   6.594   7.431
   68POPC   C1A 1242   8.769   5.999   7.079
   68POPC   D2A 1243   8.596   6.139   6.721
   68POPC   C3A 1244   8.846   6.016   6.400
   68POPC   C4A 1245   8.856   6.181   5.995
   68POPC   C1B 1246   8.645   6.520   7.160
   68POPC   C2B 1247   8.707   6.663   6.768
   68POPC   C3B 1248   8.687   6.518   6.380
   68POPC   C4B 1249   8.451   6.761   6.081
   69POPC   NC3 1250   7.677   9.555   8.088
   69POPC   PO4 1251   8.028   8.953   8.118
   69POPC   GL1 1252   7.900   9.136   7.711
   69POPC   GL2 1253   7.950   9.484   7.669
   69POPC   C1A 1254   8.088   9.141   7.285
   69POPC   D2A 1255   8.267   9.257   6.865
   69POPC   C3A 1256   8.072   9.262   6.455
   69POPC   C4A 1257   8.284   9.333   6.062
   69POPC   C1B 1258   8.032   9.658   7.296
   69POPC   C2B 1259   7.876   9.569   6.899
   69POPC   C3B 1260   7.809   9.816   6.544
   69POPC   C4B 1261   7.929   9.695   6.149
   70POPC   NC3 1262   1.289   4.927   8.209
   70POPC   PO4 1263   1.766   4.418   8.158
   70POPC   GL1 1264   1.453   4.607   7.776
   70POPC   GL2 1265   1.147   4.833   7.735
   70POPC   C1A 1266   1.429   4.858   7.334
   70POPC   D2A 1267   1.241   5.140   7.025
   70POPC   C3A 1268   1.185   5.030   6.611
   70POPC   C4A 1269   1.408   4.780   6.320
   70POPC   C1B 1270   0.913   4.876   7.350
   70POPC   C2B 1271   0.776   4.823   6.960
   70POPC   C3B 1272   0.693   4.906   6.553
   70POPC   C4B 1273   0.925   4.890   6.179
   71POPC   NC3 1274  10.423   2.255   7.922
   71POPC   PO4 1275   9.839   2.259   8.322
   71POPC   GL1 1276   9.897   2.223   7.835
   71POPC   GL2 1277  10.011   1.920   7.733
   71POPC   C1A 1278  10.026   2.255   7.354
   71POPC   D2A 1279  10.305   2.249   6.974
   71POPC   C3A 1280  10.266   2.058   6.570
   71POPC   C4A 1281  10.448   1.950   6.169
   71POPC   C1B 1282  10.281   1.808   7.354
   71POPC   C2B 1283  10.339   1.718   6.944
   71POPC   C3B 1284  10.496   1.597   6.560
   71POPC   C4B 1285  10.464   1.437   6.177
   72POPC   NC3 1286   7.339   1.361   8.570
   72POPC   PO4 1287   7.157   0.921   8.140
   72POPC   GL1 1288   7.200   0.919   7.678
   72POPC   GL2 1289   6.960   1.212   7.732
   72POPC   C1A 1290   6.967   0.956   7.275
   72POPC   D2A 1291   6.718   1.071   6.916
   72POPC   C3A 1292   6.924   1.090   6.540
   72POPC   C4A 1293   7.002   0.950   6.132
   72POPC   C1B 1294   7.173   1.434   7.435
   72POPC   C2B 1295   7.163   1.379   7.018
   72POPC   C3B 1296   7.228   1.471   6.604
   72POPC   C4B 1297   7.256   1.375   6.174
   73POPC   NC3 1298  10.455   3.972   7.922
   73POPC   PO4 1299   0.619   3.953   8.018
   73POPC   GL1 1300   0.535   4.036   7.630
   73POPC   GL2 1301   0.342   4.328   7.621
   73POPC   C1A 1302   0.369   3.931   7.233
   73POPC   D2A 1303   0.103   4.117   6.942
   73POPC   C3A 1304   0.001   4.003   6.531
   73POPC   C4A 1305   0.119   4.284   6.229
   73POPC   C1B 1306   0.679   4.365   7.278
   73POPC   C2B 1307   0.778   4.151   6.890
   73POPC   C3B 1308   0.583   4.151   6.498
   73POPC   C4B 1309   0.597   4.484   6.218
   74POPC   NC3 1310   1.610   6.419   8.121
   74POPC   PO4 1311   1.824   6.926   8.008
   74POPC   GL1 1312   1.603   6.704   7.675
   74POPC   GL2 1313   1.801   6.370   7.662
   74POPC   C1A 1314   1.714   6.622   7.233
   74POPC   D2A 1315   1.647   6.712   6.815
   74POPC   C3A 1316   2.001   6.878   6.613
   74POPC   C4A 1317   2.300   6.719   6.302
   74POPC   C1B 1318   1.941   6.143   7.287
   74POPC   C2B 1319   2.028   6.353   6.902
   74POPC   C3B 1320   1.951   6.309   6.488
   74POPC   C4B 1321   1.989   5.937   6.249
   75POPC   NC3 1322   9.974   0.278   7.847
   75POPC   PO4 1323  10.182   0.867   8.204
   75POPC   GL1 1324  10.097   0.835   7.753
   75POPC   GL2 1325  10.355   0.636   7.683
   75POPC   C1A 1326   9.971   0.615   7.309
   75POPC   D2A 1327   9.974   0.314   6.959
   75POPC   C3A 1328   9.779   0.493   6.595
   75POPC   C4A 1329   9.946   0.603   6.186
   75POPC   C1B 1330  10.492   0.575   7.262
   75POPC   C2B 1331   0.032   0.526   6.835
   75POPC   C3B 1332  10.403   0.636   6.436
   75POPC   C4B 1333  10.357   0.261   6.188
   76POPC   NC3 1334   6.448   7.951   8.243
   76POPC   PO4 1335   6.841   7.560   8.032
   76POPC   GL1 1336   6.540   7.836   7.753
   76POPC   GL2 1337   6.186   8.015   7.804
   76POPC   C1A 1338   6.475   8.154   7.421
   76POPC   D2A 1339   6.193   8.149   7.064
   76POPC   C3A 1340   6.351   8.058   6.677
   76POPC   C4A 1341   6.490   8.051   6.256
   76POPC   C1B 1342   6.170   7.744   7.394
   76POPC   C2B 1343   6.329   7.616   6.970
   76POPC   C3B 1344   6.309   7.589   6.499
   76POPC   C4B 1345   6.032   7.839   6.211
   77POPC   NC3 1346   1.872   8.925   8.136
   77POPC   PO4 1347   1.582   8.412   8.298
   77POPC   GL1 1348   1.842   8.528   7.820
   77POPC   GL2 1349   2.209   8.609   7.885
   77POPC   C1A 1350   1.674   8.604   7.319
   77POPC   D2A 1351   1.618   8.820   6.894
   77POPC   C3A 1352   1.715   8.638   6.476
   77POPC   C4A 1353   1.770   8.710   6.020
   77POPC   C1B 1354   2.149   8.756   7.430
   77POPC   C2B 1355   2.086   8.609   6.990
   77POPC   C3B 1356   2.247   8.661   6.593
   77POPC   C4B 1357   2.218   8.554   6.204
   78POPC   NC3 1358   1.974   9.953   8.243
   78POPC   PO4 1359   1.664   0.090   8.053
   78POPC   GL1 1360   1.713  10.223   7.764
   78POPC   GL2 1361   1.977  10.317   7.526
   78POPC   C1A 1362   1.634  10.023   7.333
   78POPC   D2A 1363   1.863  10.105   6.928
   78POPC   C3A 1364   1.664   9.962   6.549
   78POPC   C4A 1365   1.617   9.806   6.145
   78POPC   C1B 1366   2.145   0.004   7.170
   78POPC   C2B 1367   2.325   0.061   6.768
   78POPC   C3B 1368   2.150  10.312   6.452
   78POPC   C4B 1369   2.104   9.909   6.317
   79POPC   NC3 1370   0.521   7.144   8.355
   79POPC   PO4 1371   0.076   7.438   7.910
   79POPC   GL1 1372   0.296   7.129   7.687
   79POPC   GL2 1373   0.640   7.035   7.773
   79POPC   C1A 1374   0.372   7.231   7.263
   79POPC   D2A 1375   0.136   7.208   6.916
   79POPC   C3A 1376   0.334   7.202   6.510
   79POPC   C4A 1377   0.665   7.455   6.296
   79POPC   C1B 1378   0.625   6.797   7.348
   79POPC   C2B 1379   0.404   6.731   6.929
   79POPC   C3B 1380   0.313   6.658   6.494
   79POPC   C4B 1381   0.459   6.857   6.145
   80POPC   NC3 1382   1.858   0.857   8.044
   80POPC   PO4 1383   2.089   1.489   7.950
   80POPC   GL1 1384   2.039   1.136   7.642
   80POPC   GL2 1385   1.677   0.994   7.583
   80POPC   C1A 1386   2.166   1.289   7.254
   80POPC   D2A 1387   2.192   1.638   6.994
   80POPC   C3A 1388   2.356   1.500   6.630
   80POPC   C4A 1389   2.169   1.191   6.367
   80POPC   C1B 1390   1.821   0.930   7.155
   80POPC   C2B 1391   1.883   1.224   6.808
   80POPC   C3B 1392   1.671   1.112   6.424
   80POPC   C4B 1393   1.545   0.733   6.232
   81POPC   NC3 1394   2.889  10.064   7.857
   81POPC   PO4 1395   2.230  10.053   7.868
   81POPC   GL1 1396   2.514  10.271   7.560
   81POPC   GL2 1397   2.882  10.449   7.557
   81POPC   C1A 1398   2.558  10.217   7.117
   81POPC   D2A 1399   2.386   9.967   6.786
   81POPC   C3A 1400   2.604  10.017   6.410
   81POPC   C4A 1401   2.646  10.419   6.288
   81POPC   C1B 1402   3.058  10.223   7.183
   81POPC   C2B 1403   2.959  10.402   6.754
   81POPC   C3B 1404   3.107  10.214   6.372
   81POPC   C4B 1405   3.049   9.765   6.329
   82POPC   NC3 1406   8.372  10.235   8.361
   82POPC   PO4 1407   8.225   9.665   8.054
   82POPC   GL1 1408   8.094   9.994   7.753
   82POPC   GL2 1409   7.762  10.063   7.764
   82POPC   C1A 1410   8.176  10.161   7.336
   82POPC   D2A 1411   8.229   9.964   6.923
   82POPC   C3A 1412   8.214  10.241   6.581
   82POPC   C4A 1413   7.948  10.247   6.226
   82POPC   C1B 1414   7.671  10.286   7.344
   82POPC   C2B 1415   7.746  10.209   6.890
   82POPC   C3B 1416   7.528  10.336   6.498
   82POPC   C4B 1417   7.541  10.433   6.001
   83POPC   NC3 1418   1.382   7.067   8.056
   83POPC   PO4 1419   0.833   7.459   8.200
   83POPC   GL1 1420   1.039   7.426   7.755
   83POPC   GL2 1421   1.138   7.081   7.615
   83POPC   C1A 1422   1.287   7.519   7.357
   83POPC   D2A 1423   1.240   7.322   6.938
   83POPC   C3A 1424   1.076   7.446   6.584
   83POPC   C4A 1425   1.210   7.467   6.163
   83POPC   C1B 1426   0.877   7.235   7.299
   83POPC   C2B 1427   0.732   7.132   6.902
   83POPC   C3B 1428   0.757   6.904   6.557
   83POPC   C4B 1429   0.935   7.050   6.206
   84POPC   NC3 1430   6.887   9.975   8.162
   84POPC   PO4 1431   7.192   0.059   7.959
   84POPC   GL1 1432   7.180  10.405   7.571
   84POPC   GL2 1433   7.276  10.123   7.627
   84POPC   C1A 1434   7.195  10.215   7.147
   84POPC   D2A 1435   6.938   9.953   6.909
   84POPC   C3A 1436   6.856  10.219   6.574
   84POPC   C4A 1437   7.097  10.335   6.223
   84POPC   C1B 1438   7.518   9.825   7.380
   84POPC   C2B 1439   7.431   9.789   6.944
   84POPC   C3B 1440   7.280   9.814   6.531
   84POPC   C4B 1441   7.469   9.956   6.157
   85POPC   NC3 1442   4.424   0.439   8.266
   85POPC   PO4 1443   3.845   0.522   8.047
   85POPC   GL1 1444   3.973   0.284   7.714
   85POPC   GL2 1445   4.286   0.201   7.833
   85POPC   C1A 1446   3.879   0.233   7.299
   85POPC   D2A 1447   3.843   0.456   6.937
   85POPC   C3A 1448   3.922   0.286   6.565
   85POPC   C4A 1449   3.955   0.474   6.184
   85POPC   C1B 1450   4.455   0.235   7.418
   85POPC   C2B 1451   4.310   0.279   6.996
   85POPC   C3B 1452   4.450   0.232   6.582
   85POPC   C4B 1453   4.469   0.470   6.194
   86POPC   NC3 1454   1.604   2.377   8.407
   86POPC   PO4 1455   1.510   2.996   7.991
   86POPC   GL1 1456   1.651   2.810   7.597
   86POPC   GL2 1457   2.018   2.797   7.655
   86POPC   C1A 1458   1.609   2.551   7.225
   86POPC   D2A 1459   1.650   2.358   6.800
   86POPC   C3A 1460   1.502   2.518   6.472
   86POPC   C4A 1461   1.774   2.680   6.189
   86POPC   C1B 1462   2.137   2.508   7.370
   86POPC   C2B 1463   2.059   2.601   6.979
   86POPC   C3B 1464   2.106   2.574   6.567
   86POPC   C4B 1465   2.307   2.615   6.184
   87POPC   NC3 1466   8.434   5.125   8.031
   87POPC   PO4 1467   8.855   4.637   8.347
   87POPC   GL1 1468   9.023   4.889   7.915
   87POPC   GL2 1469   8.726   4.861   7.717
   87POPC   C1A 1470   9.097   5.016   7.412
   87POPC   D2A 1471   8.865   5.138   6.974
   87POPC   C3A 1472   8.841   4.957   6.568
   87POPC   C4A 1473   8.606   5.140   6.241
   87POPC   C1B 1474   8.621   4.839   7.297
   87POPC   C2B 1475   8.739   4.553   6.957
   87POPC   C3B 1476   8.641   4.442   6.535
   87POPC   C4B 1477   8.464   4.651   6.173
   88POPC   NC3 1478  10.165   9.855   8.180
   88POPC   PO4 1479   9.796  10.428   8.156
   88POPC   GL1 1480   9.954  10.278   7.729
   88POPC   GL2 1481  10.303  10.122   7.760
   88POPC   C1A 1482   9.805  10.430   7.292
   88POPC   D2A 1483   9.579  10.406   6.891
   88POPC   C3A 1484   9.836  10.336   6.537
   88POPC   C4A 1485  10.044  10.362   6.141
   88POPC   C1B 1486  10.300  10.312   7.346
   88POPC   C2B 1487  10.175  10.280   6.932
   88POPC   C3B 1488   0.000  10.197   6.635
   88POPC   C4B 1489  10.464  10.112   6.221
   89POPC   NC3 1490   0.712   1.920   8.375
   89POPC   PO4 1491   1.332   2.011   8.342
   89POPC   GL1 1492   1.339   2.096   7.892
   89POPC   GL2 1493   1.107   1.832   7.803
   89POPC   C1A 1494   1.454   1.967   7.468
   89POPC   D2A 1495   1.352   2.083   7.080
   89POPC   C3A 1496   1.284   1.940   6.665
   89POPC   C4A 1497   1.411   2.010   6.249
   89POPC   C1B 1498   0.970   1.929   7.372
   89POPC   C2B 1499   0.839   1.828   6.984
   89POPC   C3B 1500   0.777   1.971   6.621
   89POPC   C4B 1501   0.927   1.765   6.296
   90POPC   NC3 1502   8.617   5.126   8.537
   90POPC   PO4 1503   8.176   5.494   8.025
   90POPC   GL1 1504   8.110   5.250   7.598
   90POPC   GL2 1505   8.201   4.913   7.621
   90POPC   C1A 1506   8.276   5.171   7.147
   90POPC   D2A 1507   8.381   4.885   6.775
   90POPC   C3A 1508   8.138   5.003   6.382
   90POPC   C4A 1509   8.112   5.123   5.925
   90POPC   C1B 1510   8.138   4.680   7.206
   90POPC   C2B 1511   7.878   4.794   6.816
   90POPC   C3B 1512   7.649   4.853   6.393
   90POPC   C4B 1513   7.484   4.853   5.954
   91POPC   NC3 1514   5.578   2.168   7.977
   91POPC   PO4 1515   6.094   1.671   7.993
   91POPC   GL1 1516   5.741   1.819   7.670
   91POPC   GL2 1517   5.872   2.172   7.577
   91POPC   C1A 1518   5.555   2.021   7.241
   91POPC   D2A 1519   5.750   2.169   6.870
   91POPC   C3A 1520   5.531   2.216   6.467
   91POPC   C4A 1521   5.512   1.897   6.141
   91POPC   C1B 1522   6.051   1.872   7.286
   91POPC   C2B 1523   6.086   1.786   6.856
   91POPC   C3B 1524   5.930   1.898   6.464
   91POPC   C4B 1525   5.977   1.980   6.006
   92POPC   NC3 1526   1.684   8.020   8.039
   92POPC   PO4 1527   2.263   7.691   8.166
   92POPC   GL1 1528   2.123   7.725   7.684
   92POPC   GL2 1529   1.762   7.768   7.601
   92POPC   C1A 1530   2.109   7.757   7.186
   92POPC   D2A 1531   2.320   8.045   6.870
   92POPC   C3A 1532   2.328   8.019   6.396
   92POPC   C4A 1533   2.050   7.720   6.173
   92POPC   C1B 1534   1.933   8.166   7.420
   92POPC   C2B 1535   1.814   8.183   6.990
   92POPC   C3B 1536   1.861   7.974   6.605
   92POPC   C4B 1537   1.876   8.203   6.221
   93POPC   NC3 1538   9.537   3.688   8.199
   93POPC   PO4 1539   8.831   3.720   8.235
   93POPC   GL1 1540   9.084   3.596   7.843
   93POPC   GL2 1541   9.384   3.381   7.785
   93POPC   C1A 1542   9.218   3.718   7.401
   93POPC   D2A 1543   9.198   3.914   6.988
   93POPC   C3A 1544   9.164   3.721   6.585
   93POPC   C4A 1545   9.273   3.612   6.156
   93POPC   C1B 1546   9.228   3.206   7.378
   93POPC   C2B 1547   9.350   3.410   6.973
   93POPC   C3B 1548   9.543   3.370   6.559
   93POPC   C4B 1549   9.478   3.115   6.215
   94POPC   NC3 1550   0.516   4.424   8.108
   94POPC   PO4 1551   0.280   5.036   8.299
   94POPC   GL1 1552   0.269   4.825   7.825
   94POPC   GL2 1553   0.618   4.779   7.749
   94POPC   C1A 1554   0.340   4.728   7.314
   94POPC   D2A 1555   0.361   4.545   6.859
   94POPC   C3A 1556   0.234   4.748   6.455
   94POPC   C4A 1557   0.195   4.736   5.988
   94POPC   C1B 1558   0.484   5.172   7.497
   94POPC   C2B 1559   0.376   5.163   7.038
   94POPC   C3B 1560   0.318   5.265   6.590
   94POPC   C4B 1561   0.445   5.141   6.149
   95POPC   NC3 1562   1.221   8.647   8.088
   95POPC   PO4 1563   1.622   9.267   7.978
   95POPC   GL1 1564   1.422   8.920   7.694
   95POPC   GL2 1565   1.087   8.685   7.600
   95POPC   C1A 1566   1.298   8.994   7.267
   95POPC   D2A 1567   1.073   8.849   6.907
   95POPC   C3A 1568   1.261   9.020   6.559
   95POPC   C4A 1569   1.292   8.826   6.179
   95POPC   C1B 1570   1.081   8.420   7.213
   95POPC   C2B 1571   1.329   8.350   6.820
   95POPC   C3B 1572   1.269   8.350   6.360
   95POPC   C4B 1573   1.050   8.432   5.951
   96POPC   NC3 1574   6.798   0.732   7.931
   96POPC   PO4 1575   6.165   0.797   8.115
   96POPC   GL1 1576   6.370   0.979   7.763
   96POPC   GL2 1577   6.439   1.323   7.802
   96POPC   C1A 1578   6.435   0.929   7.327
   96POPC   D2A 1579   6.130   0.857   7.002
   96POPC   C3A 1580   6.310   0.918   6.608
   96POPC   C4A 1581   6.100   1.025   6.244
   96POPC   C1B 1582   6.181   1.374   7.405
   96POPC   C2B 1583   6.275   1.339   6.966
   96POPC   C3B 1584   6.292   1.433   6.526
   96POPC   C4B 1585   6.552   1.235   6.220
   97POPC   NC3 1586   3.257   1.748   8.191
   97POPC   PO4 1587   3.794   1.364   8.249
   97POPC   GL1 1588   3.700   1.578   7.819
   97POPC   GL2 1589   3.395   1.806   7.704
   97POPC   C1A 1590   3.644   1.549   7.349
   97POPC   D2A 1591   3.381   1.569   6.973
   97POPC   C3A 1592   3.474   1.666   6.526
   97POPC   C4A 1593   3.264   1.848   6.159
   97POPC   C1B 1594   3.491   2.039   7.317
   97POPC   C2B 1595   3.615   2.045   6.891
   97POPC   C3B 1596   3.522   2.179   6.479
   97POPC   C4B 1597   3.730   2.174   6.100
   98POPC   NC3 1598   6.372   0.422   8.333
   98POPC   PO4 1599   5.768   0.195   8.298
   98POPC   GL1 1600   6.086   0.111   7.877
   98POPC   GL2 1601   6.277   0.435   7.740
   98POPC   C1A 1602   6.172   0.091   7.367
   98POPC   D2A 1603   6.075   0.359   6.954
   98POPC   C3A 1604   6.251   0.402   6.521
   98POPC   C4A 1605   6.176   0.192   6.115
   98POPC   C1B 1606   6.564   0.417   7.355
   98POPC   C2B 1607   6.582   0.566   6.935
   98POPC   C3B 1608   6.740   0.620   6.532
   98POPC   C4B 1609   6.559   0.723   6.175
   99POPC   NC3 1610   1.285   2.609   7.931
   99POPC   PO4 1611   0.826   2.209   8.027
   99POPC   GL1 1612   0.907   2.374   7.631
   99POPC   GL2 1613   0.815   2.723   7.644
   99POPC   C1A 1614   0.804   2.424   7.180
   99POPC   D2A 1615   1.072   2.394   6.804
   99POPC   C3A 1616   1.017   2.343   6.361
   99POPC   C4A 1617   0.884   2.575   5.993
   99POPC   C1B 1618   1.154   2.798   7.331
   99POPC   C2B 1619   1.302   2.855   6.912
   99POPC   C3B 1620   1.076   2.833   6.527
   99POPC   C4B 1621   1.275   2.853   6.154
  100POPC   NC3 1622   1.964   3.985   8.119
  100POPC   PO4 1623   2.303   4.353   7.883
  100POPC   GL1 1624   1.908   4.394   7.667
  100POPC   GL2 1625   1.656   4.127   7.698
  100POPC   C1A 1626   1.682   4.420   7.266
  100POPC   D2A 1627   1.742   4.674   6.898
  100POPC   C3A 1628   1.748   4.429   6.521
  100POPC   C4A 1629   2.095   4.363   6.227
  100POPC   C1B 1630   1.922   3.974   7.365
  100POPC   C2B 1631   1.884   4.022   6.929
  100POPC   C3B 1632   2.043   3.951   6.527
  100POPC   C4B 1633   1.722   4.011   6.229
  101POPC   NC3 1634   8.142   2.654   8.128
  101POPC   PO4 1635   8.149   3.207   7.814
  101POPC   GL1 1636   7.957   2.809   7.659
  101POPC   GL2 1637   8.109   2.436   7.679
  101POPC   C1A 1638   7.825   2.969   7.254
  101POPC   D2A 1639   8.036   3.133   6.895
  101POPC   C3A 1640   7.866   3.050   6.472
  101POPC   C4A 1641   8.092   3.192   6.098
  101POPC   C1B 1642   8.002   2.501   7.250
  101POPC   C2B 1643   8.175   2.635   6.884
  101POPC   C3B 1644   8.043   2.584   6.506
  101POPC   C4B 1645   8.089   2.687   6.128
  102POPC   NC3 1646   1.233   0.336   8.023
  102POPC   PO4 1647   0.588   0.512   8.032
  102POPC   GL1 1648   0.771   0.265   7.686
  102POPC   GL2 1649   1.074   0.412   7.542
  102POPC   C1A 1650   0.840  10.498   7.321
  102POPC   D2A 1651   1.081   0.137   6.947
  102POPC   C3A 1652   0.908  10.450   6.559
  102POPC   C4A 1653   0.751   0.160   6.209
  102POPC   C1B 1654   1.406   0.628   7.311
  102POPC   C2B 1655   1.518   0.577   6.874
  102POPC   C3B 1656   1.331   0.374   6.511
  102POPC   C4B 1657   1.210   0.326   6.072
  103POPC   NC3 1658  10.363   4.973   8.135
  103POPC   PO4 1659   9.752   4.874   8.301
  103POPC   GL1 1660   9.958   4.747   7.879
  103POPC   GL2 1661  10.046   5.054   7.732
  103POPC   C1A 1662   9.953   4.683   7.407
  103POPC   D2A 1663   9.939   4.945   7.021
  103POPC   C3A 1664   9.849   4.731   6.619
  103POPC   C4A 1665   9.927   5.001   6.263
  103POPC   C1B 1666  10.401   4.933   7.465
  103POPC   C2B 1667  10.452   4.870   7.012
  103POPC   C3B 1668  10.309   4.972   6.625
  103POPC   C4B 1669  10.457   5.111   6.241
  104POPC   NC3 1670  10.250   7.076   7.950
  104POPC   PO4 1671   0.324   6.779   8.142
  104POPC   GL1 1672   0.033   6.677   7.742
  104POPC   GL2 1673  10.163   6.817   7.535
  104POPC   C1A 1674   0.102   6.817   7.321
  104POPC   D2A 1675  10.277   6.865   7.023
  104POPC   C3A 1676  10.376   6.898   6.620
  104POPC   C4A 1677  10.103   6.816   6.370
  104POPC   C1B 1678  10.240   7.264   7.331
  104POPC   C2B 1679  10.176   7.453   6.933
  104POPC   C3B 1680  10.354   7.431   6.533
  104POPC   C4B 1681  10.120   7.370   6.192
  105POPC   NC3 1682   8.358   5.900   7.960
  105POPC   PO4 1683   8.353   6.548   8.048
  105POPC   GL1 1684   8.380   6.299   7.625
  105POPC   GL2 1685   8.055   6.137   7.613
  105POPC   C1A 1686   8.293   6.157   7.164
  105POPC   D2A 1687   8.222   6.489   6.858
  105POPC   C3A 1688   8.186   6.440   6.437
  105POPC   C4A 1689   8.367   6.144   6.202
  105POPC   C1B 1690   7.936   6.491   7.317
  105POPC   C2B 1691   7.721   6.547   6.895
  105POPC   C3B 1692   7.696   6.281   6.524
  105POPC   C4B 1693   7.858   6.109   6.153
  106POPC   NC3 1694   1.720   1.844   8.128
  106POPC   PO4 1695   1.758   2.548   8.005
  106POPC   GL1 1696   1.801   2.266   7.651
  106POPC   GL2 1697   1.922   1.891   7.653
  106POPC   C1A 1698   1.873   2.107   7.188
  106POPC   D2A 1699   2.098   2.096   6.787
  106POPC   C3A 1700   1.897   2.146   6.378
  106POPC   C4A 1701   1.837   2.225   5.946
  106POPC   C1B 1702   1.769   1.612   7.294
  106POPC   C2B 1703   1.696   1.716   6.857
  106POPC   C3B 1704   1.886   1.633   6.470
  106POPC   C4B 1705   2.227   1.759   6.202
  107POPC   NC3 1706   9.541   6.347   8.283
  107POPC   PO4 1707   8.862   6.293   8.239
  107POPC   GL1 1708   9.217   6.310   7.836
  107POPC   GL2 1709   9.400   6.575   7.782
  107POPC   C1A 1710   9.341   6.251   7.352
  107POPC   D2A 1711   9.083   6.352   6.951
  107POPC   C3A 1712   9.226   6.353   6.518
  107POPC   C4A 1713   9.402   6.491   6.118
  107POPC   C1B 1714   9.525   6.715   7.368
  107POPC   C2B 1715   9.528   6.562   6.947
  107POPC   C3B 1716   9.516   6.783   6.565
  107POPC   C4B 1717   9.655   6.921   6.186
  108POPC   NC3 1718   2.197   2.598   8.140
  108POPC   PO4 1719   2.849   2.395   8.067
  108POPC   GL1 1720   2.888   2.576   7.638
  108POPC   GL2 1721   2.541   2.664   7.637
  108POPC   C1A 1722   2.794   2.426   7.235
  108POPC   D2A 1723   2.514   2.419   6.931
  108POPC   C3A 1724   2.602   2.682   6.646
  108POPC   C4A 1725   2.835   2.508   6.340
  108POPC   C1B 1726   2.467   2.857   7.213
  108POPC   C2B 1727   2.294   3.070   6.871
  108POPC   C3B 1728   2.300   3.052   6.422
  108POPC   C4B 1729   2.696   2.988   6.215
  109POPC   NC3 1730   6.737  10.355   7.862
  109POPC   PO4 1731   6.638   9.674   7.901
  109POPC   GL1 1732   6.519   9.871   7.572
  109POPC   GL2 1733   6.819   9.990   7.457
  109POPC   C1A 1734   6.311  10.025   7.225
  109POPC   D2A 1735   6.438  10.025   6.803
  109POPC   C3A 1736   6.242   9.811   6.437
  109POPC   C4A 1737   6.270   9.765   5.933
  109POPC   C1B 1738   6.697  10.372   7.210
  109POPC   C2B 1739   6.488   0.055   6.857
  109POPC   C3B 1740   6.294  10.381   6.495
  109POPC   C4B 1741   6.536  10.144   6.184
  110POPC   NC3 1742   2.051   5.521   8.110
  110POPC   PO4 1743   1.544   5.961   8.105
  110POPC   GL1 1744   1.613   5.906   7.648
  110POPC   GL2 1745   1.916   5.786   7.674
  110POPC   C1A 1746   1.610   5.743   7.237
  110POPC   D2A 1747   1.785   5.874   6.843
  110POPC   C3A 1748   1.566   5.702   6.503
  110POPC   C4A 1749   1.626   5.567   6.088
  110POPC   C1B 1750   2.078   5.594   7.308
  110POPC   C2B 1751   2.152   5.469   6.898
  110POPC   C3B 1752   2.005   5.473   6.492
  110POPC   C4B 1753   2.121   5.456   6.076
  111POPC   NC3 1754   0.770   3.466   7.976
  111POPC   PO4 1755   0.142   3.096   8.015
  111POPC   GL1 1756   0.445   3.169   7.707
  111POPC   GL2 1757   0.377   3.540   7.662
  111POPC   C1A 1758   0.711   3.287   7.349
  111POPC   D2A 1759   0.655   3.574   6.992
  111POPC   C3A 1760   0.718   3.357   6.615
  111POPC   C4A 1761   0.581   3.384   6.164
  111POPC   C1B 1762   0.212   3.428   7.268
  111POPC   C2B 1763   0.050   3.601   6.889
  111POPC   C3B 1764   0.270   3.579   6.521
  111POPC   C4B 1765   0.346   3.843   6.153
  112POPC   NC3 1766   6.446   2.659   8.046
  112POPC   PO4 1767   6.919   3.037   7.956
  112POPC   GL1 1768   6.667   2.899   7.604
  112POPC   GL2 1769   6.698   2.549   7.630
  112POPC   C1A 1770   6.388   3.045   7.233
  112POPC   D2A 1771   6.388   3.179   6.782
  112POPC   C3A 1772   6.705   3.032   6.454
  112POPC   C4A 1773   6.728   3.037   5.989
  112POPC   C1B 1774   6.526   2.549   7.227
  112POPC   C2B 1775   6.590   2.696   6.821
  112POPC   C3B 1776   6.262   2.748   6.509
  112POPC   C4B 1777   6.015   2.397   6.307
  113POPC   NC3 1778  10.055   8.976   8.061
  113POPC   PO4 1779  10.147   8.269   8.019
  113POPC   GL1 1780   9.962   8.456   7.648
  113POPC   GL2 1781   9.914   8.820   7.593
  113POPC   C1A 1782  10.050   8.313   7.232
  113POPC   D2A 1783   9.793   8.445   6.910
  113POPC   C3A 1784   9.905   8.363   6.525
  113POPC   C4A 1785   9.942   8.725   6.300
  113POPC   C1B 1786  10.162   8.815   7.208
  113POPC   C2B 1787  10.235   8.715   6.765
  113POPC   C3B 1788  10.395   8.937   6.408
  113POPC   C4B 1789   0.001   9.257   6.157
  114POPC   NC3 1790  10.140   3.092   8.049
  114POPC   PO4 1791  10.007   3.846   8.010
  114POPC   GL1 1792   9.995   3.489   7.742
  114POPC   GL2 1793  10.363   3.407   7.681
  114POPC   C1A 1794   9.716   3.355   7.383
  114POPC   D2A 1795   9.711   3.051   7.034
  114POPC   C3A 1796   9.898   3.007   6.611
  114POPC   C4A 1797   9.946   3.268   6.223
  114POPC   C1B 1798  10.195   3.439   7.253
  114POPC   C2B 1799  10.002   3.447   6.857
  114POPC   C3B 1800  10.087   3.676   6.476
  114POPC   C4B 1801  10.400   3.609   6.169
  115POPC   NC3 1802   7.319   0.469   8.132
  115POPC   PO4 1803   6.684   0.295   8.021
  115POPC   GL1 1804   7.012   0.396   7.642
  115POPC   GL2 1805   7.411   0.400   7.633
  115POPC   C1A 1806   7.059   0.260   7.242
  115POPC   D2A 1807   7.099   0.449   6.883
  115POPC   C3A 1808   7.025   0.204   6.558
  115POPC   C4A 1809   6.663   0.144   6.298
  115POPC   C1B 1810   7.395   0.667   7.265
  115POPC   C2B 1811   7.312   0.903   6.865
  115POPC   C3B 1812   7.271   0.690   6.466
  115POPC   C4B 1813   7.467   0.324   6.313
  116POPC   NC3 1814   9.232  10.214   8.209
  116POPC   PO4 1815   9.291   0.414   8.170
  116POPC   GL1 1816   9.403   0.040   7.828
  116POPC   GL2 1817   9.455  10.165   7.775
  116POPC   C1A 1818   9.284  10.420   7.375
  116POPC   D2A 1819   9.192  10.078   7.065
  116POPC   C3A 1820   9.156  10.232   6.628
  116POPC   C4A 1821   9.388  10.283   6.276
  116POPC   C1B 1822   9.622   9.976   7.414
  116POPC   C2B 1823   9.742   9.919   6.979
  116POPC   C3B 1824   9.566   9.890   6.558
  116POPC   C4B 1825   9.769   9.941   6.160
  117POPC   NC3 1826   7.513   1.183   7.972
  117POPC   PO4 1827   8.193   1.447   7.977
  117POPC   GL1 1828   8.086   1.248   7.568
  117POPC   GL2 1829   7.801   1.003   7.578
  117POPC   C1A 1830   8.292   0.961   7.273
  117POPC   D2A 1831   8.367   0.931   6.827
  117POPC   C3A 1832   8.071   1.155   6.581
  117POPC   C4A 1833   8.001   1.509   6.310
  117POPC   C1B 1834   7.557   1.148   7.268
  117POPC   C2B 1835   7.639   1.299   6.851
  117POPC   C3B 1836   7.575   1.117   6.462
  117POPC   C4B 1837   7.692   1.127   6.053
  118POPC   NC3 1838   9.363   9.225   8.017
  118POPC   PO4 1839   9.009   9.838   8.030
  118POPC   GL1 1840   9.293   9.661   7.688
  118POPC   GL2 1841   9.644   9.500   7.651
  118POPC   C1A 1842   9.352   9.581   7.236
  118POPC   D2A 1843   9.470   9.470   6.833
  118POPC   C3A 1844   9.127   9.476   6.511
  118POPC   C4A 1845   9.120   9.856   6.252
  118POPC   C1B 1846   9.715   9.191   7.291
  118POPC   C2B 1847   9.768   8.984   6.866
  118POPC   C3B 1848   9.596   9.134   6.472
  118POPC   C4B 1849   9.532   9.490   6.185
  119POPC   NC3 1850   0.411   5.456   8.142
  119POPC   PO4 1851   0.583   6.107   8.339
  119POPC   GL1 1852   0.547   5.930   7.864
  119POPC   GL2 1853   0.275   5.708   7.742
  119POPC   C1A 1854   0.604   5.845   7.387
  119POPC   D2A 1855   0.782   5.863   6.946
  119POPC   C3A 1856   0.582   5.764   6.557
  119POPC   C4A 1857   0.627   5.846   6.147
  119POPC   C1B 1858   0.157   5.562   7.343
  119POPC   C2B 1859   0.299   5.654   6.954
  119POPC   C3B 1860   0.064   5.735   6.600
  119POPC   C4B 1861   0.157   5.589   6.216
  120POPC   NC3 1862   4.232   1.520   8.274
  120POPC   PO4 1863   4.396   2.154   8.132
  120POPC   GL1 1864   4.331   1.934   7.724
  120POPC   GL2 1865   4.426   1.568   7.765
  120POPC   C1A 1866   4.030   2.033   7.366
  120POPC   D2A 1867   4.110   2.241   6.918
  120POPC   C3A 1868   4.060   2.068   6.491
  120POPC   C4A 1869   4.216   2.022   6.035
  120POPC   C1B 1870   4.157   1.538   7.390
  120POPC   C2B 1871   4.006   1.720   6.980
  120POPC   C3B 1872   3.993   1.573   6.567
  120POPC   C4B 1873   3.866   1.680   6.156
  121POPC   NC3 1874   2.079   9.498   8.009
  121POPC   PO4 1875   1.553   9.823   8.057
  121POPC   GL1 1876   1.748   9.667   7.658
  121POPC   GL2 1877   2.098   9.719   7.540
  121POPC   C1A 1878   1.814   9.523   7.191
  121POPC   D2A 1879   2.029   9.614   6.806
  121POPC   C3A 1880   1.891   9.463   6.429
  121POPC   C4A 1881   1.633   9.197   6.187
  121POPC   C1B 1882   2.189   9.283   7.419
  121POPC   C2B 1883   2.089   9.118   7.011
  121POPC   C3B 1884   2.286   9.168   6.607
  121POPC   C4B 1885   2.130   9.083   6.185
  122POPC   NC3 1886   8.708   1.586   8.017
  122POPC   PO4 1887   8.404   2.244   8.181
  122POPC   GL1 1888   8.502   2.023   7.793
  122POPC   GL2 1889   8.887   2.016   7.763
  122POPC   C1A 1890   8.382   1.752   7.404
  122POPC   D2A 1891   8.352   1.467   7.018
  122POPC   C3A 1892   8.359   1.747   6.656
  122POPC   C4A 1893   8.374   1.896   6.229
  122POPC   C1B 1894   8.739   2.125   7.348
  122POPC   C2B 1895   8.740   1.948   6.938
  122POPC   C3B 1896   8.809   2.081   6.498
  122POPC   C4B 1897   8.716   2.274   6.078
  123POPC   NC3 1898   8.584   9.920   7.876
  123POPC   PO4 1899   8.809  10.384   8.314
  123POPC   GL1 1900   8.895  10.384   7.822
  123POPC   GL2 1901   8.976  10.078   7.583
  123POPC   C1A 1902   8.756  10.493   7.376
  123POPC   D2A 1903   8.468  10.480   7.011
  123POPC   C3A 1904   8.674   0.046   6.625
  123POPC   C4A 1905   8.918   0.052   6.243
  123POPC   C1B 1906   8.683  10.009   7.223
  123POPC   C2B 1907   8.714  10.070   6.791
  123POPC   C3B 1908   8.670  10.109   6.341
  123POPC   C4B 1909   8.343   9.994   6.061
  124POPC   NC3 1910   1.909   3.211   7.948
  124POPC   PO4 1911   1.563   3.734   8.150
  124POPC   GL1 1912   1.791   3.629   7.724
  124POPC   GL2 1913   1.651   3.312   7.534
  124POPC   C1A 1914   2.069   3.489   7.342
  124POPC   D2A 1915   2.243   3.604   6.954
  124POPC   C3A 1916   2.037   3.434   6.615
  124POPC   C4A 1917   1.945   3.558   6.207
  124POPC   C1B 1918   1.850   3.044   7.187
  124POPC   C2B 1919   1.783   2.959   6.735
  124POPC   C3B 1920   1.652   3.154   6.358
  124POPC   C4B 1921   1.855   3.130   5.963
  125POPC   NC3 1922   4.848   2.033   8.027
  125POPC   PO4 1923   5.275   2.399   7.724
  125POPC   GL1 1924   5.199   1.987   7.620
  125POPC   GL2 1925   4.825   2.004   7.514
  125POPC   C1A 1926   5.198   1.689   7.326
  125POPC   D2A 1927   5.003   1.982   7.027
  125POPC   C3A 1928   5.106   1.946   6.606
  125POPC   C4A 1929   5.036   1.844   6.191
  125POPC   C1B 1930   4.495   1.972   7.172
  125POPC   C2B 1931   4.453   1.810   6.749
  125POPC   C3B 1932   4.583   1.970   6.370
  125POPC   C4B 1933   4.860   2.328   6.284
  126POPC   NC3 1934   2.781   9.337   8.198
  126POPC   PO4 1935   2.428   9.816   8.307
  126POPC   GL1 1936   2.562   9.661   7.849
  126POPC   GL2 1937   2.833   9.427   7.716
  126POPC   C1A 1938   2.580   9.720   7.373
  126POPC   D2A 1939   2.490   9.458   7.021
  126POPC   C3A 1940   2.662   9.542   6.631
  126POPC   C4A 1941   2.418   9.531   6.270
  126POPC   C1B 1942   3.004   9.424   7.321
  126POPC   C2B 1943   2.942   9.210   6.948
  126POPC   C3B 1944   3.082   9.256   6.547
  126POPC   C4B 1945   2.870   9.316   6.184
  127POPC   NC3 1946   7.373   2.035   8.068
  127POPC   PO4 1947   6.795   2.333   8.101
  127POPC   GL1 1948   7.047   2.184   7.718
  127POPC   GL2 1949   7.017   1.820   7.735
  127POPC   C1A 1950   7.415   2.090   7.395
  127POPC   D2A 1951   7.680   2.163   6.985
  127POPC   C3A 1952   7.506   2.277   6.586
  127POPC   C4A 1953   7.336   2.229   6.172
  127POPC   C1B 1954   6.963   1.882   7.282
  127POPC   C2B 1955   7.231   1.898   6.921
  127POPC   C3B 1956   7.090   1.931   6.498
  127POPC   C4B 1957   6.837   1.640   6.286
  128POPC   NC3 1958   3.533   0.168   7.983
  128POPC   PO4 1959   3.218   0.752   8.030
  128POPC   GL1 1960   3.149   0.393   7.656
  128POPC   GL2 1961   3.418   0.155   7.508
  128POPC   C1A 1962   3.076   0.221   7.178
  128POPC   D2A 1963   3.409   0.186   6.837
  128POPC   C3A 1964   3.227   0.281   6.414
  128POPC   C4A 1965   3.012   0.193   6.010
  128POPC   C1B 1966   3.466   0.549   7.268
  128POPC   C2B 1967   3.526   0.848   6.950
  128POPC   C3B 1968   3.554   0.670   6.567
  128POPC   C4B 1969   3.427   0.745   6.199
  129POPC   NC3 1970   8.072   0.971   8.011
  129POPC   PO4 1971   8.693   0.800   8.034
  129POPC   GL1 1972   8.624   1.116   7.712
  129POPC   GL2 1973   8.866   0.927   7.536
  129POPC   C1A 1974   8.739   1.406   7.352
  129POPC   D2A 1975   8.865   1.448   6.883
  129POPC   C3A 1976   8.556   1.322   6.533
  129POPC   C4A 1977   8.480   0.928   6.312
  129POPC   C1B 1978   8.809   0.964   7.103
  129POPC   C2B 1979   8.859   0.970   6.672
  129POPC   C3B 1980   8.962   1.149   6.263
  129POPC   C4B 1981   9.222   1.005   5.935
  130POPC   NC3 1982   8.300   7.875   8.164
  130POPC   PO4 1983   7.707   7.717   7.917
  130POPC   GL1 1984   7.792   8.095   7.684
  130POPC   GL2 1985   8.157   8.012   7.665
  130POPC   C1A 1986   7.591   8.314   7.316
  130POPC   D2A 1987   7.633   8.059   6.905
  130POPC   C3A 1988   7.428   8.094   6.488
  130POPC   C4A 1989   7.424   8.480   6.263
  130POPC   C1B 1990   8.071   7.924   7.210
  130POPC   C2B 1991   7.922   7.632   6.876
  130POPC   C3B 1992   7.868   7.625   6.437
  130POPC   C4B 1993   8.155   7.889   6.276
  131POPC   NC3 1994   7.267   7.735   8.015
  131POPC   PO4 1995   7.244   8.408   8.171
  131POPC   GL1 1996   7.277   8.179   7.754
  131POPC   GL2 1997   6.892   8.217   7.820
  131POPC   C1A 1998   7.404   7.859   7.346
  131POPC   D2A 1999   7.215   7.765   6.917
  131POPC   C3A 2000   7.353   7.585   6.510
  131POPC   C4A 2001   7.458   7.673   6.078
  131POPC   C1B 2002   6.931   7.971   7.431
  131POPC   C2B 2003   6.737   7.932   7.027
  131POPC   C3B 2004   6.863   7.973   6.602
  131POPC   C4B 2005   6.982   7.813   6.209
  132POPC   NC3 2006   0.187   0.714   8.104
  132POPC   PO4 2007  10.410   0.147   7.904
  132POPC   GL1 2008   0.263   0.313   7.633
  132POPC   GL2 2009   0.369   0.664   7.615
  132POPC   C1A 2010   0.485   0.380   7.213
  132POPC   D2A 2011   0.475   0.767   6.943
  132POPC   C3A 2012   0.410   0.656   6.521
  132POPC   C4A 2013   0.355   0.501   6.153
  132POPC   C1B 2014   0.740   0.791   7.396
  132POPC   C2B 2015   0.976   0.651   7.025
  132POPC   C3B 2016   0.860   0.487   6.636
  132POPC   C4B 2017   0.852   0.675   6.241
  133POPC   NC3 2018   4.179   8.095   8.116
  133POPC   PO4 2019   3.790   7.663   8.086
  133POPC   GL1 2020   3.892   7.882   7.683
  133POPC   GL2 2021   4.252   7.935   7.650
  133POPC   C1A 2022   3.975   7.916   7.207
  133POPC   D2A 2023   3.908   8.126   6.784
  133POPC   C3A 2024   3.986   7.893   6.364
  133POPC   C4A 2025   3.673   7.651   6.078
  133POPC   C1B 2026   4.435   8.151   7.305
  133POPC   C2B 2027   4.406   7.977   6.901
  133POPC   C3B 2028   4.572   7.927   6.511
  133POPC   C4B 2029   4.459   8.029   6.132
  134POPC   NC3 2030   8.525   8.577   8.095
  134POPC   PO4 2031   9.164   8.092   8.083
  134POPC   GL1 2032   9.040   8.291   7.658
  134POPC   GL2 2033   8.766   8.544   7.653
  134POPC   C1A 2034   9.084   8.438   7.292
  134POPC   D2A 2035   8.838   8.713   7.103
  134POPC   C3A 2036   8.747   8.601   6.692
  134POPC   C4A 2037   9.018   8.440   6.368
  134POPC   C1B 2038   8.439   8.747   7.449
  134POPC   C2B 2039   8.321   8.771   7.010
  134POPC   C3B 2040   8.253   8.729   6.567
  134POPC   C4B 2041   8.547   8.688   6.209
  135POPC   NC3 2042   0.419  10.493   8.024
  135POPC   PO4 2043   0.131   9.880   8.191
  135POPC   GL1 2044   0.326  10.031   7.749
  135POPC   GL2 2045   0.688  10.144   7.709
  135POPC   C1A 2046   0.320  10.371   7.385
  135POPC   D2A 2047   0.132   0.053   7.003
  135POPC   C3A 2048   0.363   0.111   6.589
  135POPC   C4A 2049   0.285  10.486   6.147
  135POPC   C1B 2050   0.580   9.961   7.279
  135POPC   C2B 2051   0.502  10.186   6.892
  135POPC   C3B 2052   0.481  10.078   6.458
  135POPC   C4B 2053   0.686  10.163   6.085
  136POPC   NC3 2054   9.766   1.102   8.150
  136POPC   PO4 2055   9.971   1.621   8.268
  136POPC   GL1 2056   9.940   1.436   7.818
  136POPC   GL2 2057  10.255   1.362   7.645
  136POPC   C1A 2058   9.838   1.552   7.375
  136POPC   D2A 2059   9.982   1.355   6.986
  136POPC   C3A 2060   9.812   1.527   6.621
  136POPC   C4A 2061   9.988   1.724   6.314
  136POPC   C1B 2062  10.225   1.053   7.324
  136POPC   C2B 2063  10.188   0.888   6.910
  136POPC   C3B 2064  10.224   1.154   6.567
  136POPC   C4B 2065  10.184   1.036   6.184
  137POPC   NC3 2066   0.617   6.425   8.003
  137POPC   PO4 2067   0.019   6.083   8.006
  137POPC   GL1 2068   0.152   6.178   7.599
  137POPC   GL2 2069   0.430   6.360   7.541
  137POPC   C1A 2070   0.206   6.086   7.176
  137POPC   D2A 2071   0.429   6.192   6.835
  137POPC   C3A 2072   0.273   6.158   6.459
  137POPC   C4A 2073   0.135   6.110   6.075
  137POPC   C1B 2074   0.743   6.312   7.217
  137POPC   C2B 2075   0.849   6.486   6.837
  137POPC   C3B 2076   0.789   6.280   6.477
  137POPC   C4B 2077   0.578   6.359   6.111
  138POPC   NC3 2078   9.153   0.835   7.963
  138POPC   PO4 2079   9.180   1.539   8.102
  138POPC   GL1 2080   9.124   1.339   7.720
  138POPC   GL2 2081   9.463   1.209   7.706
  138POPC   C1A 2082   9.213   1.274   7.272
  138POPC   D2A 2083   9.478   1.338   6.967
  138POPC   C3A 2084   9.317   1.334   6.577
  138POPC   C4A 2085   9.442   1.480   6.173
  138POPC   C1B 2086   9.709   1.064   7.343
  138POPC   C2B 2087   9.682   0.865   6.950
  138POPC   C3B 2088   9.750   1.014   6.537
  138POPC   C4B 2089   9.696   1.049   6.095
  139POPC   NC3 2090   2.167  10.494   7.982
  139POPC   PO4 2091   2.367   0.750   7.996
  139POPC   GL1 2092   2.100   0.598   7.674
  139POPC   GL2 2093   1.733   0.488   7.727
  139POPC   C1A 2094   2.213   0.633   7.281
  139POPC   D2A 2095   2.052   0.479   6.948
  139POPC   C3A 2096   1.951   0.734   6.631
  139POPC   C4A 2097   2.059   0.562   6.270
  139POPC   C1B 2098   1.779   0.285   7.367
  139POPC   C2B 2099   1.681   0.105   6.980
  139POPC   C3B 2100   1.829   0.204   6.573
  139POPC   C4B 2101   1.697   0.232   6.161
  140POPC   NC3 2102   5.353   9.472   8.305
  140POPC   PO4 2103   4.847   9.062   8.045
  140POPC   GL1 2104   4.791   9.222   7.678
  140POPC   GL2 2105   5.012   9.444   7.612
  140POPC   C1A 2106   4.907   9.080   7.274
  140POPC   D2A 2107   4.703   9.175   6.934
  140POPC   C3A 2108   4.850   9.173   6.559
  140POPC   C4A 2109   4.763   8.900   6.273
  140POPC   C1B 2110   4.814   9.596   7.248
  140POPC   C2B 2111   4.729   9.691   6.810
  140POPC   C3B 2112   4.788   9.652   6.402
  140POPC   C4B 2113   4.952   9.522   6.010
  141POPC   NC3 2114   9.586   1.879   8.189
  141POPC   PO4 2115   9.195   2.375   8.114
  141POPC   GL1 2116   9.405   2.090   7.764
  141POPC   GL2 2117   9.482   1.732   7.713
  141POPC   C1A 2118   9.563   2.058   7.312
  141POPC   D2A 2119   9.856   1.924   6.973
  141POPC   C3A 2120   9.746   2.110   6.576
  141POPC   C4A 2121   9.600   2.118   6.163
  141POPC   C1B 2122   9.147   1.775   7.379
  141POPC   C2B 2123   9.254   1.797   6.930
  141POPC   C3B 2124   9.288   1.859   6.490
  141POPC   C4B 2125   9.107   1.913   6.074
  142POPC   NC3 2126  10.217   2.006   8.322
  142POPC   PO4 2127  10.162   2.622   8.018
  142POPC   GL1 2128  10.129   2.685   7.605
  142POPC   GL2 2129  10.050   3.011   7.549
  142POPC   C1A 2130  10.080   2.711   7.142
  142POPC   D2A 2131   9.772   2.543   6.889
  142POPC   C3A 2132  10.068   2.519   6.586
  142POPC   C4A 2133  10.061   2.359   6.187
  142POPC   C1B 2134  10.448   2.994   7.345
  142POPC   C2B 2135  10.439   3.109   6.925
  142POPC   C3B 2136  10.357   3.230   6.526
  142POPC   C4B 2137  10.268   2.870   6.275
  143POPC   NC3 2138   4.514   9.497   8.058
  143POPC   PO4 2139   3.896   9.199   7.992
  143POPC   GL1 2140   4.228   9.220   7.715
  143POPC   GL2 2141   4.122   9.550   7.664
  143POPC   C1A 2142   4.420   9.294   7.343
  143POPC   D2A 2143   4.316   9.499   6.999
  143POPC   C3A 2144   4.372   9.335   6.579
  143POPC   C4A 2145   4.429   9.427   6.145
  143POPC   C1B 2146   3.909   9.360   7.277
  143POPC   C2B 2147   3.890   9.341   6.802
  143POPC   C3B 2148   3.902   9.389   6.391
  143POPC   C4B 2149   4.004   9.690   6.186
  144POPC   NC3 2150   4.927   8.588   8.109
  144POPC   PO4 2151   5.502   8.762   7.997
  144POPC   GL1 2152   5.158   8.756   7.653
  144POPC   GL2 2153   4.782   8.711   7.642
  144POPC   C1A 2154   5.261   8.726   7.225
  144POPC   D2A 2155   5.337   8.996   6.907
  144POPC   C3A 2156   5.224   8.831   6.537
  144POPC   C4A 2157   5.193   8.500   6.258
  144POPC   C1B 2158   4.795   8.531   7.220
  144POPC   C2B 2159   4.773   8.682   6.790
  144POPC   C3B 2160   4.699   8.427   6.425
  144POPC   C4B 2161   4.533   8.517   6.025
  145POPC   NC3 2162   8.684   4.163   8.278
  145POPC   PO4 2163   8.397   4.678   8.062
  145POPC   GL1 2164   8.370   4.443   7.667
  145POPC   GL2 2165   8.668   4.384   7.465
  145POPC   C1A 2166   8.238   4.172   7.299
  145POPC   D2A 2167   8.319   4.261   6.883
  145POPC   C3A 2168   8.265   4.009   6.499
  145POPC   C4A 2169   8.090   4.136   6.079
  145POPC   C1B 2170   8.744   4.064   7.174
  145POPC   C2B 2171   8.715   3.938   6.769
  145POPC   C3B 2172   8.752   3.912   6.352
  145POPC   C4B 2173   8.734   4.231   6.072
  146POPC   NC3 2174   7.143   2.672   8.089
  146POPC   PO4 2175   7.730   2.331   8.054
  146POPC   GL1 2176   7.503   2.500   7.680
  146POPC   GL2 2177   7.181   2.698   7.590
  146POPC   C1A 2178   7.494   2.572   7.223
  146POPC   D2A 2179   7.670   2.702   6.850
  146POPC   C3A 2180   7.398   2.800   6.536
  146POPC   C4A 2181   7.587   2.660   6.212
  146POPC   C1B 2182   7.014   2.399   7.265
  146POPC   C2B 2183   6.860   2.251   6.884
  146POPC   C3B 2184   7.008   2.426   6.544
  146POPC   C4B 2185   7.002   2.661   6.228
  147POPC   NC3 2186   5.037  10.337   7.915
  147POPC   PO4 2187   4.906   9.744   8.210
  147POPC   GL1 2188   5.155   9.853   7.852
  147POPC   GL2 2189   4.886   9.954   7.619
  147POPC   C1A 2190   5.276   9.821   7.365
  147POPC   D2A 2191   5.066   9.992   7.012
  147POPC   C3A 2192   5.203   9.869   6.591
  147POPC   C4A 2193   5.026  10.045   6.205
  147POPC   C1B 2194   4.754  10.288   7.322
  147POPC   C2B 2195   4.557  10.333   6.949
  147POPC   C3B 2196   4.690  10.188   6.577
  147POPC   C4B 2197   4.681  10.429   6.214
  148POPC   NC3 2198   8.810   0.352   8.159
  148POPC   PO4 2199   8.135   0.005   8.066
  148POPC   GL1 2200   8.446   0.198   7.734
  148POPC   GL2 2201   8.719   0.433   7.674
  148POPC   C1A 2202   8.379   0.413   7.296
  148POPC   D2A 2203   8.178   0.469   6.863
  148POPC   C3A 2204   8.372   0.448   6.464
  148POPC   C4A 2205   8.370   0.086   6.207
  148POPC   C1B 2206   8.880   0.474   7.262
  148POPC   C2B 2207   8.699   0.501   6.883
  148POPC   C3B 2208   8.888   0.489   6.515
  148POPC   C4B 2209   8.929   0.644   6.151
  149POPC   NC3 2210   4.214   8.851   8.063
  149POPC   PO4 2211   4.587   8.286   8.087
  149POPC   GL1 2212   4.311   8.484   7.695
  149POPC   GL2 2213   3.995   8.736   7.606
  149POPC   C1A 2214   4.388   8.791   7.317
  149POPC   D2A 2215   4.211   8.978   6.949
  149POPC   C3A 2216   4.310   8.841   6.511
  149POPC   C4A 2217   4.274   8.958   6.065
  149POPC   C1B 2218   4.020   8.443   7.246
  149POPC   C2B 2219   4.292   8.465   6.869
  149POPC   C3B 2220   4.192   8.360   6.420
  149POPC   C4B 2221   4.035   8.524   6.018
  150POPC   NC3 2222   9.780  10.279   4.145
  150POPC   PO4 2223   9.158  10.215   3.713
  150POPC   GL1 2224   9.249   9.977   4.191
  150POPC   GL2 2225   9.481  10.040   4.444
  150POPC   C1A 2226   9.050  10.124   4.655
  150POPC   D2A 2227   9.031  10.362   5.072
  150POPC   C3A 2228   9.242  10.214   5.444
  150POPC   C4A 2229   9.125  10.278   5.850
  150POPC   C1B 2230   9.715  10.199   4.792
  150POPC   C2B 2231   9.849  10.050   5.175
  150POPC   C3B 2232   9.880  10.339   5.518
  150POPC   C4B 2233   9.634  10.322   5.842
  151POPC   NC3 2234   6.366   9.804   3.947
  151POPC   PO4 2235   6.843  10.024   3.690
  151POPC   GL1 2236   6.755  10.010   4.160
  151POPC   GL2 2237   6.496  10.280   4.176
  151POPC   C1A 2238   6.495   9.905   4.571
  151POPC   D2A 2239   6.291  10.000   4.958
  151POPC   C3A 2240   6.566   9.940   5.290
  151POPC   C4A 2241   6.687   9.956   5.708
  151POPC   C1B 2242   6.276  10.376   4.583
  151POPC   C2B 2243   6.252   0.038   4.994
  151POPC   C3B 2244   6.331  10.384   5.357
  151POPC   C4B 2245   6.314  10.314   5.773
  152POPC   NC3 2246   0.792   9.573   4.078
  152POPC   PO4 2247   1.293   9.109   3.921
  152POPC   GL1 2248   1.288   9.356   4.300
  152POPC   GL2 2249   1.581   9.611   4.236
  152POPC   C1A 2250   1.009   9.244   4.679
  152POPC   D2A 2251   1.025   9.025   5.087
  152POPC   C3A 2252   0.804   9.170   5.462
  152POPC   C4A 2253   0.993   9.384   5.805
  152POPC   C1B 2254   1.496   9.721   4.651
  152POPC   C2B 2255   1.379   9.438   4.970
  152POPC   C3B 2256   1.286   9.366   5.382
  152POPC   C4B 2257   1.488   9.489   5.773
  153POPC   NC3 2258   1.471  10.256   3.964
  153POPC   PO4 2259   0.888   9.934   3.722
  153POPC   GL1 2260   0.982  10.090   4.159
  153POPC   GL2 2261   1.170   9.873   4.259
  153POPC   C1A 2262   1.148  10.241   4.598
  153POPC   D2A 2263   0.863  10.344   4.945
  153POPC   C3A 2264   0.918  10.282   5.400
  153POPC   C4A 2265   1.041  10.411   5.811
  153POPC   C1B 2266   0.976   9.767   4.673
  153POPC   C2B 2267   1.091   9.887   5.072
  153POPC   C3B 2268   1.169   9.842   5.498
  153POPC   C4B 2269   1.503  10.052   5.690
  154POPC   NC3 2270   1.122   1.358   4.047
  154POPC   PO4 2271   1.656   0.889   3.854
  154POPC   GL1 2272   1.536   1.104   4.267
  154POPC   GL2 2273   1.228   1.040   4.459
  154POPC   C1A 2274   1.559   1.380   4.697
  154POPC   D2A 2275   1.358   1.430   5.120
  154POPC   C3A 2276   1.568   1.481   5.531
  154POPC   C4A 2277   1.551   1.244   5.926
  154POPC   C1B 2278   1.044   1.440   4.670
  154POPC   C2B 2279   0.866   1.540   5.046
  154POPC   C3B 2280   0.818   1.221   5.366
  154POPC   C4B 2281   1.045   1.239   5.728
  155POPC   NC3 2282   8.796   7.806   3.889
  155POPC   PO4 2283   8.263   8.303   3.868
  155POPC   GL1 2284   8.280   8.134   4.288
  155POPC   GL2 2285   8.597   7.942   4.331
  155POPC   C1A 2286   8.286   8.043   4.720
  155POPC   D2A 2287   8.558   8.131   5.043
  155POPC   C3A 2288   8.523   7.997   5.468
  155POPC   C4A 2289   8.217   8.015   5.793
  155POPC   C1B 2290   8.842   7.855   4.685
  155POPC   C2B 2291   8.822   7.699   5.106
  155POPC   C3B 2292   9.029   7.846   5.486
  155POPC   C4B 2293   8.843   7.847   5.899
  156POPC   NC3 2294   2.755   1.121   3.977
  156POPC   PO4 2295   3.130   1.568   3.665
  156POPC   GL1 2296   3.048   1.436   4.203
  156POPC   GL2 2297   2.697   1.407   4.364
  156POPC   C1A 2298   3.071   1.382   4.693
  156POPC   D2A 2299   3.021   1.055   5.022
  156POPC   C3A 2300   3.073   1.186   5.451
  156POPC   C4A 2301   2.887   1.053   5.853
  156POPC   C1B 2302   2.553   1.204   4.709
  156POPC   C2B 2303   2.577   1.401   5.111
  156POPC   C3B 2304   2.581   1.299   5.526
  156POPC   C4B 2305   2.323   0.986   5.629
  157POPC   NC3 2306   0.618   3.309   4.016
  157POPC   PO4 2307  10.471   3.435   3.829
  157POPC   GL1 2308   0.136   3.531   4.255
  157POPC   GL2 2309   0.342   3.251   4.418
  157POPC   C1A 2310   0.033   3.569   4.700
  157POPC   D2A 2311   0.274   3.466   5.057
  157POPC   C3A 2312   0.142   3.455   5.473
  157POPC   C4A 2313   0.356   3.169   5.741
  157POPC   C1B 2314   0.659   3.405   4.677
  157POPC   C2B 2315   0.827   3.468   5.053
  157POPC   C3B 2316   0.741   3.354   5.453
  157POPC   C4B 2317   0.541   3.658   5.728
  158POPC   NC3 2318   8.796   5.387   3.848
  158POPC   PO4 2319   8.875   6.054   3.940
  158POPC   GL1 2320   8.846   5.741   4.302
  158POPC   GL2 2321   8.517   5.750   4.259
  158POPC   C1A 2322   8.948   5.523   4.727
  158POPC   D2A 2323   8.722   5.508   5.115
  158POPC   C3A 2324   8.833   5.557   5.520
  158POPC   C4A 2325   8.540   5.369   5.806
  158POPC   C1B 2326   8.461   5.670   4.690
  158POPC   C2B 2327   8.235   5.669   5.068
  158POPC   C3B 2328   8.405   5.870   5.398
  158POPC   C4B 2329   8.490   5.868   5.808
  159POPC   NC3 2330   7.889   4.971   3.793
  159POPC   PO4 2331   8.420   4.902   3.913
  159POPC   GL1 2332   8.263   4.728   4.289
  159POPC   GL2 2333   7.891   4.794   4.317
  159POPC   C1A 2334   8.227   4.826   4.741
  159POPC   D2A 2335   8.085   4.681   5.181
  159POPC   C3A 2336   7.844   4.795   5.578
  159POPC   C4A 2337   7.951   4.651   6.020
  159POPC   C1B 2338   7.770   5.031   4.746
  159POPC   C2B 2339   7.852   5.178   5.215
  159POPC   C3B 2340   7.651   5.256   5.655
  159POPC   C4B 2341   7.679   5.318   6.119
  160POPC   NC3 2342   2.147  10.283   3.933
  160POPC   PO4 2343   1.665   0.199   3.888
  160POPC   GL1 2344   1.839  10.484   4.286
  160POPC   GL2 2345   1.686  10.156   4.403
  160POPC   C1A 2346   2.152  10.481   4.673
  160POPC   D2A 2347   2.219  10.370   5.148
  160POPC   C3A 2348   2.048   0.054   5.567
  160POPC   C4A 2349   2.163   0.093   6.028
  160POPC   C1B 2350   1.782  10.155   4.829
  160POPC   C2B 2351   1.801  10.040   5.250
  160POPC   C3B 2352   2.006  10.045   5.644
  160POPC   C4B 2353   1.835  10.237   6.030
  161POPC   NC3 2354   1.898   4.501   4.057
  161POPC   PO4 2355   1.772   3.914   3.745
  161POPC   GL1 2356   2.005   4.020   4.198
  161POPC   GL2 2357   1.772   4.058   4.480
  161POPC   C1A 2358   2.206   3.988   4.687
  161POPC   D2A 2359   1.955   4.090   5.072
  161POPC   C3A 2360   2.164   4.006   5.488
  161POPC   C4A 2361   2.205   3.956   5.951
  161POPC   C1B 2362   1.795   4.464   4.702
  161POPC   C2B 2363   1.793   4.671   5.091
  161POPC   C3B 2364   1.778   4.424   5.434
  161POPC   C4B 2365   1.772   4.177   5.775
  162POPC   NC3 2366   7.103   0.542   4.016
  162POPC   PO4 2367   7.674   0.329   3.814
  162POPC   GL1 2368   7.610   0.503   4.206
  162POPC   GL2 2369   7.395   0.238   4.325
  162POPC   C1A 2370   7.572   0.590   4.656
  162POPC   D2A 2371   7.468   0.442   5.098
  162POPC   C3A 2372   7.393   0.716   5.471
  162POPC   C4A 2373   7.418   0.692   5.951
  162POPC   C1B 2374   7.115   0.355   4.694
  162POPC   C2B 2375   6.992   0.237   5.117
  162POPC   C3B 2376   7.085   0.297   5.596
  162POPC   C4B 2377   7.018   0.404   6.061
  163POPC   NC3 2378   7.961  10.491   3.933
  163POPC   PO4 2379   8.548   0.153   3.759
  163POPC   GL1 2380   8.266   0.285   4.187
  163POPC   GL2 2381   8.123   0.604   4.154
  163POPC   C1A 2382   7.901   0.181   4.534
  163POPC   D2A 2383   7.764  10.404   4.915
  163POPC   C3A 2384   7.835   0.068   5.338
  163POPC   C4A 2385   7.604   0.292   5.652
  163POPC   C1B 2386   8.072   0.653   4.584
  163POPC   C2B 2387   7.990   0.427   4.978
  163POPC   C3B 2388   7.877   0.627   5.353
  163POPC   C4B 2389   7.881   0.721   5.761
  164POPC   NC3 2390   8.789  10.284   4.015
  164POPC   PO4 2391   8.663   9.665   3.890
  164POPC   GL1 2392   8.810   9.813   4.302
  164POPC   GL2 2393   8.598  10.071   4.424
  164POPC   C1A 2394   8.713   9.696   4.743
  164POPC   D2A 2395   8.839   9.914   5.081
  164POPC   C3A 2396   8.984   9.787   5.480
  164POPC   C4A 2397   8.805   9.894   5.851
  164POPC   C1B 2398   8.629  10.407   4.721
  164POPC   C2B 2399   8.531  10.486   5.137
  164POPC   C3B 2400   8.672  10.229   5.464
  164POPC   C4B 2401   8.632  10.357   5.859
  165POPC   NC3 2402   2.101   2.649   3.896
  165POPC   PO4 2403   1.427   2.561   3.881
  165POPC   GL1 2404   1.615   2.789   4.244
  165POPC   GL2 2405   1.935   2.733   4.361
  165POPC   C1A 2406   1.578   2.782   4.727
  165POPC   D2A 2407   1.802   2.733   5.144
  165POPC   C3A 2408   1.543   2.871   5.386
  165POPC   C4A 2409   1.538   2.801   5.736
  165POPC   C1B 2410   2.096   2.638   4.767
  165POPC   C2B 2411   2.327   2.434   5.064
  165POPC   C3B 2412   2.163   2.367   5.452
  165POPC   C4B 2413   2.013   2.650   5.746
  166POPC   NC3 2414   6.609   8.338   3.720
  166POPC   PO4 2415   6.132   8.783   3.814
  166POPC   GL1 2416   6.137   8.749   4.362
  166POPC   GL2 2417   6.514   8.766   4.537
  166POPC   C1A 2418   6.243   8.431   4.752
  166POPC   D2A 2419   6.499   8.567   5.115
  166POPC   C3A 2420   6.323   8.539   5.540
  166POPC   C4A 2421   6.192   8.190   5.815
  166POPC   C1B 2422   6.234   8.945   4.846
  166POPC   C2B 2423   6.203   9.042   5.271
  166POPC   C3B 2424   6.543   8.995   5.533
  166POPC   C4B 2425   6.593   8.987   5.978
  167POPC   NC3 2426  10.220   7.248   3.967
  167POPC   PO4 2427   9.801   6.805   3.818
  167POPC   GL1 2428   9.824   7.034   4.259
  167POPC   GL2 2429  10.151   7.159   4.442
  167POPC   C1A 2430   9.791   6.999   4.735
  167POPC   D2A 2431   9.960   6.875   5.127
  167POPC   C3A 2432  10.003   7.097   5.492
  167POPC   C4A 2433  10.057   6.991   5.888
  167POPC   C1B 2434  10.212   7.393   4.835
  167POPC   C2B 2435  10.409   7.206   5.214
  167POPC   C3B 2436   0.005   6.965   5.645
  167POPC   C4B 2437   0.001   7.054   6.131
  168POPC   NC3 2438   8.182   1.658   4.160
  168POPC   PO4 2439   8.196   1.059   3.848
  168POPC   GL1 2440   8.178   1.121   4.254
  168POPC   GL2 2441   7.828   1.014   4.278
  168POPC   C1A 2442   8.359   1.058   4.667
  168POPC   D2A 2443   8.165   0.899   5.039
  168POPC   C3A 2444   8.264   0.988   5.485
  168POPC   C4A 2445   8.182   1.107   5.924
  168POPC   C1B 2446   7.889   1.243   4.694
  168POPC   C2B 2447   7.887   1.290   5.164
  168POPC   C3B 2448   7.784   1.174   5.555
  168POPC   C4B 2449   7.584   1.528   5.746
  169POPC   NC3 2450   4.894   8.464   4.026
  169POPC   PO4 2451   4.868   9.171   3.929
  169POPC   GL1 2452   4.879   8.968   4.314
  169POPC   GL2 2453   4.597   8.751   4.328
  169POPC   C1A 2454   4.782   9.021   4.745
  169POPC   D2A 2455   4.612   8.937   5.129
  169POPC   C3A 2456   4.796   8.816   5.468
  169POPC   C4A 2457   4.958   8.691   5.846
  169POPC   C1B 2458   4.792   8.496   4.670
  169POPC   C2B 2459   4.922   8.513   5.098
  169POPC   C3B 2460   4.828   8.315   5.522
  169POPC   C4B 2461   4.917   8.181   5.955
  170POPC   NC3 2462   7.790   6.518   3.905
  170POPC   PO4 2463   7.555   7.038   4.072
  170POPC   GL1 2464   7.820   6.726   4.389
  170POPC   GL2 2465   8.039   6.436   4.333
  170POPC   C1A 2466   7.948   6.526   4.828
  170POPC   D2A 2467   7.716   6.379   5.201
  170POPC   C3A 2468   7.777   6.575   5.605
  170POPC   C4A 2469   8.022   6.560   5.960
  170POPC   C1B 2470   8.209   6.123   4.594
  170POPC   C2B 2471   8.345   6.181   4.990
  170POPC   C3B 2472   8.208   6.375   5.339
  170POPC   C4B 2473   8.037   6.114   5.682
  171POPC   NC3 2474   5.635   2.210   3.990
  171POPC   PO4 2475   5.342   1.645   3.825
  171POPC   GL1 2476   5.520   1.730   4.241
  171POPC   GL2 2477   5.862   1.854   4.282
  171POPC   C1A 2478   5.662   1.626   4.685
  171POPC   D2A 2479   5.844   1.720   5.075
  171POPC   C3A 2480   5.602   1.825   5.418
  171POPC   C4A 2481   5.724   1.620   5.771
  171POPC   C1B 2482   5.661   2.122   4.651
  171POPC   C2B 2483   5.752   2.230   5.097
  171POPC   C3B 2484   5.868   2.258   5.554
  171POPC   C4B 2485   5.626   2.359   5.943
  172POPC   NC3 2486   1.506   3.760   4.108
  172POPC   PO4 2487   0.969   3.442   3.763
  172POPC   GL1 2488   1.038   3.568   4.197
  172POPC   GL2 2489   1.062   3.253   4.368
  172POPC   C1A 2490   1.082   3.725   4.649
  172POPC   D2A 2491   1.283   3.739   5.079
  172POPC   C3A 2492   0.989   3.788   5.456
  172POPC   C4A 2493   1.013   3.591   5.874
  172POPC   C1B 2494   1.357   3.273   4.708
  172POPC   C2B 2495   1.244   3.196   5.118
  172POPC   C3B 2496   1.345   3.388   5.480
  172POPC   C4B 2497   1.381   3.254   5.874
  173POPC   NC3 2498   0.623   2.222   4.102
  173POPC   PO4 2499   0.725   2.901   4.188
  173POPC   GL1 2500   0.636   2.616   4.421
  173POPC   GL2 2501   0.296   2.663   4.411
  173POPC   C1A 2502   0.711   2.450   4.783
  173POPC   D2A 2503   0.501   2.484   5.151
  173POPC   C3A 2504   0.655   2.645   5.545
  173POPC   C4A 2505   0.413   2.468   5.832
  173POPC   C1B 2506   0.445   2.917   4.795
  173POPC   C2B 2507   0.441   2.998   5.225
  173POPC   C3B 2508   0.174   2.742   5.466
  173POPC   C4B 2509   0.034   2.813   5.869
  174POPC   NC3 2510   1.828   7.154   3.986
  174POPC   PO4 2511   2.482   7.154   3.914
  174POPC   GL1 2512   2.213   7.094   4.312
  174POPC   GL2 2513   1.908   7.298   4.454
  174POPC   C1A 2514   2.161   7.023   4.777
  174POPC   D2A 2515   2.113   7.263   5.161
  174POPC   C3A 2516   2.148   6.952   5.462
  174POPC   C4A 2517   2.080   6.866   5.869
  174POPC   C1B 2518   1.667   7.168   4.798
  174POPC   C2B 2519   1.686   6.986   5.202
  174POPC   C3B 2520   1.696   7.141   5.610
  174POPC   C4B 2521   1.678   7.406   5.958
  175POPC   NC3 2522   7.226   7.358   4.017
  175POPC   PO4 2523   6.752   7.913   3.877
  175POPC   GL1 2524   7.040   7.875   4.311
  175POPC   GL2 2525   7.393   7.985   4.388
  175POPC   C1A 2526   7.079   7.778   4.774
  175POPC   D2A 2527   7.252   7.765   5.220
  175POPC   C3A 2528   7.102   7.700   5.666
  175POPC   C4A 2529   7.074   7.355   5.982
  175POPC   C1B 2530   7.333   8.239   4.752
  175POPC   C2B 2531   7.383   8.381   5.167
  175POPC   C3B 2532   7.207   8.194   5.515
  175POPC   C4B 2533   7.268   8.126   5.927
  176POPC   NC3 2534   1.294   2.120   3.846
  176POPC   PO4 2535   1.526   1.587   4.079
  176POPC   GL1 2536   1.487   1.910   4.339
  176POPC   GL2 2537   1.151   1.894   4.372
  176POPC   C1A 2538   1.414   1.863   4.794
  176POPC   D2A 2539   1.381   1.972   5.191
  176POPC   C3A 2540   1.102   1.737   5.472
  176POPC   C4A 2541   1.240   1.646   5.914
  176POPC   C1B 2542   0.891   1.953   4.746
  176POPC   C2B 2543   0.931   2.187   5.151
  176POPC   C3B 2544   0.754   2.149   5.556
  176POPC   C4B 2545   0.991   2.089   5.908
  177POPC   NC3 2546   5.030   0.544   3.814
  177POPC   PO4 2547   4.442   0.582   4.069
  177POPC   GL1 2548   4.647   0.598   4.440
  177POPC   GL2 2549   4.896   0.361   4.279
  177POPC   C1A 2550   4.683   0.679   4.904
  177POPC   D2A 2551   4.652   0.416   5.240
  177POPC   C3A 2552   4.735   0.582   5.616
  177POPC   C4A 2553   4.766   0.249   5.843
  177POPC   C1B 2554   4.951   0.294   4.699
  177POPC   C2B 2555   5.122   0.472   5.053
  177POPC   C3B 2556   5.133   0.317   5.436
  177POPC   C4B 2557   5.278   0.397   5.808
  178POPC   NC3 2558   3.483   1.839   3.901
  178POPC   PO4 2559   2.942   1.889   4.068
  178POPC   GL1 2560   3.259   1.870   4.386
  178POPC   GL2 2561   3.575   1.996   4.394
  178POPC   C1A 2562   3.193   1.862   4.836
  178POPC   D2A 2563   3.397   1.930   5.209
  178POPC   C3A 2564   3.199   1.668   5.458
  178POPC   C4A 2565   2.953   1.587   5.818
  178POPC   C1B 2566   3.451   2.274   4.755
  178POPC   C2B 2567   3.594   2.420   5.134
  178POPC   C3B 2568   3.734   2.279   5.521
  178POPC   C4B 2569   3.459   2.022   5.716
  179POPC   NC3 2570   6.536   2.273   3.973
  179POPC   PO4 2571   6.859   1.712   3.924
  179POPC   GL1 2572   6.752   1.942   4.316
  179POPC   GL2 2573   6.387   1.871   4.314
  179POPC   C1A 2574   6.632   1.992   4.764
  179POPC   D2A 2575   6.764   1.864   5.169
  179POPC   C3A 2576   6.588   2.080   5.509
  179POPC   C4A 2577   6.604   1.798   5.824
  179POPC   C1B 2578   6.138   1.948   4.715
  179POPC   C2B 2579   6.227   2.053   5.161
  179POPC   C3B 2580   6.140   1.822   5.552
  179POPC   C4B 2581   6.199   1.500   5.932
  180POPC   NC3 2582   9.001   0.201   3.682
  180POPC   PO4 2583   9.348  10.444   4.146
  180POPC   GL1 2584   8.986   0.063   4.393
  180POPC   GL2 2585   8.768   0.266   4.207
  180POPC   C1A 2586   8.934   0.309   4.787
  180POPC   D2A 2587   9.169   0.350   5.155
  180POPC   C3A 2588   8.959   0.165   5.490
  180POPC   C4A 2589   8.746   0.339   5.806
  180POPC   C1B 2590   8.574   0.558   4.548
  180POPC   C2B 2591   8.521   0.528   5.031
  180POPC   C3B 2592   8.340   0.430   5.473
  180POPC   C4B 2593   8.341   0.592   5.930
  181POPC   NC3 2594  10.323   0.603   3.982
  181POPC   PO4 2595   9.712   0.547   3.741
  181POPC   GL1 2596   9.865   0.512   4.253
  181POPC   GL2 2597  10.196   0.357   4.393
  181POPC   C1A 2598   9.804   0.209   4.631
  181POPC   D2A 2599   9.671   0.436   4.985
  181POPC   C3A 2600   9.896   0.407   5.378
  181POPC   C4A 2601  10.000   0.261   5.799
  181POPC   C1B 2602  10.156   0.500   4.807
  181POPC   C2B 2603  10.125   0.776   5.113
  181POPC   C3B 2604  10.370   0.704   5.455
  181POPC   C4B 2605  10.379   0.668   5.900
  182POPC   NC3 2606   8.537   2.449   3.962
  182POPC   PO4 2607   8.986   3.014   3.905
  182POPC   GL1 2608   8.880   2.828   4.283
  182POPC   GL2 2609   8.577   3.021   4.319
  182POPC   C1A 2610   9.070   2.722   4.687
  182POPC   D2A 2611   8.982   2.930   5.080
  182POPC   C3A 2612   9.008   2.668   5.426
  182POPC   C4A 2613   8.877   2.689   5.842
  182POPC   C1B 2614   8.495   2.698   4.624
  182POPC   C2B 2615   8.629   2.555   5.035
  182POPC   C3B 2616   8.520   2.818   5.349
  182POPC   C4B 2617   8.377   2.753   5.739
  183POPC   NC3 2618   4.695  10.221   3.878
  183POPC   PO4 2619   5.279   0.087   3.837
  183POPC   GL1 2620   5.265  10.476   4.241
  183POPC   GL2 2621   5.069  10.200   4.206
  183POPC   C1A 2622   5.334  10.466   4.669
  183POPC   D2A 2623   5.071  10.449   5.050
  183POPC   C3A 2624   5.254  10.331   5.427
  183POPC   C4A 2625   5.049  10.345   5.793
  183POPC   C1B 2626   4.827  10.271   4.590
  183POPC   C2B 2627   4.788  10.039   4.987
  183POPC   C3B 2628   4.970   9.886   5.357
  183POPC   C4B 2629   4.762   9.916   5.764
  184POPC   NC3 2630   9.450   0.720   4.074
  184POPC   PO4 2631   9.888   1.091   4.153
  184POPC   GL1 2632   9.644   0.986   4.468
  184POPC   GL2 2633   9.301   1.047   4.417
  184POPC   C1A 2634   9.708   0.975   4.880
  184POPC   D2A 2635   9.636   0.838   5.280
  184POPC   C3A 2636   9.879   1.051   5.554
  184POPC   C4A 2637   9.554   1.313   5.682
  184POPC   C1B 2638   9.292   1.289   4.767
  184POPC   C2B 2639   9.396   1.286   5.184
  184POPC   C3B 2640   9.087   1.223   5.494
  184POPC   C4B 2641   9.028   1.471   5.850
  185POPC   NC3 2642   2.395   8.776   4.025
  185POPC   PO4 2643   2.882   8.385   3.805
  185POPC   GL1 2644   2.733   8.432   4.264
  185POPC   GL2 2645   2.359   8.472   4.422
  185POPC   C1A 2646   2.772   8.590   4.707
  185POPC   D2A 2647   2.976   8.749   5.087
  185POPC   C3A 2648   2.765   9.075   5.361
  185POPC   C4A 2649   2.854   8.918   5.789
  185POPC   C1B 2650   2.218   8.380   4.820
  185POPC   C2B 2651   2.434   8.629   5.100
  185POPC   C3B 2652   2.642   8.592   5.470
  185POPC   C4B 2653   2.559   8.406   5.868
  186POPC   NC3 2654   7.267  10.175   3.789
  186POPC   PO4 2655   6.889   0.130   4.098
  186POPC   GL1 2656   7.143  10.292   4.281
  186POPC   GL2 2657   7.277   9.908   4.211
  186POPC   C1A 2658   6.945  10.133   4.634
  186POPC   D2A 2659   6.706  10.316   4.968
  186POPC   C3A 2660   6.847  10.355   5.410
  186POPC   C4A 2661   6.806  10.434   5.838
  186POPC   C1B 2662   7.342   9.813   4.645
  186POPC   C2B 2663   7.273  10.050   5.013
  186POPC   C3B 2664   7.089   9.911   5.387
  186POPC   C4B 2665   7.201  10.119   5.754
  187POPC   NC3 2666   7.137   9.184   3.800
  187POPC   PO4 2667   7.574   9.464   4.080
  187POPC   GL1 2668   7.410   9.216   4.403
  187POPC   GL2 2669   7.096   9.247   4.299
  187POPC   C1A 2670   7.189   9.320   4.800
  187POPC   D2A 2671   7.323   9.560   5.119
  187POPC   C3A 2672   7.330   9.351   5.480
  187POPC   C4A 2673   7.180   9.582   5.770
  187POPC   C1B 2674   6.906   9.615   4.487
  187POPC   C2B 2675   6.854   9.697   4.943
  187POPC   C3B 2676   6.869   9.340   5.288
  187POPC   C4B 2677   7.013   9.054   5.699
  188POPC   NC3 2678   9.138   8.870   3.917
  188POPC   PO4 2679   9.694   8.564   3.824
  188POPC   GL1 2680   9.695   8.796   4.203
  188POPC   GL2 2681   9.403   8.643   4.328
  188POPC   C1A 2682   9.732   8.813   4.672
  188POPC   D2A 2683   9.628   8.870   5.100
  188POPC   C3A 2684   9.903   8.825   5.449
  188POPC   C4A 2685   9.770   8.908   5.859
  188POPC   C1B 2686   9.205   8.801   4.748
  188POPC   C2B 2687   9.178   8.668   5.179
  188POPC   C3B 2688   9.284   8.741   5.615
  188POPC   C4B 2689   8.961   8.673   5.917
  189POPC   NC3 2690   3.704  10.165   3.811
  189POPC   PO4 2691   3.054   9.810   3.878
  189POPC   GL1 2692   3.137   9.914   4.270
  189POPC   GL2 2693   3.485   9.924   4.208
  189POPC   C1A 2694   2.944   9.881   4.674
  189POPC   D2A 2695   3.098  10.064   5.065
  189POPC   C3A 2696   3.043   9.881   5.480
  189POPC   C4A 2697   3.229   9.838   5.866
  189POPC   C1B 2698   3.421  10.149   4.616
  189POPC   C2B 2699   3.610  10.139   5.034
  189POPC   C3B 2700   3.534  10.179   5.478
  189POPC   C4B 2701   3.831   0.005   5.714
  190POPC   NC3 2702   8.292   9.399   3.859
  190POPC   PO4 2703   8.335  10.103   3.969
  190POPC   GL1 2704   8.362   9.631   4.292
  190POPC   GL2 2705   8.696   9.324   4.250
  190POPC   C1A 2706   8.401   9.291   4.631
  190POPC   D2A 2707   8.596   9.223   5.059
  190POPC   C3A 2708   8.576   9.553   5.305
  190POPC   C4A 2709   8.635   9.444   5.718
  190POPC   C1B 2710   8.911   9.238   4.653
  190POPC   C2B 2711   9.074   9.425   5.052
  190POPC   C3B 2712   9.050   9.282   5.476
  190POPC   C4B 2713   9.095   9.477   5.911
  191POPC   NC3 2714   2.451   0.573   3.764
  191POPC   PO4 2715   3.061   0.891   3.701
  191POPC   GL1 2716   2.799   0.580   4.116
  191POPC   GL2 2717   2.958   0.260   4.194
  191POPC   C1A 2718   2.724   0.702   4.653
  191POPC   D2A 2719   2.559   0.844   5.086
  191POPC   C3A 2720   2.752   0.804   5.418
  191POPC   C4A 2721   2.663   0.585   5.754
  191POPC   C1B 2722   2.587   0.248   4.526
  191POPC   C2B 2723   2.427   0.343   4.947
  191POPC   C3B 2724   2.470   0.289   5.380
  191POPC   C4B 2725   2.582   0.078   5.748
  192POPC   NC3 2726   8.790   6.529   3.880
  192POPC   PO4 2727   8.162   6.788   3.975
  192POPC   GL1 2728   8.493   6.650   4.286
  192POPC   GL2 2729   8.540   6.289   4.257
  192POPC   C1A 2730   8.475   6.609   4.740
  192POPC   D2A 2731   8.751   6.520   5.111
  192POPC   C3A 2732   8.755   6.727   5.541
  192POPC   C4A 2733   8.939   6.672   5.984
  192POPC   C1B 2734   8.740   6.122   4.640
  192POPC   C2B 2735   8.810   5.999   5.070
  192POPC   C3B 2736   8.792   6.173   5.490
  192POPC   C4B 2737   8.469   6.380   5.761
  193POPC   NC3 2738   9.713   8.081   3.849
  193POPC   PO4 2739   9.041   8.189   3.984
  193POPC   GL1 2740   9.189   8.187   4.368
  193POPC   GL2 2741   9.529   8.108   4.331
  193POPC   C1A 2742   9.439   8.353   4.762
  193POPC   D2A 2743   9.582   8.105   5.108
  193POPC   C3A 2744   9.425   8.229   5.525
  193POPC   C4A 2745   9.188   8.204   5.924
  193POPC   C1B 2746   9.359   7.855   4.698
  193POPC   C2B 2747   9.338   7.651   5.106
  193POPC   C3B 2748   9.546   7.699   5.524
  193POPC   C4B 2749   9.861   7.672   5.876
  194POPC   NC3 2750   1.166   2.940   3.970
  194POPC   PO4 2751   0.884   2.303   3.749
  194POPC   GL1 2752   1.083   2.387   4.231
  194POPC   GL2 2753   1.147   2.694   4.393
  194POPC   C1A 2754   1.222   2.326   4.699
  194POPC   D2A 2755   1.353   2.489   5.089
  194POPC   C3A 2756   1.179   2.447   5.535
  194POPC   C4A 2757   1.367   2.411   5.970
  194POPC   C1B 2758   1.039   2.861   4.765
  194POPC   C2B 2759   0.941   2.778   5.160
  194POPC   C3B 2760   1.069   2.947   5.548
  194POPC   C4B 2761   0.859   3.074   5.865
  195POPC   NC3 2762   6.637   1.000   3.508
  195POPC   PO4 2763   7.290   1.007   3.833
  195POPC   GL1 2764   7.034   1.043   4.165
  195POPC   GL2 2765   7.055   1.362   4.321
  195POPC   C1A 2766   6.960   0.847   4.583
  195POPC   D2A 2767   7.037   0.948   4.991
  195POPC   C3A 2768   6.913   0.694   5.303
  195POPC   C4A 2769   6.839   0.747   5.711
  195POPC   C1B 2770   7.402   1.093   4.549
  195POPC   C2B 2771   7.547   0.970   4.982
  195POPC   C3B 2772   7.359   1.205   5.305
  195POPC   C4B 2773   7.279   1.128   5.732
  196POPC   NC3 2774   1.892   1.326   3.952
  196POPC   PO4 2775   2.435   1.616   3.992
  196POPC   GL1 2776   2.173   1.467   4.355
  196POPC   GL2 2777   2.085   1.108   4.365
  196POPC   C1A 2778   2.072   1.357   4.798
  196POPC   D2A 2779   2.127   1.104   5.126
  196POPC   C3A 2780   2.096   1.402   5.425
  196POPC   C4A 2781   2.092   1.397   5.857
  196POPC   C1B 2782   1.795   0.947   4.660
  196POPC   C2B 2783   1.635   0.969   5.087
  196POPC   C3B 2784   1.788   0.999   5.528
  196POPC   C4B 2785   1.939   0.936   5.969
  197POPC   NC3 2786   3.465   9.382   4.016
  197POPC   PO4 2787   4.119   9.196   4.069
  197POPC   GL1 2788   3.769   9.162   4.386
  197POPC   GL2 2789   3.647   9.509   4.460
  197POPC   C1A 2790   3.728   9.216   4.860
  197POPC   D2A 2791   3.711   9.201   5.303
  197POPC   C3A 2792   3.899   9.576   5.426
  197POPC   C4A 2793   3.721   9.769   5.766
  197POPC   C1B 2794   3.394   9.653   4.778
  197POPC   C2B 2795   3.445   9.687   5.194
  197POPC   C3B 2796   3.370   9.494   5.528
  197POPC   C4B 2797   3.020   9.386   5.716
  198POPC   NC3 2798   8.341  10.307   3.496
  198POPC   PO4 2799   7.737  10.112   3.807
  198POPC   GL1 2800   7.876  10.160   4.273
  198POPC   GL2 2801   7.618  10.252   4.444
  198POPC   C1A 2802   8.167  10.253   4.617
  198POPC   D2A 2803   8.321   9.996   4.981
  198POPC   C3A 2804   8.151  10.123   5.394
  198POPC   C4A 2805   8.133  10.427   5.753
  198POPC   C1B 2806   7.826   9.909   4.692
  198POPC   C2B 2807   7.774   9.849   5.081
  198POPC   C3B 2808   7.608  10.052   5.419
  198POPC   C4B 2809   7.807  10.026   5.787
  199POPC   NC3 2810   4.909   1.850   3.763
  199POPC   PO4 2811   4.506   2.250   3.887
  199POPC   GL1 2812   4.721   1.929   4.232
  199POPC   GL2 2813   5.001   1.645   4.249
  199POPC   C1A 2814   4.653   1.689   4.637
  199POPC   D2A 2815   4.867   1.698   5.044
  199POPC   C3A 2816   4.655   1.650   5.437
  199POPC   C4A 2817   4.665   1.854   5.848
  199POPC   C1B 2818   5.185   1.812   4.630
  199POPC   C2B 2819   5.270   2.010   5.044
  199POPC   C3B 2820   4.968   2.082   5.416
  199POPC   C4B 2821   5.104   2.206   5.839
  200POPC   NC3 2822   2.540   2.073   4.146
  200POPC   PO4 2823   2.118   2.266   3.645
  200POPC   GL1 2824   1.846   2.253   4.085
  200POPC   GL2 2825   2.023   1.974   4.252
  200POPC   C1A 2826   1.725   2.306   4.559
  200POPC   D2A 2827   1.839   2.225   5.021
  200POPC   C3A 2828   1.667   2.327   5.451
  200POPC   C4A 2829   1.460   2.022   5.683
  200POPC   C1B 2830   1.906   1.820   4.667
  200POPC   C2B 2831   1.811   1.702   5.113
  200POPC   C3B 2832   1.937   1.867   5.556
  200POPC   C4B 2833   1.748   1.730   5.985
  201POPC   NC3 2834   3.034   3.545   4.023
  201POPC   PO4 2835   2.458   3.270   3.803
  201POPC   GL1 2836   2.414   3.317   4.253
  201POPC   GL2 2837   2.746   3.326   4.430
  201POPC   C1A 2838   2.317   3.473   4.676
  201POPC   D2A 2839   2.595   3.383   5.027
  201POPC   C3A 2840   2.505   3.355   5.429
  201POPC   C4A 2841   2.788   3.241   5.780
  201POPC   C1B 2842   2.730   3.752   4.720
  201POPC   C2B 2843   2.565   3.875   5.190
  201POPC   C3B 2844   2.625   3.774   5.694
  201POPC   C4B 2845   2.908   3.651   6.076
  202POPC   NC3 2846   5.288   9.373   3.894
  202POPC   PO4 2847   4.739   9.764   3.971
  202POPC   GL1 2848   4.873   9.731   4.380
  202POPC   GL2 2849   5.086   9.448   4.354
  202POPC   C1A 2850   4.954   9.593   4.819
  202POPC   D2A 2851   4.675   9.436   5.100
  202POPC   C3A 2852   4.762   9.427   5.526
  202POPC   C4A 2853   4.687   9.129   5.834
  202POPC   C1B 2854   5.264   9.201   4.705
  202POPC   C2B 2855   5.108   9.073   5.152
  202POPC   C3B 2856   5.170   9.105   5.631
  202POPC   C4B 2857   5.199   9.080   6.093
  203POPC   NC3 2858   9.265   2.643   4.004
  203POPC   PO4 2859   9.470   1.974   4.070
  203POPC   GL1 2860   9.357   2.297   4.378
  203POPC   GL2 2861   9.552   2.598   4.410
  203POPC   C1A 2862   9.240   2.224   4.795
  203POPC   D2A 2863   9.320   2.287   5.211
  203POPC   C3A 2864   9.789   2.387   5.287
  203POPC   C4A 2865   9.784   2.354   5.748
  203POPC   C1B 2866   9.618   2.546   4.820
  203POPC   C2B 2867   9.449   2.764   5.131
  203POPC   C3B 2868   9.497   2.699   5.540
  203POPC   C4B 2869   9.377   2.727   5.920
  204POPC   NC3 2870   2.235   5.119   4.102
  204POPC   PO4 2871   1.600   4.885   3.987
  204POPC   GL1 2872   1.720   5.150   4.311
  204POPC   GL2 2873   1.932   4.871   4.418
  204POPC   C1A 2874   1.709   5.427   4.723
  204POPC   D2A 2875   1.878   5.409   5.165
  204POPC   C3A 2876   1.626   5.414   5.552
  204POPC   C4A 2877   1.797   5.137   5.893
  204POPC   C1B 2878   2.065   5.052   4.802
  204POPC   C2B 2879   2.210   4.954   5.213
  204POPC   C3B 2880   2.053   4.837   5.563
  204POPC   C4B 2881   2.174   4.473   5.736
  205POPC   NC3 2882   2.224   5.733   3.650
  205POPC   PO4 2883   1.613   5.722   3.883
  205POPC   GL1 2884   1.969   5.573   4.136
  205POPC   GL2 2885   2.149   5.878   4.156
  205POPC   C1A 2886   2.180   5.561   4.574
  205POPC   D2A 2887   2.096   5.788   4.933
  205POPC   C3A 2888   2.256   5.751   5.381
  205POPC   C4A 2889   2.155   5.354   5.593
  205POPC   C1B 2890   1.798   5.909   4.497
  205POPC   C2B 2891   1.674   6.048   4.910
  205POPC   C3B 2892   1.769   5.943   5.338
  205POPC   C4B 2893   1.905   5.814   5.751
  206POPC   NC3 2894   5.830   0.674   4.000
  206POPC   PO4 2895   6.058   0.064   3.994
  206POPC   GL1 2896   5.820  10.496   4.350
  206POPC   GL2 2897   5.658   0.294   4.305
  206POPC   C1A 2898   5.810   0.089   4.773
  206POPC   D2A 2899   5.525   0.170   5.095
  206POPC   C3A 2900   5.652   0.179   5.472
  206POPC   C4A 2901   6.063   0.231   5.621
  206POPC   C1B 2902   5.511   0.491   4.675
  206POPC   C2B 2903   5.544   0.747   5.038
  206POPC   C3B 2904   5.395   0.774   5.451
  206POPC   C4B 2905   5.719   0.626   5.695
  207POPC   NC3 2906   6.570   1.346   3.964
  207POPC   PO4 2907   6.685   0.728   3.898
  207POPC   GL1 2908   6.560   1.021   4.327
  207POPC   GL2 2909   6.231   1.120   4.412
  207POPC   C1A 2910   6.584   1.164   4.770
  207POPC   D2A 2911   6.530   1.019   5.188
  207POPC   C3A 2912   6.866   1.186   5.436
  207POPC   C4A 2913   6.852   1.361   5.837
  207POPC   C1B 2914   6.113   1.402   4.731
  207POPC   C2B 2915   6.337   1.558   5.081
  207POPC   C3B 2916   6.443   1.437   5.485
  207POPC   C4B 2917   6.437   1.071   5.743
  208POPC   NC3 2918   7.060   3.025   3.574
  208POPC   PO4 2919   6.689   2.714   4.004
  208POPC   GL1 2920   7.060   2.703   4.313
  208POPC   GL2 2921   7.151   2.333   4.297
  208POPC   C1A 2922   7.273   2.965   4.678
  208POPC   D2A 2923   7.157   3.102   5.108
  208POPC   C3A 2924   7.294   3.002   5.533
  208POPC   C4A 2925   7.248   3.053   6.012
  208POPC   C1B 2926   7.374   2.478   4.657
  208POPC   C2B 2927   7.258   2.591   5.050
  208POPC   C3B 2928   7.416   2.512   5.435
  208POPC   C4B 2929   7.289   2.581   5.818
  209POPC   NC3 2930   9.879   3.757   3.610
  209POPC   PO4 2931  10.367   4.083   3.871
  209POPC   GL1 2932  10.182   4.174   4.256
  209POPC   GL2 2933  10.305   4.424   4.381
  209POPC   C1A 2934   9.920   4.173   4.623
  209POPC   D2A 2935   9.703   4.298   4.996
  209POPC   C3A 2936   9.911   4.082   5.309
  209POPC   C4A 2937  10.004   4.112   5.684
  209POPC   C1B 2938  10.436   4.090   4.691
  209POPC   C2B 2939  10.373   3.940   5.101
  209POPC   C3B 2940  10.405   4.261   5.412
  209POPC   C4B 2941  10.371   4.426   5.792
  210POPC   NC3 2942   7.887   3.243   4.092
  210POPC   PO4 2943   8.250   3.682   4.014
  210POPC   GL1 2944   8.110   3.555   4.436
  210POPC   GL2 2945   8.134   3.177   4.542
  210POPC   C1A 2946   8.176   3.544   4.893
  210POPC   D2A 2947   8.107   3.164   5.162
  210POPC   C3A 2948   8.039   3.301   5.603
  210POPC   C4A 2949   7.940   3.661   5.917
  210POPC   C1B 2950   7.741   3.297   4.802
  210POPC   C2B 2951   7.616   3.337   5.269
  210POPC   C3B 2952   7.526   3.425   5.726
  210POPC   C4B 2953   7.606   3.383   6.186
  211POPC   NC3 2954   0.220   8.896   4.054
  211POPC   PO4 2955   0.562   8.356   3.952
  211POPC   GL1 2956   0.550   8.541   4.344
  211POPC   GL2 2957   0.214   8.625   4.478
  211POPC   C1A 2958   0.525   8.317   4.726
  211POPC   D2A 2959   0.451   8.072   5.057
  211POPC   C3A 2960   0.426   8.329   5.410
  211POPC   C4A 2961   0.502   8.565   5.773
  211POPC   C1B 2962   0.486   8.959   4.657
  211POPC   C2B 2963   0.484   9.104   5.048
  211POPC   C3B 2964   0.366   8.882   5.398
  211POPC   C4B 2965   0.172   8.968   5.777
  212POPC   NC3 2966   2.314   6.727   3.887
  212POPC   PO4 2967   1.675   6.718   3.952
  212POPC   GL1 2968   1.765   6.799   4.363
  212POPC   GL2 2969   2.071   6.593   4.353
  212POPC   C1A 2970   1.767   6.666   4.787
  212POPC   D2A 2971   1.755   6.466   5.170
  212POPC   C3A 2972   1.752   6.623   5.578
  212POPC   C4A 2973   1.866   6.417   5.996
  212POPC   C1B 2974   2.110   6.271   4.697
  212POPC   C2B 2975   2.194   6.225   5.145
  212POPC   C3B 2976   2.112   6.250   5.575
  212POPC   C4B 2977   2.378   6.419   5.883
  213POPC   NC3 2978  10.122   4.480   3.855
  213POPC   PO4 2979   9.978   5.151   3.696
  213POPC   GL1 2980   9.977   4.890   4.130
  213POPC   GL2 2981  10.294   4.943   4.241
  213POPC   C1A 2982   9.980   4.707   4.611
  213POPC   D2A 2983  10.184   4.460   4.983
  213POPC   C3A 2984  10.003   4.572   5.400
  213POPC   C4A 2985   9.868   4.578   5.846
  213POPC   C1B 2986  10.255   5.142   4.652
  213POPC   C2B 2987  10.167   4.967   5.052
  213POPC   C3B 2988  10.071   5.061   5.474
  213POPC   C4B 2989  10.217   4.923   5.843
  214POPC   NC3 2990   3.359   2.585   3.803
  214POPC   PO4 2991   3.166   3.138   4.151
  214POPC   GL1 2992   3.490   2.799   4.278
  214POPC   GL2 2993   3.333   2.480   4.317
  214POPC   C1A 2994   3.757   2.718   4.682
  214POPC   D2A 2995   3.834   2.881   5.107
  214POPC   C3A 2996   3.716   2.786   5.542
  214POPC   C4A 2997   3.610   2.649   5.965
  214POPC   C1B 2998   3.265   2.747   4.727
  214POPC   C2B 2999   3.251   2.786   5.168
  214POPC   C3B 3000   3.231   2.591   5.585
  214POPC   C4B 3001   3.122   2.837   5.958
  215POPC   NC3 3002   1.567   8.749   3.811
  215POPC   PO4 3003   2.145   9.142   3.775
  215POPC   GL1 3004   1.937   8.939   4.181
  215POPC   GL2 3005   1.787   8.609   4.252
  215POPC   C1A 3006   2.001   8.823   4.655
  215POPC   D2A 3007   1.866   8.676   5.061
  215POPC   C3A 3008   2.080   8.743   5.431
  215POPC   C4A 3009   2.299   8.824   5.782
  215POPC   C1B 3010   1.646   8.430   4.655
  215POPC   C2B 3011   1.676   8.163   5.002
  215POPC   C3B 3012   1.903   8.213   5.366
  215POPC   C4B 3013   2.047   8.359   5.761
  216POPC   NC3 3014   0.399   9.424   3.718
  216POPC   PO4 3015  10.331   9.024   3.813
  216POPC   GL1 3016  10.394   9.169   4.290
  216POPC   GL2 3017   0.231   9.375   4.318
  216POPC   C1A 3018   0.020   9.223   4.755
  216POPC   D2A 3019   0.179   9.538   5.052
  216POPC   C3A 3020   0.310   9.388   5.454
  216POPC   C4A 3021   0.028   9.555   5.748
  216POPC   C1B 3022   0.533   9.487   4.693
  216POPC   C2B 3023   0.720   9.549   5.154
  216POPC   C3B 3024   0.678   9.738   5.650
  216POPC   C4B 3025   0.746   9.674   6.164
  217POPC   NC3 3026   4.168   7.931   3.898
  217POPC   PO4 3027   3.671   8.335   3.911
  217POPC   GL1 3028   3.805   8.042   4.274
  217POPC   GL2 3029   4.173   7.949   4.403
  217POPC   C1A 3030   3.787   7.815   4.700
  217POPC   D2A 3031   3.794   8.036   5.112
  217POPC   C3A 3032   3.894   7.812   5.504
  217POPC   C4A 3033   4.161   7.724   5.865
  217POPC   C1B 3034   4.355   8.103   4.825
  217POPC   C2B 3035   4.324   7.970   5.264
  217POPC   C3B 3036   4.632   7.843   5.611
  217POPC   C4B 3037   4.811   7.675   6.016
  218POPC   NC3 3038   0.609   7.087   4.012
  218POPC   PO4 3039   0.046   7.129   3.659
  218POPC   GL1 3040   0.152   7.165   4.199
  218POPC   GL2 3041   0.414   7.453   4.318
  218POPC   C1A 3042   0.159   7.196   4.681
  218POPC   D2A 3043   0.404   7.328   5.063
  218POPC   C3A 3044   0.298   7.360   5.508
  218POPC   C4A 3045   0.276   7.433   5.968
  218POPC   C1B 3046   0.682   7.197   4.645
  218POPC   C2B 3047   0.847   7.033   5.040
  218POPC   C3B 3048   0.807   7.263   5.401
  218POPC   C4B 3049   0.657   7.138   5.790
  219POPC   NC3 3050   0.957   0.473   4.200
  219POPC   PO4 3051   0.390   0.292   3.848
  219POPC   GL1 3052   0.457   0.483   4.242
  219POPC   GL2 3053   0.207   0.677   4.296
  219POPC   C1A 3054   0.551   0.560   4.708
  219POPC   D2A 3055   0.752   0.375   5.058
  219POPC   C3A 3056   0.802   0.649   5.416
  219POPC   C4A 3057   0.727   0.444   5.792
  219POPC   C1B 3058   0.130   0.328   4.605
  219POPC   C2B 3059   0.096   0.404   5.039
  219POPC   C3B 3060   0.348   0.371   5.374
  219POPC   C4B 3061   0.194   0.322   5.733
  220POPC   NC3 3062   6.340   2.870   4.250
  220POPC   PO4 3063   6.069   2.311   4.057
  220POPC   GL1 3064   6.298   2.360   4.433
  220POPC   GL2 3065   6.630   2.444   4.427
  220POPC   C1A 3066   6.367   2.442   4.857
  220POPC   D2A 3067   6.456   2.729   5.173
  220POPC   C3A 3068   6.313   2.562   5.552
  220POPC   C4A 3069   6.286   2.742   5.994
  220POPC   C1B 3070   6.880   2.429   4.736
  220POPC   C2B 3071   6.814   2.368   5.136
  220POPC   C3B 3072   6.906   2.646   5.438
  220POPC   C4B 3073   6.755   2.566   5.809
  221POPC   NC3 3074   1.709   8.118   4.078
  221POPC   PO4 3075   1.542   7.495   3.952
  221POPC   GL1 3076   1.990   7.715   4.193
  221POPC   GL2 3077   2.005   8.055   4.469
  221POPC   C1A 3078   2.271   7.640   4.604
  221POPC   D2A 3079   2.255   7.893   5.000
  221POPC   C3A 3080   2.143   7.718   5.403
  221POPC   C4A 3081   2.154   7.427   5.743
  221POPC   C1B 3082   1.760   7.755   4.665
  221POPC   C2B 3083   1.744   7.597   5.062
  221POPC   C3B 3084   1.635   7.640   5.468
  221POPC   C4B 3085   1.820   7.894   5.770
  222POPC   NC3 3086   1.071   7.803   3.785
  222POPC   PO4 3087   1.357   8.404   4.025
  222POPC   GL1 3088   1.281   8.192   4.368
  222POPC   GL2 3089   1.307   7.845   4.237
  222POPC   C1A 3090   1.143   8.244   4.791
  222POPC   D2A 3091   0.938   8.198   5.187
  222POPC   C3A 3092   1.255   8.259   5.499
  222POPC   C4A 3093   1.521   8.290   5.880
  222POPC   C1B 3094   1.256   7.762   4.635
  222POPC   C2B 3095   1.290   7.820   5.047
  222POPC   C3B 3096   1.116   7.777   5.409
  222POPC   C4B 3097   1.290   7.845   5.785
  223POPC   NC3 3098   0.205   7.961   3.892
  223POPC   PO4 3099   0.710   7.858   3.493
  223POPC   GL1 3100   0.667   7.873   4.088
  223POPC   GL2 3101   0.362   8.005   4.351
  223POPC   C1A 3102   0.762   7.863   4.593
  223POPC   D2A 3103   0.812   7.625   4.998
  223POPC   C3A 3104   0.615   7.760   5.405
  223POPC   C4A 3105   0.773   8.090   5.698
  223POPC   C1B 3106   0.229   7.740   4.729
  223POPC   C2B 3107   0.076   7.714   5.178
  223POPC   C3B 3108   0.155   7.828   5.627
  223POPC   C4B 3109   0.132   8.215   5.838
  224POPC   NC3 3110  10.172   3.713   4.059
  224POPC   PO4 3111   9.818   3.289   3.608
  224POPC   GL1 3112   9.862   3.219   4.113
  224POPC   GL2 3113  10.203   3.216   4.212
  224POPC   C1A 3114   9.935   3.370   4.619
  224POPC   D2A 3115  10.168   3.433   5.056
  224POPC   C3A 3116  10.045   3.594   5.489
  224POPC   C4A 3117   9.958   3.695   5.949
  224POPC   C1B 3118  10.420   3.069   4.568
  224POPC   C2B 3119  10.467   3.016   5.014
  224POPC   C3B 3120  10.319   3.083   5.421
  224POPC   C4B 3121  10.266   3.249   5.828
  225POPC   NC3 3122   1.908   0.554   4.041
  225POPC   PO4 3123   2.299   0.971   3.927
  225POPC   GL1 3124   2.315   0.650   4.311
  225POPC   GL2 3125   1.965   0.437   4.501
  225POPC   C1A 3126   2.240   0.767   4.724
  225POPC   D2A 3127   1.950   0.566   4.986
  225POPC   C3A 3128   2.099   0.623   5.362
  225POPC   C4A 3129   2.162   0.519   5.774
  225POPC   C1B 3130   1.676   0.159   4.736
  225POPC   C2B 3131   1.725   0.089   5.153
  225POPC   C3B 3132   1.621   0.458   5.362
  225POPC   C4B 3133   1.629   0.572   5.768
  226POPC   NC3 3134   7.253   1.491   3.831
  226POPC   PO4 3135   7.875   1.817   3.808
  226POPC   GL1 3136   7.611   1.614   4.196
  226POPC   GL2 3137   7.302   1.829   4.287
  226POPC   C1A 3138   7.508   1.591   4.693
  226POPC   D2A 3139   7.536   1.675   5.170
  226POPC   C3A 3140   7.163   1.663   5.471
  226POPC   C4A 3141   7.136   1.774   5.903
  226POPC   C1B 3142   7.149   1.985   4.726
  226POPC   C2B 3143   7.247   2.096   5.183
  226POPC   C3B 3144   7.058   2.179   5.616
  226POPC   C4B 3145   6.861   2.152   6.075
  227POPC   NC3 3146   7.900   8.012   3.967
  227POPC   PO4 3147   8.402   7.566   3.997
  227POPC   GL1 3148   8.175   7.639   4.362
  227POPC   GL2 3149   7.886   7.861   4.442
  227POPC   C1A 3150   8.074   7.558   4.787
  227POPC   D2A 3151   8.178   7.787   5.157
  227POPC   C3A 3152   8.136   7.575   5.548
  227POPC   C4A 3153   7.932   7.574   5.928
  227POPC   C1B 3154   7.623   7.803   4.807
  227POPC   C2B 3155   7.704   7.965   5.206
  227POPC   C3B 3156   7.640   7.891   5.637
  227POPC   C4B 3157   7.752   8.075   6.053
  228POPC   NC3 3158   4.351   2.669   3.899
  228POPC   PO4 3159   3.802   2.267   3.910
  228POPC   GL1 3160   3.867   2.396   4.306
  228POPC   GL2 3161   4.188   2.525   4.364
  228POPC   C1A 3162   3.955   2.255   4.726
  228POPC   D2A 3163   4.098   2.384   5.140
  228POPC   C3A 3164   4.197   2.591   5.501
  228POPC   C4A 3165   4.078   2.478   5.877
  228POPC   C1B 3166   4.282   2.682   4.781
  228POPC   C2B 3167   4.342   2.933   5.158
  228POPC   C3B 3168   4.344   3.070   5.599
  228POPC   C4B 3169   4.506   2.853   5.992
  229POPC   NC3 3170   9.674   5.368   3.962
  229POPC   PO4 3171   9.133   5.103   3.648
  229POPC   GL1 3172   9.242   4.937   4.168
  229POPC   GL2 3173   9.525   5.044   4.305
  229POPC   C1A 3174   9.175   5.050   4.661
  229POPC   D2A 3175   9.347   5.277   5.071
  229POPC   C3A 3176   9.183   5.155   5.537
  229POPC   C4A 3177   9.051   5.176   6.001
  229POPC   C1B 3178   9.694   5.119   4.710
  229POPC   C2B 3179   9.671   4.858   5.092
  229POPC   C3B 3180   9.522   4.760   5.510
  229POPC   C4B 3181   9.409   4.781   5.962
  230POPC   NC3 3182   7.949   7.216   3.918
  230POPC   PO4 3183   7.495   7.730   3.948
  230POPC   GL1 3184   7.617   7.454   4.355
  230POPC   GL2 3185   7.922   7.218   4.412
  230POPC   C1A 3186   7.620   7.288   4.807
  230POPC   D2A 3187   7.771   7.445   5.220
  230POPC   C3A 3188   7.544   7.382   5.637
  230POPC   C4A 3189   7.599   7.180   6.069
  230POPC   C1B 3190   8.097   7.011   4.776
  230POPC   C2B 3191   8.017   6.897   5.246
  230POPC   C3B 3192   7.969   7.066   5.702
  230POPC   C4B 3193   8.125   7.151   6.147
  231POPC   NC3 3194  10.435   6.375   3.919
  231POPC   PO4 3195   9.962   6.067   4.097
  231POPC   GL1 3196  10.249   6.294   4.381
  231POPC   GL2 3197  10.228   6.662   4.313
  231POPC   C1A 3198  10.357   6.321   4.816
  231POPC   D2A 3199  10.063   6.335   5.134
  231POPC   C3A 3200  10.167   6.087   5.484
  231POPC   C4A 3201  10.180   6.161   5.858
  231POPC   C1B 3202  10.322   6.814   4.759
  231POPC   C2B 3203  10.426   6.691   5.197
  231POPC   C3B 3204  10.131   6.595   5.579
  231POPC   C4B 3205   9.913   6.525   6.022
  232POPC   NC3 3206   5.668  10.321   3.892
  232POPC   PO4 3207   5.920   9.698   3.897
  232POPC   GL1 3208   5.904   9.987   4.245
  232POPC   GL2 3209   5.545  10.045   4.296
  232POPC   C1A 3210   5.827  10.078   4.708
  232POPC   D2A 3211   5.859  10.226   5.136
  232POPC   C3A 3212   6.055   9.975   5.462
  232POPC   C4A 3213   5.802  10.252   5.700
  232POPC   C1B 3214   5.241   9.982   4.620
  232POPC   C2B 3215   5.373  10.023   5.019
  232POPC   C3B 3216   5.537   9.920   5.405
  232POPC   C4B 3217   5.274   9.894   5.780
  233POPC   NC3 3218   0.684  10.373   3.850
  233POPC   PO4 3219   0.373   9.801   3.980
  233POPC   GL1 3220   0.456  10.104   4.279
  233POPC   GL2 3221   0.300  10.443   4.219
  233POPC   C1A 3222   0.506  10.026   4.719
  233POPC   D2A 3223   0.552  10.011   5.162
  233POPC   C3A 3224   0.249   9.884   5.433
  233POPC   C4A 3225   0.250  10.061   5.807
  233POPC   C1B 3226   0.563   0.038   4.569
  233POPC   C2B 3227   0.368  10.484   4.970
  233POPC   C3B 3228   0.272  10.384   5.388
  233POPC   C4B 3229   0.548  10.471   5.709
  234POPC   NC3 3230  10.499  10.120   3.935
  234POPC   PO4 3231  10.038   0.139   3.982
  234POPC   GL1 3232  10.262  10.364   4.312
  234POPC   GL2 3233  10.088  10.080   4.491
  234POPC   C1A 3234  10.318  10.450   4.744
  234POPC   D2A 3235  10.063   0.037   5.068
  234POPC   C3A 3236  10.328   0.152   5.410
  234POPC   C4A 3237  10.407  10.432   5.791
  234POPC   C1B 3238  10.485   9.940   4.603
  234POPC   C2B 3239   0.058  10.060   5.003
  234POPC   C3B 3240  10.319  10.139   5.367
  234POPC   C4B 3241  10.165  10.003   5.780
  235POPC   NC3 3242   3.404   0.716   3.969
  235POPC   PO4 3243   3.435   0.027   3.909
  235POPC   GL1 3244   3.548   0.216   4.307
  235POPC   GL2 3245   3.425   0.530   4.428
  235POPC   C1A 3246   3.623   0.103   4.746
  235POPC   D2A 3247   3.295   0.045   5.103
  235POPC   C3A 3248   3.397   0.169   5.547
  235POPC   C4A 3249   3.529   0.315   5.970
  235POPC   C1B 3250   3.133   0.339   4.681
  235POPC   C2B 3251   2.933   0.458   5.043
  235POPC   C3B 3252   2.968   0.361   5.433
  235POPC   C4B 3253   3.172   0.604   5.748
  236POPC   NC3 3254   9.702   6.361   3.843
  236POPC   PO4 3255   9.165   6.630   4.127
  236POPC   GL1 3256   9.621   6.528   4.305
  236POPC   GL2 3257   9.603   6.165   4.457
  236POPC   C1A 3258   9.879   6.512   4.678
  236POPC   D2A 3259   9.549   6.622   4.958
  236POPC   C3A 3260   9.648   6.534   5.346
  236POPC   C4A 3261   9.639   6.755   5.685
  236POPC   C1B 3262   9.625   6.133   4.942
  236POPC   C2B 3263   9.229   6.281   5.199
  236POPC   C3B 3264   9.228   6.400   5.630
  236POPC   C4B 3265   9.628   6.216   5.735
  237POPC   NC3 3266   1.222   4.551   3.958
  237POPC   PO4 3267   0.878   5.161   3.907
  237POPC   GL1 3268   1.163   4.944   4.304
  237POPC   GL2 3269   1.444   4.664   4.403
  237POPC   C1A 3270   1.084   4.771   4.764
  237POPC   D2A 3271   0.966   5.042   5.124
  237POPC   C3A 3272   1.057   4.939   5.563
  237POPC   C4A 3273   1.304   5.130   5.923
  237POPC   C1B 3274   1.543   4.950   4.735
  237POPC   C2B 3275   1.471   5.108   5.139
  237POPC   C3B 3276   1.552   4.886   5.516
  237POPC   C4B 3277   1.351   4.532   5.720
  238POPC   NC3 3278   8.649   8.386   4.092
  238POPC   PO4 3279   8.442   8.978   3.985
  238POPC   GL1 3280   8.525   8.820   4.363
  238POPC   GL2 3281   8.895   8.737   4.358
  238POPC   C1A 3282   8.648   8.821   4.779
  238POPC   D2A 3283   8.673   8.606   5.136
  238POPC   C3A 3284   8.759   8.856   5.461
  238POPC   C4A 3285   8.489   8.962   5.760
  238POPC   C1B 3286   8.895   8.383   4.712
  238POPC   C2B 3287   9.061   8.178   5.093
  238POPC   C3B 3288   8.909   8.343   5.510
  238POPC   C4B 3289   8.502   8.454   5.726
  239POPC   NC3 3290   7.233   8.145   3.937
  239POPC   PO4 3291   6.913   8.754   3.792
  239POPC   GL1 3292   7.000   8.748   4.232
  239POPC   GL2 3293   7.206   8.492   4.335
  239POPC   C1A 3294   7.018   8.864   4.666
  239POPC   D2A 3295   7.211   8.895   5.090
  239POPC   C3A 3296   6.957   8.642   5.366
  239POPC   C4A 3297   6.780   8.564   5.770
  239POPC   C1B 3298   7.524   8.717   4.637
  239POPC   C2B 3299   7.733   8.726   5.055
  239POPC   C3B 3300   7.551   8.835   5.483
  239POPC   C4B 3301   7.273   8.623   5.777
  240POPC   NC3 3302   4.297   0.989   3.838
  240POPC   PO4 3303   3.827   1.517   3.851
  240POPC   GL1 3304   3.972   1.204   4.190
  240POPC   GL2 3305   4.295   1.120   4.314
  240POPC   C1A 3306   3.922   1.199   4.657
  240POPC   D2A 3307   4.153   1.290   5.054
  240POPC   C3A 3308   4.071   1.115   5.460
  240POPC   C4A 3309   3.953   1.253   5.852
  240POPC   C1B 3310   4.316   0.909   4.674
  240POPC   C2B 3311   4.189   0.754   5.045
  240POPC   C3B 3312   4.244   0.634   5.418
  240POPC   C4B 3313   4.310   0.782   5.804
  241POPC   NC3 3314   9.930   9.289   3.938
  241POPC   PO4 3315  10.080   9.961   4.008
  241POPC   GL1 3316   9.810   9.713   4.228
  241POPC   GL2 3317  10.132   9.585   4.361
  241POPC   C1A 3318   9.773   9.707   4.682
  241POPC   D2A 3319  10.167   9.626   4.946
  241POPC   C3A 3320  10.157   9.649   5.403
  241POPC   C4A 3321   9.877   9.596   5.791
  241POPC   C1B 3322   9.993   9.244   4.616
  241POPC   C2B 3323  10.095   9.059   5.005
  241POPC   C3B 3324  10.360   9.168   5.321
  241POPC   C4B 3325  10.195   9.186   5.718
  242POPC   NC3 3326   6.325   7.764   3.994
  242POPC   PO4 3327   6.309   8.361   4.079
  242POPC   GL1 3328   6.697   8.317   4.256
  242POPC   GL2 3329   6.565   8.028   4.393
  242POPC   C1A 3330   6.830   8.378   4.685
  242POPC   D2A 3331   6.926   8.173   5.076
  242POPC   C3A 3332   6.680   8.189   5.428
  242POPC   C4A 3333   6.750   8.056   5.823
  242POPC   C1B 3334   6.506   8.000   4.837
  242POPC   C2B 3335   6.548   7.756   5.200
  242POPC   C3B 3336   6.391   7.755   5.618
  242POPC   C4B 3337   6.545   7.600   6.025
  243POPC   NC3 3338   8.610   0.785   3.927
  243POPC   PO4 3339   8.594   1.485   3.990
  243POPC   GL1 3340   8.707   1.159   4.285
  243POPC   GL2 3341   8.928   1.387   4.385
  243POPC   C1A 3342   8.858   0.984   4.702
  243POPC   D2A 3343   8.651   1.046   5.113
  243POPC   C3A 3344   8.733   0.776   5.468
  243POPC   C4A 3345   8.699   0.971   5.849
  243POPC   C1B 3346   8.655   1.466   4.747
  243POPC   C2B 3347   8.793   1.537   5.182
  243POPC   C3B 3348   8.611   1.384   5.566
  243POPC   C4B 3349   8.543   1.435   6.036
  244POPC   NC3 3350   2.460   9.482   3.855
  244POPC   PO4 3351   2.446   9.137   4.299
  244POPC   GL1 3352   2.542   9.542   4.391
  244POPC   GL2 3353   2.851   9.499   4.232
  244POPC   C1A 3354   2.497   9.553   4.814
  244POPC   D2A 3355   2.363   9.169   5.035
  244POPC   C3A 3356   2.269   9.225   5.452
  244POPC   C4A 3357   2.486   9.283   5.837
  244POPC   C1B 3358   2.954   9.387   4.673
  244POPC   C2B 3359   2.909   9.569   5.104
  244POPC   C3B 3360   2.622   9.602   5.450
  244POPC   C4B 3361   2.703   9.742   5.899
  245POPC   NC3 3362   5.774   8.597   4.022
  245POPC   PO4 3363   5.309   8.272   4.073
  245POPC   GL1 3364   5.300   8.675   4.301
  245POPC   GL2 3365   5.590   8.843   4.437
  245POPC   C1A 3366   5.247   8.709   4.760
  245POPC   D2A 3367   5.444   8.501   5.091
  245POPC   C3A 3368   5.303   8.652   5.447
  245POPC   C4A 3369   5.454   8.687   5.847
  245POPC   C1B 3370   5.794   8.663   4.744
  245POPC   C2B 3371   5.954   8.605   5.151
  245POPC   C3B 3372   5.814   8.476   5.535
  245POPC   C4B 3373   5.975   8.695   5.882
  246POPC   NC3 3374   9.442   3.088   3.781
  246POPC   PO4 3375   9.700   3.702   4.035
  246POPC   GL1 3376   9.439   3.462   4.308
  246POPC   GL2 3377   9.362   3.088   4.282
  246POPC   C1A 3378   9.460   3.580   4.714
  246POPC   D2A 3379   9.725   3.737   5.008
  246POPC   C3A 3380   9.527   3.679   5.426
  246POPC   C4A 3381   9.573   3.417   5.805
  246POPC   C1B 3382   9.521   3.061   4.703
  246POPC   C2B 3383   9.610   3.248   5.116
  246POPC   C3B 3384   9.312   3.152   5.466
  246POPC   C4B 3385   9.100   3.165   5.873
  247POPC   NC3 3386   0.214   1.706   3.817
  247POPC   PO4 3387   0.806   1.792   4.033
  247POPC   GL1 3388   0.481   1.667   4.333
  247POPC   GL2 3389   0.092   1.680   4.331
  247POPC   C1A 3390   0.406   1.775   4.754
  247POPC   D2A 3391   0.509   1.925   5.144
  247POPC   C3A 3392   0.580   1.675   5.458
  247POPC   C4A 3393   0.743   1.661   5.833
  247POPC   C1B 3394   0.064   2.095   4.560
  247POPC   C2B 3395   0.106   2.166   4.983
  247POPC   C3B 3396   0.174   2.214   5.428
  247POPC   C4B 3397   0.315   1.970   5.785
  248POPC   NC3 3398   9.612   0.103   3.793
  248POPC   PO4 3399   9.053   0.601   3.903
  248POPC   GL1 3400   9.085   0.597   4.387
  248POPC   GL2 3401   9.376   0.379   4.434
  248POPC   C1A 3402   9.279   0.708   4.791
  248POPC   D2A 3403   9.124   0.857   5.149
  248POPC   C3A 3404   9.233   0.664   5.559
  248POPC   C4A 3405   9.644   0.641   5.761
  248POPC   C1B 3406   9.361   0.058   4.766
  248POPC   C2B 3407   9.544  10.491   5.165
  248POPC   C3B 3408   9.473   0.193   5.550
  248POPC   C4B 3409   9.246   0.270   5.919
  249POPC   NC3 3410   8.542   3.325   3.895
  249POPC   PO4 3411   8.809   3.990   3.782
  249POPC   GL1 3412   8.750   3.741   4.195
  249POPC   GL2 3413   8.935   3.413   4.225
  249POPC   C1A 3414   8.584   3.482   4.579
  249POPC   D2A 3415   8.604   3.253   4.977
  249POPC   C3A 3416   8.444   3.501   5.320
  249POPC   C4A 3417   8.398   3.656   5.703
  249POPC   C1B 3418   9.037   3.249   4.649
  249POPC   C2B 3419   9.140   3.418   5.068
  249POPC   C3B 3420   8.931   3.488   5.473
  249POPC   C4B 3421   8.624   3.194   5.676
  250POPC   NC3 3422  10.239   5.743   3.879
  250POPC   PO4 3423   0.316   5.556   3.996
  250POPC   GL1 3424   0.113   5.580   4.393
  250POPC   GL2 3425  10.320   5.778   4.373
  250POPC   C1A 3426  10.470   5.572   4.826
  250POPC   D2A 3427  10.495   5.335   5.202
  250POPC   C3A 3428  10.240   5.539   5.489
  250POPC   C4A 3429  10.447   5.749   5.781
  250POPC   C1B 3430  10.079   5.921   4.699
  250POPC   C2B 3431  10.082   5.829   5.077
  250POPC   C3B 3432   9.741   5.850   5.363
  250POPC   C4B 3433   9.849   5.759   5.782
  251POPC   NC3 3434   9.093   9.749   3.769
  251POPC   PO4 3435   9.462   9.192   3.902
  251POPC   GL1 3436   9.221   9.435   4.188
  251POPC   GL2 3437   9.288   9.137   4.369
  251POPC   C1A 3438   9.215   9.647   4.600
  251POPC   D2A 3439   9.357   9.883   4.989
  251POPC   C3A 3440   9.483   9.717   5.389
  251POPC   C4A 3441   9.412   9.852   5.808
  251POPC   C1B 3442   9.471   9.243   4.746
  251POPC   C2B 3443   9.705   9.391   5.050
  251POPC   C3B 3444   9.797   9.298   5.397
  251POPC   C4B 3445   9.501   9.285   5.691
  252POPC   NC3 3446   3.104   5.496   4.035
  252POPC   PO4 3447   2.459   5.490   3.951
  252POPC   GL1 3448   2.638   5.577   4.307
  252POPC   GL2 3449   2.579   5.915   4.423
  252POPC   C1A 3450   2.665   5.471   4.731
  252POPC   D2A 3451   2.404   5.389   5.069
  252POPC   C3A 3452   2.633   5.289   5.475
  252POPC   C4A 3453   2.604   5.341   5.947
  252POPC   C1B 3454   2.566   5.952   4.884
  252POPC   C2B 3455   2.758   5.730   5.227
  252POPC   C3B 3456   2.804   5.737   5.675
  252POPC   C4B 3457   2.831   6.120   5.953
  253POPC   NC3 3458   2.068   3.561   3.763
  253POPC   PO4 3459   1.493   3.298   4.065
  253POPC   GL1 3460   1.890   3.230   4.214
  253POPC   GL2 3461   1.939   3.539   4.316
  253POPC   C1A 3462   1.947   3.133   4.668
  253POPC   D2A 3463   1.739   3.235   5.068
  253POPC   C3A 3464   1.933   3.204   5.470
  253POPC   C4A 3465   2.135   3.510   5.722
  253POPC   C1B 3466   1.838   3.630   4.750
  253POPC   C2B 3467   2.096   3.595   5.132
  253POPC   C3B 3468   1.763   3.699   5.395
  253POPC   C4B 3469   1.659   3.677   5.800
  254POPC   NC3 3470   0.289   4.222   3.812
  254POPC   PO4 3471   0.913   4.162   3.911
  254POPC   GL1 3472   0.551   4.278   4.236
  254POPC   GL2 3473   0.208   4.111   4.279
  254POPC   C1A 3474   0.427   4.377   4.661
  254POPC   D2A 3475   0.222   4.343   5.034
  254POPC   C3A 3476   0.397   4.435   5.423
  254POPC   C4A 3477   0.378   4.251   5.803
  254POPC   C1B 3478   0.448   3.867   4.564
  254POPC   C2B 3479   0.526   3.905   5.001
  254POPC   C3B 3480   0.303   3.936   5.388
  254POPC   C4B 3481  10.483   3.891   5.751
  255POPC   NC3 3482   5.052   1.274   3.896
  255POPC   PO4 3483   4.679   0.818   3.622
  255POPC   GL1 3484   4.734   0.973   4.094
  255POPC   GL2 3485   5.016   0.867   4.231
  255POPC   C1A 3486   4.760   1.171   4.528
  255POPC   D2A 3487   4.650   1.247   4.949
  255POPC   C3A 3488   4.565   1.004   5.312
  255POPC   C4A 3489   4.511   1.227   5.715
  255POPC   C1B 3490   5.110   0.804   4.654
  255POPC   C2B 3491   5.095   1.012   5.067
  255POPC   C3B 3492   4.983   1.240   5.443
  255POPC   C4B 3493   4.978   0.989   5.803
  256POPC   NC3 3494   8.046   8.768   3.834
  256POPC   PO4 3495   7.621   8.346   4.081
  256POPC   GL1 3496   7.828   8.368   4.397
  256POPC   GL2 3497   8.007   8.653   4.330
  256POPC   C1A 3498   7.835   8.269   4.812
  256POPC   D2A 3499   8.086   8.327   5.180
  256POPC   C3A 3500   7.789   8.363   5.511
  256POPC   C4A 3501   7.748   8.548   5.885
  256POPC   C1B 3502   8.210   8.589   4.730
  256POPC   C2B 3503   8.224   8.853   5.126
  256POPC   C3B 3504   8.065   8.790   5.560
  256POPC   C4B 3505   8.077   8.884   6.044
  257POPC   NC3 3506   2.804   4.439   3.639
  257POPC   PO4 3507   2.348   4.673   4.050
  257POPC   GL1 3508   2.249   4.445   4.434
  257POPC   GL2 3509   2.491   4.195   4.322
  257POPC   C1A 3510   2.252   4.494   4.908
  257POPC   D2A 3511   2.592   4.493   5.208
  257POPC   C3A 3512   2.607   4.267   5.579
  257POPC   C4A 3513   2.571   4.399   6.012
  257POPC   C1B 3514   2.667   4.256   4.738
  257POPC   C2B 3515   2.981   4.154   5.047
  257POPC   C3B 3516   3.111   4.202   5.480
  257POPC   C4B 3517   2.989   4.133   5.917
  258POPC   NC3 3518   5.741   1.323   3.815
  258POPC   PO4 3519   5.397   0.841   3.926
  258POPC   GL1 3520   5.421   1.197   4.231
  258POPC   GL2 3521   5.753   1.278   4.319
  258POPC   C1A 3522   5.312   1.273   4.667
  258POPC   D2A 3523   5.607   1.257   5.049
  258POPC   C3A 3524   5.479   1.280   5.496
  258POPC   C4A 3525   5.346   1.350   5.971
  258POPC   C1B 3526   5.786   0.963   4.634
  258POPC   C2B 3527   6.043   0.952   5.012
  258POPC   C3B 3528   5.999   1.153   5.431
  258POPC   C4B 3529   5.814   1.112   5.848
  259POPC   NC3 3530   9.273   5.887   4.094
  259POPC   PO4 3531   9.806   5.757   3.728
  259POPC   GL1 3532   9.719   5.692   4.322
  259POPC   GL2 3533   9.391   5.568   4.477
  259POPC   C1A 3534   9.688   5.632   4.837
  259POPC   D2A 3535   9.870   5.375   5.125
  259POPC   C3A 3536   9.653   5.363   5.483
  259POPC   C4A 3537   9.715   5.160   5.840
  259POPC   C1B 3538   9.233   5.914   4.744
  259POPC   C2B 3539   9.252   5.774   5.165
  259POPC   C3B 3540   9.248   5.864   5.588
  259POPC   C4B 3541   9.377   5.542   5.881
  260POPC   NC3 3542   6.141   9.245   3.868
  260POPC   PO4 3543   5.573   9.026   3.984
  260POPC   GL1 3544   5.784   9.281   4.265
  260POPC   GL2 3545   5.594   9.546   4.278
  260POPC   C1A 3546   5.813   9.196   4.731
  260POPC   D2A 3547   5.603   8.999   5.084
  260POPC   C3A 3548   5.726   8.993   5.514
  260POPC   C4A 3549   5.679   9.126   5.949
  260POPC   C1B 3550   5.545   9.617   4.717
  260POPC   C2B 3551   5.397   9.494   5.150
  260POPC   C3B 3552   5.482   9.475   5.621
  260POPC   C4B 3553   5.770   9.769   5.850
  261POPC   NC3 3554   9.368   6.986   3.899
  261POPC   PO4 3555   9.685   7.582   3.797
  261POPC   GL1 3556   9.561   7.593   4.232
  261POPC   GL2 3557   9.368   7.311   4.307
  261POPC   C1A 3558   9.673   7.465   4.662
  261POPC   D2A 3559   9.775   7.385   5.085
  261POPC   C3A 3560   9.530   7.196   5.379
  261POPC   C4A 3561   9.599   7.247   5.809
  261POPC   C1B 3562   9.147   7.387   4.688
  261POPC   C2B 3563   9.286   7.079   4.947
  261POPC   C3B 3564   9.199   6.803   5.284
  261POPC   C4B 3565   9.189   6.953   5.680
  262POPC   NC3 3566   2.690   1.868   3.689
  262POPC   PO4 3567   2.931   2.483   3.975
  262POPC   GL1 3568   2.894   2.241   4.456
  262POPC   GL2 3569   2.784   1.864   4.534
  262POPC   C1A 3570   2.753   2.144   4.929
  262POPC   D2A 3571   3.045   2.293   5.208
  262POPC   C3A 3572   2.972   2.102   5.619
  262POPC   C4A 3573   2.805   2.078   6.020
  262POPC   C1B 3574   2.426   1.729   4.718
  262POPC   C2B 3575   2.267   1.911   5.067
  262POPC   C3B 3576   2.493   1.982   5.417
  262POPC   C4B 3577   2.473   1.742   5.759
  263POPC   NC3 3578   4.138   1.939   3.890
  263POPC   PO4 3579   4.649   1.505   3.911
  263POPC   GL1 3580   4.295   1.633   4.272
  263POPC   GL2 3581   4.236   2.012   4.364
  263POPC   C1A 3582   4.085   1.698   4.725
  263POPC   D2A 3583   3.877   1.928   5.087
  263POPC   C3A 3584   3.870   1.780   5.497
  263POPC   C4A 3585   4.215   1.641   5.700
  263POPC   C1B 3586   4.453   2.158   4.720
  263POPC   C2B 3587   4.399   1.957   5.106
  263POPC   C3B 3588   4.342   2.104   5.524
  263POPC   C4B 3589   4.584   2.363   5.820
  264POPC   NC3 3590   3.046  10.284   3.914
  264POPC   PO4 3591   2.441   0.135   3.909
  264POPC   GL1 3592   2.644  10.339   4.228
  264POPC   GL2 3593   2.609   9.985   4.138
  264POPC   C1A 3594   2.897  10.373   4.655
  264POPC   D2A 3595   2.771  10.474   5.103
  264POPC   C3A 3596   2.992  10.369   5.497
  264POPC   C4A 3597   2.897  10.205   5.902
  264POPC   C1B 3598   2.451  10.030   4.597
  264POPC   C2B 3599   2.581   9.996   5.057
  264POPC   C3B 3600   2.535  10.113   5.507
  264POPC   C4B 3601   2.383  10.136   5.954
  265POPC   NC3 3602   4.226   0.351   3.746
  265POPC   PO4 3603   3.825   0.865   3.817
  265POPC   GL1 3604   3.922   0.678   4.243
  265POPC   GL2 3605   4.054   0.316   4.267
  265POPC   C1A 3606   3.826   0.635   4.703
  265POPC   D2A 3607   3.567   0.483   5.074
  265POPC   C3A 3608   3.789   0.466   5.475
  265POPC   C4A 3609   3.803   0.766   5.809
  265POPC   C1B 3610   4.260   0.374   4.681
  265POPC   C2B 3611   4.063   0.245   5.041
  265POPC   C3B 3612   4.225   0.099   5.393
  265POPC   C4B 3613   4.253   0.286   5.775
  266POPC   NC3 3614   1.295   6.972   3.880
  266POPC   PO4 3615   0.923   7.428   4.035
  266POPC   GL1 3616   1.065   7.104   4.307
  266POPC   GL2 3617   1.385   7.271   4.365
  266POPC   C1A 3618   1.303   6.848   4.604
  266POPC   D2A 3619   1.293   6.707   5.030
  266POPC   C3A 3620   1.221   6.881   5.457
  266POPC   C4A 3621   1.316   6.953   5.902
  266POPC   C1B 3622   1.179   7.303   4.784
  266POPC   C2B 3623   1.302   7.323   5.210
  266POPC   C3B 3624   1.222   7.365   5.657
  266POPC   C4B 3625   0.842   7.595   5.832
  267POPC   NC3 3626   7.865   2.281   3.858
  267POPC   PO4 3627   8.158   2.900   3.957
  267POPC   GL1 3628   8.059   2.575   4.259
  267POPC   GL2 3629   7.690   2.567   4.266
  267POPC   C1A 3630   8.072   2.387   4.675
  267POPC   D2A 3631   8.135   2.666   5.024
  267POPC   C3A 3632   8.103   2.486   5.421
  267POPC   C4A 3633   7.805   2.469   5.762
  267POPC   C1B 3634   7.779   2.804   4.643
  267POPC   C2B 3635   7.662   2.869   5.058
  267POPC   C3B 3636   7.789   2.875   5.448
  267POPC   C4B 3637   7.721   2.969   5.850
  268POPC   NC3 3638   1.713   9.291   3.863
  268POPC   PO4 3639   1.862   9.932   3.949
  268POPC   GL1 3640   2.077   9.797   4.298
  268POPC   GL2 3641   2.063   9.455   4.210
  268POPC   C1A 3642   2.017   9.697   4.742
  268POPC   D2A 3643   2.172   9.684   5.177
  268POPC   C3A 3644   1.894   9.572   5.488
  268POPC   C4A 3645   2.019   9.560   5.930
  268POPC   C1B 3646   1.782   9.275   4.540
  268POPC   C2B 3647   1.854   9.228   4.964
  268POPC   C3B 3648   1.719   9.104   5.334
  268POPC   C4B 3649   1.866   9.112   5.740
  269POPC   NC3 3650   9.153   1.663   3.919
  269POPC   PO4 3651   8.981   2.351   3.809
  269POPC   GL1 3652   8.894   2.158   4.223
  269POPC   GL2 3653   8.685   1.857   4.335
  269POPC   C1A 3654   8.775   2.266   4.642
  269POPC   D2A 3655   8.811   2.076   5.084
  269POPC   C3A 3656   8.722   2.241   5.511
  269POPC   C4A 3657   8.662   1.865   5.788
  269POPC   C1B 3658   8.417   1.927   4.721
  269POPC   C2B 3659   8.270   2.133   5.084
  269POPC   C3B 3660   8.266   2.013   5.503
  269POPC   C4B 3661   8.259   2.256   5.872
  270POPC   NC3 3662   2.796   2.932   3.968
  270POPC   PO4 3663   2.355   2.481   4.238
  270POPC   GL1 3664   2.511   2.821   4.373
  270POPC   GL2 3665   2.875   2.774   4.419
  270POPC   C1A 3666   2.467   2.996   4.736
  270POPC   D2A 3667   2.224   3.030   5.090
  270POPC   C3A 3668   2.354   2.878   5.471
  270POPC   C4A 3669   2.333   3.035   5.876
  270POPC   C1B 3670   2.784   2.615   4.786
  270POPC   C2B 3671   2.731   2.734   5.163
  270POPC   C3B 3672   2.657   2.474   5.487
  270POPC   C4B 3673   2.699   2.575   5.867
  271POPC   NC3 3674  10.076   8.689   3.621
  271POPC   PO4 3675  10.152   8.048   3.677
  271POPC   GL1 3676  10.095   8.358   4.070
  271POPC   GL2 3677  10.212   8.679   4.165
  271POPC   C1A 3678   9.926   8.376   4.518
  271POPC   D2A 3679  10.030   8.511   4.975
  271POPC   C3A 3680   9.942   8.337   5.366
  271POPC   C4A 3681   9.860   8.422   5.775
  271POPC   C1B 3682  10.259   8.782   4.608
  271POPC   C2B 3683   0.014   8.751   5.016
  271POPC   C3B 3684  10.390   8.671   5.469
  271POPC   C4B 3685  10.259   8.721   5.909
  272POPC   NC3 3686   8.866   4.783   3.897
  272POPC   PO4 3687   9.201   5.419   4.068
  272POPC   GL1 3688   8.820   5.224   4.323
  272POPC   GL2 3689   8.765   4.873   4.364
  272POPC   C1A 3690   8.635   5.140   4.755
  272POPC   D2A 3691   8.911   5.045   5.096
  272POPC   C3A 3692   8.684   5.029   5.450
  272POPC   C4A 3693   8.786   4.812   5.805
  272POPC   C1B 3694   8.824   4.656   4.732
  272POPC   C2B 3695   8.587   4.682   5.061
  272POPC   C3B 3696   8.545   4.517   5.406
  272POPC   C4B 3697   8.319   4.697   5.689
  273POPC   NC3 3698  10.205   3.078   3.709
  273POPC   PO4 3699   9.714   2.709   3.918
  273POPC   GL1 3700  10.019   2.733   4.269
  273POPC   GL2 3701  10.272   2.473   4.312
  273POPC   C1A 3702   9.997   2.858   4.714
  273POPC   D2A 3703   9.942   2.867   5.153
  273POPC   C3A 3704   9.839   3.068   5.549
  273POPC   C4A 3705   9.881   2.841   5.939
  273POPC   C1B 3706  10.438   2.584   4.742
  273POPC   C2B 3707  10.302   2.526   5.161
  273POPC   C3B 3708  10.187   2.594   5.565
  273POPC   C4B 3709  10.415   2.328   5.843
  274POPC   NC3 3710   0.386   0.753   3.744
  274POPC   PO4 3711   0.968   0.900   4.037
  274POPC   GL1 3712   0.691   0.961   4.382
  274POPC   GL2 3713   0.410   1.141   4.217
  274POPC   C1A 3714   0.698   1.027   4.857
  274POPC   D2A 3715   0.394   0.821   5.156
  274POPC   C3A 3716   0.341   0.806   5.633
  274POPC   C4A 3717   0.656   0.941   5.851
  274POPC   C1B 3718   0.275   1.282   4.638
  274POPC   C2B 3719   0.398   1.382   5.068
  274POPC   C3B 3720   0.304   1.260   5.441
  274POPC   C4B 3721   0.345   1.364   5.831
  275POPC   NC3 3722   4.353   9.639   3.747
  275POPC   PO4 3723   4.305  10.395   3.715
  275POPC   GL1 3724   4.193  10.307   4.146
  275POPC   GL2 3725   3.855  10.285   4.288
  275POPC   C1A 3726   4.304  10.369   4.594
  275POPC   D2A 3727   4.556   0.016   4.958
  275POPC   C3A 3728   4.676  10.344   5.392
  275POPC   C4A 3729   4.433  10.303   5.776
  275POPC   C1B 3730   3.942  10.013   4.653
  275POPC   C2B 3731   4.143  10.175   5.062
  275POPC   C3B 3732   4.040  10.096   5.504
  275POPC   C4B 3733   3.983  10.129   5.984
  276POPC   NC3 3734   6.521   8.763   4.044
  276POPC   PO4 3735   6.574   9.387   3.958
  276POPC   GL1 3736   6.593   9.208   4.320
  276POPC   GL2 3737   6.269   9.251   4.416
  276POPC   C1A 3738   6.657   9.242   4.771
  276POPC   D2A 3739   6.374   9.484   5.034
  276POPC   C3A 3740   6.427   9.506   5.473
  276POPC   C4A 3741   6.682   9.455   5.783
  276POPC   C1B 3742   6.065   9.622   4.621
  276POPC   C2B 3743   5.895   9.685   5.066
  276POPC   C3B 3744   5.939   9.462   5.453
  276POPC   C4B 3745   6.158   9.214   5.794
  277POPC   NC3 3746   1.358   5.323   3.936
  277POPC   PO4 3747   1.055   5.935   3.998
  277POPC   GL1 3748   1.057   5.558   4.272
  277POPC   GL2 3749   1.416   5.590   4.344
  277POPC   C1A 3750   1.113   5.314   4.680
  277POPC   D2A 3751   0.920   5.543   5.026
  277POPC   C3A 3752   1.074   5.434   5.444
  277POPC   C4A 3753   0.881   5.757   5.697
  277POPC   C1B 3754   1.290   5.794   4.689
  277POPC   C2B 3755   1.409   5.644   5.085
  277POPC   C3B 3756   1.267   5.879   5.389
  277POPC   C4B 3757   1.407   5.942   5.757
  278POPC   NC3 3758   1.169   3.850   3.698
  278POPC   PO4 3759   1.516   4.227   4.099
  278POPC   GL1 3760   1.247   4.148   4.381
  278POPC   GL2 3761   1.008   4.408   4.403
  278POPC   C1A 3762   1.383   4.184   4.801
  278POPC   D2A 3763   1.334   4.416   5.172
  278POPC   C3A 3764   1.385   4.084   5.474
  278POPC   C4A 3765   1.298   4.013   5.918
  278POPC   C1B 3766   0.884   4.210   4.784
  278POPC   C2B 3767   0.845   4.245   5.227
  278POPC   C3B 3768   0.896   4.280   5.661
  278POPC   C4B 3769   0.788   4.035   6.009
  279POPC   NC3 3770   9.912   1.542   4.104
  279POPC   PO4 3771  10.382   1.993   3.943
  279POPC   GL1 3772  10.132   1.967   4.306
  279POPC   GL2 3773   9.828   2.113   4.417
  279POPC   C1A 3774  10.154   1.767   4.687
  279POPC   D2A 3775  10.457   1.602   4.944
  279POPC   C3A 3776   0.060   1.724   5.336
  279POPC   C4A 3777  10.427   1.659   5.729
  279POPC   C1B 3778  10.055   2.265   4.759
  279POPC   C2B 3779  10.148   2.017   5.125
  279POPC   C3B 3780  10.168   2.067   5.502
  279POPC   C4B 3781  10.025   1.941   5.874
  280POPC   NC3 3782   9.231   4.045   3.983
  280POPC   PO4 3783   9.780   4.204   3.666
  280POPC   GL1 3784   9.683   4.214   4.152
  280POPC   GL2 3785   9.547   4.517   4.209
  280POPC   C1A 3786   9.419   4.104   4.599
  280POPC   D2A 3787   9.267   3.990   5.043
  280POPC   C3A 3788   9.420   4.197   5.431
  280POPC   C4A 3789   9.548   4.015   5.850
  280POPC   C1B 3790   9.474   4.626   4.639
  280POPC   C2B 3791   9.242   4.543   5.009
  280POPC   C3B 3792   9.041   4.620   5.383
  280POPC   C4B 3793   9.110   4.419   5.769
  281POPC   NC3 3794   2.638   7.986   3.784
  281POPC   PO4 3795   2.120   8.308   4.016
  281POPC   GL1 3796   2.450   7.998   4.248
  281POPC   GL2 3797   2.532   7.636   4.157
  281POPC   C1A 3798   2.625   8.091   4.664
  281POPC   D2A 3799   2.739   8.202   5.111
  281POPC   C3A 3800   2.409   8.157   5.432
  281POPC   C4A 3801   2.352   7.942   5.839
  281POPC   C1B 3802   2.803   7.631   4.552
  281POPC   C2B 3803   2.749   7.689   4.968
  281POPC   C3B 3804   2.660   7.722   5.385
  281POPC   C4B 3805   2.717   7.595   5.803
  282POPC   NC3 3806   0.672   6.194   3.966
  282POPC   PO4 3807   0.263   6.677   4.059
  282POPC   GL1 3808   0.465   6.477   4.367
  282POPC   GL2 3809   0.700   6.729   4.368
  282POPC   C1A 3810   0.368   6.517   4.802
  282POPC   D2A 3811   0.277   6.233   5.126
  282POPC   C3A 3812   0.091   6.347   5.523
  282POPC   C4A 3813   0.340   6.589   5.743
  282POPC   C1B 3814   0.882   6.603   4.731
  282POPC   C2B 3815   0.797   6.508   5.133
  282POPC   C3B 3816   0.727   6.741   5.465
  282POPC   C4B 3817   0.880   6.684   5.867
  283POPC   NC3 3818  10.084   7.602   3.569
  283POPC   PO4 3819  10.446   7.624   4.095
  283POPC   GL1 3820  10.078   7.644   4.354
  283POPC   GL2 3821   9.989   7.899   4.229
  283POPC   C1A 3822   9.899   7.898   4.725
  283POPC   D2A 3823  10.082   7.927   5.107
  283POPC   C3A 3824  10.107   7.599   5.398
  283POPC   C4A 3825  10.323   7.433   5.732
  283POPC   C1B 3826  10.342   8.085   4.518
  283POPC   C2B 3827  10.488   8.237   4.908
  283POPC   C3B 3828  10.440   8.191   5.346
  283POPC   C4B 3829  10.178   8.016   5.684
  284POPC   NC3 3830   8.426   7.131   4.153
  284POPC   PO4 3831   8.925   6.975   3.751
  284POPC   GL1 3832   8.924   7.092   4.200
  284POPC   GL2 3833   8.814   7.448   4.304
  284POPC   C1A 3834   8.846   6.969   4.648
  284POPC   D2A 3835   8.769   7.043   5.097
  284POPC   C3A 3836   9.035   7.304   5.346
  284POPC   C4A 3837   9.136   7.447   5.769
  284POPC   C1B 3838   8.572   7.417   4.733
  284POPC   C2B 3839   8.330   7.293   5.127
  284POPC   C3B 3840   8.439   7.150   5.507
  284POPC   C4B 3841   8.646   7.512   5.582
  285POPC   NC3 3842   6.479   0.297   3.962
  285POPC   PO4 3843   6.126   1.033   3.928
  285POPC   GL1 3844   6.255   0.634   4.256
  285POPC   GL2 3845   6.636   0.528   4.365
  285POPC   C1A 3846   6.111   0.496   4.682
  285POPC   D2A 3847   5.972   0.450   5.133
  285POPC   C3A 3848   6.217   0.683   5.443
  285POPC   C4A 3849   6.171   0.675   5.876
  285POPC   C1B 3850   6.598   0.283   4.699
  285POPC   C2B 3851   6.509   0.477   5.063
  285POPC   C3B 3852   6.584   0.311   5.442
  285POPC   C4B 3853   6.550   0.352   5.834
  286POPC   NC3 3854   4.529   9.383   4.174
  286POPC   PO4 3855   3.956   9.783   3.911
  286POPC   GL1 3856   4.251   9.804   4.251
  286POPC   GL2 3857   4.149   9.519   4.484
  286POPC   C1A 3858   4.447   9.872   4.654
  286POPC   D2A 3859   4.234   9.675   4.998
  286POPC   C3A 3860   4.438   9.817   5.362
  286POPC   C4A 3861   4.282   9.718   5.758
  286POPC   C1B 3862   4.253   9.166   4.768
  286POPC   C2B 3863   4.133   8.993   5.161
  286POPC   C3B 3864   4.262   9.219   5.537
  286POPC   C4B 3865   3.959   9.311   5.868
  287POPC   NC3 3866   8.418   4.108   3.985
  287POPC   PO4 3867   9.016   4.422   4.148
  287POPC   GL1 3868   8.670   4.375   4.316
  287POPC   GL2 3869   8.852   4.145   4.529
  287POPC   C1A 3870   8.400   4.357   4.646
  287POPC   D2A 3871   8.598   4.199   4.979
  287POPC   C3A 3872   8.369   4.021   5.300
  287POPC   C4A 3873   8.433   4.145   5.710
  287POPC   C1B 3874   8.986   3.772   4.667
  287POPC   C2B 3875   8.786   3.754   5.052
  287POPC   C3B 3876   8.875   4.055   5.399
  287POPC   C4B 3877   9.068   3.920   5.753
  288POPC   NC3 3878   8.242   1.515   3.688
  288POPC   PO4 3879   8.224   2.115   4.091
  288POPC   GL1 3880   7.821   2.072   4.336
  288POPC   GL2 3881   7.934   1.837   4.531
  288POPC   C1A 3882   7.638   2.095   4.795
  288POPC   D2A 3883   7.736   2.349   5.082
  288POPC   C3A 3884   7.771   2.083   5.405
  288POPC   C4A 3885   7.533   2.041   5.745
  288POPC   C1B 3886   7.986   1.729   4.922
  288POPC   C2B 3887   8.291   1.591   5.197
  288POPC   C3B 3888   8.137   1.528   5.617
  288POPC   C4B 3889   7.981   1.818   5.896
  289POPC   NC3 3890   9.837   2.178   3.907
  289POPC   PO4 3891   9.570   1.451   3.805
  289POPC   GL1 3892   9.450   1.509   4.299
  289POPC   GL2 3893   9.213   1.789   4.430
  289POPC   C1A 3894   9.634   1.663   4.690
  289POPC   D2A 3895   9.671   2.000   4.954
  289POPC   C3A 3896   9.643   1.933   5.406
  289POPC   C4A 3897   9.538   1.798   5.789
  289POPC   C1B 3898   9.060   1.753   4.769
  289POPC   C2B 3899   9.243   1.766   5.133
  289POPC   C3B 3900   9.112   1.892   5.522
  289POPC   C4B 3901   9.238   2.274   5.732
  290POPC   NC3 3902   3.307   8.531   3.697
  290POPC   PO4 3903   3.016   7.863   4.000
  290POPC   GL1 3904   3.335   7.828   4.336
  290POPC   GL2 3905   3.294   7.491   4.341
  290POPC   C1A 3906   3.420   8.151   4.726
  290POPC   D2A 3907   3.270   8.234   5.165
  290POPC   C3A 3908   3.502   8.130   5.560
  290POPC   C4A 3909   3.801   8.107   5.922
  290POPC   C1B 3910   3.265   7.667   4.801
  290POPC   C2B 3911   3.415   7.716   5.221
  290POPC   C3B 3912   3.165   7.757   5.585
  290POPC   C4B 3913   2.889   8.084   5.672
  291POPC   NC3 3914   0.391   5.108   3.975
  291POPC   PO4 3915   0.069   4.578   3.989
  291POPC   GL1 3916   0.240   4.712   4.332
  291POPC   GL2 3917   0.247   5.087   4.462
  291POPC   C1A 3918   0.036   4.710   4.716
  291POPC   D2A 3919   0.169   4.863   5.056
  291POPC   C3A 3920   0.022   4.802   5.444
  291POPC   C4A 3921   0.127   5.167   5.701
  291POPC   C1B 3922   0.606   4.879   4.631
  291POPC   C2B 3923   0.637   4.679   5.023
  291POPC   C3B 3924   0.551   4.909   5.411
  291POPC   C4B 3925   0.651   4.736   5.787
  292POPC   NC3 3926   0.964   8.611   3.864
  292POPC   PO4 3927   0.596   9.149   4.021
  292POPC   GL1 3928   0.924   8.923   4.288
  292POPC   GL2 3929   1.299   8.818   4.328
  292POPC   C1A 3930   0.934   8.699   4.688
  292POPC   D2A 3931   0.695   8.634   5.079
  292POPC   C3A 3932   0.923   8.659   5.473
  292POPC   C4A 3933   0.880   8.889   5.867
  292POPC   C1B 3934   1.433   8.896   4.759
  292POPC   C2B 3935   1.368   8.603   5.113
  292POPC   C3B 3936   1.577   8.648   5.514
  292POPC   C4B 3937   1.368   8.984   5.717
  293POPC   NC3 3938   7.936   9.745   4.016
  293POPC   PO4 3939   7.933   9.186   3.674
  293POPC   GL1 3940   7.986   9.162   4.200
  293POPC   GL2 3941   7.921   9.459   4.434
  293POPC   C1A 3942   7.972   9.040   4.693
  293POPC   D2A 3943   8.123   9.394   5.029
  293POPC   C3A 3944   8.199   9.275   5.463
  293POPC   C4A 3945   8.201   9.685   5.693
  293POPC   C1B 3946   7.676   9.432   4.774
  293POPC   C2B 3947   7.682   9.222   5.145
  293POPC   C3B 3948   7.776   9.533   5.474
  293POPC   C4B 3949   7.827   9.297   5.837
  294POPC   NC3 3950   3.452   1.225   3.754
  294POPC   PO4 3951   3.108   0.919   4.241
  294POPC   GL1 3952   3.482   1.078   4.354
  294POPC   GL2 3953   3.534   1.431   4.252
  294POPC   C1A 3954   3.480   1.022   4.789
  294POPC   D2A 3955   3.732   0.960   5.116
  294POPC   C3A 3956   3.465   0.858   5.429
  294POPC   C4A 3957   3.389   1.059   5.826
  294POPC   C1B 3958   3.561   1.552   4.660
  294POPC   C2B 3959   3.654   1.468   5.065
  294POPC   C3B 3960   3.606   1.345   5.466
  294POPC   C4B 3961   3.505   1.536   5.848
  295POPC   NC3 3962   3.242   8.251   4.100
  295POPC   PO4 3963   3.478   8.905   3.923
  295POPC   GL1 3964   3.556   8.655   4.300
  295POPC   GL2 3965   3.245   8.582   4.484
  295POPC   C1A 3966   3.690   8.737   4.701
  295POPC   D2A 3967   3.500   8.786   5.060
  295POPC   C3A 3968   3.533   8.607   5.424
  295POPC   C4A 3969   3.139   8.519   5.585
  295POPC   C1B 3970   3.281   9.014   4.639
  295POPC   C2B 3971   3.243   9.209   5.061
  295POPC   C3B 3972   3.249   9.012   5.455
  295POPC   C4B 3973   3.501   9.073   5.779
  296POPC   NC3 3974   2.917   7.310   4.003
  296POPC   PO4 3975   3.465   7.042   4.059
  296POPC   GL1 3976   3.112   7.008   4.384
  296POPC   GL2 3977   2.766   6.877   4.257
  296POPC   C1A 3978   3.077   7.197   4.819
  296POPC   D2A 3979   3.030   7.376   5.267
  296POPC   C3A 3980   3.038   7.204   5.726
  296POPC   C4A 3981   2.944   7.164   6.201
  296POPC   C1B 3982   2.620   7.166   4.592
  296POPC   C2B 3983   2.598   7.204   5.037
  296POPC   C3B 3984   2.570   7.228   5.484
  296POPC   C4B 3985   2.523   7.109   5.925
  297POPC   NC3 3986   1.461   6.210   3.962
  297POPC   PO4 3987   0.903   6.712   3.874
  297POPC   GL1 3988   1.149   6.526   4.223
  297POPC   GL2 3989   0.944   6.245   4.388
  297POPC   C1A 3990   1.373   6.349   4.619
  297POPC   D2A 3991   1.192   6.200   5.007
  297POPC   C3A 3992   1.329   6.375   5.410
  297POPC   C4A 3993   1.365   6.456   5.843
  297POPC   C1B 3994   0.732   6.103   4.780
  297POPC   C2B 3995   0.759   6.008   5.247
  297POPC   C3B 3996   0.896   6.251   5.614
  297POPC   C4B 3997   1.027   6.152   6.043
  298POPC   NC3 3998   0.740   5.619   3.843
  298POPC   PO4 3999   0.288   6.161   3.699
  298POPC   GL1 4000   0.240   6.040   4.177
  298POPC   GL2 4001   0.580   5.850   4.325
  298POPC   C1A 4002   0.226   6.020   4.638
  298POPC   D2A 4003   0.416   5.746   4.967
  298POPC   C3A 4004   0.231   5.797   5.367
  298POPC   C4A 4005   0.448   6.045   5.691
  298POPC   C1B 4006   0.615   5.451   4.581
  298POPC   C2B 4007   0.501   5.243   4.983
  298POPC   C3B 4008   0.564   5.413   5.399
  298POPC   C4B 4009   0.420   5.554   5.792
  299POPC   NC3 4010   1.415   0.534   3.680
  299POPC   PO4 4011   1.096   0.073   4.008
  299POPC   GL1 4012   1.359   0.192   4.336
  299POPC   GL2 4013   1.455   0.554   4.244
  299POPC   C1A 4014   1.151   0.224   4.758
  299POPC   D2A 4015   1.214   0.136   5.170
  299POPC   C3A 4016   1.180   0.323   5.547
  299POPC   C4A 4017   1.529   0.069   5.719
  299POPC   C1B 4018   1.441   0.615   4.685
  299POPC   C2B 4019   1.211   0.655   5.066
  299POPC   C3B 4020   1.278   0.865   5.448
  299POPC   C4B 4021   1.154   0.761   5.838
  300POPC   NC3 4022   3.939   8.759   3.980
  300POPC   PO4 4023   4.465   8.260   4.016
  300POPC   GL1 4024   4.148   8.441   4.312
  300POPC   GL2 4025   4.111   8.785   4.449
  300POPC   C1A 4026   3.928   8.316   4.689
  300POPC   D2A 4027   3.929   8.528   5.104
  300POPC   C3A 4028   3.971   8.342   5.490
  300POPC   C4A 4029   4.293   8.208   5.704
  300POPC   C1B 4030   4.332   8.637   4.805
  300POPC   C2B 4031   4.427   8.474   5.229
  300POPC   C3B 4032   4.324   8.707   5.591
  300POPC   C4B 4033   3.922   8.848   5.645
  301POPC   NC3 4034   9.834   0.997   3.707
  301POPC   PO4 4035   0.005   1.008   3.819
  301POPC   GL1 4036  10.394   1.119   4.293
  301POPC   GL2 4037  10.226   0.848   4.435
  301POPC   C1A 4038  10.154   1.250   4.723
  301POPC   D2A 4039   9.890   1.435   5.072
  301POPC   C3A 4040   9.979   1.579   5.491
  301POPC   C4A 4041   9.995   1.427   5.911
  301POPC   C1B 4042   0.039   0.833   4.743
  301POPC   C2B 4043  10.500   1.095   5.049
  301POPC   C3B 4044  10.310   1.244   5.344
  301POPC   C4B 4045  10.395   1.146   5.744
  302W        W 4046  10.382   3.586   8.974
  303W        W 4047   3.392   7.412   2.247
  304W        W 4048   8.003   2.762   1.822
  305W        W 4049   6.076   0.515   0.262
  306W        W 4050   9.205   2.128   8.578
  307W        W 4051   9.853   3.087   8.668
  308W        W 4052   8.189   5.486   9.718
  309W        W 4053   2.263   3.563   0.847
  310W        W 4054  10.052   3.190   0.967
  311W        W 4055   0.275   7.405  10.516
  312W        W 4056   5.242   1.896   2.185
  313W        W 4057   9.677   7.143   9.553
  314W        W 4058   9.916   7.953   8.990
  315W        W 4059   8.430   5.666   0.078
  316W        W 4060   8.927   0.871   3.208
  317W        W 4061   5.266   6.446   1.662
  318W        W 4062   8.003   6.169   1.479
  319W        W 4063   5.652  10.452  11.923
  320W        W 4064   6.518  10.335   1.450
  321W        W 4065   1.847   5.692  11.748
  322W        W 4066   3.513   6.671  11.488
  323W        W 4067   6.445   8.055   0.345
  324W        W 4068   8.949   7.686   9.827
  325W        W 4069   0.975   1.864   9.794
  326W        W 4070  10.306   1.799   9.104
  327W        W 4071   4.629   0.754  10.111
  328W        W 4072   9.999   8.576  10.919
  329W        W 4073   9.748   2.281   0.744
  330W        W 4074   1.878   6.961   2.784
  331W        W 4075   1.373   7.003   1.769
  332W        W 4076   9.547   2.108  11.778
  333W        W 4077   6.348   3.133  10.005
  334W        W 4078   2.183   2.848   2.509
  335W        W 4079   0.418   1.019   9.411
  336W        W 4080   8.708   2.245   2.204
  337W        W 4081   8.886   8.831  10.592
  338W        W 4082   4.958   0.457   1.495
  339W        W 4083   2.722   9.483  11.143
  340W        W 4084   3.526   7.375   2.992
  341W        W 4085   9.056   1.018   2.712
  342W        W 4086   1.362   2.563   0.093
  343W        W 4087   2.341   4.748   2.649
  344W        W 4088   6.592  10.451   3.606
  345W        W 4089  10.463   4.216   9.656
  346W        W 4090   7.014  10.299   1.716
  347W        W 4091   7.397   3.685   9.897
  348W        W 4092   1.647   6.777  10.303
  349W        W 4093  10.276   5.073   2.004
  350W        W 4094   8.441   5.603   0.611
  351W        W 4095   3.586   6.895  11.032
  352W        W 4096   6.975   4.116   1.897
  353W        W 4097   4.696   4.173  10.383
  354W        W 4098   8.529   7.607   9.015
  355W        W 4099   5.149  10.099  10.710
  356W        W 4100   8.538   7.670   9.538
  357W        W 4101   6.428   9.124   2.049
  358W        W 4102   2.271   1.295   1.709
  359W        W 4103   7.580   4.637   9.427
  360W        W 4104   0.893   0.851   0.292
  361W        W 4105   4.802   8.444   9.703
  362W        W 4106   5.299   4.779   0.317
  363W        W 4107   8.409   3.180   1.919
  364W        W 4108   0.418   0.814   1.393
  365W        W 4109   8.901   8.139   0.214
  366W        W 4110   5.183   3.044  11.386
  367W        W 4111   9.387   2.631   3.516
  368W        W 4112   2.120   1.830   3.037
  369W        W 4113   4.843   0.940   1.754
  370W        W 4114   8.443   0.245   1.766
  371W        W 4115   8.981   9.102  10.153
  372W        W 4116   9.257   1.385   1.107
  373W        W 4117   8.046   6.070   2.922
  374W        W 4118   6.141   3.718   0.682
  375W        W 4119   4.918   7.931   0.230
  376W        W 4120   8.725   9.760  10.958
  377W        W 4121   0.929   8.621   9.476
  378W        W 4122   5.683   9.440  10.205
  379W        W 4123   1.015   7.166   2.574
  380W        W 4124   1.935   0.945   1.792
  381W        W 4125   4.584   9.900   9.803
  382W        W 4126   6.704   9.707  11.725
  383W        W 4127   0.955   4.682   3.000
  384W        W 4128   7.139   3.559  10.466
  385W        W 4129   8.118   7.333   1.652
  386W        W 4130   4.804   2.187   2.945
  387W        W 4131   9.646   9.836   0.696
  388W        W 4132   8.459   9.586   3.210
  389W        W 4133   6.676   4.585   9.180
  390W        W 4134   7.017   9.456  10.229
  391W        W 4135   0.776   7.735   0.014
  392W        W 4136   5.441   7.572  10.477
  393W        W 4137   7.493   6.258  11.820
  394W        W 4138   1.618   0.563   1.727
  395W        W 4139   7.820   1.201   2.958
  396W        W 4140   0.926   3.741   8.792
  397W        W 4141   3.517   2.394  11.359
  398W        W 4142   4.052   9.632   9.786
  399W        W 4143   3.096   5.282   2.792
  400W        W 4144   7.188   4.351   3.334
  401W        W 4145   9.397   8.078   2.564
  402W        W 4146   7.696   1.431   9.505
  403W        W 4147   2.351   5.517   8.571
  404W        W 4148   8.156   3.763   2.911
  405W        W 4149   9.792   8.563   1.536
  406W        W 4150   7.577   4.595   3.130
  407W        W 4151   0.746  10.347   0.667
  408W        W 4152   2.637   2.764   2.260
  409W        W 4153   8.154   9.315   9.318
  410W        W 4154   1.759   4.501   8.686
  411W        W 4155   0.391   4.364   9.924
  412W        W 4156   7.906  10.266  10.576
  413W        W 4157   1.187   9.163  11.190
  414W        W 4158   7.046   8.204  11.918
  415W        W 4159   1.266   3.605   9.610
  416W        W 4160   6.360   9.773  11.320
  417W        W 4161   3.651   0.463   0.490
  418W        W 4162   9.240   7.185   2.919
  419W        W 4163   6.691   9.394  11.227
  420W        W 4164   8.068   1.258  10.133
  421W        W 4165   7.868   0.441   0.012
  422W        W 4166   7.747   2.702   8.832
  423W        W 4167  10.186   3.410   3.294
  424W        W 4168   0.975   0.008   1.730
  425W        W 4169   4.170   2.508  11.770
  426W        W 4170   4.758   4.111   2.196
  427W        W 4171   5.277   6.163   3.448
  428W        W 4172   7.410   8.571   3.677
  429W        W 4173   2.100   0.943   3.445
  430W        W 4174   4.278   0.859   1.873
  431W        W 4175  10.089   6.845  11.781
  432W        W 4176   1.987   9.120   1.240
  433W        W 4177   7.519   7.682   2.725
  434W        W 4178   1.777   2.104   0.372
  435W        W 4179   9.918   2.799  10.058
  436W        W 4180   0.229   4.654   9.537
  437W        W 4181   4.455   3.207   3.646
  438W        W 4182   6.515   5.028  11.568
  439W        W 4183   7.930   1.599   3.307
  440W        W 4184   1.871   0.633   8.905
  441W        W 4185   5.011   6.686   0.304
  442W        W 4186   3.749   3.734   1.954
  443W        W 4187   4.106   8.518  10.933
  444W        W 4188   1.325   0.486   2.803
  445W        W 4189   4.560   1.731   1.901
  446W        W 4190   8.136   5.722   9.222
  447W        W 4191   6.912   9.909   0.358
  448W        W 4192   3.447   0.766   0.868
  449W        W 4193   9.547   5.561   2.162
  450W        W 4194   6.644   9.976   3.130
  451W        W 4195   9.202   4.467   3.677
  452W        W 4196   5.082   5.248  11.402
  453W        W 4197   6.701   9.509   2.933
  454W        W 4198  10.403  10.356   2.411
  455W        W 4199   8.396   0.225  11.332
  456W        W 4200   2.871   1.325   8.781
  457W        W 4201   6.081   3.791  11.201
  458W        W 4202   0.758   8.609   1.783
  459W        W 4203   2.159   7.190   1.267
  460W        W 4204   9.515   9.572   2.403
  461W        W 4205   6.684   4.098  11.835
  462W        W 4206   6.941   4.142   9.282
  463W        W 4207   3.203   2.321   2.828
  464W        W 4208   8.168   3.734   0.297
  465W        W 4209   1.768   2.266  11.862
  466W        W 4210   8.079   1.107   3.374
  467W        W 4211   1.489  10.311  11.900
  468W        W 4212   5.483   6.631   9.434
  469W        W 4213   2.093   0.808   0.892
  470W        W 4214   5.959   8.167   0.502
  471W        W 4215  10.381   2.030   1.547
  472W        W 4216   6.624   4.099   9.678
  473W        W 4217   9.029   0.288   9.147
  474W        W 4218   8.029   4.687   2.917
  475W        W 4219   5.122   2.516   1.736
  476W        W 4220   3.063   8.259   2.555
  477W        W 4221   7.419   8.939  11.733
  478W        W 4222   2.884   0.354  11.810
  479W        W 4223  10.379   0.231   1.662
  480W        W 4224   1.952   0.868   0.400
  481W        W 4225   9.272   8.353   3.555
  482W        W 4226   9.830   6.402   9.000
  483W        W 4227   6.042   9.180  11.936
  484W        W 4228   9.406   6.644  10.816
  485W        W 4229   7.546   8.851   9.276
  486W        W 4230   2.386   4.229   9.884
  487W        W 4231   5.496   3.276   1.266
  488W        W 4232   4.502   9.958  11.325
  489W        W 4233   5.236   3.735   1.174
  490W        W 4234   5.039   0.749   9.783
  491W        W 4235   5.077   0.806   9.279
  492W        W 4236   1.341   4.941   3.549
  493W        W 4237   8.127   4.182  10.024
  494W        W 4238   2.938   2.323   3.248
  495W        W 4239   8.521   8.432  11.464
  496W        W 4240   9.775   2.351  10.294
  497W        W 4241   2.356   6.281   8.801
  498W        W 4242   5.961   6.295   9.486
  499W        W 4243   6.133   3.737   1.197
  500W        W 4244   2.807   7.411   0.987
  501W        W 4245   9.323   5.158  10.499
  502W        W 4246   6.838   2.127   1.680
  503W        W 4247   7.214   5.341   2.104
  504W        W 4248   6.121   6.025   2.533
  505W        W 4249   3.339   1.388   2.501
  506W        W 4250   0.083   3.897   0.790
  507W        W 4251   0.171   1.257   2.288
  508W        W 4252  10.061   3.980   8.715
  509W        W 4253   7.214   5.839   8.159
  510W        W 4254   2.776   5.867   9.473
  511W        W 4255  10.155   4.263  10.071
  512W        W 4256   2.165   5.189   2.921
  513W        W 4257   3.815   2.794  11.527
  514W        W 4258   8.311   6.494   0.046
  515W        W 4259   6.862   0.122  10.804
  516W        W 4260   6.649   4.553   1.903
  517W        W 4261   5.641   6.512   3.265
  518W        W 4262   6.097   3.691   2.817
  519W        W 4263   7.702   3.556   2.905
  520W        W 4264   6.571   5.950   1.819
  521W        W 4265   4.606   5.447   2.402
  522W        W 4266   2.907   3.157   0.398
  523W        W 4267   5.162   0.842   0.661
  524W        W 4268   1.422   7.595   1.136
  525W        W 4269   2.798   2.751  11.683
  526W        W 4270   6.482   1.458   2.774
  527W        W 4271   1.810   5.881   9.400
  528W        W 4272   3.570   2.483   2.215
  529W        W 4273  10.003   0.035  10.460
  530W        W 4274   6.509   1.669  10.065
  531W        W 4275   5.734   6.199   4.229
  532W        W 4276   6.708   7.026   0.105
  533W        W 4277   7.716   4.322  11.833
  534W        W 4278   9.325   8.581   9.502
  535W        W 4279   9.061  10.216  10.884
  536W        W 4280   9.126   4.668  10.560
  537W        W 4281   4.211   1.255  10.599
  538W        W 4282   9.884   4.749   1.227
  539W        W 4283   1.674   6.106   0.753
  540W        W 4284   9.653   4.164  10.043
  541W        W 4285   3.458   2.224   3.276
  542W        W 4286   0.464   5.260   9.772
  543W        W 4287   0.420   4.519   2.409
  544W        W 4288   2.402   6.038  10.313
  545W        W 4289   5.542  10.462  10.471
  546W        W 4290   1.930   0.678   2.245
  547W        W 4291   7.639   3.561   8.924
  548W        W 4292   7.957   1.866   9.324
  549W        W 4293   6.635   5.457   0.464
  550W        W 4294   9.803   7.174  10.531
  551W        W 4295  10.152   4.666  10.387
  552W        W 4296   3.749   6.626  10.639
  553W        W 4297   9.595   2.589   3.041
  554W        W 4298   7.551   1.147  11.474
  555W        W 4299   6.628   8.625   2.717
  556W        W 4300   4.575   1.818   3.323
  557W        W 4301   5.030   2.790   8.017
  558W        W 4302   4.192   0.586   9.890
  559W        W 4303   6.462   5.681   2.259
  560W        W 4304   8.918   5.095   9.544
  561W        W 4305   8.924   2.169   0.492
  562W        W 4306   8.494   2.758   2.218
  563W        W 4307   2.174   4.708   9.881
  564W        W 4308   1.391   0.717   0.354
  565W        W 4309   7.870   7.444   1.218
  566W        W 4310   6.907   3.143   1.217
  567W        W 4311  10.120   5.079  10.069
  568W        W 4312   0.790   2.777   9.703
  569W        W 4313   5.222   4.308   2.313
  570W        W 4314   1.201   4.763   9.622
  571W        W 4315   6.579   5.883   0.201
  572W        W 4316   2.018   8.024  11.926
  573W        W 4317   4.723   4.955  11.637
  574W        W 4318   0.650   1.689   1.723
  575W        W 4319   7.097   5.584  11.927
  576W        W 4320   3.351   1.910   2.145
  577W        W 4321   8.856   4.248   1.533
  578W        W 4322   0.356   9.892   1.755
  579W        W 4323   0.477   5.631   1.897
  580W        W 4324   8.505   8.903   8.781
  581W        W 4325   6.065   6.947   2.776
  582W        W 4326   6.243   6.545   9.858
  583W        W 4327   2.733   5.200   3.167
  584W        W 4328   7.131   6.530   9.379
  585W        W 4329   3.758   2.574   0.062
  586W        W 4330   3.256   8.240   0.552
  587W        W 4331   9.350   7.321   9.192
  588W        W 4332   6.680   9.248   0.669
  589W        W 4333   3.118   3.267   2.544
  590W        W 4334   9.416   7.542   2.471
  591W        W 4335   9.048   4.112   0.406
  592W        W 4336   4.505   4.108   0.668
  593W        W 4337   5.197   7.067   9.305
  594W        W 4338   5.110   9.925   9.033
  595W        W 4339   1.950   6.705   9.883
  596W        W 4340   3.769   6.050  10.469
  597W        W 4341   5.919   9.834   3.410
  598W        W 4342   9.436   3.783   0.440
  599W        W 4343   0.878   0.331  10.502
  600W        W 4344   2.297   4.567   1.009
  601W        W 4345   6.662   1.786   8.646
  602W        W 4346   2.662   3.587   3.395
  603W        W 4347   7.700   3.730   3.882
  604W        W 4348   6.046   3.219  10.796
  605W        W 4349   1.304   3.815   9.139
  606W        W 4350   9.535   4.727   1.952
  607W        W 4351   0.876   8.332  11.193
  608W        W 4352   3.575   1.666   3.423
  609W        W 4353   1.255   7.468   8.841
  610W        W 4354   4.790   1.029   1.213
  611W        W 4355   7.688   2.827   1.358
  612W        W 4356   1.332   2.395  11.048
  613W        W 4357   4.617   2.154  10.581
  614W        W 4358   3.231   9.738   9.171
  615W        W 4359   9.277   6.266   9.801
  616W        W 4360   4.087   8.399   9.075
  617W        W 4361   6.974   1.843  11.006
  618W        W 4362   4.113   5.994  11.781
  619W        W 4363   3.406   1.010   2.133
  620W        W 4364   9.038   1.689   0.660
  621W        W 4365   5.157   3.838   0.667
  622W        W 4366   3.365   5.016   9.841
  623W        W 4367   2.129   5.695  10.008
  624W        W 4368   4.566   2.820   8.813
  625W        W 4369   1.590   0.249   9.076
  626W        W 4370   6.932   7.027   3.508
  627W        W 4371   7.677   1.054   9.844
  628W        W 4372   2.400   7.364   0.221
  629W        W 4373   7.617   4.125  10.035
  630W        W 4374   6.138   8.357   1.875
  631W        W 4375   4.800   4.588   2.422
  632W        W 4376   7.247   3.629  11.963
  633W        W 4377   3.611   6.145   2.676
  634W        W 4378   4.746   7.361   0.984
  635W        W 4379   2.415   6.547  10.069
  636W        W 4380   7.513   0.830  11.856
  637W        W 4381   5.021   6.484  10.356
  638W        W 4382   3.209  10.299  11.412
  639W        W 4383   9.876   8.466   9.052
  640W        W 4384   9.198   5.744   0.705
  641W        W 4385   0.361   5.957   0.380
  642W        W 4386  10.132   2.810   1.758
  643W        W 4387   5.521   5.138  10.915
  644W        W 4388   2.150   2.082   9.946
  645W        W 4389   3.285   8.382  10.499
  646W        W 4390   4.726   0.021   2.006
  647W        W 4391  10.070   8.293   9.966
  648W        W 4392   5.672   4.141   9.534
  649W        W 4393   4.036   2.329   2.383
  650W        W 4394   4.504   4.209   1.179
  651W        W 4395   7.992  10.430   0.434
  652W        W 4396   9.451   6.733   9.885
  653W        W 4397   0.038   6.571  11.054
  654W        W 4398   1.769   6.969   3.299
  655W        W 4399   9.012   4.287   1.019
  656W        W 4400   1.931   8.790  10.527
  657W        W 4401   8.625   7.222   2.306
  658W        W 4402   9.832   1.370   0.256
  659W        W 4403   3.304   5.071   8.372
  660W        W 4404   2.323   2.104   0.974
  661W        W 4405   9.325   7.689   2.956
  662W        W 4406   6.716   5.998   8.736
  663W        W 4407   5.237   5.774   9.082
  664W        W 4408   7.603   5.699   2.139
  665W        W 4409   4.847   2.681  11.264
  666W        W 4410   9.089   2.346   1.360
  667W        W 4411   5.663   5.610   1.087
  668W        W 4412   5.906   8.623   1.501
  669W        W 4413   4.029   3.238   2.280
  670W        W 4414   6.103   0.308   2.473
  671W        W 4415   9.480   9.430   8.925
  672W        W 4416   3.828   0.042   1.690
  673W        W 4417   4.978   3.267   3.646
  674W        W 4418  10.086   3.637   1.698
  675W        W 4419   1.222   4.208   1.961
  676W        W 4420   0.526   3.399   3.490
  677W        W 4421   8.050   8.624  11.007
  678W        W 4422   6.514   3.602  11.727
  679W        W 4423   5.349  10.377   2.926
  680W        W 4424   5.055   6.062   1.409
  681W        W 4425   8.000   1.754   0.815
  682W        W 4426   0.832   0.948  11.802
  683W        W 4427   9.828   6.981   0.940
  684W        W 4428   1.956   3.697  11.920
  685W        W 4429   6.540   0.587   2.202
  686W        W 4430   0.319   2.068   1.837
  687W        W 4431   0.349   3.954  10.533
  688W        W 4432   6.225   4.683   0.506
  689W        W 4433   9.631   0.601   0.085
  690W        W 4434   0.503   4.742   1.936
  691W        W 4435   9.967   2.312   1.730
  692W        W 4436  10.263   7.797   9.846
  693W        W 4437   6.737   7.268   2.205
  694W        W 4438   0.821   8.526   2.290
  695W        W 4439   2.339   1.561   9.989
  696W        W 4440   8.631   6.529   1.900
  697W        W 4441   4.710   0.339   3.459
  698W        W 4442   1.933  10.441   3.408
  699W        W 4443   0.277   4.817  11.119
  700W        W 4444   7.193   1.879   8.553
  701W        W 4445   2.012   3.959   9.342
  702W        W 4446   3.731   7.637   2.599
  703W        W 4447   8.933   3.109   0.557
  704W        W 4448   7.796   3.112   3.125
  705W        W 4449   3.803   0.111   3.528
  706W        W 4450   8.004   8.343   3.091
  707W        W 4451   4.769   0.343   0.030
  708W        W 4452   5.216   6.028   1.939
  709W        W 4453   8.410   9.500   2.710
  710W        W 4454   1.330   5.574   8.463
  711W        W 4455   5.621   3.434   8.990
  712W        W 4456   7.891   5.234   9.087
  713W        W 4457   0.981   8.068   9.507
  714W        W 4458   2.319   6.983   8.902
  715W        W 4459   6.978  10.407   8.453
  716W        W 4460   7.139   7.407   1.879
  717W        W 4461   1.637  10.324   2.411
  718W        W 4462   3.212   0.335   0.794
  719W        W 4463   5.175   7.873  10.832
  720W        W 4464   7.107   4.222  10.924
  721W        W 4465   8.451   8.883   9.296
  722W        W 4466   5.685   8.920   2.191
  723W        W 4467   9.749   6.957   9.079
  724W        W 4468   5.131   7.163   0.474
  725W        W 4469   5.502   5.163   2.636
  726W        W 4470   6.425   7.426   0.384
  727W        W 4471   8.178   4.879   8.626
  728W        W 4472   6.410   7.413  11.200
  729W        W 4473   7.715   0.554   9.884
  730W        W 4474   1.404   1.423   1.705
  731W        W 4475   0.303   7.875   2.336
  732W        W 4476   1.565   8.408   1.659
  733W        W 4477   6.041   4.237  11.469
  734W        W 4478   0.090   4.707   0.426
  735W        W 4479   3.640   9.926   9.992
  736W        W 4480   9.534   5.269  10.973
  737W        W 4481   9.699   0.130   9.998
  738W        W 4482   3.793   1.908   0.420
  739W        W 4483   1.257   3.794   0.034
  740W        W 4484   0.426   5.725  11.036
  741W        W 4485   9.903   2.744   3.438
  742W        W 4486   1.178   7.772   3.287
  743W        W 4487   5.672   1.842   0.033
  744W        W 4488   2.133   9.266   8.960
  745W        W 4489   7.560   6.661   1.102
  746W        W 4490   5.657   9.574   8.837
  747W        W 4491   5.705   2.158   2.941
  748W        W 4492  10.047   3.515  10.703
  749W        W 4493   7.390   9.668   8.957
  750W        W 4494   1.760   7.592  11.823
  751W        W 4495   1.439   0.069  11.294
  752W        W 4496   4.329   6.665   1.601
  753W        W 4497   9.989   8.810  10.015
  754W        W 4498   0.577   0.004  10.796
  755W        W 4499   4.181  10.074   2.398
  756W        W 4500   5.321  10.063   9.522
  757W        W 4501   4.526   1.302   8.731
  758W        W 4502   0.448   0.825  11.000
  759W        W 4503   9.397   9.886   9.470
  760W        W 4504   2.065   3.187   0.024
  761W        W 4505   9.032   2.706  11.251
  762W        W 4506   7.281   7.911   9.111
  763W        W 4507   3.281   7.908   2.284
  764W        W 4508   1.349   1.976  10.728
  765W        W 4509   6.986   2.622   1.871
  766W        W 4510   8.969   3.123   0.054
  767W        W 4511   2.593  10.484   8.976
  768W        W 4512   2.172   8.949  11.792
  769W        W 4513   6.567   4.056   1.005
  770W        W 4514   9.878   9.984   9.277
  771W        W 4515   3.107   6.228   3.719
  772W        W 4516   1.704  10.389   1.285
  773W        W 4517   2.349   9.479   2.753
  774W        W 4518   9.614   8.448   0.301
  775W        W 4519   3.351   1.928  10.360
  776W        W 4520   1.309   0.659   1.210
  777W        W 4521   7.399   8.162  10.074
  778W        W 4522   2.748   6.431  10.969
  779W        W 4523   3.794   4.784   0.548
  780W        W 4524   7.696   5.775   1.323
  781W        W 4525   6.178   7.040  11.473
  782W        W 4526   0.363   2.301   1.387
  783W        W 4527   6.158   5.488   0.990
  784W        W 4528   5.552   6.025  10.231
  785W        W 4529   5.044   3.307   2.222
  786W        W 4530   0.848   6.198  11.505
  787W        W 4531   5.762   1.246  10.257
  788W        W 4532   6.309   9.538   3.280
  789W        W 4533   5.592   6.740   2.812
  790W        W 4534   0.105   2.121   8.621
  791W        W 4535   4.290   3.075   1.850
  792W        W 4536   6.652   0.338   1.354
  793W        W 4537   2.690   5.605   9.003
  794W        W 4538   0.112   9.445   3.305
  795W        W 4539   3.244   0.784   1.704
  796W        W 4540   0.257   6.556  10.580
  797W        W 4541   3.105   4.255   2.786
  798W        W 4542   4.263   9.339   8.875
  799W        W 4543   1.280   1.893   2.979
  800W        W 4544   3.000   4.295   8.567
  801W        W 4545   8.268   1.061  10.996
  802W        W 4546   7.249   2.823   0.018
  803W        W 4547   5.181   6.518   1.170
  804W        W 4548   7.229   4.224   8.533
  805W        W 4549  10.013   3.977  10.906
  806W        W 4550   4.783   0.350  11.518
  807W        W 4551   4.158   2.770   9.603
  808W        W 4552   8.886   0.273   8.658
  809W        W 4553   6.785   5.342   1.298
  810W        W 4554   9.345   4.090   1.370
  811W        W 4555   8.957   7.917   1.794
  812W        W 4556   7.037   7.548  10.378
  813W        W 4557   0.947   0.825  10.225
  814W        W 4558   3.771   4.050   3.797
  815W        W 4559   4.673   9.334  10.947
  816W        W 4560   7.543   7.312   3.624
  817W        W 4561  10.257   9.485  10.486
  818W        W 4562   6.926   3.686   9.537
  819W        W 4563  10.242   7.445  10.538
  820W        W 4564   5.628   2.243  11.186
  821W        W 4565   1.065   1.427   8.995
  822W        W 4566   0.129   5.567   9.528
  823W        W 4567   5.154   0.957   3.495
  824W        W 4568   3.594   4.235   1.827
  825W        W 4569   3.747   7.835   2.101
  826W        W 4570   7.111   1.197   0.801
  827W        W 4571   5.989   8.378  11.490
  828W        W 4572   2.529   6.917   2.966
  829W        W 4573   6.722   1.489   2.252
  830W        W 4574   8.053   2.878  11.221
  831W        W 4575   4.508   1.628   0.881
  832W        W 4576   8.551   9.485  10.562
  833W        W 4577   2.682   2.639   9.424
  834W        W 4578   7.925  10.189  10.089
  835W        W 4579   2.555   0.729   3.298
  836W        W 4580   7.394   5.569   8.577
  837W        W 4581   7.932   6.544  11.196
  838W        W 4582   6.039   3.285   0.930
  839W        W 4583   5.617   6.750   1.926
  840W        W 4584   9.210   1.084   2.071
  841W        W 4585   7.115   4.722   0.234
  842W        W 4586   4.845   6.180   0.359
  843W        W 4587   1.082   9.676  11.306
  844W        W 4588   0.718   9.886   2.442
  845W        W 4589   4.775   4.719   0.420
  846W        W 4590   4.745   3.695   9.503
  847W        W 4591   2.221   7.359  11.750
  848W        W 4592   6.202   4.256  11.952
  849W        W 4593   9.846   9.882   3.371
  850W        W 4594   6.571   8.358  10.374
  851W        W 4595   2.888   2.683  10.298
  852W        W 4596   7.915   4.682   8.234
  853W        W 4597   3.346   5.751   2.829
  854W        W 4598   1.852   1.780   2.335
  855W        W 4599   3.098   6.468   2.210
  856W        W 4600   4.065   8.616  11.432
  857W        W 4601   3.350   8.512   1.433
  858W        W 4602   2.101   2.392   2.318
  859W        W 4603   7.748   2.476   9.992
  860W        W 4604   2.270   3.861   3.163
  861W        W 4605   6.676   7.066  11.434
  862W        W 4606   0.580   8.672   3.235
  863W        W 4607   2.758   6.017   0.068
  864W        W 4608   6.666   4.788   2.408
  865W        W 4609   1.305   7.275  11.660
  866W        W 4610   8.899   7.458  10.863
  867W        W 4611   1.101   9.295   3.084
  868W        W 4612   3.662   2.756  10.028
  869W        W 4613   8.069   6.457  10.712
  870W        W 4614   6.452   3.242   0.552
  871W        W 4615   8.636   3.609   2.053
  872W        W 4616   9.530   6.635   1.175
  873W        W 4617   4.183   9.812  10.955
  874W        W 4618   1.443   0.535   2.296
  875W        W 4619   7.886   3.286  10.487
  876W        W 4620   0.314   3.225   9.111
  877W        W 4621   1.771   5.066   3.239
  878W        W 4622   4.124   0.415  10.760
  879W        W 4623   2.596   6.565   2.157
  880W        W 4624   0.530   0.908   9.923
  881W        W 4625   7.518   9.966   1.032
  882W        W 4626   2.063   1.013  11.809
  883W        W 4627   7.453   4.966   9.818
  884W        W 4628   8.461   4.658  10.789
  885W        W 4629  10.055   0.925  10.603
  886W        W 4630   9.643   6.641   2.196
  887W        W 4631   9.374   6.128  10.735
  888W        W 4632   4.997   2.610   8.991
  889W        W 4633   8.446   4.535   8.899
  890W        W 4634   4.687   2.199  11.445
  891W        W 4635  10.243   7.969   1.438
  892W        W 4636   9.088   2.837   0.974
  893W        W 4637   6.566   5.124   0.878
  894W        W 4638   8.150   3.670   8.929
  895W        W 4639  10.404   3.252   9.419
  896W        W 4640   0.680   9.756  10.455
  897W        W 4641   0.877   0.942   1.218
  898W        W 4642   8.118   4.787  11.221
  899W        W 4643   9.408   9.422  10.469
  900W        W 4644   0.493   7.569   0.838
  901W        W 4645   3.993   7.689   1.282
  902W        W 4646   3.580  10.028   0.479
  903W        W 4647   4.729   1.731   8.945
  904W        W 4648   5.615   9.387  11.751
  905W        W 4649   4.266   3.628   0.651
  906W        W 4650   7.544   7.638  10.308
  907W        W 4651   0.794   8.012   2.444
  908W        W 4652   2.556   1.165  11.458
  909W        W 4653   0.941   9.148   1.897
  910W        W 4654   0.873   3.073   2.323
  911W        W 4655   8.022   9.312   3.170
  912W        W 4656   7.564   1.026   3.383
  913W        W 4657   8.524   0.502   0.606
  914W        W 4658   8.420   1.968  11.952
  915W        W 4659   6.987   1.477   0.407
  916W        W 4660   6.455   2.744   3.251
  917W        W 4661   2.232   9.359  11.269
  918W        W 4662   8.102   1.388   9.174
  919W        W 4663   1.710   7.213   8.886
  920W        W 4664   2.149   4.105  10.745
  921W        W 4665   6.516   0.730   0.404
  922W        W 4666   9.886   2.743  11.118
  923W        W 4667   6.405   6.812  10.548
  924W        W 4668   0.946   8.750  10.353
  925W        W 4669   3.530   0.963   1.326
  926W        W 4670   3.326   6.810   0.218
  927W        W 4671  10.020   7.348  11.864
  928W        W 4672   8.870   4.197  10.479
  929W        W 4673   7.032   6.967   9.979
  930W        W 4674   1.520   8.191  11.919
  931W        W 4675   9.069   9.484  11.829
  932W        W 4676   0.574   9.129  11.129
  933W        W 4677   5.461   6.632   4.056
  934W        W 4678   8.624   9.753   8.372
  935W        W 4679   0.572   4.831   0.545
  936W        W 4680   9.363   6.179   8.748
  937W        W 4681   6.613   3.761   1.424
  938W        W 4682   9.440   6.403  10.284
  939W        W 4683   4.366  10.348   2.897
  940W        W 4684   3.875   7.317   2.192
  941W        W 4685   8.420   0.730  11.358
  942W        W 4686   4.560   5.775  11.900
  943W        W 4687   8.734   9.336   2.179
  944W        W 4688   3.674   6.047   1.292
  945W        W 4689   8.314   9.450   0.883
  946W        W 4690   5.208   5.239   9.542
  947W        W 4691   7.904   4.063   1.126
  948W        W 4692   1.829   1.614   0.543
  949W        W 4693   5.116   5.229   0.824
  950W        W 4694   1.774   4.151   3.233
  951W        W 4695   3.294   8.376   9.525
  952W        W 4696   9.920   3.148   9.210
  953W        W 4697   6.099   2.462  10.361
  954W        W 4698   1.880   9.387  10.825
  955W        W 4699   5.610   6.500   2.368
  956W        W 4700   2.605   9.973   9.121
  957W        W 4701   0.977   9.009   2.410
  958W        W 4702   3.822   9.382  11.766
  959W        W 4703   2.702   8.026   3.287
  960W        W 4704   4.595   4.076   8.903
  961W        W 4705   3.685   7.575   3.446
  962W        W 4706   2.393   0.290  11.816
  963W        W 4707   5.667   8.030  11.304
  964W        W 4708   1.418   5.658   2.491
  965W        W 4709   5.263   0.955  11.343
  966W        W 4710   7.524   6.961   8.664
  967W        W 4711   2.902   3.189   8.927
  968W        W 4712   2.632   8.942   9.986
  969W        W 4713   5.652   7.568   8.861
  970W        W 4714   4.089   2.212   8.881
  971W        W 4715   5.959   6.796   9.499
  972W        W 4716   9.835  10.288  11.444
  973W        W 4717   4.246   0.341   2.754
  974W        W 4718   7.340   1.005   2.922
  975W        W 4719   4.255   8.580   2.731
  976W        W 4720   1.861   5.076   9.997
  977W        W 4721   8.881   4.538   2.009
  978W        W 4722   3.209   6.093   9.655
  979W        W 4723   9.005   0.841  11.419
  980W        W 4724   5.549   1.675  10.529
  981W        W 4725   2.794   8.083   1.765
  982W        W 4726   6.638   8.130   2.782
  983W        W 4727   6.657  10.029   1.021
  984W        W 4728   6.699   4.452   0.634
  985W        W 4729   4.822   9.822   0.886
  986W        W 4730  10.417   1.415   0.848
  987W        W 4731  10.314   4.700  11.377
  988W        W 4732   3.554   5.263   9.405
  989W        W 4733   5.462   4.341   1.663
  990W        W 4734   0.174   0.177   2.087
  991W        W 4735   0.890   7.148   3.580
  992W        W 4736   4.606   2.666   2.783
  993W        W 4737   1.164   6.108  10.852
  994W        W 4738   9.111   9.724   2.143
  995W        W 4739   8.802   9.876  11.521
  996W        W 4740   6.869   8.340   2.354
  997W        W 4741   0.243   9.200   2.428
  998W        W 4742   8.938   0.053  10.488
  999W        W 4743  10.295   3.251  11.362
 1000W        W 4744   2.350   2.087   2.014
 1001W        W 4745   7.828   3.297   1.124
 1002W        W 4746   0.789   0.513  11.567
 1003W        W 4747   5.091   4.602   3.182
 1004W        W 4748   2.284   7.837   0.369
 1005W        W 4749   9.882   9.272   2.616
 1006W        W 4750   4.048   3.945   9.144
 1007W        W 4751   5.342   7.892   2.655
 1008W        W 4752   6.584   5.707  11.726
 1009W        W 4753   5.945   2.237  10.776
 1010W        W 4754   5.698   8.563   0.715
 1011W        W 4755  10.310  10.018  11.784
 1012W        W 4756   1.684   9.054   9.130
 1013W        W 4757   2.877   2.722   3.528
 1014W        W 4758   7.439   1.330   1.706
 1015W        W 4759   1.160   1.871   1.595
 1016W        W 4760   3.142   6.123  11.768
 1017W        W 4761   7.930   9.140   0.784
 1018W        W 4762   3.537   7.684   1.654
 1019W        W 4763   3.673   4.698   8.220
 1020W        W 4764   7.093   4.735  10.387
 1021W        W 4765   9.396   3.739  10.152
 1022W        W 4766   8.556   5.696   3.071
 1023W        W 4767   3.989   4.438   1.572
 1024W        W 4768   9.167   3.578  11.350
 1025W        W 4769   9.538   6.351   0.160
 1026W        W 4770   2.514   2.593   3.210
 1027W        W 4771   9.323   7.828  11.501
 1028W        W 4772   8.367  10.189   0.193
 1029W        W 4773   5.545   0.003   8.870
 1030W        W 4774   5.787   9.860   9.591
 1031W        W 4775   1.332   0.770   9.524
 1032W        W 4776   1.261   5.092   3.042
 1033W        W 4777   5.657  10.372   1.962
 1034W        W 4778   5.756   0.665   1.328
 1035W        W 4779   1.873   8.535   3.166
 1036W        W 4780   1.172   0.954   3.557
 1037W        W 4781  10.449   1.782  10.107
 1038W        W 4782   2.297   3.673  11.088
 1039W        W 4783   8.872   5.739   2.659
 1040W        W 4784   8.123   9.279   9.824
 1041W        W 4785   5.210   3.527   1.744
 1042W        W 4786   1.898   8.466  10.140
 1043W        W 4787   5.589   3.694  11.955
 1044W        W 4788   8.328   3.316  10.821
 1045W        W 4789   6.562   8.529   9.855
 1046W        W 4790   2.788   0.379   9.783
 1047W        W 4791   7.539   0.289   2.281
 1048W        W 4792  10.226   5.091   3.214
 1049W        W 4793   1.323   5.912   3.422
 1050W        W 4794   4.587   1.881  11.048
 1051W        W 4795   4.275   3.317  11.260
 1052W        W 4796   8.226  10.230   8.855
 1053W        W 4797   9.741   4.014   1.700
 1054W        W 4798  10.171   5.991   9.000
 1055W        W 4799   2.555   4.519   8.748
 1056W        W 4800   6.659   7.535   1.754
 1057W        W 4801   5.784   6.199  11.514
 1058W        W 4802   6.864   5.151   9.514
 1059W        W 4803   0.918   3.569  10.818
 1060W        W 4804   4.070   0.202  11.222
 1061W        W 4805   9.998   3.231   9.746
 1062W        W 4806   0.833   7.923   2.978
 1063W        W 4807   1.358   9.984  10.607
 1064W        W 4808   0.611   0.544   9.125
 1065W        W 4809   7.109   1.067   8.940
 1066W        W 4810   0.786   2.617   2.983
 1067W        W 4811   8.701   7.306  11.849
 1068W        W 4812   7.136   3.375   8.933
 1069W        W 4813   4.427   0.006   2.415
 1070W        W 4814   7.845   5.180  11.433
 1071W        W 4815   9.563   7.125  10.992
 1072W        W 4816   4.136  10.076  10.032
 1073W        W 4817   6.988   6.101   9.611
 1074W        W 4818   0.116   7.465   9.573
 1075W        W 4819   7.076   4.686   4.261
 1076W        W 4820   7.460   0.859  10.895
 1077W        W 4821   5.255   8.296   0.487
 1078W        W 4822   4.755   9.322   0.928
 1079W        W 4823   9.252   1.622   1.974
 1080W        W 4824   5.138   8.961   1.956
 1081W        W 4825   3.632   8.572   8.913
 1082W        W 4826   6.941   0.178  11.824
 1083W        W 4827   9.898   1.876   1.451
 1084W        W 4828   7.574   5.404  11.001
 1085W        W 4829   8.665   6.822   1.469
 1086W        W 4830   5.782   4.647   1.369
 1087W        W 4831   5.087  10.448   1.543
 1088W        W 4832   8.344   6.216   2.180
 1089W        W 4833   6.137   3.686   1.706
 1090W        W 4834  10.375   1.246   2.703
 1091W        W 4835   3.539   2.779   1.815
 1092W        W 4836   5.262   8.992  11.458
 1093W        W 4837   1.755   7.163   9.810
 1094W        W 4838   9.873   7.053   2.989
 1095W        W 4839   3.684   9.605   0.210
 1096W        W 4840   6.867   2.230  10.687
 1097W        W 4841   9.428   1.211   9.972
 1098W        W 4842   5.357   0.431  10.581
 1099W        W 4843   3.282  10.182  10.898
 1100W        W 4844   8.150   8.392   0.309
 1101W        W 4845   6.458   3.328   2.788
 1102W        W 4846   4.630   7.874   2.322
 1103W        W 4847   2.303   8.361   1.395
 1104W        W 4848   6.077   9.676  10.464
 1105W        W 4849   6.090   1.039   0.170
 1106W        W 4850   3.288   0.510   2.785
 1107W        W 4851   3.899   4.614   2.710
 1108W        W 4852   2.853   3.567  11.746
 1109W        W 4853   5.285   1.351  10.998
 1110W        W 4854   2.935   4.592   9.605
 1111W        W 4855   6.245   1.342  10.539
 1112W        W 4856   3.212   4.566  11.555
 1113W        W 4857   6.572  10.229   0.552
 1114W        W 4858   9.867   1.398  10.684
 1115W        W 4859   0.139   8.316   0.372
 1116W        W 4860   3.414   3.661  10.373
 1117W        W 4861   0.180   6.181   9.859
 1118W        W 4862   4.957   5.629  10.270
 1119W        W 4863   6.167   6.501   1.221
 1120W        W 4864   5.638   3.132  11.142
 1121W        W 4865   4.673   9.104   9.147
 1122W        W 4866   9.527   9.587   0.036
 1123W        W 4867   4.995   4.518   1.846
 1124W        W 4868   1.746   6.015   9.911
 1125W        W 4869   2.199   9.492   9.857
 1126W        W 4870   0.370   2.758   1.159
 1127W        W 4871   2.971   5.932   0.550
 1128W        W 4872   2.246   0.930  10.560
 1129W        W 4873   0.181   1.673  11.075
 1130W        W 4874   3.564   1.711  11.993
 1131W        W 4875   9.969   6.156   1.367
 1132W        W 4876   8.076   7.191   8.659
 1133W        W 4877   5.979   7.477   1.515
 1134W        W 4878   3.722   3.543   1.429
 1135W        W 4879   8.461   5.913   9.574
 1136W        W 4880   0.994   5.894   9.386
 1137W        W 4881   2.825   8.884   2.170
 1138W        W 4882   4.793   3.162   2.708
 1139W        W 4883   9.895   6.015   0.004
 1140W        W 4884   5.009   4.215   8.645
 1141W        W 4885  10.398   7.244   0.206
 1142W        W 4886   9.572   7.051  11.933
 1143W        W 4887   7.581   5.778  11.917
 1144W        W 4888   3.721   1.429   9.352
 1145W        W 4889   0.789   7.038  10.583
 1146W        W 4890   9.187   1.739  10.808
 1147W        W 4891   8.940   3.316   1.083
 1148W        W 4892  10.315   0.468   0.694
 1149W        W 4893   0.282   6.968  10.251
 1150W        W 4894   8.415   5.040   9.622
 1151W        W 4895   0.264   2.764   3.075
 1152W        W 4896   4.411   9.518  10.123
 1153W        W 4897   7.911  10.250   9.589
 1154W        W 4898   2.683   5.666   1.720
 1155W        W 4899   7.189   7.016   0.208
 1156W        W 4900   5.436   7.279   3.706
 1157W        W 4901   8.372  10.479  11.769
 1158W        W 4902   6.462   1.388   9.605
 1159W        W 4903   1.787   4.273   0.631
 1160W        W 4904   9.896   8.895  11.554
 1161W        W 4905   3.508   7.554   1.164
 1162W        W 4906   1.808   3.111   3.081
 1163W        W 4907   6.980   6.046   0.957
 1164W        W 4908   0.481   2.103   0.918
 1165W        W 4909   7.145   9.302   3.279
 1166W        W 4910   2.675   1.936   9.911
 1167W        W 4911   3.707   8.862   0.897
 1168W        W 4912   1.360   0.872  10.531
 1169W        W 4913   9.971   5.697  10.301
 1170W        W 4914   8.748  10.029  10.519
 1171W        W 4915   3.125   9.806  11.347
 1172W        W 4916   1.828   5.752  11.234
 1173W        W 4917   0.956   1.351   3.319
 1174W        W 4918   9.548   7.043   3.423
 1175W        W 4919  10.340   9.837   1.677
 1176W        W 4920   5.749   7.017   2.363
 1177W        W 4921   7.410   5.596   9.097
 1178W        W 4922   2.839   4.841   2.808
 1179W        W 4923   9.482   3.566   3.336
 1180W        W 4924   9.559   4.504   0.424
 1181W        W 4925   5.680   1.318   8.736
 1182W        W 4926   7.056   3.973   2.408
 1183W        W 4927   5.635   3.749   1.972
 1184W        W 4928   7.686   3.827  11.863
 1185W        W 4929   7.170   2.655  10.621
 1186W        W 4930  10.423   4.373   0.777
 1187W        W 4931   7.190   1.230  11.863
 1188W        W 4932   2.912   2.943   8.435
 1189W        W 4933   5.547   2.227   8.795
 1190W        W 4934   8.172   1.868   2.902
 1191W        W 4935   3.327   0.503   2.260
 1192W        W 4936   7.936   7.391   2.712
 1193W        W 4937   0.277   1.348   9.824
 1194W        W 4938   2.336   1.867   8.603
 1195W        W 4939   0.632   8.900   0.939
 1196W        W 4940   6.187   6.005   1.043
 1197W        W 4941   9.083   3.739  10.558
 1198W        W 4942   4.266   1.169   0.841
 1199W        W 4943   2.649   3.807   0.625
 1200W        W 4944   7.890   5.105   0.211
 1201W        W 4945   7.844   8.285  11.330
 1202W        W 4946   7.929   6.605  11.695
 1203W        W 4947   1.224   7.320   3.042
 1204W        W 4948   1.440   6.504  11.010
 1205W        W 4949   7.588   7.882  11.060
 1206W        W 4950   1.589   2.735   3.344
 1207W        W 4951   6.049   1.961   0.735
 1208W        W 4952   2.150   8.584   2.306
 1209W        W 4953   6.904   7.872   9.998
 1210W        W 4954   1.388   5.569   9.441
 1211W        W 4955   1.865   5.909  10.405
 1212W        W 4956   1.737   7.712   8.754
 1213W        W 4957   7.185   1.481  11.322
 1214W        W 4958   2.273   3.786   8.888
 1215W        W 4959  10.013   3.812  10.273
 1216W        W 4960   0.023   9.367   1.421
 1217W        W 4961   9.847   5.518   9.820
 1218W        W 4962   7.669   9.396   8.572
 1219W        W 4963   3.173   2.765   9.358
 1220W        W 4964   7.291   4.422   0.600
 1221W        W 4965   2.954   7.558   8.627
 1222W        W 4966   4.030   7.956   3.373
 1223W        W 4967   3.467   3.261   3.262
 1224W        W 4968   8.198   4.685   0.166
 1225W        W 4969   5.568   1.679   2.502
 1226W        W 4970   3.129   4.090  10.807
 1227W        W 4971   9.521   0.710  11.588
 1228W        W 4972   5.651   8.464   0.212
 1229W        W 4973   2.147   7.336  11.239
 1230W        W 4974   4.588   5.023  10.804
 1231W        W 4975   3.745   1.323  10.377
 1232W        W 4976   2.254   8.346   9.027
 1233W        W 4977   8.901   0.038   1.870
 1234W        W 4978   6.036   5.809   9.571
 1235W        W 4979   0.757  10.117   3.285
 1236W        W 4980   5.724   9.581   3.022
 1237W        W 4981   9.423   1.729   1.498
 1238W        W 4982   3.528   1.713   0.798
 1239W        W 4983   6.960   0.259   9.503
 1240W        W 4984   9.487   0.967   0.896
 1241W        W 4985   9.320   9.604   2.872
 1242W        W 4986   9.324   5.103   9.212
 1243W        W 4987   1.520   7.762   2.915
 1244W        W 4988   2.189   5.795   2.339
 1245W        W 4989   6.182   6.444   3.864
 1246W        W 4990   5.229   3.775   2.302
 1247W        W 4991   0.510   8.284   9.502
 1248W        W 4992   6.224   2.717  10.776
 1249W        W 4993   4.990   3.763   7.885
 1250W        W 4994   4.279   3.898  10.342
 1251W        W 4995   7.378   6.791   3.679
 1252W        W 4996   5.383   7.079  10.562
 1253W        W 4997   5.989   8.378   9.535
 1254W        W 4998   7.163   7.350   0.649
 1255W        W 4999   5.079   0.711   2.142
 1256W        W 5000   4.755   2.707  10.756
 1257W        W 5001   3.333   2.810   0.257
 1258W        W 5002   7.967   0.972   8.864
 1259W        W 5003   5.991   3.908  10.200
 1260W        W 5004   2.188   5.764   8.980
 1261W        W 5005   2.754   4.690   1.951
 1262W        W 5006   9.718   7.145   1.439
 1263W        W 5007   8.560   3.366   3.372
 1264W        W 5008   4.998   7.980   9.768
 1265W        W 5009   1.692   4.694   9.695
 1266W        W 5010   9.127   8.184   9.244
 1267W        W 5011   7.451   5.217   3.609
 1268W        W 5012   6.495   7.344   2.750
 1269W        W 5013   4.551   8.130  10.023
 1270W        W 5014   4.496   9.679   8.542
 1271W        W 5015   7.816  10.417  11.952
 1272W        W 5016   4.135   1.405   0.387
 1273W        W 5017   1.254   6.460   0.302
 1274W        W 5018   8.104   8.911   0.332
 1275W        W 5019   0.153   6.831   8.622
 1276W        W 5020   4.608   5.019   2.669
 1277W        W 5021   9.364   2.441   9.963
 1278W        W 5022  10.144   0.387   9.962
 1279W        W 5023   1.825   1.659  10.053
 1280W        W 5024   1.287   2.190   1.175
 1281W        W 5025   7.950   8.816   3.315
 1282W        W 5026  10.276   6.486   9.649
 1283W        W 5027   0.465   3.464  10.601
 1284W        W 5028   7.048   5.375   0.774
 1285W        W 5029   5.604   9.388   1.446
 1286W        W 5030   3.493   8.352   3.269
 1287W        W 5031   7.470   5.025   0.474
 1288W        W 5032   7.220   9.292   1.915
 1289W        W 5033   9.117   1.346   0.219
 1290W        W 5034   2.888   4.050   3.299
 1291W        W 5035   9.763   0.467   1.904
 1292W        W 5036   1.827   5.561   0.253
 1293W        W 5037   3.102  10.474   9.636
 1294W        W 5038   1.832  10.333  11.527
 1295W        W 5039  10.272   1.927   2.035
 1296W        W 5040   6.872   7.597   1.225
 1297W        W 5041   6.484   3.540  10.743
 1298W        W 5042   8.747  10.442   9.464
 1299W        W 5043   3.220   5.994   2.339
 1300W        W 5044   4.472   4.614   0.829
 1301W        W 5045  10.475   5.429   2.354
 1302W        W 5046   3.079   0.686   3.238
 1303W        W 5047   6.713   5.558  10.845
 1304W        W 5048   8.907   7.643   0.367
 1305W        W 5049   8.417   8.605   3.307
 1306W        W 5050   2.407   0.296   9.417
 1307W        W 5051   8.390   1.808   0.445
 1308W        W 5052   0.784   2.388   8.569
 1309W        W 5053   0.717   4.122   2.248
 1310W        W 5054   6.930   2.256   8.825
 1311W        W 5055   4.654   7.086   1.651
 1312W        W 5056   0.373   6.416  11.911
 1313W        W 5057   3.188   7.648   3.253
 1314W        W 5058   4.147   7.877   9.786
 1315W        W 5059   2.512   9.589   8.785
 1316W        W 5060   7.665   6.530   1.562
 1317W        W 5061   6.849   2.318  11.740
 1318W        W 5062   1.164   7.558  11.257
 1319W        W 5063   4.578   9.935   2.689
 1320W        W 5064   7.773   6.046   4.137
 1321W        W 5065   4.846   1.320  11.249
 1322W        W 5066   6.565   5.849   2.740
 1323W        W 5067   9.923   7.470   1.816
 1324W        W 5068   6.487   0.966   9.282
 1325W        W 5069   2.392   1.452   9.025
 1326W        W 5070   4.771   6.513   1.814
 1327W        W 5071   4.619   6.149  10.377
 1328W        W 5072   6.987   9.442   1.456
 1329W        W 5073   4.150   4.698   9.964
 1330W        W 5074   2.705   3.214  10.863
 1331W        W 5075   4.198   0.346   1.190
 1332W        W 5076   7.699   8.314   0.526
 1333W        W 5077   9.361   0.230   9.560
 1334W        W 5078   2.815   1.453   9.815
 1335W        W 5079   3.188   4.096  11.308
 1336W        W 5080   7.423   9.758   0.469
 1337W        W 5081   1.218   6.514   1.728
 1338W        W 5082  10.410   0.184   1.143
 1339W        W 5083   8.853   3.167   9.544
 1340W        W 5084   6.074   7.371   3.072
 1341W        W 5085   5.088   7.414  10.078
 1342W        W 5086   7.713   7.315   9.947
 1343W        W 5087   3.815   2.280   1.808
 1344W        W 5088   2.580   3.167  11.951
 1345W        W 5089   3.940   2.621   8.581
 1346W        W 5090   7.900   7.045   9.554
 1347W        W 5091   3.869   3.641  11.044
 1348W        W 5092   6.086   0.373   0.811
 1349W        W 5093   2.191   4.342   8.432
 1350W        W 5094   6.223   0.042  10.840
 1351W        W 5095   7.523   2.937   2.297
 1352W        W 5096   5.555   4.364  11.410
 1353W        W 5097   8.169   5.807   3.884
 1354W        W 5098   8.998   7.695   9.300
 1355W        W 5099   4.719   7.234   9.479
 1356W        W 5100   7.923   1.152   1.920
 1357W        W 5101   7.863   8.355   9.834
 1358W        W 5102   3.709   1.411   1.493
 1359W        W 5103   7.424   7.429  11.264
 1360W        W 5104   6.568   6.859   2.720
 1361W        W 5105   8.473   4.556   3.130
 1362W        W 5106   7.802   5.095   7.973
 1363W        W 5107   4.572  10.350  10.048
 1364W        W 5108   5.780   4.627   2.935
 1365W        W 5109   9.720  10.462   1.230
 1366W        W 5110  10.080   0.516  11.809
 1367W        W 5111   5.104   6.149  11.047
 1368W        W 5112   2.313   6.216   3.772
 1369W        W 5113   1.956   1.130   8.816
 1370W        W 5114   1.811   3.201  10.990
 1371W        W 5115   4.089   2.374   0.462
 1372W        W 5116   9.374   0.419   8.676
 1373W        W 5117   2.889   4.039   2.352
 1374W        W 5118   8.952   2.707  10.739
 1375W        W 5119   4.473   6.774  11.813
 1376W        W 5120   0.135   9.307  11.286
 1377W        W 5121  10.296   6.355   2.525
 1378W        W 5122   5.826   7.688   1.957
 1379W        W 5123   2.640   9.921   3.280
 1380W        W 5124   8.385   4.166   9.557
 1381W        W 5125   5.729   8.313   1.151
 1382W        W 5126   4.722   3.235   9.691
 1383W        W 5127   2.630   1.213  10.274
 1384W        W 5128   7.797  10.337   1.247
 1385W        W 5129   8.293   0.241   0.215
 1386W        W 5130   7.085   8.795   3.322
 1387W        W 5131   7.855   9.380   2.661
 1388W        W 5132   2.284   9.833   1.422
 1389W        W 5133   5.997   2.963  10.345
 1390W        W 5134   7.229   7.885   1.693
 1391W        W 5135   1.708   2.651   9.524
 1392W        W 5136   5.428   0.856  10.870
 1393W        W 5137   9.813   0.717   3.267
 1394W        W 5138   1.265   0.536  11.400
 1395W        W 5139   8.560   1.768   1.411
 1396W        W 5140   2.436   2.201   9.543
 1397W        W 5141   1.943   3.317   1.533
 1398W        W 5142   5.699   8.224   2.729
 1399W        W 5143   1.004   2.333   9.574
 1400W        W 5144   0.701   2.881  11.417
 1401W        W 5145   7.686   1.990  10.269
 1402W        W 5146   5.455   0.825   3.095
 1403W        W 5147   3.947   5.632  10.206
 1404W        W 5148   2.908   4.533  10.978
 1405W        W 5149   8.951   6.214   2.823
 1406W        W 5150   5.568   2.038   0.975
 1407W        W 5151   1.619   8.061  10.060
 1408W        W 5152   2.676   6.975   3.455
 1409W        W 5153   7.749   1.318   3.764
 1410W        W 5154   2.789   3.728   1.961
 1411W        W 5155  10.345   3.061   8.924
 1412W        W 5156   9.107   6.680   2.664
 1413W        W 5157   1.211   3.323   0.238
 1414W        W 5158   5.483   0.915   8.485
 1415W        W 5159   3.575   3.223  10.664
 1416W        W 5160   1.428   2.259   9.319
 1417W        W 5161   0.451   6.882  10.936
 1418W        W 5162   2.134   7.678   1.177
 1419W        W 5163   1.336   4.317   8.996
 1420W        W 5164   2.585   2.692   0.818
 1421W        W 5165   9.090   5.556   9.259
 1422W        W 5166   0.289   4.132  11.933
 1423W        W 5167   2.436   0.845   1.916
 1424W        W 5168   2.377   6.091   9.794
 1425W        W 5169   5.008   3.784   9.050
 1426W        W 5170   8.897   5.296   0.434
 1427W        W 5171   6.209   5.488   0.074
 1428W        W 5172   1.474   5.077   1.934
 1429W        W 5173   0.245   0.565   0.984
 1430W        W 5174   6.146   8.370  10.087
 1431W        W 5175   0.323   0.389  11.366
 1432W        W 5176   9.489   4.151   0.063
 1433W        W 5177   7.979   8.744   1.690
 1434W        W 5178  10.250   8.433   3.174
 1435W        W 5179   4.817   4.565   1.354
 1436W        W 5180   0.944   0.343   0.331
 1437W        W 5181   8.877   9.923   3.024
 1438W        W 5182   1.060  10.382   0.171
 1439W        W 5183   7.994   4.624   2.403
 1440W        W 5184  10.346  10.058   9.045
 1441W        W 5185   8.882   5.596   9.737
 1442W        W 5186   8.841   9.048  11.972
 1443W        W 5187   4.781   1.217   0.732
 1444W        W 5188   7.952   6.500   2.640
 1445W        W 5189   5.436   2.147  10.729
 1446W        W 5190   4.209   5.854  10.632
 1447W        W 5191   2.202   2.192  11.131
 1448W        W 5192   5.240   4.264   3.615
 1449W        W 5193   3.702   5.889   2.223
 1450W        W 5194   1.740   9.588   8.973
 1451W        W 5195   5.269   0.059  10.959
 1452W        W 5196   6.151   9.888   2.941
 1453W        W 5197   2.165   6.537   1.884
 1454W        W 5198   8.169   5.759   8.458
 1455W        W 5199   1.642   4.598   0.262
 1456W        W 5200   7.631   3.280  11.930
 1457W        W 5201   2.839   5.749  10.388
 1458W        W 5202   6.633   6.624   3.159
 1459W        W 5203   6.808   2.073  10.200
 1460W        W 5204   5.706   3.744   2.478
 1461W        W 5205   5.178   1.753   0.833
 1462W        W 5206   3.802   3.545   9.383
 1463W        W 5207  10.219   6.039   0.918
 1464W        W 5208   4.221   1.420   9.575
 1465W        W 5209   2.991   0.868   2.400
 1466W        W 5210   3.564   0.138  11.288
 1467W        W 5211   4.661   0.319   9.871
 1468W        W 5212   1.722   3.149   2.550
 1469W        W 5213   1.004   8.330   0.455
 1470W        W 5214   3.543   6.707   8.672
 1471W        W 5215   2.262   5.483  11.999
 1472W        W 5216   6.442   5.284   2.596
 1473W        W 5217   2.348   0.254   3.390
 1474W        W 5218   7.529   1.501   0.727
 1475W        W 5219   9.724  10.130  10.322
 1476W        W 5220   9.594   2.250   1.241
 1477W        W 5221   1.789   7.273  10.338
 1478W        W 5222   0.738   4.293   3.276
 1479W        W 5223   1.674   7.621  11.310
 1480W        W 5224   8.538   5.296   1.273
 1481W        W 5225   5.716   7.117   4.100
 1482W        W 5226   4.527   8.119   8.970
 1483W        W 5227   9.785   7.650   9.383
 1484W        W 5228   4.987   7.909   8.811
 1485W        W 5229   8.743   5.830   0.967
 1486W        W 5230   3.276   6.338   1.452
 1487W        W 5231   6.850   8.100   8.886
 1488W        W 5232   8.991   3.354   1.584
 1489W        W 5233   9.497   4.720  10.959
 1490W        W 5234   2.710   4.656   0.714
 1491W        W 5235   9.852   2.214   0.176
 1492W        W 5236  10.371   6.105   0.276
 1493W        W 5237   3.148   5.653   1.932
 1494W        W 5238   7.880   7.165  10.426
 1495W        W 5239   6.156   0.529  10.749
 1496W        W 5240   7.850   9.744  11.448
 1497W        W 5241   3.952   8.425   3.110
 1498W        W 5242   0.261   8.557   9.134
 1499W        W 5243   5.312   4.493   1.197
 1500W        W 5244   8.476   6.368   1.268
 1501W        W 5245   7.695   9.615   3.575
 1502W        W 5246   3.704  10.071   9.116
 1503W        W 5247   8.564   1.031   2.871
 1504W        W 5248   4.267   1.485  11.094
 1505W        W 5249   3.554   4.325   0.423
 1506W        W 5250   4.529   6.959   0.627
 1507W        W 5251   8.480   9.027   2.513
 1508W        W 5252   2.049   7.722   2.148
 1509W        W 5253   8.480   8.274  11.949
 1510W        W 5254   1.810   2.137   2.725
 1511W        W 5255   5.662   1.292   0.251
 1512W        W 5256   7.006   7.555   3.539
 1513W        W 5257   0.193   5.939  11.889
 1514W        W 5258   9.426   5.044   1.247
 1515W        W 5259   4.260   1.111   9.988
 1516W        W 5260   0.002   8.410  10.985
 1517W        W 5261   9.329   0.550  10.481
 1518W        W 5262   3.140   6.969   2.156
 1519W        W 5263   7.670   4.228   8.278
 1520W        W 5264   1.460   5.493  11.464
 1521W        W 5265   5.109   0.005   3.358
 1522W        W 5266   9.543   5.452   0.948
 1523W        W 5267   9.034   5.841   3.163
 1524W        W 5268   8.768   7.050   2.773
 1525W        W 5269   3.733   8.645   2.672
 1526W        W 5270   2.742  10.426  11.588
 1527W        W 5271   3.502   2.772  10.954
 1528W        W 5272   7.290   2.322   9.749
 1529W        W 5273   3.217   9.226   3.614
 1530W        W 5274  10.300   6.198   3.020
 1531W        W 5275   1.828   3.716  10.888
 1532W        W 5276   7.475   6.121   9.413
 1533W        W 5277   6.035   7.429   2.568
 1534W        W 5278   5.601   8.312   3.623
 1535W        W 5279   2.223   5.792   1.450
 1536W        W 5280   5.539   6.851   0.404
 1537W        W 5281   3.320   1.260   3.270
 1538W        W 5282  10.350   6.474   9.114
 1539W        W 5283   6.774   8.471   0.298
 1540W        W 5284   9.821   5.237  10.460
 1541W        W 5285   4.469   7.538   1.459
 1542W        W 5286   3.672   6.672   9.167
 1543W        W 5287   1.469   5.561   2.989
 1544W        W 5288   5.595   3.094   9.385
 1545W        W 5289   7.548   8.893   1.952
 1546W        W 5290  10.169   6.002   9.872
 1547W        W 5291   9.845   6.015   8.590
 1548W        W 5292   6.123   9.889   9.981
 1549W        W 5293   9.865   3.273  11.131
 1550W        W 5294   6.093   6.476  11.812
 1551W        W 5295   4.510   7.490   1.974
 1552W        W 5296   2.377   7.582  10.104
 1553W        W 5297   4.473   7.248  11.079
 1554W        W 5298   5.619   1.292   9.250
 1555W        W 5299   7.246   4.458   9.006
 1556W        W 5300   7.676   6.955   0.334
 1557W        W 5301  10.278   4.961   2.496
 1558W        W 5302   8.939   6.246   3.477
 1559W        W 5303   8.092   1.269  11.462
 1560W        W 5304   6.768   5.692   9.837
 1561W        W 5305   1.520   1.862   1.966
 1562W        W 5306   4.873   5.624   9.405
 1563W        W 5307   5.112   1.196   3.007
 1564W        W 5308   3.592   3.728   8.937
 1565W        W 5309   7.483   6.756  11.883
 1566W        W 5310   5.676   2.803   1.586
 1567W        W 5311   3.707   5.881   3.158
 1568W        W 5312   6.114   5.932  11.819
 1569W        W 5313   2.840   0.736  11.485
 1570W        W 5314   7.369   2.365  11.760
 1571W        W 5315   5.302   9.321   2.937
 1572W        W 5316   9.679   5.451   9.308
 1573W        W 5317   2.141   8.035  10.112
 1574W        W 5318   8.016   4.450   3.917
 1575W        W 5319   9.563   0.484   0.584
 1576W        W 5320   4.590   0.736   0.834
 1577W        W 5321   2.201   4.073   0.867
 1578W        W 5322   1.348   9.386  11.625
 1579W        W 5323   1.054   8.381  10.713
 1580W        W 5324   1.605   0.761   0.808
 1581W        W 5325   7.799   1.144   2.442
 1582W        W 5326   9.188   5.597   3.586
 1583W        W 5327   1.848   9.241   0.334
 1584W        W 5328   9.936   0.316   2.960
 1585W        W 5329   1.341   8.407   9.255
 1586W        W 5330   8.841   0.794   9.035
 1587W        W 5331   6.551   5.037  11.054
 1588W        W 5332   8.953   7.923   3.376
 1589W        W 5333   5.418   7.108   8.766
 1590W        W 5334   1.798   8.075   9.126
 1591W        W 5335   6.361   2.426  11.934
 1592W        W 5336   1.231   1.149   0.030
 1593W        W 5337   3.353   8.746   0.440
 1594W        W 5338   5.712   0.191  11.456
 1595W        W 5339   7.105   6.599   1.506
 1596W        W 5340   8.015   7.674  10.626
 1597W        W 5341   9.268   2.382  10.468
 1598W        W 5342   9.846   6.157   2.313
 1599W        W 5343   7.251   2.926   0.910
 1600W        W 5344   0.955   5.160   0.579
 1601W        W 5345  10.341   4.521   1.264
 1602W        W 5346   3.566   3.650   9.821
 1603W        W 5347   8.957   3.588   0.275
 1604W        W 5348   6.027   5.200  10.127
 1605W        W 5349   9.761   8.156  10.722
 1606W        W 5350   8.872   4.363   2.557
 1607W        W 5351   7.401   6.590   1.970
 1608W        W 5352   1.301   5.749   9.931
 1609W        W 5353   0.022   8.768   2.252
 1610W        W 5354   7.612   8.116   1.446
 1611W        W 5355   6.949   4.540  11.808
 1612W        W 5356   5.503   6.233   2.791
 1613W        W 5357   8.194   0.674   9.685
 1614W        W 5358   6.015   9.168   1.731
 1615W        W 5359   5.312   9.893   0.883
 1616W        W 5360   7.659   9.557  11.015
 1617W        W 5361   7.092   3.599   2.067
 1618W        W 5362   4.710   3.619   0.927
 1619W        W 5363   8.511   1.487   9.953
 1620W        W 5364   8.419   3.795   2.468
 1621W        W 5365   2.527   1.656   0.881
 1622W        W 5366   4.125   6.580   9.378
 1623W        W 5367   3.358   2.301   9.618
 1624W        W 5368   9.639   3.469  11.559
 1625W        W 5369   6.138   0.319   1.367
 1626W        W 5370   5.210   3.923   9.510
 1627W        W 5371   4.894   9.050   2.857
 1628W        W 5372   3.306   7.517   3.765
 1629W        W 5373   9.407   9.780   1.697
 1630W        W 5374   1.687  10.413   2.919
 1631W        W 5375   8.516   2.781   9.469
 1632W        W 5376   4.126   4.109   1.940
 1633W        W 5377   1.313   9.420   9.238
 1634W        W 5378   2.823   7.357   0.487
 1635W        W 5379   8.959   3.148  11.021
 1636W        W 5380   5.059  10.491   0.286
 1637W        W 5381   1.234   2.751   1.475
 1638W        W 5382   8.530   5.542  10.555
 1639W        W 5383   2.669   6.036   2.909
 1640W        W 5384   0.213   2.723   9.117
 1641W        W 5385   6.980   6.059   3.573
 1642W        W 5386   4.457   5.668  10.232
 1643W        W 5387   4.296   1.422   3.543
 1644W        W 5388   4.082   6.140   2.893
 1645W        W 5389   7.172   3.207  11.696
 1646W        W 5390   5.936   5.626  10.413
 1647W        W 5391   1.359   6.861   2.823
 1648W        W 5392   0.922   2.696  10.178
 1649W        W 5393   7.233   3.706   2.873
 1650W        W 5394   4.984   5.178   0.329
 1651W        W 5395   7.055   0.356   1.693
 1652W        W 5396   6.030   2.435   2.215
 1653W        W 5397   5.583   2.446   1.959
 1654W        W 5398   7.840   5.653   8.816
 1655W        W 5399   2.162   7.780  11.466
 1656W        W 5400   8.539   0.688   1.512
 1657W        W 5401   5.508  10.234  11.459
 1658W        W 5402   4.781   8.081  11.696
 1659W        W 5403   4.592   5.926   1.189
 1660W        W 5404  10.380   3.112   2.915
 1661W        W 5405   1.930   1.370   9.259
 1662W        W 5406   4.751   3.650  10.495
 1663W        W 5407   0.513   5.232   0.893
 1664W        W 5408   0.548   9.347   0.711
 1665W        W 5409   9.824   2.351   9.781
 1666W        W 5410   2.739   7.894   2.795
 1667W        W 5411   1.243   6.565   2.233
 1668W        W 5412   0.970   9.364   8.405
 1669W        W 5413   6.135   1.048  11.442
 1670W        W 5414   2.213   6.822   2.407
 1671W        W 5415   2.118   4.316   0.132
 1672W        W 5416   0.393   6.505   8.941
 1673W        W 5417   3.941   3.226   3.566
 1674W        W 5418   5.473   3.383   3.652
 1675W        W 5419   4.723   1.266   2.652
 1676W        W 5420   5.180   1.212   1.496
 1677W        W 5421   3.910   8.940   3.055
 1678W        W 5422   1.593   9.178  10.457
 1679W        W 5423   1.103   8.482   1.421
 1680W        W 5424   6.217   1.402   2.325
 1681W        W 5425   3.805   2.828   0.539
 1682W        W 5426   7.564   3.097   9.181
 1683W        W 5427   1.354   2.469  11.582
 1684W        W 5428   5.115   2.225   0.622
 1685W        W 5429   6.355   7.304  10.443
 1686W        W 5430   9.818   1.796  11.455
 1687W        W 5431   0.993   1.423   1.406
 1688W        W 5432   6.374   1.986   1.559
 1689W        W 5433   5.658   8.506   3.147
 1690W        W 5434   4.232   6.720   2.377
 1691W        W 5435   2.252   0.805   2.881
 1692W        W 5436   5.649   3.277   1.776
 1693W        W 5437   7.356   6.901   0.711
 1694W        W 5438   4.474   2.196   0.062
 1695W        W 5439   2.711   5.672  11.254
 1696W        W 5440   7.614   4.088   3.027
 1697W        W 5441  10.243   5.733  11.789
 1698W        W 5442   8.056   1.663  11.791
 1699W        W 5443   5.682   3.181   3.236
 1700W        W 5444   7.896   1.954  10.749
 1701W        W 5445   2.087   4.210   1.874
 1702W        W 5446   5.526  10.269   0.396
 1703W        W 5447   2.229  10.431   9.758
 1704W        W 5448   5.236   2.043   2.699
 1705W        W 5449   2.312   5.151   0.383
 1706W        W 5450   4.775   7.154   8.990
 1707W        W 5451   2.843   9.035   8.998
 1708W        W 5452  10.053   9.407   1.681
 1709W        W 5453   6.960   6.565   0.031
 1710W        W 5454   5.656   2.199   0.489
 1711W        W 5455   9.671   1.791  10.960
 1712W        W 5456   5.580   7.301   1.223
 1713W        W 5457   0.281   4.715   0.948
 1714W        W 5458   9.878   8.061  11.207
 1715W        W 5459   7.344   9.679  11.505
 1716W        W 5460   4.165   9.132   0.720
 1717W        W 5461   9.263   5.469   0.093
 1718W        W 5462   4.626   8.223   2.710
 1719W        W 5463   0.250   2.871  10.882
 1720W        W 5464   6.408   2.473   0.852
 1721W        W 5465   3.320   0.742  10.022
 1722W        W 5466   2.795   1.414  11.867
 1723W        W 5467   0.645   5.064   2.747
 1724W        W 5468  10.262   3.170   0.341
 1725W        W 5469   2.685   7.230   9.793
 1726W        W 5470   2.915   9.020  10.480
 1727W        W 5471   2.848   6.967   0.140
 1728W        W 5472   7.673   7.967   0.959
 1729W        W 5473   0.797  10.101   1.980
 1730W        W 5474   3.946   5.210  11.446
 1731W        W 5475   6.180   2.407   1.334
 1732W        W 5476  10.252   6.483  10.623
 1733W        W 5477   6.262   8.551   0.337
 1734W        W 5478   4.154   6.870   0.247
 1735W        W 5479   2.151   6.104  10.768
 1736W        W 5480   2.635   5.534   2.210
 1737W        W 5481  10.490   6.999  10.734
 1738W        W 5482   5.098   3.118  10.885
 1739W        W 5483   3.078   1.865   1.710
 1740W        W 5484   7.431   7.160   2.719
 1741W        W 5485   6.062   3.361   2.422
 1742W        W 5486   0.278   6.200  11.445
 1743W        W 5487   7.538   8.621   1.454
 1744W        W 5488   9.120   7.097   2.382
 1745W        W 5489   8.687   4.811   0.371
 1746W        W 5490   1.162   7.542   9.357
 1747W        W 5491   4.339   9.981   0.933
 1748W        W 5492   2.485   9.905  11.932
 1749W        W 5493   4.128   2.251   1.398
 1750W        W 5494   7.712   4.821  11.775
 1751W        W 5495   9.151   3.497   2.947
 1752W        W 5496   2.798   6.114   9.009
 1753W        W 5497   0.495   7.352   0.356
 1754W        W 5498   1.510   1.948   9.736
 1755W        W 5499   9.126   7.527   0.802
 1756W        W 5500  10.349   0.756   2.910
 1757W        W 5501   4.969   3.333   1.335
 1758W        W 5502   2.318   3.502  11.611
 1759W        W 5503   9.861   1.365   2.621
 1760W        W 5504   4.991   1.256   9.013
 1761W        W 5505   4.295   3.689   2.185
 1762W        W 5506   9.847   8.361  11.835
 1763W        W 5507   7.425   4.056   1.645
 1764W        W 5508   2.685   3.575   2.448
 1765W        W 5509   4.594   7.248   3.420
 1766W        W 5510   3.270   1.395   9.587
 1767W        W 5511   0.380   8.064   9.042
 1768W        W 5512   8.346   7.049   3.123
 1769W        W 5513   5.892   8.921   8.824
 1770W        W 5514   3.529   6.420  11.932
 1771W        W 5515   2.434   5.227  11.160
 1772W        W 5516   2.900   9.903   1.280
 1773W        W 5517   3.517   4.533   1.395
 1774W        W 5518   7.000  10.465  11.353
 1775W        W 5519   2.887   7.641  10.077
 1776W        W 5520   9.429   2.637   2.016
 1777W        W 5521   5.144   8.307  10.565
 1778W        W 5522   2.717   8.618   8.655
 1779W        W 5523   0.592   3.515   1.621
 1780W        W 5524   5.485   4.702  10.131
 1781W        W 5525   2.284   7.267   2.717
 1782W        W 5526   4.092   6.693   8.855
 1783W        W 5527   5.341   7.997   1.256
 1784W        W 5528   0.070   5.720  11.405
 1785W        W 5529   7.517   0.744   8.994
 1786W        W 5530   5.497   2.650   9.136
 1787W        W 5531   5.700   9.553   0.931
 1788W        W 5532   3.047   2.229   1.358
 1789W        W 5533   8.886   8.558  11.845
 1790W        W 5534   3.292   1.480  11.097
 1791W        W 5535   2.853   6.239  10.498
 1792W        W 5536   8.627   1.964   3.824
 1793W        W 5537   1.149   6.973   0.412
 1794W        W 5538   5.971   6.967   1.368
 1795W        W 5539   2.121   4.302   2.874
 1796W        W 5540   7.139   8.178   1.260
 1797W        W 5541   5.715   5.602  10.913
 1798W        W 5542   4.193   2.829   0.186
 1799W        W 5543   5.975   1.187   1.889
 1800W        W 5544   6.146   6.158   0.267
 1801W        W 5545   5.206   2.874   0.264
 1802W        W 5546  10.493   2.123  11.068
 1803W        W 5547   3.124   2.746  11.299
 1804W        W 5548   6.648   1.880   2.572
 1805W        W 5549   9.865   9.864   1.420
 1806W        W 5550   4.860   9.862  11.691
 1807W        W 5551   7.420   7.293  11.786
 1808W        W 5552   6.042   1.618   9.289
 1809W        W 5553   9.453   8.507   2.274
 1810W        W 5554   3.888   3.643  10.533
 1811W        W 5555   4.916   7.499  11.100
 1812W        W 5556   3.679   9.542   1.498
 1813W        W 5557   3.598   2.625   2.926
 1814W        W 5558   5.166   3.410   9.406
 1815W        W 5559   4.588   6.899   1.189
 1816W        W 5560  10.491   9.119  11.896
 1817W        W 5561   1.911   0.391   9.455
 1818W        W 5562   3.567   9.000   1.374
 1819W        W 5563   6.169   0.619   9.518
 1820W        W 5564   2.054   3.773   1.269
 1821W        W 5565   3.559   2.241   1.346
 1822W        W 5566   5.560   6.057   9.726
 1823W        W 5567   4.196   9.140   9.824
 1824W        W 5568   5.762  10.067   0.819
 1825W        W 5569   8.565   8.572   2.303
 1826W        W 5570   7.048   0.989  11.405
 1827W        W 5571   9.550   2.680   2.518
 1828W        W 5572   0.145   4.083   2.338
 1829W        W 5573   1.694   2.373   9.973
 1830W        W 5574   6.217   7.475   9.987
 1831W        W 5575   6.577   4.535   0.134
 1832W        W 5576   7.665   7.514   2.249
 1833W        W 5577  10.188   2.338   2.326
 1834W        W 5578   6.508   2.809   9.474
 1835W        W 5579   7.541   3.943   0.737
 1836W        W 5580   4.727   0.241   2.941
 1837W        W 5581   8.635   1.737   2.785
 1838W        W 5582   4.070   6.473  11.942
 1839W        W 5583   8.852   7.068   3.265
 1840W        W 5584   6.882   6.798   0.548
 1841W        W 5585   2.761   9.418   1.407
 1842W        W 5586   4.417   4.565   2.778
 1843W        W 5587   7.921   2.791   0.367
 1844W        W 5588   6.141   8.975   2.448
 1845W        W 5589   5.041  10.418  11.425
 1846W        W 5590   1.720   3.778   0.765
 1847W        W 5591   2.178   2.616   9.752
 1848W        W 5592   5.630   7.036   3.276
 1849W        W 5593   0.688   4.871   9.539
 1850W        W 5594   1.224   9.560   2.144
 1851W        W 5595   3.871   7.100   3.262
 1852W        W 5596   6.952   3.284   0.689
 1853W        W 5597   4.334   4.704   1.320
 1854W        W 5598  10.221   8.322  10.514
 1855W        W 5599   8.833   5.086   9.030
 1856W        W 5600   0.990   7.910   8.641
 1857W        W 5601   3.692   4.922   2.332
 1858W        W 5602   1.394   4.102  11.479
 1859W        W 5603   7.919   9.065  11.873
 1860W        W 5604   7.163   9.789   1.770
 1861W        W 5605  10.319   9.900   3.235
 1862W        W 5606   8.466   4.681   2.634
 1863W        W 5607   0.281   2.746   1.685
 1864W        W 5608  10.398   1.130   1.878
 1865W        W 5609   9.716   8.751   1.030
 1866W        W 5610   7.008   1.718   3.441
 1867W        W 5611   2.083   2.721  10.951
 1868W        W 5612   0.484   0.434   3.358
 1869W        W 5613   4.536   6.768  11.271
 1870W        W 5614   5.176   3.504   2.724
 1871W        W 5615   3.660   6.245   9.442
 1872W        W 5616   1.750   2.753   2.238
 1873W        W 5617   9.511   5.651   3.175
 1874W        W 5618   5.835   3.797   8.632
 1875W        W 5619   3.055   0.952   1.148
 1876W        W 5620   5.162   9.264  10.761
 1877W        W 5621   8.541   8.143   2.572
 1878W        W 5622   5.914   2.977   9.780
 1879W        W 5623   0.191   5.579   2.849
 1880W        W 5624   2.315   4.205   1.377
 1881W        W 5625   6.603   2.003   0.819
 1882W        W 5626   1.817   9.881  10.981
 1883W        W 5627   0.699   8.039   1.024
 1884W        W 5628  10.375   2.693   9.841
 1885W        W 5629   1.715   1.787  11.590
 1886W        W 5630   0.945   7.797   1.915
 1887W        W 5631   1.254   3.758   0.529
 1888W        W 5632   6.294   2.625   9.903
 1889W        W 5633   0.811   1.869  10.274
 1890W        W 5634   8.309   6.103   0.861
 1891W        W 5635   1.834   8.111   1.247
 1892W        W 5636   4.847   4.016   9.876
 1893W        W 5637   9.300   0.677   1.788
 1894W        W 5638  10.476   7.045   3.158
 1895W        W 5639   3.192   5.639  11.996
 1896W        W 5640   5.749   7.730   2.877
 1897W        W 5641   1.744   3.992   8.911
 1898W        W 5642   9.305   9.862   3.312
 1899W        W 5643   7.492   8.684  10.007
 1900W        W 5644   3.799   7.346   0.803
 1901W        W 5645   8.537   0.448   9.279
 1902W        W 5646   3.606   6.033   0.692
 1903W        W 5647   2.837   7.185   8.942
 1904W        W 5648   6.118   4.428   9.462
 1905W        W 5649   3.432   2.754   8.501
 1906W        W 5650   3.207   1.838  11.451
 1907W        W 5651   9.477   5.256   1.733
 1908W        W 5652  10.259   7.606   9.202
 1909W        W 5653   3.840   6.117   0.230
 1910W        W 5654   6.453   2.322   2.461
 1911W        W 5655   4.994   6.253   9.068
 1912W        W 5656   5.691   4.066   0.707
 1913W        W 5657   1.197   7.902   0.285
 1914W        W 5658   4.441  10.484   9.564
 1915W        W 5659   0.518   8.335  10.808
 1916W        W 5660   4.189   4.865   1.788
 1917W        W 5661   1.740   6.595   2.455
 1918W        W 5662  10.213   5.654   1.367
 1919W        W 5663   6.287   3.628   0.195
 1920W        W 5664   7.671   9.446   2.172
 1921W        W 5665   8.153   6.641   9.253
 1922W        W 5666   7.031   5.787   0.476
 1923W        W 5667   6.494   4.887   2.914
 1924W        W 5668   6.442   6.353  10.301
 1925W        W 5669  10.385   2.627   0.421
 1926W        W 5670   6.039   1.118   9.506
 1927W        W 5671   1.365   8.947   9.588
 1928W        W 5672  10.444   4.612   3.138
 1929W        W 5673   9.530   5.861   0.332
 1930W        W 5674   3.720   9.973  11.046
 1931W        W 5675   5.243   0.369   3.009
 1932W        W 5676   6.374   1.893   9.595
 1933W        W 5677   3.146   2.129   3.668
 1934W        W 5678   4.548   3.616   9.990
 1935W        W 5679   8.328   8.066  10.498
 1936W        W 5680   2.886   3.651  11.039
 1937W        W 5681   9.901   6.193   0.523
 1938W        W 5682   0.809   2.696   1.946
 1939W        W 5683   0.195   1.938   0.496
 1940W        W 5684   8.000   4.218   0.279
 1941W        W 5685   8.043   4.379   8.623
 1942W        W 5686   9.869   3.555   8.914
 1943W        W 5687   9.436   4.611   0.969
 1944W        W 5688  10.471  10.364   3.456
 1945W        W 5689   3.158   7.829   9.023
 1946W        W 5690   3.382   0.899   0.357
 1947W        W 5691  10.357   0.030   8.846
 1948W        W 5692  10.016   1.219   8.621
 1949W        W 5693   6.102   7.453   9.096
 1950W        W 5694   7.457   3.113   0.407
 1951W        W 5695   6.184   1.258   0.968
 1952W        W 5696   5.093   1.606   1.796
 1953W        W 5697  10.424   2.181   2.765
 1954W        W 5698   5.677   3.698   1.474
 1955W        W 5699   6.611   2.548  10.354
 1956W        W 5700   1.460   9.138   3.425
 1957W        W 5701   8.031   0.228   1.459
 1958W        W 5702   0.783   0.250   2.871
 1959W        W 5703   1.355   3.699  11.076
 1960W        W 5704   6.887   2.880   9.042
 1961W        W 5705   4.790   9.428  10.460
 1962W        W 5706   0.213   6.953   0.487
 1963W        W 5707   0.968   5.626   1.694
 1964W        W 5708   2.335   5.553   1.005
 1965W        W 5709   4.693   6.656   8.594
 1966W        W 5710   8.567   3.688   1.561
 1967W        W 5711   2.630   0.798  11.045
 1968W        W 5712   5.564   7.427   0.169
 1969W        W 5713   0.750   5.094   9.007
 1970W        W 5714   1.308   1.470   9.832
 1971W        W 5715   1.769  10.288   9.011
 1972W        W 5716   5.766   5.421   0.627
 1973W        W 5717   4.947   6.981  10.319
 1974W        W 5718   9.827   6.044   2.854
 1975W        W 5719   7.176   4.117   9.726
 1976W        W 5720  10.484   5.564   3.329
 1977W        W 5721   5.411   8.050   3.214
 1978W        W 5722   7.959   7.377   0.398
 1979W        W 5723   4.793   4.967   9.402
 1980W        W 5724   5.388   6.208   8.735
 1981W        W 5725   6.645   4.955   0.390
 1982W        W 5726  10.285   4.554   2.133
 1983W        W 5727   8.353   1.333   0.801
 1984W        W 5728   0.062   6.676  11.567
 1985W        W 5729   8.232   4.151   0.739
 1986W        W 5730   2.610   4.479   9.243
 1987W        W 5731   4.589   2.661   9.316
 1988W        W 5732   1.792   5.654   1.680
 1989W        W 5733   4.280   7.959   1.939
 1990W        W 5734  10.462   4.567  11.936
 1991W        W 5735   3.665   5.425  11.814
 1992W        W 5736   1.705   3.799   9.807
 1993W        W 5737   2.948   0.737   0.663
 1994W        W 5738   6.003   1.596   9.784
 1995W        W 5739   0.453   4.294   8.709
 1996W        W 5740  10.412   2.330   9.060
 1997W        W 5741   4.517   3.614   8.093
 1998W        W 5742   9.494  10.340   0.755
 1999W        W 5743   9.269   8.793   1.882
 2000W        W 5744   8.768   5.304   3.323
 2001W        W 5745   8.991  10.402   2.821
 2002W        W 5746  10.184   7.873  10.826
 2003W        W 5747   9.686   9.156   8.426
 2004W        W 5748   0.529   6.970   2.417
 2005W        W 5749   3.077   7.667   1.897
 2006W        W 5750  10.267   5.844   2.653
 2007W        W 5751   2.326   9.923   2.447
 2008W        W 5752   4.625   7.631   9.773
 2009W        W 5753   7.840   4.614   9.889
 2010W        W 5754   5.082   5.179   1.908
 2011W        W 5755   0.524   6.387  11.037
 2012W        W 5756   6.772   3.168   3.168
 2013W        W 5757   2.115   2.562  11.473
 2014W        W 5758   5.457   6.894   0.941
 2015W        W 5759   2.393  10.360   3.086
 2016W        W 5760   8.496   3.575   0.993
 2017W        W 5761   6.003   6.986   9.968
 2018W        W 5762   3.735   3.083  11.990
 2019W        W 5763   0.352   0.001   9.096
 2020W        W 5764   6.565  10.105   1.903
 2021W        W 5765   0.876   9.844   9.039
 2022W        W 5766   6.008   4.211   8.898
 2023W        W 5767   2.124   9.859  11.503
 2024W        W 5768   6.591   9.510   1.095
 2025W        W 5769   8.749   6.447   0.315
 2026W        W 5770   1.261   3.413  10.405
 2027W        W 5771   8.082   0.021  10.983
 2028W        W 5772   0.865   8.629   0.086
 2029W        W 5773   1.403   5.342   8.940
 2030W        W 5774   6.636   8.602   0.778
 2031W        W 5775   3.124   8.044   8.555
 2032W        W 5776   3.499   3.102   2.229
 2033W        W 5777   0.723   5.188   1.755
 2034W        W 5778   1.009   9.463   1.385
 2035W        W 5779   8.813   5.558  11.297
 2036W        W 5780   2.257   0.766   1.420
 2037W        W 5781   3.287   1.688   8.736
 2038W        W 5782   2.281   4.714   2.157
 2039W        W 5783   1.686   6.645   9.338
 2040W        W 5784  10.341  10.341  11.393
 2041W        W 5785   0.292   1.798   1.369
 2042W        W 5786   0.283   2.215   3.713
 2043W        W 5787   5.333   8.535   8.432
 2044W        W 5788   8.597   0.800   1.012
 2045W        W 5789   1.963   0.388   3.047
 2046W        W 5790   9.854   5.184  11.376
 2047W        W 5791   6.687   4.431   2.777
 2048W        W 5792   5.198   0.995   0.173
 2049W        W 5793   1.923   2.326   3.181
 2050W        W 5794   0.260   6.111   1.781
 2051W        W 5795   2.352   6.102   9.290
 2052W        W 5796   3.519   9.704   3.625
 2053W        W 5797   3.190   4.562  10.041
 2054W        W 5798   1.782   2.284  10.836
 2055W        W 5799   9.245   5.428  11.567
 2056W        W 5800  10.443   1.349   3.262
 2057W        W 5801   8.638   3.603   2.919
 2058W        W 5802   4.525   6.682  10.351
 2059W        W 5803   6.980   3.240   0.175
 2060W        W 5804   4.252  10.290   9.136
 2061W        W 5805   3.093   1.189  11.492
 2062W        W 5806   2.154   6.993   0.494
 2063W        W 5807   7.488   2.598  11.323
 2064W        W 5808   6.118   3.984   9.721
 2065W        W 5809   7.003   8.707  11.885
 2066W        W 5810   4.655   3.651   3.444
 2067W        W 5811   2.721   5.246  10.306
 2068W        W 5812   8.479   7.175  10.960
 2069W        W 5813   3.827   3.602   0.063
 2070W        W 5814   5.169   3.539   3.235
 2071W        W 5815   0.146  10.048  10.000
 2072W        W 5816   1.659   5.183   2.724
 2073W        W 5817   1.782   1.928   8.660
 2074W        W 5818   4.306   7.052   9.178
 2075W        W 5819   9.877  10.023   1.899
 2076W        W 5820   6.994   2.217   2.214
 2077W        W 5821   5.703   6.811  10.870
 2078W        W 5822   2.043   4.846   0.038
 2079W        W 5823   7.855   1.673   2.467
 2080W        W 5824   5.964   5.543   1.483
 2081W        W 5825   1.122   4.537  11.463
 2082W        W 5826   2.731   5.620  11.752
 2083W        W 5827   2.759   8.473  11.192
 2084W        W 5828   7.067   1.750   1.965
 2085W        W 5829   1.361   1.168   1.185
 2086W        W 5830   4.324   2.303   3.258
 2087W        W 5831   0.518   7.785   9.529
 2088W        W 5832   2.974  10.006  11.833
 2089W        W 5833   1.341   0.910  11.057
 2090W        W 5834   5.614   4.641   9.635
 2091W        W 5835   7.945   3.625   2.422
 2092W        W 5836   8.953   5.367   0.971
 2093W        W 5837   7.937   2.166  11.915
 2094W        W 5838   0.780   5.988   3.368
 2095W        W 5839   3.860   7.122   2.696
 2096W        W 5840   3.619   4.168   8.593
 2097W        W 5841   8.951   2.724   9.205
 2098W        W 5842   7.746   2.818   0.850
 2099W        W 5843   4.715   4.026  11.901
 2100W        W 5844   0.883  10.134   9.484
 2101W        W 5845   8.776   7.901  10.628
 2102W        W 5846   5.266   2.332   3.157
 2103W        W 5847   1.800   3.083   3.695
 2104W        W 5848   3.312   9.671  10.888
 2105W        W 5849   8.623   0.917  11.834
 2106W        W 5850  10.424   4.653  10.814
 2107W        W 5851   7.107   7.975   2.648
 2108W        W 5852   4.254   9.280   3.331
 2109W        W 5853   2.214   3.293   3.350
 2110W        W 5854   7.680   1.290  10.999
 2111W        W 5855   9.418   3.107   1.800
 2112W        W 5856   7.444   7.012   3.223
 2113W        W 5857   5.465   9.376   2.005
 2114W        W 5858   4.765   0.782   0.307
 2115W        W 5859   6.087   6.065   1.558
 2116W        W 5860   5.513   4.097   8.235
 2117W        W 5861   7.635   1.532  10.030
 2118W        W 5862   3.307   7.219   1.728
 2119W        W 5863   0.317   2.852   0.282
 2120W        W 5864   4.687   1.445  10.783
 2121W        W 5865   2.200   6.541   2.851
 2122W        W 5866   1.195   7.970  10.967
 2123W        W 5867   7.445  10.081  10.264
 2124W        W 5868   8.148   0.516   1.018
 2125W        W 5869   8.427   4.051   8.706
 2126W        W 5870   7.015   3.851   3.302
 2127W        W 5871   1.636   9.718   0.338
 2128W        W 5872   8.363   8.462   9.049
 2129W        W 5873   1.403   9.329   1.690
 2130W        W 5874   1.637   4.137   1.649
 2131W        W 5875   7.506   8.079  10.577
 2132W        W 5876   9.024   6.644   1.148
 2133W        W 5877   1.488   1.351   3.645
 2134W        W 5878   2.804   2.171   0.883
 2135W        W 5879   8.935   6.170   1.326
 2136W        W 5880   1.272   3.813  10.086
 2137W        W 5881   0.320   0.495   2.893
 2138W        W 5882   0.439   8.778   9.563
 2139W        W 5883   7.882   0.636   3.285
 2140W        W 5884   9.112   0.790   9.903
 2141W        W 5885   8.088   2.843  10.229
 2142W        W 5886   1.080   6.300   3.651
 2143W        W 5887   8.500   1.891   9.618
 2144W        W 5888   9.526  10.444   2.912
 2145W        W 5889   7.048   2.394   0.204
 2146W        W 5890   8.817   0.214   2.349
 2147W        W 5891   1.825   8.739   0.431
 2148W        W 5892  10.312   8.983   2.701
 2149W        W 5893   1.002   5.314  11.241
 2150W        W 5894   3.174   2.812   9.871
 2151W        W 5895   0.772   1.735   3.018
 2152W        W 5896   7.467   7.413   0.283
 2153W        W 5897  10.000   4.697   2.884
 2154W        W 5898   4.713   3.734   0.414
 2155W        W 5899   9.927   1.239   0.778
 2156W        W 5900   9.283   0.285  11.414
 2157W        W 5901   1.335   9.881   9.477
 2158W        W 5902   2.909   4.812   8.566
 2159W        W 5903   9.074   6.698   0.637
 2160W        W 5904   8.956   8.438   3.114
 2161W        W 5905   8.077   3.538  11.799
 2162W        W 5906   6.817   8.995   0.248
 2163W        W 5907   6.118   9.521   1.367
 2164W        W 5908   7.934   6.022   2.403
 2165W        W 5909   7.763   7.636  11.976
 2166W        W 5910   4.379   2.828   3.259
 2167W        W 5911   4.124   5.003   0.916
 2168W        W 5912   3.372   9.952   1.467
 2169W        W 5913   7.717   9.299   9.069
 2170W        W 5914  10.298   8.463   2.599
 2171W        W 5915   5.259   1.462   0.002
 2172W        W 5916   7.072   0.394  10.422
 2173W        W 5917   2.599   2.062   1.584
 2174W        W 5918   4.462   2.758   0.607
 2175W        W 5919   1.360   6.854  11.954
 2176W        W 5920   2.608   1.179   2.770
 2177W        W 5921   4.220   4.806   2.342
 2178W        W 5922   0.011   4.719   1.708
 2179W        W 5923   7.191  10.298   2.885
 2180W        W 5924   4.626   8.947  10.620
 2181W        W 5925   9.290   5.743   1.729
 2182W        W 5926   8.459   2.343   0.342
 2183W        W 5927   3.452   9.128   2.896
 2184W        W 5928   3.106   2.787   2.067
 2185W        W 5929  10.259   2.620   3.088
 2186W        W 5930   5.086   9.783   2.045
 2187W        W 5931  10.272   9.700  10.011
 2188W        W 5932   5.582   9.296   0.262
 2189W        W 5933   1.774   8.699   2.647
 2190W        W 5934   7.006   2.829   0.466
 2191W        W 5935   9.912   8.587   9.548
 2192W        W 5936   5.581   9.970   2.717
 2193W        W 5937   7.056   4.931   9.086
 2194W        W 5938   1.809   6.686  11.727
 2195W        W 5939   8.086   5.036  10.034
 2196W        W 5940   2.606   8.050   9.933
 2197W        W 5941   0.327   6.878   1.368
 2198W        W 5942   5.051   4.933  11.013
 2199W        W 5943   8.583   1.464  11.859
 2200W        W 5944   5.870   9.880  11.458
 2201W        W 5945   8.211   7.792   1.831
 2202W        W 5946   9.658   1.367   2.150
 2203W        W 5947   8.320   0.756   0.212
 2204W        W 5948   7.079  10.165   0.756
 2205W        W 5949   9.197   5.109   3.135
 2206W        W 5950   7.025   9.871  10.523
 2207W        W 5951   2.769   0.705   2.833
 2208W        W 5952   9.964   9.378  11.306
 2209W        W 5953   4.151   0.503   0.691
 2210W        W 5954   5.106   7.083  11.519
 2211W        W 5955   8.027   2.285   9.014
 2212W        W 5956   9.780   1.826   0.493
 2213W        W 5957   4.377   7.093   8.658
 2214W        W 5958   8.507   0.054   2.748
 2215W        W 5959   8.137   7.326   2.187
 2216W        W 5960   4.641   2.575  10.267
 2217W        W 5961   2.837   1.751   1.276
 2218W        W 5962   0.336   1.761  11.551
 2219W        W 5963   1.575   2.783  10.792
 2220W        W 5964   4.131   5.271   2.572
 2221W        W 5965   4.116   4.378  10.367
 2222W        W 5966   4.181   8.387   9.571
 2223W        W 5967   1.981   1.505   8.458
 2224W        W 5968   6.015   2.450  11.512
 2225W        W 5969   9.047   3.829   1.725
 2226W        W 5970  10.337  10.442   0.699
 2227W        W 5971   8.383   5.198   0.268
 2228W        W 5972   8.440   7.440   2.744
 2229W        W 5973   7.641   2.708   2.761
 2230W        W 5974   5.619   8.475   1.917
 2231W        W 5975   3.738   9.361   1.022
 2232W        W 5976   0.703   2.569  10.998
 2233W        W 5977   6.180   9.867   1.007
 2234W        W 5978   6.049  10.343   1.193
 2235W        W 5979   8.335   8.555  10.604
 2236W        W 5980   2.416   1.237  10.942
 2237W        W 5981   8.293  10.286   1.310
 2238W        W 5982  10.110   7.498   0.926
 2239W        W 5983   7.113   5.119   1.630
 2240W        W 5984   8.553   3.739  10.546
 2241W        W 5985   6.924   7.439  11.200
 2242W        W 5986   1.025   5.693  11.657
 2243W        W 5987   7.463   4.305   1.152
 2244W        W 5988   3.088   3.236  10.508
 2245W        W 5989   8.399   8.797  11.840
 2246W        W 5990   2.498   2.787  10.608
 2247W        W 5991   9.899   6.061  11.480
 2248W        W 5992   1.008   7.108   9.109
 2249W        W 5993   5.684   1.792  11.502
 2250W        W 5994   6.490   7.101   3.201
 2251W        W 5995   8.416   7.917   3.574
 2252W        W 5996   1.867   5.601   0.760
 2253W        W 5997   2.716   6.521   3.665
 2254W        W 5998   9.508   0.310   3.318
 2255W        W 5999   3.683   4.767   1.834
 2256W        W 6000   8.436   0.955   1.950
 2257W        W 6001   3.195   6.094   3.226
 2258W        W 6002   1.178   2.257  10.057
 2259W        W 6003   4.320   9.894   1.483
 2260W        W 6004   3.280   5.647   0.908
 2261W        W 6005   5.444   0.857  10.071
 2262W        W 6006   6.336   4.966   9.380
 2263W        W 6007   3.606   5.361  11.109
 2264W        W 6008   0.245   5.108   3.344
 2265W        W 6009   2.350   6.060   1.896
 2266W        W 6010   3.104   8.106   9.928
 2267W        W 6011   7.972   3.293   9.436
 2268W        W 6012   7.393   4.038  11.336
 2269W        W 6013   2.352   6.483   0.848
 2270W        W 6014   4.444   4.609   9.555
 2271W        W 6015   8.442   7.689  10.964
 2272W        W 6016   5.730   1.238   2.318
 2273W        W 6017   9.197   0.289  10.059
 2274W        W 6018   9.968   6.955   0.282
 2275W        W 6019   6.284   6.192  11.392
 2276W        W 6020   5.474   5.866  11.287
 2277W        W 6021   5.043   6.974   9.799
 2278W        W 6022   2.847   7.483  11.976
 2279W        W 6023   8.065   4.516   1.908
 2280W        W 6024   8.953   6.037   9.434
 2281W        W 6025   7.179   1.701   1.482
 2282W        W 6026  10.319   9.900   2.204
 2283W        W 6027   5.551   7.087   9.661
 2284W        W 6028   1.408   7.526   9.794
 2285W        W 6029   6.590   6.208  11.812
 2286W        W 6030   7.163   9.247  11.315
 2287W        W 6031   5.257   7.897  11.850
 2288W        W 6032   2.898   1.061   0.279
 2289W        W 6033   3.395   0.380  11.744
 2290W        W 6034   4.930   4.400   9.522
 2291W        W 6035  10.175   1.449   2.215
 2292W        W 6036   9.381   8.105  11.094
 2293W        W 6037   8.019   0.273   2.485
 2294W        W 6038   1.574   3.351  10.009
 2295W        W 6039   1.522   8.267   0.526
 2296W        W 6040   7.052   3.092   2.207
 2297W        W 6041   0.084   4.007  10.109
 2298W        W 6042   9.199   1.414   2.444
 2299W        W 6043   6.476   2.434   1.916
 2300W        W 6044   0.271   6.456   0.403
 2301W        W 6045   1.271   6.871   3.356
 2302W        W 6046   1.961  10.440   0.756
 2303W        W 6047   2.815   6.418   8.572
 2304W        W 6048   0.449   2.278   8.972
 2305W        W 6049   8.010   4.188   2.670
 2306W        W 6050   7.016   8.886   9.081
 2307W        W 6051   1.164   5.106   1.534
 2308W        W 6052   9.605  10.332  10.882
 2309W        W 6053   8.361  10.458   2.263
 2310W        W 6054   1.586   5.187   0.879
 2311W        W 6055   9.418   0.902   3.030
 2312W        W 6056   0.747   3.361   2.757
 2313W        W 6057   2.797   8.532   1.355
 2314W        W 6058   0.064   2.261   3.256
 2315W        W 6059   1.276   3.198  10.860
 2316W        W 6060   0.300   2.359  10.758
 2317W        W 6061   3.579   4.155   0.888
 2318W        W 6062   5.079   8.405  11.050
 2319W        W 6063   0.451   1.826   9.817
 2320W        W 6064   0.875   0.911  11.281
 2321W        W 6065   1.994   7.050   9.314
 2322W        W 6066   5.216   6.638  10.791
 2323W        W 6067   0.901   6.338   1.385
 2324W        W 6068   2.241  10.211  10.757
 2325W        W 6069   7.372   5.717   3.537
 2326W        W 6070   6.255   2.884  11.705
 2327W        W 6071   3.373   7.069   9.556
 2328W        W 6072   8.100   8.138   0.778
 2329W        W 6073   3.739   6.882  11.916
 2330W        W 6074   1.377   9.309   0.131
 2331W        W 6075   5.451   6.072   1.101
 2332W        W 6076   3.668   7.157  10.575
 2333W        W 6077  10.102   6.573  11.345
 2334W        W 6078   7.470   3.280  10.192
 2335W        W 6079   6.667   3.711   0.636
 2336W        W 6080   7.091   4.541   1.579
 2337W        W 6081   0.529   1.883  10.720
 2338W        W 6082   3.775   8.725   3.507
 2339W        W 6083   9.570   2.792   9.031
 2340W        W 6084   5.581   7.960   0.229
 2341W        W 6085   9.299   9.866   9.975
 2342W        W 6086   7.184   2.717   8.625
 2343W        W 6087   5.255   7.589   3.081
 2344W        W 6088   3.737   3.774  11.540
 2345W        W 6089   5.580   1.721   9.530
 2346W        W 6090   8.694   1.332   2.499
 2347W        W 6091   7.991   3.671   0.792
 2348W        W 6092   9.121   2.666   2.849
 2349W        W 6093  10.062   7.101   3.470
 2350W        W 6094   8.891   5.717  11.820
 2351W        W 6095   4.213   3.789   9.611
 2352W        W 6096   7.483   5.088   8.810
 2353W        W 6097   0.468   4.591   0.091
 2354W        W 6098   3.215   5.420  10.226
 2355W        W 6099   3.280   1.236   0.763
 2356W        W 6100   1.705   9.795   9.836
 2357W        W 6101   6.138   1.233   8.968
 2358W        W 6102   1.657   9.674  10.336
 2359W        W 6103   0.476   2.120  11.201
 2360W        W 6104   1.517  10.370   1.788
 2361W        W 6105   7.172   5.049   1.143
 2362W        W 6106   7.360   3.126   2.786
 2363W        W 6107   6.478   4.517  11.601
 2364W        W 6108   0.730   1.245  10.943
 2365W        W 6109   4.321   2.730   1.460
 2366W        W 6110   5.559   8.939   1.684
 2367W        W 6111   6.493   0.047   9.625
 2368W        W 6112   3.180   3.664   3.519
 2369W        W 6113   2.306   9.447  11.776
 2370W        W 6114  10.297   9.148   8.915
 2371W        W 6115   4.632   3.723   1.418
 2372W        W 6116   2.039   9.519   8.524
 2373W        W 6117   9.084   4.593   0.601
 2374W        W 6118   8.081   6.620   9.749
 2375W        W 6119   2.837   3.943   1.502
 2376W        W 6120  10.131   5.653   9.411
 2377W        W 6121   2.961   8.578  10.156
 2378W        W 6122   3.651   7.970  11.824
 2379W        W 6123   6.823   5.513   1.777
 2380W        W 6124   3.822   8.348   2.148
 2381W        W 6125   0.278   1.322  10.729
 2382W        W 6126   3.278   1.299  10.086
 2383W        W 6127   8.747   8.227   8.423
 2384W        W 6128   5.275   3.014   2.570
 2385W        W 6129  10.346   9.182  10.091
 2386W        W 6130   2.075   2.843   8.835
 2387W        W 6131   2.665   5.026   2.358
 2388W        W 6132   8.960   9.828   1.262
 2389W        W 6133   3.169   6.131   1.003
 2390W        W 6134   8.744   0.451   0.122
 2391W        W 6135   1.222   8.152   2.741
 2392W        W 6136   4.588   1.632   9.901
 2393W        W 6137   6.597   2.238   0.359
 2394W        W 6138   3.022   4.095   9.413
 2395W        W 6139   8.982   9.315  10.781
 2396W        W 6140   8.608   4.604   9.390
 2397W        W 6141   4.500  10.445   0.292
 2398W        W 6142   0.161   9.792  10.484
 2399W        W 6143   7.901   4.745  10.758
 2400W        W 6144   1.428   9.098   2.173
 2401W        W 6145   5.942   7.631  10.398
 2402W        W 6146   5.078   8.152   3.644
 2403W        W 6147   0.821   3.564   2.278
 2404W        W 6148   9.848   6.168  10.445
 2405W        W 6149   5.994   8.683  11.885
 2406W        W 6150   3.348   6.828  10.386
 2407W        W 6151   4.657   2.632  11.758
 2408W        W 6152   4.254   1.749   8.729
 2409W        W 6153   3.762   7.599   3.996
 2410W        W 6154   8.924   7.530   2.587
 2411W        W 6155   7.738   0.308   8.382
 2412W        W 6156  10.059   9.462   1.183
 2413W        W 6157   1.638   4.484   3.639
 2414W        W 6158   8.558   9.378  10.066
 2415W        W 6159   5.313   4.788   2.155
 2416W        W 6160   8.850  10.440  11.366
 2417W        W 6161   2.917   0.354   3.633
 2418W        W 6162   7.608   2.701   9.540
 2419W        W 6163   5.547   8.303  11.756
 2420W        W 6164  10.454   7.911   3.290
 2421W        W 6165   6.521   0.468  11.954
 2422W        W 6166   2.380   6.845   9.615
 2423W        W 6167   2.888   8.080   9.364
 2424W        W 6168   8.415   4.204   1.246
 2425W        W 6169   5.570   5.151  10.359
 2426W        W 6170   9.955   1.874   9.914
 2427W        W 6171   4.745   3.660   2.453
 2428W        W 6172  10.116   8.388   0.290
 2429W        W 6173   5.071   9.241   0.224
 2430W        W 6174   4.672   1.209  10.320
 2431W        W 6175   0.675   2.281   9.960
 2432W        W 6176   2.229   4.778   9.077
 2433W        W 6177   8.887   9.561   1.720
 2434W        W 6178   7.245   6.481   9.895
 2435W        W 6179   0.400   4.320   0.542
 2436W        W 6180   9.216   5.753   1.216
 2437W        W 6181   2.789   9.391   2.999
 2438W        W 6182   2.708   7.826   0.688
 2439W        W 6183   2.557   0.314  11.307
 2440W        W 6184   6.152   4.740  11.267
 2441W        W 6185   2.909   0.279   9.275
 2442W        W 6186   0.932   0.495   8.429
 2443W        W 6187   9.875   3.725   1.253
 2444W        W 6188   4.964   4.020   4.098
 2445W        W 6189   7.166   7.720  10.836
 2446W        W 6190   8.866   6.088   8.896
 2447W        W 6191   1.649   4.207  10.769
 2448W        W 6192   7.075   4.600   9.514
 2449W        W 6193   0.764   1.437   9.996
 2450W        W 6194   8.877   0.286   0.913
 2451W        W 6195  10.413   7.163   8.965
 2452W        W 6196   2.132   1.846  10.773
 2453W        W 6197   3.734   0.984   9.125
 2454W        W 6198   2.314   8.686   9.455
 2455W        W 6199   4.125   1.355   1.850
 2456W        W 6200   7.576   8.067   3.557
 2457W        W 6201   6.912   0.774   9.549
 2458W        W 6202   1.819   1.390   2.007
 2459W        W 6203   7.461   8.429  11.658
 2460W        W 6204   2.712   2.076   2.857
 2461W        W 6205  10.457  10.042  10.940
 2462W        W 6206   3.187   8.049   3.558
 2463W        W 6207   7.912   0.724   2.750
 2464W        W 6208   2.349   7.662   3.032
 2465W        W 6209   2.603   2.290   2.406
 2466W        W 6210  10.405   3.719   0.022
 2467W        W 6211   6.485   6.984   1.838
 2468W        W 6212   6.107  10.462   1.734
 2469W        W 6213   3.878   0.060   8.933
 2470W        W 6214   3.775   0.539   9.367
 2471W        W 6215   7.188   7.842   0.875
 2472W        W 6216   5.065   3.560   9.878
 2473W        W 6217   8.106   9.307  10.347
 2474W        W 6218   1.770   0.891   1.306
 2475W        W 6219   1.873   2.101  10.369
 2476W        W 6220   6.680   2.888   0.860
 2477W        W 6221   4.608   8.559  11.899
 2478W        W 6222  10.019   9.520   8.568
 2479W        W 6223   6.265   8.833  11.455
 2480W        W 6224   0.409   4.178   1.033
 2481W        W 6225   6.071   6.273   3.369
 2482W        W 6226   8.379   8.045   8.765
 2483W        W 6227   4.180   7.685   0.810
 2484W        W 6228   5.229  10.161  11.910
 2485W        W 6229  10.152   8.519   1.185
 2486W        W 6230   5.128   2.521  10.013
 2487W        W 6231   3.198  10.440   1.289
 2488W        W 6232   5.014   6.009  11.894
 2489W        W 6233   7.571   8.833   8.741
 2490W        W 6234   8.951   3.219   9.060
 2491W        W 6235   0.840   7.479  10.290
 2492W        W 6236   0.377   1.600  10.301
 2493W        W 6237   0.898   8.955   1.425
 2494W        W 6238  10.091   8.105   9.469
 2495W        W 6239   7.158   2.893  11.071
 2496W        W 6240   2.910   0.231   1.584
 2497W        W 6241   2.498   7.248   9.301
 2498W        W 6242   3.866   8.086   1.646
 2499W        W 6243   5.462   4.256   3.138
 2500W        W 6244   9.940   2.444  11.678
 2501W        W 6245   3.381   0.299   1.776
 2502W        W 6246   7.577   3.793  10.429
 2503W        W 6247   4.250   3.875  11.284
 2504W        W 6248   0.030   5.939   2.216
 2505W        W 6249   0.659   6.583  10.280
 2506W        W 6250   7.907   2.290   2.808
 2507W        W 6251   9.394   3.153   1.288
 2508W        W 6252   3.743   1.288   0.992
 2509W        W 6253   4.587   7.993   3.607
 2510W        W 6254   1.202   5.321  10.294
 2511W        W 6255   5.717   9.887   1.304
 2512W        W 6256   0.727   7.435   2.233
 2513W        W 6257   7.919  10.029  11.045
 2514W        W 6258   9.432   7.651  10.184
 2515W        W 6259   5.675   4.495   9.156
 2516W        W 6260   8.023   1.785   1.964
 2517W        W 6261   7.829   7.055   0.871
 2518W        W 6262   8.042   0.243   2.980
 2519W        W 6263   9.360   2.817   0.486
 2520W        W 6264   2.136   7.430   1.737
 2521W        W 6265   4.151   8.633   0.858
 2522W        W 6266   8.911   5.967  10.963
 2523W        W 6267   9.589   9.973   3.807
 2524W        W 6268   9.976   4.470   1.701
 2525W        W 6269   2.398   5.333   1.457
 2526W        W 6270  10.056   4.879  11.807
 2527W        W 6271   8.123   2.445   1.431
 2528W        W 6272   9.141   3.706   9.158
 2529W        W 6273   6.274   2.888   1.169
 2530W        W 6274  10.290   1.283   9.976
 2531W        W 6275  10.452   2.428   1.910
 2532W        W 6276   6.476   2.754   2.758
 2533W        W 6277   8.311   7.144   9.136
 2534W        W 6278   9.977  10.406   2.663
 2535W        W 6279   0.819   6.805   1.165
 2536W        W 6280   3.257   0.218  10.050
 2537W        W 6281   2.090   2.776   3.402
 2538W        W 6282   4.065   5.278   0.476
 2539W        W 6283   6.218   6.929   9.082
 2540W        W 6284   2.868   4.165   9.891
 2541W        W 6285   3.196   9.687   9.909
 2542W        W 6286   5.954   6.628  11.305
 2543W        W 6287   8.154   4.039  11.825
 2544W        W 6288   7.230   5.579   1.192
 2545W        W 6289   0.919   9.142   9.435
 2546W        W 6290   5.216   0.269   1.934
 2547W        W 6291   6.228   1.232  10.038
 2548W        W 6292   7.859   5.447   1.764
 2549W        W 6293   7.414   8.082   3.072
 2550W        W 6294   5.454   7.828   3.730
 2551W        W 6295   7.040   6.072   0.045
 2552W        W 6296   1.893   4.258   9.860
 2553W        W 6297   5.003   2.930   8.551
 2554W        W 6298   3.037   3.465   3.039
 2555W        W 6299   9.276   9.263   3.284
 2556W        W 6300   6.247   4.990   2.163
 2557W        W 6301   4.504   7.707  11.457
 2558W        W 6302   9.009   4.504  11.039
 2559W        W 6303   8.565   9.288  11.126
 2560W        W 6304   5.972   3.503   9.867
 2561W        W 6305  10.451   0.312   3.189
 2562W        W 6306   3.581   2.245   8.740
 2563W        W 6307   8.140   9.327  11.506
 2564W        W 6308   4.727   8.371   0.405
 2565W        W 6309   8.963   1.481   1.546
 2566W        W 6310   6.934   0.809  10.936
 2567W        W 6311   4.591   6.650   9.091
 2568W        W 6312   9.112   3.449   2.071
 2569W        W 6313   8.471   7.404   0.337
 2570W        W 6314   4.694   9.054  10.111
 2571W        W 6315   1.696   6.496   3.495
 2572W        W 6316   5.207   1.315   2.490
 2573W        W 6317   3.621   8.392  10.881
 2574W        W 6318   5.614   1.703   0.547
 2575W        W 6319   3.824   7.482   9.772
 2576W        W 6320   5.655   5.153   1.312
 2577W        W 6321   9.395   7.912   2.072
 2578W        W 6322   7.216   1.387   9.762
 2579W        W 6323   8.519   6.698  10.008
 2580W        W 6324   9.711   9.949   2.897
 2581W        W 6325   4.064   1.528  11.560
 2582W        W 6326   0.764   6.093   9.872
 2583W        W 6327   1.375   8.498  11.091
 2584W        W 6328   3.308   1.465  10.592
 2585W        W 6329  10.478   0.013   9.708
 2586W        W 6330   2.619   4.918   3.616
 2587W        W 6331   5.766   0.769  10.490
 2588W        W 6332   0.780   4.341   1.766
 2589W        W 6333   5.999   7.319   9.567
 2590W        W 6334   0.861   4.653   8.681
 2591W        W 6335   4.592   8.468  11.367
 2592W        W 6336   2.220   3.205  10.689
 2593W        W 6337   6.661   8.376   1.851
 2594W        W 6338   0.380   5.718   9.980
 2595W        W 6339   9.638   5.366   0.443
 2596W        W 6340   9.802   3.065   0.070
 2597W        W 6341   4.312   9.522  11.840
 2598W        W 6342   1.712   3.659  10.396
 2599W        W 6343   0.454   0.485   0.355
 2600W        W 6344   1.763   5.680   8.721
 2601W        W 6345  10.209   2.804  11.956
 2602W        W 6346   5.800   2.495   9.961
 2603W        W 6347   6.583   2.946   1.922
 2604W        W 6348   6.483   3.922  10.337
 2605W        W 6349   7.450   2.276   8.788
 2606W        W 6350   6.507  10.384  10.120
 2607W        W 6351   2.252   9.633   9.278
 2608W        W 6352   4.691   6.412   1.316
 2609W        W 6353   3.615  10.405  10.297
 2610W        W 6354   2.943   5.662   3.119
 2611W        W 6355   6.275  10.288   3.237
 2612W        W 6356   9.387   3.087   2.786
 2613W        W 6357   8.050   1.784   8.814
 2614W        W 6358   8.963   9.530   9.797
 2615W        W 6359   9.456   2.200   1.732
 2616W        W 6360   8.413   0.208   8.834
 2617W        W 6361   5.380   9.567   9.815
 2618W        W 6362   7.000   2.193   3.257
 2619W        W 6363   7.892   3.880  11.365
 2620W        W 6364   1.134   1.411  11.205
 2621W        W 6365   7.084   5.029  11.807
 2622W        W 6366   8.305   7.106   1.233
 2623W        W 6367   4.226   6.551   1.096
 2624W        W 6368   2.735   9.888  10.029
 2625W        W 6369   5.458   7.612   1.586
 2626W        W 6370   7.102   5.726  10.231
 2627W        W 6371   8.423   0.723   8.756
 2628W        W 6372   7.253   9.284   9.274
 2629W        W 6373   6.059   1.986  11.215
 2630W        W 6374   7.323   5.199  10.250
 2631W        W 6375   2.039   9.924   0.651
 2632W        W 6376   9.954   9.313  11.862
 2633W        W 6377   4.606   0.674  10.648
 2634W        W 6378   9.851   9.479  10.796
 2635W        W 6379   9.502   1.808   2.411
 2636W        W 6380   9.559   0.447   9.146
 2637W        W 6381   5.206   1.940  10.268
 2638W        W 6382   2.782   9.296   2.490
 2639W        W 6383   1.152   0.990   0.745
 2640W        W 6384   5.950   3.018   9.010
 2641W        W 6385   6.517  10.173  11.588
 2642W        W 6386   6.972   8.522  10.698
 2643W        W 6387   0.355   2.673  10.047
 2644W        W 6388   2.442   9.541   0.609
 2645W        W 6389   0.521   7.403  10.972
 2646W        W 6390   3.790   0.417   2.519
 2647W        W 6391   5.230   5.048  11.858
 2648W        W 6392   3.716   6.693   9.695
 2649W        W 6393   9.769   6.624   9.489
 2650W        W 6394   0.035   3.396   0.814
 2651W        W 6395   9.463   9.851  10.736
 2652W        W 6396   2.228  10.439  10.278
 2653W        W 6397   0.202   3.346  11.029
 2654W        W 6398   6.119   1.113   2.743
 2655W        W 6399   2.830   6.068   1.429
 2656W        W 6400   5.666   0.067   0.894
 2657W        W 6401   8.925   4.738   2.900
 2658W        W 6402   8.502   4.142   2.840
 2659W        W 6403   3.636   7.085  10.040
 2660W        W 6404   5.239   6.495   9.869
 2661W        W 6405   6.161   7.716   0.071
 2662W        W 6406   7.561   3.929   2.550
 2663W        W 6407   6.080   1.481   0.514
 2664W        W 6408   4.614   8.370   2.134
 2665W        W 6409   7.058   4.829   2.034
 2666W        W 6410   7.977   7.636   3.632
 2667W        W 6411   8.508   3.392   0.500
 2668W        W 6412   5.538   6.487  10.443
 2669W        W 6413   6.348   8.176   8.686
 2670W        W 6414   9.285   4.280   1.856
 2671W        W 6415   4.488   3.225   1.402
 2672W        W 6416   4.218   8.052  10.778
 2673W        W 6417   9.460   6.723   3.043
 2674W        W 6418   1.469   1.944   0.739
 2675W        W 6419   9.734   9.021   1.814
 2676W        W 6420   6.796   8.271   8.404
 2677W        W 6421  10.302   2.747  11.448
 2678W        W 6422   1.834   0.380   0.503
 2679W        W 6423   8.868   5.500   1.899
 2680W        W 6424   0.257   1.312  11.766
 2681W        W 6425   1.629   4.234   2.725
 2682W        W 6426   8.482   4.577   1.640
 2683W        W 6427   6.675   4.462  10.560
 2684W        W 6428   6.679   3.141  11.542
 2685W        W 6429   7.660   0.484   1.224
 2686W        W 6430   9.875   9.123  10.420
 2687W        W 6431  10.348   2.592  10.969
 2688W        W 6432   4.493   5.593   0.382
 2689W        W 6433   1.416   6.022   1.652
 2690W        W 6434   2.219   1.307   0.692
 2691W        W 6435   3.715   1.888   9.557
 2692W        W 6436   9.665   1.878   2.913
 2693W        W 6437   8.390   5.700  11.574
 2694W        W 6438   9.840   1.685   8.804
 2695W        W 6439   0.276   5.114   8.805
 2696W        W 6440   0.304   4.908  10.558
 2697W        W 6441   5.867   7.557   3.867
 2698W        W 6442   8.491   7.575   1.355
 2699W        W 6443   9.261   8.103   9.747
 2700W        W 6444   1.100   7.654   2.641
 2701W        W 6445   4.200   8.910   1.703
 2702W        W 6446   8.831   0.541   1.931
 2703W        W 6447   0.822   9.491  10.011
 2704W        W 6448   4.998   4.019   3.220
 2705W        W 6449   7.447   5.539  11.485
 2706W        W 6450   1.155   4.318  10.356
 2707W        W 6451   2.312   2.704  11.932
 2708W        W 6452   4.524   6.556   0.293
 2709W        W 6453   0.381   9.790   1.229
 2710W        W 6454   2.254   7.217   3.277
 2711W        W 6455   9.741   6.474  11.715
 2712W        W 6456   7.903   8.443   9.274
 2713W        W 6457   7.514   4.757   2.267
 2714W        W 6458   4.365   4.199   9.920
 2715W        W 6459   5.804   9.296   9.628
 2716W        W 6460   8.620   9.373  11.625
 2717W        W 6461   3.104   1.508   0.347
 2718W        W 6462   9.447   6.221  11.245
 2719W        W 6463   9.192   0.708   9.407
 2720W        W 6464   8.370   3.310  10.272
 2721W        W 6465   1.840   0.671  10.337
 2722W        W 6466   3.504   6.920   0.718
 2723W        W 6467   1.390   5.607  11.986
 2724W        W 6468   8.835   7.144   0.630
 2725W        W 6469   0.363   0.237  10.408
 2726W        W 6470   8.613   4.787  11.857
 2727W        W 6471   2.683   9.801   1.755
 2728W        W 6472   7.887   5.272   8.473
 2729W        W 6473  10.334   5.253  11.600
 2730W        W 6474   7.332   6.955   9.161
 2731W        W 6475   2.085  10.282   2.123
 2732W        W 6476   8.569   7.821  10.135
 2733W        W 6477   1.922   6.200   1.589
 2734W        W 6478   6.354   0.676   2.692
 2735W        W 6479   3.208   9.532   2.666
 2736W        W 6480   5.831   4.530   0.871
 2737W        W 6481   0.407  10.372   0.248
 2738W        W 6482   6.176   1.652   1.876
 2739W        W 6483   1.836   8.554   9.296
 2740W        W 6484   6.586  10.312  11.112
 2741W        W 6485   9.254   2.365   0.860
 2742W        W 6486   3.223   0.968  10.478
 2743W        W 6487   1.511   0.982   2.069
 2744W        W 6488   8.727   8.172   9.792
 2745W        W 6489   6.111   4.291  10.985
 2746W        W 6490   3.792   7.672  11.442
 2747W        W 6491   0.486   1.865   0.039
 2748W        W 6492   8.012   3.174   8.898
 2749W        W 6493   7.022   9.176   1.029
 2750W        W 6494   7.499   0.506   2.967
 2751W        W 6495  10.465   4.666   9.983
 2752W        W 6496   9.413   9.376   9.955
 2753W        W 6497   7.468   0.153  11.333
 2754W        W 6498   7.836   6.977   1.396
 2755W        W 6499  10.324   1.226  10.953
 2756W        W 6500   5.156   1.334  10.511
 2757W        W 6501   3.048  10.251   9.165
 2758W        W 6502   0.975   7.021   8.582
 2759W        W 6503   7.097   8.842   0.638
 2760W        W 6504   2.288   8.850   1.535
 2761W        W 6505  10.326   6.055   3.499
 2762W        W 6506   0.364   0.917   0.086
 2763W        W 6507  10.350   4.121  10.565
 2764W        W 6508   8.587   2.629   1.188
 2765W        W 6509   8.403   0.226   9.725
 2766W        W 6510   0.651   7.339   9.356
 2767W        W 6511   8.366   5.539   1.745
 2768W        W 6512   8.755   4.166   9.082
 2769W        W 6513   0.823   3.706   9.344
 2770W        W 6514   6.182   4.424   2.119
 2771W        W 6515   8.382   6.539  11.467
 2772W        W 6516   2.583   4.769  11.280
 2773W        W 6517   9.938   6.934   1.878
 2774W        W 6518   8.290   9.628   0.403
 2775W        W 6519   3.426   3.224  10.105
 2776W        W 6520   0.075   5.996   1.300
 2777W        W 6521   2.014   8.262   0.383
 2778W        W 6522  10.423   6.441   1.524
 2779W        W 6523   6.832   5.310  10.156
 2780W        W 6524   2.657   5.984   0.952
 2781W        W 6525   7.485   5.895  10.793
 2782W        W 6526   6.154   9.994   1.546
 2783W        W 6527   9.142   1.807   2.797
 2784W        W 6528   8.595   5.071   1.740
 2785W        W 6529   0.208   8.508   2.913
 2786W        W 6530   8.339   9.728  11.287
 2787W        W 6531   5.719   7.095   9.167
 2788W        W 6532   7.234   1.860   9.995
 2789W        W 6533   6.141   8.649  10.523
 2790W        W 6534   1.817   6.012   3.537
 2791W        W 6535   5.952   4.104   3.111
 2792W        W 6536   7.021   0.704   0.721
 2793W        W 6537   2.507   8.271   0.543
 2794W        W 6538   9.765   5.923   1.835
 2795W        W 6539   8.395   9.080   3.489
 2796W        W 6540   8.538   2.861  10.490
 2797W        W 6541   3.290   3.265   8.588
 2798W        W 6542   3.103   2.258  11.114
 2799W        W 6543   9.059   1.245   8.738
 2800W        W 6544   8.895   7.019   1.898
 2801W        W 6545   0.216   3.089  10.387
 2802W        W 6546  10.404   8.216   2.135
 2803W        W 6547   2.210   6.406  11.593
 2804W        W 6548  10.442   6.050   9.427
 2805W        W 6549   3.112   2.358   0.125
 2806W        W 6550   3.872   3.337   0.501
 2807W        W 6551   5.569   3.314  11.616
 2808W        W 6552   8.559   8.596   2.821
 2809W        W 6553   8.768  10.333   8.941
 2810W        W 6554   1.920   8.053   1.761
 2811W        W 6555   5.291   9.565   3.402
 2812W        W 6556   3.873   2.332   9.798
 2813W        W 6557   4.538   7.937   0.573
 2814W        W 6558   8.157   1.722  10.348
 2815W        W 6559   9.833   0.526  10.339
 2816W        W 6560   9.874   0.962  10.062
 2817W        W 6561   6.045   2.764   8.426
 2818W        W 6562   7.968   8.885   1.212
 2819W        W 6563   1.203   4.304   3.484
 2820W        W 6564   6.049   0.016   0.229
 2821W        W 6565   9.965   7.456  10.106
 2822W        W 6566   1.137   8.990   0.988
 2823W        W 6567   8.341   0.037   0.832
 2824W        W 6568   3.137   5.241   1.467
 2825W        W 6569   1.901   3.724   1.828
 2826W        W 6570   8.453   6.078   1.694
 2827W        W 6571   0.020   0.204   0.283
 2828W        W 6572   0.164   1.162   8.505
 2829W        W 6573   7.629   1.091  10.360
 2830W        W 6574   7.820   6.196   1.016
 2831W        W 6575   4.080   9.016   1.221
 2832W        W 6576  10.087   2.659   0.847
 2833W        W 6577   9.491   8.905   0.501
 2834W        W 6578   1.042   5.207   9.401
 2835W        W 6579   5.972   8.797   9.836
 2836W        W 6580   9.399   2.324   0.371
 2837W        W 6581   8.017   6.153   8.794
 2838W        W 6582   7.196   5.482  10.653
 2839W        W 6583   8.350   5.426   3.588
 2840W        W 6584   0.314   9.953  11.914
 2841W        W 6585   9.346   5.361   9.683
 2842W        W 6586   3.291   1.282   9.082
 2843W        W 6587   1.017   4.800   1.971
 2844W        W 6588   8.541   6.197   3.175
 2845W        W 6589   9.410   6.299   9.301
 2846W        W 6590   6.949  10.446   0.301
 2847W        W 6591   0.012   0.731   2.370
 2848W        W 6592   6.685   7.832  11.918
 2849W        W 6593   5.299   1.429  11.506
 2850W        W 6594   6.235   8.870   2.941
 2851W        W 6595   1.400   0.966  10.021
 2852W        W 6596   7.922   2.159   2.321
 2853W        W 6597   1.015   5.852   0.316
 2854W        W 6598   8.674   0.027   0.457
 2855W        W 6599   4.653   8.927   9.615
 2856W        W 6600   5.550   3.222   0.161
 2857W        W 6601   1.848   6.770  11.209
 2858W        W 6602   4.148   6.377   0.603
 2859W        W 6603   3.456  10.046  11.999
 2860W        W 6604   2.612   4.114  10.403
 2861W        W 6605   5.255   8.702   3.774
 2862W        W 6606   0.513   8.928   2.096
 2863W        W 6607   1.319   2.030  11.847
 2864W        W 6608   0.395   7.170   2.868
 2865W        W 6609   3.211   1.847   9.861
 2866W        W 6610   7.245   0.400   9.937
 2867W        W 6611   4.738   3.131  10.253
 2868W        W 6612   4.546   9.425   9.575
 2869W        W 6613   8.490   4.466   3.632
 2870W        W 6614   8.588   3.864   0.046
 2871W        W 6615   9.316   1.739   3.300
 2872W        W 6616   3.050   2.657   1.067
 2873W        W 6617   1.306  10.357   9.259
 2874W        W 6618   6.638   5.664   0.928
 2875W        W 6619   4.420   5.831  11.404
 2876W        W 6620   7.956   8.158  10.826
 2877W        W 6621   1.403   4.746  11.836
 2878W        W 6622   1.864   9.914   1.119
 2879W        W 6623   3.006   9.163  11.869
 2880W        W 6624   8.812   9.510   0.284
 2881W        W 6625   4.178   7.417  10.131
 2882W        W 6626   8.506   1.314  10.448
 2883W        W 6627   3.030   0.062   2.091
 2884W        W 6628   0.432   7.103   1.927
 2885W        W 6629   9.295   9.304   1.900
 2886W        W 6630   7.420   0.097   1.465
 2887W        W 6631   1.119   8.277   1.926
 2888W        W 6632   5.056   8.732   9.295
 2889W        W 6633   4.590   9.097  11.984
 2890W        W 6634   1.495   9.323   1.149
 2891W        W 6635   2.766   9.478   9.245
 2892W        W 6636   5.928   7.996   8.941
 2893W        W 6637   7.849   9.761  10.417
 2894W        W 6638   6.187   4.221   0.711
 2895W        W 6639   3.338   0.461  10.486
 2896W        W 6640   8.284   2.337   1.968
 2897W        W 6641   4.623   2.666   1.907
 2898W        W 6642  10.159   5.218   0.503
 2899W        W 6643   6.750   1.657  10.553
 2900W        W 6644   2.114   2.143   1.418
 2901W        W 6645   8.353   6.940  11.801
 2902W        W 6646   6.900   6.597  10.301
 2903W        W 6647   8.062   5.220  10.947
 2904W        W 6648   8.770   5.720   1.469
 2905W        W 6649   4.014   4.662  11.647
 2906W        W 6650   6.018   5.302   9.624
 2907W        W 6651   9.869   4.185  11.400
 2908W        W 6652   4.313   3.100   9.969
 2909W        W 6653   1.595   4.561  11.150
 2910W        W 6654   2.423   4.315   3.322
 2911W        W 6655   7.123   6.914  11.217
 2912W        W 6656   5.680   4.206   2.667
 2913W        W 6657   2.823   9.321   0.875
 2914W        W 6658   3.042   4.725   1.166
 2915W        W 6659  10.332   3.485   1.279
 2916W        W 6660   4.886   8.654   2.514
 2917W        W 6661   5.205   0.491   0.259
 2918W        W 6662   8.178   3.742   8.014
 2919W        W 6663   7.898   6.899   3.513
 2920W        W 6664   2.718   9.446   9.750
 2921W        W 6665  10.178   5.966  10.758
 2922W        W 6666   9.801   5.593   2.636
 2923W        W 6667   5.125   7.524   9.572
 2924W        W 6668   3.575   3.998   9.393
 2925W        W 6669   1.116   0.111  11.708
 2926W        W 6670   1.681  10.239   0.374
 2927W        W 6671  10.470   7.374  10.072
 2928W        W 6672   7.687   6.489   9.061
 2929W        W 6673   8.309   5.814   1.274
 2930W        W 6674   4.592   6.285  11.864
 2931W        W 6675   3.396   4.529  11.088
 2932W        W 6676  10.009   1.360   9.159
 2933W        W 6677   0.189   5.262  10.211
 2934W        W 6678   0.980   1.620  10.703
 2935W        W 6679   1.682   7.418   1.964
 2936W        W 6680   0.208   0.395  10.877
 2937W        W 6681   7.019   4.869   0.706
 2938W        W 6682   6.830   8.875   1.857
 2939W        W 6683   4.565   8.542   9.261
 2940W        W 6684   7.525   4.768   1.389
 2941W        W 6685   4.189   8.298   0.485
 2942W        W 6686   5.126   3.206  11.870
 2943W        W 6687   4.694   5.963   1.746
 2944W        W 6688   8.641   8.093   9.268
 2945W        W 6689   0.175   4.454  10.396
 2946W        W 6690   6.380   2.036  10.523
 2947W        W 6691   0.231   7.988   0.747
 2948W        W 6692   9.818   0.379  11.307
 2949W        W 6693   8.475   7.446  10.501
 2950W        W 6694   1.186   5.196  11.751
 2951W        W 6695   6.553   3.759   2.333
 2952W        W 6696   5.192   7.411   2.619
 2953W        W 6697   3.862   1.272  11.957
 2954W        W 6698   2.528   6.661   0.399
 2955W        W 6699   5.543   8.069   2.220
 2956W        W 6700   5.099   8.361   0.023
 2957W        W 6701   0.447   1.352   3.198
 2958W        W 6702   6.269   2.126  10.028
 2959W        W 6703   8.110   5.519   2.222
 2960W        W 6704   4.266   4.812   0.362
 2961W        W 6705   1.308   2.804   1.971
 2962W        W 6706   0.233   4.221   3.320
 2963W        W 6707   5.278   3.508  11.208
 2964W        W 6708   1.968   8.258  10.617
 2965W        W 6709   5.712   2.103  10.280
 2966W        W 6710   9.043   1.211   9.264
 2967W        W 6711   9.279   7.894  10.640
 2968W        W 6712   7.771   6.020   3.626
 2969W        W 6713   4.224   2.088  10.227
 2970W        W 6714   0.580   8.531   1.305
 2971W        W 6715   8.541   5.097   0.779
 2972W        W 6716   8.841   1.994   8.275
 2973W        W 6717   4.068   3.230  10.789
 2974W        W 6718   4.170   6.098  10.150
 2975W        W 6719   2.242   7.888   8.799
 2976W        W 6720   0.386   4.656   3.539
 2977W        W 6721   1.639   9.479   2.458
 2978W        W 6722   3.766   1.407   9.863
 2979W        W 6723   9.750   8.408   3.350
 2980W        W 6724   0.925   3.213   9.476
 2981W        W 6725   7.031   4.066   1.318
 2982W        W 6726   0.717   2.801   9.196
 2983W        W 6727   5.181   4.034   2.745
 2984W        W 6728   2.997   6.901   0.656
 2985W        W 6729   4.014   6.866   0.735
 2986W        W 6730   9.093   4.643   9.330
 2987W        W 6731   3.783   5.745   9.465
 2988W        W 6732   5.532   4.294   8.704
 2989W        W 6733   7.899   2.621   3.218
 2990W        W 6734   1.710   1.666  10.549
 2991W        W 6735   3.674   7.150  11.461
 2992W        W 6736   8.609   2.353   3.463
 2993W        W 6737   6.980   0.467  11.363
 2994W        W 6738   2.405   8.386  10.384
 2995W        W 6739   1.661   3.557   0.302
 2996W        W 6740   3.179   6.454   8.954
 2997W        W 6741  10.362   4.187  11.223
 2998W        W 6742   5.224   2.354   3.705
 2999W        W 6743   4.271   3.359   3.174
 3000W        W 6744   3.603   5.917  11.829
 3001W        W 6745   9.496   4.113   0.831
 3002W        W 6746   6.203   5.720   0.546
 3003W        W 6747   0.939   3.320  11.808
 3004W        W 6748   2.714   4.948   1.498
 3005W        W 6749   0.897   7.089  11.108
 3006W        W 6750   3.247   5.927  10.121
 3007W        W 6751   8.537   1.840   1.920
 3008W        W 6752   6.625   9.808   1.500
 3009W        W 6753   7.092  10.409   9.886
 3010W        W 6754   5.011   9.351  11.733
 3011W        W 6755   4.245   7.048   1.963
 3012W        W 6756   7.829   9.641   0.788
 3013W        W 6757   7.114   8.555   8.685
 3014W        W 6758  10.038   5.717   0.403
 3015W        W 6759  10.056   3.514   8.420
 3016W        W 6760   1.385   3.374   3.113
 3017W        W 6761   4.246   6.169   1.474
 3018W        W 6762   4.733   7.483   0.479
 3019W        W 6763   0.968   5.591   8.943
 3020W        W 6764   5.693   0.397  10.977
 3021W        W 6765   5.534   0.989  11.807
 3022W        W 6766   8.020   8.887   9.027
 3023W        W 6767   6.026  10.312   8.940
 3024W        W 6768   1.445   0.228   0.201
 3025W        W 6769   9.758   1.397   1.250
 3026W        W 6770   8.557   5.242   2.240
 3027W        W 6771   2.706   6.036   3.436
 3028W        W 6772   4.693   3.164   9.193
 3029W        W 6773   9.906   5.248   1.261
 3030W        W 6774   5.202   0.284   0.741
 3031W        W 6775   2.841   1.784   9.022
 3032W        W 6776   5.186   5.569  10.972
 3033W        W 6777   2.654   3.091   2.639
 3034W        W 6778   9.659   2.206   3.416
 3035W        W 6779   8.943   6.506   9.222
 3036W        W 6780   1.019   9.559   0.380
 3037W        W 6781   6.470   9.971   0.112
 3038W        W 6782   4.496   4.490  11.683
 3039W        W 6783   1.773   5.892   1.216
 3040W        W 6784   6.002   8.865   9.334
 3041W        W 6785   7.572   9.604   9.502
 3042W        W 6786   3.740   6.985   1.184
 3043W        W 6787   7.028   4.051   0.791
 3044W        W 6788   8.032   5.034   2.077
 3045W        W 6789   8.445   0.286  10.459
 3046W        W 6790   6.538   4.048  10.839
 3047W        W 6791   4.548   0.828   8.563
 3048W        W 6792   8.927   1.787  11.666
 3049W        W 6793  10.201   7.482   3.092
 3050W        W 6794   3.209   4.947   3.149
 3051W        W 6795   5.950   3.612   3.296
 3052W        W 6796   1.495   7.576  10.811
 3053W        W 6797   0.442   2.252  11.695
 3054W        W 6798   4.705   9.598   1.346
 3055W        W 6799   8.056   3.408  11.314
 3056W        W 6800   5.175   7.492   9.039
 3057W        W 6801   2.193  10.316   1.202
 3058W        W 6802   1.943   5.153   1.746
 3059W        W 6803   9.079   5.017  10.946
 3060W        W 6804   4.612   2.524   1.045
 3061W        W 6805   1.920   3.178  11.512
 3062W        W 6806   3.789   6.252  11.487
 3063W        W 6807  10.356   1.748   9.617
 3064W        W 6808   1.274   3.889  10.607
 3065W        W 6809   9.455   5.526  10.148
 3066W        W 6810  10.017   5.666   3.160
 3067W        W 6811   6.632   6.153   2.290
 3068W        W 6812   3.809   7.119   8.867
 3069W        W 6813   3.117   6.378  11.322
 3070W        W 6814   1.842   5.035   8.861
 3071W        W 6815   2.590   3.711  10.094
 3072W        W 6816   7.882   9.807   8.826
 3073W        W 6817   4.289   8.435  10.431
 3074W        W 6818   0.706   7.876  10.943
 3075W        W 6819  10.475   6.949   9.801
 3076W        W 6820   4.198   9.407   1.593
 3077W        W 6821   2.038   0.280  11.393
 3078W        W 6822   8.157   2.904   1.190
 3079W        W 6823   2.038   8.528   1.822
 3080W        W 6824   1.182   1.321  10.319
 3081W        W 6825   7.460   6.639   2.468
 3082W        W 6826   7.543   0.872   8.489
 3083W        W 6827   6.740   1.789   1.267
 3084W        W 6828   0.206   6.992   9.346
 3085W        W 6829   2.806   1.260   9.314
 3086W        W 6830   7.491   4.090   0.256
 3087W        W 6831   2.574   2.780   8.933
 3088W        W 6832   4.398   0.693   3.221
 3089W        W 6833   7.479   5.528   0.371
 3090W        W 6834   3.328   7.497   9.869
 3091W        W 6835   4.800   0.355   8.625
 3092W        W 6836   0.499   9.473   9.183
 3093W        W 6837   3.541   8.659  11.305
 3094W        W 6838   6.501   0.024   0.976
 3095W        W 6839  10.255   5.167   9.262
 3096W        W 6840   2.572   1.441   0.353
 3097W        W 6841   7.232   7.470   9.912
 3098W        W 6842   3.860   6.595   2.702
 3099W        W 6843   3.342   1.777   1.256
 3100W        W 6844   7.509   0.153   0.317
 3101W        W 6845   6.465   5.515   9.470
 3102W        W 6846   9.155   5.866   2.242
 3103W        W 6847   4.482   9.881   3.206
 3104W        W 6848   5.937   7.587  11.301
 3105W        W 6849   6.699   3.430  10.281
 3106W        W 6850   9.618   1.259   3.335
 3107W        W 6851   6.745   2.778  11.943
 3108W        W 6852   3.140   6.100  10.898
 3109W        W 6853   7.406   0.013   9.426
 3110W        W 6854   1.928   4.465   2.397
 3111W        W 6855   5.721   5.605   9.955
 3112W        W 6856   6.490   6.363   2.730
 3113W        W 6857   3.455   0.051   9.274
 3114W        W 6858   8.498   9.070   3.012
 3115W        W 6859   0.860   0.520   3.706
 3116W        W 6860   9.454   4.669   8.980
 3117W        W 6861   3.903   3.004   3.105
 3118W        W 6862   2.222   9.061   0.760
 3119W        W 6863   2.214   1.962   9.120
 3120W        W 6864   2.884   9.504  10.643
 3121W        W 6865   1.372   9.938   8.967
 3122W        W 6866   9.045   7.499   2.087
 3123W        W 6867   7.445   1.479   3.215
 3124W        W 6868   9.030   2.230   9.063
 3125W        W 6869   0.778   6.350   9.389
 3126W        W 6870   0.038  10.457  10.695
 3127W        W 6871   9.742   7.232   2.233
 3128W        W 6872   2.562   7.644   1.941
 3129W        W 6873   5.940   2.531   8.870
 3130W        W 6874   2.722   9.521   0.167
 3131W        W 6875   4.219   8.192   2.396
 3132W        W 6876   9.793   3.368   2.948
 3133W        W 6877   3.792   9.465  10.802
 3134W        W 6878   0.245   4.446  11.495
 3135W        W 6879   6.574   4.633   9.688
 3136W        W 6880   7.474  10.441   1.928
 3137W        W 6881   0.157   0.443  11.847
 3138W        W 6882   6.478   3.102  11.057
 3139W        W 6883   0.056   9.470   0.859
 3140W        W 6884   8.325   8.410   9.559
 3141W        W 6885   3.768   6.483  10.160
 3142W        W 6886   7.333   5.611   1.693
 3143W        W 6887   1.475   8.893   8.468
 3144W        W 6888   8.437   1.656  11.417
 3145W        W 6889   1.758   3.659  11.431
 3146W        W 6890   6.249   1.511   0.014
 3147W        W 6891   2.723   6.973   2.487
 3148W        W 6892   0.033   1.843  10.615
 3149W        W 6893   7.183   6.160   8.553
 3150W        W 6894   8.818   7.023  10.272
 3151W        W 6895   0.790   6.816   1.660
 3152W        W 6896   7.582  10.226   0.615
 3153W        W 6897   5.333   3.819   8.645
 3154W        W 6898   9.473   0.068  10.448
 3155W        W 6899   2.283   8.133   2.548
 3156W        W 6900   1.649   8.635   2.134
 3157W        W 6901   8.204   2.605  11.978
 3158W        W 6902   4.677   5.211  10.327
 3159W        W 6903   0.047   0.850  10.684
 3160W        W 6904   9.904   4.473   0.801
 3161W        W 6905   0.961   6.612   0.726
 3162W        W 6906   7.397   9.500  10.568
 3163W        W 6907   5.152  10.269   2.027
 3164W        W 6908  10.416   6.418   2.039
 3165W        W 6909   3.033   1.873  11.951
 3166W        W 6910   4.848   3.384   8.771
 3167W        W 6911   7.686   0.935   1.495
 3168W        W 6912   5.746   2.681  10.914
 3169W        W 6913   3.102   6.242   2.757
 3170W        W 6914   6.329   9.072   0.356
 3171W        W 6915   6.178   4.306  10.493
 3172W        W 6916   2.339   8.128   2.046
 3173W        W 6917   7.637   9.926  11.859
 3174W        W 6918   5.164   5.630   1.157
 3175W        W 6919   4.157   1.577  10.178
 3176W        W 6920   3.607   5.212   2.749
 3177W        W 6921   6.111   0.164   9.302
 3178W        W 6922   4.126   1.359   9.058
 3179W        W 6923   4.974   2.716   0.701
 3180W        W 6924   1.026   8.433   9.942
 3181W        W 6925  10.360   8.238   9.047
 3182W        W 6926   2.270   5.636   9.502
 3183W        W 6927   0.926   0.985   9.235
 3184W        W 6928   2.490   4.263   0.473
 3185W        W 6929   5.585   8.048  10.376
 3186W        W 6930   6.876   3.031   2.686
 3187W        W 6931   3.308   4.522  10.599
 3188W        W 6932   6.919   5.397  11.487
 3189W        W 6933   0.474   3.779  11.005
 3190W        W 6934   9.885   1.395   9.671
 3191W        W 6935   6.274   5.627   9.985
 3192W        W 6936   5.973   5.079   1.714
 3193W        W 6937   8.919   8.079  11.688
 3194W        W 6938   8.528   8.556   1.765
 3195W        W 6939   6.641   1.284   8.865
 3196W        W 6940   2.143   9.665   0.223
 3197W        W 6941   5.222   7.559   0.988
 3198W        W 6942   4.163   6.191   8.830
 3199W        W 6943   8.044   0.497   9.082
 3200W        W 6944   2.771   4.443   1.483
 3201W        W 6945   2.639   4.519   8.240
 3202W        W 6946   2.227   1.489  11.710
 3203W        W 6947   6.020   6.112  10.527
 3204W        W 6948   3.144   4.129  10.311
 3205W        W 6949   3.197   0.393   0.242
 3206W        W 6950   9.923  10.252   0.472
 3207W        W 6951   8.867   8.832   1.281
 3208W        W 6952   7.200   3.537   3.701
 3209W        W 6953   9.301   6.884  10.379
 3210W        W 6954   0.630   8.425  11.643
 3211W        W 6955   4.591   7.147   9.991
 3212W        W 6956   8.135   9.551  10.836
 3213W        W 6957   9.435   7.572   0.364
 3214W        W 6958   3.173   8.347   9.002
 3215W        W 6959   1.915   8.535  11.959
 3216W        W 6960   6.060   9.516   0.336
 3217W        W 6961   4.047   4.893  10.462
 3218W        W 6962   4.635   9.107   1.878
 3219W        W 6963   8.436   5.063   2.957
 3220W        W 6964   0.235   5.522   1.438
 3221W        W 6965   4.047   9.709  11.438
 3222W        W 6966   1.507   3.499   3.614
 3223W        W 6967   0.731   7.449   8.737
 3224W        W 6968   1.352   5.624  10.981
 3225W        W 6969   9.453   6.174   1.452
 3226W        W 6970   4.761  10.374  11.847
 3227W        W 6971   0.924   6.095   1.864
 3228W        W 6972   0.452   9.993  10.881
 3229W        W 6973   7.845   0.136   0.865
 3230W        W 6974   5.638   8.010   9.557
 3231W        W 6975   6.314   5.443   1.842
 3232W        W 6976   9.909   3.761   2.643
 3233W        W 6977   2.830   5.181  11.488
 3234W        W 6978   8.443   9.722   9.693
 3235W        W 6979   9.969   0.413   1.409
 3236W        W 6980   6.374   9.469  10.824
 3237W        W 6981   9.303   4.940   0.262
 3238W        W 6982   0.793   3.631   0.268
 3239W        W 6983   4.998   4.826  10.284
 3240W        W 6984  10.400   7.995  11.315
 3241W        W 6985   6.773   1.227  10.014
 3242W        W 6986   0.621   1.647   0.482
 3243W        W 6987   1.983   6.317   9.570
 3244W        W 6988   6.058   9.358  11.432
 3245W        W 6989  10.135   7.342   9.641
 3246W        W 6990   6.151   3.506   8.922
 3247W        W 6991   3.805   6.329   8.434
 3248W        W 6992   2.862   6.105   1.938
 3249W        W 6993   5.219   6.980   2.336
 3250W        W 6994   7.787   4.389   0.727
 3251W        W 6995   8.056   9.796   2.947
 3252W        W 6996   6.772   6.498   8.595
 3253W        W 6997  10.212   9.062   0.916
 3254W        W 6998   9.054   8.026  10.202
 3255W        W 6999   5.184   0.388   8.976
 3256W        W 7000   0.432   1.958   2.650
 3257W        W 7001   5.991   5.080   2.755
 3258W        W 7002   3.617   7.893   3.046
 3259W        W 7003   2.771   0.290   3.117
 3260W        W 7004   9.391   1.215   1.597
 3261W        W 7005   7.944   3.269   9.978
 3262W        W 7006   8.168   0.967   1.300
 3263W        W 7007   3.168   5.011   2.351
 3264W        W 7008   6.610   1.007   2.980
 3265W        W 7009   6.095   8.115  10.546
 3266W        W 7010   1.923   5.585   3.235
 3267W        W 7011   7.224   5.437   9.784
 3268W        W 7012  10.499   5.297   1.029
 3269W        W 7013   0.700   5.284  11.665
 3270W        W 7014   9.110  10.303   0.413
 3271W        W 7015   8.665   4.643  10.296
 3272W        W 7016  10.018   0.248   3.464
 3273W        W 7017   5.307   8.385   9.570
 3274W        W 7018   9.609   6.705  11.283
 3275W        W 7019   7.864   4.235  10.468
 3276W        W 7020   8.439   6.948   9.579
 3277W        W 7021   7.358   6.279   3.811
 3278W        W 7022   5.570   3.771   2.963
 3279W        W 7023   5.788   5.790   0.260
 3280W        W 7024   3.096   2.737   1.556
 3281W        W 7025   5.088   6.739   8.937
 3282W        W 7026   7.867   4.211   9.591
 3283W        W 7027   2.713   6.671   9.005
 3284W        W 7028   3.589   9.491  11.295
 3285W        W 7029   7.914   0.388  11.498
 3286W        W 7030   7.659   5.566   8.112
 3287W        W 7031   8.570   5.442   9.314
 3288W        W 7032   8.230   0.558   3.671
 3289W        W 7033   2.655   6.486   2.648
 3290W        W 7034   5.314   5.525   3.141
 3291W        W 7035   7.384   0.570   3.478
 3292W        W 7036   3.767   9.163   1.810
 3293W        W 7037   6.590   6.002   9.275
 3294W        W 7038   6.447   8.632   2.229
 3295W        W 7039   0.119   8.426  11.551
 3296W        W 7040   5.926   7.110   8.176
 3297W        W 7041   1.416   2.408  10.475
 3298W        W 7042   7.439   3.420   0.824
 3299W        W 7043   1.003   1.828   2.068
 3300W        W 7044   7.359  10.326  11.700
 3301W        W 7045   6.173   3.246   1.936
 3302W        W 7046   7.881   4.708   9.010
 3303W        W 7047   4.232   9.621   0.319
 3304W        W 7048  10.047   5.475  10.829
 3305W        W 7049   6.437   8.085   2.219
 3306W        W 7050   0.016   7.466  10.977
 3307W        W 7051   1.177   0.464   9.950
 3308W        W 7052   1.704   1.834   9.221
 3309W        W 7053   5.725   1.845   2.019
 3310W        W 7054   3.009   2.795  10.792
 3311W        W 7055   9.903   5.228   2.295
 3312W        W 7056   8.575   9.812   2.085
 3313W        W 7057  10.378   9.866   1.163
 3314W        W 7058   4.320   7.129   2.967
 3315W        W 7059   4.038   6.321   3.373
 3316W        W 7060   4.348   1.387   2.321
 3317W        W 7061   9.995   9.787   0.223
 3318W        W 7062   5.241   4.762   9.272
 3319W        W 7063   2.219  10.303   8.554
 3320W        W 7064   4.719   7.510   8.620
 3321W        W 7065   3.689   7.851   0.732
 3322W        W 7066   7.408   7.652   1.284
 3323W        W 7067   8.692   9.945   3.494
 3324W        W 7068   2.707   4.982   9.038
 3325W        W 7069   6.486   9.259  11.687
 3326W        W 7070   1.893   2.623  10.421
 3327W        W 7071   8.605   1.121   3.537
 3328W        W 7072   8.195   1.230   0.054
 3329W        W 7073   5.566   3.631   0.458
 3330W        W 7074   7.005   4.500   1.052
 3331W        W 7075   2.337   0.424  10.476
 3332W        W 7076   2.830   9.518   3.503
 3333W        W 7077   0.667   0.429  10.032
 3334W        W 7078   9.331   7.463   1.251
 3335W        W 7079  10.263   7.068   0.687
 3336W        W 7080   4.731   7.675   9.213
 3337W        W 7081   0.174   8.083   9.921
 3338W        W 7082   8.126   7.555  10.125
 3339W        W 7083   9.108   0.317   0.448
 3340W        W 7084   8.988   9.417   8.745
 3341W        W 7085   1.776   1.233   0.906
 3342W        W 7086   5.679   3.630   0.954
 3343W        W 7087   7.327   1.780   9.435
 3344W        W 7088   4.050  10.221   3.295
 3345W        W 7089   1.827   2.304   8.994
 3346W        W 7090   3.637   0.517  10.961
 3347W        W 7091   3.419   4.577   0.016
 3348W        W 7092   2.415   1.928  10.354
 3349W        W 7093   1.269   5.109   2.407
 3350W        W 7094   1.040   5.167   8.593
 3351W        W 7095   4.344   3.669  10.824
 3352W        W 7096   0.261   3.368   2.395
 3353W        W 7097   8.945   7.958   2.319
 3354W        W 7098   4.595   8.336   0.906
 3355W        W 7099   3.924   4.609   8.673
 3356W        W 7100   2.980  10.306   0.849
 3357W        W 7101   8.332   4.968   9.135
 3358W        W 7102   2.459   8.589   3.299
 3359W        W 7103   5.335   0.737   1.666
 3360W        W 7104   8.414   6.077   0.363
 3361W        W 7105   5.135   3.335   0.857
 3362W        W 7106   6.978   9.974   2.189
 3363W        W 7107   2.124   8.922  10.046
 3364W        W 7108   0.786   5.179   2.256
 3365W        W 7109   5.688   9.902  11.945
 3366W        W 7110   8.122   3.660   1.338
 3367W        W 7111   5.691   7.567   3.359
 3368W        W 7112   6.766   2.844   9.936
 3369W        W 7113   5.828   4.492   0.240
 3370W        W 7114   0.026   9.471   8.529
 3371W        W 7115   5.420   2.143   9.832
 3372W        W 7116   8.928   2.730   3.326
 3373W        W 7117   4.210   8.429   1.795
 3374W        W 7118   9.998  10.326   3.152
 3375W        W 7119   4.959   7.683   1.409
 3376W        W 7120   1.809   2.828   0.739
 3377W        W 7121   5.724   7.830  10.835
 3378W        W 7122   3.822   0.536  11.503
 3379W        W 7123   6.636   8.556   8.931
 3380W        W 7124   9.597   2.785   0.940
 3381W        W 7125   9.461   8.919  10.173
 3382W        W 7126   6.259   2.604   3.689
 3383W        W 7127   3.586   8.909  10.802
 3384W        W 7128   3.136   7.765   0.398
 3385W        W 7129   4.075   4.020   0.954
 3386W        W 7130   1.358   5.495   0.487
 3387W        W 7131   7.724   8.147   2.678
 3388W        W 7132   5.101   9.929   1.344
 3389W        W 7133   3.259   6.930   9.068
 3390W        W 7134   8.119   5.433   3.099
 3391W        W 7135   9.365   0.462   1.045
 3392W        W 7136   8.837   3.243  10.046
 3393W        W 7137   9.033   9.339  11.333
 3394W        W 7138   5.745   2.685   3.803
 3395W        W 7139   1.772   5.517  10.719
 3396W        W 7140   6.934   4.270  11.391
 3397W        W 7141   4.285   3.875   0.164
 3398W        W 7142   2.191   8.098  11.068
 3399W        W 7143   6.179   7.655   8.618
 3400W        W 7144   1.777   1.240   9.743
 3401W        W 7145   5.416   6.487   0.019
 3402W        W 7146   1.312   7.142  10.122
 3403W        W 7147   8.911   3.572  11.772
 3404W        W 7148   6.039   5.177  11.625
 3405W        W 7149   0.514   7.856  10.452
 3406W        W 7150   7.433   6.520  11.380
 3407W        W 7151   8.160   7.873   2.762
 3408W        W 7152   2.539   0.171   1.923
 3409W        W 7153  10.181   0.539  10.940
 3410W        W 7154   6.374  10.462   2.227
 3411W        W 7155   2.767   5.100   4.067
 3412W        W 7156   8.371  10.313  10.317
 3413W        W 7157   9.026   3.534   8.664
 3414W        W 7158   7.176   3.689   0.465
 3415W        W 7159   8.206   7.972   9.801
 3416W        W 7160   0.695   1.209  10.445
 3417W        W 7161   6.767   9.252   9.421
 3418W        W 7162   1.141   0.480   1.873
 3419W        W 7163   4.207   9.350  11.128
 3420W        W 7164   4.974   7.416  10.597
 3421W        W 7165   8.172   6.926   0.282
 3422W        W 7166   4.718   5.440   9.849
 3423W        W 7167   4.022   6.587  11.083
 3424W        W 7168   7.052   8.296   3.458
 3425W        W 7169   3.912   2.039   3.458
 3426W        W 7170   7.392   6.305   0.772
 3427W        W 7171   4.250   3.211   8.913
 3428W        W 7172   0.969   0.413   2.390
 3429W        W 7173   4.292   0.919   0.384
 3430W        W 7174   5.232   1.264   0.991
 3431W        W 7175   7.496   4.764   0.893
 3432W        W 7176   6.935   3.742  10.917
 3433W        W 7177   7.122   1.704   0.947
 3434W        W 7178   5.483   4.893   0.910
 3435W        W 7179   7.544   0.224   8.971
 3436W        W 7180   1.887   6.223   9.041
 3437W        W 7181   6.091   6.775   3.251
 3438W        W 7182   6.478   4.822  10.238
 3439W        W 7183   2.117   9.917   8.871
 3440W        W 7184   3.600   0.836  11.869
 3441W        W 7185   6.544   6.294   3.520
 3442W        W 7186   3.619   9.945  10.540
 3443W        W 7187   7.561   9.074   2.974
 3444W        W 7188   6.466   8.271   9.357
 3445W        W 7189   0.297   1.553   9.369
 3446W        W 7190   9.389   4.864   9.656
 3447W        W 7191   6.097   2.859   0.685
 3448W        W 7192   1.169   4.261   2.472
 3449W        W 7193   8.907   4.877   2.410
 3450W        W 7194   9.498   3.574   1.611
 3451W        W 7195   4.348   2.745   2.352
 3452W        W 7196   0.706   9.206  10.429
 3453W        W 7197   3.857   8.528   1.282
 3454W        W 7198   1.045   2.851   8.789
 3455W        W 7199   4.748   3.078   4.066
 3456W        W 7200   7.050   1.905   0.007
 3457W        W 7201   0.642   6.617   8.500
 3458W        W 7202   1.736   6.075   2.534
 3459W        W 7203   6.944   7.925   3.143
 3460W        W 7204   5.166   8.331   2.840
 3461W        W 7205   5.365   8.835   0.411
 3462W        W 7206   8.838   5.547   8.796
 3463W        W 7207   7.003   9.256  11.828
 3464W        W 7208  10.396  10.211   0.233
 3465W        W 7209   1.480   3.274   0.689
 3466W        W 7210   7.065   6.611   1.007
 3467W        W 7211  10.360   0.676   0.209
 3468W        W 7212   9.932   4.181   9.606
 3469W        W 7213   3.284   4.999  11.273
 3470W        W 7214   7.870   6.917   2.938
 3471W        W 7215   4.716   3.038   0.995
 3472W        W 7216   4.112   4.128  11.732
 3473W        W 7217   9.431   8.330   1.793
 3474W        W 7218   0.880   2.855   0.958
 3475W        W 7219   2.913   5.193   1.926
 3476W        W 7220   0.948   2.333   9.072
 3477W        W 7221   9.890   7.110  11.407
 3478W        W 7222   5.693   7.121  11.345
 3479W        W 7223  10.119   4.557   0.359
 3480W        W 7224   5.478  10.044   3.292
 3481W        W 7225   5.165   1.247   9.513
 3482W        W 7226   1.189   4.236   2.978
 3483W        W 7227   9.726   3.985   9.175
 3484W        W 7228   3.739   8.202  11.372
 3485W        W 7229   0.423   8.633  11.201
 3486W        W 7230  10.218   2.161   0.582
 3487W        W 7231   5.104   0.688  11.773
 3488W        W 7232   7.218   1.884  10.526
 3489W        W 7233   3.818   8.816   9.947
 3490W        W 7234   8.065   3.237   0.204
 3491W        W 7235   1.862   7.885   0.758
 3492W        W 7236   5.530   8.811   1.175
 3493W        W 7237   1.284   8.123  11.443
 3494W        W 7238   9.942   4.700   3.418
 3495W        W 7239   2.675   2.959   1.262
 3496W        W 7240   6.533   8.980   1.123
 3497W        W 7241   1.972   3.513   2.802
 3498W        W 7242   8.704   0.529  10.105
 3499W        W 7243   6.620   6.739   1.382
 3500W        W 7244   5.614   9.965  10.079
 3501W        W 7245   8.793   3.622  10.994
 3502W        W 7246  10.009   0.281   0.291
 3503W        W 7247   9.852   8.322   2.855
 3504W        W 7248   3.182   1.358   1.510
 3505W        W 7249   5.694   6.288   3.724
 3506W        W 7250   4.509   7.681   8.062
 3507W        W 7251   2.833   8.101  10.381
 3508W        W 7252   6.711   5.931  11.276
 3509W        W 7253   2.669  10.360   3.552
 3510W        W 7254   1.376  10.085  11.128
 3511W        W 7255   1.903   6.959   1.975
 3512W        W 7256   3.178   4.768   1.693
 3513W        W 7257   7.086   0.277   3.142
 3514W        W 7258   7.933   0.805  10.700
 3515W        W 7259   2.322   2.888   0.420
 3516W        W 7260   3.056   1.878  10.776
 3517W        W 7261   1.247   3.093   3.500
 3518W        W 7262   8.044   3.534   3.359
 3519W        W 7263  10.235   9.444   2.972
 3520W        W 7264   2.935   1.181  10.839
 3521W        W 7265   0.264   4.288   1.899
 3522W        W 7266   9.670  10.319   9.593
 3523W        W 7267   1.335   1.808  10.229
 3524W        W 7268   7.265   7.899   9.631
 3525W        W 7269   4.503   0.800   2.742
 3526W        W 7270   5.763   8.070   1.612
 3527W        W 7271   1.197   4.291  11.924
 3528W        W 7272   3.104   9.916  10.451
 3529W        W 7273   6.587   0.189   1.835
 3530W        W 7274   5.399   0.482   3.495
 3531W        W 7275   5.085   9.991   2.507
 3532W        W 7276   0.628   0.229  11.942
 3533W        W 7277   6.578   4.497  11.090
 3534W        W 7278   0.739   0.414  11.056
 3535W        W 7279   2.916   1.649  10.284
 3536W        W 7280   3.179   7.868   0.922
 3537W        W 7281   2.635   4.266  11.957
 3538W        W 7282   2.270   1.657  11.231
 3539W        W 7283   4.656   9.618   9.076
 3540W        W 7284   3.717   0.323   0.989
 3541W        W 7285   4.997   6.070   0.871
 3542W        W 7286   3.344   2.688  11.766
 3543W        W 7287   0.485   4.010   1.530
 3544W        W 7288   7.590   7.430  10.768
 3545W        W 7289   7.111   6.231  11.073
 3546W        W 7290   8.430   8.948   0.985
 3547W        W 7291   0.558   2.544   3.437
 3548W        W 7292   0.389   7.443  11.864
 3549W        W 7293   3.570   4.967  10.718
 3550W        W 7294   7.118   8.834   9.610
 3551W        W 7295   9.756   4.303   3.157
 3552W        W 7296   3.641   8.504  11.799
 3553W        W 7297   3.984   0.044   2.175
 3554W        W 7298   6.929   7.897   2.089
 3555W        W 7299   1.378   4.975  11.354
 3556W        W 7300   0.329   5.288  11.318
 3557W        W 7301   7.525   3.206   9.688
 3558W        W 7302  10.010   9.111   9.403
 3559W        W 7303   7.132   0.405   1.175
 3560W        W 7304   0.562   1.315   9.010
 3561W        W 7305   5.714   6.411   1.434
 3562W        W 7306   8.851   0.535  10.636
 3563W        W 7307   0.816   7.018  10.076
 3564W        W 7308   4.550   7.649  10.766
 3565W        W 7309   2.344   6.886   8.124
 3566W        W 7310   4.740   6.839   3.142
 3567W        W 7311   2.857   3.192  11.401
 3568W        W 7312  10.348   2.978   1.305
 3569W        W 7313   0.530   7.015   8.929
 3570W        W 7314   9.963   9.516   9.068
 3571W        W 7315   4.263   3.635   2.699
 3572W        W 7316   8.556   6.666   3.439
 3573W        W 7317   0.801   7.786   9.108
 3574W        W 7318   1.918   2.201   9.507
 3575W        W 7319   7.208   9.429   2.799
 3576W        W 7320   1.478   7.975   9.543
 3577W        W 7321   6.689   7.010  10.927
 3578W        W 7322   4.594   0.762  11.799
 3579W        W 7323   1.294   1.030  11.551
 3580W        W 7324   5.193   4.273   9.115
 3581W        W 7325   6.720   7.387   9.995
 3582W        W 7326   4.004   3.124   1.367
 3583W        W 7327   4.716   6.945   2.135
 3584W        W 7328   5.568   2.554  10.462
 3585W        W 7329   6.290   8.687   8.587
 3586W        W 7330   4.034   8.033   8.707
 3587W        W 7331   2.232   6.587   9.209
 3588W        W 7332  10.277   8.006   2.827
 3589W        W 7333   3.078   1.843   3.239
 3590W        W 7334  10.438   0.900  11.759
 3591W        W 7335   7.489  10.089   1.542
 3592W        W 7336   1.233   3.325   2.636
 3593W        W 7337   3.368   6.113   1.877
 3594W        W 7338   0.902   4.702   2.468
 3595W        W 7339   6.067   2.006  11.746
 3596W        W 7340   8.615   9.393   1.286
 3597W        W 7341   6.568   2.315   2.999
 3598W        W 7342   6.928   6.463  11.497
 3599W        W 7343   4.552   1.105   9.239
 3600W        W 7344   0.721   8.385   2.796
 3601W        W 7345  10.262   0.709   3.479
 3602W        W 7346   4.291   9.425  10.612
 3603W        W 7347   0.518   2.819   8.710
 3604W        W 7348   4.208   4.215   3.584
 3605W        W 7349   4.566   9.969   0.467
 3606W        W 7350   2.208   3.763   9.766
 3607W        W 7351   5.604   5.109   9.842
 3608W        W 7352   5.495   9.878  11.065
 3609W        W 7353   9.284   8.985   8.720
 3610W        W 7354   1.414   9.250   0.631
 3611W        W 7355   9.369   8.093  11.957
 3612W        W 7356   1.367  10.008   2.773
 3613W        W 7357   2.479   1.813   0.018
 3614W        W 7358   5.942   7.911   9.967
 3615W        W 7359   0.778  10.237   2.802
 3616W        W 7360   1.258   2.885   2.977
 3617W        W 7361   5.689   3.591   4.282
 3618W        W 7362   0.384   8.956  11.583
 3619W        W 7363   2.634   7.536  11.495
 3620W        W 7364   7.457  10.105  11.252
 3621W        W 7365   1.774   2.798   1.736
 3622W        W 7366   1.733   9.303   9.972
 3623W        W 7367  10.359   5.965   8.508
 3624W        W 7368   2.044   7.124   8.492
 3625W        W 7369  10.012   7.908  10.311
 3626W        W 7370   1.240   3.639  11.564
 3627W        W 7371   7.192   0.158   3.686
 3628W        W 7372   3.986   0.904  10.958
 3629W        W 7373   7.778   6.148  10.445
 3630W        W 7374   7.677   1.986   9.750
 3631W        W 7375   7.858   7.843   3.167
 3632W        W 7376   1.705   5.204  11.868
 3633W        W 7377   5.017   4.214   8.135
 3634W        W 7378   8.073   2.007  11.399
 3635W        W 7379   5.345   4.438   0.686
 3636W        W 7380   8.734   2.613   0.691
 3637W        W 7381   6.857   1.752   9.641
 3638W        W 7382   6.950   4.033  10.487
 3639W        W 7383   1.358   4.332   9.886
 3640W        W 7384   5.295   6.662   8.475
 3641W        W 7385  10.036   2.232  11.212
 3642W        W 7386   2.479   1.320   3.571
 3643W        W 7387   5.740   5.102   2.173
 3644W        W 7388   6.952   0.178   0.749
 3645W        W 7389  10.301   9.003   3.261
 3646W        W 7390   9.940   2.877   2.787
 3647W        W 7391   4.704   3.114  11.575
 3648W        W 7392   2.200   9.898   3.003
 3649W        W 7393  10.273   3.084  10.859
 3650W        W 7394   9.503   1.108  11.940
 3651W        W 7395   4.420   8.888  11.127
 3652W        W 7396   0.897   6.664   2.587
 3653W        W 7397   7.952   4.093   2.175
 3654W        W 7398   6.456   9.046   9.023
 3655W        W 7399   5.212   8.380   8.898
 3656W        W 7400   4.984  10.440   9.731
 3657W        W 7401   4.496   9.580   2.334
 3658W        W 7402   1.152   0.489   0.759
 3659W        W 7403   4.873   0.251  10.552
 3660W        W 7404   3.887   9.872   1.178
 3661W        W 7405   4.186   7.901  10.299
 3662W        W 7406   3.743   1.930  11.490
 3663W        W 7407  10.283   8.435   1.673
 3664W        W 7408   7.631   1.832   1.647
 3665W        W 7409   7.507   9.969  10.748
 3666W        W 7410   8.830   9.035   1.766
 3667W        W 7411   1.783   8.101  11.484
 3668W        W 7412   1.021   5.531   3.240
 3669W        W 7413   9.458   7.875   3.456
 3670W        W 7414   9.396   8.601  11.863
 3671W        W 7415   8.599   4.295  11.778
 3672W        W 7416   3.578  10.332   3.080
 3673W        W 7417   4.174   4.378  11.252
 3674W        W 7418   9.756   0.967   1.850
 3675W        W 7419   7.564   8.923   4.011
 3676W        W 7420   2.587   2.352   0.435
 3677W        W 7421   9.852   9.797  11.704
 3678W        W 7422   4.451   3.631   9.115
 3679W        W 7423   9.364   2.242   2.667
 3680W        W 7424   4.216   6.552   9.922
 3681W        W 7425   1.007   2.381   0.773
 3682W        W 7426   6.242   0.774   1.141
 3683W        W 7427   5.984   5.692  11.376
 3684W        W 7428   4.231   8.961  10.300
 3685W        W 7429   8.503   8.005   1.036
 3686W        W 7430   0.492   5.106   0.125
 3687W        W 7431   7.815   9.362   0.341
 3688W        W 7432   2.831   8.992   3.329
 3689W        W 7433   2.205   1.214   1.186
 3690W        W 7434   9.886   2.335   2.721
 3691W        W 7435   1.822   1.428   1.432
 3692W        W 7436   0.291   4.920  11.682
 3693W        W 7437   8.943   7.992   2.846
 3694W        W 7438   8.945   1.749   9.330
 3695W        W 7439   4.566   9.072   2.440
 3696W        W 7440   8.335   2.364   2.522
 3697W        W 7441   3.618   1.386   0.405
 3698W        W 7442   8.319   6.297   3.741
 3699W        W 7443   1.831   4.801  11.568
 3700W        W 7444   6.754   6.735   9.060
 3701W        W 7445   7.640   0.906   0.714
 3702W        W 7446   8.571   1.453  10.967
 3703W        W 7447   2.080   9.303  10.358
 3704W        W 7448   9.840   4.632   9.897
 3705W        W 7449   3.778   9.144  10.383
 3706W        W 7450   0.706   9.406   2.265
 3707W        W 7451   2.652   2.284  11.918
 3708W        W 7452   2.697   3.101   3.233
 3709W        W 7453   9.950   6.403   1.848
 3710W        W 7454   1.446   3.631   8.677
 3711W        W 7455   9.434   3.955  11.555
 3712W        W 7456   8.325  10.031  10.767
 3713W        W 7457   2.018   4.893   3.698
 3714W        W 7458   0.754   6.516   2.093
 3715W        W 7459   0.648   0.357   1.948
 3716W        W 7460   9.645   4.278   8.750
 3717W        W 7461   0.883   2.758  11.874
 3718W        W 7462   8.105   7.945  11.780
 3719W        W 7463   6.478   8.500  10.878
 3720W        W 7464   3.571   7.505   9.339
 3721W        W 7465   3.228   3.762   2.645
 3722W        W 7466   6.014   6.092  10.014
 3723W        W 7467  10.404   8.168  11.935
 3724W        W 7468   9.781   4.996   0.788
 3725W        W 7469   7.472   4.581  11.007
 3726W        W 7470   5.182   8.356  10.070
 3727W        W 7471  10.323   5.112  10.561
 3728W        W 7472  10.298   7.035   1.200
 3729W        W 7473   7.142   7.213  10.800
 3730W        W 7474   7.615   9.123   9.727
 3731W        W 7475   8.613   9.264   9.567
 3732W        W 7476   9.576   3.506   9.368
 3733W        W 7477   0.043   0.872   9.736
 3734W        W 7478   9.909   9.316   9.897
 3735W        W 7479   9.904   6.131   9.462
 3736W        W 7480   6.915  10.163  11.881
 3737W        W 7481   5.430   9.965   1.717
 3738W        W 7482   5.503   3.315   9.836
 3739W        W 7483   9.552   6.651   1.676
 3740W        W 7484   5.064   8.508  11.545
 3741W        W 7485   3.737  10.486  10.818
 3742W        W 7486   9.330   9.478   0.504
 3743W        W 7487   4.798   8.704   8.836
 3744W        W 7488   9.345  10.327  11.852
 3745W        W 7489   3.713   8.651   1.765
 3746W        W 7490  10.351   5.544   9.965
 3747W        W 7491   1.511   3.742   2.777
 3748W        W 7492   6.635   8.479   1.327
 3749W        W 7493   2.890   7.433   2.320
 3750W        W 7494   3.107   5.147  10.814
 3751W        W 7495   5.258   9.667   0.048
 3752W        W 7496   0.032   3.199   9.922
 3753W        W 7497   9.386   3.284   0.287
 3754W        W 7498   8.909   8.347   1.069
 3755W        W 7499   4.278   6.801   3.373
 3756W        W 7500   9.983   8.825   0.544
 3757W        W 7501   2.444   3.405   0.380
 3758W        W 7502   7.402   2.437   0.935
 3759W        W 7503   6.667   0.259   8.748
 3760W        W 7504   2.664   6.933   8.528
 3761W        W 7505   0.259   3.352   0.332
 3762W        W 7506   9.390   6.223   3.103
 3763W        W 7507   7.599   0.033   9.889
 3764W        W 7508   2.994   6.736   2.922
 3765W        W 7509   1.488   8.172   3.199
 3766W        W 7510   2.780   2.736   0.180
 3767W        W 7511   1.274   9.770   8.483
 3768W        W 7512   5.789   4.253   3.600
 3769W        W 7513   0.222   4.156   2.831
 3770W        W 7514   9.760   5.872  11.018
 3771W        W 7515   6.006  10.394   9.919
 3772W        W 7516   4.226   7.334   0.449
 3773W        W 7517   7.337   9.024   0.216
 3774W        W 7518  10.332   9.480   2.483
 3775W        W 7519   3.266   7.085  11.755
 3776W        W 7520   2.470   7.827  11.870
 3777W        W 7521   5.703   0.708  11.425
 3778W        W 7522   9.209   2.274   3.169
 3779W        W 7523   3.748   3.169  11.174
 3780W        W 7524   4.746   3.185   3.211
 3781W        W 7525   7.391   6.982   1.649
 3782W        W 7526   2.387   9.945   9.642
 3783W        W 7527   8.324   3.780  11.052
 3784W        W 7528   5.656   9.086   0.760
 3785W        W 7529   3.859   9.441   2.920
 3786W        W 7530   1.723   9.464  11.294
 3787W        W 7531   1.722   6.525   2.989
 3788W        W 7532   3.347   7.383   8.911
 3789W        W 7533   0.274   1.650   8.353
 3790W        W 7534   6.541   0.183  11.498
 3791W        W 7535   4.705   4.585  11.191
 3792W        W 7536   8.229   2.650   0.750
 3793W        W 7537   6.205   8.209   1.382
 3794W        W 7538   0.808   9.295  11.548
 3795W        W 7539   5.129   6.053   2.450
 3796W        W 7540   2.669   8.098  10.860
 3797W        W 7541   6.139   4.257   1.236
 3798W        W 7542   4.765   8.556  10.283
 3799W        W 7543   5.612   9.040  10.536
 3800W        W 7544   7.514   0.080  10.382
 3801W        W 7545   4.506   4.719  10.352
 3802W        W 7546   7.128   4.928   3.343
 3803W        W 7547   4.907   7.220   8.048
 3804W        W 7548   8.024   3.209   1.588
 3805W        W 7549   5.467  10.437   9.930
 3806W        W 7550   9.171   6.697   0.132
 3807W        W 7551   9.599   8.967   9.696
 3808W        W 7552   2.245   0.749   9.645
 3809W        W 7553   8.048   6.610  10.245
 3810W        W 7554   5.221   7.078   4.214
 3811W        W 7555   7.368   7.135  10.335
 3812W        W 7556   3.063   6.633  11.765
 3813W        W 7557   0.296   2.912   9.579
 3814W        W 7558   6.209   7.032   3.995
 3815W        W 7559   1.826   6.724   1.517
 3816W        W 7560   1.128   5.267   1.049
 3817W        W 7561   8.717   7.455   3.558
 3818W        W 7562   1.327   7.069  10.652
 3819W        W 7563   8.814  10.282   0.896
 3820W        W 7564   7.021   7.083   8.780
 3821W        W 7565   1.813   4.952   2.306
 3822W        W 7566   4.235   5.206  10.083
 3823W        W 7567   6.179   8.362   2.848
 3824W        W 7568   5.081   3.358   0.359
 3825W        W 7569   3.176   1.015   2.847
 3826W        W 7570  10.433   0.649   1.377
 3827W        W 7571   1.548   7.793   2.406
 3828W        W 7572   6.911   6.286   8.125
 3829W        W 7573   5.948   9.639  11.021
 3830W        W 7574   4.463   1.674   2.830
 3831W        W 7575   8.144   2.774   2.792
 3832W        W 7576   8.589   6.776   0.939
 3833W        W 7577   4.829   1.335   2.126
 3834W        W 7578   9.391  10.153   2.102
 3835W        W 7579   9.966  10.116   0.966
 3836W        W 7580   7.652   8.145   0.035
 3837W        W 7581   3.273   6.001   9.168
 3838W        W 7582   2.276   5.986  11.874
 3839W        W 7583   8.371   6.935  10.482
 3840W        W 7584   0.226   7.153   0.953
 3841W        W 7585   8.551   2.830   9.984
 3842W        W 7586   5.157   6.502   2.148
 3843W        W 7587   1.368   6.853   8.881
 3844W        W 7588   5.649   3.314   2.758
 3845W        W 7589   8.127   6.531   3.172
 3846W        W 7590   4.681   9.849  10.816
 3847W        W 7591   8.974   4.748   1.532
 3848W        W 7592   1.765   2.880   9.981
 3849W        W 7593   7.049   8.948   2.844
 3850W        W 7594   6.135   6.502  10.840
 3851W        W 7595   1.357   3.288   2.157
 3852W        W 7596   7.048   2.740  11.539
 3853W        W 7597   9.871  10.243  11.966
 3854W        W 7598   3.758   8.125   9.539
 3855W        W 7599   3.101   1.463   2.046
 3856W        W 7600   6.477   0.220   0.460
 3857W        W 7601   5.077   1.785  10.756
 3858W        W 7602   2.278   5.575  11.501
 3859W        W 7603   5.370   5.705   8.582
 3860W        W 7604   2.193   7.377   9.660
 3861W        W 7605   6.134   8.097  11.073
 3862W        W 7606   2.166   7.799   9.347
 3863W        W 7607   6.941   3.494   2.539
 3864W        W 7608   1.883   4.519   1.409
 3865W        W 7609   0.328   0.976   2.740
 3866W        W 7610   0.916   5.082   9.946
 3867W        W 7611   0.462   4.842  10.076
 3868W        W 7612   4.624   5.363  11.199
 3869W        W 7613   5.124   3.802   0.137
 3870W        W 7614   4.310   4.600  10.818
 3871W        W 7615   5.555   3.309   2.262
 3872W        W 7616   2.100   9.757  10.572
 3873W        W 7617   7.639   9.604   1.654
 3874W        W 7618   4.096   6.056   0.999
 3875W        W 7619  10.323   1.791  11.460
 3876W        W 7620   8.960   2.863   1.461
 3877W        W 7621   0.587   5.913   1.457
 3878W        W 7622   7.414   0.527   9.455
 3879W        W 7623   8.487   3.904   3.325
 3880W        W 7624   9.073   2.239  11.465
 3881W        W 7625   9.350   4.610  10.099
 3882W        W 7626   1.934   9.172   2.798
 3883W        W 7627   1.802   0.889   9.346
 3884W        W 7628   9.438   1.269  10.923
 3885W        W 7629   8.576   4.596  11.309
 3886W        W 7630   8.491   2.716   8.943
 3887W        W 7631   8.825   1.963   3.186
 3888W        W 7632   7.196   7.884   8.560
 3889W        W 7633   1.985   7.720   2.666
 3890W        W 7634   9.889   0.661   0.974
 3891W        W 7635   1.181   4.037   1.451
 3892W        W 7636   5.744   1.279  10.762
 3893W        W 7637   8.056   7.841  11.260
 3894W        W 7638   2.277   5.256   3.438
 3895W        W 7639   8.015   9.818   9.321
 3896W        W 7640   2.686   8.962  10.981
 3897W        W 7641  10.493   1.841  11.957
 3898W        W 7642   9.425   8.593   2.772
 3899W        W 7643   3.240   4.695   3.592
 3900W        W 7644   9.746   0.850  11.014
 3901W        W 7645   7.147   6.690  10.742
 3902W        W 7646   9.046   0.731   0.748
 3903W        W 7647   9.967   9.976  10.813
 3904W        W 7648   5.243   9.709  10.367
 3905W        W 7649   7.519   8.575   3.165
 3906W        W 7650   5.714   6.461   0.936
 3907W        W 7651   1.391   9.550  10.895
 3908W        W 7652   9.778   3.710   9.811
 3909W        W 7653   7.049   0.025   9.032
 3910W        W 7654   6.477   6.638  11.220
 3911W        W 7655   1.746   6.185  11.846
 3912W        W 7656   5.266   4.467  11.012
 3913W        W 7657   5.687   4.217   2.149
 3914W        W 7658   5.569   5.054   3.134
 3915W        W 7659   1.948   3.233   9.661
 3916W        W 7660   6.154   3.335  11.427
 3917W        W 7661   6.366   7.739   1.284
 3918W        W 7662   5.641   0.270   0.414
 3919W        W 7663   3.279   4.977   4.025
 3920W        W 7664   8.195   6.693   2.220
 3921W        W 7665   1.083   3.529   1.475
 3922W        W 7666   4.806   9.469   3.182
 3923W        W 7667  10.459  10.488  10.202
 3924W        W 7668   9.282   4.057   2.497
 3925W        W 7669   8.345   1.869   2.394
 3926W        W 7670   3.667   4.041   1.365
 3927W        W 7671   1.072   7.099   9.645
 3928W        W 7672   9.656   4.742  10.476
 3929W        W 7673   2.772   1.225   0.778
 3930W        W 7674   2.238   8.312  11.565
 3931W        W 7675   8.030   8.452  11.772
 3932W        W 7676   1.840  10.019   1.630
 3933W        W 7677   6.543   9.346  10.348
 3934W        W 7678   9.621   3.791  10.608
 3935W        W 7679  10.492   0.818  11.241
 3936W        W 7680   1.315   1.434   2.218
 3937W        W 7681   9.443   2.682   1.499
 3938W        W 7682   4.879  10.228   2.952
 3939W        W 7683   4.127   2.690   9.063
 3940W        W 7684   9.295  10.035   2.594
 3941W        W 7685   5.603   6.643   8.933
 3942W        W 7686   8.074   2.877  10.723
 3943W        W 7687   1.787   2.781  11.798
 3944W        W 7688   3.600   0.893   2.589
 3945W        W 7689   8.481   8.920  10.284
 3946W        W 7690   0.267   4.213   9.229
 3947W        W 7691   1.570   1.475   8.883
 3948W        W 7692   4.952   2.236  11.877
 3949W        W 7693   8.599  10.493  10.882
 3950W        W 7694   2.143   1.070  10.061
 3951W        W 7695   0.965   6.988   2.105
 3952W        W 7696   8.069   0.668   1.727
 3953W        W 7697   7.291   6.227  10.356
 3954W        W 7698   9.347   0.823   3.538
 3955W        W 7699  10.482   5.099   9.718
 3956W        W 7700   8.818   5.088  10.496
 3957W        W 7701   8.955   4.624   8.846
 3958W        W 7702   4.910   3.738   8.399
 3959W        W 7703   4.978   5.683   0.286
 3960W        W 7704   2.398   0.309   2.779
 3961W        W 7705   9.748   9.052   3.483
 3962W        W 7706  10.472   8.589  10.085
 3963W        W 7707   6.330  10.325   2.723
 3964W        W 7708   4.253   5.348  10.576
 3965W        W 7709   7.068   3.362  11.232
 3966W        W 7710   1.454   1.673   0.211
 3967W        W 7711   7.428   5.160   9.354
 3968W        W 7712   3.269   0.481   1.284
 3969W        W 7713   1.250   3.662   1.013
 3970W        W 7714   7.068   6.102   9.092
 3971W        W 7715   5.976   2.108   9.139
 3972W        W 7716   9.860   1.836   9.380
 3973W        W 7717   0.856   1.712   2.527
 3974W        W 7718   3.322   9.572  11.800
 3975W        W 7719   6.579   0.507   0.872
 3976W        W 7720   3.350   3.912   3.111
 3977W        W 7721   3.406   5.418   3.217
 3978W        W 7722   7.230   4.117  11.813
 3979W        W 7723   1.216   6.119  11.881
 3980W        W 7724   0.860   9.636   9.520
 3981W        W 7725   7.164   7.503   2.386
 3982W        W 7726   9.396   3.655   1.112
 3983W        W 7727   3.924   9.712   0.699
 3984W        W 7728   5.525   1.682   3.012
 3985W        W 7729   3.288   4.893   0.507
 3986W        W 7730   5.075   4.073  10.748
 3987W        W 7731   8.040   5.392   1.262
 3988W        W 7732   4.515   4.132   9.402
 3989W        W 7733   5.346   9.759  11.549
 3990W        W 7734   7.491   9.604  10.048
 3991W        W 7735   6.881   9.395  10.726
 3992W        W 7736   0.205   6.181   0.828
 3993W        W 7737   2.632   5.656   9.932
 3994W        W 7738   3.174   4.209   1.236
 3995W        W 7739  10.181   6.912   9.368
 3996W        W 7740   9.620   7.433   0.833
 3997W        W 7741   7.063   5.236   0.287
 3998W        W 7742   5.937   0.807   9.948
 3999W        W 7743   8.127   8.447   2.604
 4000W        W 7744   6.592   6.681   2.255
 4001W        W 7745   6.944   4.877   9.933
 4002W        W 7746   3.863   3.073   9.241
 4003W        W 7747   1.737   2.236  11.346
 4004W        W 7748   6.829  10.334   2.523
 4005W        W 7749   1.389  10.376  10.263
 4006W        W 7750   5.951   4.740  10.337
 4007W        W 7751   4.951   7.881   8.275
 4008W        W 7752   8.399   3.596   8.479
 4009W        W 7753  10.313   0.798   8.708
 4010W        W 7754   8.966   2.492   1.835
 4011W        W 7755   2.911   4.604   4.106
 4012W        W 7756   4.670   6.470   2.330
 4013W        W 7757   5.071   7.168   1.337
 4014W        W 7758   0.710   6.180   0.926
 4015W        W 7759   9.546   0.064   0.274
 4016W        W 7760   2.908   3.708  10.519
 4017W        W 7761   3.227   8.325  11.507
 4018W        W 7762   7.875   2.417  10.506
 4019W        W 7763   0.845   1.365   0.917
 4020W        W 7764   9.478   1.846   0.923
 4021W        W 7765   7.187   2.650   2.560
 4022W        W 7766   1.453   8.449   1.048
 4023W        W 7767   3.051   2.526   0.590
 4024W        W 7768   7.560   6.106   2.740
 4025W        W 7769   5.637   1.151   1.280
 4026W        W 7770   7.023   9.654   0.823
 4027W        W 7771   9.564   7.180  10.068
 4028W        W 7772   5.938   6.673   4.252
 4029W        W 7773   4.604   3.229  10.818
 4030W        W 7774  10.051   0.992   1.411
 4031W        W 7775   0.405   8.929   1.576
 4032W        W 7776   2.722   7.897   1.215
 4033W        W 7777  10.364   8.532   0.740
 4034W        W 7778   9.954   5.450   1.773
 4035W        W 7779   6.665   5.275  11.980
 4036W        W 7780   5.069   7.885  10.295
 4037W        W 7781   9.940   4.961  10.875
 4038W        W 7782   9.846   1.445  10.183
 4039W        W 7783   4.249   4.439   9.086
 4040W        W 7784   5.595   9.504  10.708
 4041W        W 7785   4.506   6.008   0.700
 4042W        W 7786   7.641   5.554   3.983
 4043W        W 7787   2.145   0.377   9.992
 4044W        W 7788   6.487   9.982   2.391
 4045W        W 7789   5.211   9.452   0.648
 4046W        W 7790   9.666   9.818  11.216
 4047W        W 7791   7.950   0.296  10.562
 4048W        W 7792   0.811   7.901  11.492
 4049W        W 7793  10.330  10.305   1.907
 4050W        W 7794   5.698   3.579  10.920
 4051W        W 7795   2.295   5.065  11.630
 4052W        W 7796  10.067   5.710   2.196
 4053W        W 7797   4.706   2.749   9.796
 4054W        W 7798   6.050   7.201   3.543
 4055W        W 7799   7.591   6.667  10.470
 4056W        W 7800   1.642   8.577  11.535
 4057W        W 7801   5.990   7.126   1.891
 4058W        W 7802   8.766   1.598   3.520
 4059W        W 7803   4.487   7.938   8.499
 4060W        W 7804   8.409   6.188   9.121
 4061W        W 7805   3.393   4.627   8.646
 4062W        W 7806   8.377   9.259   0.056
 4063W        W 7807   1.339   6.363   2.687
 4064W        W 7808  10.204   4.182   2.886
 4065W        W 7809   7.461   5.810   0.805
 4066W        W 7810  10.486   1.728   2.510
 4067W        W 7811   2.924   2.062   9.466
 4068W        W 7812   0.091   1.597   1.797
 4069W        W 7813   4.059   6.916  10.307
 4070W        W 7814   6.740   4.597   3.269
 4071W        W 7815   7.178   2.660   1.371
 4072W        W 7816   4.862   2.812   2.333
 4073W        W 7817   4.874   9.518   2.672
 4074W        W 7818   5.137   4.682  11.474
 4075W        W 7819   8.974   0.398   1.442
 4076W        W 7820   4.017   7.541   3.050
 4077W        W 7821   1.845   3.229   2.024
 4078W        W 7822   1.569   9.526   2.974
 4079W        W 7823   7.112   7.872  11.466
 4080W        W 7824   1.271   4.264   0.433
 4081W        W 7825   9.371   8.556   8.993
 4082W        W 7826   0.815   3.844  11.781
 4083W        W 7827   0.737   7.104   0.751
 4084W        W 7828   3.338   8.857   3.300
 4085W        W 7829   9.545  10.301   3.393
 4086W        W 7830   1.201   2.875   0.527
 4087W        W 7831   6.940   9.968  11.370
 4088W        W 7832   2.294   3.870   2.650
 4089W        W 7833   4.941   4.230   0.919
 4090W        W 7834   4.647   4.946   9.899
 4091W        W 7835   2.833   1.150   3.244
 4092W        W 7836   8.990   8.424   2.573
 4093W        W 7837   3.298   2.381  10.118
 4094W        W 7838   1.803   6.269  11.313
 4095W        W 7839   4.629   7.625  10.269
 4096W        W 7840   6.489   3.041  10.506
 4097W        W 7841   7.341   1.033   9.416
 4098W        W 7842   7.048   7.458   9.418
 4099W        W 7843   4.077  10.099   0.349
 4100W        W 7844   8.383   1.980  10.972
 4101W        W 7845   5.656   1.133   0.743
 4102W        W 7846   8.180   6.625   1.621
 4103W        W 7847   9.410   3.108  11.261
 4104W        W 7848   0.281   7.809   0.253
 4105W        W 7849   0.297   1.747   8.893
 4106W        W 7850   4.466   1.027  10.985
 4107W        W 7851   7.480   2.739   1.806
 4108W        W 7852   8.334   0.923   9.231
 4109W        W 7853   4.687   3.019   0.101
 4110W        W 7854   5.866   2.389   0.045
 4111W        W 7855   7.376   5.029  11.376
 4112W        W 7856   7.449   3.259   1.893
 4113W        W 7857   1.228   7.445   2.177
 4114W        W 7858   4.187   0.785  10.390
 4115W        W 7859   6.751   1.467  11.947
 4116W        W 7860   2.622   3.871  11.424
 4117W        W 7861   6.952   0.974   0.279
 4118W        W 7862   1.440   8.655  10.522
 4119W        W 7863   8.325   9.815  10.214
 4120W        W 7864   8.040   6.024   0.005
 4121W        W 7865   1.901   8.532  11.093
 4122W        W 7866   9.778   9.854   9.826
 4123W        W 7867   3.788   1.809   9.011
 4124W        W 7868   4.449   8.089   0.083
 4125W        W 7869   5.195   9.453   1.152
 4126W        W 7870   1.326  10.308   9.764
 4127W        W 7871   6.494   3.650   3.204
 4128W        W 7872   2.810   8.549  10.647
 4129W        W 7873   5.535   6.402  11.119
 4130W        W 7874   7.050   8.660   1.108
 4131W        W 7875   5.135   8.968   0.871
 4132W        W 7876  10.179  10.285   1.403
 4133W        W 7877   1.405   9.081   2.712
 4134W        W 7878   4.642   5.453   1.845
 4135W        W 7879   1.260   8.454   8.734
 4136W        W 7880   4.482  10.453  11.419
 4137W        W 7881  10.401   3.652   2.137
 4138W        W 7882   8.065   7.516   9.595
 4139W        W 7883   4.056   6.821  11.530
 4140W        W 7884   7.404   7.574   3.208
 4141W        W 7885  10.067   6.841   2.405
 4142W        W 7886   2.822   4.566  10.477
 4143W        W 7887   6.107   0.204  11.767
 4144W        W 7888   0.465   0.416   2.425
 4145W        W 7889   2.772   5.507   0.749
 4146W        W 7890   4.594  10.331  10.546
 4147W        W 7891   6.132   0.331   8.811
 4148W        W 7892   5.598  10.370   1.434
 4149W        W 7893   6.914   3.819  10.035
 4150W        W 7894   2.820   8.881   2.801
 4151W        W 7895   7.571   5.263   1.393
 4152W        W 7896   2.311   5.655   0.502
 4153W        W 7897   9.361   7.590  11.052
 4154W        W 7898   7.410   9.087   2.449
 4155W        W 7899   8.662   2.409  11.876
 4156W        W 7900   8.797   6.141   9.923
 4157W        W 7901   8.959  10.048   1.782
 4158W        W 7902   3.739   8.096  10.460
 4159W        W 7903   3.301   2.172   0.899
 4160W        W 7904   0.021   2.905   0.814
 4161W        W 7905   0.739   2.918   1.480
 4162W        W 7906   4.185   8.872   9.390
 4163W        W 7907   3.617   8.075   9.059
 4164W        W 7908   1.613   2.269   2.278
 4165W        W 7909   0.269   6.007   3.192
 4166W        W 7910   4.780  10.358  11.001
 4167W        W 7911   0.235   6.082   2.677
 4168W        W 7912   0.872   5.557   9.743
 4169W        W 7913   5.077   6.525   2.644
 4170W        W 7914   1.838   9.923   9.355
 4171W        W 7915   8.017   8.842   9.564
 4172W        W 7916   5.143   1.282  10.017
 4173W        W 7917   4.797   2.039   1.002
 4174W        W 7918   6.635   4.257   2.308
 4175W        W 7919   2.759   0.698   1.489
 4176W        W 7920   3.256   8.604   2.868
 4177W        W 7921   6.127   0.459  11.292
 4178W        W 7922   7.762   0.425  11.007
 4179W        W 7923   2.514   6.975   0.856
 4180W        W 7924   9.989   5.521   8.900
 4181W        W 7925   8.111   3.038  11.706
 4182W        W 7926   5.483   0.815   2.434
 4183W        W 7927   5.567   7.309   0.679
 4184W        W 7928   2.249   8.606   2.810
 4185W        W 7929   3.297   3.701   1.183
 4186W        W 7930   7.218   3.886   8.941
 4187W        W 7931   2.812   8.487   9.686
 4188W        W 7932   6.073   3.846  10.696
 4189W        W 7933   7.658   4.235   3.530
 4190W        W 7934   2.434   4.795   3.146
 4191W        W 7935   0.318   1.240  11.257
 4192W        W 7936   8.010   7.387  11.047
 4193W        W 7937   6.503   5.850  10.392
 4194W        W 7938   0.283   9.527  10.059
 4195W        W 7939   5.042   6.651  11.253
 4196W        W 7940   2.183   6.032   2.789
 4197W        W 7941   9.240   9.037   0.934
 4198W        W 7942   0.060   3.758   9.420
 4199W        W 7943   2.225   3.339   2.379
 4200W        W 7944   7.078   1.220   3.418
 4201W        W 7945   3.204   7.668   2.722
 4202W        W 7946   9.430   5.049   2.327
 4203W        W 7947   8.703   1.762  10.606
 4204W        W 7948   3.161   5.606  11.027
 4205W        W 7949   1.790   0.284   2.582
 4206W        W 7950   9.980   2.789   2.255
 4207W        W 7951   6.729   4.830   1.307
 4208W        W 7952   3.034   8.805  11.456
 4209W        W 7953   8.800   8.899  11.473
 4210W        W 7954   2.148   8.980  10.936
 4211W        W 7955   5.891   7.662   0.515
 4212W        W 7956   8.509   8.123   3.102
 4213W        W 7957   3.636   5.641   0.313
 4214W        W 7958   4.971   6.891   0.866
 4215W        W 7959   2.297   9.360   1.657
 4216W        W 7960   2.585   2.368  11.421
 4217W        W 7961   2.869   5.085   9.852
 4218W        W 7962   8.017   2.346   9.536
 4219W        W 7963   6.717   2.328   9.758
 4220W        W 7964   0.985   8.327   3.247
 4221W        W 7965   8.910   4.631   9.824
 4222W        W 7966   1.926   6.522   0.570
 4223W        W 7967   3.408   8.167   1.861
 4224W        W 7968   4.284  10.277   1.850
 4225W        W 7969   3.344   5.762  10.580
 4226W        W 7970   6.030   1.714  10.266
 4227W        W 7971   1.392   3.710   1.855
 4228W        W 7972   3.421   9.583   0.673
 4229W        W 7973   7.119   6.567   3.299
 4230W        W 7974   5.395   2.048   1.695
 4231W        W 7975   2.119   4.670   0.532
 4232W        W 7976   4.935   1.448   3.435
 4233W        W 7977   9.251   8.506  10.405
 4234W        W 7978   8.552   8.067   1.531
 4235W        W 7979   3.787   3.225   1.824
 4236W        W 7980   0.262   6.459   9.422
 4237W        W 7981   6.000   1.738  10.767
 4238W        W 7982   3.705   4.858   3.128
 4239W        W 7983   2.095   1.324   0.202
 4240W        W 7984   2.742   2.361  10.775
 4241W        W 7985   7.934   1.337   0.478
 4242W        W 7986   6.977   4.189   0.263
 4243W        W 7987   5.630   0.478  11.911
 4244W        W 7988   2.290   6.717   1.289
 4245W        W 7989   9.791   9.286   0.347
 4246W        W 7990   4.080   8.997  10.774
 4247W        W 7991   7.178   1.829   2.963
 4248W        W 7992   7.005   8.403   9.264
 4249W        W 7993   8.853   4.061  11.398
 4250W        W 7994   2.242   4.449  10.328
 4251W        W 7995  10.047   5.550   0.883
 4252W        W 7996   6.929   7.137   1.487
 4253W        W 7997   3.102   5.011   9.374
 4254W        W 7998   8.058   8.913   2.821
 4255W        W 7999   9.221   0.568   2.308
 4256W        W 8000   5.653   0.386   9.210
 4257W        W 8001   2.702   3.608   9.126
 4258W        W 8002   8.940   1.465  10.226
 4259W        W 8003   0.679   9.264   2.749
 4260W        W 8004   7.813   5.047   3.261
 4261W        W 8005   0.790   1.879   1.253
 4262W        W 8006   6.636   8.566   3.232
 4263W        W 8007   7.449   3.440   2.410
 4264W        W 8008  10.491   5.572   0.218
 4265W        W 8009   4.721   5.470   1.343
 4266W        W 8010   3.155   5.092  11.991
 4267W        W 8011   3.280   0.448   9.594
 4268W        W 8012   7.620   4.754  10.323
 4269W        W 8013   4.331   4.903  11.307
 4270W        W 8014   1.584   8.838  10.059
 4271W        W 8015   6.006   6.598  10.319
 4272W        W 8016   4.300   1.761  10.640
 4273W        W 8017   8.482   6.661  10.956
 4274W        W 8018   0.310   8.641  11.982
 4275W        W 8019   7.384  10.489   0.984
 4276W        W 8020   6.548   9.876   9.241
 4277W        W 8021   7.199   0.910   9.972
 4278W        W 8022   6.247   2.870   2.331
 4279W        W 8023   3.720   8.225   0.266
 4280W        W 8024   8.436   3.211   9.210
 4281W        W 8025  10.389   0.299   2.664
 4282W        W 8026   4.016   4.277   9.538
 4283W        W 8027   4.191   3.543   1.700
 4284W        W 8028   6.740   3.717   9.019
 4285W        W 8029   9.596   7.610  11.877
 4286W        W 8030   3.841   2.812   2.493
 4287W        W 8031   0.525   9.302   1.241
 4288W        W 8032   6.234   3.197   3.238
 4289W        W 8033   9.865   4.264  10.506
 4290W        W 8034   7.720   2.756  11.896
 4291W        W 8035   3.650   6.888   2.270
 4292W        W 8036   1.248   8.763   1.840
 4293W        W 8037   4.160   3.974   1.456
 4294W        W 8038   4.070   9.918   2.878
 4295W        W 8039   2.623   5.958  10.844
 4296W        W 8040   8.396   0.548   2.740
 4297W        W 8041   5.688   0.315   1.693
 4298W        W 8042   0.999   7.481  10.773
 4299W        W 8043   6.610   0.494   3.076
 4300W        W 8044   6.114   8.163   3.667
 4301W        W 8045   2.843   8.788   0.793
 4302W        W 8046   2.292   7.672   3.565
 4303W        W 8047   5.962   7.188   0.350
 4304W        W 8048   6.761   9.552   3.496
 4305W        W 8049   4.277   9.930  10.485
 4306W        W 8050   9.401   7.808   8.991
 4307W        W 8051   4.210   3.083  11.746
 4308W        W 8052   6.464   4.053   1.855
 4309W        W 8053   6.240   7.924  11.588
 4310W        W 8054   3.252   0.188   3.217
 4311W        W 8055   4.231   8.123  11.289
 4312W        W 8056   1.343   5.796  10.473
 4313W        W 8057   5.834   1.872   1.435
 4314W        W 8058   2.128   5.143  10.760
 4315W        W 8059   7.953   2.287   0.452
 4316W        W 8060   5.723   9.340   3.562
 4317W        W 8061   8.504   2.738   1.686
 4318W        W 8062   4.128  10.416  11.933
 4319W        W 8063   8.762   6.597  11.800
 4320W        W 8064   6.925   0.446   0.283
 4321W        W 8065   0.383   1.472   2.698
 4322W        W 8066   0.193   6.032   8.975
 4323W        W 8067   2.786   0.340   1.069
 4324W        W 8068   3.882   3.918   0.474
 4325W        W 8069   2.961   7.913  11.699
 4326W        W 8070   3.981   8.306  10.035
 4327W        W 8071   2.745   6.893  10.739
 4328W        W 8072   4.087   0.081   9.949
 4329W        W 8073   3.757   9.549   8.981
 4330W        W 8074   2.784   8.044   0.187
 4331W        W 8075   4.664   2.035   9.527
 4332W        W 8076   6.000   5.006   0.947
 4333W        W 8077   2.663   6.623  11.420
 4334W        W 8078   6.622   0.272   2.596
 4335W        W 8079   2.648   2.271   9.060
 4336W        W 8080   0.430   1.701   2.199
 4337W        W 8081   9.815   7.963   0.191
 4338W        W 8082   2.605   8.024  11.365
 4339W        W 8083   9.928   7.953   3.222
 4340W        W 8084   4.453   2.391  11.036
 4341W        W 8085  10.412   8.947   1.758
 4342W        W 8086   2.764   5.907   3.927
 4343W        W 8087   8.859   8.754   0.761
 4344W        W 8088   4.092   8.002   2.843
 4345W        W 8089   5.691   6.242   1.906
 4346W        W 8090  10.456   6.558  10.138
 4347W        W 8091   9.894   3.725   2.149
 4348W        W 8092   3.864   5.085   9.767
 4349W        W 8093   0.817   4.170   9.054
 4350W        W 8094   3.304   8.950   1.931
 4351W        W 8095   8.551   6.690   8.960
 4352W        W 8096   9.426   9.378  11.025
 4353W        W 8097   6.011  10.023   0.341
 4354W        W 8098   3.169  10.461  11.899
 4355W        W 8099   9.776   7.446   8.905
 4356W        W 8100   6.045   9.332   9.154
 4357W        W 8101   1.956   1.782   0.039
 4358W        W 8102   2.546   8.538   1.850
 4359W        W 8103   7.597   5.676  10.338
 4360W        W 8104   5.160   5.230  10.056
 4361W        W 8105  10.326   0.924   0.949
 4362W        W 8106   8.092   3.165   0.705
 4363W        W 8107   9.119   8.594   0.307
 4364W        W 8108   3.609   4.183   2.746
 4365W        W 8109   0.512   1.339   1.362
 4366W        W 8110   0.983   6.183  10.352
 4367W        W 8111   9.346   4.941  11.399
 4368W        W 8112   0.831   9.632   1.827
 4369W        W 8113   0.302   9.957   3.143
 4370W        W 8114   2.780   4.737  11.755
 4371W        W 8115   5.251   7.673   0.499
 4372W        W 8116   9.355   9.544   1.020
 4373W        W 8117   2.785   3.653   9.619
 4374W        W 8118   1.746   2.933   1.248
 4375W        W 8119   1.370   2.690   0.998
 4376W        W 8120   4.665   0.080   9.044
 4377W        W 8121   9.835   3.549   0.228
 4378W        W 8122   2.808   7.206   1.826
 4379W        W 8123   1.157   2.835  11.215
 4380W        W 8124   1.848   9.536   1.473
 4381W        W 8125   7.609   2.316   1.386
 4382W        W 8126   4.942   2.237  10.967
 4383W        W 8127  10.249   8.054   0.923
 4384W        W 8128   8.365   7.115   3.631
 4385W        W 8129   5.929   3.970   0.272
 4386W        W 8130   7.504   8.450   0.972
 4387W        W 8131   3.731   4.527   3.564
 4388W        W 8132   9.018   5.501  10.770
 4389W        W 8133   0.546   5.760  11.535
 4390W        W 8134   6.080   2.863   0.171
 4391W        W 8135   1.628   4.136  10.273
 4392W        W 8136   4.321   2.249   1.941
 4393W        W 8137   3.384  10.059   9.540
 4394W        W 8138   3.825   2.655   1.424
 4395W        W 8139   9.700   0.188  11.771
 4396W        W 8140   9.870   8.826   3.032
 4397W        W 8141   5.490   7.254   1.956
 4398W        W 8142   2.116   3.954  10.237
 4399W        W 8143   7.985   5.619   0.334
 4400W        W 8144   2.343   7.878  10.551
 4401W        W 8145   2.305   5.528  10.448
 4402W        W 8146   8.593   5.775   2.217
 4403W        W 8147   4.894   0.726   3.127
 4404W        W 8148   0.510   2.186   3.080
 4405W        W 8149   8.163   4.735   0.670
 4406W        W 8150   3.612   1.453   1.989
 4407W        W 8151   0.862   0.090   3.422
 4408W        W 8152   8.106   8.511   2.112
 4409W        W 8153   2.873   4.540   2.413
 4410W        W 8154   0.756   3.114   0.293
 4411W        W 8155   2.765   3.865   2.854
 4412W        W 8156   9.516   9.037   2.297
 4413W        W 8157   8.684   6.732   2.367
 4414W        W 8158   6.438   4.128   9.175
 4415W        W 8159   7.215   9.217   8.728
 4416W        W 8160   9.871   5.063   9.592
 4417W        W 8161   3.196   0.003   2.725
 4418W        W 8162   6.902   5.527   2.533
 4419W        W 8163   3.685   1.295   2.912
 4420W        W 8164   3.831   9.031   9.037
 4421W        W 8165   6.987   3.148   1.707
 4422W        W 8166   0.804   8.925   9.892
 4423W        W 8167   3.411   3.143  11.544
 4424W        W 8168   4.036   7.538   1.769
 4425W        W 8169   0.332   6.615   1.813
 4426W        W 8170   9.395   4.405  11.356
 4427W        W 8171   3.202   5.410   0.452
 4428W        W 8172   6.234   3.961   3.554
 4429W        W 8173   4.713   7.085   0.142
 4430W        W 8174   4.713   3.509  11.962
 4431W        W 8175   5.623   1.761   9.008
 4432W        W 8176   8.847   4.780   3.392
 4433W        W 8177   1.389   5.221   9.818
 4434W        W 8178   8.396   3.255   9.738
 4435W        W 8179   7.950   9.129  11.064
 4436W        W 8180   0.800   1.239   2.840
 4437W        W 8181   3.262   8.803   9.254
 4438W        W 8182   7.555   2.012   0.670
 4439W        W 8183   7.541   8.264   8.544
 4440W        W 8184   7.454   7.886   0.445
 4441W        W 8185   8.500   6.437  10.430
 4442W        W 8186   0.680   6.836   9.423
 4443W        W 8187   5.665   5.056   9.330
 4444W        W 8188   5.931   1.284   3.205
 4445W        W 8189   5.041   0.821   8.731
 4446W        W 8190   5.631   0.016   3.414
 4447W        W 8191   5.979   7.357   0.951
 4448W        W 8192   1.254   9.933   1.797
 4449W        W 8193   6.908   5.193   2.936
 4450W        W 8194   7.943   9.759   9.839
 4451W        W 8195   6.394   6.936   0.518
 4452W        W 8196   9.436   9.954   8.963
 4453W        W 8197   9.799   4.690  11.414
 4454W        W 8198   5.935   2.753   3.309
 4455W        W 8199   4.643  10.080   8.857
 4456W        W 8200   4.429   3.669   8.609
 4457W        W 8201   8.975   6.605   3.142
 4458W        W 8202   4.691   6.911   2.638
 4459W        W 8203   2.718   7.486   3.357
 4460W        W 8204   5.640   0.787   0.339
 4461W        W 8205   3.341   5.956   4.072
 4462W        W 8206   9.693   5.694   1.388
 4463W        W 8207   1.779   4.617  10.215
 4464W        W 8208   9.172   9.801  11.169
 4465W        W 8209   7.929   8.970   2.317
 4466W        W 8210   7.016   2.189   9.330
 4467W        W 8211   4.798   1.774   0.493
 4468W        W 8212   4.794   7.329   2.951
 4469W        W 8213   1.399   1.270   9.364
 4470W        W 8214   9.863   0.010   1.717
 4471W        W 8215  10.259   5.105   8.732
 4472W        W 8216   7.614   6.612   9.535
 4473W        W 8217   2.200   2.237   0.125
 4474W        W 8218   8.469   2.899   0.336
 4475W        W 8219   8.307   6.536   0.584
 4476W        W 8220   5.610   5.686   2.749
 4477W        W 8221   5.176   4.361  10.346
 4478W        W 8222   6.404   2.196   8.855
 4479W        W 8223   3.277   9.110   0.790
 4480W        W 8224   4.330   3.393  10.394
 4481W        W 8225   4.873   1.540   1.211
 4482W        W 8226   7.542   1.848  11.805
 4483W        W 8227   8.079   3.982   3.627
 4484W        W 8228   3.646   2.721   9.526
 4485W        W 8229   2.766   4.337  11.453
 4486W        W 8230   9.409   1.877   9.085
 4487W        W 8231   3.428   4.446   3.999
 4488W        W 8232   9.270   3.269  10.354
 4489W        W 8233   7.755   3.216  10.980
 4490W        W 8234   1.378   5.598   1.969
 4491W        W 8235   1.843   8.180   2.253
 4492W        W 8236   7.909   3.683  10.811
 4493W        W 8237   5.279   4.672   2.689
 4494W        W 8238   1.863   7.095   0.040
 4495W        W 8239   6.939   1.299   1.281
 4496W        W 8240   5.439   7.427  11.682
 4497W        W 8241   1.748   4.617   9.182
 4498W        W 8242   8.635   4.193  10.013
 4499W        W 8243   5.161   8.009  11.353
 4500W        W 8244  10.220   6.689   2.909
 4501W        W 8245   4.701  10.226   1.202
 4502W        W 8246  10.245   7.271   2.158
 4503W        W 8247   4.618   3.251   0.553
 4504W        W 8248   1.866   4.742   2.827
 4505W        W 8249   0.229   7.486   3.275
 4506W        W 8250   3.940   9.915  11.891
 4507W        W 8251   8.096   8.252   1.675
 4508W        W 8252   9.395   7.130   8.692
 4509W        W 8253   3.176   0.912   9.429
 4510W        W 8254   1.983   3.263   0.545
 4511W        W 8255   5.911   2.106   9.647
 4512W        W 8256   5.234   7.536   8.532
 4513W        W 8257   6.786   8.906  11.458
 4514W        W 8258   9.077   3.221   3.422
 4515W        W 8259  10.096   2.218   1.124
 4516W        W 8260   1.325   7.117   0.882
 4517W        W 8261   8.612   2.191   8.745
 4518W        W 8262   7.308   2.222   1.777
 4519W        W 8263   8.512   0.251   1.259
 4520W        W 8264  10.365   0.864   9.206
 4521W        W 8265   0.753   2.953   3.672
 4522W        W 8266   9.883   6.631   3.322
 4523W        W 8267   3.835   5.681   2.690
 4524W        W 8268   8.465  10.241   1.821
 4525W        W 8269   8.635   4.164  10.934
 4526W        W 8270   4.158   9.854   8.883
 4527W        W 8271   1.129   2.331   2.203
 4528W        W 8272   6.929   7.591   8.925
 4529W        W 8273   1.442   3.124   9.571
 4530W        W 8274   2.807  10.410  11.078
 4531W        W 8275   8.241   5.970  10.425
 4532W        W 8276   6.665   1.547   1.713
 4533W        W 8277   3.810   8.617  10.439
 4534W        W 8278   4.364   0.014   0.814
 4535W        W 8279   2.463   7.647  11.003
 4536W        W 8280   3.113   2.953   2.977
 4537W        W 8281   1.762   0.203   2.077
 4538W        W 8282   8.478   6.323   8.588
 4539W        W 8283   7.507   2.166   0.199
 4540W        W 8284   6.939   7.435  11.703
 4541W        W 8285   3.285   6.513   9.972
 4542W        W 8286   6.053   3.796  11.743
 4543W        W 8287   2.102   4.804  11.150
 4544W        W 8288   2.425   5.105   1.903
 4545W        W 8289   3.279   7.871  10.357
 4546W        W 8290   0.733   7.889   0.527
 4547W        W 8291  10.233   6.986  10.304
 4548W        W 8292   2.025   5.034   9.483
 4549W        W 8293   4.638   5.044   1.102
 4550W        W 8294   2.317   0.703  11.515
 4551W        W 8295   4.065   9.083   2.584
 4552W        W 8296   7.149   9.332   9.767
 4553W        W 8297   9.838   6.122   3.361
 4554W        W 8298   9.684  10.437   9.074
 4555W        W 8299   7.441   7.423   8.935
 4556W        W 8300   5.715   4.169  11.846
 4557W        W 8301   6.582   7.590   3.195
 4558W        W 8302  10.097   5.622  11.305
 4559W        W 8303   8.981   8.891   2.825
 4560W        W 8304   2.391   3.673  10.578
 4561W        W 8305   5.657   0.317   2.223
 4562W        W 8306   0.248  10.434  11.707
 4563W        W 8307  10.358   1.831   3.454
 4564W        W 8308   0.300   0.140   0.707
 4565W        W 8309   3.300   3.795   1.688
 4566W        W 8310   7.112   9.018  10.460
 4567W        W 8311   7.370   7.156   1.157
 4568W        W 8312   4.640   6.190   2.759
 4569W        W 8313   8.669   6.969  11.395
 4570W        W 8314   5.965   8.611  11.024
 4571W        W 8315   1.267   3.170   1.153
 4572W        W 8316   8.211   9.418   2.251
 4573W        W 8317   6.480   4.076   0.336
 4574W        W 8318   3.180   9.835   1.926
 4575W        W 8319   2.650   7.671   9.057
 4576W        W 8320   0.715   4.341  11.717
 4577W        W 8321   4.233   9.083  11.591
 4578W        W 8322   7.949   7.511   9.073
 4579W        W 8323   3.314   1.259  11.964
 4580W        W 8324   8.086   6.669   8.729
 4581W        W 8325   3.553   1.439  11.540
 4582W        W 8326   3.923   9.616  10.289
 4583W        W 8327   1.669   2.764  11.293
 4584W        W 8328   5.349   9.559   2.478
 4585W        W 8329   9.207  10.315   9.263
 4586W        W 8330   7.280   8.484   0.281
 4587W        W 8331   8.037  10.110   0.848
 4588W        W 8332   9.519   2.799  10.380
 4589W        W 8333   5.120   0.351  10.102
 4590W        W 8334   7.332   8.539   2.271
 4591W        W 8335   7.139   5.040   2.503
 4592W        W 8336   3.138  10.440  10.465
 4593W        W 8337   2.441   3.305   9.784
 4594W        W 8338   2.448   5.564   2.707
 4595W        W 8339   7.860   5.502   3.534
 4596W        W 8340  10.409   6.579   3.410
 4597W        W 8341   7.810   8.785  11.441
 4598W        W 8342   7.856   3.157   2.614
 4599W        W 8343   2.312   0.233   0.358
 4600W        W 8344   0.817   3.968   0.681
 4601W        W 8345   3.869   4.074  10.005
 4602W        W 8346   1.356   6.507  11.546
 4603W        W 8347   6.673   2.298   1.234
 4604W        W 8348   1.232   1.543  11.694
 4605W        W 8349   2.176   9.963   3.520
 4606W        W 8350   9.502   7.062   0.478
 4607W        W 8351   1.356   2.320   1.749
 4608W        W 8352  10.302   9.236   0.409
 4609W        W 8353   0.164   1.784   3.046
 4610W        W 8354   4.661   3.614  11.473
 4611W        W 8355   5.083   1.743   9.764
 4612W        W 8356   7.692   3.590   1.597
 4613W        W 8357   1.165   0.578  11.915
 4614W        W 8358   5.417   7.960   9.107
 4615W        W 8359   9.588   2.326   8.818
 4616W        W 8360   2.214   6.696   3.364
 4617W        W 8361   2.742   7.066  11.652
 4618W        W 8362   6.114   6.574   2.398
 4619W        W 8363   4.457   4.363   0.198
 4620W        W 8364   6.928   0.709   2.695
 4621W        W 8365   5.233   3.019   1.621
 4622W        W 8366   1.351   2.382   2.751
 4623W        W 8367   0.159   5.191   0.542
 4624W        W 8368   7.020   2.693   9.521
 4625W        W 8369   3.598   6.389   3.116
 4626W        W 8370   0.065   7.948   9.425
 4627W        W 8371   1.441   8.878   1.385
 4628W        W 8372   1.669   4.056   0.181
 4629W        W 8373   6.695   7.511  10.756
 4630W        W 8374  10.036   2.641   8.864
 4631W        W 8375   9.915  10.007   8.756
 4632W        W 8376   8.975   9.615  10.308
 4633W        W 8377   3.707   3.141   0.944
 4634W        W 8378   0.861   4.080   9.942
 4635W        W 8379   2.301   4.319  11.237
 4636W        W 8380   1.893   6.395   1.113
 4637W        W 8381   9.074   5.023   1.951
 4638W        W 8382   0.736   1.365  11.544
 4639W        W 8383   3.339   9.249   9.038
 4640W        W 8384   5.419   7.581  11.197
 4641W        W 8385   6.973   2.360  11.186
 4642W        W 8386   5.404   8.540   2.417
 4643W        W 8387   9.340  10.275  11.319
 4644W        W 8388   3.842   1.344   2.421
 4645W        W 8389   5.392   3.602   8.171
 4646W        W 8390   6.425   9.498   2.378
 4647W        W 8391   2.836   3.231   2.108
 4648W        W 8392   5.708   8.813   3.543
 4649W        W 8393   8.545   6.089  11.315
 4650W        W 8394   1.019   1.355   0.419
 4651W        W 8395  10.482   9.608   0.109
 4652W        W 8396   0.219   1.114  10.266
 4653W        W 8397   3.967   6.617   1.960
 4654W        W 8398   3.416   5.200   1.927
 4655W        W 8399   2.714   7.198  10.313
 4656W        W 8400   6.259   1.742   1.127
 4657W        W 8401   6.653   9.086   3.205
 4658W        W 8402   4.102   9.164   0.172
 4659W        W 8403   2.341   1.250   9.579
 4660W        W 8404   4.293   0.338  11.703
 4661W        W 8405   7.456   4.977   4.067
 4662W        W 8406   7.782  10.272   9.109
 4663W        W 8407   0.673   6.802   0.324
 4664W        W 8408   8.058   6.123  11.507
 4665W        W 8409   6.240   7.022  11.974
 4666W        W 8410   7.177   1.408  10.283
 4667W        W 8411   0.813   2.608   0.344
 4668W        W 8412   0.935   4.802  10.443
 4669W        W 8413   9.408   8.975  10.663
 4670W        W 8414   6.069   2.870  11.239
 4671W        W 8415   3.117   1.879   2.592
 4672W        W 8416   6.441   5.474  11.295
 4673W        W 8417   3.902   3.158  10.273
 4674W        W 8418   2.861   8.284   0.905
 4675W        W 8419   4.525   3.184   8.433
 4676W        W 8420   4.563   4.121   8.381
 4677W        W 8421   7.978   6.061  10.997
 4678W        W 8422   8.217   7.443  11.908
 4679W        W 8423   8.152   1.174   9.645
 4680W        W 8424   9.367   6.293   2.478
 4681W        W 8425   7.394   3.604   9.375
 4682W        W 8426   1.201   8.885   9.083
 4683W        W 8427   0.702   4.355  11.212
 4684W        W 8428   8.369   8.963   2.021
 4685W        W 8429   7.838   0.904   0.237
 4686W        W 8430  10.443   7.087   2.650
 4687W        W 8431   4.023   1.663   0.811
 4688W        W 8432   4.410   4.039   4.040
 4689W        W 8433   8.690   9.957   0.511
 4690W        W 8434   9.434   3.290   8.920
 4691W        W 8435   0.203   1.441   0.276
 4692W        W 8436   8.411   4.788   1.183
 4693W        W 8437   3.210   9.374   1.657
 4694W        W 8438   2.514   9.117   8.586
 4695W        W 8439   5.157   6.978   2.859
 4696W        W 8440   9.555   1.049   9.469
 4697W        W 8441   4.100   8.712  11.945
 4698W        W 8442   7.633   3.062  11.464
 4699W        W 8443   6.342   6.936   1.014
 4700W        W 8444   5.275   8.036   1.779
 4701W        W 8445   0.060   6.877   2.202
 4702W        W 8446   9.703   5.952   0.937
 4703W        W 8447   3.665   4.308  11.490
 4704W        W 8448   9.873   3.878  11.832
 4705W        W 8449   4.618   2.680   8.307
 4706W        W 8450   7.717   5.379   9.951
 4707W        W 8451   7.610   7.897  11.573
 4708W        W 8452   8.377  10.221  11.292
 4709W        W 8453   0.926   2.100  10.976
 4710W        W 8454   7.557   6.062   1.751
 4711W        W 8455   4.861   8.188   1.383
 4712W        W 8456   4.030   1.634   3.151
 4713W        W 8457   1.619   0.321  11.717
 4714W        W 8458   4.215   5.760   1.832
 4715W        W 8459   7.473   1.765  10.983
 4716W        W 8460   7.726   6.319   9.959
 4717W        W 8461   7.066   3.227   8.433
 4718W        W 8462   3.705   6.026   9.919
 4719W        W 8463   1.371   2.897  10.308
 4720W        W 8464   2.398   8.354   0.051
 4721W        W 8465   8.119   7.635   0.815
 4722W        W 8466   3.613   6.383   2.241
 4723W        W 8467   2.640   6.468   3.170
 4724W        W 8468   5.275   0.419  11.366
 4725W        W 8469   0.328   8.373   2.416
 4726W        W 8470   3.744   2.341  10.855
 4727W        W 8471   5.103   8.463   1.981
 4728W        W 8472   5.229   0.366   2.496
 4729W        W 8473   4.211   5.616   9.763
 4730W        W 8474   3.764   5.456  10.641
 4731W        W 8475   0.448   2.956   2.631
 4732W        W 8476   9.287   4.369   2.930
 4733W        W 8477   2.214   6.180   3.267
 4734W        W 8478   8.995   4.570  11.587
 4735W        W 8479   7.041   5.201  11.044
 4736W        W 8480   7.992   5.505  11.821
 4737W        W 8481   2.634   9.967  11.410
 4738W        W 8482   9.995  10.276   3.645
 4739W        W 8483   8.909   9.838   9.051
 4740W        W 8484   4.658  10.052   2.196
 4741W        W 8485   5.562   9.378  11.239
 4742W        W 8486   3.171   8.666  10.964
 4743W        W 8487   9.572   6.577   0.641
 4744W        W 8488   2.651  10.417  10.564
 4745W        W 8489   2.123   2.573   1.124
 4746W        W 8490   6.975   1.368   2.906
 4747W        W 8491   8.420   9.406   1.770
 4748W        W 8492   4.783   4.484   9.994
 4749W        W 8493   9.379   7.936   1.490
 4750W        W 8494   3.607   7.936   9.967
 4751W        W 8495   5.955   4.176   1.706
 4752W        W 8496   9.866   2.989  11.570
 4753W        W 8497   6.882   3.231  10.779
 4754W        W 8498   9.064   9.921   8.580
 4755W        W 8499  10.409   6.082  10.314
 4756W        W 8500   2.273   0.326   0.920
 4757W        W 8501   0.698   6.008  11.957
 4758W        W 8502   6.010   5.213  11.132
 4759W        W 8503  10.302   3.659   9.862
 4760W        W 8504   5.771   8.939  11.461
 4761W        W 8505   9.881   6.422   9.979
 4762W        W 8506   4.897   1.178  11.741
 4763W        W 8507   9.921   4.395  11.913
 4764W        W 8508   8.842   7.229   9.435
 4765W        W 8509   4.719   0.327   0.548
 4766W        W 8510   7.405   5.325   3.084
 4767W        W 8511   3.911  10.079   9.577
 4768W        W 8512   8.748   0.920  10.969
 4769W        W 8513   1.400   5.531   1.406
 4770W        W 8514   6.656   1.499   0.841
 4771W        W 8515   0.962   7.695   1.364
 4772W        W 8516  10.267   7.510  11.426
 4773W        W 8517   3.620   9.887   2.613
 4774W        W 8518   5.912   2.418   0.908
 4775W        W 8519   2.195   4.052  11.659
 4776W        W 8520   3.176   8.024   1.426
 4777W        W 8521   1.303   2.820   2.475
 4778W        W 8522   7.056   8.426   2.930
 4779W        W 8523   2.217   3.044   0.968
 4780W        W 8524   7.890   9.938   0.307
 4781W        W 8525   7.009   8.579  10.190
 4782W        W 8526   6.148   8.844   0.779
 4783W        W 8527   9.453   3.809   8.740
 4784W        W 8528   3.237   3.586   2.155
 4785W        W 8529   8.521   9.761  11.946
 4786W        W 8530   5.638   8.541  10.445
 4787W        W 8531   9.113   9.291   2.513
 4788W        W 8532   2.561   0.940  11.915
 4789W        W 8533   1.218  10.327   3.153
 4790W        W 8534   5.640   5.990   2.341
 4791W        W 8535   1.472   8.122  10.542
 4792W        W 8536   9.471   4.577   1.478
 4793W        W 8537   5.951   8.443   2.335
 4794W        W 8538   5.871   8.892   0.340
 4795W        W 8539   4.300   1.893   0.454
 4796W        W 8540   6.048   9.829   9.112
 4797W        W 8541   8.873   1.214   0.799
 4798W        W 8542   4.657   4.992   2.131
 4799W        W 8543   6.712   1.140  10.565
 4800W        W 8544   3.388   3.178   9.085
 4801W        W 8545   8.158   9.325   8.771
 4802W        W 8546   3.751   2.320  10.328
 4803W        W 8547   7.400   7.075   2.163
 4804W        W 8548   8.965   3.723   3.366
 4805W        W 8549   5.069   9.441  11.236
 4806W        W 8550   7.473  10.308   8.319
 4807W        W 8551   0.790   3.826   1.169
 4808W        W 8552   5.464   6.885  10.117
 4809W        W 8553   2.935   7.716  11.114
 4810W        W 8554   9.869   0.314   9.530
 4811W        W 8555   6.784   3.708   0.141
 4812W        W 8556   5.005   7.409   1.834
 4813W        W 8557   9.386   6.052   3.596
 4814W        W 8558   7.387   9.753   2.456
 4815W        W 8559  10.129   8.441  11.402
 4816W        W 8560   5.497   2.182   9.325
 4817W        W 8561   3.333   5.495   2.384
 4818W        W 8562   1.486   4.616   3.173
 4819W        W 8563   7.709   5.645   9.516
 4820W        W 8564   0.723   8.306  10.351
 4821W        W 8565  10.295   1.150   0.420
 4822W        W 8566   4.742   9.617   0.125
 4823W        W 8567   8.960   6.521  10.219
 4824W        W 8568   0.252  10.159   0.875
 4825W        W 8569   6.394   2.721   8.984
 4826W        W 8570   4.972   6.626  11.772
 4827W        W 8571   2.614   7.688   9.580
 4828W        W 8572   5.591   0.791   9.526
 4829W        W 8573  10.014   7.376  10.985
 4830W        W 8574   6.797   4.217   8.802
 4831W        W 8575  10.342   9.539  11.621
 4832W        W 8576   3.144   8.097   3.021
 4833W        W 8577   8.425   9.767   8.844
 4834W        W 8578   3.254   5.470  11.515
 4835W        W 8579   0.585   7.592   2.682
 4836W        W 8580   9.365   5.353   2.734
 4837W        W 8581   3.358   9.438  10.425
 4838W        W 8582   7.707   1.973   8.472
 4839W        W 8583   5.474   6.704  11.539
 4840W        W 8584   6.904   6.974   9.486
 4841W        W 8585   0.389   1.595   0.917
 4842W        W 8586  10.200   0.683   1.833
 4843W        W 8587   1.877   8.628   1.318
 4844W        W 8588   3.084   5.189   3.592
 4845W        W 8589   3.812   1.874  10.585
 4846W        W 8590   0.867   9.447  10.871
 4847W        W 8591   0.150   0.443   9.994
 4848W        W 8592   4.291   1.703  11.984
 4849W        W 8593   5.433   7.790   9.959
 4850W        W 8594   0.424   8.743  10.466
 4851W        W 8595   7.131   5.963  11.562
 4852W        W 8596   0.347   9.484  10.837
 4853W        W 8597   3.559   0.823   3.127
 4854W        W 8598   0.111   8.288   1.249
 4855W        W 8599   4.152   5.552  11.045
 4856W        W 8600   9.852   1.716   3.392
 4857W        W 8601   7.613   2.739  10.861
 4858W        W 8602   5.572   3.140   0.703
 4859W        W 8603   3.271   2.984   0.728
 4860W        W 8604   3.577   4.936  11.693
 4861W        W 8605   2.339   9.480   3.316
 4862W        W 8606   5.709   3.414  10.298
 4863W        W 8607   0.793   9.745  11.773
 4864W        W 8608   8.531   2.858  10.999
 4865W        W 8609   4.824   2.550   0.241
 4866W        W 8610   9.957   3.830   3.134
 4867W        W 8611   5.449   1.348   3.389
 4868W        W 8612   4.182   4.985   2.978
 4869W        W 8613   3.608   8.151   2.597
 4870W        W 8614   0.860  10.397   9.019
 4871W        W 8615   7.467   0.936   2.034
 4872W        W 8616   9.375   8.757   3.250
 4873W        W 8617  10.150   9.885  11.305
 4874W        W 8618   0.456   3.923   9.676
 4875W        W 8619   1.242   1.442   2.718
 4876W        W 8620   0.986   7.531   0.898
 4877W        W 8621   5.621   3.833  11.448
 4878W        W 8622   7.075   8.317   0.722
 4879W        W 8623   3.844   0.364  11.999
 4880W        W 8624   6.023   0.185  10.387
 4881W        W 8625   6.305   5.147   1.338
 4882W        W 8626   7.913   2.375  11.043
 4883W        W 8627   8.909   0.953  10.335
 4884W        W 8628   3.608   5.245   0.723
 4885W        W 8629   3.745   7.903  10.952
 4886W        W 8630   4.937   9.346   2.204
 4887W        W 8631   1.103   4.118   9.493
 4888W        W 8632   4.176   9.248   2.103
 4889W        W 8633   6.524   6.495   0.277
 4890W        W 8634   7.015   3.033  10.333
 4891W        W 8635   3.114  10.273   0.365
 4892W        W 8636   4.934   4.226   0.377
 4893W        W 8637   5.173  10.446   9.232
 4894W        W 8638   0.841   2.438   1.266
 4895W        W 8639   0.513   3.471  11.433
 4896W        W 8640   2.392   9.044   3.043
 4897W        W 8641   0.654   2.175   2.243
 4898W        W 8642   5.386   0.305   1.257
 4899W        W 8643   0.163   2.244   9.831
 4900W        W 8644   0.107   3.152   3.384
 4901W        W 8645   6.283   4.748  10.738
 4902W        W 8646   4.374   5.371  11.646
 4903W        W 8647   2.406   0.262   1.427
 4904W        W 8648   3.806   2.172   0.874
 4905W        W 8649   2.881   8.538   0.321
 4906W        W 8650   6.570   3.250   2.308
 4907W        W 8651   2.350   7.905   1.573
 4908W        W 8652   9.708   7.484   3.226
 4909W        W 8653   8.123   5.493  10.251
 4910W        W 8654   2.457   2.100   3.298
 4911W        W 8655   1.914   1.185   3.004
 4912W        W 8656   4.403   0.310  10.316
 4913W        W 8657   9.399   6.239   1.964
 4914W        W 8658   4.806   1.751  11.971
 4915W        W 8659   9.142   9.914   0.748
 4916W        W 8660   6.428   7.242   1.403
 4917W        W 8661   3.797   5.646   0.943
 4918W        W 8662   8.382   5.675  11.030
 4919W        W 8663   6.635   8.754   9.411
 4920W        W 8664   0.498   3.095  11.857
 4921W        W 8665   3.733   6.471   0.938
 4922W        W 8666   0.906   5.814  11.170
 4923W        W 8667   9.533   3.051   3.262
 4924W        W 8668   7.578   4.520   1.804
 4925W        W 8669   9.584   0.623   9.820
 4926W        W 8670   0.308   8.988  10.022
 4927W        W 8671   7.489   8.393  10.979
 4928W        W 8672   1.839   5.434   9.183
 4929W        W 8673   1.767   3.625   2.332
 4930W        W 8674   5.210   0.182  11.823
 4931W        W 8675   1.910   5.614   2.717
 4932W        W 8676   7.629   6.981  11.435
 4933W        W 8677   8.360   1.907   3.385
 4934W        W 8678  10.350   5.143  11.107
 4935W        W 8679   2.282   7.359  10.586
 4936W        W 8680   8.990   1.973   1.715
 4937W        W 8681   5.992   3.305  11.909
 4938W        W 8682   7.148   2.138   1.245
 4939W        W 8683   4.587   2.230   9.035
 4940W        W 8684   6.117  10.384  11.338
 4941W        W 8685   2.638  10.211   2.139
 4942W        W 8686   3.354   7.870  11.336
 4943W        W 8687   4.345   6.270   1.969
 4944W        W 8688   1.559   7.851   3.610
 4945W        W 8689   9.855   0.882   9.066
 4946W        W 8690   4.592   8.859   0.844
 4947W        W 8691   2.774   8.391  11.718
 4948W        W 8692   7.973   0.224   1.976
 4949W        W 8693   3.197   5.733   3.588
 4950W        W 8694   0.240   6.669   2.843
 4951W        W 8695   7.323   2.639   9.120
 4952W        W 8696   5.477   3.937   3.959
 4953W        W 8697   1.907   0.386   1.318
 4954W        W 8698   4.279   6.369  11.475
 4955W        W 8699   9.078   2.679  11.758
 4956W        W 8700   0.493   4.659   9.085
 4957W        W 8701   0.038   7.507   0.613
 4958W        W 8702   7.716   1.616  11.403
 4959W        W 8703   3.532   4.856   9.075
 4960W        W 8704   8.919   1.396   3.036
 4961W        W 8705   1.878   3.392   8.865
 4962W        W 8706   2.699   0.739   9.417
 4963W        W 8707   7.107   9.796   3.173
 4964W        W 8708   4.185  10.343   1.298
 4965W        W 8709   8.388   0.498   2.208
 4966W        W 8710   2.394   7.230   2.168
 4967W        W 8711   9.241   6.516  11.623
 4968W        W 8712  10.407   8.863  11.360
 4969W        W 8713   4.101   0.800  11.862
 4970W        W 8714   2.299   3.806   2.149
 4971W        W 8715   3.157   5.685   8.769
 4972W        W 8716   0.456   5.963   9.461
 4973W        W 8717   0.825   6.622   3.368
 4974W        W 8718   5.638   2.361   1.358
 4975W        W 8719   2.109   0.186   8.988
 4976W        W 8720   9.008   9.947   0.055
 4977W        W 8721   0.930   6.592   9.819
 4978W        W 8722  10.480   6.593   1.039
 4979W        W 8723   9.464   4.633  11.839
 4980W        W 8724   5.938   6.065  11.038
 4981W        W 8725   6.597   5.032   1.741
 4982W        W 8726   8.510   7.912  11.459
 4983W        W 8727   5.672   0.223   2.738
 4984W        W 8728   6.177   1.756   3.228
 4985W        W 8729   0.819   3.086   3.186
 4986W        W 8730   6.594  10.237  10.605
 4987W        W 8731   5.546   3.828   9.946
 4988W        W 8732   9.894   8.208   2.365
 4989W        W 8733   5.989   6.415   2.875
 4990W        W 8734   5.209  10.361   1.055
 4991W        W 8735   5.561   1.759  11.028
 4992W        W 8736   5.288   8.884   8.833
 4993W        W 8737   8.310   0.502  10.911
 4994W        W 8738   5.086   8.828   9.865
 4995W        W 8739   8.847   1.862  11.153
 4996W        W 8740   3.165  10.117   2.365
 4997W        W 8741   9.567   0.992  10.487
 4998W        W 8742   1.642   7.183   1.362
 4999W        W 8743   5.721   7.555   8.362
 5000W        W 8744   4.696   4.116  11.393
 5001W        W 8745   1.229  10.244   1.385
 5002W        W 8746   3.481  10.441   0.734
 5003W        W 8747   6.597   9.113   2.643
 5004W        W 8748   5.852  10.316   2.981
 5005W        W 8749   4.850   8.308   8.535
 5006W        W 8750   2.670   1.582   1.770
 5007W        W 8751   1.882   2.611   0.255
 5008W        W 8752   1.690   8.904   0.900
 5009W        W 8753   2.345   8.483   9.903
 5010W        W 8754   7.568   6.025  11.304
 5011W        W 8755   8.876   3.739  10.106
 5012W        W 8756   0.913   6.545  10.714
 5013W        W 8757   5.169   8.528   3.312
 5014W        W 8758   4.538   3.228   2.269
 5015W        W 8759   7.630   6.456   8.557
 5016W        W 8760   0.266   4.264  10.933
 5017W        W 8761   0.416   3.415   9.579
 5018W        W 8762   5.516   8.527  11.318
 5019W        W 8763   5.315   1.146   2.003
 5020W        W 8764   6.455   6.804   3.613
 5021W        W 8765   4.237   3.853   3.212
 5022W        W 8766   5.245   1.879  11.725
 5023W        W 8767   1.792   8.193   2.775
 5024W        W 8768   6.454   7.816   9.055
 5025W        W 8769   8.857   5.250   2.785
 5026W        W 8770  10.308   8.835  10.502
 5027W        W 8771   0.644   9.836   0.755
 5028W        W 8772   1.207   0.001   2.663
 5029W        W 8773   7.945   2.492  11.534
 5030W        W 8774   5.135   7.720   2.202
 5031W        W 8775   2.740   6.386   9.437
 5032W        W 8776   2.861   0.341   2.491
 5033W        W 8777   7.456   2.121   2.595
 5034W        W 8778   5.116   9.374   9.003
 5035W        W 8779   1.355   4.830   8.870
 5036W        W 8780   9.419   3.841   2.066
 5037W        W 8781   1.373   7.607  10.315
 5038W        W 8782   9.466   8.538  10.878
 5039W        W 8783   5.111   3.019   9.912
 5040W        W 8784   9.813   5.032   9.031
 5041W        W 8785   0.672   4.370   9.506
 5042W        W 8786   7.829   0.877   9.377
 5043W        W 8787   8.915   7.996   0.723
 5044W        W 8788   9.875   1.347  11.691
 5045W        W 8789   0.010   7.822  10.337
 5046W        W 8790   3.029   1.486   2.896
 5047W        W 8791   8.634   8.687  11.019
 5048W        W 8792  10.432   7.662  11.899
 5049W        W 8793   4.253   7.239  11.941
 5050W        W 8794   5.348   2.398   0.147
 5051W        W 8795   0.270   2.560  11.289
 5052W        W 8796   6.200   8.357   0.903
 5053W        W 8797   6.970   6.866   1.945
 5054W        W 8798   4.790   1.311   0.235
 5055W        W 8799   3.245   8.198   0.032
 5056W        W 8800   0.439   4.632   2.997
 5057W        W 8801   4.775   0.240   1.061
 5058W        W 8802   2.150   0.673  11.036
 5059W        W 8803   9.788   3.122   0.561
 5060W        W 8804   0.513   8.807   2.600
 5061W        W 8805   6.128   2.414   0.451
 5062W        W 8806   2.626   9.116  11.512
 5063W        W 8807   5.703   6.358   0.433
 5064W        W 8808   0.189   7.929  10.837
 5065W        W 8809   0.948   9.939  10.887
 5066W        W 8810   6.167   9.373   2.810
 5067W        W 8811   6.981   6.996   2.998
 5068W        W 8812  10.308   6.263  11.743
 5069W        W 8813   3.255   7.369  11.295
 5070W        W 8814   1.725   1.245   2.494
 5071W        W 8815   0.376   2.627   2.199
 5072W        W 8816   7.445   0.433   0.757
 5073W        W 8817  10.029   7.383   2.619
 5074W        W 8818   8.916   3.820   1.226
 5075W        W 8819   6.878   9.509   8.989
 5076W        W 8820   1.218   0.425  10.897
 5077W        W 8821   6.741   4.178   3.588
 5078W        W 8822   9.823   6.689  10.425
 5079W        W 8823   9.754   3.206   2.450
 5080W        W 8824   1.893   9.449   0.820
 5081W        W 8825   9.988   2.725  10.597
 5082W        W 8826   0.932  10.484  10.038
 5083W        W 8827   6.123   0.182   3.501
 5084W        W 8828   9.356   8.056   0.476
 5085W        W 8829   1.812  10.259  10.000
 5086W        W 8830   3.162   4.945  10.350
 5087W        W 8831   2.577   9.404  10.245
 5088W        W 8832   3.642   4.122  10.480
 5089W        W 8833   2.396   8.589   0.940
 5090W        W 8834   6.092   3.900   2.185
 5091W        W 8835   3.171   8.145  10.944
 5092W        W 8836  10.118   9.445   3.484
 5093W        W 8837   3.693   1.347   8.759
 5094W        W 8838   5.986   5.500   2.415
 5095W        W 8839   5.992   3.245   1.425
 5096W        W 8840   4.107   6.085  11.084
 5097W        W 8841   4.742   8.951  11.515
 5098W        W 8842   2.148   4.444   9.459
 5099W        W 8843   7.451   3.748   8.490
 5100W        W 8844   4.762   7.386   2.398
 5101W        W 8845   8.401   5.514   2.641
 5102W        W 8846   5.037   8.850  11.921
 5103W        W 8847   7.092   3.187   9.406
 5104W        W 8848   0.369   8.219   3.372
 5105W        W 8849   4.358   2.778  11.370
 5106W        W 8850   9.890   3.206   1.462
 5107W        W 8851   3.716   3.675   3.446
 5108W        W 8852   2.968   9.797   0.775
 5109W        W 8853   2.512   4.881   9.524
 5110W        W 8854   2.672   1.237   2.248
 5111W        W 8855   6.190   1.358  11.044
 5112W        W 8856   2.602   3.249  10.336
 5113W        W 8857   4.318   7.529   8.951
 5114W        W 8858   6.529   7.354   3.674
 5115W        W 8859   1.345   6.073   2.180
 5116W        W 8860   9.213   5.965  10.241
 5117W        W 8861   5.090   9.461   1.663
 5118W        W 8862   3.845   1.185   3.401
 5119W        W 8863   3.638   9.625   9.486
 5120W        W 8864   9.725   0.423   2.414
 5121W        W 8865   5.174   2.319  11.402
 5122W        W 8866   1.968   1.712   1.020
 5123W        W 8867   6.954   9.405   2.370
 5124W        W 8868   9.251  10.402   8.732
 5125W        W 8869   5.103   5.617   1.658
 5126W        W 8870   1.479   7.118   9.346
 5127W        W 8871   8.818   0.905   0.336
 5128W        W 8872   9.394   7.546   9.673
 5129W        W 8873   9.083   0.897   1.233
 5130W        W 8874   6.575   6.213   1.333
 5131W        W 8875   0.849   4.825  11.825
 5132W        W 8876   6.583   3.563  11.233
 5133W        W 8877   8.834   7.200   1.143
 5134W        W 8878   6.483   8.359  11.363
 5135W        W 8879   4.289   0.407   8.770
 5136W        W 8880   9.381   3.652  11.952
 5137W        W 8881   2.456   0.906   0.500
 5138W        W 8882   1.250   0.063   2.161
 5139W        W 8883   8.255   0.004   9.287
 5140W        W 8884   8.219   1.396   2.705
 5141W        W 8885   4.102   7.533   8.485
 5142W        W 8886   2.417   6.502  10.585
 5143W        W 8887   5.738   6.521   9.891
 5144W        W 8888   3.331   6.446   0.597
 5145W        W 8889   4.712   1.156   9.760
 5146W        W 8890   6.700   6.463  10.773
 5147W        W 8891   2.293   6.960  10.951
 5148W        W 8892   3.607   7.685   0.256
 5149W        W 8893   5.202   4.172  11.762
 5150W        W 8894   0.461   7.031   3.346
 5151W        W 8895   6.546   0.714  11.488
 5152W        W 8896   2.744   5.556   0.256
 5153W        W 8897   3.799   0.552   8.849
 5154W        W 8898   4.591   7.844   1.072
 5155W        W 8899   8.596   2.902  11.815
 5156W        W 8900   8.988   7.221   8.362
 5157W        W 8901   4.582   6.285   9.447
 5158W        W 8902  10.080  10.259   9.934
 5159W        W 8903   1.909   5.259  11.348
 5160W        W 8904  10.080   3.999   0.866
 5161W        W 8905   8.026   5.904   1.909
 5162W        W 8906   2.001   0.011   1.666
 5163W        W 8907   6.166   0.783   1.649
 5164W        W 8908   4.302   7.207   2.449
 5165W        W 8909   2.175   1.117   2.274
 5166W        W 8910   7.686   5.969   8.416
 5167W        W 8911   7.662   4.608   0.261
 5168W        W 8912   2.713   8.136   8.860
 5169W        W 8913   6.941   5.887   1.453
 5170W        W 8914   9.096   9.429   9.303
 5171W        W 8915   7.461   2.595   0.459
 5172W        W 8916   5.605   1.212   2.808
 5173W        W 8917   0.168   6.092  10.780
 5174W        W 8918   4.183   2.408  10.615
 5175W        W 8919   3.177  10.023   3.415
 5176W        W 8920   6.104   7.857   9.438
 5177W        W 8921   1.443   7.576   0.624
 5178W        W 8922   8.134   6.987  11.353
 5179W        W 8923   5.165   2.696  11.764
 5180W        W 8924   0.384   3.606  11.900
 5181W        W 8925   4.601   7.550   3.870
 5182W        W 8926   9.012   2.628   2.349
 5183W        W 8927   2.704   5.465  10.785
 5184W        W 8928   6.939   2.666   3.036
 5185W        W 8929   0.357   7.975  11.761
 5186W        W 8930  10.255   1.668   0.414
 5187W        W 8931   1.387   6.240   1.178
 5188W        W 8932   2.468   3.786   0.033
 5189W        W 8933   2.669   3.234   0.830
 5190W        W 8934   8.522   8.134   2.045
 5191W        W 8935   6.549   0.431   9.229
 5192W        W 8936   3.087   3.129  11.923
 5193W        W 8937   2.386   2.999  11.505
 5194W        W 8938   0.316   2.348   0.194
 5195W        W 8939   4.871   8.839   0.420
 5196W        W 8940   6.684   7.716   2.488
 5197W        W 8941   4.784   0.812  11.322
 5198W        W 8942   1.932   1.383  10.901
 5199W        W 8943   9.575   4.212  10.930
 5200W        W 8944   3.757   1.885  10.060
 5201W        W 8945   0.941  10.283  10.511
 5202W        W 8946   7.442   1.351   1.204
 5203W        W 8947   5.143   8.807  10.534
 5204W        W 8948   5.805   8.433   8.638
 5205W        W 8949   8.160   0.895   0.678
 5206W        W 8950   4.546   4.267   3.183
 5207W        W 8951   8.449  10.016   2.557
 5208W        W 8952  10.442   8.776   0.296
 5209W        W 8953   1.919   9.052   2.296
 5210W        W 8954   5.752   6.902  11.912
 5211W        W 8955   4.627   2.326   1.518
 5212W        W 8956   5.134   4.794   9.777
 5213W        W 8957   3.370   8.865  10.300
 5214W        W 8958   2.888   0.956   9.852
 5215W        W 8959   6.971   3.766  11.530
 5216W        W 8960   1.377   2.473   8.849
 5217W        W 8961   3.772   7.045   1.759
 5218W        W 8962  10.330   9.942   0.654
 5219W        W 8963   2.687  10.366   1.254
 5220W        W 8964   3.648   9.608   2.021
 5221W        W 8965   5.465   4.603  11.869
 5222W        W 8966   1.667   4.098   2.171
 5223W        W 8967  10.444   5.563   1.857
 5224W        W 8968   0.448   7.160   9.783
 5225W        W 8969   2.459   7.413   8.638
 5226W        W 8970   2.631   4.972  10.742
 5227W        W 8971   5.335   0.333   9.622
 5228W        W 8972   0.781   8.778  10.849
 5229W        W 8973   9.511   0.979   2.468
 5230W        W 8974   4.277   0.401   9.284
 5231W        W 8975   9.760   1.834   1.953
 5232W        W 8976   8.092   6.644   1.084
 5233W        W 8977   6.545   6.699  11.744
 5234W        W 8978   0.472   5.611   8.796
 5235W        W 8979   3.286   1.969   0.411
 5236W        W 8980   5.449   8.886  10.982
 5237W        W 8981   0.975   8.889   8.622
 5238W        W 8982   9.334   8.942  11.505
 5239W        W 8983   6.086   0.865   0.652
 5240W        W 8984   6.103   6.608   1.745
 5241W        W 8985   1.199   1.779   9.348
 5242W        W 8986   5.471   8.009   8.594
 5243W        W 8987   4.791   3.158   1.814
 5244W        W 8988   0.016   1.310   8.988
 5245W        W 8989   2.909   5.707   2.598
 5246W        W 8990   9.394   7.039   1.946
 5247W        W 8991   0.080   7.576   2.777
 5248W        W 8992   0.345  10.495   2.645
 5249W        W 8993   2.425   8.908  10.487
 5250W        W 8994   9.617   9.438   9.466
 5251W        W 8995   7.693   8.008   9.397
 5252W        W 8996   6.378   3.914   8.685
 5253W        W 8997   8.879   2.346  10.074
 5254W        W 8998   2.941   3.637   0.239
 5255W        W 8999   3.497   3.042   1.386
 5256W        W 9000   7.525   0.068   3.286
 5257W        W 9001   1.373   3.859   3.250
 5258W        W 9002   8.714   0.866   9.560
 5259W        W 9003   4.630   5.961   2.281
 5260W        W 9004   2.694   5.353   9.457
 5261W        W 9005   6.468   1.789  10.983
 5262W        W 9006   5.679   9.987  10.595
 5263W        W 9007   1.675   9.907   2.119
 5264W        W 9008   4.244   5.273   2.077
 5265W        W 9009   5.538   8.862  10.074
 5266W        W 9010   5.407   7.137   8.246
 5267W        W 9011   5.537   8.898  11.920
 5268W        W 9012   3.083   4.243   1.862
 5269W        W 9013   1.688   6.020   3.040
 5270W        W 9014   3.034   7.445   9.370
 5271W        W 9015   3.584   6.123   3.591
 5272W        W 9016   9.410   8.893   1.410
 5273W        W 9017   0.385  10.254   9.536
 5274W        W 9018   1.512   7.337   2.640
 5275W        W 9019   8.829   2.228   2.717
 5276W        W 9020   6.598   1.046   2.457
 5277W        W 9021   6.170  10.176   9.467
 5278W        W 9022   8.352   9.042  10.755
 5279W        W 9023   0.581   8.218   0.155
 5280W        W 9024   2.337   1.677   1.368
 5281W        W 9025  10.485   6.737   0.080
 5282W        W 9026   4.339   6.076   0.234
 5283W        W 9027   2.899   9.901   9.542
 5284W        W 9028   7.032   5.823   2.135
 5285W        W 9029   9.082   5.073  10.041
 5286W        W 9030  10.277   4.858   0.855
 5287W        W 9031   2.490   9.929   0.958
 5288W        W 9032   4.293   2.100   0.943
 5289W        W 9033   0.801   1.866   8.879
 5290W        W 9034   6.488   3.228   1.502
 5291W        W 9035   5.324   3.318   8.583
 5292W        W 9036   5.427   9.872   3.803
 5293W        W 9037   5.120   9.015   1.433
 5294W        W 9038   5.214   2.873   3.890
 5295W        W 9039   7.908   1.804   0.275
 5296W        W 9040   7.867   6.381   2.013
 5297W        W 9041   1.659   6.039  10.863
 5298W        W 9042   0.300   0.886   8.910
 5299W        W 9043   5.762   2.866   1.095
 5300W        W 9044   8.664   5.776   8.363
 5301W        W 9045   0.549   5.502   0.456
 5302W        W 9046   7.502   4.710   3.609
 5303W        W 9047   7.966   5.713   0.864
 5304W        W 9048   7.887   2.295   0.972
 5305W        W 9049   0.282  10.391  11.177
 5306W        W 9050   8.186   5.883   3.374
 5307W        W 9051   6.999   8.063  10.467
 5308W        W 9052   7.946  10.261   1.738
 5309W        W 9053   6.118  10.381   0.694
 5310W        W 9054   7.320   4.521   9.980
 5311W        W 9055   3.562   2.628   0.972
 5312W        W 9056   4.800   2.268   3.452
 5313W        W 9057   3.917   3.963   2.399
 5314W        W 9058   2.260   7.080  10.063
 5315W        W 9059   7.478  10.044   9.768
 5316W        W 9060   1.341   1.895   2.473
 5317W        W 9061   5.783   4.656   1.903
 5318W        W 9062   9.497   2.649  11.466
 5319W        W 9063   3.135   3.482   0.720
 5320W        W 9064   9.496   3.886   2.929
 5321W        W 9065   5.725   4.659   2.423
 5322W        W 9066   0.482   3.786   2.590
 5323W        W 9067   4.147   7.317  11.461
 5324W        W 9068   8.411   4.284   2.323
 5325W        W 9069   0.021   5.694   0.699
 5326W        W 9070   0.894   0.132   9.533
 5327W        W 9071   8.511   5.744  10.058
 5328W        W 9072  10.488   2.631  10.435
 5329W        W 9073   5.594   1.468   1.704
 5330W        W 9074   8.958   6.563   8.670
 5331W        W 9075   7.923   4.935   1.088
 5332W        W 9076   7.496   4.439   4.033
 5333W        W 9077   3.788   5.402   2.214
 5334W        W 9078  10.295   1.374  11.967
 5335W        W 9079   8.983   8.393   2.060
 5336W        W 9080   5.553   3.936   9.076
 5337W        W 9081   8.081   9.372   1.352
 5338W        W 9082   8.913   4.192   9.556
 5339W        W 9083   9.027   8.587   9.942
 5340W        W 9084   3.773   3.098   8.725
 5341W        W 9085   7.019   6.943   2.477
 5342W        W 9086   5.486  10.037   8.588
 5343W        W 9087   7.647   9.272  11.441
 5344W        W 9088   9.213   7.001   1.466
 5345W        W 9089   0.133   5.034   2.852
 5346W        W 9090   6.752   6.555   9.779
 5347W        W 9091   9.746   9.430   3.105
 5348W        W 9092   9.557   6.952   2.596
 5349W        W 9093   4.201   6.372  10.624
 5350W        W 9094   3.790   0.516   2.013
 5351W        W 9095   5.857   3.271   8.552
 5352W        W 9096   8.545   4.318   0.297
 5353W        W 9097   8.592   5.190  10.937
 5354W        W 9098   0.285   5.112   9.304
 5355W        W 9099   5.520   6.166   9.230
 5356W        W 9100   9.319   0.053   2.462
 5357W        W 9101   7.156   8.963   1.493
 5358W        W 9102   9.440   4.702   3.299
 5359W        W 9103   5.058   6.005  10.579
 5360W        W 9104   1.383   4.610   1.662
 5361W        W 9105   9.209  10.486   1.166
 5362W        W 9106   0.284   3.194   1.409
 5363W        W 9107   7.003   0.702  11.835
 5364W        W 9108   0.303   3.664   1.195
 5365W        W 9109   0.885   6.529  11.922
 5366W        W 9110   0.514   3.581   0.742
 5367W        W 9111   0.557   9.620  11.269
 5368W        W 9112   3.317   1.793   9.255
 5369W        W 9113   1.422  10.477  10.758
 5370W        W 9114   4.956   1.961   1.476
 5371W        W 9115   4.889   8.075   3.184
 5372W        W 9116   3.214   2.290   9.111
 5373W        W 9117   5.417   5.614  10.492
 5374W        W 9118  10.386   4.006   1.292
 5375W        W 9119   7.577   5.310   0.887
 5376W        W 9120   1.986   6.377  10.280
 5377W        W 9121   6.989   4.712  10.884
 5378W        W 9122   0.805   9.976   1.466
 5379W        W 9123   5.637   3.620   9.473
 5380W        W 9124  10.325   0.348  11.401
 5381W        W 9125   6.479   1.139   1.427
 5382W        W 9126   3.735   8.618   9.421
 5383W        W 9127   6.436   0.920  10.994
 5384W        W 9128   0.981   1.849   0.779
 5385W        W 9129   1.294   2.696   9.817
 5386W        W 9130   6.153   6.424   0.699
 5387W        W 9131   2.777   6.526   1.188
 5388W        W 9132   3.082   3.176   3.609
 5389W        W 9133  10.339   1.290  11.453
 5390W        W 9134   9.171   6.213   0.476
 5391W        W 9135  10.023   1.149   3.067
 5392W        W 9136   8.568   5.231  10.069
 5393W        W 9137   3.734   7.388  11.019
 5394W        W 9138   8.014   0.861  11.745
 5395W        W 9139   8.881   4.049   2.152
 5396W        W 9140   7.922  10.244   3.198
 5397W        W 9141   3.595  10.433   9.796
 5398W        W 9142   0.885   7.185   0.001
 5399W        W 9143   7.444   8.426   9.554
 5400W        W 9144   3.676   4.586   9.773
 5401W        W 9145   9.019   1.356  11.201
 5402W        W 9146   7.640   8.659   2.665
 5403W        W 9147   1.886   6.873   0.963
 5404W        W 9148   3.851   0.375  10.332
 5405W        W 9149   9.148   3.984  10.996
 5406W        W 9150   9.821   9.638  10.289
 5407W        W 9151   5.090   6.007   2.976
 5408W        W 9152   3.716   9.201   0.518
 5409W        W 9153   8.472   7.931   0.470
 5410W        W 9154   9.747   4.616   9.375
 5411W        W 9155   7.493   2.438   2.211
 5412W        W 9156   7.818   4.380  11.326
 5413W        W 9157   8.451   4.760   2.134
 5414W        W 9158   8.880   1.789   2.327
 5415W        W 9159   1.593   4.202   9.441
 5416W        W 9160   5.549   5.377   1.769
 5417W        W 9161   5.436   4.166   0.266
 5418W        W 9162   8.975   1.288  10.699
 5419W        W 9163   3.095   6.885  11.281
 5420W        W 9164   9.792   7.811   2.754
 5421W        W 9165   4.185   3.561   1.157
 5422W        W 9166   1.330   4.812  10.123
 5423W        W 9167   2.341   9.189   0.224
 5424W        W 9168   5.670   2.713   0.423
 5425W        W 9169   3.116   5.165   0.926
 5426W        W 9170   8.779   6.312   0.817
 5427W        W 9171   7.621  10.038   2.811
 5428W        W 9172   1.816   5.467   9.689
 5429W        W 9173   8.739   8.335   3.586
 5430W        W 9174   9.225   0.308  11.942
 5431W        W 9175   4.195   1.239   2.805
 5432W        W 9176   0.754   9.993   0.266
 5433W        W 9177   7.922   0.477   0.512
 5434W        W 9178   1.843  10.395  11.019
 5435W        W 9179   0.370   2.454   2.680
 5436W        W 9180   4.307   5.513   0.937
 5437W        W 9181   5.523   8.844   9.571
 5438W        W 9182   5.601   5.418   8.963
 5439W        W 9183   3.416   4.063   2.272
 5440W        W 9184   6.634   7.867  11.266
 5441W        W 9185   7.790   5.206  10.492
 5442W        W 9186   3.243   9.510   1.158
 5443W        W 9187   1.654   0.238   9.992
 5444W        W 9188   4.938   5.769  11.390
 5445W        W 9189   6.451   8.094   3.271
 5446W        W 9190   2.324   4.633   1.663
 5447W        W 9191   9.991   0.965   0.001
 5448W        W 9192   4.969   7.588  11.586
 5449W        W 9193   5.361   1.678   1.308
 5450W        W 9194   2.822   3.396   1.575
 5451W        W 9195   1.393   0.377  10.414
 5452W        W 9196   4.669   8.086  10.529
 5453W        W 9197   1.613   3.028   0.234
 5454W        W 9198   5.557   8.297  10.874
 5455W        W 9199   7.625   7.415   1.699
 5456W        W 9200   2.634   8.466   2.377
 5457W        W 9201   1.813   2.204   0.968
 5458W        W 9202   3.399   3.820   0.388
 5459W        W 9203   8.509   2.294   9.257
 5460W        W 9204   1.624   1.347  11.325
 5461W        W 9205   3.501   1.780   2.933
 5462W        W 9206   1.150   9.542  10.440
 5463W        W 9207   1.779   0.087   8.572
 5464W        W 9208   0.185   9.208  10.461
 5465W        W 9209   3.893  10.412   2.677
 5466W        W 9210   4.416   7.604   2.737
 5467W        W 9211   0.721   3.315   1.153
 5468W        W 9212   3.640   5.694   1.741
 5469W        W 9213   4.087   9.378   9.346
 5470W        W 9214   4.069   7.509  10.627
 5471W        W 9215   1.990   1.449   3.445
 5472W        W 9216   4.971   9.985   3.451
 5473W        W 9217   0.218   7.378   2.315
 5474W        W 9218   1.801   5.465   2.198
 5475W        W 9219   4.665   0.634   9.040
 5476W        W 9220   0.538   3.845   3.091
 5477W        W 9221   4.324   5.137   9.555
 5478W        W 9222   1.880   2.918   8.361
 5479W        W 9223   8.181   5.040  11.797
 5480W        W 9224   8.061   8.641   0.767
 5481W        W 9225   3.228   7.359  10.369
 5482W        W 9226   7.005   0.773   3.216
 5483W        W 9227   0.708   3.087  10.916
 5484W        W 9228  10.441   9.412   1.993
 5485W        W 9229   6.155   9.071   3.394
 5486W        W 9230   1.114   0.442   9.149
 5487W        W 9231   6.179   6.189   2.052
 5488W        W 9232   4.011   9.719   3.388
 5489W        W 9233   7.027   4.590   3.754
 5490W        W 9234   9.255   3.407   9.788
 5491W        W 9235   4.571   4.151  10.892
 5492W        W 9236   5.038   2.387   9.492
 5493W        W 9237   1.208   4.233  11.022
 5494W        W 9238   8.600   7.139   8.713
 5495W        W 9239   9.345   0.872   8.944
 5496W        W 9240   8.912   1.757   8.817
 5497W        W 9241   5.070   6.102   9.551
 5498W        W 9242   6.124   1.959   0.240
 5499W        W 9243   0.796   6.320   2.955
 5500W        W 9244   4.216   3.601  11.725
 5501W        W 9245   3.267   6.149   8.557
 5502W        W 9246   0.671   8.864   9.083
 5503W        W 9247   6.314   1.432   8.408
 5504W        W 9248   4.581   9.264   0.460
 5505W        W 9249   0.969   1.756   0.106
 5506W        W 9250  10.456   4.520   2.617
 5507W        W 9251   8.620   7.560   0.830
 5508W        W 9252   9.376   1.532   9.536
 5509W        W 9253   9.884   1.345  11.187
 5510W        W 9254   4.271   3.090   2.731
 5511W        W 9255   2.881   2.161  10.329
 5512W        W 9256   4.275   5.225   1.410
 5513W        W 9257   7.610   8.806   0.579
 5514W        W 9258   4.755   1.713  10.363
 5515W        W 9259   6.155   7.572   8.076
 5516W        W 9260   9.284   6.235   0.961
 5517W        W 9261   8.474   6.061   2.659
 5518W        W 9262   3.218   7.124   1.166
 5519W        W 9263   2.798   9.750   2.275
 5520W        W 9264   9.423   3.565   2.512
 5521W        W 9265   6.436   2.301  10.973
 5522W        W 9266   6.169   9.672  11.832
 5523W        W 9267   6.464   2.166  11.458
 5524W        W 9268   5.956   4.659  11.738
 5525W        W 9269   7.198   6.668   8.356
 5526W        W 9270   7.134   1.967  11.496
 5527W        W 9271   1.470   7.906   1.921
 5528W        W 9272   9.074   6.995  11.725
 5529W        W 9273   9.178   2.239  10.940
 5530W        W 9274   0.437   6.932  11.886
 5531W        W 9275   7.435   8.010   2.261
 5532W        W 9276   1.218  10.016   0.485
 5533W        W 9277   0.439   7.647   1.880
 5534W        W 9278   3.379   3.651  10.877
 5535W        W 9279   5.746  10.340  10.979
 5536W        W 9280   2.637   8.821  11.955
 5537W        W 9281   1.307   0.960   2.559
 5538W        W 9282   4.618  10.356   3.345
 5539W        W 9283   9.110   8.884  11.057
 5540W        W 9284   2.209   2.528   9.226
 5541W        W 9285   9.394   8.181   3.066
 5542W        W 9286   6.404   5.350  10.431
 5543W        W 9287   6.556   1.737   0.385
 5544W        W 9288   3.270   2.359  10.641
 5545W        W 9289   5.666   8.363   9.944
 5546W        W 9290   7.455   1.450   2.703
 5547W        W 9291   7.906   7.998  10.243
 5548W        W 9292  10.243   2.744   9.341
 5549W        W 9293   1.669   5.040  10.956
 5550W        W 9294   7.219   9.676   3.705
 5551W        W 9295   1.251   4.168   0.933
 5552W        W 9296   9.772   2.800   9.548
 5553W        W 9297   0.863   0.433   1.429
 5554W        W 9298   6.455   0.751   8.808
 5555W        W 9299   4.760  10.088   1.699
 5556W        W 9300   7.510   9.028   3.482
 5557W        W 9301   9.142   1.280   3.478
 5558W        W 9302   8.035   8.019   2.271
 5559W        W 9303   5.617   2.665   2.451
 5560W        W 9304   1.946   9.048   3.303
 5561W        W 9305   7.161   9.738  11.966
 5562W        W 9306   0.691   0.054  11.429
 5563W        W 9307   8.529   3.192   1.400
 5564W        W 9308   9.022   6.047  11.467
 5565W        W 9309   8.325   2.445  10.763
 5566W        W 9310   3.265   7.305   0.215
 5567W        W 9311   8.308   7.138   0.728
 5568W        W 9312   4.203   0.363   1.735
 5569W        W 9313   0.809   4.762   1.498
 5570W        W 9314   0.949  10.173   8.514
 5571W        W 9315   3.410   9.997   0.970
 5572W        W 9316   5.649   4.123   1.212
 5573W        W 9317   7.372   3.158  10.677
 5574W        W 9318   3.652   3.544   2.448
 5575W        W 9319   8.152   9.835   3.537
 5576W        W 9320   9.840   4.711   2.381
 5577W        W 9321   6.531   6.081   0.662
 5578W        W 9322   9.992   4.477  10.986
 5579W        W 9323  10.324   6.126  11.212
 5580W        W 9324   4.203   0.866   8.957
 5581W        W 9325   1.823   7.369   0.902
 5582W        W 9326   4.260   9.494   1.082
 5583W        W 9327   0.872   2.257  11.971
 5584W        W 9328   5.621   7.247   2.819
 5585W        W 9329   4.721   6.463  10.814
 5586W        W 9330   5.552   2.695  11.394
 5587W        W 9331   7.481   8.952   1.051
 5588W        W 9332   2.822   9.063   0.377
 5589W        W 9333   8.093   4.203   3.169
 5590W        W 9334   8.089   5.103   2.588
 5591W        W 9335   6.561   2.661  11.352
 5592W        W 9336   8.088   4.981   1.578
 5593W        W 9337   1.372   1.679   1.181
 5594W        W 9338   9.702   2.262   2.231
 5595W        W 9339   8.384   2.424  10.266
 5596W        W 9340   3.707   0.431   9.855
 5597W        W 9341   8.826   3.142   2.456
 5598W        W 9342   3.956   9.445   8.473
 5599W        W 9343   7.518   1.922   2.134
 5600W        W 9344   8.944   2.637   0.241
 5601W        W 9345   7.055   6.937  11.715
 5602W        W 9346   5.060   2.366  10.489
 5603W        W 9347   5.993   7.918   2.418
 5604W        W 9348   0.041   2.407   0.929
 5605W        W 9349   6.248   4.656   1.587
 5606W        W 9350   2.465   3.455   2.922
 5607W        W 9351   1.995   4.599   3.293
 5608W        W 9352   7.663   6.461   3.409
 5609W        W 9353   7.079  10.192  10.915
 5610W        W 9354   2.208  10.267   9.264
 5611W        W 9355   7.874   0.263   9.505
 5612W        W 9356   2.975   8.486   3.308
 5613W        W 9357   3.121   0.682  10.931
 5614W        W 9358   2.417  10.241   1.679
 5615W        W 9359   8.603   9.349   9.070
 5616W        W 9360   0.722  10.076  11.330
 5617W        W 9361   7.597   2.818  10.361
 5618W        W 9362   8.529   6.427   9.554
 5619W        W 9363   6.953  10.423   1.219
 5620W        W 9364   4.550   0.318  11.039
 5621W        W 9365   0.375   4.503   1.427
 5622W        W 9366   0.717  10.246  11.825
 5623W        W 9367   2.745   8.553   9.186
 5624W        W 9368   2.997   4.149   0.330
 5625W        W 9369   4.580   0.103   1.525
 5626W        W 9370   0.408   9.368   1.814
 5627W        W 9371   0.991   4.648   9.184
 5628W        W 9372  10.201   2.245  10.648
 5629W        W 9373   7.023   9.903   9.987
 5630W        W 9374   4.626   7.208  11.590
 5631W        W 9375   5.551   3.072  10.638
 5632W        W 9376  10.292   1.578   1.330
 5633W        W 9377   4.094   2.611   0.967
 5634W        W 9378   0.962   2.168   3.261
 5635W        W 9379   1.751   0.740  11.404
 5636W        W 9380   3.185   8.698  11.936
 5637W        W 9381   5.810   8.067   4.057
 5638W        W 9382   8.448   8.498   1.248
 5639W        W 9383   8.631   5.290  11.801
 5640W        W 9384   2.294   4.558  11.692
 5641W        W 9385   9.365   4.214  10.469
 5642W        W 9386   2.398   2.977   8.458
 5643W        W 9387   5.590   7.540   9.370
 5644W        W 9388   6.518   3.419   1.028
 5645W        W 9389   8.068   1.652   9.781
 5646W        W 9390   3.252   3.225   1.787
 5647W        W 9391   4.832  10.334   0.713
 5648W        W 9392   1.777   4.701   0.935
 5649W        W 9393   2.618   4.356   2.844
 5650W        W 9394   1.314   1.959   8.879
 5651W        W 9395   4.726   0.433   2.442
 5652W        W 9396   5.682   5.972   3.190
 5653W        W 9397   1.753   4.340  11.762
 5654W        W 9398   4.709   8.022  11.084
 5655W        W 9399   0.857   5.710  10.226
 5656W        W 9400   0.427  10.218  10.399
 5657W        W 9401   2.366   6.976   1.716
 5658W        W 9402   9.774   8.594  10.436
 5659W        W 9403   3.843  10.030   1.661
 5660W        W 9404   5.116   2.560   2.726
 5661W        W 9405   5.195   1.645   8.715
 5662W        W 9406   8.402   0.734   3.233
 5663W        W 9407   6.994   1.186   1.937
 5664W        W 9408   9.096   2.191  11.984
 5665W        W 9409   2.297   9.432   2.249
 5666W        W 9410   3.416   0.883   8.758
 5667W        W 9411   5.301   8.481   1.495
 5668W        W 9412   2.482   6.148   0.469
 5669W        W 9413   3.100   0.797  11.907
 5670W        W 9414   7.449   0.654  11.376
 5671W        W 9415   0.530   6.031   2.212
 5672W        W 9416   7.340   6.118   3.203
 5673W        W 9417   5.633   4.089  10.974
 5674W        W 9418   4.371   8.574   1.313
 5675W        W 9419  10.369   7.032  11.235
 5676W        W 9420   5.894   7.081  10.458
 5677W        W 9421   5.002   8.000   0.820
 5678W        W 9422   6.451   3.651   9.909
 5679W        W 9423   1.704   3.544   9.332
 5680W        W 9424   2.781   1.899   0.424
 5681W        W 9425   2.884   6.947   9.402
 5682W        W 9426   0.895   6.621   8.950
 5683W        W 9427   7.965   2.678   2.324
 5684W        W 9428   4.112   2.605   2.865
 5685W        W 9429   0.931   6.155   2.477
 5686W        W 9430  10.287   7.910   0.409
 5687W        W 9431   8.485   0.235   3.242
 5688W        W 9432   0.195   0.878   3.265
 5689W        W 9433   3.467   0.508   3.529
 5690W        W 9434   4.588   4.097   7.863
 5691W        W 9435   7.357   6.553   0.339
 5692W        W 9436   3.203   9.992   2.880
 5693W        W 9437   6.944   9.873   2.688
 5694W        W 9438   7.679   1.844   2.947
 5695W        W 9439  10.397   8.895   9.683
 5696W        W 9440   3.827   2.764  10.552
 5697W        W 9441   9.373   9.098   0.024
 5698W        W 9442   0.015   2.635   8.634
 5699W        W 9443   8.862   5.819   0.327
 5700W        W 9444   5.014   0.832   2.640
 5701W        W 9445   6.612   6.458   1.807
 5702W        W 9446   8.959   7.437   1.576
 5703W        W 9447   5.398   2.767   3.425
 5704W        W 9448  10.025   0.849   9.587
 5705W        W 9449   2.413   5.693   3.181
 5706W        W 9450   6.471   1.118   1.961
 5707W        W 9451   2.706   8.390   2.889
 5708W        W 9452   7.870   7.439  11.525
 5709W        W 9453   6.210   2.027   2.807
 5710W        W 9454   4.166   7.127   1.461
 5711W        W 9455   8.872   8.894   3.343
 5712W        W 9456   3.280   2.756   2.544
 5713W        W 9457   2.967   0.756   8.484
 5714W        W 9458   9.332   3.049   9.402
 5715W        W 9459   8.820   7.536   3.069
 5716W        W 9460   5.109   5.248   9.049
 5717W        W 9461   9.736   5.602  11.680
 5718W        W 9462  10.076   2.127   3.138
 5719W        W 9463  10.428   2.707   2.596
 5720W        W 9464   6.429   6.055  10.868
 5721W        W 9465   7.206   9.693   8.492
 5722W        W 9466   8.605   4.505   0.790
 5723W        W 9467   4.216   3.129   0.874
 5724W        W 9468   4.370   9.492   2.839
 5725W        W 9469   6.130   8.551   3.342
 5726W        W 9470   7.388  10.190   8.794
 5727W        W 9471   9.388   7.945   0.978
 5728W        W 9472   4.757   4.551   9.066
 5729W        W 9473   2.869   6.692  10.302
 5730W        W 9474   3.547   2.389   0.487
 5731W        W 9475   1.407   8.640   0.132
 5732W        W 9476  10.040   6.480   0.129
 5733W        W 9477   6.206  10.035  10.883
 5734W        W 9478   1.741   8.309   3.617
 5735W        W 9479   4.583   9.074   1.357
 5736W        W 9480   9.030   9.085   0.436
 5737W        W 9481   7.380   3.244   1.352
 5738W        W 9482   5.943   2.604   9.408
 5739W        W 9483   3.651   6.232   8.913
 5740W        W 9484   8.076   2.830   9.733
 5741W        W 9485   0.232   3.039  11.426
 5742W        W 9486   2.110   3.435  10.160
 5743W        W 9487   0.880   2.373  11.438
 5744W        W 9488   1.824   3.374   1.040
 5745W        W 9489   1.720   4.135   1.132
 5746W        W 9490   9.719   4.265   2.141
 5747W        W 9491   1.066   0.515   3.243
 5748W        W 9492   2.727   5.885   8.558
 5749W        W 9493   6.134   1.742   8.793
 5750W        W 9494   9.418   5.514   8.848
 5751W        W 9495   4.095   0.908   2.393
 5752W        W 9496   2.414   4.278   2.378
 5753W        W 9497   8.904   9.960   9.537
 5754W        W 9498   8.711   2.368  11.073
 5755W        W 9499   6.009   3.860   9.248
 5756W        W 9500   1.615   0.793   3.256
 5757W        W 9501   1.439   4.610   2.198
 5758W        W 9502   2.256   2.331  10.639
 5759W        W 9503   6.152   9.378  10.022
 5760W        W 9504   8.972   8.869   2.284
 5761W        W 9505   9.401   7.293  11.492
 5762W        W 9506   1.152   7.928   9.981
 5763W        W 9507   9.281   5.064   0.739
 5764W        W 9508   3.719   3.651   0.891
 5765W        W 9509   9.944   9.552   2.146
 5766W        W 9510   9.580   4.819   3.794
 5767W        W 9511   6.909   6.568   3.763
 5768W        W 9512   9.485   4.817   2.786
 5769W        W 9513   3.345   3.215   9.593
 5770W        W 9514   7.456   2.317   3.067
 5771W        W 9515   4.086   8.237  11.772
 5772W        W 9516   9.013   7.468   8.809
 5773W        W 9517   2.514   0.717  10.095
 5774W        W 9518   9.460   9.094   2.833
 5775W        W 9519   0.239   9.533   2.816
 5776W        W 9520   8.291   6.222   9.979
 5777W        W 9521  10.027   4.545   8.959
 5778W        W 9522   8.398   6.994   1.885
 5779W        W 9523  10.276   4.086   1.870
 5780W        W 9524   1.754   0.774   2.732
 5781W        W 9525   1.053   9.995   0.991
 5782W        W 9526   5.825   0.322   9.705
 5783W        W 9527   3.586   2.118   2.557
 5784W        W 9528   2.361   6.233   1.301
 5785W        W 9529   2.312   3.003   9.361
 5786W        W 9530   9.731   7.655  10.654
 5787W        W 9531   4.592   1.341   1.589
 5788W        W 9532   2.408   9.372  10.748
 5789W        W 9533   9.360   5.859   2.728
 5790W        W 9534   9.473   0.296   1.507
 5791W        W 9535   5.921   6.885   0.751
 5792W        W 9536   7.578   4.603   8.629
 5793W        W 9537   3.115   7.046   9.991
 5794W        W 9538   1.839   9.441   1.975
 5795W        W 9539   5.578   9.924   2.203
 5796W        W 9540   9.108   7.208   0.189
 5797W        W 9541   5.099   5.577   2.668
 5798W        W 9542   6.530   0.303  10.454
 5799W        W 9543   2.283   4.961  10.316
 5800W        W 9544   8.523   8.395   0.706
 5801W        W 9545   9.862   2.659   0.389
 5802W        W 9546   9.585   0.789   1.379
 5803W        W 9547   8.341   0.481  11.782
 5804W        W 9548   7.556   0.589  10.397
 5805W        W 9549   8.167   7.952   9.260
 5806W        W 9550   2.248   0.192  10.911
 5807W        W 9551   2.319   1.600   2.167
 5808W        W 9552   1.838   9.552   3.445
 5809W        W 9553   1.160   9.077  10.682
 5810W        W 9554   6.481   7.800  10.315
 5811W        W 9555   3.619   5.130   0.215
 5812W        W 9556   8.039   6.928  10.855
 5813W        W 9557   6.523   3.229   9.128
 5814W        W 9558   9.053   4.162   8.646
 5815W        W 9559   4.179   5.729   2.323
 5816W        W 9560   0.742   7.448   3.166
 5817W        W 9561   0.695   2.132   0.447
 5818W        W 9562   7.589   1.844   1.144
 5819W        W 9563   3.315   4.171   3.570
 5820W        W 9564   5.944   8.027   8.349
 5821W        W 9565   9.607   5.060  10.051
 5822W        W 9566   8.674   5.811   3.551
 5823W        W 9567   4.892   9.504   9.954
 5824W        W 9568   9.752   3.348  10.198
 5825W        W 9569   4.466   1.841   1.367
 5826W        W 9570   4.284   0.675  11.323
 5827W        W 9571   4.135   7.737  11.815
 5828W        W 9572   2.554   1.706   9.450
 5829W        W 9573   8.111   4.622   9.444
 5830W        W 9574   0.476   5.551   2.423
 5831W        W 9575   6.429   7.433  11.720
 5832W        W 9576   3.245   9.514   3.191
 5833W        W 9577   0.853   8.315   9.060
 5834W        W 9578   8.495   9.902   1.010
 5835W        W 9579   9.070   5.023  11.837
 5836W        W 9580   8.100   4.201   9.111
 5837W        W 9581   3.483   8.432  10.028
 5838W        W 9582   9.442   5.843   9.545
 5839W        W 9583   9.610   9.370   1.432
 5840W        W 9584   6.029   2.996   2.817
 5841W        W 9585   5.758   7.832  11.761
 5842W        W 9586   1.455   3.244  11.338
 5843W        W 9587   9.133   6.632   2.145
 5844W        W 9588   5.225   1.902   0.255
 5845W        W 9589   0.721   4.263   2.752
 5846W        W 9590  10.159   9.076  10.929
 5847W        W 9591   0.383   0.312   9.542
 5848W        W 9592   3.199   7.143   2.652
 5849W        W 9593   7.848   6.931   1.908
 5850W        W 9594   9.011   0.351   3.188
 5851W        W 9595   8.920   3.663   2.497
 5852W        W 9596   4.113   0.926   9.483
 5853W        W 9597   4.479   7.188  10.512
 5854W        W 9598   3.346   3.610  11.892
 5855W        W 9599   2.719   9.859   2.777
 5856W        W 9600   3.614   9.841   3.130
 5857W        W 9601   6.393   9.575   8.821
 5858W        W 9602   3.147   9.769   0.281
 5859W        W 9603   0.195   8.054   1.691
 5860W        W 9604   4.384   5.722   2.786
 5861W        W 9605   6.210   1.425   3.610
 5862W        W 9606   1.845   7.773  10.424
 5863W        W 9607   9.364   2.512   9.422
 5864W        W 9608   8.057   7.698   8.585
 5865W        W 9609   2.624   6.373   4.154
 5866W        W 9610   5.470   5.519   2.265
 5867W        W 9611   6.135  10.175   3.705
 5868W        W 9612   3.186   9.388   2.175
 5869W        W 9613   0.249   5.437  11.814
 5870W        W 9614   0.061   2.682   3.563
 5871W        W 9615   5.418  10.388   2.427
 5872W        W 9616   1.013   0.878   2.176
 5873W        W 9617   0.824   3.576   9.861
 5874W        W 9618   8.276   1.402   2.198
 5875W        W 9619   3.796   4.130   3.245
 5876W        W 9620   8.787  10.340   1.408
 5877W        W 9621   4.078   6.226   2.395
 5878W        W 9622   7.517   3.133   8.667
 5879W        W 9623   4.132   4.130   8.676
 5880W        W 9624   6.930   8.950  10.965
 5881W        W 9625   5.459   2.671   9.648
 5882W        W 9626   3.206   9.329   9.536
 5883W        W 9627   8.910   7.920  11.139
 5884W        W 9628   6.465   5.151   9.847
 5885W        W 9629   1.191  10.067   2.304
 5886W        W 9630   1.179   6.680   9.366
 5887W        W 9631   6.498   7.539   9.543
 5888W        W 9632   8.552   3.049   0.892
 5889W        W 9633   7.391   4.999  10.728
 5890W        W 9634  10.191   2.335   3.590
 5891W        W 9635   3.096   7.149   3.192
 5892W        W 9636   7.124   4.707   2.892
 5893W        W 9637  10.296   6.564   0.559
 5894W        W 9638   0.366   8.466   0.849
 5895W        W 9639   2.071   8.671   3.637
 5896W        W 9640   7.003   7.493   2.872
 5897W        W 9641   6.075  10.057   2.053
 5898W        W 9642   1.654   8.994  11.848
 5899W        W 9643   4.824   6.970  10.834
 5900W        W 9644   0.567   3.133   9.989
 5901W        W 9645   0.253   8.532   1.863
 5902W        W 9646   5.139   3.673  11.656
 5903W        W 9647   5.660   2.824  11.871
 5904W        W 9648   2.273   6.017  11.266
 5905W        W 9649   4.711   5.548  10.716
 5906W        W 9650   4.275   3.352   0.187
 5907W        W 9651   5.453   9.602   9.313
 5908W        W 9652   3.880   5.262   1.724
 5909W        W 9653   4.173   7.501   3.574
 5910W        W 9654   4.111   7.910   9.235
 5911W        W 9655   0.834   1.883  11.620
 5912W        W 9656   5.544   2.916  10.128
 5913W        W 9657   3.487   2.188  11.844
 5914W        W 9658   9.099   7.162   9.873
 5915W        W 9659   3.851   7.092   9.381
 5916W        W 9660   6.735   7.997   1.531
 5917W        W 9661   6.173   9.357   0.826
 5918W        W 9662   0.987   7.456   0.409
 5919W        W 9663   8.609   8.681   0.289
 5920W        W 9664   2.676  10.420   0.098
 5921W        W 9665   8.805   3.291  10.564
 5922W        W 9666   1.258   7.750  11.795
 5923W        W 9667   7.388   5.620   2.614
 5924W        W 9668   8.376  10.218   9.792
 5925W        W 9669   6.698  10.485   3.021
 5926W        W 9670   5.569   9.135   9.168
 5927W        W 9671   3.944   0.616   3.398
 5928W        W 9672   2.078   1.124  11.310
 5929W        W 9673   3.926  10.240   0.817
 5930W        W 9674   6.823   7.923   9.400
 5931W        W 9675   8.826   5.038  11.391
 5932W        W 9676   6.110   0.865   2.284
 5933W        W 9677  10.441   3.718   2.661
 5934W        W 9678  10.033   0.950   2.292
 5935W        W 9679   9.372   1.637   8.598
 5936W        W 9680   2.750   4.085   8.962
 5937W        W 9681   2.812   5.082   0.466
 5938W        W 9682   0.835   3.155  10.425
 5939W        W 9683   8.929   6.424  10.729
 5940W        W 9684   4.758   8.990   3.383
 5941W        W 9685   0.851   2.308  10.515
 5942W        W 9686   0.717   9.728   2.940
 5943W        W 9687   7.551  10.462  10.878
 5944W        W 9688   2.576   0.816   1.018
 5945W        W 9689   0.932   8.845   2.911
 5946W        W 9690   1.846   7.399   3.031
 5947W        W 9691  10.363   0.452   9.505
 5948W        W 9692   2.830   0.340  10.305
 5949W        W 9693   8.857   9.722   2.566
 5950W        W 9694   6.126   8.476   9.036
 5951W        W 9695   5.575   5.374  11.374
 5952W        W 9696   2.257   2.381   8.704
 5953W        W 9697   0.426  10.490   9.968
 5954W        W 9698   2.823   3.159   9.440
 5955W        W 9699   5.052   1.814  11.262
 5956W        W 9700   5.758   5.542  11.822
 5957W        W 9701   2.228   0.255   2.305
 5958W        W 9702   7.497   6.572   2.955
 5959W        W 9703   5.207   9.214  10.224
 5960W        W 9704   5.578   5.592   9.451
 5961W        W 9705   6.977   8.417  11.460
 5962W        W 9706   7.048   1.646   9.000
 5963W        W 9707   5.617   1.240   9.767
 5964W        W 9708   2.345   6.915  11.985
 5965W        W 9709   7.529   9.408  11.922
 5966W        W 9710   0.945   3.588   3.262
 5967W        W 9711   4.027   3.574  10.023
 5968W        W 9712   3.671   5.156  10.237
 5969W        W 9713   8.869   9.446   0.821
 5970W        W 9714   4.962   8.160   9.272
 5971W        W 9715   0.909   5.570  10.717
 5972W        W 9716   1.870   6.529  10.755
 5973W        W 9717   9.785   7.661   1.323
 5974W        W 9718   6.618   7.247   9.141
 5975W        W 9719   2.647   5.156  11.981
 5976W        W 9720   7.584   7.530   8.426
 5977W        W 9721   3.558   0.003   0.229
 5978W        W 9722  10.269   8.662  11.840
 5979W        W 9723   4.258   7.226   0.986
 5980W        W 9724   0.965   3.327  11.276
 5981W        W 9725   2.139   4.941   1.308
 5982W        W 9726   4.297   8.826   8.889
 5983W        W 9727   9.546   2.192  11.275
 5984W        W 9728   1.835   5.992   2.044
 5985W        W 9729   5.600  10.046   9.095
 5986W        W 9730   0.215   8.279  10.407
 5987W        W 9731   0.775   7.388  11.534
 5988W        W 9732   9.205   2.160   2.174
 5989W        W 9733   8.579   1.951  10.145
 5990W        W 9734   7.896   1.430   1.468
 5991W        W 9735   3.374   4.704   2.706
 5992W        W 9736   7.871   7.082  11.890
 5993W        W 9737   8.615   3.882   0.567
 5994W        W 9738   5.557   5.871   1.561
 5995W        W 9739   0.452   6.659   0.843
 5996W        W 9740   6.079   4.787   9.831
 5997W        W 9741   6.411   7.011   9.581
 5998W        W 9742   8.827   3.678   9.591
 5999W        W 9743   7.117   3.630   1.569
 6000W        W 9744   2.480   0.708   2.408
 6001W        W 9745   9.865   8.738   2.527
 6002W        W 9746   8.742   8.386  10.353
 6003W        W 9747   4.093   5.578   0.061
 6004W        W 9748   1.395   0.876   9.007
 6005W        W 9749   8.329   3.257   2.428
 6006W        W 9750   2.779   2.610   2.765
 6007W        W 9751   4.695   8.493   3.550
 6008W        W 9752   4.788   2.117  10.043
 6009W        W 9753   9.957   7.466   0.399
 6010W        W 9754   7.496  10.042   3.350
 6011W        W 9755   0.685  10.427   1.270
 6012W        W 9756   3.956   4.765   9.371
 6013W        W 9757   0.725   5.427   1.303
 6014W        W 9758   0.336   3.854   0.350
 6015W        W 9759   6.607   1.006   0.827
 6016W        W 9760   9.519   9.410  11.548
 6017W        W 9761   7.446   9.083  10.876
 6018W        W 9762   3.335   6.067   0.244
 6019W        W 9763   8.959   1.271   9.764
 6020W        W 9764   3.239   0.181  10.893
 6021W        W 9765   4.692   4.981   1.619
 6022W        W 9766   0.437   5.737   0.992
 6023W        W 9767   4.934   8.891  11.042
 6024W        W 9768   9.971   6.906   9.885
 6025W        W 9769   8.588   7.785  11.976
 6026W        W 9770   5.814   4.335   9.999
 6027W        W 9771   8.113   4.274  10.916
 6028W        W 9772   0.264   8.969   3.519
 6029W        W 9773  10.247   2.264  10.125
 6030W        W 9774   0.923   9.050   0.472
 6031W        W 9775   8.393   8.972   1.495
 6032W        W 9776   3.936   4.509   1.049
 6033W        W 9777   1.193   1.767   3.492
 6034W        W 9778  10.242   3.675   0.497
 6035W        W 9779   6.824   0.803   1.230
 6036W        W 9780   3.033   1.699   0.818
 6037W        W 9781   4.292   8.745   3.349
 6038W        W 9782   3.075   9.212  10.039
 6039W        W 9783   0.049   5.482   8.515
 6040W        W 9784   1.569   3.374  11.842
 6041W        W 9785   7.583   1.279   9.027
 6042W        W 9786   5.223   3.587  10.718
 6043W        W 9787   4.821   3.707  11.011
 6044W        W 9788   1.035   5.864   1.237
 6045W        W 9789   1.855   1.831   3.776
 6046W        W 9790   7.887   5.595   2.676
 6047W        W 9791   1.353   6.010  11.355
 6048W        W 9792   0.636   3.884   3.593
 6049W        W 9793   0.970   3.337   0.707
 6050W        W 9794   5.255   8.426   0.972
 6051W        W 9795   4.408   1.148  11.475
 6052W        W 9796   3.105   3.970   0.792
 6053W        W 9797   2.787   8.953   1.657
 6054W        W 9798   0.325   1.089   0.972
 6055W        W 9799   7.652   6.825   9.998
 6056W        W 9800   6.925   3.758   8.537
 6057W        W 9801   8.321   7.575   3.218
 6058W        W 9802   5.710   9.232   2.619
 6059W        W 9803   1.116   0.034   0.992
 6060W        W 9804   0.040   1.153   1.391
 6061W        W 9805   0.679   5.237  10.377
 6062W        W 9806   6.209   5.603  10.848
 6063W        W 9807   3.170   9.177  10.901
 6064W        W 9808   9.149   6.928  11.220
 6065W        W 9809   9.793  10.459   2.203
 6066W        W 9810   3.167   7.064   8.555
 6067W        W 9811   4.977   6.613   9.438
 6068W        W 9812  10.149   4.123   2.379
 6069W        W 9813   0.094   3.713   1.661
 6070W        W 9814   7.873   7.329   3.228
 6071W        W 9815   1.272   6.380   3.189
 6072W        W 9816   0.879   4.457   0.713
 6073W        W 9817   7.917   2.126   3.316
 6074W        W 9818   7.774   7.983   8.901
 6075W        W 9819   3.625   8.069   1.193
 6076W        W 9820   7.653   5.245   2.349
 6077W        W 9821   6.126   2.293   3.238
 6078W        W 9822   2.446   2.442  10.174
 6079W        W 9823   8.583   7.329   9.934
 6080W        W 9824   4.535   8.048   9.499
 6081W        W 9825   3.624   4.071  11.969
 6082W        W 9826   2.616   2.767  11.117
 6083W        W 9827   3.383   4.143   9.835
 6084W        W 9828   0.401   8.122  11.266
 6085W        W 9829   6.619   4.333   1.435
 6086W        W 9830   3.056   6.784   1.586
 6087W        W 9831   1.209   9.895  10.060
 6088W        W 9832   0.764   1.442   8.565
 6089W        W 9833   1.504  10.225   0.860
 6090W        W 9834   8.928   4.842   1.037
 6091W        W 9835   5.298   4.290   9.864
 6092W        W 9836   4.606   2.268   0.585
 6093W        W 9837   3.186   6.610   3.375
 6094W        W 9838   8.932   2.233   9.566
 6095W        W 9839  10.171   1.731  10.962
 6096W        W 9840   1.345   7.357   3.524
 6097W        W 9841   8.372   4.207  10.476
 6098W        W 9842   0.368   9.972   9.111
 6099W        W 9843   6.202   7.650  10.819
 6100W        W 9844   0.281   7.548   9.084
 6101W        W 9845   6.251   7.815   2.862
 6102W        W 9846   8.838   1.781   0.176
 6103W        W 9847   2.595   5.080   1.006
 6104W        W 9848   8.838   6.249   2.329
 6105W        W 9849   2.726   7.212  11.128
 6106W        W 9850   4.500   0.672   1.435
 6107W        W 9851   1.925   4.650  10.701
 6108W        W 9852   0.758   5.080   3.258
 6109W        W 9853   9.354   4.068   3.393
 6110W        W 9854   0.908   5.655   0.784
 6111W        W 9855   8.637   2.718   2.721
 6112W        W 9856   1.666   6.473   1.959
 6113W        W 9857   3.753   6.598   0.373
 6114W        W 9858   8.872   4.266   3.316
 6115W        W 9859   2.392   3.382   1.311
 6116W        W 9860   7.591   9.593   3.079
 6117W        W 9861   9.587   9.530   3.582
 6118W        W 9862   6.569  10.011   9.755
 6119W        W 9863   3.111   4.087  11.819
 6120W        W 9864   8.891   0.998   1.689
 6121W        W 9865   7.842  10.328   2.265
 6122W        W 9866   6.187   0.242   2.971
 6123W        W 9867   5.959   3.146   3.672
 6124W        W 9868   9.932   0.804   0.483
 6125W        W 9869   3.298   8.840   9.769
 6126W        W 9870   7.589   9.950   2.033
 6127W        W 9871   8.784   2.209   0.989
 6128W        W 9872   0.471   8.506   9.978
 6129W        W 9873   3.251   3.597  11.388
 6130W        W 9874   1.415   4.659  10.638
 6131W        W 9875   3.863   1.834   1.252
 6132W        W 9876   5.886   3.656   3.804
 6133W        W 9877   1.325   5.064   0.224
 6134W        W 9878   1.314   3.284   9.081
 6135W        W 9879   7.611   7.503   0.780
 6136W        W 9880   3.845   4.445   2.221
 6137W        W 9881   6.178   7.697   3.477
 6138W        W 9882   6.580   9.467   0.160
 6139W        W 9883   8.055   0.735  10.204
 6140W        W 9884   4.165   7.658  11.094
 6141W        W 9885   6.686   0.718   1.722
 6142W        W 9886   7.709   8.662   0.095
 6143W        W 9887   7.462   8.395   9.032
 6144W        W 9888   8.424   2.832   3.223
 6145W        W 9889   9.306   5.714  11.152
 6146W        W 9890   3.745   4.359   9.069
 6147W        W 9891   3.362   8.525   2.250
 6148W        W 9892   1.807   8.980   1.747
 6149W        W 9893   9.812   8.984   8.913
 6150W        W 9894   5.614   0.603   0.829
 6151W        W 9895   3.714   8.364   0.769
 6152W        W 9896   8.475   2.377   9.767
 6153W        W 9897   2.333   9.802  11.029
 6154W        W 9898   8.601   1.187  11.409
 6155W        W 9899   4.002   0.768   2.891
 6156W        W 9900   6.925   7.469   0.212
 6157W        W 9901   6.524   8.313  11.871
 6158W        W 9902   4.122   4.147   2.831
 6159W        W 9903   3.335   4.567   2.170
 6160W        W 9904   7.344  10.279   2.399
 6161W        W 9905   6.034   6.681   0.275
 6162W        W 9906   3.375   4.480   9.392
 6163W        W 9907   6.544   1.701   9.156
 6164W        W 9908   5.783   5.962   0.733
 6165W        W 9909   0.291   3.407   2.961
 6166W        W 9910   9.997   1.744   0.938
 6167W        W 9911   8.416   1.443   3.172
 6168W        W 9912   6.754   0.748  10.236
 6169W        W 9913   8.828   9.387   3.499
 6170W        W 9914   4.912   2.691   3.174
 6171W        W 9915   0.552   9.546   0.182
 6172W        W 9916   4.817   2.803   1.436
 6173W        W 9917   7.554   3.747   3.387
 6174W        W 9918   6.085   0.703  11.787
 6175W        W 9919   5.953   9.372   2.194
 6176W        W 9920   8.770   2.262  10.573
 6177W        W 9921   7.620   4.099  10.890
 6178W        W 9922   9.048   8.445  11.338
 6179W        W 9923   7.439   6.158   2.248
 6180W        W 9924   2.550   7.468   1.447
 6181W        W 9925   5.263   6.464   0.674
 6182W        W 9926   1.607   9.880  11.536
 6183W        W 9927   0.874   7.541   9.790
 6184W        W 9928  10.016   5.350   0.032
 6185W        W 9929  10.325   2.309   0.040
 6186W        W 9930   6.852   6.137  10.097
 6187W        W 9931   2.467  10.378   0.738
 6188W        W 9932   3.355   2.815  10.418
 6189W        W 9933   0.347   0.304   1.441
 6190W        W 9934   5.251   6.253  11.530
 6191W        W 9935   1.704   1.644   2.806
 6192W        W 9936   3.312   7.874   9.527
 6193W        W 9937   5.328   6.050   0.343
 6194W        W 9938   1.093   3.155   9.963
 6195W        W 9939   7.349  10.175   0.181
 6196W        W 9940   7.440   0.734   2.504
 6197W        W 9941   3.663  10.428  11.730
 6198W        W 9942   0.433   6.131  10.300
 6199W        W 9943   2.749   0.787  10.548
 6200W        W 9944   4.046   5.069  11.949
 6201W        W 9945   1.394   9.724   3.766
 6202W        W 9946  10.041   8.985   1.389
 6203W        W 9947   5.775   1.567   1.010
 6204W        W 9948   1.502   5.994   0.295
 6205W        W 9949   9.558   8.128  10.264
 6206W        W 9950   4.723   4.132   3.647
 6207W        W 9951   7.296   2.814   9.949
 6208W        W 9952   5.737   7.331  10.871
 6209W        W 9953   1.170   6.130   0.714
 6210W        W 9954   2.726   5.536   3.551
 6211W        W 9955  10.218   4.219   3.399
 6212W        W 9956   2.344   5.232   9.867
 6213W        W 9957   6.757   0.313   9.977
 6214W        W 9958   5.142   3.867  10.268
 6215W        W 9959   3.796   3.701   2.926
 6216W        W 9960   0.324   6.477   2.363
 6217W        W 9961   8.778   1.380   2.010
 6218W        W 9962  10.160   1.663   2.939
 6219W        W 9963   7.004   6.528   2.784
 6220W        W 9964   9.498   1.362   9.045
 6221W        W 9965   3.870   2.555   3.374
 6222W        W 9966   6.484   8.813  11.925
 6223W        W 9967   2.061   1.721   9.591
 6224W        W 9968   3.282   8.589   0.942
 6225W        W 9969  10.411   7.673   1.880
 6226W        W 9970   1.204   2.132   0.348
 6227W        W 9971   6.245   4.142   2.637
 6228W        W 9972   9.597   8.494  11.380
 6229W        W 9973   8.437   2.617  11.439
 6230W        W 9974   9.321   7.343  10.594
 6231W        W 9975   3.689   9.269   3.388
 6232W        W 9976   5.927   8.070   3.207
 6233W        W 9977   3.514   4.813   0.975
 6234W        W 9978   4.313   9.845   9.376
 6235W        W 9979   2.240   3.506   9.328
 6236W        W 9980   7.469   1.932   3.449
 6237W        W 9981   2.369   8.833   8.981
 6238W        W 9982   9.460   1.742  10.011
 6239W        W 9983   5.925   7.362  11.784
 6240W        W 9984   7.880  10.363  11.441
 6241W        W 9985   0.583   8.163   2.009
 6242W        W 9986  10.311   7.756   2.381
 6243W        W 9987   9.018   4.527   0.093
 6244W        W 9988   3.864   6.149   1.803
 6245W        W 9989   0.818   2.608   2.480
 6246W        W 9990  10.339   9.556  10.972
 6247W        W 9991   2.852   1.095   1.794
 6248W        W 9992   9.662   5.972   9.990
 6249W        W 9993   9.454   1.200  11.430
 6250W        W 9994   1.493   5.430   3.469
 6251W        W 9995   1.455   3.207   1.647
 6252W        W 9996   5.996   9.783   2.479
 6253W        W 9997   5.788   8.732   2.712
 6254W        W 9998   7.186   0.847   1.605
 6255W        W 9999   6.976   5.644   9.364
 6256W        W10000   7.613   1.562  10.542
 6257W        W10001   2.280   2.966   2.969
 6258W        W10002   8.886  10.198   2.295
 6259W        W10003   1.012   7.917  10.490
 6260W        W10004   0.408   6.655   9.854
 6261W        W10005   4.086   7.022  10.831
 6262W        W10006  10.006   0.886  11.457
 6263W        W10007   5.171   1.681   9.245
 6264W        W10008   5.059   6.075  10.068
 6265W        W10009   2.824   7.623  10.609
 6266W        W10010   3.466   7.651   8.501
 6267W        W10011   6.462   4.168   3.144
 6268W        W10012   5.908  10.320   2.451
 6269W        W10013  10.243   4.116   9.190
 6270W        W10014   9.779   5.190   2.986
 6271W        W10015   9.927   3.233   1.977
 6272W        W10016   1.794   9.429   9.472
 6273W        W10017   0.405   0.850  11.558
 6274W        W10018  10.249   3.261   2.439
 6275W        W10019   9.322   6.590   3.557
 6276W        W10020  10.488   4.741   9.076
 6277W        W10021   0.798   1.456   9.469
 6278W        W10022   8.077   7.895   1.306
 6279W        W10023   6.264   7.876   1.763
 6280W        W10024   9.241   0.742  10.962
 6281W        W10025   6.511   6.922  10.071
 6282W        W10026   7.043  10.312   3.349
 6283W        W10027   4.313   4.280   2.379
 6284W        W10028   0.907   0.809  10.752
 6285W        W10029   0.893   4.699   3.578
 6286W        W10030   8.469   7.710   2.315
 6287W        W10031   0.460   2.561   0.691
 6288W        W10032   8.575   7.470   1.874
 6289W        W10033   2.179   1.464   2.661
 6290W        W10034   9.557   1.941  10.490
 6291W        W10035   9.088   7.633  11.897
 6292W        W10036   9.379   8.405   1.265
 6293W        W10037   1.341   8.019   1.423
 6294W        W10038   4.415   9.004   2.941
 6295W        W10039   6.741   1.355  11.035
 6296W        W10040   0.410   3.754   2.049
 6297W        W10041   9.373   6.655   8.935
 6298W        W10042  10.446   2.268  11.556
 6299W        W10043   1.607   0.827  11.906
 6300W        W10044   5.214   3.332  10.297
 6301W        W10045   3.774   7.391  11.886
 6302W        W10046  10.473   3.590  10.424
 6303W        W10047   1.921   0.050   0.041
 6304W        W10048   7.426   1.668   0.263
 6305W        W10049   7.420   9.289   0.681
 6306W        W10050  10.500   9.582   9.083
 6307W        W10051   7.822   6.985   2.421
 6308W        W10052   2.588   1.616   3.126
 6309W        W10053   7.048   0.658   2.148
 6310W        W10054  10.221   4.671   9.524
 6311W        W10055   7.942   5.650  11.297
 6312W        W10056   5.721   0.760   1.976
 6313W        W10057  10.046   5.541   8.378
 6314W        W10058   1.730   1.197  10.351
 6315W        W10059   9.437   1.600  11.813
 6316W        W10060   8.162   4.546  11.675
 6317W        W10061   1.608   8.952  10.931
 6318W        W10062   7.368   4.319  10.478
 6319W        W10063  10.483   1.910   0.976
 6320W        W10064   2.355   9.181   9.473
 6321W        W10065   6.804   5.091  10.605
 6322W        W10066   7.423   3.618  10.943
 6323W        W10067   8.919   7.465  11.400
 6324W        W10068   7.894   5.069   9.564
 6325W        W10069   7.429   4.232   2.172
 6326W        W10070   1.923   8.430   0.845
 6327W        W10071   4.572   0.714   9.563
 6328W        W10072   9.964   1.778  11.956
 6329W        W10073   3.684   9.108   9.522
 6330W        W10074   2.203   9.947  10.117
 6331W        W10075   4.828   1.761   2.459
 6332W        W10076   9.045   3.693   0.754
 6333W        W10077   0.450   3.146   1.964
 6334W        W10078  10.461   5.070   0.077
 6335W        W10079   8.874   6.490  11.250
 6336W        W10080   8.851   8.477   8.904
 6337W        W10081   1.479   7.004   2.275
 6338W        W10082   2.640   7.337   8.173
 6339W        W10083   0.290   7.627  11.387
 6340W        W10084   2.225  10.222   0.287
 6341W        W10085   4.090   1.838   1.711
 6342W        W10086   5.649   2.168   2.416
 6343W        W10087   7.568   7.499   9.439
 6344W        W10088   5.091   2.112   9.008
 6345W        W10089   9.041   6.192  11.982
 6346W        W10090   5.306   6.765   3.585
 6347W        W10091   9.322   3.875   9.620
 6348W        W10092   5.361   4.760  10.620
 6349W        W10093   2.202   9.820   1.937
 6350W        W10094   3.463   6.640   1.839
 6351W        W10095   6.637   3.267   9.622
 6352W        W10096   5.989   0.759   9.081
 6353W        W10097   1.677   1.819   3.294
 6354W        W10098   4.393  10.451   8.612
 6355W        W10099   4.601   7.608  11.972
 6356W        W10100   2.260   6.486  11.095
 6357W        W10101   1.007  10.439  11.048
 6358W        W10102   2.193   2.044  11.631
 6359W        W10103   2.366   3.328   1.863
 6360W        W10104   6.532   2.105   3.490
 6361W        W10105   5.119   6.910   1.819
 6362W        W10106   5.437   2.538   0.848
 6363W        W10107   1.872   6.719   8.860
 6364W        W10108   5.579   9.762   0.449
 6365W        W10109   1.874   2.284   1.847
 6366W        W10110   6.492   4.041  11.363
 6367W        W10111   5.056  10.362  10.271
 6368W        W10112   7.997   4.606   3.439
 6369W        W10113   8.574   3.189   8.719
 6370W        W10114   1.328  10.424   8.746
 6371W        W10115  10.387  10.032   9.556
 6372W        W10116   0.799   0.751   2.714
 6373W        W10117   5.977   9.059   1.218
 6374W        W10118   4.313   0.442   0.207
 6375W        W10119   1.062   4.728  10.996
 6376W        W10120   7.564   6.387  10.887
 6377W        W10121   0.431   5.662  10.505
 6378W        W10122   7.697   5.759   3.126
 6379W        W10123   4.009   9.600   2.451
 6380W        W10124   1.792   5.078   0.424
 6381W        W10125   1.688   7.582   9.274
 6382W        W10126   6.171   2.790   1.676
 6383W        W10127   3.192  10.182  10.027
 6384W        W10128   6.629   8.873  10.542
 6385W        W10129   8.845  10.379   3.314
 6386W        W10130   6.276   7.064   2.320
 6387W        W10131   1.445   2.256   3.381
 6388W        W10132   8.784   9.994  10.020
 6389W        W10133   1.582   1.196   0.383
 6390W        W10134   3.638   8.967   0.065
 6391W        W10135   5.933   7.174   8.690
 6392W        W10136   8.321   4.171  11.365
 6393W        W10137   7.553   6.928  10.933
 6394W        W10138   0.004   8.422   9.580
 6395W        W10139   8.280   0.951   2.443
 6396W        W10140   9.769   7.603  11.373
 6397W        W10141  10.250   2.242   9.541
 6398W        W10142   3.909   0.925   8.510
 6399W        W10143   6.566   0.429  11.044
 6400W        W10144   7.551   1.798   8.963
 6401W        W10145   8.467   1.789   9.115
 6402W        W10146   2.686   6.117  11.539
 6403W        W10147   0.856   6.963   3.009
 6404W        W10148  10.227   5.362   2.796
 6405W        W10149   3.620   0.977   9.621
 6406W        W10150   9.895   4.961   1.687
 6407W        W10151   8.153   7.058  10.005
 6408W        W10152   7.309   8.764  11.270
 6409W        W10153   1.893  10.010  11.950
 6410W        W10154   8.055   7.401   8.164
 6411W        W10155   4.617   8.486  10.841
 6412W        W10156   3.045   8.527   1.840
 6413W        W10157   9.789   6.516   2.700
 6414W        W10158   0.816   3.765  10.351
 6415W        W10159   1.360   6.745   1.274
 6416W        W10160   5.220   1.378   0.502
 6417W        W10161  10.420   4.156   0.302
 6418W        W10162   0.701   1.685  11.163
 6419W        W10163   3.664   4.629  10.267
 6420W        W10164   4.403   2.361   9.833
 6421W        W10165   3.870   2.170   2.975
 6422W        W10166   1.156   6.680  10.282
 6423W        W10167   8.897   7.956   8.833
 6424W        W10168   0.675   8.032   9.938
 6425W        W10169   8.473  10.041   9.280
 6426W        W10170   1.310   8.723   0.610
 6427W        W10171   5.557   2.864   8.681
 6428W        W10172   4.351   8.065   1.453
 6429W        W10173   8.263   3.254   2.947
 6430W        W10174  10.351   5.163   1.502
 6431W        W10175   3.580   1.860   1.695
 6432W        W10176   0.978   6.904  11.587
 6433W        W10177   8.331   2.157   0.806
 6434W        W10178   4.611   5.985  10.947
 6435W        W10179   8.308   8.889  11.349
 6436W        W10180   1.847   9.911   2.642
 6437W        W10181   7.194   1.351  10.796
 6438W        W10182   4.623   9.618   1.848
 6439W        W10183   7.620   0.054   2.749
 6440W        W10184   6.954   6.297   0.501
 6441W        W10185   2.982   6.440   0.232
 6442W        W10186   5.116   7.164   3.321
 6443W        W10187   4.258  10.320  10.941
 6444W        W10188   0.757  10.459   2.332
 6445W        W10189   5.326   8.806   2.908
 6446W        W10190   5.999   4.227   8.387
 6447W        W10191   3.339   0.526   9.100
 6448W        W10192   0.846   4.344   1.220
 6449W        W10193   1.686   1.350  11.865
 6450W        W10194   0.560   6.637  11.481
 6451W        W10195   0.491   2.431   9.478
 6452W        W10196   8.139  10.039  11.742
 6453W        W10197   5.129   2.853  10.430
 6454W        W10198  10.469   3.774  10.931
 6455W        W10199   8.061   1.932   1.349
 6456W        W10200   6.729   2.711  10.852
 6457W        W10201   2.309   8.082   0.955
 6458W        W10202   3.190   6.628  10.830
 6459W        W10203   1.878   8.992  11.374
 6460W        W10204   6.694   9.844  10.926
 6461W        W10205   4.244   2.015  11.579
 6462W        W10206   1.648   7.014   0.505
 6463W        W10207   8.969   3.130  11.532
 6464W        W10208   1.356   0.227   1.447
 6465W        W10209   4.682   3.594   3.949
 6466W        W10210   2.340   8.744  11.339
 6467W        W10211   2.790   2.400   1.907
 6468W        W10212   1.400   5.709   0.932
 6469W        W10213   9.134   4.164  10.018
 6470W        W10214   9.843   2.358   9.257
 6471W        W10215   0.558   2.730  10.517
 6472W        W10216   0.894   2.171   2.729
 6473W        W10217   0.942   5.693   2.231
 6474W        W10218   4.872   8.656   1.203
 6475W        W10219   7.567   0.488   1.779
 6476W        W10220   2.156   6.013   0.869
 6477W        W10221   9.297   6.847   9.402
 6478W        W10222   6.984   9.727   9.485
 6479W        W10223   3.251   5.776   1.421
 6480W        W10224   8.431   4.097   1.848
 6481W        W10225   2.292   0.939   9.161
 6482W        W10226   2.415   4.536  10.801
 6483W        W10227   1.794   9.506  11.860
 6484W        W10228   4.340   8.434   8.539
 6485W        W10229   6.029   2.497   2.735
 6486W        W10230   7.262   0.397  10.917
 6487W        W10231   0.181  10.263   1.376
 6488W        W10232   0.328  10.191   2.185
 6489W        W10233   1.321   4.769   0.664
 6490W        W10234   8.074   9.777   1.889
 6491W        W10235   8.899   2.988   1.959
 6492W        W10236   7.431   9.482   1.170
 6493W        W10237   6.243   9.613   9.555
 6494W        W10238   3.597   9.363   9.952
 6495W        W10239   1.682   2.454   1.382
 6496W        W10240   7.386   7.065   9.639
 6497W        W10241   4.242   7.463   9.472
 6498W        W10242   1.927   7.275   2.375
 6499W        W10243   6.447   7.411   0.919
 6500W        W10244   1.379   9.314   8.735
 6501W        W10245   4.605   4.137   1.700
 6502W        W10246   6.649   9.509   9.862
 6503W        W10247   0.508   5.548   3.272
 6504W        W10248   2.274  10.311  11.762
 6505W        W10249   6.047   1.405   1.441
 6506W        W10250   6.203   5.197   0.506
 6507W        W10251   5.293   6.119   8.235
 6508W        W10252   0.903   3.878  11.264
 6509W        W10253   3.052   7.533   1.414
 6510W        W10254   7.517   5.270  11.914
 6511W        W10255   5.724   1.294  11.276
 6512W        W10256   7.809   2.276   1.840
 6513W        W10257   4.505   7.709   3.210
 6514W        W10258   3.807   4.523  10.766
 6515W        W10259   9.528   5.650  10.626
 6516W        W10260   5.987   2.223   1.768
 6517W        W10261   2.128   7.443   9.011
 6518W        W10262   0.192   7.338   1.543
 6519W        W10263   2.002   6.036   0.347
 6520W        W10264   5.664   4.355  10.513
 6521W        W10265   2.265   8.164   3.041
 6522W        W10266   7.453   1.429   2.194
 6523W        W10267   2.381   3.260   8.902
 6524W        W10268   6.439   5.700   1.397
 6525W        W10269   5.082   9.970   0.419
 6526W        W10270   4.677   2.315   2.405
 6527W        W10271  10.052   9.547   0.697
 6528W        W10272   4.164   7.687   2.331
 6529W        W10273   8.943   6.679   9.725
 6530W        W10274   7.879   8.460  10.385
 6531W        W10275   8.127   3.647   1.910
 6532W        W10276   8.349   5.247  11.369
 6533W        W10277   3.295   2.319   1.811
 6534W        W10278   0.346   9.464  11.727
 6535W        W10279   5.969   3.302   0.424
 6536W        W10280   3.824   6.539   1.455
 6537W        W10281   5.597   7.548   2.373
 6538W        W10282   7.463   6.054   0.327
 6539W        W10283   6.560   9.853  10.266
 6540W        W10284   7.388   0.655   0.307
 6541W        W10285   0.833   7.334   1.731
 6542W        W10286   5.088   3.768   3.677
 6543W        W10287   1.014   9.477   0.882
 6544W        W10288   5.047   5.140   2.415
 6545W        W10289   5.159   6.544   3.134
 6546W        W10290   4.752   6.253  11.386
 6547W        W10291   9.157   7.458   3.880
 6548W        W10292  10.315   4.127  11.720
 6549W        W10293   3.584   2.702   9.000
 6550W        W10294   2.098   5.118   0.839
 6551W        W10295   6.783   0.415   3.535
 6552W        W10296   1.701   9.986   3.198
 6553W        W10297   6.702   1.715  11.449
 6554W        W10298   1.204   5.154  10.772
 6555W        W10299   9.861   0.780   2.758
 6556W        W10300   0.613   9.284   3.260
 6557W        W10301   6.103   9.159  10.502
 6558W        W10302   7.413   1.170   0.343
 6559W        W10303   9.916   2.675   1.323
 6560W        W10304   9.729   4.282   2.654
 6561W        W10305   9.069   6.537   1.648
 6562W        W10306   8.814   3.113   2.982
 6563W        W10307   3.719   2.283   9.244
 6564W        W10308   1.304   6.271   9.979
 6565W        W10309   0.226  10.004   2.643
 6566W        W10310   8.995   0.754   8.490
 6567W        W10311   8.502   3.198  11.376
 6568W        W10312  10.362   0.403  10.479
 6569W        W10313   5.072   5.091   2.926
 6570W        W10314   6.480   0.851   9.821
 6571W        W10315   9.419   9.018   9.232
 6572W        W10316   8.952   5.528  10.255
 6573W        W10317  10.488   7.159  11.721
 6574W        W10318   3.860   1.880   2.166
 6575W        W10319   4.411   8.242   3.189
 6576W        W10320   7.955   8.384   1.202
 6577W        W10321   5.576   2.714   2.947
 6578W        W10322   5.179   4.019  11.256
 6579W        W10323   7.977   7.890   0.353
 6580W        W10324   7.173   9.683  11.017
 6581W        W10325   7.599   4.954   2.764
 6582W        W10326   5.683  10.411   9.441
 6583W        W10327   0.052   7.663   1.107
 6584W        W10328   6.204   1.579  11.498
 6585W        W10329   0.487   9.279   9.655
 6586W        W10330   0.472  10.415   1.753
 6587W        W10331   5.674   2.295   3.464
 6588W        W10332   8.345   4.957   3.426
 6589W        W10333   0.823   4.856   1.007
 6590W        W10334   4.593   1.183   3.151
 6591W        W10335   5.495   0.867   9.000
 6592W        W10336   5.120   7.564   4.019
 6593W        W10337   6.118   1.919   2.328
 6594W        W10338   2.271   2.415   2.805
 6595W        W10339   5.236   1.883   3.378
 6596W        W10340   8.677   6.929   0.198
 6597W        W10341   9.412   0.442   2.817
 6598W        W10342   9.397   3.087  11.785
 6599W        W10343   0.894   4.160   8.441
 6600W        W10344   4.792   5.602   0.798
 6601W        W10345   2.426   8.198   9.480
 6602W        W10346   4.999   5.629   2.159
 6603W        W10347  10.021   7.899  11.701
 6604W        W10348  10.224   8.668   8.712
 6605W        W10349   6.692   8.070   0.997
 6606W        W10350   1.292   9.452   9.751
 6607W        W10351   0.657   4.329  10.349
 6608W        W10352   5.624   3.125   4.070
 6609W        W10353   1.483   6.309  10.468
 6610W        W10354   8.187   4.227   8.153
 6611W        W10355   6.915   4.798  11.370
 6612W        W10356   0.070   8.822   1.211
 6613W        W10357   7.658   4.117   8.830
 6614W        W10358   9.025   5.269   1.472
 6615W        W10359   0.908   9.313   8.932
 6616W        W10360   6.934   8.866   2.349
 6617W        W10361   3.076   3.707   8.788
 6618W        W10362   4.132   2.640  10.143
 6619W        W10363   4.349   1.904   2.329
 6620W        W10364   0.250   9.037   2.982
 6621W        W10365   1.845   4.116  11.235
 6622W        W10366   9.295   7.043   0.949
 6623W        W10367   6.117   0.404   1.977
 6624W        W10368   7.465   3.777   1.200
 6625W        W10369   0.763   8.120   1.543
 6626W        W10370   5.586   3.863  10.503
 6627W        W10371  10.286   8.725   9.219
 6628W        W10372   8.061  10.295   2.710
 6629W        W10373   2.309   5.279   9.107
 6630W        W10374   8.553   6.114  11.830
 6631W        W10375   4.781   7.937   1.837
 6632W        W10376   2.381   4.999   8.635
 6633W        W10377   0.323   2.134  10.301
 6634W        W10378   6.424   6.509   9.380
 6635W        W10379   6.114  10.188  10.400
 6636W        W10380   8.889   0.384   9.656
 6637W        W10381   1.911   7.869   3.240
 6638W        W10382   2.621   6.058   2.381
 6639W        W10383   5.211   2.892   1.123
 6640W        W10384   2.801   1.510  11.199
 6641W        W10385   3.483   1.037  10.959
 6642W        W10386   5.529   3.851   3.453
 6643W        W10387  10.073   3.409  11.793
 6644W        W10388   3.075   8.990   1.242
 6645W        W10389   1.682   8.061  10.999
 6646W        W10390   8.762   5.994  10.451
 6647W        W10391   7.932   5.860   9.960
 6648W        W10392   3.517   1.927  11.022
 6649W        W10393   5.279   9.049   3.385
 6650W        W10394   9.340   9.875  11.645
 6651W        W10395   4.971   9.696   9.485
 6652W        W10396   3.387   5.945  11.351
 6653W        W10397   8.491   0.984  10.014
 6654W        W10398   5.253   2.631  10.924
 6655W        W10399   7.971   9.870   1.341
 6656W        W10400   4.876   7.791   2.765
 6657W        W10401   1.422   1.334  10.788
 6658W        W10402   4.222   8.724   2.222
 6659W        W10403   6.516   2.744   0.395
 6660W        W10404   2.229   5.627  10.944
 6661W        W10405   5.982   5.157  10.644
 6662W        W10406   1.466   9.723   0.825
 6663W        W10407   7.390   2.818   3.218
 6664W        W10408   1.905   5.398   1.249
 6665W        W10409   4.600   9.457  11.439
 6666W        W10410  10.091   0.006  10.981
 6667W        W10411   7.419   0.331  11.814
 6668W        W10412   3.683   5.854  10.947
 6669W        W10413   0.754   0.822   1.754
 6670W        W10414   3.973   1.772   2.663
 6671W        W10415  10.065   3.652   9.389
 6672W        W10416   9.450   6.018  11.746
 6673W        W10417   4.009   0.090   0.436
 6674W        W10418   7.966   9.223   1.844
 6675W        W10419   7.494   3.553  11.472
 6676W        W10420   6.204   4.645   2.580
 6677W        W10421  10.226   7.459   1.435
 6678W        W10422   8.034   1.303  10.629
 6679W        W10423   6.718   3.890   2.800
 6680W        W10424   2.573   9.897  10.504
 6681W        W10425   9.423   2.042   9.597
 6682W        W10426   0.214   0.654   1.843
 6683W        W10427   8.923   6.077   1.845
 6684W        W10428   4.613   5.956   9.842
 6685W        W10429   7.049   6.039   2.610
 6686W        W10430   1.420   6.210   9.488
 6687W        W10431   2.818   1.903   2.151
 6688W        W10432   7.309   2.334  10.264
 6689W        W10433   3.348   6.318  10.454
 6690W        W10434   0.800   4.087  10.768
 6691W        W10435   9.665   5.906   9.071
 6692W        W10436   8.544   6.579   2.840
 6693W        W10437   2.125   0.466   1.818
 6694W        W10438   9.388  10.296   1.612
 6695W        W10439   9.810   8.147   1.212
 6696W        W10440   6.336   9.108   9.635
 6697W        W10441   3.208   8.803   8.727
 6698W        W10442   1.783   2.672   2.791
 6699W        W10443   9.332   8.488   0.767
 6700W        W10444   4.239   0.204   3.250
 6701W        W10445   2.215   5.248   2.384
 6702W        W10446   1.775   0.711   9.828
 6703W        W10447   3.050   2.296  11.611
 6704W        W10448   2.570   3.987   8.490
 6705W        W10449   8.017   9.588  11.930
 6706W        W10450   5.052   0.807  10.394
 6707W        W10451   9.299   3.050   2.292
 6708W        W10452   1.518   8.458   9.731
 6709W        W10453   2.696   4.202   1.006
 6710W        W10454  10.383   1.273   9.483
 6711W        W10455   7.154   0.254   2.627
 6712W        W10456   1.383   6.988  11.226
 6713W        W10457   5.895   5.743   1.959
 6714W        W10458   2.713   7.019   1.319
 6715W        W10459   2.187   1.439  10.458
 6716W        W10460   4.939   4.578  11.957
 6717W        W10461   4.264   3.291   9.475
 6718W        W10462   8.049   0.197  10.078
 6719W        W10463   8.967   8.393   1.561
 6720W        W10464   6.668   2.740   1.468
 6721W        W10465   4.379   8.772   0.374
 6722W        W10466   2.383   8.994   2.523
 6723W        W10467   1.237   0.938   1.635
 6724W        W10468   7.139   5.707  11.112
 6725W        W10469   8.368   2.337   3.027
 6726W        W10470  10.147  10.444   9.324
 6727W        W10471   1.122   9.557   2.643
 6728W        W10472   2.632   2.852   9.886
 6729W        W10473   3.335   7.639  10.807
 6730W        W10474   0.990   1.070   9.746
 6731W        W10475   3.877   8.713   0.426
 6732W        W10476   6.083  10.191  11.830
 6733W        W10477   5.250   9.044   2.465
 6734W        W10478   5.179   2.397   2.258
 6735W        W10479   7.068   6.214   1.825
 6736W        W10480   1.514   0.254   3.264
 6737W        W10481   4.977   7.637   3.513
 6738W        W10482   5.215   5.673   9.812
 6739W        W10483   7.650   3.275   3.604
 6740W        W10484  10.186   0.295   2.176
 6741W        W10485   6.520   9.262   1.560
 6742W        W10486   5.090   9.977   9.944
 6743W        W10487   3.768   0.522   1.475
 6744W        W10488   5.726   5.043   0.004
 6745W        W10489   4.187   1.906   9.746
 6746W        W10490   8.051   5.241   0.687
 6747W        W10491   2.169   4.282   8.970
 6748W        W10492   7.046   3.313   9.908
 6749W        W10493   7.031   0.559   9.078
 6750W        W10494   5.676   7.362  10.063
 6751W        W10495   5.923   0.883  11.007
 6752W        W10496   4.972   7.076   8.532
 6753W        W10497   1.919   0.478   3.543
 6754W        W10498   5.528   5.995  11.882
 6755W        W10499   7.410   5.922   9.885
 6756W        W10500   9.270   4.207   9.130
 6757W        W10501   4.771   2.782   3.637
 6758W        W10502   5.140   5.084   3.435
 6759W        W10503   3.397   3.313   0.311
 6760W        W10504   0.883   4.576   9.961
 6761W        W10505   2.829   6.198   9.989
 6762W        W10506   8.300   5.074  10.511
 6763W        W10507   2.338   9.455   1.101
 6764W        W10508   6.170   0.806   3.165
 6765W        W10509   7.940   4.062   1.652
 6766W        W10510   1.853   7.423   3.543
 6767W        W10511   8.930   8.954   9.117
 6768W        W10512   5.149   4.016   1.882
 6769W        W10513  10.264   0.051  11.857
 6770W        W10514   7.926   6.105   0.520
 6771W        W10515   1.842   4.659   1.891
 6772W        W10516   9.930   8.590   2.030
 6773W        W10517   0.609   5.504   9.302
 6774W        W10518   4.039   2.765  10.996
 6775W        W10519   4.716   1.541   9.418
 6776W        W10520   8.751   0.011  10.019
 6777W        W10521   1.404   5.870   9.041
 6778W        W10522   0.424   3.978  11.465
 6779W        W10523   1.304   7.506   1.661
 6780W        W10524   8.049   2.785   9.234
 6781W        W10525   4.946   1.009  10.851
 6782W        W10526   4.100  10.418  10.448
 6783W        W10527   2.665   2.900   1.766
 6784W        W10528   3.210   3.623   9.297
 6785W        W10529   3.560   3.152   2.764
 6786W        W10530   6.576   8.013  10.775
 6787W        W10531   0.291   5.018   2.347
 6788W        W10532   7.029   6.452   2.279
 6789W        W10533   8.313   8.411  10.085
 6790W        W10534   0.420   3.748   9.037
 6791W        W10535   9.711   2.319  10.807
 6792W        W10536   2.226   2.936  10.191
 6793W        W10537   0.721   4.878  11.342
 6794W        W10538   2.266   1.959   2.559
 6795W        W10539   1.000   5.449   2.716
 6796W        W10540   3.595   5.359   1.295
 6797W        W10541   5.641   0.481   8.700
 6798W        W10542   5.628   0.388  10.153
 6799W        W10543   5.551   7.990   0.774
 6800W        W10544   5.246   0.784   1.166
 6801W        W10545   1.275   4.648   1.165
 6802W        W10546   1.467   6.595   0.785
 6803W        W10547   5.618   8.563   9.145
 6804W        W10548   4.335   2.162   2.764
 6805W        W10549   9.585   5.131  11.834
 6806W        W10550   0.700   0.324   0.953
 6807W        W10551   9.461   1.408   0.614
 6808W        W10552   6.433   3.676   9.411
 6809W        W10553   5.029   8.176   2.380
 6810W        W10554   9.429   1.396   2.892
 6811W        W10555   3.288   7.393   0.722
 6812W        W10556   7.969   3.874   8.492
 6813W        W10557   5.742   1.767   3.509
 6814W        W10558   8.437   0.821  10.532
 6815W        W10559   0.192   2.039   9.357
 6816W        W10560   3.807   7.625   8.908
 6817W        W10561   0.982   6.583  11.201
 6818W        W10562   6.365   8.776   1.658
 6819W        W10563   7.011   8.151  11.033
 6820W        W10564   0.330   9.756   9.593
 6821W        W10565   8.378   4.607   9.871
 6822W        W10566   2.126  10.366   2.644
 6823W        W10567   5.550   1.667  10.027
 6824W        W10568   0.407  10.477   3.151
 6825W        W10569   5.070   7.463   0.065
 6826W        W10570   2.652  10.355   9.485
 6827W        W10571   3.742   7.159   0.340
 6828W        W10572   4.042   5.682   1.375
 6829W        W10573   4.062   5.796   0.552
 6830W        W10574   1.399   0.456   8.651
 6831W        W10575   4.740   8.600   3.033
 6832W        W10576   9.052   5.380   2.338
 6833W        W10577   4.732   6.457   9.924
 6834W        W10578   8.488   9.843   1.520
 6835W        W10579   1.375   4.694   2.691
 6836W        W10580   1.672   5.506  10.185
 6837W        W10581   6.368   4.642   1.003
 6838W        W10582   3.019   7.702   8.145
 6839W        W10583   7.360   6.188   1.285
 6840W        W10584   6.895   1.297   9.354
 6841W        W10585   0.867   8.811  11.386
 6842W        W10586   3.069   0.302  11.342
 6843W        W10587   5.107   5.221  10.594
 6844W        W10588   3.499   0.024   2.312
 6845W        W10589   3.681  10.348   1.247
 6846W        W10590   8.991   2.719   9.726
 6847W        W10591   7.055   9.423   0.352
 6848W        W10592   7.654   8.377   1.908
 6849W        W10593   2.844   6.411   0.715
 6850W        W10594   5.756   0.889   3.521
 6851W        W10595   3.135   5.517   9.251
 6852W        W10596   6.197   3.467  10.346
 6853W        W10597   2.167   6.312   2.348
 6854W        W10598   6.484   9.725   0.605
 6855W        W10599   1.833   3.629   3.270
 6856W        W10600   2.665   9.993   0.419
 6857W        W10601   1.781   0.912  10.804
 6858W        W10602   4.180   1.421   1.282
 6859W        W10603   3.469   9.048  11.612
 6860W        W10604   1.065   2.751  10.693
 6861W        W10605   0.715   6.063   8.964
 6862W        W10606   0.529   8.703   0.444
 6863W        W10607   7.724   7.874   1.872
 6864W        W10608   8.878   9.390   2.972
 6865W        W10609   6.304   7.554   2.152
 6866W        W10610   0.400   6.384   1.303
 6867W        W10611   9.807   4.926   0.252
 6868W        W10612  10.243  10.059  10.394
 6869W        W10613   6.482   3.191   0.045
 6870W        W10614   0.714   1.281   2.337
 6871W        W10615   6.977   2.229   2.731
 6872W        W10616   6.722   5.228   2.177
 6873W        W10617   7.952   8.458   8.754
 6874W        W10618   3.179   4.462   0.747
 6875W        W10619   0.759   6.293   0.386
 6876W        W10620   1.506   2.454   0.589
 6877W        W10621   7.079   4.732   8.599
 6878W        W10622   6.828   7.088  10.434
 6879W        W10623   1.382   6.371   9.000
 6880W        W10624   2.337   8.978   2.013
 6881W        W10625   9.832   4.242   1.251
 6882W        W10626   9.577   8.489   9.929
 6883W        W10627   8.819   0.427  11.127
 6884W        W10628   2.105   6.884  10.488
 6885W        W10629   3.859   5.725  11.423
 6886W        W10630   1.982   7.663  10.892
 6887W        W10631   9.861   8.366   0.744
 6888W        W10632   4.499   4.530   1.985
 6889W        W10633   4.918  10.460   2.497
 6890W        W10634   9.747   7.904   9.835
 6891W        W10635   7.699   1.332  11.941
 6892W        W10636   7.581   9.134  10.252
 6893W        W10637  10.399   2.507   1.413
 6894W        W10638   0.491   0.720  10.458
 6895W        W10639   2.120   6.468   0.100
 6896W        W10640   4.151   9.772   1.979
 6897W        W10641   8.002   8.848  10.080
 6898W        W10642   2.252   6.909  11.486
 6899W        W10643   7.082   4.496   2.427
 6900W        W10644   4.664   4.102   2.713
 6901W        W10645   8.903   0.536   2.732
 6902W        W10646   9.038   1.840   1.193
 6903W        W10647   9.426   2.732  10.902
 6904W        W10648   0.369   7.108  11.387
 6905W        W10649   6.995   3.623   1.061
 6906W        W10650   2.993   0.312   8.772
 6907W        W10651   9.815   9.988   2.402
 6908W        W10652   9.607   8.156   9.373
 6909W        W10653   5.025   4.114   1.412
 6910W        W10654   9.712   9.222   0.859
 6911W        W10655   6.517   1.239   0.386
 6912W        W10656   1.426   7.366   0.155
 6913W        W10657  10.103   9.064   2.189
 6914W        W10658  10.418   6.933   1.707
 6915W        W10659   2.547   0.517   8.965
 6916W        W10660   0.423   1.204   1.843
 6917W        W10661   3.326   7.584  11.776
 6918W        W10662   8.778   0.856   2.322
 6919W        W10663   4.102   4.530   3.191
 6920W        W10664   9.098   1.123   3.953
 6921W        W10665   2.812   5.564   1.240
 6922W        W10666   8.460   6.155  10.838
 6923W        W10667   9.434   7.505   1.752
 6924W        W10668   1.657   5.071  10.457
 6925W        W10669   5.565   2.262  11.692
 6926W        W10670   2.711  10.411  10.019
 6927W        W10671   9.066   9.018   9.639
 6928W        W10672   7.236   4.057   3.757
 6929W        W10673   3.880   1.046  11.446
 6930W        W10674   2.621   1.626  10.710
 6931W        W10675   0.659   5.826   2.843
 6932W        W10676   7.626   9.130   1.498
 6933W        W10677   5.999   9.891   8.568
 6934W        W10678   6.830   6.150   3.085
 6935W        W10679   6.389   2.333   9.353
 6936W        W10680   6.325   4.347  10.022
 6937W        W10681   7.165   0.918  10.485
 6938W        W10682   7.896   0.848  11.238
 6939W        W10683   3.090   3.220   1.159
 6940W        W10684   8.356   1.391   1.692
 6941W        W10685   9.112   0.793  11.929
 6942W        W10686   7.891   1.254   0.989
 6943W        W10687   5.325   5.681   0.680
 6944W        W10688   4.559   5.149   0.623
 6945W        W10689   9.683   3.155  10.684
 6946W        W10690   3.859   4.913   1.358
 6947W        W10691   8.818   0.398  11.629
 6948W        W10692   2.599   2.459   1.273
 6949W        W10693   9.446  10.022   1.170
 6950W        W10694   5.264   7.004  11.991
 6951W        W10695   5.819   6.784   3.706
 6952W        W10696   9.430   2.952   9.909
 6953W        W10697   9.036   4.055  11.879
 6954W        W10698   6.919   2.422   0.768
 6955W        W10699   4.849   2.140   1.952
 6956W        W10700   2.490   8.330   8.255
 6957W        W10701  10.002   6.858  10.907
 6958W        W10702   1.752   7.666   1.506
 6959W        W10703   2.839   9.930  10.929
 6960W        W10704   1.110   7.189   1.328
 6961W        W10705   1.925   7.447   0.408
 6962W        W10706  10.202   3.137  10.338
 6963W        W10707   4.585   1.648  11.522
 6964W        W10708   3.568   6.350  11.038
 6965W        W10709   7.212   6.561   8.865
 6966W        W10710   2.363   8.724   0.406
 6967W        W10711   0.284   9.683   2.246
 6968W        W10712   2.331   7.458   0.748
 6969W        W10713   0.184   2.682  11.805
 6970W        W10714   6.035   8.197  11.993
 6971W        W10715   9.319   1.738  11.332
 6972W        W10716   5.014   0.524  10.956
 6973W        W10717   9.744   6.726   8.587
 6974W        W10718   1.694   7.859   0.266
 6975W        W10719   7.948   9.842   2.425
 6976W        W10720   4.738   1.651   8.387
 6977W        W10721   9.987   1.424   1.725
 6978W        W10722   6.441   8.005   9.816
 6979W        W10723  10.432   5.607  10.496
 6980W        W10724   7.079   9.920   1.276
 6981W        W10725   3.048   4.607   9.020
 6982W        W10726   5.312   2.873   2.085
 6983W        W10727   1.207   8.009   0.861
 6984W        W10728   8.979   3.976   2.909
 6985W        W10729   1.267   1.947  11.333
 6986W        W10730   7.112   1.139   2.446
 6987W        W10731   5.979   1.589   2.770
 6988W        W10732   5.738   9.065   3.101
 6989W        W10733   0.485   3.081   0.733
 6990W        W10734   8.596   2.254   1.547
 6991W        W10735   4.383   1.210  11.967
 6992W        W10736   8.987   6.984   9.003
 6993W        W10737   5.218   3.077   3.056
 6994W        W10738   5.815   1.398  11.780
 6995W        W10739   3.253   6.641   1.058
 6996W        W10740   0.404   7.612  10.017
 6997W        W10741   8.942   7.826   1.229
 6998W        W10742   0.703   0.884   3.223
 6999W        W10743   7.124   1.744   2.464
 7000W        W10744   0.172   9.923  11.410
 7001W        W10745   0.776   4.165   0.208
 7002W        W10746  10.478   2.921   2.131
 7003W        W10747   8.079   3.757  10.325
 7004W        W10748   7.035  10.372  10.389
 7005W        W10749   7.953   5.652  10.711
 7006W        W10750   7.674   3.593   0.351
 7007W        W10751   9.820   7.871   0.697
 7008W        W10752   3.276   9.272   0.279
 7009W        W10753   0.020   3.214  11.871
 7010W        W10754   9.501  10.035   0.255
 7011W        W10755   3.160   4.598   8.170
 7012W        W10756   3.403   4.448   3.154
 7013W        W10757   0.984   3.813   2.767
 7014W        W10758   9.174  10.324   9.798
 7015W        W10759   2.625   6.500   1.662
 7016W        W10760   1.416   9.784   1.339
 7017W        W10761   4.262   0.465   2.240
 7018W        W10762   9.993   6.696   1.417
 7019W        W10763   4.934   7.133   3.791
 7020W        W10764   3.840   9.046  11.241
 7021W        W10765   4.609   0.902   2.259
 7022W        W10766   0.670  10.000   9.956
 7023W        W10767   3.182   7.150  10.830
 7024W        W10768   5.786   4.685  10.899
 7025W        W10769   7.331   0.865   1.114
 7026W        W10770   4.676   6.480   0.794
 7027W        W10771   5.426   5.418   0.217
 7028W        W10772  10.332   0.810  10.193
 7029W        W10773   6.897  10.250   9.451
 7030W        W10774   3.789   1.456  10.895
 7031W        W10775   9.891   4.070   0.384
 7032W        W10776   2.827   6.686   9.813
 7033W        W10777   2.358   8.531  10.865
 7034W        W10778   9.784   3.596   0.757
 7035W        W10779   5.161   9.810   2.974
 7036W        W10780   9.211   7.426   3.385
 7037W        W10781   4.720   3.642   2.954
 7038W        W10782   9.846   6.367  10.933
 7039W        W10783   2.662   1.645   2.571
 7040W        W10784   0.366   3.589  10.094
 7041W        W10785   7.555   4.438   2.650
 7042W        W10786   2.203   2.872   2.016
 7043W        W10787   1.579   3.670   1.391
 7044W        W10788   8.977   8.343  10.824
 7045W        W10789   1.777   3.147  10.456
 7046W        W10790   7.284   3.342   3.230
 7047W        W10791   1.881   8.945   9.611
 7048W        W10792   7.361   4.535  11.512
 7049W        W10793   2.221   5.557   1.907
 7050W        W10794   8.083   1.583  11.052
 7051W        W10795   2.651   4.656  10.021
 7052W        W10796   2.933  10.234   1.694
 7053W        W10797   8.972   1.795   9.835
 7054W        W10798   6.075   3.314   9.408
 7055W        W10799  10.077   0.414   9.059
 7056W        W10800   6.250   0.644   3.640
 7057W        W10801  10.330   1.383  10.468
 7058W        W10802   3.582   9.948  11.527
 7059W        W10803   5.011   9.953  11.205
 7060W        W10804   7.566   5.039   1.853
 7061W        W10805   8.651   3.654   8.996
 7062W        W10806   6.268   0.841  10.364
 7063W        W10807   2.504   4.019   9.417
 7064W        W10808   8.510   3.361  11.991
 7065W        W10809   3.746   0.320   3.028
 7066W        W10810   9.716   0.353  10.805
 7067W        W10811   6.939   5.985  10.656
 7068W        W10812   0.893   3.841   1.850
 7069W        W10813   8.142   4.629  10.323
 7070W        W10814   1.268   3.788   2.331
 7071W        W10815   6.996   8.310   9.758
 7072W        W10816  10.046   1.825  10.438
 7073W        W10817  10.260   6.008   1.759
 7074W        W10818   5.848   0.694   2.754
 7075W        W10819   0.968   8.945   3.461
 7076W        W10820   4.073   4.090  10.797
 7077W        W10821   4.712   8.632   1.691
 7078W        W10822  10.494   3.800   3.169
 7079W        W10823   1.657   1.951   1.478
 7080W        W10824   6.649   6.199   4.014
 7081W        W10825   8.608   1.736   0.913
 7082W        W10826   0.166   0.839   0.567
 7083W        W10827   0.997   4.666   0.268
 7084W        W10828   0.152   2.169   2.301
 7085W        W10829   1.812   7.156  10.863
 7086W        W10830   8.946   7.518  10.311
 7087W        W10831   8.560   2.127  11.483
 7088W        W10832   6.550   0.978  11.941
 7089W        W10833   9.682   8.951  11.100
 7090W        W10834   2.791   9.569  11.665
 7091W        W10835   7.801   6.588   0.660
 7092W        W10836   8.481   3.708  11.537
 7093W        W10837   0.369   5.024   1.365
 7094W        W10838   3.618   4.085  11.015
 7095W        W10839   6.162   7.033  10.949
 7096W        W10840   0.811   2.214   1.741
 7097W        W10841   2.383   3.782   1.648
 7098W        W10842   0.539   1.841   3.454
 7099W        W10843   8.392   7.419  11.423
 7100W        W10844   7.588   3.760   2.050
 7101W        W10845   6.602   1.227  11.504
 7102W        W10846   2.771   7.378   2.840
 7103W        W10847   0.619   4.598  10.783
 7104W        W10848   0.801   0.927   8.730
 7105W        W10849   6.254   4.944   0.044
 7106W        W10850   3.963   2.097  11.995
 7107W        W10851   2.903  10.315   3.100
 7108W        W10852   5.794   0.451   3.199
 7109W        W10853   2.204   8.705   8.490
 7110W        W10854   1.460   1.365   3.158
 7111W        W10855   0.157   8.936  10.892
 7112W        W10856   1.179   0.961   3.038
 7113W        W10857   3.281   4.150   8.980
 7114W        W10858   8.610   1.359   0.363
 7115W        W10859   6.599   6.518   0.896
 7116W        W10860   7.406   2.260  10.860
 7117W        W10861   3.409  10.296   1.844
 7118W        W10862   9.340   1.825   0.260
 7119W        W10863   6.264   7.859   0.794
 7120W        W10864   2.697   0.563   0.220
 7121W        W10865   5.764   4.924   0.494
 7122W        W10866   6.411   8.995  10.996
 7123W        W10867   6.256   0.388   9.982
 7124W        W10868   3.117   9.303  11.382
 7125W        W10869   6.530  10.395   9.113
 7126W        W10870   6.842   4.361  10.077
 7127W        W10871  10.058   2.131   8.781
 7128W        W10872   7.567   2.224   9.297
 7129W        W10873   1.300   7.941   9.054
 7130W        W10874   8.591   1.281   8.953
 7131W        W10875   7.856   3.793   9.315
 7132W        W10876   4.284   1.814   9.238
 7133W        W10877  10.398   4.840   3.609
 7134W        W10878   9.997   1.877   2.484
 7135W        W10879   2.567   9.004   1.167
 7136W        W10880   3.700   7.567  10.283
 7137W        W10881   8.405   3.735   9.929
 7138W        W10882   2.863   2.399   9.847
 7139W        W10883  10.345   1.619   8.623
 7140W        W10884   6.562   1.944   2.066
 7141W        W10885   4.086   7.820   0.325
 7142W        W10886   0.804   3.274   8.980
 7143W        W10887   3.582   5.514   9.873
 7144W        W10888   1.766  10.408   9.510
 7145W        W10889   9.898   0.170   0.805
 7146W        W10890   5.989   0.869   8.587
 7147W        W10891   7.265   7.761  11.963
 7148W        W10892   6.746   2.693   2.320
 7149W        W10893   3.702   0.821  10.552
 7150W        W10894   2.233   8.184   3.537
 7151W        W10895   8.338   3.673   9.420
 7152W        W10896   7.916   3.207   2.101
 7153W        W10897   0.961   3.206   1.842
 7154W        W10898   7.437   8.640  10.529
 7155W        W10899   0.819   0.626   9.585
 7156W        W10900   9.085   1.936  10.317
 7157W        W10901   9.101   9.287   1.370
 7158W        W10902   4.334   2.897  10.524
 7159W        W10903   8.607   1.256   1.256
 7160W        W10904   6.813   2.551   3.547
 7161W        W10905   4.131   6.120   9.636
 7162W        W10906   2.305  10.324  11.258
 7163W        W10907   2.935   3.260   9.948
 7164W        W10908   9.032   1.268  11.717
 7165W        W10909   1.861   0.186  10.539
 7166W        W10910   1.082   2.635   3.415
 7167W        W10911   9.544   2.618  11.980
 7168W        W10912   7.139   4.199   2.857
 7169W        W10913   0.687   6.035  10.729
 7170W        W10914   6.544   1.936  11.913
 7171W        W10915   2.633   4.080  10.931
 7172W        W10916   8.283   6.974   2.623
 7173W        W10917   0.943   8.494   0.929
 7174W        W10918   1.404   0.271   9.546
 7175W        W10919   1.531   5.054   9.344
 7176W        W10920   4.083   4.371   0.579
 7177W        W10921   4.131   8.376   3.646
 7178W        W10922   6.458   6.094   9.760
 7179W        W10923   8.109   2.105   9.994
 7180W        W10924   3.222   8.962   2.475
 7181W        W10925   7.997   0.170   3.465
 7182W        W10926   3.100   3.728   9.999
 7183W        W10927   4.021  10.220  11.414
 7184W        W10928   1.156   5.942   2.912
 7185W        W10929   0.939   1.299   1.889
 7186W        W10930   8.817   8.555   9.439
 7187W        W10931   4.341   6.606   2.880
 7188W        W10932   7.531   6.046   8.899
 7189W        W10933   0.695   1.960   9.366
 7190W        W10934   3.776   0.973   1.775
 7191W        W10935   7.018   0.119   2.144
 7192W        W10936   5.827   2.898   2.061
 7193W        W10937   9.833   8.845   0.061
 7194W        W10938   1.809  10.175  10.505
 7195W        W10939   3.098   2.326   2.320
 7196W        W10940   0.669   1.352   0.056
 7197W        W10941   2.134   2.421   0.633
 7198W        W10942   7.465   4.125   9.312
 7199W        W10943   3.367   0.755  11.390
 7200W        W10944   2.675  10.368   2.633
 7201W        W10945   0.004   5.548   9.027
 7202W        W10946   4.969   1.683   2.965
 7203W        W10947   3.938   4.473   0.106
 7204W        W10948   9.319   4.543   2.375
 7205W        W10949   9.215  10.135  10.383
 7206W        W10950   9.364   0.925   0.394
 7207W        W10951   1.235   2.754   9.279
 7208W        W10952   2.583   4.201   1.901
 7209W        W10953   3.094   5.555   9.751
 7210W        W10954   2.833   8.974   9.512
 7211W        W10955   5.530   6.053  10.746
 7212W        W10956   7.709   7.800   9.843
 7213W        W10957   3.080   2.716   8.864
 7214W        W10958   5.043  10.388   8.718
 7215W        W10959   6.510  10.464   0.011
 7216W        W10960   3.833   3.168   9.756
 7217W        W10961   7.824   6.471   0.171
 7218W        W10962   6.049   2.181   8.471
 7219W        W10963   3.217   3.199  11.041
 7220W        W10964   4.759  10.143   9.358
 7221W        W10965   4.118   7.038   9.796
 7222W        W10966  10.215   9.928   2.727
 7223W        W10967   4.006   2.699   1.991
 7224W        W10968   0.498   0.856   2.217
 7225W        W10969   1.359   1.459   0.746
 7226W        W10970   2.031   1.778   1.775
 7227W        W10971   3.738  10.087   2.162
 7228W        W10972   5.635   4.870  11.377
 7229W        W10973   9.835   7.727   2.238
 7230ION    NA+10974   7.830   6.967   9.072
 7231ION    NA+10975   8.846  10.449  11.967
 7232ION    NA+10976   0.396   6.621   3.619
 7233ION    NA+10977   6.668   1.820   3.090
 7234ION    NA+10978  10.499   3.693  11.501
 7235ION    NA+10979   1.369   8.600   2.950
 7236ION    NA+10980   9.970   6.479   0.954
 7237ION    NA+10981   4.888   0.346   9.410
 7238ION    NA+10982   2.949   4.641   0.227
 7239ION    NA+10983   0.102   0.438   9.061
 7240ION    NA+10984   7.396   4.695   8.162
 7241ION    NA+10985   0.187   9.071   9.259
 7242ION    NA+10986   5.274   7.101  11.047
 7243ION    NA+10987   5.216   3.075   9.037
 7244ION    NA+10988   6.370   8.912  10.116
 7245ION    NA+10989   1.436   6.744   9.808
 7246ION    NA+10990   4.066   1.981  11.062
 7247ION    NA+10991   1.580   0.258   0.943
 7248ION    NA+10992   2.745   0.349  10.822
 7249ION    NA+10993   2.320   2.509   1.696
 7250ION    NA+10994   9.369   0.173   1.984
 7251ION    NA+10995   0.470   7.722   1.367
 7252ION    NA+10996   7.776   0.788   3.789
 7253ION    NA+10997   7.906   3.745   9.817
 7254ION    NA+10998   0.225   5.320  10.818
 7255ION    NA+10999   3.804   4.789  11.204
 7256ION    NA+11000   7.049   1.981   0.519
 7257ION    NA+11001   3.619   9.283   2.429
 7258ION    NA+11002   6.625   3.529   1.880
 7259ION    NA+11003   3.239   6.569   9.455
 7260ION    NA+11004   1.625   4.982   1.367
 7261ION    NA+11005  10.452  10.342   2.934
 7262ION    NA+11006   2.671   1.979  11.110
 7263ION    NA+11007   6.982  10.003   9.018
 7264ION    NA+11008   9.362   3.262   0.791
 7265ION    NA+11009   1.688   1.800  11.066
 7266ION    NA+11010   1.743   3.000   9.176
 7267ION    NA+11011   4.530   6.793   9.599
 7268ION    NA+11012   1.780   7.159  11.534
 7269ION    NA+11013   3.846   0.947   0.621
 7270ION    NA+11014   0.298   9.153   0.328
 7271ION    NA+11015   9.399   1.463  10.439
 7272ION    NA+11016   7.587   2.112  11.345
 7273ION    NA+11017   9.573   5.213   3.452
 7274ION    NA+11018   4.530   5.172   0.089
 7275ION    NA+11019   0.923   5.399   0.121
 7276ION    NA+11020  10.108   9.615   9.539
 7277ION    NA+11021   3.367   6.647   2.607
 7278ION    NA+11022   2.722   9.345   1.963
 7279ION    NA+11023   5.913   9.125  10.980
 7280ION    NA+11024   4.934   3.299   8.105
 7281ION    NA+11025   5.382   4.870   1.644
 7282ION    NA+11026   9.647   3.724  11.131
 7283ION    NA+11027   0.241   5.167   1.852
 7284ION    NA+11028   1.151  10.079  11.620
 7285ION    NA+11029   1.715   0.404  10.991
 7286ION    NA+11030   4.117   8.143   1.004
 7287ION    NA+11031   5.108   2.390   1.226
 7288ION    NA+11032   1.079   9.012  11.842
 7289ION    NA+11033   0.357   7.995   2.910
 7290ION    NA+11034   6.289   9.616   1.875
 7291ION    NA+11035   4.979   4.749   0.891
 7292ION    NA+11036   0.675   0.784   0.750
 7293ION    NA+11037   1.161   9.796   3.187
 7294ION    NA+11038   3.807   0.901  10.071
 7295ION    NA+11039   1.880   7.746   9.774
 7296ION    NA+11040   5.258   5.581  11.744
 7297ION    NA+11041   3.929   0.064   9.449
 7298ION    NA+11042   2.811   0.183   0.532
 7299ION    NA+11043   7.888   0.689   2.208
 7300ION    NA+11044   2.013   0.544   0.013
 7301ION    NA+11045   4.742   3.661   1.928
 7302ION    NA+11046   1.010   8.193  11.882
 7303ION    NA+11047   6.784   7.646   0.676
 7304ION    NA+11048   2.758   7.951   2.287
 7305ION    NA+11049   4.382   8.642   9.947
 7306ION    CL-11050   5.129   4.954   1.275
 7307ION    CL-11051   4.866   5.390  11.872
 7308ION    CL-11052   9.019   2.803  10.237
 7309ION    CL-11053   8.569   1.389   9.449
 7310ION    CL-11054  10.410   3.247   1.756
 7311ION    CL-11055   5.473   6.867   1.453
 7312ION    CL-11056   1.689  10.061   8.581
 7313ION    CL-11057   8.542   8.813   9.801
 7314ION    CL-11058   9.225   0.209  10.897
 7315ION    CL-11059   3.356   2.752   3.374
 7316ION    CL-11060   1.946   8.174   9.655
 7317ION    CL-11061   2.793   3.651   1.099
 7318ION    CL-11062   7.343  10.038   9.290
 7319ION    CL-11063   0.619   7.312   1.258
 7320ION    CL-11064   2.683   1.871  11.545
 7321ION    CL-11065   1.174   8.573  11.698
 7322ION    CL-11066   1.316   2.957  11.729
 7323ION    CL-11067   3.727   8.896   2.234
 7324ION    CL-11068   4.663   0.502   1.916
 7325ION    CL-11069   9.155   2.622   8.721
 7326ION    CL-11070   2.872   0.560   2.003
 7327ION    CL-11071   3.940   0.808   1.038
 7328ION    CL-11072   6.786   9.018   9.994
 7329ION    CL-11073   8.529   9.142   0.527
 7330ION    CL-11074   9.407   4.363   9.634
 7331ION    CL-11075   6.734   9.557   1.939
 7332ION    CL-11076   9.342   3.481  10.897
 7333ION    CL-11077   7.880   8.914  10.604
 7334ION    CL-11078   2.900   4.553   3.225
 7335ION    CL-11079   2.685   1.266   1.320
 7336ION    CL-11080   0.637   9.056   0.012
 7337ION    CL-11081   0.164   8.951   0.718
 7338ION    CL-11082   2.094   3.825   0.405
 7339ION    CL-11083   1.573   2.939   8.756
 7340ION    CL-11084   4.436  10.004  11.964
 7341ION    CL-11085   1.285   8.607   2.503
 7342ION    CL-11086   2.457   7.663   2.450
 7343ION    CL-11087   5.125   9.206   9.506
 7344ION    CL-11088   4.750   9.909  10.301
 7345ION    CL-11089   8.320   5.344   8.809
 7346ION    CL-11090   6.617   1.413   3.287
 7347ION    CL-11091  10.070   3.722  11.348
 7348ION    CL-11092   9.844   8.011   1.772
 7349ION    CL-11093   6.847   7.151   0.956
 7350ION    CL-11094   2.260   1.886   0.499
 7351ION    CL-11095   5.066   2.899   9.419
 7352ION    CL-11096  10.480   9.363   9.535
 7353ION    CL-11097   4.204   3.689   3.694
 7354ION    CL-11098   5.850   7.815   1.156
 7355ION    CL-11099   2.511   4.710   0.199
 7356ION    CL-11100   3.153   5.160   8.867
 7357ION    CL-11101   4.854   4.560  10.701
 7358ION    CL-11102   7.162   8.412   1.749
 7359ION    CL-11103   4.016   2.358  11.297
 7360ION    CL-11104   1.191   9.141  10.139
 7361ION    CL-11105   6.762   9.941   8.616
 7362ION    CL-11106   7.987   4.507   1.384
 7363ION    CL-11107   0.268   9.890   0.421
 7364ION    CL-11108   2.597   6.478  11.911
 7365ION    CL-11109   7.978   6.221   9.448
 7366ION    CL-11110   1.373   8.611   3.425
 7367ION    CL-11111   9.268   5.044   8.702
 7368ION    CL-11112   0.634   5.153  10.894
 7369ION    CL-11113   5.194   3.468   4.082
 7370ION    CL-11114   6.944   7.956   0.382
 7371ION    CL-11115   5.844   9.674   1.798
 7372ION    CL-11116   4.025   5.067  10.937
 7373ION    CL-11117   3.494   6.864   2.977
 7374ION    CL-11118   0.559   1.152   0.527
 7375ION    CL-11119   8.464   8.200  10.992
 7376ION    CL-11120   8.913   6.940  10.766
 7377ION    CL-11121   8.402  10.160   3.061
 7378ION    CL-11122   4.205   2.294   9.383
 7379ION    CL-11123   2.960   0.858   8.985
 7380ION    CL-11124   2.226   2.898   1.497
 7381ION    CL-11125   1.300   9.792  11.934
  10.50000  10.50000  12.00000
