Protein in INSANE! Membrane UpperLeaflet>POPC=1.0 LowerLeaflet>POPC=1.0
11125
    1AU     AUC    1   5.237   5.284   6.002
    1AU     AUC    2   5.528   5.279   5.837
    1AU     AUC    3   5.478   5.264   6.176
    1AU     AUC    4   4.970   5.281   5.838
    1AU     AUC    5   4.972   5.327   6.186
    1AU     AUC    6   5.082   5.566   5.999
    1AU     AUC    7   5.427   5.551   5.991
    1AU     AUC    8   5.045   5.018   6.003
    1AU     AUC    9   5.397   4.997   6.008
    1AU     AUC   10   5.230   5.106   6.273
    1AU     AUC   11   5.234   5.473   6.264
    1AU     AUC   12   5.233   5.118   5.733
    1AU     AUC   13   5.273   5.436   5.720
    1AU     AUC   14   5.856   5.268   5.696
    1AU     AUC   15   5.844   5.251   6.034
    1AU     AUC   16   5.774   5.237   6.385
    1AU     AUC   17   4.651   5.295   5.672
    1AU     AUC   18   4.635   5.337   6.036
    1AU     AUC   19   4.682   5.373   6.370
    1AU     AUC   20   4.938   5.887   5.971
    1AU     AUC   21   5.292   5.899   5.944
    1AU     AUC   22   5.616   5.832   5.980
    1AU     AUC   23   4.838   4.744   6.002
    1AU     AUC   24   5.178   4.676   5.974
    1AU     AUC   25   5.565   4.680   5.997
    1AU     AUC   26   5.205   4.927   6.569
    1AU     AUC   27   5.230   5.289   6.605
    1AU     AUC   28   5.274   5.647   6.553
    1AU     AUC   29   5.264   4.948   5.455
    1AU     AUC   30   5.258   5.269   5.386
    1AU     AUC   31   5.266   5.582   5.408
    1AU     AUC   32   5.489   5.044   6.502
    1AU     AUC   33   5.535   5.431   6.499
    1AU     AUC   34   5.581   5.109   5.527
    1AU     AUC   35   5.579   5.453   5.531
    1AU     AUC   36   4.929   5.168   6.517
    1AU     AUC   37   4.963   5.541   6.488
    1AU     AUC   38   4.934   5.108   5.548
    1AU     AUC   39   4.922   5.423   5.497
    1AU     AUC   40   5.782   5.557   5.827
    1AU     AUC   41   5.704   5.541   6.196
    1AU     AUC   42   4.763   5.599   5.836
    1AU     AUC   43   4.788   5.663   6.188
    1AU     AUC   44   5.741   4.962   5.869
    1AU     AUC   45   5.678   4.925   6.196
    1AU     AUC   46   4.706   5.002   5.869
    1AU     AUC   47   4.756   5.053   6.216
    1AU     AUC   48   5.111   5.824   6.257
    1AU     AUC   49   5.444   5.764   6.273
    1AU     AUC   50   5.026   4.822   6.292
    1AU     AUC   51   5.346   4.749   6.271
    1AU     AUC   52   5.082   5.718   5.682
    1AU     AUC   53   5.464   5.732   5.663
    1AU     AUC   54   5.032   4.810   5.711
    1AU     AUC   55   5.423   4.826   5.723
    1AU    AUSL   56   5.759   5.154   6.760
    1AU    AUSL   57   5.483   4.740   6.670
    1AU     AUL   58   5.759   4.764   6.856
    1AU       S   59   5.816   4.344   6.658
    1AU     LIG   60   5.939   3.981   6.929
    1AU     LIG   61   6.139   3.615   7.181
    1AU     LIG   62   6.365   3.472   7.566
    1AU     LIG   63   6.355   3.576   8.030
    1AU       S   64   6.019   5.146   6.937
    1AU     LIG   65   6.258   5.408   7.237
    1AU     LIG   66   6.454   5.318   7.665
    1AU     LIG   67   6.704   5.187   8.058
    1AU     LIG   68   7.029   5.232   8.409
    1AU    AUSL   69   5.350   5.076   6.914
    1AU    AUSL   70   5.098   5.473   6.936
    1AU     AUL   71   5.295   5.350   7.204
    1AU       S   72   5.644   5.036   7.215
    1AU     LIG   73   5.283   4.780   7.486
    1AU     LIG   74   5.294   4.617   7.932
    1AU     LIG   75   5.601   4.593   8.296
    1AU     LIG   76   5.873   4.675   8.672
    1AU       S   77   4.856   5.225   7.153
    1AU     LIG   78   4.870   5.178   7.649
    1AU     LIG   79   4.694   5.106   8.083
    1AU     LIG   80   4.552   5.165   8.529
    1AU     LIG   81   4.628   5.430   8.926
    1AU    AUSL   82   5.431   5.458   6.673
    1AU    AUSL   83   5.885   5.544   6.620
    1AU     AUL   84   5.675   5.461   6.951
    1AU       S   85   5.347   5.823   7.099
    1AU     LIG   86   5.632   5.951   7.426
    1AU     LIG   87   5.725   6.004   7.898
    1AU     LIG   88   5.764   5.986   8.383
    1AU     LIG   89   5.773   5.900   8.855
    1AU       S   90   6.055   5.704   6.834
    1AU     LIG   91   6.483   5.756   6.909
    1AU     LIG   92   6.745   5.998   7.194
    1AU     LIG   93   6.943   6.228   7.543
    1AU     LIG   94   7.282   6.433   7.792
    1AU    AUSL   95   5.737   5.312   5.381
    1AU    AUSL   96   5.663   5.750   5.351
    1AU     AUL   97   5.831   5.633   5.108
    1AU       S   98   5.699   5.349   4.786
    1AU     LIG   99   6.016   5.314   4.453
    1AU     LIG  100   6.237   5.023   4.176
    1AU     LIG  101   6.333   4.924   3.738
    1AU     LIG  102   6.566   5.090   3.371
    1AU       S  103   6.044   5.962   5.371
    1AU     LIG  104   6.140   6.185   4.965
    1AU     LIG  105   6.315   6.412   4.580
    1AU     LIG  106   6.512   6.651   4.235
    1AU     LIG  107   6.731   6.986   4.011
    1AU    AUSL  108   5.544   5.037   5.092
    1AU    AUSL  109   5.996   4.977   5.451
    1AU     AUL  110   5.939   5.165   5.168
    1AU       S  111   6.101   4.718   5.232
    1AU     LIG  112   6.275   4.383   4.914
    1AU     LIG  113   6.491   3.998   4.726
    1AU     LIG  114   6.757   3.738   4.435
    1AU     LIG  115   7.160   3.722   4.179
    1AU       S  116   5.687   5.125   4.774
    1AU     LIG  117   5.891   4.805   4.545
    1AU     LIG  118   5.873   4.667   4.097
    1AU     LIG  119   5.852   4.758   3.638
    1AU     LIG  120   6.103   4.860   3.248
    1AU    AUSL  121   5.387   5.458   5.179
    1AU    AUSL  122   5.139   5.085   5.239
    1AU     AUL  123   5.260   5.099   4.933
    1AU       S  124   4.802   5.111   4.799
    1AU     LIG  125   4.720   4.781   4.475
    1AU     LIG  126   4.617   4.592   4.039
    1AU     LIG  127   4.497   4.675   3.587
    1AU     LIG  128   4.653   4.792   3.156
    1AU       S  129   5.465   5.502   4.836
    1AU     LIG  130   5.492   5.349   4.346
    1AU     LIG  131   5.778   5.177   3.993
    1AU     LIG  132   5.963   5.257   3.561
    1AU     LIG  133   5.876   5.440   3.134
    1AU    AUSL  134   4.699   5.433   6.747
    1AU    AUSL  135   5.029   5.773   6.634
    1AU     AUL  136   4.869   5.710   6.960
    1AU       S  137   4.682   5.338   7.189
    1AU     LIG  138   4.389   5.147   7.456
    1AU     LIG  139   4.303   4.891   7.838
    1AU     LIG  140   4.152   4.917   8.292
    1AU     LIG  141   3.794   5.078   8.578
    1AU       S  142   4.635   6.052   6.733
    1AU     LIG  143   4.521   6.240   7.154
    1AU     LIG  144   4.344   6.457   7.552
    1AU     LIG  145   4.120   6.711   7.902
    1AU     LIG  146   3.946   6.840   8.338
    1AU    AUSL  147   5.004   5.136   6.665
    1AU    AUSL  148   4.576   5.013   6.640
    1AU     AUL  149   4.499   5.237   6.778
    1AU       S  150   4.468   4.780   6.902
    1AU     LIG  151   4.019   4.583   6.915
    1AU     LIG  152   3.769   4.173   6.934
    1AU     LIG  153   3.521   3.824   7.158
    1AU     LIG  154   3.084   3.704   7.352
    1AU       S  155   4.874   5.074   7.051
    1AU     LIG  156   4.730   4.780   7.385
    1AU     LIG  157   4.784   4.665   7.806
    1AU     LIG  158   4.572   4.608   8.200
    1AU     LIG  159   4.445   4.609   8.637
    1AU    AUSL  160   4.720   5.203   5.283
    1AU    AUSL  161   4.903   4.811   5.465
    1AU     AUL  162   4.918   4.826   5.136
    1AU       S  163   4.587   5.106   4.967
    1AU     LIG  164   4.291   4.971   4.694
    1AU     LIG  165   4.245   4.895   4.234
    1AU     LIG  166   4.054   4.907   3.798
    1AU     LIG  167   3.614   5.040   3.627
    1AU       S  168   4.506   4.688   5.288
    1AU     LIG  169   4.307   4.372   5.028
    1AU     LIG  170   4.015   4.057   4.799
    1AU     LIG  171   3.733   3.831   4.491
    1AU     LIG  172   3.661   3.619   4.078
    1AU    AUSL  173   4.983   5.480   5.052
    1AU    AUSL  174   4.521   5.571   5.421
    1AU     AUL  175   4.633   5.542   5.099
    1AU       S  176   4.247   5.756   5.271
    1AU     LIG  177   4.038   6.046   4.960
    1AU     LIG  178   3.952   6.276   4.562
    1AU     LIG  179   3.621   6.405   4.258
    1AU     LIG  180   3.146   6.466   4.178
    1AU       S  181   4.881   5.338   4.759
    1AU     LIG  182   4.612   5.268   4.363
    1AU     LIG  183   4.587   5.102   3.910
    1AU     LIG  184   4.613   5.204   3.452
    1AU     LIG  185   4.754   5.455   3.067
    1AU    AUSL  186   6.053   5.781   6.031
    1AU    AUSL  187   6.010   5.555   5.604
    1AU     AUL  188   6.320   5.849   5.778
    1AU       S  189   6.129   5.623   5.447
    1AU     LIG  190   6.459   5.783   5.136
    1AU     LIG  191   6.641   6.101   4.849
    1AU     LIG  192   6.828   6.312   4.483
    1AU     LIG  193   7.046   6.663   4.267
    1AU       S  194   6.498   5.829   6.202
    1AU     LIG  195   6.938   5.904   6.020
    1AU     LIG  196   7.371   6.100   5.996
    1AU     LIG  197   7.545   6.524   6.092
    1AU     LIG  198   7.813   6.788   6.377
    1AU    AUSL  199   6.225   5.372   5.932
    1AU    AUSL  200   6.141   5.052   6.268
    1AU     AUL  201   6.312   5.286   6.413
    1AU       S  202   6.452   5.456   5.995
    1AU     LIG  203   6.890   5.383   5.926
    1AU     LIG  204   7.296   5.582   5.817
    1AU     LIG  205   7.721   5.731   5.810
    1AU     LIG  206   8.098   5.538   5.590
    1AU       S  207   6.397   4.901   6.136
    1AU     LIG  208   6.803   4.685   6.257
    1AU     LIG  209   7.249   4.475   6.226
    1AU     LIG  210   7.687   4.342   6.328
    1AU     LIG  211   8.094   4.517   6.493
    1AU    AUSL  212   5.903   5.402   6.219
    1AU    AUSL  213   5.709   5.794   6.293
    1AU     AUL  214   6.075   5.727   6.367
    1AU       S  215   6.046   5.993   6.748
    1AU     LIG  216   6.366   6.267   6.953
    1AU     LIG  217   6.691   6.539   7.190
    1AU     LIG  218   6.875   6.973   7.308
    1AU     LIG  219   6.952   7.465   7.268
    1AU       S  220   6.503   5.636   6.195
    1AU     LIG  221   6.907   5.577   6.405
    1AU     LIG  222   7.352   5.684   6.312
    1AU     LIG  223   7.781   5.716   6.460
    1AU     LIG  224   8.135   5.963   6.634
    1AU    AUSL  225   4.629   5.889   6.009
    1AU    AUSL  226   4.661   5.684   6.407
    1AU     AUL  227   4.390   6.018   6.232
    1AU       S  228   4.520   5.840   6.636
    1AU     LIG  229   4.192   5.888   6.917
    1AU     LIG  230   4.016   6.167   7.249
    1AU     LIG  231   3.824   6.423   7.589
    1AU     LIG  232   3.631   6.544   8.009
    1AU       S  233   4.648   6.280   5.932
    1AU     LIG  234   4.222   6.479   5.771
    1AU     LIG  235   3.743   6.621   5.857
    1AU     LIG  236   3.264   6.765   5.954
    1AU     LIG  237   2.796   6.669   6.062
    1AU    AUSL  238   4.568   5.488   5.829
    1AU    AUSL  239   4.691   5.945   5.589
    1AU     AUL  240   4.397   5.849   5.711
    1AU       S  241   4.183   5.268   5.450
    1AU     LIG  242   3.793   5.516   5.359
    1AU     LIG  243   3.411   5.787   5.497
    1AU     LIG  244   3.061   6.113   5.461
    1AU     LIG  245   2.591   6.155   5.477
    1AU       S  246   4.542   6.202   5.424
    1AU     LIG  247   4.255   6.452   5.211
    1AU     LIG  248   4.195   6.662   4.799
    1AU     LIG  249   3.953   7.005   4.595
    1AU     LIG  250   3.622   7.300   4.733
    1AU    AUSL  251   4.321   5.564   6.187
    1AU    AUSL  252   4.270   5.190   5.905
    1AU     AUL  253   4.165   5.494   5.881
    1AU       S  254   4.053   5.134   6.180
    1AU     LIG  255   3.622   5.154   5.965
    1AU     LIG  256   3.346   4.847   5.768
    1AU     LIG  257   2.949   4.641   5.733
    1AU     LIG  258   2.555   4.802   5.633
    1AU       S  259   4.157   5.612   6.378
    1AU     LIG  260   3.682   5.544   6.329
    1AU     LIG  261   3.258   5.689   6.478
    1AU     LIG  262   2.864   5.952   6.451
    1AU     LIG  263   2.467   6.220   6.335
    1AU    AUSL  264   5.955   4.689   6.085
    1AU    AUSL  265   5.739   4.955   6.386
    1AU     AUL  266   6.066   4.850   6.487
    1AU       S  267   6.286   4.610   6.128
    1AU     LIG  268   6.573   4.295   6.000
    1AU     LIG  269   7.003   4.095   5.976
    1AU     LIG  270   7.442   3.933   6.078
    1AU     LIG  271   7.817   3.847   6.352
    1AU       S  272   5.952   4.419   6.518
    1AU     LIG  273   6.324   4.268   6.749
    1AU     LIG  274   6.467   4.019   7.139
    1AU     LIG  275   6.726   3.831   7.493
    1AU     LIG  276   6.996   3.815   7.888
    1AU    AUSL  277   5.935   5.069   5.861
    1AU    AUSL  278   5.847   4.617   5.669
    1AU     AUL  279   6.131   4.772   5.717
    1AU       S  280   6.473   4.960   5.944
    1AU     LIG  281   6.782   4.702   5.747
    1AU     LIG  282   7.189   4.499   5.713
    1AU     LIG  283   7.606   4.341   5.810
    1AU     LIG  284   8.006   4.263   5.595
    1AU       S  285   6.052   4.470   5.355
    1AU     LIG  286   5.993   4.040   5.207
    1AU     LIG  287   6.237   3.669   5.027
    1AU     LIG  288   6.539   3.391   4.782
    1AU     LIG  289   6.698   2.939   4.723
    1AU    AUSL  290   4.443   4.813   6.066
    1AU    AUSL  291   4.581   5.037   5.655
    1AU     AUL  292   4.220   4.895   5.786
    1AU       S  293   4.427   4.848   5.374
    1AU     LIG  294   4.039   4.799   5.158
    1AU     LIG  295   3.763   4.435   5.055
    1AU     LIG  296   3.483   4.109   4.868
    1AU     LIG  297   3.127   4.038   4.563
    1AU       S  298   4.038   4.901   6.225
    1AU     LIG  299   3.663   4.664   6.134
    1AU     LIG  300   3.207   4.537   6.174
    1AU     LIG  301   2.867   4.309   6.398
    1AU     LIG  302   2.532   3.968   6.328
    1AU    AUSL  303   4.537   5.200   6.260
    1AU    AUSL  304   4.786   4.801   6.325
    1AU     AUL  305   4.446   4.778   6.401
    1AU       S  306   4.492   4.559   6.799
    1AU     LIG  307   4.262   4.157   6.722
    1AU     LIG  308   4.002   3.744   6.732
    1AU     LIG  309   3.724   3.403   6.920
    1AU     LIG  310   3.297   3.318   7.103
    1AU       S  311   4.149   5.135   6.377
    1AU     LIG  312   3.644   5.060   6.473
    1AU     LIG  313   3.211   5.043   6.248
    1AU     LIG  314   2.772   4.874   6.172
    1AU     LIG  315   2.441   4.658   6.436
    1AU    AUSL  316   5.312   6.002   6.398
    1AU    AUSL  317   4.873   6.057   6.328
    1AU     AUL  318   5.103   6.088   6.693
    1AU       S  319   4.731   6.267   6.456
    1AU     LIG  320   4.363   6.468   6.726
    1AU     LIG  321   4.142   6.659   7.120
    1AU     LIG  322   3.923   7.035   7.355
    1AU     LIG  323   3.705   7.492   7.365
    1AU       S  324   5.350   6.398   6.460
    1AU     LIG  325   5.511   6.587   6.834
    1AU     LIG  326   5.573   7.029   6.960
    1AU     LIG  327   5.637   7.485   7.082
    1AU     LIG  328   5.659   7.820   7.417
    1AU    AUSL  329   5.150   6.236   6.051
    1AU    AUSL  330   5.446   6.160   5.680
    1AU     AUL  331   5.364   6.500   5.852
    1AU       S  332   5.164   6.460   6.283
    1AU     LIG  333   5.226   6.885   6.517
    1AU     LIG  334   5.326   7.352   6.636
    1AU     LIG  335   5.111   7.794   6.661
    1AU     LIG  336   4.887   8.175   6.848
    1AU       S  337   5.238   6.385   5.428
    1AU     LIG  338   5.494   6.798   5.298
    1AU     LIG  339   5.681   7.261   5.201
    1AU     LIG  340   6.003   7.665   5.247
    1AU     LIG  341   6.191   8.123   5.250
    1AU    AUSL  342   5.595   6.152   6.093
    1AU    AUSL  343   5.570   5.860   6.706
    1AU     AUL  344   5.713   6.100   6.446
    1AU       S  345   5.798   5.938   6.905
    1AU     LIG  346   6.125   5.940   7.266
    1AU     LIG  347   6.404   6.238   7.499
    1AU     LIG  348   6.633   6.591   7.726
    1AU     LIG  349   6.730   6.788   8.144
    1AU       S  350   5.525   6.497   6.290
    1AU     LIG  351   5.737   6.881   6.474
    1AU     LIG  352   5.870   7.323   6.637
    1AU     LIG  353   5.890   7.787   6.746
    1AU     LIG  354   5.697   8.117   6.992
    1AU    AUSL  355   5.165   4.588   6.419
    1AU    AUSL  356   5.588   4.559   6.274
    1AU     AUL  357   5.368   4.441   6.644
    1AU       S  358   5.113   4.093   6.482
    1AU     LIG  359   5.087   3.780   6.778
    1AU     LIG  360   4.841   3.408   6.903
    1AU     LIG  361   4.896   2.945   6.892
    1AU     LIG  362   5.050   2.498   6.927
    1AU       S  363   5.737   4.337   6.341
    1AU     LIG  364   6.052   3.950   6.418
    1AU     LIG  365   6.363   3.724   6.729
    1AU     LIG  366   6.636   3.501   7.082
    1AU     LIG  367   6.851   3.054   7.115
    1AU    AUSL  368   4.843   4.424   6.145
    1AU    AUSL  369   4.938   4.729   6.749
    1AU     AUL  370   4.824   4.463   6.496
    1AU       S  371   4.932   4.035   6.337
    1AU     LIG  372   4.763   3.612   6.415
    1AU     LIG  373   4.636   3.155   6.484
    1AU     LIG  374   4.465   2.754   6.688
    1AU     LIG  375   4.599   2.309   6.749
    1AU       S  376   4.736   4.617   6.935
    1AU     LIG  377   4.446   4.301   7.204
    1AU     LIG  378   4.136   3.927   7.196
    1AU     LIG  379   3.917   3.556   7.394
    1AU     LIG  380   3.947   3.351   7.820
    1AU    AUSL  381   5.280   4.316   6.098
    1AU    AUSL  382   5.042   4.498   5.764
    1AU     AUL  383   4.913   4.211   5.908
    1AU       S  384   5.273   4.156   5.627
    1AU     LIG  385   5.044   3.693   5.576
    1AU     LIG  386   4.864   3.219   5.552
    1AU     LIG  387   4.741   2.751   5.500
    1AU     LIG  388   4.622   2.424   5.206
    1AU       S  389   5.270   4.126   6.241
    1AU     LIG  390   5.271   3.654   6.289
    1AU     LIG  391   5.163   3.259   6.533
    1AU     LIG  392   5.363   2.843   6.669
    1AU     LIG  393   5.794   2.641   6.693
    1AU    AUSL  394   5.260   5.910   5.346
    1AU    AUSL  395   5.723   5.849   5.765
    1AU     AUL  396   5.585   6.070   5.365
    1AU       S  397   5.180   6.289   5.239
    1AU     LIG  398   5.220   6.584   4.924
    1AU     LIG  399   5.389   7.003   4.833
    1AU     LIG  400   5.517   7.410   4.675
    1AU     LIG  401   5.577   7.637   4.263
    1AU       S  402   5.938   6.052   5.648
    1AU     LIG  403   6.170   6.433   5.423
    1AU     LIG  404   6.483   6.560   5.056
    1AU     LIG  405   6.750   6.768   4.708
    1AU     LIG  406   7.131   7.063   4.616
    1AU    AUSL  407   5.076   5.944   5.752
    1AU    AUSL  408   4.962   5.620   5.451
    1AU     AUL  409   4.916   5.922   5.310
    1AU       S  410   5.006   6.310   5.575
    1AU     LIG  411   4.943   6.757   5.347
    1AU     LIG  412   5.140   7.189   5.262
    1AU     LIG  413   5.028   7.657   5.288
    1AU     LIG  414   4.788   8.019   5.102
    1AU       S  415   4.478   5.980   5.179
    1AU     LIG  416   4.528   6.229   4.828
    1AU     LIG  417   4.429   6.404   4.415
    1AU     LIG  418   4.130   6.700   4.222
    1AU     LIG  419   4.133   7.166   4.087
    1AU    AUSL  420   5.262   4.582   5.390
    1AU    AUSL  421   4.632   4.602   5.743
    1AU     AUL  422   4.892   4.437   5.450
    1AU       S  423   4.446   4.565   5.536
    1AU     LIG  424   4.059   4.337   5.473
    1AU     LIG  425   3.839   3.968   5.273
    1AU     LIG  426   3.685   3.629   4.973
    1AU     LIG  427   3.507   3.188   4.841
    1AU       S  428   5.303   4.187   5.412
    1AU     LIG  429   5.286   3.799   5.147
    1AU     LIG  430   5.036   3.380   5.092
    1AU     LIG  431   4.864   2.932   5.022
    1AU     LIG  432   4.765   2.566   4.724
    1AU    AUSL  433   5.456   4.580   5.811
    1AU    AUSL  434   5.546   4.891   5.487
    1AU     AUL  435   5.599   4.544   5.417
    1AU       S  436   5.522   4.205   5.719
    1AU     LIG  437   5.570   3.757   5.581
    1AU     LIG  438   5.386   3.327   5.463
    1AU     LIG  439   5.240   2.874   5.385
    1AU     LIG  440   5.383   2.407   5.426
    1AU       S  441   5.873   4.689   5.087
    1AU     LIG  442   5.775   4.343   4.827
    1AU     LIG  443   5.971   3.949   4.681
    1AU     LIG  444   6.232   3.642   4.438
    1AU     LIG  445   6.464   3.535   4.039
    2POPC   NC3  446  10.061   5.965   8.078
    2POPC   PO4  447  10.436   5.420   8.030
    2POPC   GL1  448  10.274   5.512   7.686
    2POPC   GL2  449  10.289   5.804   7.665
    2POPC   C1A  450  10.178   5.346   7.297
    2POPC   D2A  451  10.367   5.381   6.914
    2POPC   C3A  452  10.152   5.429   6.500
    2POPC   C4A  453  10.146   5.408   6.003
    2POPC   C1B  454  10.246   5.903   7.299
    2POPC   C2B  455  10.226   6.003   6.925
    2POPC   C3B  456  10.011   5.912   6.605
    2POPC   C4B  457  10.219   5.853   6.239
    3POPC   NC3  458   0.477   9.279   8.327
    3POPC   PO4  459   0.672   9.642   7.854
    3POPC   GL1  460   0.510   9.495   7.501
    3POPC   GL2  461   0.369   9.214   7.577
    3POPC   C1A  462   0.238   9.571   7.194
    3POPC   D2A  463   0.387   9.657   6.809
    3POPC   C3A  464   0.090   9.678   6.508
    3POPC   C4A  465   0.257   9.702   6.138
    3POPC   C1B  466   0.270   9.038   7.198
    3POPC   C2B  467   0.518   9.128   6.820
    3POPC   C3B  468   0.438   9.309   6.410
    3POPC   C4B  469   0.510   9.304   5.916
    4POPC   NC3  470   9.461   7.332   8.192
    4POPC   PO4  471   9.084   6.786   8.127
    4POPC   GL1  472   9.228   7.066   7.815
    4POPC   GL2  473   9.569   7.051   7.758
    4POPC   C1A  474   9.177   7.094   7.380
    4POPC   D2A  475   9.142   6.895   6.971
    4POPC   C3A  476   9.200   7.160   6.595
    4POPC   C4A  477   9.206   7.127   6.156
    4POPC   C1B  478   9.721   7.179   7.363
    4POPC   C2B  479   9.801   7.003   6.982
    4POPC   C3B  480   9.873   7.205   6.612
    4POPC   C4B  481   9.649   7.424   6.304
    5POPC   NC3  482   5.894   8.570   7.975
    5POPC   PO4  483   5.745   9.226   8.060
    5POPC   GL1  484   6.003   9.005   7.721
    5POPC   GL2  485   5.670   8.955   7.541
    5POPC   C1A  486   6.090   8.967   7.251
    5POPC   D2A  487   5.782   9.216   6.973
    5POPC   C3A  488   5.712   9.094   6.533
    5POPC   C4A  489   5.694   8.730   6.288
    5POPC   C1B  490   5.728   8.613   7.234
    5POPC   C2B  491   5.596   8.582   6.792
    5POPC   C3B  492   5.635   8.248   6.470
    5POPC   C4B  493   5.716   8.269   6.013
    6POPC   NC3  494   6.411   1.981   8.093
    6POPC   PO4  495   6.046   2.486   7.950
    6POPC   GL1  496   6.389   2.185   7.632
    6POPC   GL2  497   6.432   1.800   7.609
    6POPC   C1A  498   6.498   2.070   7.172
    6POPC   D2A  499   6.272   2.261   6.785
    6POPC   C3A  500   6.543   2.331   6.397
    6POPC   C4A  501   6.397   2.249   5.939
    6POPC   C1B  502   6.664   1.485   7.320
    6POPC   C2B  503   6.741   1.600   6.892
    6POPC   C3B  504   6.563   1.876   6.655
    6POPC   C4B  505   6.387   1.862   6.269
    7POPC   NC3  506   9.062   5.914   8.078
    7POPC   PO4  507   8.857   5.304   8.189
    7POPC   GL1  508   8.862   5.373   7.739
    7POPC   GL2  509   8.552   5.468   7.650
    7POPC   C1A  510   8.946   5.524   7.291
    7POPC   D2A  511   9.102   5.654   6.857
    7POPC   C3A  512   8.974   5.504   6.442
    7POPC   C4A  513   8.903   5.675   6.030
    7POPC   C1B  514   8.437   5.646   7.239
    7POPC   C2B  515   8.580   5.603   6.796
    7POPC   C3B  516   8.482   5.662   6.352
    7POPC   C4B  517   8.131   5.618   6.095
    8POPC   NC3  518   3.732   9.682   8.057
    8POPC   PO4  519   3.071   9.728   8.172
    8POPC   GL1  520   3.283   9.699   7.778
    8POPC   GL2  521   3.397   9.347   7.807
    8POPC   C1A  522   3.348   9.785   7.335
    8POPC   D2A  523   3.157   9.720   6.908
    8POPC   C3A  524   3.450   9.584   6.591
    8POPC   C4A  525   3.428   9.433   6.154
    8POPC   C1B  526   3.450   9.175   7.410
    8POPC   C2B  527   3.415   9.243   6.977
    8POPC   C3B  528   3.528   9.049   6.554
    8POPC   C4B  529   3.771   8.949   6.186
    9POPC   NC3  530   2.605   7.860   8.425
    9POPC   PO4  531   3.044   8.224   8.094
    9POPC   GL1  532   2.672   7.980   7.890
    9POPC   GL2  533   2.435   8.182   7.707
    9POPC   C1A  534   2.594   7.767   7.452
    9POPC   D2A  535   2.846   7.679   7.062
    9POPC   C3A  536   2.670   7.738   6.645
    9POPC   C4A  537   2.520   7.525   6.271
    9POPC   C1B  538   2.869   8.203   7.461
    9POPC   C2B  539   3.013   8.168   7.040
    9POPC   C3B  540   3.009   8.115   6.567
    9POPC   C4B  541   2.796   7.969   6.172
   10POPC   NC3  542   8.644   6.774   8.333
   10POPC   PO4  543   8.555   7.467   8.338
   10POPC   GL1  544   8.774   7.367   7.888
   10POPC   GL2  545   8.736   7.038   7.700
   10POPC   C1A  546   8.771   7.485   7.376
   10POPC   D2A  547   8.559   7.717   6.974
   10POPC   C3A  548   8.433   7.532   6.526
   10POPC   C4A  549   8.438   7.554   6.045
   10POPC   C1B  550   8.696   7.009   7.232
   10POPC   C2B  551   8.739   7.207   6.822
   10POPC   C3B  552   8.732   7.050   6.383
   10POPC   C4B  553   8.745   7.148   5.919
   11POPC   NC3  554   6.134   9.067   8.240
   11POPC   PO4  555   6.274   8.382   8.156
   11POPC   GL1  556   6.394   8.585   7.742
   11POPC   GL2  557   6.672   8.825   7.706
   11POPC   C1A  558   6.482   8.615   7.271
   11POPC   D2A  559   6.677   8.434   6.916
   11POPC   C3A  560   6.493   8.513   6.515
   11POPC   C4A  561   6.414   8.521   6.077
   11POPC   C1B  562   6.641   9.078   7.331
   11POPC   C2B  563   6.532   9.029   6.922
   11POPC   C3B  564   6.610   9.003   6.495
   11POPC   C4B  565   6.180   8.953   6.258
   12POPC   NC3  566   5.036   1.176   8.089
   12POPC   PO4  567   5.254   1.829   8.067
   12POPC   GL1  568   4.908   1.584   7.780
   12POPC   GL2  569   4.930   1.251   7.616
   12POPC   C1A  570   4.706   1.560   7.316
   12POPC   D2A  571   4.952   1.528   6.903
   12POPC   C3A  572   4.785   1.503   6.487
   12POPC   C4A  573   4.828   1.412   6.031
   12POPC   C1B  574   4.944   1.090   7.212
   12POPC   C2B  575   4.846   1.064   6.785
   12POPC   C3B  576   5.012   1.060   6.369
   12POPC   C4B  577   4.610   0.968   6.170
   13POPC   NC3  578   0.210   9.537   7.910
   13POPC   PO4  579  10.008   9.426   8.066
   13POPC   GL1  580  10.218   9.556   7.727
   13POPC   GL2  581  10.345   9.220   7.667
   13POPC   C1A  582  10.147   9.796   7.347
   13POPC   D2A  583  10.322   9.773   6.933
   13POPC   C3A  584  10.103   9.876   6.546
   13POPC   C4A  585  10.218   9.673   6.139
   13POPC   C1B  586  10.305   9.298   7.245
   13POPC   C2B  587  10.474   9.268   6.828
   13POPC   C3B  588  10.147   9.363   6.552
   13POPC   C4B  589   9.988   9.223   6.169
   14POPC   NC3  590   1.422   5.564   7.909
   14POPC   PO4  591   0.882   5.585   8.108
   14POPC   GL1  592   0.990   5.662   7.680
   14POPC   GL2  593   1.240   5.376   7.489
   14POPC   C1A  594   1.113   5.834   7.320
   14POPC   D2A  595   1.237   5.644   6.907
   14POPC   C3A  596   1.080   5.844   6.513
   14POPC   C4A  597   1.144   5.654   6.105
   14POPC   C1B  598   0.851   5.402   7.239
   14POPC   C2B  599   0.791   5.352   6.807
   14POPC   C3B  600   0.833   5.364   6.358
   14POPC   C4B  601   0.821   5.283   5.874
   15POPC   NC3  602   8.534   3.394   8.012
   15POPC   PO4  603   8.603   4.033   7.827
   15POPC   GL1  604   8.712   3.668   7.518
   15POPC   GL2  605   8.709   3.277   7.539
   15POPC   C1A  606   8.872   3.538   7.092
   15POPC   D2A  607   8.625   3.438   6.729
   15POPC   C3A  608   8.764   3.409   6.339
   15POPC   C4A  609   8.729   3.524   5.918
   15POPC   C1B  610   8.402   3.369   7.193
   15POPC   C2B  611   8.184   3.627   6.908
   15POPC   C3B  612   8.163   3.505   6.497
   15POPC   C4B  613   8.324   3.707   6.152
   16POPC   NC3  614   0.494   2.749   8.082
   16POPC   PO4  615   0.288   2.090   8.167
   16POPC   GL1  616   0.352   2.378   7.741
   16POPC   GL2  617   0.147   2.678   7.716
   16POPC   C1A  618   0.096   2.397   7.317
   16POPC   D2A  619   0.111   2.652   6.935
   16POPC   C3A  620   0.371   2.551   6.573
   16POPC   C4A  621   0.086   2.445   6.251
   16POPC   C1B  622   0.422   2.791   7.341
   16POPC   C2B  623   0.428   3.064   6.970
   16POPC   C3B  624   0.304   3.056   6.537
   16POPC   C4B  625   0.420   2.860   6.150
   17POPC   NC3  626   8.934   7.730   8.304
   17POPC   PO4  627   8.602   8.155   7.934
   17POPC   GL1  628   8.667   7.956   7.589
   17POPC   GL2  629   8.987   7.788   7.705
   17POPC   C1A  630   8.612   8.225   7.231
   17POPC   D2A  631   8.339   8.245   6.896
   17POPC   C3A  632   8.500   8.085   6.565
   17POPC   C4A  633   8.603   8.194   6.145
   17POPC   C1B  634   9.064   7.928   7.257
   17POPC   C2B  635   8.951   8.127   6.837
   17POPC   C3B  636   8.955   7.939   6.413
   17POPC   C4B  637   8.903   7.514   6.284
   18POPC   NC3  638   2.835  10.077   8.388
   18POPC   PO4  639   3.296  10.286   7.935
   18POPC   GL1  640   3.572  10.154   7.643
   18POPC   GL2  641   3.924  10.097   7.754
   18POPC   C1A  642   3.576  10.255   7.210
   18POPC   D2A  643   3.428  10.173   6.787
   18POPC   C3A  644   3.599  10.410   6.407
   18POPC   C4A  645   3.399  10.340   5.972
   18POPC   C1B  646   3.891   9.866   7.369
   18POPC   C2B  647   3.727   9.783   6.985
   18POPC   C3B  648   3.821   9.933   6.591
   18POPC   C4B  649   3.560   9.935   6.236
   19POPC   NC3  650   9.685   8.231   8.075
   19POPC   PO4  651   9.374   7.709   8.430
   19POPC   GL1  652   9.494   7.731   7.902
   19POPC   GL2  653   9.467   8.008   7.675
   19POPC   C1A  654   9.378   7.557   7.465
   19POPC   D2A  655   9.173   7.471   7.024
   19POPC   C3A  656   9.321   7.655   6.609
   19POPC   C4A  657   9.328   7.748   6.116
   19POPC   C1B  658   9.548   8.181   7.309
   19POPC   C2B  659   9.457   8.048   6.907
   19POPC   C3B  660   9.432   8.140   6.465
   19POPC   C4B  661   9.699   8.094   6.109
   20POPC   NC3  662   8.396   9.223   8.183
   20POPC   PO4  663   8.962   8.963   8.077
   20POPC   GL1  664   8.699   9.078   7.704
   20POPC   GL2  665   8.487   9.394   7.689
   20POPC   C1A  666   8.602   9.156   7.244
   20POPC   D2A  667   8.772   9.137   6.840
   20POPC   C3A  668   8.588   9.130   6.463
   20POPC   C4A  669   8.806   9.133   6.097
   20POPC   C1B  670   8.878   9.524   7.443
   20POPC   C2B  671   8.914   9.603   7.000
   20POPC   C3B  672   8.597   9.612   6.676
   20POPC   C4B  673   8.674   9.594   6.251
   21POPC   NC3  674   9.354   4.640   8.485
   21POPC   PO4  675   9.340   4.499   7.866
   21POPC   GL1  676   9.511   4.754   7.633
   21POPC   GL2  677   9.538   5.040   7.816
   21POPC   C1A  678   9.496   4.754   7.190
   21POPC   D2A  679   9.197   4.730   6.896
   21POPC   C3A  680   9.312   4.698   6.475
   21POPC   C4A  681   8.968   4.696   6.208
   21POPC   C1B  682   9.666   5.197   7.411
   21POPC   C2B  683   9.404   5.280   7.076
   21POPC   C3B  684   9.292   5.186   6.685
   21POPC   C4B  685   9.456   5.166   6.300
   22POPC   NC3  686   0.776   0.938   8.109
   22POPC   PO4  687   1.391   0.782   8.051
   22POPC   GL1  688   1.134   0.924   7.720
   22POPC   GL2  689   1.048   1.271   7.825
   22POPC   C1A  690   1.141   1.086   7.303
   22POPC   D2A  691   1.390   1.092   6.939
   22POPC   C3A  692   1.225   0.890   6.598
   22POPC   C4A  693   1.185   1.067   6.216
   22POPC   C1B  694   1.261   1.526   7.540
   22POPC   C2B  695   1.229   1.564   7.098
   22POPC   C3B  696   1.086   1.450   6.683
   22POPC   C4B  697   1.383   1.514   6.367
   23POPC   NC3  698   6.886   8.707   8.154
   23POPC   PO4  699   7.322   9.228   8.213
   23POPC   GL1  700   7.106   9.054   7.857
   23POPC   GL2  701   7.260   8.721   7.766
   23POPC   C1A  702   7.163   9.045   7.396
   23POPC   D2A  703   7.138   8.785   7.012
   23POPC   C3A  704   7.265   8.900   6.577
   23POPC   C4A  705   7.040   8.812   6.181
   23POPC   C1B  706   7.013   8.499   7.438
   23POPC   C2B  707   7.142   8.263   7.068
   23POPC   C3B  708   7.108   8.408   6.639
   23POPC   C4B  709   6.900   8.338   6.240
   24POPC   NC3  710   0.161   6.356   8.355
   24POPC   PO4  711   9.993   6.391   8.261
   24POPC   GL1  712   9.912   6.466   7.807
   24POPC   GL2  713  10.166   6.299   7.682
   24POPC   C1A  714   9.848   6.327   7.298
   24POPC   D2A  715   9.998   6.471   6.860
   24POPC   C3A  716   9.763   6.350   6.509
   24POPC   C4A  717   9.772   6.077   6.190
   24POPC   C1B  718  10.338   6.410   7.267
   24POPC   C2B  719  10.489   6.426   6.829
   24POPC   C3B  720  10.296   6.354   6.410
   24POPC   C4B  721  10.419   6.575   6.015
   25POPC   NC3  722   5.368   0.418   8.241
   25POPC   PO4  723   4.676   0.171   8.210
   25POPC   GL1  724   4.803   0.382   7.817
   25POPC   GL2  725   4.934   0.735   7.815
   25POPC   C1A  726   4.983   0.283   7.383
   25POPC   D2A  727   5.108   0.426   6.962
   25POPC   C3A  728   4.989   0.142   6.618
   25POPC   C4A  729   5.152   0.113   6.199
   25POPC   C1B  730   4.697   0.697   7.435
   25POPC   C2B  731   4.634   0.649   6.999
   25POPC   C3B  732   4.786   0.619   6.569
   25POPC   C4B  733   4.979   0.592   6.171
   26POPC   NC3  734   5.927   1.250   8.050
   26POPC   PO4  735   5.403   0.841   8.013
   26POPC   GL1  736   5.381   1.011   7.585
   26POPC   GL2  737   5.461   1.367   7.646
   26POPC   C1A  738   5.448   1.110   7.116
   26POPC   D2A  739   5.766   1.240   6.768
   26POPC   C3A  740   5.595   1.028   6.389
   26POPC   C4A  741   5.411   0.846   6.036
   26POPC   C1B  742   5.685   1.521   7.248
   26POPC   C2B  743   5.475   1.679   6.867
   26POPC   C3B  744   5.398   1.521   6.466
   26POPC   C4B  745   5.798   1.463   6.244
   27POPC   NC3  746   9.387   5.181   8.283
   27POPC   PO4  747   9.558   5.875   8.179
   27POPC   GL1  748   9.412   5.838   7.730
   27POPC   GL2  749   9.673   6.047   7.688
   27POPC   C1A  750   9.394   5.768   7.260
   27POPC   D2A  751   9.529   6.021   6.882
   27POPC   C3A  752   9.372   5.877   6.476
   27POPC   C4A  753   9.300   6.007   6.070
   27POPC   C1B  754   9.830   5.683   7.486
   27POPC   C2B  755   9.856   5.628   7.040
   27POPC   C3B  756   9.674   5.512   6.674
   27POPC   C4B  757   9.736   5.579   6.244
   28POPC   NC3  758   5.312   9.152   7.884
   28POPC   PO4  759   5.613   9.746   8.121
   28POPC   GL1  760   5.512   9.578   7.719
   28POPC   GL2  761   5.788   9.454   7.618
   28POPC   C1A  762   5.374   9.345   7.288
   28POPC   D2A  763   5.178   9.492   6.912
   28POPC   C3A  764   5.287   9.385   6.500
   28POPC   C4A  765   5.437   9.561   6.133
   28POPC   C1B  766   5.769   9.667   7.279
   28POPC   C2B  767   5.610   9.782   6.910
   28POPC   C3B  768   5.745   9.619   6.540
   28POPC   C4B  769   5.951   9.453   6.196
   29POPC   NC3  770   9.520   2.615   8.310
   29POPC   PO4  771   9.707   3.230   8.169
   29POPC   GL1  772   9.656   2.887   7.834
   29POPC   GL2  773   9.290   2.779   7.757
   29POPC   C1A  774   9.642   2.687   7.399
   29POPC   D2A  775   9.293   2.750   7.070
   29POPC   C3A  776   9.421   2.832   6.637
   29POPC   C4A  777   9.661   2.577   6.326
   29POPC   C1B  778   9.196   2.414   7.457
   29POPC   C2B  779   9.120   2.257   7.060
   29POPC   C3B  780   9.234   2.356   6.651
   29POPC   C4B  781   9.233   2.343   6.222
   30POPC   NC3  782   2.686   3.439   8.526
   30POPC   PO4  783   2.292   3.301   8.164
   30POPC   GL1  784   2.321   3.459   7.758
   30POPC   GL2  785   2.332   3.148   7.589
   30POPC   C1A  786   2.569   3.547   7.363
   30POPC   D2A  787   2.736   3.343   6.987
   30POPC   C3A  788   2.586   3.434   6.546
   30POPC   C4A  789   2.427   3.450   6.107
   30POPC   C1B  790   2.799   3.090   7.480
   30POPC   C2B  791   2.981   2.904   7.093
   30POPC   C3B  792   2.963   3.017   6.642
   30POPC   C4B  793   3.140   3.241   6.284
   31POPC   NC3  794   4.673  10.193   8.355
   31POPC   PO4  795   4.168   9.838   8.130
   31POPC   GL1  796   4.452   9.930   7.814
   31POPC   GL2  797   4.432  10.261   7.712
   31POPC   C1A  798   4.422   9.875   7.352
   31POPC   D2A  799   4.200   9.983   6.961
   31POPC   C3A  800   4.324   9.840   6.569
   31POPC   C4A  801   4.467   9.963   6.169
   31POPC   C1B  802   4.150  10.325   7.338
   31POPC   C2B  803   3.949  10.412   6.916
   31POPC   C3B  804   4.154  10.318   6.538
   31POPC   C4B  805   4.188   0.030   6.188
   32POPC   NC3  806   2.829   5.298   8.609
   32POPC   PO4  807   2.380   5.209   8.171
   32POPC   GL1  808   2.371   5.394   7.701
   32POPC   GL2  809   2.435   5.759   7.627
   32POPC   C1A  810   2.564   5.443   7.239
   32POPC   D2A  811   2.651   5.591   6.794
   32POPC   C3A  812   2.844   5.390   6.405
   32POPC   C4A  813   3.107   5.496   6.023
   32POPC   C1B  814   2.401   5.939   7.165
   32POPC   C2B  815   2.275   5.923   6.712
   32POPC   C3B  816   2.445   5.713   6.330
   32POPC   C4B  817   2.380   5.872   5.894
   33POPC   NC3  818   5.654  10.229   8.165
   33POPC   PO4  819   6.227  10.118   7.866
   33POPC   GL1  820   5.846   9.998   7.669
   33POPC   GL2  821   5.531  10.167   7.682
   33POPC   C1A  822   5.794  10.161   7.260
   33POPC   D2A  823   5.967  10.334   6.912
   33POPC   C3A  824   5.857  10.116   6.561
   33POPC   C4A  825   6.018  10.163   6.149
   33POPC   C1B  826   5.286  10.344   7.334
   33POPC   C2B  827   5.439  10.268   6.918
   33POPC   C3B  828   5.409  10.341   6.512
   33POPC   C4B  829   5.515  10.139   6.132
   34POPC   NC3  830   6.140   9.665   7.939
   34POPC   PO4  831   6.580   9.121   8.156
   34POPC   GL1  832   6.463   9.306   7.748
   34POPC   GL2  833   6.799   9.415   7.656
   34POPC   C1A  834   6.217   9.432   7.352
   34POPC   D2A  835   6.118   9.597   6.926
   34POPC   C3A  836   6.186   9.310   6.616
   34POPC   C4A  837   6.455   9.394   6.234
   34POPC   C1B  838   6.655   9.586   7.212
   34POPC   C2B  839   6.604   9.530   6.772
   34POPC   C3B  840   6.749   9.749   6.457
   34POPC   C4B  841   6.971   9.820   6.129
   35POPC   NC3  842   0.590   1.840   7.904
   35POPC   PO4  843  10.383   1.778   7.979
   35POPC   GL1  844   0.169   1.612   7.761
   35POPC   GL2  845   0.178   1.932   7.603
   35POPC   C1A  846   0.260   1.526   7.334
   35POPC   D2A  847   0.391   1.674   6.950
   35POPC   C3A  848   0.545   1.524   6.604
   35POPC   C4A  849   0.425   1.688   6.226
   35POPC   C1B  850   0.463   2.041   7.312
   35POPC   C2B  851   0.383   2.188   6.934
   35POPC   C3B  852   0.267   2.049   6.552
   35POPC   C4B  853   0.552   2.183   6.216
   36POPC   NC3  854   3.447   0.973   8.225
   36POPC   PO4  855   3.116   1.423   7.933
   36POPC   GL1  856   3.417   1.206   7.706
   36POPC   GL2  857   3.536   0.857   7.683
   36POPC   C1A  858   3.275   1.107   7.307
   36POPC   D2A  859   3.016   1.070   6.963
   36POPC   C3A  860   3.269   1.190   6.613
   36POPC   C4A  861   3.146   1.336   6.205
   36POPC   C1B  862   3.781   1.004   7.322
   36POPC   C2B  863   3.833   1.238   6.975
   36POPC   C3B  864   3.819   1.087   6.609
   36POPC   C4B  865   3.641   1.230   6.250
   37POPC   NC3  866   9.740   4.381   8.071
   37POPC   PO4  867  10.482   4.421   8.033
   37POPC   GL1  868  10.312   4.418   7.679
   37POPC   GL2  869  10.003   4.223   7.667
   37POPC   C1A  870  10.391   4.441   7.299
   37POPC   D2A  871  10.112   4.454   6.986
   37POPC   C3A  872  10.349   4.478   6.653
   37POPC   C4A  873  10.229   4.606   6.249
   37POPC   C1B  874  10.174   3.973   7.334
   37POPC   C2B  875  10.106   3.944   6.918
   37POPC   C3B  876   9.968   4.176   6.576
   37POPC   C4B  877  10.136   4.103   6.170
   38POPC   NC3  878   7.558   0.121   7.842
   38POPC   PO4  879   7.655   0.766   8.012
   38POPC   GL1  880   7.842   0.515   7.691
   38POPC   GL2  881   7.961   0.163   7.547
   38POPC   C1A  882   7.875   0.597   7.276
   38POPC   D2A  883   7.854   0.867   6.961
   38POPC   C3A  884   7.779   0.683   6.602
   38POPC   C4A  885   7.972   0.755   6.256
   38POPC   C1B  886   7.985   0.109   7.147
   38POPC   C2B  887   7.709   0.239   6.849
   38POPC   C3B  888   7.920   0.194   6.485
   38POPC   C4B  889   7.904   0.288   6.053
   39POPC   NC3  890   8.130   1.825   8.104
   39POPC   PO4  891   7.519   1.631   8.227
   39POPC   GL1  892   7.698   1.707   7.829
   39POPC   GL2  893   7.736   2.070   7.800
   39POPC   C1A  894   7.669   1.660   7.383
   39POPC   D2A  895   7.920   1.717   7.015
   39POPC   C3A  896   7.694   1.791   6.625
   39POPC   C4A  897   7.554   1.756   6.210
   39POPC   C1B  898   7.996   2.055   7.435
   39POPC   C2B  899   8.238   2.119   7.045
   39POPC   C3B  900   8.060   2.151   6.627
   39POPC   C4B  901   7.851   2.179   6.234
   40POPC   NC3  902  10.338   7.829   7.978
   40POPC   PO4  903   9.888   7.352   8.002
   40POPC   GL1  904   9.903   7.584   7.615
   40POPC   GL2  905   9.965   7.932   7.633
   40POPC   C1A  906   9.789   7.703   7.182
   40POPC   D2A  907   9.968   7.952   6.844
   40POPC   C3A  908  10.036   7.826   6.406
   40POPC   C4A  909  10.411   7.796   6.110
   40POPC   C1B  910  10.290   7.822   7.307
   40POPC   C2B  911  10.484   7.907   6.887
   40POPC   C3B  912  10.395   8.186   6.537
   40POPC   C4B  913  10.201   8.264   6.133
   41POPC   NC3  914   2.177   4.770   8.066
   41POPC   PO4  915   1.665   5.242   8.106
   41POPC   GL1  916   1.873   5.261   7.676
   41POPC   GL2  917   1.838   4.930   7.592
   41POPC   C1A  918   2.194   5.100   7.292
   41POPC   D2A  919   2.174   4.973   6.819
   41POPC   C3A  920   2.377   5.158   6.425
   41POPC   C4A  921   2.267   4.947   6.018
   41POPC   C1B  922   1.724   5.226   7.177
   41POPC   C2B  923   1.683   5.173   6.716
   41POPC   C3B  924   1.896   4.928   6.368
   41POPC   C4B  925   1.780   4.650   5.987
   42POPC   NC3  926   7.708   8.500   8.120
   42POPC   PO4  927   8.262   8.301   8.346
   42POPC   GL1  928   8.143   8.438   7.825
   42POPC   GL2  929   7.845   8.658   7.659
   42POPC   C1A  930   8.108   8.368   7.346
   42POPC   D2A  931   7.890   8.488   6.948
   42POPC   C3A  932   7.940   8.306   6.535
   42POPC   C4A  933   8.145   8.400   6.150
   42POPC   C1B  934   7.642   8.828   7.260
   42POPC   C2B  935   7.830   8.968   6.838
   42POPC   C3B  936   7.762   8.834   6.423
   42POPC   C4B  937   7.511   8.978   6.066
   43POPC   NC3  938   1.078   5.964   8.279
   43POPC   PO4  939   1.185   6.612   8.090
   43POPC   GL1  940   1.267   6.275   7.782
   43POPC   GL2  941   0.951   6.199   7.657
   43POPC   C1A  942   1.414   6.226   7.344
   43POPC   D2A  943   1.226   6.164   6.952
   43POPC   C3A  944   1.430   6.256   6.594
   43POPC   C4A  945   1.519   6.117   6.203
   43POPC   C1B  946   1.099   6.606   7.421
   43POPC   C2B  947   1.170   6.832   7.039
   43POPC   C3B  948   1.263   6.923   6.592
   43POPC   C4B  949   1.169   6.597   6.292
   44POPC   NC3  950   1.435   3.194   8.391
   44POPC   PO4  951   0.874   3.021   8.042
   44POPC   GL1  952   1.138   3.185   7.699
   44POPC   GL2  953   1.253   3.546   7.756
   44POPC   C1A  954   1.214   3.319   7.271
   44POPC   D2A  955   1.162   3.593   6.927
   44POPC   C3A  956   1.250   3.319   6.628
   44POPC   C4A  957   1.052   3.273   6.264
   44POPC   C1B  958   1.465   3.751   7.377
   44POPC   C2B  959   1.662   3.539   7.019
   44POPC   C3B  960   1.595   3.690   6.617
   44POPC   C4B  961   1.402   3.623   6.232
   45POPC   NC3  962   1.198   9.544   7.977
   45POPC   PO4  963   0.768   8.963   8.164
   45POPC   GL1  964   0.860   9.147   7.736
   45POPC   GL2  965   1.017   9.441   7.535
   45POPC   C1A  966   0.787   9.101   7.277
   45POPC   D2A  967   1.028   9.379   7.001
   45POPC   C3A  968   0.897   9.448   6.602
   45POPC   C4A  969   0.895   9.175   6.249
   45POPC   C1B  970   1.378   9.554   7.348
   45POPC   C2B  971   1.428   9.716   6.949
   45POPC   C3B  972   1.412   9.516   6.584
   45POPC   C4B  973   1.247   9.508   6.208
   46POPC   NC3  974   8.819   2.464   8.399
   46POPC   PO4  975   8.391   2.997   8.230
   46POPC   GL1  976   8.430   2.842   7.770
   46POPC   GL2  977   8.753   2.622   7.747
   46POPC   C1A  978   8.322   2.864   7.295
   46POPC   D2A  979   8.561   2.953   6.907
   46POPC   C3A  980   8.398   3.036   6.492
   46POPC   C4A  981   8.561   2.998   6.101
   46POPC   C1B  982   8.782   2.642   7.281
   46POPC   C2B  983   8.652   2.437   6.893
   46POPC   C3B  984   8.664   2.592   6.474
   46POPC   C4B  985   9.018   2.813   6.272
   47POPC   NC3  986   0.476   8.590   8.090
   47POPC   PO4  987   0.085   9.127   8.108
   47POPC   GL1  988   0.161   8.794   7.748
   47POPC   GL2  989   0.539   8.738   7.588
   47POPC   C1A  990   0.112   8.527   7.386
   47POPC   D2A  991   0.140   8.425   6.960
   47POPC   C3A  992   0.287   8.700   6.634
   47POPC   C4A  993   0.135   8.545   6.216
   47POPC   C1B  994   0.601   8.656   7.113
   47POPC   C2B  995   0.806   8.435   6.769
   47POPC   C3B  996   0.864   8.701   6.431
   47POPC   C4B  997   0.510   8.863   6.178
   48POPC   NC3  998   2.757   0.534   8.110
   48POPC   PO4  999   2.617  10.390   8.107
   48POPC   GL1 1000   2.522   0.243   7.743
   48POPC   GL2 1001   2.629   0.615   7.628
   48POPC   C1A 1002   2.579   0.248   7.287
   48POPC   D2A 1003   2.581   0.519   6.951
   48POPC   C3A 1004   2.726   0.337   6.570
   48POPC   C4A 1005   2.539   0.386   6.177
   48POPC   C1B 1006   2.946   0.678   7.299
   48POPC   C2B 1007   3.081   0.579   6.870
   48POPC   C3B 1008   3.019   0.766   6.536
   48POPC   C4B 1009   2.930   0.691   6.178
   49POPC   NC3 1010   9.764   0.306   8.380
   49POPC   PO4 1011   9.650   0.760   7.882
   49POPC   GL1 1012   9.570   0.452   7.592
   49POPC   GL2 1013   9.222   0.402   7.607
   49POPC   C1A 1014   9.483   0.313   7.163
   49POPC   D2A 1015   9.125   0.160   6.895
   49POPC   C3A 1016   9.312   0.260   6.487
   49POPC   C4A 1017   9.670   0.199   6.211
   49POPC   C1B 1018   9.277   0.752   7.290
   49POPC   C2B 1019   9.223   0.661   6.857
   49POPC   C3B 1020   9.336   0.781   6.436
   49POPC   C4B 1021   9.483   0.621   6.024
   50POPC   NC3 1022   3.936   1.056   7.921
   50POPC   PO4 1023   4.559   1.188   8.194
   50POPC   GL1 1024   4.487   1.037   7.789
   50POPC   GL2 1025   4.349   0.721   7.813
   50POPC   C1A 1026   4.440   1.113   7.342
   50POPC   D2A 1027   4.400   1.348   6.966
   50POPC   C3A 1028   4.370   1.220   6.564
   50POPC   C4A 1029   4.337   1.469   6.175
   50POPC   C1B 1030   4.175   0.674   7.384
   50POPC   C2B 1031   4.171   0.859   6.977
   50POPC   C3B 1032   4.229   0.726   6.572
   50POPC   C4B 1033   4.097   0.969   6.213
   51POPC   NC3 1034   3.165   2.709   8.034
   51POPC   PO4 1035   3.737   2.768   8.099
   51POPC   GL1 1036   3.659   2.748   7.646
   51POPC   GL2 1037   3.420   2.460   7.636
   51POPC   C1A 1038   3.646   2.928   7.191
   51POPC   D2A 1039   3.446   2.972   6.765
   51POPC   C3A 1040   3.633   3.021   6.339
   51POPC   C4A 1041   3.502   3.148   5.896
   51POPC   C1B 1042   3.290   2.503   7.204
   51POPC   C2B 1043   3.145   2.531   6.782
   51POPC   C3B 1044   3.335   2.612   6.398
   51POPC   C4B 1045   3.229   2.338   6.051
   52POPC   NC3 1046   2.501   1.178   7.972
   52POPC   PO4 1047   2.852   1.611   8.372
   52POPC   GL1 1048   2.685   1.603   7.787
   52POPC   GL2 1049   2.820   1.248   7.578
   52POPC   C1A 1050   2.642   1.591   7.264
   52POPC   D2A 1051   2.885   1.534   6.835
   52POPC   C3A 1052   2.744   1.218   6.502
   52POPC   C4A 1053   2.568   1.353   6.087
   52POPC   C1B 1054   2.573   1.018   7.277
   52POPC   C2B 1055   2.352   0.987   6.888
   52POPC   C3B 1056   2.471   0.782   6.517
   52POPC   C4B 1057   2.447   0.872   6.099
   53POPC   NC3 1058   3.461   7.963   8.086
   53POPC   PO4 1059   3.951   8.475   8.055
   53POPC   GL1 1060   3.672   8.340   7.660
   53POPC   GL2 1061   3.339   8.163   7.654
   53POPC   C1A 1062   3.561   8.207   7.203
   53POPC   D2A 1063   3.429   8.300   6.792
   53POPC   C3A 1064   3.485   8.025   6.425
   53POPC   C4A 1065   3.293   8.085   6.017
   53POPC   C1B 1066   3.258   7.828   7.361
   53POPC   C2B 1067   3.345   7.791   6.903
   53POPC   C3B 1068   3.157   7.623   6.513
   53POPC   C4B 1069   3.161   7.606   6.070
   54POPC   NC3 1070   3.635   8.819   7.958
   54POPC   PO4 1071   3.064   9.001   8.009
   54POPC   GL1 1072   3.041   8.925   7.594
   54POPC   GL2 1073   3.251   8.659   7.607
   54POPC   C1A 1074   2.959   8.699   7.192
   54POPC   D2A 1075   3.234   8.769   6.881
   54POPC   C3A 1076   3.189   8.651   6.488
   54POPC   C4A 1077   3.207   8.940   6.148
   54POPC   C1B 1078   3.579   8.709   7.262
   54POPC   C2B 1079   3.784   8.667   6.828
   54POPC   C3B 1080   3.687   8.494   6.397
   54POPC   C4B 1081   3.518   8.561   5.951
   55POPC   NC3 1082   1.388   4.158   8.130
   55POPC   PO4 1083   0.959   4.589   8.160
   55POPC   GL1 1084   0.941   4.358   7.766
   55POPC   GL2 1085   1.061   4.026   7.752
   55POPC   C1A 1086   1.182   4.402   7.370
   55POPC   D2A 1087   1.230   4.600   6.946
   55POPC   C3A 1088   1.016   4.516   6.569
   55POPC   C4A 1089   1.099   4.402   6.154
   55POPC   C1B 1090   0.998   3.929   7.309
   55POPC   C2B 1091   1.323   4.080   6.967
   55POPC   C3B 1092   1.237   4.044   6.517
   55POPC   C4B 1093   0.913   3.747   6.390
   56POPC   NC3 1094   9.077   8.511   8.084
   56POPC   PO4 1095   9.649   8.779   8.044
   56POPC   GL1 1096   9.470   8.575   7.695
   56POPC   GL2 1097   9.212   8.804   7.660
   56POPC   C1A 1098   9.507   8.699   7.242
   56POPC   D2A 1099   9.287   8.531   6.846
   56POPC   C3A 1100   9.486   8.645   6.516
   56POPC   C4A 1101   9.480   8.560   6.094
   56POPC   C1B 1102   9.143   9.082   7.320
   56POPC   C2B 1103   9.254   9.027   6.894
   56POPC   C3B 1104   9.097   8.958   6.474
   56POPC   C4B 1105   9.302   9.030   6.069
   57POPC   NC3 1106   1.086   7.850   8.137
   57POPC   PO4 1107   1.409   8.299   7.821
   57POPC   GL1 1108   1.256   7.945   7.649
   57POPC   GL2 1109   0.879   7.920   7.674
   57POPC   C1A 1110   1.378   7.995   7.232
   57POPC   D2A 1111   1.507   7.749   6.920
   57POPC   C3A 1112   1.340   7.868   6.551
   57POPC   C4A 1113   1.538   7.847   6.201
   57POPC   C1B 1114   0.847   7.752   7.273
   57POPC   C2B 1115   0.975   7.924   6.910
   57POPC   C3B 1116   0.806   7.915   6.522
   57POPC   C4B 1117   0.973   7.951   6.159
   58POPC   NC3 1118   2.076   7.303   8.024
   58POPC   PO4 1119   1.454   7.573   8.024
   58POPC   GL1 1120   1.608   7.286   7.683
   58POPC   GL2 1121   1.922   7.258   7.553
   58POPC   C1A 1122   1.549   7.096   7.270
   58POPC   D2A 1123   1.763   7.289   6.911
   58POPC   C3A 1124   1.621   7.276   6.475
   58POPC   C4A 1125   1.683   6.879   6.220
   58POPC   C1B 1126   2.322   7.326   7.376
   58POPC   C2B 1127   2.400   7.428   6.952
   58POPC   C3B 1128   2.134   7.489   6.612
   58POPC   C4B 1129   2.088   7.220   6.237
   59POPC   NC3 1130   6.931   9.463   8.230
   59POPC   PO4 1131   7.535   9.881   8.129
   59POPC   GL1 1132   7.246   9.633   7.823
   59POPC   GL2 1133   7.447   9.373   7.684
   59POPC   C1A 1134   7.144   9.573   7.330
   59POPC   D2A 1135   6.977   9.278   6.992
   59POPC   C3A 1136   7.066   9.370   6.578
   59POPC   C4A 1137   6.967   9.305   6.171
   59POPC   C1B 1138   7.624   9.343   7.296
   59POPC   C2B 1139   7.460   9.283   6.924
   59POPC   C3B 1140   7.583   9.329   6.527
   59POPC   C4B 1141   7.451   9.472   6.171
   60POPC   NC3 1142   0.538   7.562   7.865
   60POPC   PO4 1143   0.652   8.168   8.081
   60POPC   GL1 1144   0.447   8.234   7.700
   60POPC   GL2 1145   0.216   7.964   7.635
   60POPC   C1A 1146   0.578   8.194   7.290
   60POPC   D2A 1147   0.478   8.056   6.897
   60POPC   C3A 1148   0.400   8.225   6.522
   60POPC   C4A 1149   0.626   8.339   6.195
   60POPC   C1B 1150   0.318   7.730   7.256
   60POPC   C2B 1151   0.497   7.570   6.851
   60POPC   C3B 1152   0.287   7.732   6.476
   60POPC   C4B 1153   0.451   7.893   6.074
   61POPC   NC3 1154   2.635   1.949   8.167
   61POPC   PO4 1155   2.034   2.181   8.292
   61POPC   GL1 1156   2.308   2.185   7.804
   61POPC   GL2 1157   2.647   2.108   7.685
   61POPC   C1A 1158   2.376   2.054   7.283
   61POPC   D2A 1159   2.580   1.930   6.841
   61POPC   C3A 1160   2.467   2.173   6.424
   61POPC   C4A 1161   2.316   2.187   5.941
   61POPC   C1B 1162   2.982   1.963   7.414
   61POPC   C2B 1163   3.108   2.047   6.978
   61POPC   C3B 1164   2.993   2.066   6.547
   61POPC   C4B 1165   2.761   1.721   6.367
   62POPC   NC3 1166   4.157   2.592   8.096
   62POPC   PO4 1167   4.562   3.093   7.924
   62POPC   GL1 1168   4.239   2.845   7.619
   62POPC   GL2 1169   4.118   2.481   7.595
   62POPC   C1A 1170   4.169   2.760   7.141
   62POPC   D2A 1171   3.970   2.957   6.769
   62POPC   C3A 1172   4.154   2.998   6.353
   62POPC   C4A 1173   3.992   2.983   5.934
   62POPC   C1B 1174   3.788   2.443   7.257
   62POPC   C2B 1175   3.681   2.531   6.820
   62POPC   C3B 1176   3.902   2.558   6.415
   62POPC   C4B 1177   4.350   2.451   6.299
   63POPC   NC3 1178   2.817   8.622   8.007
   63POPC   PO4 1179   2.314   9.102   8.114
   63POPC   GL1 1180   2.552   8.991   7.754
   63POPC   GL2 1181   2.608   8.645   7.566
   63POPC   C1A 1182   2.620   9.084   7.338
   63POPC   D2A 1183   2.519   8.878   6.983
   63POPC   C3A 1184   2.734   8.884   6.604
   63POPC   C4A 1185   2.597   8.894   6.205
   63POPC   C1B 1186   2.493   8.407   7.209
   63POPC   C2B 1187   2.647   8.414   6.798
   63POPC   C3B 1188   2.668   8.424   6.374
   63POPC   C4B 1189   2.988   8.484   6.064
   64POPC   NC3 1190   5.805   0.552   7.955
   64POPC   PO4 1191   5.323   0.024   8.005
   64POPC   GL1 1192   5.565   0.181   7.698
   64POPC   GL2 1193   5.399   0.486   7.626
   64POPC   C1A 1194   5.677   0.156   7.266
   64POPC   D2A 1195   5.577   0.233   6.846
   64POPC   C3A 1196   5.818   0.132   6.487
   64POPC   C4A 1197   5.672   0.120   6.031
   64POPC   C1B 1198   5.683   0.665   7.279
   64POPC   C2B 1199   5.640   0.728   6.823
   64POPC   C3B 1200   5.450   0.526   6.447
   64POPC   C4B 1201   5.818   0.575   6.205
   65POPC   NC3 1202   8.897   4.396   7.904
   65POPC   PO4 1203   9.437   4.138   8.321
   65POPC   GL1 1204   9.458   4.025   7.812
   65POPC   GL2 1205   9.660   3.804   7.653
   65POPC   C1A 1206   9.521   4.206   7.342
   65POPC   D2A 1207   9.537   4.318   6.881
   65POPC   C3A 1208   9.130   4.250   6.641
   65POPC   C4A 1209   9.178   4.223   6.219
   65POPC   C1B 1210   9.706   3.763   7.188
   65POPC   C2B 1211   9.628   3.813   6.739
   65POPC   C3B 1212   9.628   3.921   6.307
   65POPC   C4B 1213   9.667   4.378   6.213
   66POPC   NC3 1214   1.437  10.232   8.250
   66POPC   PO4 1215   0.879   0.053   8.161
   66POPC   GL1 1216   1.165  10.406   7.801
   66POPC   GL2 1217   1.207  10.047   7.770
   66POPC   C1A 1218   1.362  10.450   7.385
   66POPC   D2A 1219   1.350  10.211   6.969
   66POPC   C3A 1220   1.410  10.391   6.588
   66POPC   C4A 1221   1.398  10.307   6.170
   66POPC   C1B 1222   1.087   9.982   7.339
   66POPC   C2B 1223   0.941   9.900   6.884
   66POPC   C3B 1224   1.109   9.954   6.445
   66POPC   C4B 1225   1.127   9.930   5.963
   67POPC   NC3 1226  10.366   1.350   8.159
   67POPC   PO4 1227   0.586   1.374   8.098
   67POPC   GL1 1228   0.310   1.122   7.835
   67POPC   GL2 1229   0.588   1.162   7.639
   67POPC   C1A 1230   0.210   1.028   7.351
   67POPC   D2A 1231   0.058   1.237   6.967
   67POPC   C3A 1232   0.236   1.115   6.595
   67POPC   C4A 1233   0.272   1.000   6.169
   67POPC   C1B 1234   0.766   1.444   7.343
   67POPC   C2B 1235   0.734   1.209   6.979
   67POPC   C3B 1236   0.744   1.047   6.569
   67POPC   C4B 1237   0.745   1.296   6.195
   68POPC   NC3 1238   8.772   6.555   7.869
   68POPC   PO4 1239   8.746   5.927   7.742
   68POPC   GL1 1240   8.867   6.195   7.464
   68POPC   GL2 1241   8.997   6.593   7.434
   68POPC   C1A 1242   8.781   5.996   7.085
   68POPC   D2A 1243   8.605   6.139   6.727
   68POPC   C3A 1244   8.857   6.023   6.405
   68POPC   C4A 1245   8.854   6.186   5.997
   68POPC   C1B 1246   8.653   6.518   7.161
   68POPC   C2B 1247   8.708   6.667   6.770
   68POPC   C3B 1248   8.693   6.522   6.385
   68POPC   C4B 1249   8.459   6.755   6.076
   69POPC   NC3 1250   7.718   9.454   8.089
   69POPC   PO4 1251   8.106   8.885   8.076
   69POPC   GL1 1252   8.008   9.157   7.712
   69POPC   GL2 1253   7.959   9.518   7.649
   69POPC   C1A 1254   8.080   9.097   7.273
   69POPC   D2A 1255   8.274   9.229   6.864
   69POPC   C3A 1256   8.083   9.261   6.454
   69POPC   C4A 1257   8.284   9.348   6.063
   69POPC   C1B 1258   8.144   9.599   7.271
   69POPC   C2B 1259   7.904   9.560   6.894
   69POPC   C3B 1260   7.819   9.814   6.549
   69POPC   C4B 1261   7.917   9.703   6.148
   70POPC   NC3 1262   1.274   4.935   8.215
   70POPC   PO4 1263   1.754   4.429   8.163
   70POPC   GL1 1264   1.447   4.609   7.780
   70POPC   GL2 1265   1.141   4.837   7.739
   70POPC   C1A 1266   1.422   4.857   7.339
   70POPC   D2A 1267   1.232   5.135   7.028
   70POPC   C3A 1268   1.185   5.028   6.610
   70POPC   C4A 1269   1.408   4.785   6.307
   70POPC   C1B 1270   0.908   4.868   7.353
   70POPC   C2B 1271   0.767   4.821   6.960
   70POPC   C3B 1272   0.691   4.904   6.549
   70POPC   C4B 1273   0.927   4.886   6.172
   71POPC   NC3 1274  10.396   2.250   7.923
   71POPC   PO4 1275   9.812   2.246   8.316
   71POPC   GL1 1276   9.869   2.247   7.822
   71POPC   GL2 1277   9.962   1.942   7.719
   71POPC   C1A 1278  10.010   2.266   7.339
   71POPC   D2A 1279  10.278   2.241   6.952
   71POPC   C3A 1280  10.234   2.015   6.559
   71POPC   C4A 1281  10.454   1.941   6.159
   71POPC   C1B 1282  10.241   1.804   7.354
   71POPC   C2B 1283  10.381   1.728   6.956
   71POPC   C3B 1284   0.025   1.590   6.566
   71POPC   C4B 1285  10.488   1.432   6.167
   72POPC   NC3 1286   7.379   1.348   8.561
   72POPC   PO4 1287   7.167   0.925   8.125
   72POPC   GL1 1288   7.173   0.987   7.680
   72POPC   GL2 1289   6.922   1.246   7.737
   72POPC   C1A 1290   6.958   0.993   7.273
   72POPC   D2A 1291   6.719   1.073   6.907
   72POPC   C3A 1292   6.944   1.123   6.536
   72POPC   C4A 1293   6.993   0.938   6.125
   72POPC   C1B 1294   7.183   1.440   7.431
   72POPC   C2B 1295   7.180   1.394   7.001
   72POPC   C3B 1296   7.259   1.511   6.585
   72POPC   C4B 1297   7.253   1.358   6.171
   73POPC   NC3 1298  10.447   3.975   7.929
   73POPC   PO4 1299   0.608   3.951   8.026
   73POPC   GL1 1300   0.547   4.028   7.631
   73POPC   GL2 1301   0.339   4.319   7.631
   73POPC   C1A 1302   0.395   3.939   7.223
   73POPC   D2A 1303   0.077   4.114   6.970
   73POPC   C3A 1304  10.491   4.006   6.556
   73POPC   C4A 1305   0.115   4.277   6.243
   73POPC   C1B 1306   0.686   4.374   7.295
   73POPC   C2B 1307   0.800   4.182   6.906
   73POPC   C3B 1308   0.612   4.175   6.506
   73POPC   C4B 1309   0.598   4.490   6.208
   74POPC   NC3 1310   1.611   6.423   8.128
   74POPC   PO4 1311   1.825   6.926   8.013
   74POPC   GL1 1312   1.593   6.712   7.680
   74POPC   GL2 1313   1.793   6.386   7.665
   74POPC   C1A 1314   1.693   6.620   7.232
   74POPC   D2A 1315   1.643   6.687   6.808
   74POPC   C3A 1316   1.996   6.869   6.618
   74POPC   C4A 1317   2.292   6.724   6.296
   74POPC   C1B 1318   1.932   6.145   7.299
   74POPC   C2B 1319   2.024   6.342   6.909
   74POPC   C3B 1320   1.948   6.310   6.488
   74POPC   C4B 1321   1.996   5.945   6.237
   75POPC   NC3 1322   9.973   0.275   7.875
   75POPC   PO4 1323  10.214   0.892   8.185
   75POPC   GL1 1324  10.130   0.821   7.745
   75POPC   GL2 1325  10.345   0.586   7.680
   75POPC   C1A 1326   9.980   0.600   7.311
   75POPC   D2A 1327   9.981   0.300   6.965
   75POPC   C3A 1328   9.791   0.489   6.607
   75POPC   C4A 1329   9.947   0.632   6.220
   75POPC   C1B 1330  10.496   0.565   7.269
   75POPC   C2B 1331   0.023   0.523   6.853
   75POPC   C3B 1332  10.397   0.640   6.466
   75POPC   C4B 1333  10.347   0.265   6.199
   76POPC   NC3 1334   6.427   7.958   8.236
   76POPC   PO4 1335   6.802   7.541   8.042
   76POPC   GL1 1336   6.515   7.814   7.752
   76POPC   GL2 1337   6.157   7.981   7.799
   76POPC   C1A 1338   6.463   8.154   7.447
   76POPC   D2A 1339   6.202   8.213   7.081
   76POPC   C3A 1340   6.333   8.062   6.693
   76POPC   C4A 1341   6.474   8.048   6.262
   76POPC   C1B 1342   6.165   7.756   7.356
   76POPC   C2B 1343   6.337   7.602   6.951
   76POPC   C3B 1344   6.302   7.599   6.485
   76POPC   C4B 1345   6.008   7.857   6.219
   77POPC   NC3 1346   1.882   8.953   8.132
   77POPC   PO4 1347   1.595   8.418   8.299
   77POPC   GL1 1348   1.833   8.545   7.827
   77POPC   GL2 1349   2.203   8.617   7.893
   77POPC   C1A 1350   1.664   8.605   7.324
   77POPC   D2A 1351   1.614   8.811   6.891
   77POPC   C3A 1352   1.715   8.650   6.455
   77POPC   C4A 1353   1.778   8.732   5.989
   77POPC   C1B 1354   2.143   8.741   7.435
   77POPC   C2B 1355   2.081   8.605   7.000
   77POPC   C3B 1356   2.237   8.655   6.601
   77POPC   C4B 1357   2.206   8.569   6.205
   78POPC   NC3 1358   1.979   9.953   8.259
   78POPC   PO4 1359   1.657   0.096   8.061
   78POPC   GL1 1360   1.708  10.237   7.763
   78POPC   GL2 1361   1.983  10.303   7.526
   78POPC   C1A 1362   1.627  10.013   7.350
   78POPC   D2A 1363   1.867  10.088   6.950
   78POPC   C3A 1364   1.666   9.963   6.563
   78POPC   C4A 1365   1.613   9.831   6.141
   78POPC   C1B 1366   2.148   0.014   7.178
   78POPC   C2B 1367   2.318   0.062   6.767
   78POPC   C3B 1368   2.144  10.321   6.439
   78POPC   C4B 1369   2.101   9.922   6.314
   79POPC   NC3 1370   0.526   7.139   8.357
   79POPC   PO4 1371   0.085   7.431   7.913
   79POPC   GL1 1372   0.313   7.122   7.698
   79POPC   GL2 1373   0.654   7.037   7.801
   79POPC   C1A 1374   0.380   7.233   7.272
   79POPC   D2A 1375   0.153   7.202   6.916
   79POPC   C3A 1376   0.347   7.207   6.508
   79POPC   C4A 1377   0.668   7.464   6.288
   79POPC   C1B 1378   0.621   6.800   7.376
   79POPC   C2B 1379   0.410   6.713   6.954
   79POPC   C3B 1380   0.335   6.644   6.515
   79POPC   C4B 1381   0.468   6.846   6.163
   80POPC   NC3 1382   1.848   0.833   8.067
   80POPC   PO4 1383   2.118   1.465   7.983
   80POPC   GL1 1384   2.063   1.111   7.672
   80POPC   GL2 1385   1.695   0.992   7.599
   80POPC   C1A 1386   2.149   1.291   7.277
   80POPC   D2A 1387   2.177   1.640   7.020
   80POPC   C3A 1388   2.348   1.497   6.656
   80POPC   C4A 1389   2.175   1.191   6.378
   80POPC   C1B 1390   1.824   0.923   7.164
   80POPC   C2B 1391   1.885   1.215   6.815
   80POPC   C3B 1392   1.676   1.109   6.428
   80POPC   C4B 1393   1.559   0.716   6.235
   81POPC   NC3 1394   2.897  10.071   7.880
   81POPC   PO4 1395   2.226  10.023   7.873
   81POPC   GL1 1396   2.509  10.246   7.572
   81POPC   GL2 1397   2.867  10.415   7.540
   81POPC   C1A 1398   2.557  10.225   7.122
   81POPC   D2A 1399   2.387   9.983   6.782
   81POPC   C3A 1400   2.599  10.018   6.398
   81POPC   C4A 1401   2.640  10.418   6.274
   81POPC   C1B 1402   3.056  10.199   7.178
   81POPC   C2B 1403   2.963  10.398   6.754
   81POPC   C3B 1404   3.102  10.212   6.376
   81POPC   C4B 1405   3.046   9.764   6.333
   82POPC   NC3 1406   7.891  10.168   8.222
   82POPC   PO4 1407   8.214   9.627   8.070
   82POPC   GL1 1408   8.146   9.994   7.784
   82POPC   GL2 1409   7.828  10.180   7.724
   82POPC   C1A 1410   8.162  10.142   7.335
   82POPC   D2A 1411   8.219   9.972   6.916
   82POPC   C3A 1412   8.200  10.249   6.574
   82POPC   C4A 1413   7.928  10.261   6.215
   82POPC   C1B 1414   7.651  10.284   7.302
   82POPC   C2B 1415   7.746  10.224   6.861
   82POPC   C3B 1416   7.514  10.361   6.497
   82POPC   C4B 1417   7.499  10.453   6.009
   83POPC   NC3 1418   1.383   7.065   8.064
   83POPC   PO4 1419   0.836   7.455   8.202
   83POPC   GL1 1420   1.048   7.422   7.762
   83POPC   GL2 1421   1.145   7.075   7.621
   83POPC   C1A 1422   1.288   7.519   7.362
   83POPC   D2A 1423   1.238   7.322   6.943
   83POPC   C3A 1424   1.065   7.441   6.590
   83POPC   C4A 1425   1.202   7.477   6.163
   83POPC   C1B 1426   0.884   7.227   7.307
   83POPC   C2B 1427   0.732   7.118   6.915
   83POPC   C3B 1428   0.767   6.907   6.567
   83POPC   C4B 1429   0.940   7.054   6.209
   84POPC   NC3 1430   6.902  10.018   8.219
   84POPC   PO4 1431   7.112   0.093   7.964
   84POPC   GL1 1432   7.167  10.414   7.585
   84POPC   GL2 1433   7.324  10.136   7.738
   84POPC   C1A 1434   7.170  10.116   7.243
   84POPC   D2A 1435   6.930   9.912   6.935
   84POPC   C3A 1436   6.841  10.222   6.617
   84POPC   C4A 1437   7.072  10.300   6.250
   84POPC   C1B 1438   7.564   9.825   7.454
   84POPC   C2B 1439   7.470   9.793   6.988
   84POPC   C3B 1440   7.293   9.838   6.563
   84POPC   C4B 1441   7.471   9.969   6.176
   85POPC   NC3 1442   4.377   0.534   8.300
   85POPC   PO4 1443   3.787   0.643   8.086
   85POPC   GL1 1444   3.955   0.373   7.757
   85POPC   GL2 1445   4.269   0.218   7.880
   85POPC   C1A 1446   3.878   0.249   7.331
   85POPC   D2A 1447   3.844   0.470   6.957
   85POPC   C3A 1448   3.925   0.293   6.571
   85POPC   C4A 1449   3.965   0.479   6.180
   85POPC   C1B 1450   4.439   0.239   7.459
   85POPC   C2B 1451   4.307   0.265   7.023
   85POPC   C3B 1452   4.450   0.236   6.594
   85POPC   C4B 1453   4.476   0.462   6.198
   86POPC   NC3 1454   1.601   2.362   8.409
   86POPC   PO4 1455   1.510   2.979   7.995
   86POPC   GL1 1456   1.639   2.804   7.597
   86POPC   GL2 1457   1.993   2.773   7.654
   86POPC   C1A 1458   1.604   2.529   7.230
   86POPC   D2A 1459   1.642   2.336   6.800
   86POPC   C3A 1460   1.507   2.520   6.469
   86POPC   C4A 1461   1.770   2.690   6.191
   86POPC   C1B 1462   2.132   2.509   7.348
   86POPC   C2B 1463   2.043   2.600   6.967
   86POPC   C3B 1464   2.094   2.570   6.564
   86POPC   C4B 1465   2.310   2.615   6.190
   87POPC   NC3 1466   8.440   5.132   8.038
   87POPC   PO4 1467   8.887   4.660   8.338
   87POPC   GL1 1468   9.033   4.901   7.923
   87POPC   GL2 1469   8.740   4.858   7.751
   87POPC   C1A 1470   9.105   5.017   7.425
   87POPC   D2A 1471   8.872   5.139   6.995
   87POPC   C3A 1472   8.841   4.988   6.594
   87POPC   C4A 1473   8.610   5.159   6.268
   87POPC   C1B 1474   8.610   4.901   7.355
   87POPC   C2B 1475   8.705   4.627   6.998
   87POPC   C3B 1476   8.642   4.504   6.568
   87POPC   C4B 1477   8.444   4.694   6.181
   88POPC   NC3 1478  10.173   9.857   8.192
   88POPC   PO4 1479   9.789  10.395   8.187
   88POPC   GL1 1480   9.955  10.277   7.745
   88POPC   GL2 1481  10.299  10.105   7.760
   88POPC   C1A 1482   9.811  10.424   7.304
   88POPC   D2A 1483   9.574  10.382   6.900
   88POPC   C3A 1484   9.834  10.334   6.548
   88POPC   C4A 1485  10.038  10.364   6.158
   88POPC   C1B 1486  10.303  10.299   7.351
   88POPC   C2B 1487  10.176  10.273   6.936
   88POPC   C3B 1488  10.495  10.201   6.630
   88POPC   C4B 1489  10.458  10.102   6.220
   89POPC   NC3 1490   0.696   1.925   8.380
   89POPC   PO4 1491   1.341   1.983   8.339
   89POPC   GL1 1492   1.393   2.099   7.914
   89POPC   GL2 1493   1.092   1.941   7.825
   89POPC   C1A 1494   1.453   1.994   7.476
   89POPC   D2A 1495   1.345   2.068   7.088
   89POPC   C3A 1496   1.282   1.936   6.665
   89POPC   C4A 1497   1.415   2.011   6.249
   89POPC   C1B 1498   0.960   1.939   7.394
   89POPC   C2B 1499   0.851   1.885   6.998
   89POPC   C3B 1500   0.769   1.978   6.628
   89POPC   C4B 1501   0.932   1.773   6.295
   90POPC   NC3 1502   8.621   5.115   8.542
   90POPC   PO4 1503   8.156   5.482   8.023
   90POPC   GL1 1504   8.118   5.240   7.595
   90POPC   GL2 1505   8.190   4.909   7.642
   90POPC   C1A 1506   8.262   5.186   7.128
   90POPC   D2A 1507   8.362   4.924   6.748
   90POPC   C3A 1508   8.116   5.044   6.366
   90POPC   C4A 1509   8.124   5.115   5.906
   90POPC   C1B 1510   8.153   4.699   7.211
   90POPC   C2B 1511   7.870   4.815   6.831
   90POPC   C3B 1512   7.641   4.849   6.403
   90POPC   C4B 1513   7.476   4.859   5.958
   91POPC   NC3 1514   5.560   2.172   7.933
   91POPC   PO4 1515   6.070   1.682   8.002
   91POPC   GL1 1516   5.756   1.808   7.657
   91POPC   GL2 1517   5.898   2.144   7.568
   91POPC   C1A 1518   5.554   2.015   7.244
   91POPC   D2A 1519   5.747   2.169   6.873
   91POPC   C3A 1520   5.524   2.215   6.473
   91POPC   C4A 1521   5.513   1.908   6.138
   91POPC   C1B 1522   6.055   1.867   7.255
   91POPC   C2B 1523   6.044   1.756   6.840
   91POPC   C3B 1524   5.926   1.903   6.457
   91POPC   C4B 1525   5.982   1.982   6.001
   92POPC   NC3 1526   1.690   8.017   8.052
   92POPC   PO4 1527   2.268   7.688   8.181
   92POPC   GL1 1528   2.124   7.728   7.699
   92POPC   GL2 1529   1.764   7.772   7.612
   92POPC   C1A 1530   2.101   7.759   7.200
   92POPC   D2A 1531   2.309   8.042   6.877
   92POPC   C3A 1532   2.320   8.016   6.401
   92POPC   C4A 1533   2.042   7.719   6.178
   92POPC   C1B 1534   1.935   8.173   7.429
   92POPC   C2B 1535   1.806   8.183   6.999
   92POPC   C3B 1536   1.850   7.983   6.605
   92POPC   C4B 1537   1.876   8.206   6.217
   93POPC   NC3 1538   9.545   3.690   8.191
   93POPC   PO4 1539   8.835   3.715   8.225
   93POPC   GL1 1540   9.110   3.637   7.850
   93POPC   GL2 1541   9.368   3.366   7.792
   93POPC   C1A 1542   9.223   3.733   7.416
   93POPC   D2A 1543   9.214   3.921   7.017
   93POPC   C3A 1544   9.123   3.699   6.628
   93POPC   C4A 1545   9.174   3.711   6.192
   93POPC   C1B 1546   9.228   3.217   7.364
   93POPC   C2B 1547   9.380   3.409   6.963
   93POPC   C3B 1548   9.526   3.374   6.504
   93POPC   C4B 1549   9.548   3.053   6.191
   94POPC   NC3 1550   0.508   4.422   8.118
   94POPC   PO4 1551   0.278   5.035   8.307
   94POPC   GL1 1552   0.264   4.820   7.835
   94POPC   GL2 1553   0.614   4.770   7.754
   94POPC   C1A 1554   0.331   4.719   7.323
   94POPC   D2A 1555   0.354   4.532   6.870
   94POPC   C3A 1556   0.230   4.740   6.466
   94POPC   C4A 1557   0.181   4.723   6.004
   94POPC   C1B 1558   0.480   5.162   7.506
   94POPC   C2B 1559   0.371   5.157   7.047
   94POPC   C3B 1560   0.315   5.262   6.596
   94POPC   C4B 1561   0.438   5.133   6.153
   95POPC   NC3 1562   1.225   8.638   8.092
   95POPC   PO4 1563   1.587   9.264   7.997
   95POPC   GL1 1564   1.412   8.926   7.698
   95POPC   GL2 1565   1.082   8.696   7.609
   95POPC   C1A 1566   1.297   8.996   7.266
   95POPC   D2A 1567   1.067   8.866   6.903
   95POPC   C3A 1568   1.274   9.014   6.546
   95POPC   C4A 1569   1.296   8.809   6.163
   95POPC   C1B 1570   1.095   8.439   7.215
   95POPC   C2B 1571   1.325   8.347   6.814
   95POPC   C3B 1572   1.265   8.337   6.351
   95POPC   C4B 1573   1.050   8.419   5.935
   96POPC   NC3 1574   6.786   0.751   7.939
   96POPC   PO4 1575   6.141   0.824   8.121
   96POPC   GL1 1576   6.352   0.988   7.774
   96POPC   GL2 1577   6.408   1.330   7.820
   96POPC   C1A 1578   6.446   0.948   7.339
   96POPC   D2A 1579   6.177   0.827   7.004
   96POPC   C3A 1580   6.320   0.915   6.605
   96POPC   C4A 1581   6.097   1.026   6.242
   96POPC   C1B 1582   6.168   1.377   7.414
   96POPC   C2B 1583   6.275   1.333   6.975
   96POPC   C3B 1584   6.298   1.427   6.529
   96POPC   C4B 1585   6.554   1.228   6.220
   97POPC   NC3 1586   3.267   1.733   8.227
   97POPC   PO4 1587   3.812   1.368   8.236
   97POPC   GL1 1588   3.773   1.573   7.805
   97POPC   GL2 1589   3.445   1.780   7.735
   97POPC   C1A 1590   3.655   1.526   7.351
   97POPC   D2A 1591   3.379   1.551   6.988
   97POPC   C3A 1592   3.469   1.655   6.539
   97POPC   C4A 1593   3.261   1.846   6.171
   97POPC   C1B 1594   3.498   2.019   7.338
   97POPC   C2B 1595   3.624   2.028   6.910
   97POPC   C3B 1596   3.528   2.159   6.498
   97POPC   C4B 1597   3.729   2.184   6.114
   98POPC   NC3 1598   6.354   0.497   8.390
   98POPC   PO4 1599   5.783   0.206   8.270
   98POPC   GL1 1600   6.070   0.120   7.846
   98POPC   GL2 1601   6.276   0.435   7.739
   98POPC   C1A 1602   6.165   0.040   7.356
   98POPC   D2A 1603   6.070   0.336   6.975
   98POPC   C3A 1604   6.267   0.395   6.550
   98POPC   C4A 1605   6.172   0.186   6.135
   98POPC   C1B 1606   6.484   0.427   7.318
   98POPC   C2B 1607   6.652   0.542   6.929
   98POPC   C3B 1608   6.770   0.639   6.531
   98POPC   C4B 1609   6.552   0.708   6.184
   99POPC   NC3 1610   1.267   2.605   7.920
   99POPC   PO4 1611   0.753   2.267   8.041
   99POPC   GL1 1612   0.866   2.394   7.633
   99POPC   GL2 1613   0.822   2.743   7.628
   99POPC   C1A 1614   0.812   2.409   7.173
   99POPC   D2A 1615   1.095   2.396   6.807
   99POPC   C3A 1616   1.022   2.339   6.367
   99POPC   C4A 1617   0.860   2.578   6.011
   99POPC   C1B 1618   1.160   2.800   7.320
   99POPC   C2B 1619   1.316   2.858   6.912
   99POPC   C3B 1620   1.088   2.834   6.528
   99POPC   C4B 1621   1.268   2.856   6.147
  100POPC   NC3 1622   1.960   4.004   8.134
  100POPC   PO4 1623   2.308   4.359   7.901
  100POPC   GL1 1624   1.909   4.400   7.680
  100POPC   GL2 1625   1.651   4.128   7.708
  100POPC   C1A 1626   1.688   4.428   7.274
  100POPC   D2A 1627   1.727   4.692   6.900
  100POPC   C3A 1628   1.756   4.443   6.518
  100POPC   C4A 1629   2.103   4.352   6.225
  100POPC   C1B 1630   1.924   3.984   7.383
  100POPC   C2B 1631   1.884   3.999   6.946
  100POPC   C3B 1632   2.030   3.955   6.534
  100POPC   C4B 1633   1.708   4.020   6.230
  101POPC   NC3 1634   7.979   2.813   8.119
  101POPC   PO4 1635   8.144   3.279   7.767
  101POPC   GL1 1636   7.909   2.905   7.614
  101POPC   GL2 1637   7.990   2.535   7.690
  101POPC   C1A 1638   7.786   2.993   7.205
  101POPC   D2A 1639   8.041   3.107   6.849
  101POPC   C3A 1640   7.892   3.057   6.406
  101POPC   C4A 1641   8.111   3.261   6.046
  101POPC   C1B 1642   7.948   2.521   7.244
  101POPC   C2B 1643   8.166   2.606   6.857
  101POPC   C3B 1644   8.126   2.600   6.415
  101POPC   C4B 1645   8.113   2.751   6.017
  102POPC   NC3 1646   1.225   0.347   8.049
  102POPC   PO4 1647   0.564   0.528   8.054
  102POPC   GL1 1648   0.777   0.280   7.709
  102POPC   GL2 1649   1.098   0.403   7.562
  102POPC   C1A 1650   0.849   0.001   7.344
  102POPC   D2A 1651   1.083   0.138   6.960
  102POPC   C3A 1652   0.897  10.451   6.573
  102POPC   C4A 1653   0.745   0.158   6.212
  102POPC   C1B 1654   1.403   0.639   7.321
  102POPC   C2B 1655   1.525   0.582   6.888
  102POPC   C3B 1656   1.340   0.378   6.532
  102POPC   C4B 1657   1.218   0.311   6.098
  103POPC   NC3 1658  10.357   4.981   8.151
  103POPC   PO4 1659   9.737   4.836   8.272
  103POPC   GL1 1660   9.982   4.764   7.864
  103POPC   GL2 1661  10.053   5.068   7.740
  103POPC   C1A 1662   9.956   4.697   7.408
  103POPC   D2A 1663   9.937   4.957   7.022
  103POPC   C3A 1664   9.834   4.743   6.622
  103POPC   C4A 1665   9.932   5.002   6.261
  103POPC   C1B 1666  10.403   4.936   7.477
  103POPC   C2B 1667  10.446   4.866   7.019
  103POPC   C3B 1668  10.303   4.970   6.629
  103POPC   C4B 1669  10.455   5.111   6.254
  104POPC   NC3 1670  10.252   7.074   7.954
  104POPC   PO4 1671   0.323   6.775   8.149
  104POPC   GL1 1672   0.031   6.677   7.748
  104POPC   GL2 1673  10.160   6.819   7.537
  104POPC   C1A 1674   0.102   6.824   7.332
  104POPC   D2A 1675  10.291   6.866   7.023
  104POPC   C3A 1676  10.395   6.895   6.616
  104POPC   C4A 1677  10.114   6.831   6.369
  104POPC   C1B 1678  10.239   7.263   7.334
  104POPC   C2B 1679  10.201   7.464   6.939
  104POPC   C3B 1680  10.367   7.431   6.537
  104POPC   C4B 1681  10.134   7.367   6.198
  105POPC   NC3 1682   8.353   5.889   7.968
  105POPC   PO4 1683   8.353   6.529   8.056
  105POPC   GL1 1684   8.381   6.290   7.630
  105POPC   GL2 1685   8.058   6.128   7.615
  105POPC   C1A 1686   8.303   6.153   7.169
  105POPC   D2A 1687   8.228   6.485   6.862
  105POPC   C3A 1688   8.191   6.439   6.439
  105POPC   C4A 1689   8.379   6.148   6.206
  105POPC   C1B 1690   7.934   6.478   7.316
  105POPC   C2B 1691   7.725   6.531   6.889
  105POPC   C3B 1692   7.704   6.268   6.516
  105POPC   C4B 1693   7.876   6.101   6.145
  106POPC   NC3 1694   1.758   1.821   8.156
  106POPC   PO4 1695   1.725   2.497   7.986
  106POPC   GL1 1696   1.834   2.246   7.643
  106POPC   GL2 1697   1.921   1.869   7.663
  106POPC   C1A 1698   1.876   2.087   7.184
  106POPC   D2A 1699   2.097   2.084   6.781
  106POPC   C3A 1700   1.900   2.139   6.375
  106POPC   C4A 1701   1.818   2.238   5.956
  106POPC   C1B 1702   1.733   1.602   7.307
  106POPC   C2B 1703   1.680   1.695   6.863
  106POPC   C3B 1704   1.878   1.624   6.470
  106POPC   C4B 1705   2.238   1.756   6.228
  107POPC   NC3 1706   9.544   6.341   8.291
  107POPC   PO4 1707   8.872   6.303   8.245
  107POPC   GL1 1708   9.216   6.313   7.836
  107POPC   GL2 1709   9.408   6.562   7.786
  107POPC   C1A 1710   9.341   6.249   7.351
  107POPC   D2A 1711   9.086   6.351   6.946
  107POPC   C3A 1712   9.226   6.372   6.514
  107POPC   C4A 1713   9.411   6.500   6.118
  107POPC   C1B 1714   9.517   6.714   7.373
  107POPC   C2B 1715   9.527   6.566   6.953
  107POPC   C3B 1716   9.535   6.789   6.575
  107POPC   C4B 1717   9.660   6.933   6.196
  108POPC   NC3 1718   2.176   2.585   8.107
  108POPC   PO4 1719   2.838   2.374   8.071
  108POPC   GL1 1720   2.873   2.561   7.643
  108POPC   GL2 1721   2.525   2.653   7.629
  108POPC   C1A 1722   2.784   2.411   7.232
  108POPC   D2A 1723   2.497   2.411   6.922
  108POPC   C3A 1724   2.587   2.681   6.642
  108POPC   C4A 1725   2.843   2.524   6.341
  108POPC   C1B 1726   2.472   2.845   7.190
  108POPC   C2B 1727   2.281   3.066   6.863
  108POPC   C3B 1728   2.267   3.052   6.414
  108POPC   C4B 1729   2.674   2.996   6.221
  109POPC   NC3 1730   6.582  10.409   7.892
  109POPC   PO4 1731   6.608   9.730   8.017
  109POPC   GL1 1732   6.538   9.845   7.608
  109POPC   GL2 1733   6.830  10.007   7.598
  109POPC   C1A 1734   6.287   9.966   7.239
  109POPC   D2A 1735   6.421  10.004   6.821
  109POPC   C3A 1736   6.242   9.806   6.439
  109POPC   C4A 1737   6.277   9.766   5.936
  109POPC   C1B 1738   6.687  10.313   7.250
  109POPC   C2B 1739   6.481   0.029   6.897
  109POPC   C3B 1740   6.304  10.372   6.513
  109POPC   C4B 1741   6.550  10.143   6.191
  110POPC   NC3 1742   2.042   5.521   8.138
  110POPC   PO4 1743   1.545   5.964   8.114
  110POPC   GL1 1744   1.627   5.916   7.660
  110POPC   GL2 1745   1.920   5.782   7.690
  110POPC   C1A 1746   1.603   5.743   7.250
  110POPC   D2A 1747   1.776   5.875   6.857
  110POPC   C3A 1748   1.566   5.714   6.509
  110POPC   C4A 1749   1.629   5.572   6.094
  110POPC   C1B 1750   2.068   5.593   7.320
  110POPC   C2B 1751   2.138   5.473   6.910
  110POPC   C3B 1752   2.011   5.492   6.496
  110POPC   C4B 1753   2.119   5.454   6.075
  111POPC   NC3 1754   0.761   3.465   7.982
  111POPC   PO4 1755   0.159   3.072   8.031
  111POPC   GL1 1756   0.437   3.155   7.706
  111POPC   GL2 1757   0.378   3.533   7.665
  111POPC   C1A 1758   0.707   3.258   7.359
  111POPC   D2A 1759   0.657   3.549   7.008
  111POPC   C3A 1760   0.721   3.336   6.630
  111POPC   C4A 1761   0.555   3.365   6.186
  111POPC   C1B 1762   0.210   3.439   7.279
  111POPC   C2B 1763   0.046   3.609   6.909
  111POPC   C3B 1764   0.286   3.595   6.556
  111POPC   C4B 1765   0.368   3.848   6.192
  112POPC   NC3 1766   6.267   2.880   7.944
  112POPC   PO4 1767   6.828   3.109   7.961
  112POPC   GL1 1768   6.644   2.955   7.591
  112POPC   GL2 1769   6.638   2.615   7.687
  112POPC   C1A 1770   6.358   3.075   7.232
  112POPC   D2A 1771   6.398   3.171   6.779
  112POPC   C3A 1772   6.736   2.984   6.497
  112POPC   C4A 1773   6.720   3.012   6.040
  112POPC   C1B 1774   6.457   2.572   7.281
  112POPC   C2B 1775   6.557   2.682   6.867
  112POPC   C3B 1776   6.274   2.733   6.511
  112POPC   C4B 1777   6.029   2.390   6.305
  113POPC   NC3 1778  10.083   8.955   8.057
  113POPC   PO4 1779  10.157   8.255   8.033
  113POPC   GL1 1780   9.978   8.444   7.660
  113POPC   GL2 1781   9.927   8.805   7.592
  113POPC   C1A 1782  10.048   8.297   7.241
  113POPC   D2A 1783   9.796   8.439   6.914
  113POPC   C3A 1784   9.900   8.354   6.526
  113POPC   C4A 1785   9.941   8.709   6.289
  113POPC   C1B 1786  10.160   8.796   7.199
  113POPC   C2B 1787  10.237   8.696   6.758
  113POPC   C3B 1788  10.382   8.931   6.409
  113POPC   C4B 1789   0.005   9.249   6.162
  114POPC   NC3 1790  10.149   3.082   8.075
  114POPC   PO4 1791  10.017   3.812   8.020
  114POPC   GL1 1792  10.004   3.457   7.761
  114POPC   GL2 1793  10.372   3.393   7.702
  114POPC   C1A 1794   9.727   3.305   7.408
  114POPC   D2A 1795   9.719   3.034   7.025
  114POPC   C3A 1796   9.905   3.017   6.587
  114POPC   C4A 1797   9.984   3.284   6.194
  114POPC   C1B 1798  10.190   3.455   7.274
  114POPC   C2B 1799   9.978   3.450   6.870
  114POPC   C3B 1800  10.064   3.680   6.485
  114POPC   C4B 1801  10.408   3.637   6.205
  115POPC   NC3 1802   7.308   0.478   8.164
  115POPC   PO4 1803   6.653   0.331   8.083
  115POPC   GL1 1804   6.866   0.365   7.639
  115POPC   GL2 1805   7.238   0.480   7.653
  115POPC   C1A 1806   7.001   0.268   7.236
  115POPC   D2A 1807   7.207   0.407   6.872
  115POPC   C3A 1808   7.028   0.203   6.553
  115POPC   C4A 1809   6.663   0.146   6.310
  115POPC   C1B 1810   7.376   0.699   7.282
  115POPC   C2B 1811   7.315   0.912   6.867
  115POPC   C3B 1812   7.284   0.715   6.465
  115POPC   C4B 1813   7.465   0.345   6.332
  116POPC   NC3 1814   9.233  10.198   8.221
  116POPC   PO4 1815   9.355   0.380   8.176
  116POPC   GL1 1816   9.446   0.008   7.828
  116POPC   GL2 1817   9.465  10.125   7.792
  116POPC   C1A 1818   9.305  10.385   7.389
  116POPC   D2A 1819   9.187  10.056   7.084
  116POPC   C3A 1820   9.147  10.206   6.640
  116POPC   C4A 1821   9.379  10.293   6.291
  116POPC   C1B 1822   9.645   9.956   7.423
  116POPC   C2B 1823   9.757   9.906   6.982
  116POPC   C3B 1824   9.566   9.890   6.564
  116POPC   C4B 1825   9.761   9.940   6.166
  117POPC   NC3 1826   7.523   1.209   7.970
  117POPC   PO4 1827   8.245   1.391   7.976
  117POPC   GL1 1828   8.088   1.268   7.568
  117POPC   GL2 1829   7.804   1.020   7.572
  117POPC   C1A 1830   8.284   0.978   7.270
  117POPC   D2A 1831   8.387   0.936   6.830
  117POPC   C3A 1832   8.093   1.151   6.580
  117POPC   C4A 1833   7.994   1.479   6.295
  117POPC   C1B 1834   7.577   1.174   7.254
  117POPC   C2B 1835   7.660   1.317   6.842
  117POPC   C3B 1836   7.594   1.133   6.462
  117POPC   C4B 1837   7.691   1.114   6.043
  118POPC   NC3 1838   9.385   9.184   8.034
  118POPC   PO4 1839   9.074   9.785   8.052
  118POPC   GL1 1840   9.320   9.621   7.692
  118POPC   GL2 1841   9.672   9.473   7.666
  118POPC   C1A 1842   9.365   9.562   7.247
  118POPC   D2A 1843   9.477   9.469   6.838
  118POPC   C3A 1844   9.131   9.486   6.523
  118POPC   C4A 1845   9.126   9.854   6.241
  118POPC   C1B 1846   9.730   9.178   7.293
  118POPC   C2B 1847   9.773   8.975   6.865
  118POPC   C3B 1848   9.601   9.133   6.475
  118POPC   C4B 1849   9.529   9.486   6.185
  119POPC   NC3 1850   0.417   5.454   8.153
  119POPC   PO4 1851   0.585   6.109   8.353
  119POPC   GL1 1852   0.545   5.931   7.876
  119POPC   GL2 1853   0.279   5.708   7.754
  119POPC   C1A 1854   0.600   5.851   7.395
  119POPC   D2A 1855   0.779   5.864   6.951
  119POPC   C3A 1856   0.576   5.760   6.560
  119POPC   C4A 1857   0.629   5.841   6.148
  119POPC   C1B 1858   0.163   5.562   7.355
  119POPC   C2B 1859   0.302   5.649   6.966
  119POPC   C3B 1860   0.060   5.738   6.618
  119POPC   C4B 1861   0.157   5.593   6.225
  120POPC   NC3 1862   4.241   1.525   8.316
  120POPC   PO4 1863   4.398   2.174   8.153
  120POPC   GL1 1864   4.328   1.929   7.746
  120POPC   GL2 1865   4.391   1.555   7.802
  120POPC   C1A 1866   4.040   2.024   7.369
  120POPC   D2A 1867   4.110   2.238   6.921
  120POPC   C3A 1868   4.065   2.062   6.495
  120POPC   C4A 1869   4.211   2.022   6.032
  120POPC   C1B 1870   4.166   1.536   7.398
  120POPC   C2B 1871   4.018   1.705   6.984
  120POPC   C3B 1872   3.986   1.566   6.565
  120POPC   C4B 1873   3.855   1.688   6.154
  121POPC   NC3 1874   2.177   9.557   8.015
  121POPC   PO4 1875   1.571   9.834   8.051
  121POPC   GL1 1876   1.809   9.665   7.660
  121POPC   GL2 1877   2.168   9.696   7.520
  121POPC   C1A 1878   1.853   9.572   7.168
  121POPC   D2A 1879   2.048   9.615   6.764
  121POPC   C3A 1880   1.883   9.470   6.393
  121POPC   C4A 1881   1.628   9.194   6.167
  121POPC   C1B 1882   2.155   9.259   7.430
  121POPC   C2B 1883   2.075   9.118   7.012
  121POPC   C3B 1884   2.276   9.162   6.607
  121POPC   C4B 1885   2.130   9.081   6.185
  122POPC   NC3 1886   8.783   1.477   8.079
  122POPC   PO4 1887   8.487   2.042   8.282
  122POPC   GL1 1888   8.577   1.903   7.829
  122POPC   GL2 1889   8.871   2.105   7.739
  122POPC   C1A 1890   8.382   1.725   7.410
  122POPC   D2A 1891   8.361   1.450   7.026
  122POPC   C3A 1892   8.304   1.720   6.670
  122POPC   C4A 1893   8.379   1.860   6.248
  122POPC   C1B 1894   8.701   2.126   7.334
  122POPC   C2B 1895   8.725   1.927   6.927
  122POPC   C3B 1896   8.794   2.083   6.489
  122POPC   C4B 1897   8.757   2.299   6.055
  123POPC   NC3 1898   8.634   9.830   7.960
  123POPC   PO4 1899   8.794  10.366   8.283
  123POPC   GL1 1900   8.936  10.366   7.813
  123POPC   GL2 1901   8.979  10.039   7.616
  123POPC   C1A 1902   8.796  10.456   7.364
  123POPC   D2A 1903   8.476   0.013   7.041
  123POPC   C3A 1904   8.641   0.048   6.637
  123POPC   C4A 1905   8.897   0.027   6.275
  123POPC   C1B 1906   8.664   9.970   7.274
  123POPC   C2B 1907   8.708  10.085   6.847
  123POPC   C3B 1908   8.669  10.087   6.388
  123POPC   C4B 1909   8.336   9.989   6.105
  124POPC   NC3 1910   1.906   3.196   7.949
  124POPC   PO4 1911   1.568   3.735   8.151
  124POPC   GL1 1912   1.794   3.624   7.729
  124POPC   GL2 1913   1.652   3.306   7.536
  124POPC   C1A 1914   2.058   3.502   7.333
  124POPC   D2A 1915   2.248   3.596   6.946
  124POPC   C3A 1916   2.030   3.442   6.613
  124POPC   C4A 1917   1.942   3.566   6.204
  124POPC   C1B 1918   1.849   3.041   7.189
  124POPC   C2B 1919   1.782   2.973   6.727
  124POPC   C3B 1920   1.655   3.162   6.344
  124POPC   C4B 1921   1.895   3.126   5.958
  125POPC   NC3 1922   4.843   2.054   8.029
  125POPC   PO4 1923   5.253   2.409   7.692
  125POPC   GL1 1924   5.177   1.993   7.606
  125POPC   GL2 1925   4.815   2.018   7.515
  125POPC   C1A 1926   5.191   1.678   7.330
  125POPC   D2A 1927   5.027   1.994   7.039
  125POPC   C3A 1928   5.083   1.949   6.605
  125POPC   C4A 1929   5.038   1.830   6.191
  125POPC   C1B 1930   4.504   1.988   7.162
  125POPC   C2B 1931   4.458   1.808   6.749
  125POPC   C3B 1932   4.582   1.965   6.364
  125POPC   C4B 1933   4.856   2.320   6.277
  126POPC   NC3 1934   2.807   9.327   8.197
  126POPC   PO4 1935   2.453   9.814   8.310
  126POPC   GL1 1936   2.623   9.668   7.837
  126POPC   GL2 1937   2.857   9.413   7.714
  126POPC   C1A 1938   2.643   9.743   7.367
  126POPC   D2A 1939   2.475   9.477   7.038
  126POPC   C3A 1940   2.640   9.541   6.630
  126POPC   C4A 1941   2.400   9.529   6.267
  126POPC   C1B 1942   3.014   9.399   7.317
  126POPC   C2B 1943   2.921   9.215   6.942
  126POPC   C3B 1944   3.067   9.260   6.539
  126POPC   C4B 1945   2.863   9.321   6.166
  127POPC   NC3 1946   7.391   2.100   8.168
  127POPC   PO4 1947   6.777   2.285   8.079
  127POPC   GL1 1948   7.110   2.212   7.744
  127POPC   GL2 1949   7.197   1.851   7.748
  127POPC   C1A 1950   7.441   2.131   7.388
  127POPC   D2A 1951   7.688   2.171   6.992
  127POPC   C3A 1952   7.488   2.271   6.591
  127POPC   C4A 1953   7.347   2.217   6.165
  127POPC   C1B 1954   6.995   1.894   7.313
  127POPC   C2B 1955   7.233   1.916   6.919
  127POPC   C3B 1956   7.059   1.962   6.503
  127POPC   C4B 1957   6.838   1.637   6.291
  128POPC   NC3 1958   3.518   0.185   7.985
  128POPC   PO4 1959   3.145   0.727   7.964
  128POPC   GL1 1960   3.112   0.353   7.652
  128POPC   GL2 1961   3.413   0.142   7.512
  128POPC   C1A 1962   3.079   0.198   7.175
  128POPC   D2A 1963   3.414   0.189   6.837
  128POPC   C3A 1964   3.220   0.275   6.413
  128POPC   C4A 1965   3.011   0.202   6.002
  128POPC   C1B 1966   3.448   0.560   7.289
  128POPC   C2B 1967   3.498   0.838   6.936
  128POPC   C3B 1968   3.548   0.654   6.566
  128POPC   C4B 1969   3.433   0.762   6.202
  129POPC   NC3 1970   8.088   0.940   7.986
  129POPC   PO4 1971   8.693   0.747   8.042
  129POPC   GL1 1972   8.622   1.071   7.729
  129POPC   GL2 1973   8.857   0.883   7.543
  129POPC   C1A 1974   8.737   1.371   7.376
  129POPC   D2A 1975   8.874   1.436   6.904
  129POPC   C3A 1976   8.580   1.332   6.537
  129POPC   C4A 1977   8.489   0.929   6.315
  129POPC   C1B 1978   8.825   0.950   7.100
  129POPC   C2B 1979   8.898   0.976   6.656
  129POPC   C3B 1980   8.964   1.140   6.239
  129POPC   C4B 1981   9.197   1.008   5.895
  130POPC   NC3 1982   8.326   7.856   8.170
  130POPC   PO4 1983   7.672   7.795   8.003
  130POPC   GL1 1984   7.782   8.105   7.705
  130POPC   GL2 1985   8.140   7.960   7.668
  130POPC   C1A 1986   7.598   8.308   7.329
  130POPC   D2A 1987   7.635   8.049   6.915
  130POPC   C3A 1988   7.467   8.083   6.477
  130POPC   C4A 1989   7.432   8.478   6.255
  130POPC   C1B 1990   8.075   7.886   7.206
  130POPC   C2B 1991   7.919   7.620   6.862
  130POPC   C3B 1992   7.863   7.638   6.429
  130POPC   C4B 1993   8.150   7.900   6.268
  131POPC   NC3 1994   7.228   7.718   8.037
  131POPC   PO4 1995   7.243   8.392   8.152
  131POPC   GL1 1996   7.259   8.164   7.758
  131POPC   GL2 1997   6.872   8.189   7.835
  131POPC   C1A 1998   7.394   7.856   7.361
  131POPC   D2A 1999   7.204   7.772   6.922
  131POPC   C3A 2000   7.353   7.585   6.516
  131POPC   C4A 2001   7.457   7.685   6.081
  131POPC   C1B 2002   6.915   7.958   7.443
  131POPC   C2B 2003   6.722   7.935   7.046
  131POPC   C3B 2004   6.838   7.977   6.620
  131POPC   C4B 2005   6.980   7.824   6.227
  132POPC   NC3 2006   0.141   0.693   8.095
  132POPC   PO4 2007  10.410   0.113   7.922
  132POPC   GL1 2008   0.267   0.297   7.647
  132POPC   GL2 2009   0.367   0.650   7.621
  132POPC   C1A 2010   0.482   0.364   7.223
  132POPC   D2A 2011   0.470   0.755   6.962
  132POPC   C3A 2012   0.407   0.647   6.541
  132POPC   C4A 2013   0.354   0.498   6.174
  132POPC   C1B 2014   0.757   0.756   7.403
  132POPC   C2B 2015   0.985   0.671   7.020
  132POPC   C3B 2016   0.866   0.491   6.639
  132POPC   C4B 2017   0.851   0.668   6.240
  133POPC   NC3 2018   4.189   8.066   8.138
  133POPC   PO4 2019   3.791   7.649   8.091
  133POPC   GL1 2020   3.905   7.885   7.694
  133POPC   GL2 2021   4.268   7.947   7.660
  133POPC   C1A 2022   3.978   7.924   7.215
  133POPC   D2A 2023   3.912   8.139   6.789
  133POPC   C3A 2024   3.981   7.915   6.362
  133POPC   C4A 2025   3.675   7.663   6.079
  133POPC   C1B 2026   4.441   8.146   7.297
  133POPC   C2B 2027   4.403   7.975   6.891
  133POPC   C3B 2028   4.582   7.927   6.505
  133POPC   C4B 2029   4.455   8.036   6.134
  134POPC   NC3 2030   8.530   8.579   8.095
  134POPC   PO4 2031   9.174   8.077   8.081
  134POPC   GL1 2032   9.043   8.283   7.656
  134POPC   GL2 2033   8.774   8.541   7.656
  134POPC   C1A 2034   9.087   8.432   7.290
  134POPC   D2A 2035   8.844   8.709   7.103
  134POPC   C3A 2036   8.751   8.604   6.689
  134POPC   C4A 2037   9.019   8.446   6.369
  134POPC   C1B 2038   8.438   8.723   7.443
  134POPC   C2B 2039   8.334   8.744   7.005
  134POPC   C3B 2040   8.256   8.737   6.562
  134POPC   C4B 2041   8.550   8.696   6.207
  135POPC   NC3 2042   0.421   0.005   8.045
  135POPC   PO4 2043   0.144   9.876   8.211
  135POPC   GL1 2044   0.325  10.045   7.767
  135POPC   GL2 2045   0.690  10.156   7.716
  135POPC   C1A 2046   0.321  10.366   7.393
  135POPC   D2A 2047   0.127   0.047   7.010
  135POPC   C3A 2048   0.359   0.107   6.596
  135POPC   C4A 2049   0.277  10.482   6.156
  135POPC   C1B 2050   0.587   9.962   7.282
  135POPC   C2B 2051   0.479  10.167   6.892
  135POPC   C3B 2052   0.472  10.065   6.457
  135POPC   C4B 2053   0.681  10.157   6.091
  136POPC   NC3 2054   9.738   1.122   8.138
  136POPC   PO4 2055   9.969   1.615   8.290
  136POPC   GL1 2056   9.941   1.463   7.837
  136POPC   GL2 2057  10.238   1.355   7.657
  136POPC   C1A 2058   9.805   1.536   7.392
  136POPC   D2A 2059   9.990   1.381   6.984
  136POPC   C3A 2060   9.816   1.553   6.599
  136POPC   C4A 2061  10.020   1.663   6.240
  136POPC   C1B 2062  10.210   1.058   7.317
  136POPC   C2B 2063  10.182   0.896   6.903
  136POPC   C3B 2064  10.236   1.158   6.550
  136POPC   C4B 2065  10.136   1.089   6.146
  137POPC   NC3 2066   0.618   6.423   8.012
  137POPC   PO4 2067   0.022   6.085   8.013
  137POPC   GL1 2068   0.153   6.174   7.601
  137POPC   GL2 2069   0.421   6.363   7.551
  137POPC   C1A 2070   0.209   6.090   7.172
  137POPC   D2A 2071   0.427   6.190   6.823
  137POPC   C3A 2072   0.266   6.150   6.443
  137POPC   C4A 2073   0.131   6.117   6.060
  137POPC   C1B 2074   0.724   6.318   7.219
  137POPC   C2B 2075   0.855   6.481   6.838
  137POPC   C3B 2076   0.787   6.279   6.473
  137POPC   C4B 2077   0.580   6.351   6.099
  138POPC   NC3 2078   9.167   0.756   7.960
  138POPC   PO4 2079   9.255   1.420   8.131
  138POPC   GL1 2080   9.146   1.277   7.728
  138POPC   GL2 2081   9.491   1.202   7.682
  138POPC   C1A 2082   9.218   1.265   7.266
  138POPC   D2A 2083   9.487   1.320   6.938
  138POPC   C3A 2084   9.330   1.324   6.540
  138POPC   C4A 2085   9.447   1.535   6.156
  138POPC   C1B 2086   9.702   1.045   7.320
  138POPC   C2B 2087   9.683   0.844   6.956
  138POPC   C3B 2088   9.760   1.020   6.563
  138POPC   C4B 2089   9.643   1.083   6.138
  139POPC   NC3 2090   2.149  10.471   7.989
  139POPC   PO4 2091   2.336   0.734   8.042
  139POPC   GL1 2092   2.086   0.563   7.704
  139POPC   GL2 2093   1.692   0.489   7.734
  139POPC   C1A 2094   2.211   0.623   7.309
  139POPC   D2A 2095   2.048   0.480   6.958
  139POPC   C3A 2096   1.958   0.731   6.634
  139POPC   C4A 2097   2.067   0.554   6.271
  139POPC   C1B 2098   1.770   0.283   7.373
  139POPC   C2B 2099   1.681   0.101   6.980
  139POPC   C3B 2100   1.828   0.206   6.578
  139POPC   C4B 2101   1.709   0.212   6.159
  140POPC   NC3 2102   5.265   9.497   8.283
  140POPC   PO4 2103   4.773   9.044   8.069
  140POPC   GL1 2104   4.786   9.219   7.698
  140POPC   GL2 2105   4.989   9.475   7.663
  140POPC   C1A 2106   4.899   9.088   7.297
  140POPC   D2A 2107   4.684   9.161   6.953
  140POPC   C3A 2108   4.845   9.165   6.586
  140POPC   C4A 2109   4.777   8.904   6.274
  140POPC   C1B 2110   4.836   9.593   7.265
  140POPC   C2B 2111   4.717   9.674   6.832
  140POPC   C3B 2112   4.797   9.645   6.424
  140POPC   C4B 2113   4.947   9.530   6.023
  141POPC   NC3 2114   9.588   1.860   8.190
  141POPC   PO4 2115   9.173   2.387   8.102
  141POPC   GL1 2116   9.388   2.087   7.779
  141POPC   GL2 2117   9.431   1.720   7.736
  141POPC   C1A 2118   9.560   2.031   7.342
  141POPC   D2A 2119   9.849   1.906   6.993
  141POPC   C3A 2120   9.731   2.111   6.603
  141POPC   C4A 2121   9.639   2.024   6.191
  141POPC   C1B 2122   9.119   1.769   7.397
  141POPC   C2B 2123   9.262   1.780   6.959
  141POPC   C3B 2124   9.268   1.855   6.518
  141POPC   C4B 2125   9.086   1.891   6.092
  142POPC   NC3 2126  10.201   2.008   8.331
  142POPC   PO4 2127  10.143   2.618   8.030
  142POPC   GL1 2128  10.141   2.668   7.610
  142POPC   GL2 2129  10.082   2.986   7.572
  142POPC   C1A 2130  10.108   2.717   7.143
  142POPC   D2A 2131   9.823   2.552   6.867
  142POPC   C3A 2132  10.113   2.521   6.546
  142POPC   C4A 2133  10.079   2.317   6.173
  142POPC   C1B 2134  10.461   3.003   7.360
  142POPC   C2B 2135  10.416   3.124   6.946
  142POPC   C3B 2136  10.354   3.265   6.558
  142POPC   C4B 2137  10.337   2.920   6.297
  143POPC   NC3 2138   4.488   9.494   8.087
  143POPC   PO4 2139   3.920   9.181   8.007
  143POPC   GL1 2140   4.236   9.218   7.723
  143POPC   GL2 2141   4.122   9.557   7.687
  143POPC   C1A 2142   4.423   9.322   7.357
  143POPC   D2A 2143   4.292   9.502   7.003
  143POPC   C3A 2144   4.365   9.343   6.589
  143POPC   C4A 2145   4.439   9.430   6.152
  143POPC   C1B 2146   3.909   9.352   7.297
  143POPC   C2B 2147   3.872   9.324   6.817
  143POPC   C3B 2148   3.892   9.394   6.404
  143POPC   C4B 2149   4.016   9.692   6.197
  144POPC   NC3 2150   4.901   8.583   8.103
  144POPC   PO4 2151   5.471   8.735   7.965
  144POPC   GL1 2152   5.152   8.745   7.624
  144POPC   GL2 2153   4.783   8.711   7.636
  144POPC   C1A 2154   5.240   8.734   7.189
  144POPC   D2A 2155   5.294   9.010   6.880
  144POPC   C3A 2156   5.237   8.838   6.508
  144POPC   C4A 2157   5.212   8.489   6.251
  144POPC   C1B 2158   4.776   8.540   7.211
  144POPC   C2B 2159   4.799   8.680   6.784
  144POPC   C3B 2160   4.717   8.426   6.420
  144POPC   C4B 2161   4.539   8.522   6.028
  145POPC   NC3 2162   8.691   4.154   8.273
  145POPC   PO4 2163   8.381   4.684   8.080
  145POPC   GL1 2164   8.358   4.443   7.698
  145POPC   GL2 2165   8.638   4.421   7.473
  145POPC   C1A 2166   8.220   4.193   7.316
  145POPC   D2A 2167   8.326   4.291   6.903
  145POPC   C3A 2168   8.265   4.042   6.529
  145POPC   C4A 2169   8.137   4.178   6.091
  145POPC   C1B 2170   8.758   4.105   7.182
  145POPC   C2B 2171   8.701   3.938   6.793
  145POPC   C3B 2172   8.743   3.931   6.364
  145POPC   C4B 2173   8.688   4.266   6.131
  146POPC   NC3 2174   6.988   2.698   8.049
  146POPC   PO4 2175   7.616   2.499   8.101
  146POPC   GL1 2176   7.469   2.575   7.649
  146POPC   GL2 2177   7.133   2.731   7.564
  146POPC   C1A 2178   7.431   2.591   7.173
  146POPC   D2A 2179   7.668   2.701   6.809
  146POPC   C3A 2180   7.423   2.821   6.482
  146POPC   C4A 2181   7.629   2.637   6.193
  146POPC   C1B 2182   6.939   2.405   7.306
  146POPC   C2B 2183   6.860   2.262   6.893
  146POPC   C3B 2184   7.013   2.477   6.582
  146POPC   C4B 2185   7.022   2.630   6.217
  147POPC   NC3 2186   4.906  10.382   7.897
  147POPC   PO4 2187   4.886   9.770   8.203
  147POPC   GL1 2188   5.136   9.913   7.845
  147POPC   GL2 2189   4.892   9.997   7.577
  147POPC   C1A 2190   5.294   9.843   7.360
  147POPC   D2A 2191   5.042   9.996   7.015
  147POPC   C3A 2192   5.200   9.896   6.592
  147POPC   C4A 2193   5.025  10.034   6.193
  147POPC   C1B 2194   4.719  10.312   7.291
  147POPC   C2B 2195   4.561  10.330   6.918
  147POPC   C3B 2196   4.714  10.179   6.573
  147POPC   C4B 2197   4.682  10.427   6.218
  148POPC   NC3 2198   8.663   0.302   8.194
  148POPC   PO4 2199   7.968   0.096   8.045
  148POPC   GL1 2200   8.334   0.394   7.793
  148POPC   GL2 2201   8.711   0.363   7.688
  148POPC   C1A 2202   8.365   0.461   7.312
  148POPC   D2A 2203   8.177   0.478   6.873
  148POPC   C3A 2204   8.352   0.460   6.476
  148POPC   C4A 2205   8.358   0.103   6.208
  148POPC   C1B 2206   8.867   0.449   7.258
  148POPC   C2B 2207   8.697   0.505   6.879
  148POPC   C3B 2208   8.860   0.495   6.498
  148POPC   C4B 2209   8.964   0.628   6.132
  149POPC   NC3 2210   4.260   8.833   8.057
  149POPC   PO4 2211   4.599   8.247   8.079
  149POPC   GL1 2212   4.327   8.475   7.690
  149POPC   GL2 2213   4.005   8.728   7.620
  149POPC   C1A 2214   4.388   8.818   7.333
  149POPC   D2A 2215   4.201   8.975   6.963
  149POPC   C3A 2216   4.337   8.849   6.530
  149POPC   C4A 2217   4.279   8.960   6.081
  149POPC   C1B 2218   4.032   8.453   7.249
  149POPC   C2B 2219   4.308   8.470   6.880
  149POPC   C3B 2220   4.207   8.371   6.434
  149POPC   C4B 2221   4.041   8.524   6.035
  150POPC   NC3 2222   9.823  10.286   4.126
  150POPC   PO4 2223   9.188  10.278   3.710
  150POPC   GL1 2224   9.229  10.038   4.175
  150POPC   GL2 2225   9.502  10.005   4.368
  150POPC   C1A 2226   9.099  10.154   4.650
  150POPC   D2A 2227   9.035  10.388   5.065
  150POPC   C3A 2228   9.245  10.231   5.444
  150POPC   C4A 2229   9.114  10.239   5.861
  150POPC   C1B 2230   9.685  10.184   4.758
  150POPC   C2B 2231   9.838  10.084   5.165
  150POPC   C3B 2232   9.865  10.373   5.522
  150POPC   C4B 2233   9.625  10.331   5.857
  151POPC   NC3 2234   6.356   9.863   3.827
  151POPC   PO4 2235   6.870  10.082   3.691
  151POPC   GL1 2236   6.743  10.009   4.131
  151POPC   GL2 2237   6.582  10.335   4.210
  151POPC   C1A 2238   6.463   9.909   4.512
  151POPC   D2A 2239   6.290  10.008   4.938
  151POPC   C3A 2240   6.561   9.949   5.285
  151POPC   C4A 2241   6.694   9.953   5.717
  151POPC   C1B 2242   6.288  10.393   4.567
  151POPC   C2B 2243   6.243   0.040   4.974
  151POPC   C3B 2244   6.326  10.399   5.350
  151POPC   C4B 2245   6.329  10.318   5.773
  152POPC   NC3 2246   0.751   9.613   4.103
  152POPC   PO4 2247   1.233   9.208   3.846
  152POPC   GL1 2248   1.183   9.375   4.243
  152POPC   GL2 2249   1.435   9.602   4.189
  152POPC   C1A 2250   0.996   9.232   4.647
  152POPC   D2A 2251   1.024   9.013   5.062
  152POPC   C3A 2252   0.817   9.169   5.440
  152POPC   C4A 2253   1.012   9.388   5.785
  152POPC   C1B 2254   1.446   9.664   4.613
  152POPC   C2B 2255   1.384   9.384   4.942
  152POPC   C3B 2256   1.303   9.366   5.361
  152POPC   C4B 2257   1.516   9.518   5.748
  153POPC   NC3 2258   1.241  10.349   3.855
  153POPC   PO4 2259   0.643  10.014   3.794
  153POPC   GL1 2260   0.860  10.194   4.174
  153POPC   GL2 2261   1.101   9.968   4.222
  153POPC   C1A 2262   1.108  10.303   4.581
  153POPC   D2A 2263   0.900  10.318   4.963
  153POPC   C3A 2264   0.977  10.324   5.403
  153POPC   C4A 2265   1.030  10.418   5.838
  153POPC   C1B 2266   0.964   9.821   4.655
  153POPC   C2B 2267   1.138   9.844   5.041
  153POPC   C3B 2268   1.159   9.841   5.467
  153POPC   C4B 2269   1.516  10.036   5.656
  154POPC   NC3 2270   1.130   1.445   4.070
  154POPC   PO4 2271   1.607   0.879   3.905
  154POPC   GL1 2272   1.515   1.170   4.274
  154POPC   GL2 2273   1.202   1.064   4.435
  154POPC   C1A 2274   1.625   1.417   4.679
  154POPC   D2A 2275   1.367   1.477   5.075
  154POPC   C3A 2276   1.564   1.502   5.517
  154POPC   C4A 2277   1.577   1.273   5.941
  154POPC   C1B 2278   0.876   1.266   4.709
  154POPC   C2B 2279   0.824   1.415   5.093
  154POPC   C3B 2280   0.845   1.199   5.430
  154POPC   C4B 2281   1.105   1.226   5.742
  155POPC   NC3 2282   8.824   7.824   3.883
  155POPC   PO4 2283   8.294   8.307   3.856
  155POPC   GL1 2284   8.299   8.145   4.280
  155POPC   GL2 2285   8.605   7.948   4.315
  155POPC   C1A 2286   8.303   8.046   4.707
  155POPC   D2A 2287   8.563   8.143   5.035
  155POPC   C3A 2288   8.522   8.004   5.458
  155POPC   C4A 2289   8.215   8.025   5.785
  155POPC   C1B 2290   8.836   7.868   4.676
  155POPC   C2B 2291   8.828   7.706   5.097
  155POPC   C3B 2292   9.028   7.850   5.481
  155POPC   C4B 2293   8.843   7.845   5.895
  156POPC   NC3 2294   2.721   1.097   3.985
  156POPC   PO4 2295   3.091   1.584   3.636
  156POPC   GL1 2296   3.080   1.396   4.132
  156POPC   GL2 2297   2.750   1.428   4.340
  156POPC   C1A 2298   3.125   1.389   4.641
  156POPC   D2A 2299   3.020   1.070   4.996
  156POPC   C3A 2300   3.076   1.202   5.438
  156POPC   C4A 2301   2.892   1.061   5.842
  156POPC   C1B 2302   2.594   1.204   4.690
  156POPC   C2B 2303   2.593   1.366   5.116
  156POPC   C3B 2304   2.576   1.302   5.531
  156POPC   C4B 2305   2.326   0.991   5.632
  157POPC   NC3 2306   0.612   3.289   4.003
  157POPC   PO4 2307  10.454   3.393   3.848
  157POPC   GL1 2308   0.145   3.535   4.245
  157POPC   GL2 2309   0.379   3.311   4.444
  157POPC   C1A 2310   0.019   3.599   4.675
  157POPC   D2A 2311   0.274   3.445   5.000
  157POPC   C3A 2312   0.177   3.445   5.427
  157POPC   C4A 2313   0.330   3.129   5.722
  157POPC   C1B 2314   0.727   3.308   4.717
  157POPC   C2B 2315   0.797   3.505   5.076
  157POPC   C3B 2316   0.712   3.363   5.466
  157POPC   C4B 2317   0.516   3.641   5.759
  158POPC   NC3 2318   8.792   5.390   3.828
  158POPC   PO4 2319   8.877   6.053   3.925
  158POPC   GL1 2320   8.855   5.774   4.323
  158POPC   GL2 2321   8.534   5.718   4.247
  158POPC   C1A 2322   8.959   5.537   4.746
  158POPC   D2A 2323   8.728   5.517   5.126
  158POPC   C3A 2324   8.827   5.581   5.528
  158POPC   C4A 2325   8.554   5.369   5.820
  158POPC   C1B 2326   8.480   5.705   4.693
  158POPC   C2B 2327   8.244   5.675   5.063
  158POPC   C3B 2328   8.402   5.886   5.393
  158POPC   C4B 2329   8.481   5.866   5.811
  159POPC   NC3 2330   7.913   4.913   3.819
  159POPC   PO4 2331   8.438   4.768   3.917
  159POPC   GL1 2332   8.242   4.782   4.318
  159POPC   GL2 2333   7.877   4.764   4.339
  159POPC   C1A 2334   8.238   4.841   4.789
  159POPC   D2A 2335   8.116   4.643   5.205
  159POPC   C3A 2336   7.836   4.760   5.577
  159POPC   C4A 2337   7.939   4.661   6.026
  159POPC   C1B 2338   7.769   5.019   4.753
  159POPC   C2B 2339   7.878   5.149   5.221
  159POPC   C3B 2340   7.678   5.240   5.658
  159POPC   C4B 2341   7.690   5.312   6.124
  160POPC   NC3 2342   1.948  10.282   3.800
  160POPC   PO4 2343   1.528   0.247   3.877
  160POPC   GL1 2344   1.759   0.039   4.237
  160POPC   GL2 2345   1.535  10.265   4.293
  160POPC   C1A 2346   2.047  10.496   4.672
  160POPC   D2A 2347   2.207  10.410   5.140
  160POPC   C3A 2348   2.031   0.098   5.550
  160POPC   C4A 2349   2.175   0.097   6.015
  160POPC   C1B 2350   1.604  10.153   4.744
  160POPC   C2B 2351   1.851  10.016   5.120
  160POPC   C3B 2352   2.023  10.083   5.552
  160POPC   C4B 2353   1.864  10.226   5.967
  161POPC   NC3 2354   1.877   4.487   4.042
  161POPC   PO4 2355   1.837   3.832   3.803
  161POPC   GL1 2356   2.015   4.022   4.223
  161POPC   GL2 2357   1.760   4.089   4.456
  161POPC   C1A 2358   2.191   4.013   4.694
  161POPC   D2A 2359   1.959   4.126   5.079
  161POPC   C3A 2360   2.169   4.012   5.485
  161POPC   C4A 2361   2.199   3.945   5.942
  161POPC   C1B 2362   1.802   4.477   4.690
  161POPC   C2B 2363   1.790   4.667   5.089
  161POPC   C3B 2364   1.763   4.433   5.443
  161POPC   C4B 2365   1.767   4.173   5.769
  162POPC   NC3 2366   7.164   0.616   4.035
  162POPC   PO4 2367   7.665   0.327   3.765
  162POPC   GL1 2368   7.683   0.446   4.202
  162POPC   GL2 2369   7.409   0.250   4.340
  162POPC   C1A 2370   7.578   0.606   4.650
  162POPC   D2A 2371   7.482   0.450   5.096
  162POPC   C3A 2372   7.406   0.702   5.471
  162POPC   C4A 2373   7.426   0.673   5.946
  162POPC   C1B 2374   7.127   0.364   4.727
  162POPC   C2B 2375   7.018   0.229   5.142
  162POPC   C3B 2376   7.102   0.299   5.615
  162POPC   C4B 2377   7.012   0.410   6.068
  163POPC   NC3 2378   7.966   0.028   3.925
  163POPC   PO4 2379   8.612   0.145   3.767
  163POPC   GL1 2380   8.371   0.076   4.201
  163POPC   GL2 2381   8.226   0.438   4.146
  163POPC   C1A 2382   8.023   0.136   4.545
  163POPC   D2A 2383   7.814  10.402   4.897
  163POPC   C3A 2384   7.878   0.092   5.310
  163POPC   C4A 2385   7.628   0.276   5.629
  163POPC   C1B 2386   8.073   0.661   4.523
  163POPC   C2B 2387   7.985   0.458   4.942
  163POPC   C3B 2388   7.891   0.653   5.328
  163POPC   C4B 2389   7.889   0.713   5.748
  164POPC   NC3 2390   8.811  10.295   4.010
  164POPC   PO4 2391   8.748   9.667   3.921
  164POPC   GL1 2392   8.851   9.785   4.342
  164POPC   GL2 2393   8.656  10.069   4.418
  164POPC   C1A 2394   8.760   9.713   4.775
  164POPC   D2A 2395   8.839   9.943   5.097
  164POPC   C3A 2396   8.981   9.810   5.495
  164POPC   C4A 2397   8.776   9.880   5.863
  164POPC   C1B 2398   8.650  10.430   4.691
  164POPC   C2B 2399   8.514  10.445   5.116
  164POPC   C3B 2400   8.650  10.229   5.479
  164POPC   C4B 2401   8.621  10.344   5.884
  165POPC   NC3 2402   2.185   2.700   3.935
  165POPC   PO4 2403   1.586   2.691   3.718
  165POPC   GL1 2404   1.657   2.690   4.195
  165POPC   GL2 2405   1.962   2.738   4.374
  165POPC   C1A 2406   1.564   2.780   4.688
  165POPC   D2A 2407   1.771   2.783   5.115
  165POPC   C3A 2408   1.508   2.888   5.371
  165POPC   C4A 2409   1.554   2.800   5.737
  165POPC   C1B 2410   2.097   2.658   4.780
  165POPC   C2B 2411   2.348   2.469   5.068
  165POPC   C3B 2412   2.183   2.361   5.461
  165POPC   C4B 2413   2.029   2.636   5.760
  166POPC   NC3 2414   6.606   8.372   3.711
  166POPC   PO4 2415   6.125   8.865   3.862
  166POPC   GL1 2416   6.160   8.781   4.362
  166POPC   GL2 2417   6.531   8.798   4.515
  166POPC   C1A 2418   6.264   8.448   4.722
  166POPC   D2A 2419   6.513   8.559   5.099
  166POPC   C3A 2420   6.333   8.532   5.529
  166POPC   C4A 2421   6.186   8.173   5.793
  166POPC   C1B 2422   6.238   8.953   4.841
  166POPC   C2B 2423   6.210   9.033   5.271
  166POPC   C3B 2424   6.550   8.992   5.533
  166POPC   C4B 2425   6.601   8.981   5.975
  167POPC   NC3 2426  10.224   7.246   3.965
  167POPC   PO4 2427   9.800   6.811   3.821
  167POPC   GL1 2428   9.823   7.055   4.254
  167POPC   GL2 2429  10.163   7.158   4.443
  167POPC   C1A 2430   9.790   7.007   4.724
  167POPC   D2A 2431   9.966   6.876   5.115
  167POPC   C3A 2432  10.000   7.097   5.489
  167POPC   C4A 2433  10.057   6.996   5.887
  167POPC   C1B 2434  10.219   7.408   4.830
  167POPC   C2B 2435  10.408   7.209   5.211
  167POPC   C3B 2436  10.498   6.966   5.635
  167POPC   C4B 2437   0.013   7.051   6.120
  168POPC   NC3 2438   8.160   1.644   4.148
  168POPC   PO4 2439   8.193   0.993   3.887
  168POPC   GL1 2440   8.188   1.143   4.265
  168POPC   GL2 2441   7.826   1.180   4.248
  168POPC   C1A 2442   8.384   1.125   4.669
  168POPC   D2A 2443   8.200   0.903   5.006
  168POPC   C3A 2444   8.293   0.957   5.470
  168POPC   C4A 2445   8.188   1.095   5.913
  168POPC   C1B 2446   7.900   1.285   4.708
  168POPC   C2B 2447   7.945   1.299   5.169
  168POPC   C3B 2448   7.816   1.182   5.552
  168POPC   C4B 2449   7.583   1.513   5.747
  169POPC   NC3 2450   4.880   8.461   4.035
  169POPC   PO4 2451   4.772   9.175   3.893
  169POPC   GL1 2452   4.835   8.946   4.269
  169POPC   GL2 2453   4.559   8.723   4.333
  169POPC   C1A 2454   4.796   9.025   4.711
  169POPC   D2A 2455   4.622   8.916   5.083
  169POPC   C3A 2456   4.789   8.831   5.458
  169POPC   C4A 2457   4.964   8.693   5.843
  169POPC   C1B 2458   4.786   8.495   4.683
  169POPC   C2B 2459   4.927   8.502   5.111
  169POPC   C3B 2460   4.800   8.323   5.531
  169POPC   C4B 2461   4.916   8.182   5.956
  170POPC   NC3 2462   7.790   6.524   3.907
  170POPC   PO4 2463   7.566   7.055   4.061
  170POPC   GL1 2464   7.801   6.738   4.392
  170POPC   GL2 2465   8.039   6.474   4.343
  170POPC   C1A 2466   7.940   6.534   4.833
  170POPC   D2A 2467   7.727   6.364   5.207
  170POPC   C3A 2468   7.785   6.583   5.600
  170POPC   C4A 2469   8.027   6.559   5.958
  170POPC   C1B 2470   8.199   6.139   4.584
  170POPC   C2B 2471   8.340   6.184   4.975
  170POPC   C3B 2472   8.220   6.387   5.325
  170POPC   C4B 2473   8.029   6.123   5.663
  171POPC   NC3 2474   5.576   2.194   3.992
  171POPC   PO4 2475   5.293   1.647   3.797
  171POPC   GL1 2476   5.507   1.704   4.216
  171POPC   GL2 2477   5.846   1.857   4.268
  171POPC   C1A 2478   5.664   1.611   4.662
  171POPC   D2A 2479   5.829   1.732   5.056
  171POPC   C3A 2480   5.600   1.836   5.413
  171POPC   C4A 2481   5.718   1.626   5.771
  171POPC   C1B 2482   5.669   2.113   4.652
  171POPC   C2B 2483   5.768   2.243   5.093
  171POPC   C3B 2484   5.878   2.260   5.553
  171POPC   C4B 2485   5.636   2.365   5.942
  172POPC   NC3 2486   1.486   3.762   4.106
  172POPC   PO4 2487   0.947   3.455   3.745
  172POPC   GL1 2488   1.015   3.559   4.195
  172POPC   GL2 2489   1.047   3.229   4.335
  172POPC   C1A 2490   1.053   3.720   4.649
  172POPC   D2A 2491   1.258   3.763   5.084
  172POPC   C3A 2492   0.977   3.794   5.478
  172POPC   C4A 2493   1.005   3.578   5.871
  172POPC   C1B 2494   1.308   3.255   4.697
  172POPC   C2B 2495   1.197   3.211   5.113
  172POPC   C3B 2496   1.341   3.400   5.477
  172POPC   C4B 2497   1.401   3.255   5.879
  173POPC   NC3 2498   0.657   2.229   4.094
  173POPC   PO4 2499   0.748   2.873   4.145
  173POPC   GL1 2500   0.694   2.593   4.428
  173POPC   GL2 2501   0.357   2.548   4.421
  173POPC   C1A 2502   0.694   2.385   4.792
  173POPC   D2A 2503   0.514   2.478   5.160
  173POPC   C3A 2504   0.635   2.667   5.558
  173POPC   C4A 2505   0.392   2.469   5.839
  173POPC   C1B 2506   0.441   2.872   4.771
  173POPC   C2B 2507   0.427   2.985   5.210
  173POPC   C3B 2508   0.142   2.689   5.447
  173POPC   C4B 2509  10.474   2.783   5.846
  174POPC   NC3 2510   1.835   7.179   3.971
  174POPC   PO4 2511   2.505   7.202   3.904
  174POPC   GL1 2512   2.227   7.127   4.297
  174POPC   GL2 2513   1.921   7.315   4.440
  174POPC   C1A 2514   2.165   7.025   4.755
  174POPC   D2A 2515   2.127   7.269   5.137
  174POPC   C3A 2516   2.143   6.958   5.449
  174POPC   C4A 2517   2.072   6.884   5.865
  174POPC   C1B 2518   1.674   7.177   4.778
  174POPC   C2B 2519   1.690   7.002   5.187
  174POPC   C3B 2520   1.695   7.158   5.598
  174POPC   C4B 2521   1.673   7.406   5.962
  175POPC   NC3 2522   7.240   7.380   4.009
  175POPC   PO4 2523   6.769   7.953   3.872
  175POPC   GL1 2524   7.029   7.984   4.319
  175POPC   GL2 2525   7.404   8.002   4.377
  175POPC   C1A 2526   7.081   7.821   4.762
  175POPC   D2A 2527   7.247   7.775   5.212
  175POPC   C3A 2528   7.096   7.711   5.663
  175POPC   C4A 2529   7.071   7.371   5.986
  175POPC   C1B 2530   7.356   8.271   4.746
  175POPC   C2B 2531   7.403   8.397   5.175
  175POPC   C3B 2532   7.211   8.199   5.513
  175POPC   C4B 2533   7.253   8.135   5.932
  176POPC   NC3 2534   1.609   2.233   3.787
  176POPC   PO4 2535   1.521   1.582   3.865
  176POPC   GL1 2536   1.462   1.759   4.318
  176POPC   GL2 2537   1.193   1.596   4.546
  176POPC   C1A 2538   1.499   1.912   4.768
  176POPC   D2A 2539   1.418   1.989   5.180
  176POPC   C3A 2540   1.109   1.748   5.447
  176POPC   C4A 2541   1.250   1.663   5.907
  176POPC   C1B 2542   1.003   1.849   4.887
  176POPC   C2B 2543   0.946   2.183   5.178
  176POPC   C3B 2544   0.754   2.175   5.559
  176POPC   C4B 2545   0.971   2.093   5.909
  177POPC   NC3 2546   4.972   0.597   3.792
  177POPC   PO4 2547   4.391   0.591   4.046
  177POPC   GL1 2548   4.616   0.572   4.423
  177POPC   GL2 2549   4.867   0.355   4.240
  177POPC   C1A 2550   4.629   0.578   4.909
  177POPC   D2A 2551   4.658   0.363   5.280
  177POPC   C3A 2552   4.736   0.585   5.622
  177POPC   C4A 2553   4.780   0.253   5.851
  177POPC   C1B 2554   4.976   0.299   4.665
  177POPC   C2B 2555   5.104   0.482   5.063
  177POPC   C3B 2556   5.140   0.320   5.449
  177POPC   C4B 2557   5.292   0.399   5.820
  178POPC   NC3 2558   3.454   1.835   3.855
  178POPC   PO4 2559   2.921   1.853   4.091
  178POPC   GL1 2560   3.256   1.840   4.377
  178POPC   GL2 2561   3.566   2.004   4.336
  178POPC   C1A 2562   3.211   1.845   4.848
  178POPC   D2A 2563   3.397   1.948   5.219
  178POPC   C3A 2564   3.180   1.695   5.468
  178POPC   C4A 2565   2.944   1.596   5.821
  178POPC   C1B 2566   3.450   2.254   4.724
  178POPC   C2B 2567   3.608   2.421   5.103
  178POPC   C3B 2568   3.741   2.287   5.505
  178POPC   C4B 2569   3.474   2.027   5.724
  179POPC   NC3 2570   6.487   2.260   3.949
  179POPC   PO4 2571   6.743   1.620   3.904
  179POPC   GL1 2572   6.718   1.898   4.275
  179POPC   GL2 2573   6.362   1.890   4.298
  179POPC   C1A 2574   6.636   1.985   4.734
  179POPC   D2A 2575   6.759   1.834   5.145
  179POPC   C3A 2576   6.601   2.059   5.495
  179POPC   C4A 2577   6.607   1.790   5.826
  179POPC   C1B 2578   6.141   1.930   4.704
  179POPC   C2B 2579   6.231   2.034   5.156
  179POPC   C3B 2580   6.139   1.816   5.549
  179POPC   C4B 2581   6.196   1.499   5.929
  180POPC   NC3 2582   9.046   0.264   3.715
  180POPC   PO4 2583   9.412  10.479   4.155
  180POPC   GL1 2584   9.016   0.102   4.372
  180POPC   GL2 2585   8.773   0.354   4.257
  180POPC   C1A 2586   8.953   0.338   4.777
  180POPC   D2A 2587   9.166   0.375   5.167
  180POPC   C3A 2588   8.935   0.167   5.490
  180POPC   C4A 2589   8.730   0.321   5.826
  180POPC   C1B 2590   8.571   0.617   4.629
  180POPC   C2B 2591   8.509   0.488   5.086
  180POPC   C3B 2592   8.318   0.418   5.514
  180POPC   C4B 2593   8.332   0.578   5.957
  181POPC   NC3 2594  10.386   0.596   3.959
  181POPC   PO4 2595   9.724   0.536   3.722
  181POPC   GL1 2596   9.860   0.295   4.129
  181POPC   GL2 2597  10.111   0.438   4.329
  181POPC   C1A 2598   9.844   0.171   4.626
  181POPC   D2A 2599   9.695   0.447   4.954
  181POPC   C3A 2600   9.844   0.434   5.397
  181POPC   C4A 2601   9.986   0.296   5.815
  181POPC   C1B 2602  10.180   0.526   4.754
  181POPC   C2B 2603  10.193   0.690   5.149
  181POPC   C3B 2604  10.335   0.663   5.540
  181POPC   C4B 2605  10.398   0.699   5.962
  182POPC   NC3 2606   8.561   2.418   3.916
  182POPC   PO4 2607   9.038   2.890   3.937
  182POPC   GL1 2608   8.905   2.732   4.285
  182POPC   GL2 2609   8.578   2.871   4.278
  182POPC   C1A 2610   9.064   2.676   4.704
  182POPC   D2A 2611   9.017   2.870   5.082
  182POPC   C3A 2612   9.054   2.651   5.446
  182POPC   C4A 2613   8.911   2.894   5.751
  182POPC   C1B 2614   8.551   2.574   4.611
  182POPC   C2B 2615   8.657   2.513   5.036
  182POPC   C3B 2616   8.562   2.772   5.351
  182POPC   C4B 2617   8.505   2.621   5.741
  183POPC   NC3 2618   4.719  10.291   3.856
  183POPC   PO4 2619   5.275   0.156   3.876
  183POPC   GL1 2620   5.245  10.489   4.262
  183POPC   GL2 2621   5.069  10.199   4.193
  183POPC   C1A 2622   5.334  10.450   4.677
  183POPC   D2A 2623   5.057  10.455   5.040
  183POPC   C3A 2624   5.237  10.330   5.415
  183POPC   C4A 2625   5.049  10.341   5.788
  183POPC   C1B 2626   4.817  10.286   4.569
  183POPC   C2B 2627   4.773  10.038   4.960
  183POPC   C3B 2628   4.969   9.881   5.336
  183POPC   C4B 2629   4.769   9.912   5.751
  184POPC   NC3 2630   9.528   0.733   4.092
  184POPC   PO4 2631  10.088   0.970   4.009
  184POPC   GL1 2632   9.748   1.166   4.269
  184POPC   GL2 2633   9.353   1.124   4.327
  184POPC   C1A 2634   9.731   1.040   4.705
  184POPC   D2A 2635   9.719   0.910   5.114
  184POPC   C3A 2636   9.813   1.169   5.393
  184POPC   C4A 2637   9.539   1.323   5.687
  184POPC   C1B 2638   9.324   1.354   4.703
  184POPC   C2B 2639   9.388   1.332   5.138
  184POPC   C3B 2640   9.100   1.256   5.466
  184POPC   C4B 2641   9.030   1.478   5.829
  185POPC   NC3 2642   2.490   8.760   3.997
  185POPC   PO4 2643   2.898   8.228   3.733
  185POPC   GL1 2644   2.783   8.408   4.224
  185POPC   GL2 2645   2.439   8.496   4.418
  185POPC   C1A 2646   2.857   8.590   4.681
  185POPC   D2A 2647   2.971   8.719   5.103
  185POPC   C3A 2648   2.758   9.050   5.347
  185POPC   C4A 2649   2.842   8.931   5.780
  185POPC   C1B 2650   2.229   8.372   4.780
  185POPC   C2B 2651   2.445   8.557   5.096
  185POPC   C3B 2652   2.643   8.572   5.484
  185POPC   C4B 2653   2.541   8.399   5.879
  186POPC   NC3 2654   7.287  10.226   3.805
  186POPC   PO4 2655   6.936   0.227   4.131
  186POPC   GL1 2656   7.123  10.315   4.290
  186POPC   GL2 2657   7.265   9.940   4.218
  186POPC   C1A 2658   6.908  10.136   4.627
  186POPC   D2A 2659   6.704  10.338   4.975
  186POPC   C3A 2660   6.849  10.349   5.420
  186POPC   C4A 2661   6.824  10.435   5.847
  186POPC   C1B 2662   7.312   9.821   4.646
  186POPC   C2B 2663   7.238  10.053   5.013
  186POPC   C3B 2664   7.083   9.900   5.389
  186POPC   C4B 2665   7.204  10.099   5.764
  187POPC   NC3 2666   7.124   9.225   3.781
  187POPC   PO4 2667   7.572   9.485   4.080
  187POPC   GL1 2668   7.374   9.234   4.386
  187POPC   GL2 2669   7.050   9.246   4.283
  187POPC   C1A 2670   7.177   9.333   4.786
  187POPC   D2A 2671   7.324   9.563   5.108
  187POPC   C3A 2672   7.344   9.343   5.471
  187POPC   C4A 2673   7.183   9.564   5.763
  187POPC   C1B 2674   6.885   9.625   4.468
  187POPC   C2B 2675   6.843   9.697   4.937
  187POPC   C3B 2676   6.878   9.341   5.285
  187POPC   C4B 2677   7.020   9.056   5.696
  188POPC   NC3 2678   9.181   8.859   3.874
  188POPC   PO4 2679   9.755   8.546   3.803
  188POPC   GL1 2680   9.676   8.791   4.176
  188POPC   GL2 2681   9.396   8.647   4.319
  188POPC   C1A 2682   9.758   8.811   4.638
  188POPC   D2A 2683   9.631   8.905   5.063
  188POPC   C3A 2684   9.883   8.832   5.434
  188POPC   C4A 2685   9.770   8.903   5.856
  188POPC   C1B 2686   9.225   8.822   4.732
  188POPC   C2B 2687   9.197   8.677   5.170
  188POPC   C3B 2688   9.289   8.738   5.612
  188POPC   C4B 2689   8.964   8.673   5.916
  189POPC   NC3 2690   3.564  10.044   3.820
  189POPC   PO4 2691   2.891   9.795   3.857
  189POPC   GL1 2692   3.076   9.890   4.274
  189POPC   GL2 2693   3.428   9.932   4.292
  189POPC   C1A 2694   2.984   9.853   4.719
  189POPC   D2A 2695   3.079  10.074   5.087
  189POPC   C3A 2696   3.023   9.881   5.478
  189POPC   C4A 2697   3.230   9.838   5.866
  189POPC   C1B 2698   3.395  10.155   4.669
  189POPC   C2B 2699   3.602  10.144   5.074
  189POPC   C3B 2700   3.540  10.187   5.509
  189POPC   C4B 2701   3.837   0.014   5.737
  190POPC   NC3 2702   8.353   9.420   3.856
  190POPC   PO4 2703   8.340  10.112   3.950
  190POPC   GL1 2704   8.381   9.663   4.280
  190POPC   GL2 2705   8.702   9.316   4.256
  190POPC   C1A 2706   8.418   9.351   4.639
  190POPC   D2A 2707   8.620   9.264   5.052
  190POPC   C3A 2708   8.575   9.575   5.317
  190POPC   C4A 2709   8.634   9.438   5.717
  190POPC   C1B 2710   8.933   9.254   4.642
  190POPC   C2B 2711   9.134   9.388   5.031
  190POPC   C3B 2712   9.043   9.303   5.454
  190POPC   C4B 2713   9.103   9.479   5.892
  191POPC   NC3 2714   2.383   0.545   3.763
  191POPC   PO4 2715   2.981   0.819   3.707
  191POPC   GL1 2716   2.735   0.569   4.117
  191POPC   GL2 2717   2.868   0.227   4.150
  191POPC   C1A 2718   2.682   0.683   4.643
  191POPC   D2A 2719   2.548   0.836   5.078
  191POPC   C3A 2720   2.759   0.814   5.405
  191POPC   C4A 2721   2.678   0.601   5.750
  191POPC   C1B 2722   2.530   0.238   4.488
  191POPC   C2B 2723   2.425   0.325   4.915
  191POPC   C3B 2724   2.468   0.336   5.356
  191POPC   C4B 2725   2.587   0.099   5.726
  192POPC   NC3 2726   8.789   6.523   3.868
  192POPC   PO4 2727   8.166   6.792   3.965
  192POPC   GL1 2728   8.503   6.648   4.277
  192POPC   GL2 2729   8.526   6.276   4.233
  192POPC   C1A 2730   8.470   6.622   4.740
  192POPC   D2A 2731   8.732   6.517   5.123
  192POPC   C3A 2732   8.752   6.732   5.549
  192POPC   C4A 2733   8.948   6.677   5.992
  192POPC   C1B 2734   8.739   6.167   4.633
  192POPC   C2B 2735   8.808   6.007   5.056
  192POPC   C3B 2736   8.804   6.160   5.491
  192POPC   C4B 2737   8.469   6.372   5.752
  193POPC   NC3 2738   9.734   8.081   3.874
  193POPC   PO4 2739   9.063   8.221   3.979
  193POPC   GL1 2740   9.205   8.183   4.371
  193POPC   GL2 2741   9.550   8.107   4.355
  193POPC   C1A 2742   9.451   8.364   4.770
  193POPC   D2A 2743   9.584   8.103   5.123
  193POPC   C3A 2744   9.427   8.227   5.537
  193POPC   C4A 2745   9.184   8.201   5.931
  193POPC   C1B 2746   9.347   7.866   4.723
  193POPC   C2B 2747   9.345   7.642   5.120
  193POPC   C3B 2748   9.551   7.706   5.538
  193POPC   C4B 2749   9.872   7.670   5.885
  194POPC   NC3 2750   1.207   2.906   3.916
  194POPC   PO4 2751   0.992   2.217   3.763
  194POPC   GL1 2752   1.169   2.368   4.199
  194POPC   GL2 2753   1.182   2.705   4.368
  194POPC   C1A 2754   1.196   2.319   4.687
  194POPC   D2A 2755   1.355   2.491   5.075
  194POPC   C3A 2756   1.183   2.469   5.535
  194POPC   C4A 2757   1.348   2.415   5.970
  194POPC   C1B 2758   1.012   2.832   4.759
  194POPC   C2B 2759   0.941   2.773   5.173
  194POPC   C3B 2760   1.055   2.968   5.567
  194POPC   C4B 2761   0.820   3.068   5.879
  195POPC   NC3 2762   6.739   1.192   3.682
  195POPC   PO4 2763   7.395   1.079   3.876
  195POPC   GL1 2764   7.097   1.102   4.190
  195POPC   GL2 2765   7.093   1.401   4.380
  195POPC   C1A 2766   6.980   0.855   4.597
  195POPC   D2A 2767   7.073   0.931   5.003
  195POPC   C3A 2768   6.923   0.689   5.310
  195POPC   C4A 2769   6.811   0.736   5.710
  195POPC   C1B 2770   7.429   1.103   4.580
  195POPC   C2B 2771   7.587   0.977   5.002
  195POPC   C3B 2772   7.374   1.186   5.327
  195POPC   C4B 2773   7.278   1.109   5.735
  196POPC   NC3 2774   1.881   1.282   3.931
  196POPC   PO4 2775   2.423   1.592   4.007
  196POPC   GL1 2776   2.210   1.427   4.369
  196POPC   GL2 2777   2.039   1.108   4.372
  196POPC   C1A 2778   2.111   1.337   4.809
  196POPC   D2A 2779   2.115   1.103   5.152
  196POPC   C3A 2780   2.082   1.407   5.458
  196POPC   C4A 2781   2.099   1.391   5.891
  196POPC   C1B 2782   1.755   0.941   4.667
  196POPC   C2B 2783   1.634   0.910   5.102
  196POPC   C3B 2784   1.757   1.008   5.542
  196POPC   C4B 2785   1.939   0.930   5.971
  197POPC   NC3 2786   3.405   9.162   4.037
  197POPC   PO4 2787   4.067   9.160   4.172
  197POPC   GL1 2788   3.745   9.152   4.431
  197POPC   GL2 2789   3.657   9.480   4.343
  197POPC   C1A 2790   3.707   9.200   4.865
  197POPC   D2A 2791   3.710   9.189   5.301
  197POPC   C3A 2792   3.893   9.575   5.425
  197POPC   C4A 2793   3.725   9.766   5.776
  197POPC   C1B 2794   3.369   9.534   4.669
  197POPC   C2B 2795   3.415   9.667   5.096
  197POPC   C3B 2796   3.371   9.516   5.492
  197POPC   C4B 2797   2.999   9.403   5.689
  198POPC   NC3 2798   8.364  10.312   3.504
  198POPC   PO4 2799   7.753  10.139   3.819
  198POPC   GL1 2800   7.940  10.186   4.268
  198POPC   GL2 2801   7.642  10.285   4.396
  198POPC   C1A 2802   8.218  10.171   4.636
  198POPC   D2A 2803   8.312   9.928   5.013
  198POPC   C3A 2804   8.135  10.123   5.392
  198POPC   C4A 2805   8.129  10.434   5.749
  198POPC   C1B 2806   7.793   9.921   4.653
  198POPC   C2B 2807   7.764   9.855   5.054
  198POPC   C3B 2808   7.599  10.053   5.401
  198POPC   C4B 2809   7.785  10.035   5.783
  199POPC   NC3 2810   4.848   1.802   3.735
  199POPC   PO4 2811   4.487   2.237   3.912
  199POPC   GL1 2812   4.691   1.913   4.217
  199POPC   GL2 2813   4.978   1.662   4.227
  199POPC   C1A 2814   4.651   1.700   4.635
  199POPC   D2A 2815   4.875   1.712   5.039
  199POPC   C3A 2816   4.675   1.642   5.443
  199POPC   C4A 2817   4.669   1.863   5.846
  199POPC   C1B 2818   5.190   1.805   4.617
  199POPC   C2B 2819   5.283   2.016   5.033
  199POPC   C3B 2820   4.985   2.077   5.413
  199POPC   C4B 2821   5.109   2.199   5.839
  200POPC   NC3 2822   2.514   2.027   4.184
  200POPC   PO4 2823   2.071   2.268   3.767
  200POPC   GL1 2824   1.932   2.204   4.186
  200POPC   GL2 2825   1.960   1.840   4.166
  200POPC   C1A 2826   1.745   2.314   4.590
  200POPC   D2A 2827   1.865   2.252   5.040
  200POPC   C3A 2828   1.677   2.359   5.451
  200POPC   C4A 2829   1.457   2.040   5.673
  200POPC   C1B 2830   1.977   1.829   4.638
  200POPC   C2B 2831   1.856   1.716   5.096
  200POPC   C3B 2832   1.938   1.888   5.547
  200POPC   C4B 2833   1.763   1.747   5.977
  201POPC   NC3 2834   2.997   3.545   4.058
  201POPC   PO4 2835   2.440   3.187   3.874
  201POPC   GL1 2836   2.364   3.301   4.284
  201POPC   GL2 2837   2.714   3.326   4.430
  201POPC   C1A 2838   2.295   3.486   4.695
  201POPC   D2A 2839   2.610   3.379   5.026
  201POPC   C3A 2840   2.537   3.311   5.440
  201POPC   C4A 2841   2.826   3.238   5.796
  201POPC   C1B 2842   2.717   3.750   4.707
  201POPC   C2B 2843   2.558   3.874   5.175
  201POPC   C3B 2844   2.618   3.767   5.677
  201POPC   C4B 2845   2.882   3.664   6.080
  202POPC   NC3 2846   5.202   9.385   3.868
  202POPC   PO4 2847   4.709   9.836   3.958
  202POPC   GL1 2848   4.876   9.701   4.356
  202POPC   GL2 2849   5.074   9.396   4.353
  202POPC   C1A 2850   4.940   9.578   4.809
  202POPC   D2A 2851   4.668   9.421   5.109
  202POPC   C3A 2852   4.763   9.429   5.532
  202POPC   C4A 2853   4.693   9.130   5.840
  202POPC   C1B 2854   5.276   9.200   4.708
  202POPC   C2B 2855   5.113   9.072   5.144
  202POPC   C3B 2856   5.173   9.107   5.620
  202POPC   C4B 2857   5.202   9.091   6.074
  203POPC   NC3 2858   9.340   2.543   4.085
  203POPC   PO4 2859   9.803   1.929   4.000
  203POPC   GL1 2860   9.651   2.230   4.326
  203POPC   GL2 2861   9.662   2.575   4.463
  203POPC   C1A 2862   9.337   2.247   4.661
  203POPC   D2A 2863   9.226   2.276   5.117
  203POPC   C3A 2864   9.626   2.275   5.389
  203POPC   C4A 2865   9.722   2.358   5.819
  203POPC   C1B 2866   9.682   2.528   4.896
  203POPC   C2B 2867   9.489   2.725   5.176
  203POPC   C3B 2868   9.588   2.767   5.554
  203POPC   C4B 2869   9.354   2.705   5.894
  204POPC   NC3 2870   2.228   5.119   4.073
  204POPC   PO4 2871   1.581   4.902   3.984
  204POPC   GL1 2872   1.721   5.156   4.307
  204POPC   GL2 2873   1.930   4.873   4.396
  204POPC   C1A 2874   1.704   5.431   4.720
  204POPC   D2A 2875   1.875   5.420   5.160
  204POPC   C3A 2876   1.623   5.417   5.549
  204POPC   C4A 2877   1.789   5.137   5.893
  204POPC   C1B 2878   2.062   5.052   4.791
  204POPC   C2B 2879   2.194   4.963   5.211
  204POPC   C3B 2880   2.050   4.837   5.565
  204POPC   C4B 2881   2.175   4.467   5.731
  205POPC   NC3 2882   2.212   5.744   3.645
  205POPC   PO4 2883   1.607   5.738   3.861
  205POPC   GL1 2884   1.959   5.577   4.119
  205POPC   GL2 2885   2.145   5.877   4.152
  205POPC   C1A 2886   2.171   5.550   4.558
  205POPC   D2A 2887   2.104   5.789   4.917
  205POPC   C3A 2888   2.250   5.749   5.372
  205POPC   C4A 2889   2.149   5.354   5.591
  205POPC   C1B 2890   1.801   5.916   4.491
  205POPC   C2B 2891   1.685   6.057   4.909
  205POPC   C3B 2892   1.764   5.946   5.334
  205POPC   C4B 2893   1.900   5.813   5.745
  206POPC   NC3 2894   5.695   0.589   3.948
  206POPC   PO4 2895   6.051   0.080   3.959
  206POPC   GL1 2896   5.845   0.031   4.360
  206POPC   GL2 2897   5.646   0.296   4.346
  206POPC   C1A 2898   5.790   0.106   4.790
  206POPC   D2A 2899   5.509   0.182   5.102
  206POPC   C3A 2900   5.647   0.173   5.486
  206POPC   C4A 2901   6.057   0.230   5.639
  206POPC   C1B 2902   5.475   0.513   4.685
  206POPC   C2B 2903   5.536   0.752   5.050
  206POPC   C3B 2904   5.387   0.784   5.465
  206POPC   C4B 2905   5.721   0.632   5.691
  207POPC   NC3 2906   6.364   1.328   4.018
  207POPC   PO4 2907   6.747   0.797   3.946
  207POPC   GL1 2908   6.616   1.066   4.337
  207POPC   GL2 2909   6.251   1.049   4.434
  207POPC   C1A 2910   6.609   1.192   4.777
  207POPC   D2A 2911   6.540   1.014   5.182
  207POPC   C3A 2912   6.870   1.176   5.438
  207POPC   C4A 2913   6.854   1.353   5.836
  207POPC   C1B 2914   6.115   1.378   4.714
  207POPC   C2B 2915   6.311   1.537   5.079
  207POPC   C3B 2916   6.451   1.437   5.478
  207POPC   C4B 2917   6.433   1.078   5.741
  208POPC   NC3 2918   7.061   3.001   3.599
  208POPC   PO4 2919   6.643   2.699   3.980
  208POPC   GL1 2920   6.971   2.697   4.279
  208POPC   GL2 2921   7.022   2.323   4.222
  208POPC   C1A 2922   7.213   2.911   4.654
  208POPC   D2A 2923   7.098   2.992   5.096
  208POPC   C3A 2924   7.282   2.988   5.522
  208POPC   C4A 2925   7.233   3.048   6.004
  208POPC   C1B 2926   7.322   2.433   4.525
  208POPC   C2B 2927   7.299   2.515   4.972
  208POPC   C3B 2928   7.434   2.494   5.409
  208POPC   C4B 2929   7.309   2.573   5.807
  209POPC   NC3 2930   9.872   3.736   3.632
  209POPC   PO4 2931  10.356   4.079   3.868
  209POPC   GL1 2932  10.198   4.166   4.255
  209POPC   GL2 2933  10.320   4.420   4.367
  209POPC   C1A 2934   9.962   4.153   4.634
  209POPC   D2A 2935   9.739   4.319   4.992
  209POPC   C3A 2936   9.920   4.085   5.312
  209POPC   C4A 2937   9.937   4.146   5.711
  209POPC   C1B 2938  10.469   4.116   4.689
  209POPC   C2B 2939  10.395   3.943   5.088
  209POPC   C3B 2940  10.400   4.234   5.424
  209POPC   C4B 2941  10.357   4.415   5.794
  210POPC   NC3 2942   7.967   3.222   3.959
  210POPC   PO4 2943   8.194   3.731   4.027
  210POPC   GL1 2944   8.136   3.460   4.396
  210POPC   GL2 2945   8.090   3.072   4.460
  210POPC   C1A 2946   8.178   3.440   4.845
  210POPC   D2A 2947   8.101   3.148   5.194
  210POPC   C3A 2948   7.965   3.364   5.571
  210POPC   C4A 2949   7.882   3.741   5.855
  210POPC   C1B 2950   7.731   3.223   4.776
  210POPC   C2B 2951   7.575   3.319   5.236
  210POPC   C3B 2952   7.477   3.434   5.703
  210POPC   C4B 2953   7.604   3.414   6.158
  211POPC   NC3 2954   0.335   8.929   3.993
  211POPC   PO4 2955   0.607   8.349   3.923
  211POPC   GL1 2956   0.531   8.524   4.305
  211POPC   GL2 2957   0.176   8.599   4.347
  211POPC   C1A 2958   0.445   8.358   4.704
  211POPC   D2A 2959   0.456   8.089   5.037
  211POPC   C3A 2960   0.428   8.326   5.403
  211POPC   C4A 2961   0.516   8.561   5.764
  211POPC   C1B 2962   0.414   8.902   4.643
  211POPC   C2B 2963   0.473   9.094   5.033
  211POPC   C3B 2964   0.376   8.884   5.400
  211POPC   C4B 2965   0.173   8.965   5.776
  212POPC   NC3 2966   2.335   6.768   3.899
  212POPC   PO4 2967   1.691   6.731   3.948
  212POPC   GL1 2968   1.769   6.824   4.360
  212POPC   GL2 2969   2.080   6.627   4.362
  212POPC   C1A 2970   1.768   6.671   4.784
  212POPC   D2A 2971   1.764   6.479   5.173
  212POPC   C3A 2972   1.742   6.641   5.579
  212POPC   C4A 2973   1.861   6.437   5.997
  212POPC   C1B 2974   2.114   6.282   4.691
  212POPC   C2B 2975   2.192   6.221   5.142
  212POPC   C3B 2976   2.100   6.258   5.573
  212POPC   C4B 2977   2.371   6.424   5.881
  213POPC   NC3 2978  10.108   4.477   3.855
  213POPC   PO4 2979   9.978   5.142   3.688
  213POPC   GL1 2980   9.986   4.901   4.125
  213POPC   GL2 2981  10.307   4.938   4.231
  213POPC   C1A 2982   9.997   4.706   4.605
  213POPC   D2A 2983  10.215   4.483   4.988
  213POPC   C3A 2984  10.011   4.575   5.397
  213POPC   C4A 2985   9.870   4.630   5.837
  213POPC   C1B 2986  10.280   5.138   4.637
  213POPC   C2B 2987  10.167   4.991   5.043
  213POPC   C3B 2988  10.063   5.064   5.474
  213POPC   C4B 2989  10.242   4.938   5.839
  214POPC   NC3 2990   3.350   2.580   3.798
  214POPC   PO4 2991   3.178   3.145   4.143
  214POPC   GL1 2992   3.477   2.799   4.267
  214POPC   GL2 2993   3.327   2.484   4.305
  214POPC   C1A 2994   3.752   2.723   4.652
  214POPC   D2A 2995   3.865   2.864   5.086
  214POPC   C3A 2996   3.703   2.796   5.519
  214POPC   C4A 2997   3.605   2.652   5.952
  214POPC   C1B 2998   3.263   2.726   4.731
  214POPC   C2B 2999   3.280   2.807   5.176
  214POPC   C3B 3000   3.214   2.631   5.600
  214POPC   C4B 3001   3.106   2.829   5.990
  215POPC   NC3 3002   1.510   8.835   3.812
  215POPC   PO4 3003   2.132   9.193   3.850
  215POPC   GL1 3004   2.041   8.926   4.197
  215POPC   GL2 3005   1.783   8.664   4.222
  215POPC   C1A 3006   2.057   8.829   4.632
  215POPC   D2A 3007   1.896   8.684   5.041
  215POPC   C3A 3008   2.098   8.739   5.418
  215POPC   C4A 3009   2.301   8.827   5.775
  215POPC   C1B 3010   1.681   8.451   4.635
  215POPC   C2B 3011   1.692   8.168   4.978
  215POPC   C3B 3012   1.876   8.212   5.371
  215POPC   C4B 3013   2.045   8.360   5.757
  216POPC   NC3 3014   0.457   9.483   3.689
  216POPC   PO4 3015  10.410   9.022   3.778
  216POPC   GL1 3016  10.487   9.149   4.269
  216POPC   GL2 3017   0.345   9.306   4.331
  216POPC   C1A 3018   0.033   9.262   4.737
  216POPC   D2A 3019   0.193   9.564   5.051
  216POPC   C3A 3020   0.321   9.392   5.439
  216POPC   C4A 3021   0.040   9.518   5.738
  216POPC   C1B 3022   0.554   9.483   4.710
  216POPC   C2B 3023   0.723   9.565   5.157
  216POPC   C3B 3024   0.678   9.737   5.656
  216POPC   C4B 3025   0.753   9.667   6.158
  217POPC   NC3 3026   4.167   7.912   3.904
  217POPC   PO4 3027   3.663   8.280   3.922
  217POPC   GL1 3028   3.802   7.995   4.282
  217POPC   GL2 3029   4.175   7.954   4.413
  217POPC   C1A 3030   3.783   7.804   4.711
  217POPC   D2A 3031   3.799   8.036   5.108
  217POPC   C3A 3032   3.882   7.814   5.506
  217POPC   C4A 3033   4.155   7.733   5.865
  217POPC   C1B 3034   4.318   8.096   4.848
  217POPC   C2B 3035   4.317   7.964   5.281
  217POPC   C3B 3036   4.628   7.845   5.627
  217POPC   C4B 3037   4.808   7.680   6.036
  218POPC   NC3 3038   0.610   7.075   4.019
  218POPC   PO4 3039   0.050   7.126   3.660
  218POPC   GL1 3040   0.153   7.156   4.202
  218POPC   GL2 3041   0.415   7.437   4.326
  218POPC   C1A 3042   0.159   7.180   4.687
  218POPC   D2A 3043   0.409   7.319   5.065
  218POPC   C3A 3044   0.298   7.362   5.508
  218POPC   C4A 3045   0.277   7.440   5.967
  218POPC   C1B 3046   0.687   7.174   4.649
  218POPC   C2B 3047   0.874   7.040   5.040
  218POPC   C3B 3048   0.806   7.264   5.403
  218POPC   C4B 3049   0.647   7.130   5.796
  219POPC   NC3 3050   0.878   0.595   4.150
  219POPC   PO4 3051   0.313   0.461   3.805
  219POPC   GL1 3052   0.433   0.341   4.222
  219POPC   GL2 3053   0.140   0.404   4.348
  219POPC   C1A 3054   0.516   0.450   4.683
  219POPC   D2A 3055   0.716   0.390   5.079
  219POPC   C3A 3056   0.754   0.672   5.408
  219POPC   C4A 3057   0.711   0.451   5.793
  219POPC   C1B 3058   0.068   0.173   4.673
  219POPC   C2B 3059   0.085   0.360   5.051
  219POPC   C3B 3060   0.324   0.380   5.402
  219POPC   C4B 3061   0.173   0.322   5.761
  220POPC   NC3 3062   6.279   2.873   4.192
  220POPC   PO4 3063   6.018   2.299   4.022
  220POPC   GL1 3064   6.206   2.369   4.406
  220POPC   GL2 3065   6.550   2.419   4.407
  220POPC   C1A 3066   6.323   2.420   4.842
  220POPC   D2A 3067   6.484   2.691   5.142
  220POPC   C3A 3068   6.329   2.553   5.538
  220POPC   C4A 3069   6.281   2.732   5.984
  220POPC   C1B 3070   6.843   2.448   4.712
  220POPC   C2B 3071   6.841   2.334   5.106
  220POPC   C3B 3072   6.928   2.607   5.410
  220POPC   C4B 3073   6.770   2.572   5.792
  221POPC   NC3 3074   1.739   8.171   4.056
  221POPC   PO4 3075   1.565   7.537   3.963
  221POPC   GL1 3076   1.996   7.743   4.195
  221POPC   GL2 3077   1.991   8.051   4.462
  221POPC   C1A 3078   2.249   7.657   4.634
  221POPC   D2A 3079   2.197   7.913   5.011
  221POPC   C3A 3080   2.132   7.710   5.407
  221POPC   C4A 3081   2.157   7.424   5.751
  221POPC   C1B 3082   1.739   7.748   4.660
  221POPC   C2B 3083   1.741   7.593   5.063
  221POPC   C3B 3084   1.622   7.656   5.466
  221POPC   C4B 3085   1.815   7.893   5.773
  222POPC   NC3 3086   1.067   7.804   3.830
  222POPC   PO4 3087   1.371   8.441   3.996
  222POPC   GL1 3088   1.307   8.234   4.353
  222POPC   GL2 3089   1.367   7.897   4.247
  222POPC   C1A 3090   1.152   8.269   4.777
  222POPC   D2A 3091   0.947   8.201   5.175
  222POPC   C3A 3092   1.278   8.261   5.478
  222POPC   C4A 3093   1.529   8.304   5.867
  222POPC   C1B 3094   1.235   7.789   4.615
  222POPC   C2B 3095   1.292   7.829   5.031
  222POPC   C3B 3096   1.111   7.780   5.402
  222POPC   C4B 3097   1.278   7.859   5.784
  223POPC   NC3 3098   0.224   7.942   3.877
  223POPC   PO4 3099   0.727   7.847   3.513
  223POPC   GL1 3100   0.659   7.868   4.112
  223POPC   GL2 3101   0.340   7.990   4.350
  223POPC   C1A 3102   0.745   7.902   4.612
  223POPC   D2A 3103   0.810   7.629   4.990
  223POPC   C3A 3104   0.609   7.764   5.388
  223POPC   C4A 3105   0.765   8.082   5.691
  223POPC   C1B 3106   0.244   7.722   4.739
  223POPC   C2B 3107   0.086   7.717   5.181
  223POPC   C3B 3108   0.159   7.833   5.630
  223POPC   C4B 3109   0.132   8.223   5.838
  224POPC   NC3 3110  10.185   3.701   4.066
  224POPC   PO4 3111   9.814   3.272   3.634
  224POPC   GL1 3112   9.871   3.203   4.144
  224POPC   GL2 3113  10.216   3.224   4.262
  224POPC   C1A 3114   9.915   3.372   4.638
  224POPC   D2A 3115  10.205   3.390   5.031
  224POPC   C3A 3116  10.159   3.615   5.439
  224POPC   C4A 3117  10.029   3.686   5.874
  224POPC   C1B 3118  10.471   3.068   4.591
  224POPC   C2B 3119  10.458   2.939   5.018
  224POPC   C3B 3120  10.342   3.081   5.440
  224POPC   C4B 3121  10.352   3.286   5.838
  225POPC   NC3 3122   1.860   0.521   4.053
  225POPC   PO4 3123   2.262   0.946   3.941
  225POPC   GL1 3124   2.253   0.648   4.328
  225POPC   GL2 3125   1.887   0.463   4.524
  225POPC   C1A 3126   2.202   0.765   4.741
  225POPC   D2A 3127   1.962   0.515   5.012
  225POPC   C3A 3128   2.062   0.633   5.390
  225POPC   C4A 3129   2.185   0.528   5.780
  225POPC   C1B 3130   1.566   0.168   4.693
  225POPC   C2B 3131   1.684   0.050   5.111
  225POPC   C3B 3132   1.610   0.415   5.364
  225POPC   C4B 3133   1.649   0.554   5.766
  226POPC   NC3 3134   7.203   1.534   3.879
  226POPC   PO4 3135   7.844   1.826   3.828
  226POPC   GL1 3136   7.579   1.634   4.207
  226POPC   GL2 3137   7.315   1.885   4.311
  226POPC   C1A 3138   7.485   1.605   4.703
  226POPC   D2A 3139   7.539   1.639   5.179
  226POPC   C3A 3140   7.158   1.641   5.476
  226POPC   C4A 3141   7.139   1.763   5.906
  226POPC   C1B 3142   7.148   2.005   4.750
  226POPC   C2B 3143   7.262   2.063   5.199
  226POPC   C3B 3144   7.069   2.166   5.614
  226POPC   C4B 3145   6.870   2.152   6.058
  227POPC   NC3 3146   7.933   8.017   3.953
  227POPC   PO4 3147   8.421   7.569   3.989
  227POPC   GL1 3148   8.172   7.653   4.339
  227POPC   GL2 3149   7.895   7.885   4.433
  227POPC   C1A 3150   8.078   7.566   4.769
  227POPC   D2A 3151   8.177   7.797   5.142
  227POPC   C3A 3152   8.132   7.585   5.537
  227POPC   C4A 3153   7.933   7.579   5.922
  227POPC   C1B 3154   7.629   7.816   4.800
  227POPC   C2B 3155   7.703   7.971   5.208
  227POPC   C3B 3156   7.630   7.894   5.635
  227POPC   C4B 3157   7.751   8.087   6.034
  228POPC   NC3 3158   4.345   2.659   3.851
  228POPC   PO4 3159   3.777   2.275   3.865
  228POPC   GL1 3160   3.890   2.394   4.274
  228POPC   GL2 3161   4.236   2.486   4.329
  228POPC   C1A 3162   3.949   2.264   4.711
  228POPC   D2A 3163   4.123   2.384   5.122
  228POPC   C3A 3164   4.183   2.594   5.495
  228POPC   C4A 3165   4.075   2.486   5.881
  228POPC   C1B 3166   4.266   2.686   4.746
  228POPC   C2B 3167   4.370   2.907   5.142
  228POPC   C3B 3168   4.355   3.065   5.583
  228POPC   C4B 3169   4.495   2.852   5.984
  229POPC   NC3 3170   9.676   5.374   3.951
  229POPC   PO4 3171   9.133   5.102   3.647
  229POPC   GL1 3172   9.252   4.944   4.189
  229POPC   GL2 3173   9.538   5.066   4.313
  229POPC   C1A 3174   9.179   5.066   4.665
  229POPC   D2A 3175   9.335   5.278   5.076
  229POPC   C3A 3176   9.158   5.174   5.537
  229POPC   C4A 3177   9.053   5.186   6.010
  229POPC   C1B 3178   9.707   5.126   4.716
  229POPC   C2B 3179   9.678   4.870   5.093
  229POPC   C3B 3180   9.539   4.814   5.505
  229POPC   C4B 3181   9.398   4.782   5.953
  230POPC   NC3 3182   7.961   7.223   3.904
  230POPC   PO4 3183   7.523   7.741   3.929
  230POPC   GL1 3184   7.641   7.469   4.339
  230POPC   GL2 3185   7.937   7.222   4.399
  230POPC   C1A 3186   7.622   7.299   4.788
  230POPC   D2A 3187   7.770   7.450   5.208
  230POPC   C3A 3188   7.545   7.387   5.633
  230POPC   C4A 3189   7.604   7.192   6.069
  230POPC   C1B 3190   8.096   7.017   4.770
  230POPC   C2B 3191   8.026   6.903   5.241
  230POPC   C3B 3192   7.972   7.074   5.696
  230POPC   C4B 3193   8.130   7.148   6.139
  231POPC   NC3 3194  10.436   6.360   3.929
  231POPC   PO4 3195   9.948   6.062   4.079
  231POPC   GL1 3196  10.194   6.294   4.371
  231POPC   GL2 3197  10.183   6.658   4.295
  231POPC   C1A 3198  10.328   6.296   4.803
  231POPC   D2A 3199  10.056   6.336   5.138
  231POPC   C3A 3200  10.174   6.085   5.478
  231POPC   C4A 3201  10.166   6.158   5.858
  231POPC   C1B 3202  10.322   6.791   4.742
  231POPC   C2B 3203  10.425   6.683   5.191
  231POPC   C3B 3204  10.124   6.595   5.580
  231POPC   C4B 3205   9.915   6.531   6.033
  232POPC   NC3 3206   5.636  10.363   3.936
  232POPC   PO4 3207   5.912   9.759   3.909
  232POPC   GL1 3208   5.881  10.012   4.268
  232POPC   GL2 3209   5.534  10.062   4.321
  232POPC   C1A 3210   5.822  10.100   4.722
  232POPC   D2A 3211   5.858  10.237   5.142
  232POPC   C3A 3212   6.058   9.982   5.456
  232POPC   C4A 3213   5.808  10.249   5.706
  232POPC   C1B 3214   5.212   9.975   4.621
  232POPC   C2B 3215   5.369  10.025   5.012
  232POPC   C3B 3216   5.536   9.928   5.398
  232POPC   C4B 3217   5.277   9.890   5.765
  233POPC   NC3 3218   0.475  10.469   3.855
  233POPC   PO4 3219   0.299   9.722   4.043
  233POPC   GL1 3220   0.423   9.991   4.340
  233POPC   GL2 3221   0.276  10.324   4.297
  233POPC   C1A 3222   0.504   9.996   4.782
  233POPC   D2A 3223   0.565  10.029   5.218
  233POPC   C3A 3224   0.238   9.890   5.459
  233POPC   C4A 3225   0.246  10.073   5.815
  233POPC   C1B 3226   0.581  10.459   4.572
  233POPC   C2B 3227   0.417  10.478   4.996
  233POPC   C3B 3228   0.254  10.396   5.400
  233POPC   C4B 3229   0.545  10.476   5.713
  234POPC   NC3 3230  10.495  10.064   3.953
  234POPC   PO4 3231  10.387   0.133   4.008
  234POPC   GL1 3232  10.264  10.400   4.359
  234POPC   GL2 3233  10.183  10.049   4.389
  234POPC   C1A 3234  10.192  10.331   4.800
  234POPC   D2A 3235  10.061   0.097   5.090
  234POPC   C3A 3236  10.305   0.163   5.433
  234POPC   C4A 3237  10.388  10.428   5.802
  234POPC   C1B 3238  10.500   9.897   4.640
  234POPC   C2B 3239   0.063  10.075   5.029
  234POPC   C3B 3240  10.302  10.150   5.375
  234POPC   C4B 3241  10.113  10.015   5.782
  235POPC   NC3 3242   3.340   0.639   3.959
  235POPC   PO4 3243   3.335  10.440   3.921
  235POPC   GL1 3244   3.540   0.125   4.297
  235POPC   GL2 3245   3.438   0.458   4.416
  235POPC   C1A 3246   3.633   0.098   4.754
  235POPC   D2A 3247   3.296   0.060   5.106
  235POPC   C3A 3248   3.408   0.179   5.553
  235POPC   C4A 3249   3.528   0.324   5.984
  235POPC   C1B 3250   3.081   0.285   4.644
  235POPC   C2B 3251   2.921   0.452   5.028
  235POPC   C3B 3252   2.974   0.366   5.429
  235POPC   C4B 3253   3.184   0.612   5.745
  236POPC   NC3 3254   9.693   6.367   3.837
  236POPC   PO4 3255   9.158   6.626   4.125
  236POPC   GL1 3256   9.625   6.534   4.302
  236POPC   GL2 3257   9.615   6.169   4.453
  236POPC   C1A 3258   9.865   6.522   4.687
  236POPC   D2A 3259   9.542   6.636   4.958
  236POPC   C3A 3260   9.644   6.552   5.347
  236POPC   C4A 3261   9.638   6.761   5.697
  236POPC   C1B 3262   9.619   6.142   4.943
  236POPC   C2B 3263   9.225   6.290   5.199
  236POPC   C3B 3264   9.234   6.401   5.634
  236POPC   C4B 3265   9.643   6.223   5.729
  237POPC   NC3 3266   1.194   4.585   3.962
  237POPC   PO4 3267   0.863   5.176   3.895
  237POPC   GL1 3268   1.157   4.970   4.304
  237POPC   GL2 3269   1.436   4.672   4.400
  237POPC   C1A 3270   1.085   4.791   4.762
  237POPC   D2A 3271   0.967   5.042   5.122
  237POPC   C3A 3272   1.049   4.932   5.559
  237POPC   C4A 3273   1.296   5.138   5.913
  237POPC   C1B 3274   1.550   4.951   4.730
  237POPC   C2B 3275   1.472   5.113   5.130
  237POPC   C3B 3276   1.547   4.894   5.510
  237POPC   C4B 3277   1.349   4.550   5.740
  238POPC   NC3 3278   8.667   8.408   4.094
  238POPC   PO4 3279   8.436   8.989   3.993
  238POPC   GL1 3280   8.533   8.833   4.371
  238POPC   GL2 3281   8.899   8.774   4.350
  238POPC   C1A 3282   8.661   8.848   4.783
  238POPC   D2A 3283   8.690   8.615   5.131
  238POPC   C3A 3284   8.773   8.861   5.460
  238POPC   C4A 3285   8.497   8.963   5.760
  238POPC   C1B 3286   8.912   8.407   4.704
  238POPC   C2B 3287   9.065   8.188   5.088
  238POPC   C3B 3288   8.914   8.346   5.508
  238POPC   C4B 3289   8.502   8.460   5.714
  239POPC   NC3 3290   7.281   8.154   3.914
  239POPC   PO4 3291   6.951   8.761   3.778
  239POPC   GL1 3292   7.018   8.739   4.220
  239POPC   GL2 3293   7.245   8.509   4.316
  239POPC   C1A 3294   7.035   8.870   4.653
  239POPC   D2A 3295   7.225   8.906   5.078
  239POPC   C3A 3296   6.966   8.653   5.356
  239POPC   C4A 3297   6.800   8.563   5.760
  239POPC   C1B 3298   7.547   8.748   4.621
  239POPC   C2B 3299   7.755   8.735   5.041
  239POPC   C3B 3300   7.567   8.836   5.467
  239POPC   C4B 3301   7.290   8.630   5.761
  240POPC   NC3 3302   4.260   0.999   3.823
  240POPC   PO4 3303   3.797   1.516   3.852
  240POPC   GL1 3304   3.963   1.188   4.187
  240POPC   GL2 3305   4.277   1.071   4.311
  240POPC   C1A 3306   3.946   1.214   4.662
  240POPC   D2A 3307   4.158   1.288   5.075
  240POPC   C3A 3308   4.055   1.099   5.465
  240POPC   C4A 3309   3.930   1.262   5.844
  240POPC   C1B 3310   4.340   0.918   4.698
  240POPC   C2B 3311   4.164   0.756   5.047
  240POPC   C3B 3312   4.260   0.630   5.412
  240POPC   C4B 3313   4.302   0.769   5.813
  241POPC   NC3 3314   9.990   9.241   3.915
  241POPC   PO4 3315  10.049   9.944   3.921
  241POPC   GL1 3316   9.849   9.680   4.178
  241POPC   GL2 3317  10.181   9.553   4.287
  241POPC   C1A 3318   9.844   9.720   4.635
  241POPC   D2A 3319  10.180   9.615   4.957
  241POPC   C3A 3320  10.158   9.659   5.415
  241POPC   C4A 3321   9.867   9.576   5.789
  241POPC   C1B 3322  10.029   9.246   4.583
  241POPC   C2B 3323  10.103   9.083   4.984
  241POPC   C3B 3324  10.362   9.187   5.311
  241POPC   C4B 3325  10.186   9.173   5.707
  242POPC   NC3 3326   6.347   7.807   3.991
  242POPC   PO4 3327   6.273   8.417   4.040
  242POPC   GL1 3328   6.662   8.352   4.240
  242POPC   GL2 3329   6.530   8.083   4.388
  242POPC   C1A 3330   6.846   8.391   4.656
  242POPC   D2A 3331   6.944   8.208   5.066
  242POPC   C3A 3332   6.691   8.186   5.421
  242POPC   C4A 3333   6.741   8.065   5.833
  242POPC   C1B 3334   6.528   8.022   4.835
  242POPC   C2B 3335   6.564   7.757   5.184
  242POPC   C3B 3336   6.413   7.747   5.604
  242POPC   C4B 3337   6.558   7.604   6.019
  243POPC   NC3 3338   8.620   0.776   3.982
  243POPC   PO4 3339   8.548   1.476   3.951
  243POPC   GL1 3340   8.712   1.211   4.266
  243POPC   GL2 3341   8.955   1.428   4.296
  243POPC   C1A 3342   8.898   1.042   4.670
  243POPC   D2A 3343   8.693   0.984   5.086
  243POPC   C3A 3344   8.790   0.742   5.465
  243POPC   C4A 3345   8.685   0.939   5.843
  243POPC   C1B 3346   8.741   1.544   4.701
  243POPC   C2B 3347   8.789   1.486   5.145
  243POPC   C3B 3348   8.614   1.358   5.553
  243POPC   C4B 3349   8.554   1.419   6.026
  244POPC   NC3 3350   2.539   9.474   3.836
  244POPC   PO4 3351   2.939   8.951   4.081
  244POPC   GL1 3352   2.581   9.193   4.261
  244POPC   GL2 3353   2.752   9.498   4.302
  244POPC   C1A 3354   2.304   9.298   4.607
  244POPC   D2A 3355   2.339   9.054   5.009
  244POPC   C3A 3356   2.284   9.223   5.409
  244POPC   C4A 3357   2.464   9.293   5.827
  244POPC   C1B 3358   2.825   9.358   4.722
  244POPC   C2B 3359   2.828   9.548   5.128
  244POPC   C3B 3360   2.572   9.643   5.478
  244POPC   C4B 3361   2.699   9.749   5.916
  245POPC   NC3 3362   5.774   8.626   4.030
  245POPC   PO4 3363   5.287   8.264   4.099
  245POPC   GL1 3364   5.279   8.677   4.310
  245POPC   GL2 3365   5.576   8.852   4.436
  245POPC   C1A 3366   5.243   8.708   4.766
  245POPC   D2A 3367   5.452   8.507   5.087
  245POPC   C3A 3368   5.307   8.652   5.445
  245POPC   C4A 3369   5.462   8.689   5.843
  245POPC   C1B 3370   5.803   8.668   4.730
  245POPC   C2B 3371   5.967   8.597   5.133
  245POPC   C3B 3372   5.821   8.480   5.522
  245POPC   C4B 3373   5.983   8.703   5.865
  246POPC   NC3 3374   9.451   3.066   3.826
  246POPC   PO4 3375   9.713   3.675   4.066
  246POPC   GL1 3376   9.447   3.410   4.350
  246POPC   GL2 3377   9.398   3.017   4.329
  246POPC   C1A 3378   9.426   3.568   4.766
  246POPC   D2A 3379   9.753   3.698   5.047
  246POPC   C3A 3380   9.640   3.674   5.506
  246POPC   C4A 3381   9.569   3.510   5.944
  246POPC   C1B 3382   9.534   3.039   4.772
  246POPC   C2B 3383   9.553   3.244   5.197
  246POPC   C3B 3384   9.331   3.200   5.597
  246POPC   C4B 3385   9.132   3.246   6.012
  247POPC   NC3 3386   0.683   1.868   3.691
  247POPC   PO4 3387   0.946   1.880   4.226
  247POPC   GL1 3388   0.659   1.583   4.342
  247POPC   GL2 3389   0.296   1.714   4.302
  247POPC   C1A 3390   0.528   1.663   4.749
  247POPC   D2A 3391   0.515   1.930   5.082
  247POPC   C3A 3392   0.580   1.711   5.434
  247POPC   C4A 3393   0.766   1.643   5.815
  247POPC   C1B 3394   0.276   2.085   4.632
  247POPC   C2B 3395   0.092   2.210   5.026
  247POPC   C3B 3396   0.232   2.168   5.445
  247POPC   C4B 3397   0.348   1.961   5.812
  248POPC   NC3 3398   9.552   0.105   3.739
  248POPC   PO4 3399   9.092   0.642   3.975
  248POPC   GL1 3400   9.147   0.644   4.412
  248POPC   GL2 3401   9.420   0.402   4.456
  248POPC   C1A 3402   9.309   0.756   4.796
  248POPC   D2A 3403   9.188   0.872   5.165
  248POPC   C3A 3404   9.446   0.754   5.524
  248POPC   C4A 3405   9.876   0.818   5.747
  248POPC   C1B 3406   9.379   0.087   4.773
  248POPC   C2B 3407   9.542   0.018   5.164
  248POPC   C3B 3408   9.442   0.207   5.577
  248POPC   C4B 3409   9.224   0.211   5.951
  249POPC   NC3 3410   8.631   3.194   3.859
  249POPC   PO4 3411   8.843   3.857   3.831
  249POPC   GL1 3412   8.688   3.577   4.198
  249POPC   GL2 3413   8.953   3.304   4.240
  249POPC   C1A 3414   8.575   3.288   4.568
  249POPC   D2A 3415   8.601   3.186   5.017
  249POPC   C3A 3416   8.433   3.536   5.271
  249POPC   C4A 3417   8.340   3.690   5.648
  249POPC   C1B 3418   9.060   3.206   4.672
  249POPC   C2B 3419   9.085   3.362   5.092
  249POPC   C3B 3420   8.847   3.318   5.467
  249POPC   C4B 3421   8.439   3.170   5.642
  250POPC   NC3 3422  10.235   5.745   3.855
  250POPC   PO4 3423   0.314   5.572   3.985
  250POPC   GL1 3424   0.118   5.579   4.384
  250POPC   GL2 3425  10.336   5.787   4.348
  250POPC   C1A 3426  10.482   5.567   4.819
  250POPC   D2A 3427   0.012   5.341   5.206
  250POPC   C3A 3428  10.241   5.541   5.485
  250POPC   C4A 3429  10.440   5.750   5.783
  250POPC   C1B 3430  10.082   5.876   4.668
  250POPC   C2B 3431  10.086   5.833   5.061
  250POPC   C3B 3432   9.746   5.852   5.356
  250POPC   C4B 3433   9.844   5.754   5.779
  251POPC   NC3 3434   9.164   9.772   3.765
  251POPC   PO4 3435   9.511   9.180   3.856
  251POPC   GL1 3436   9.336   9.479   4.174
  251POPC   GL2 3437   9.266   9.151   4.306
  251POPC   C1A 3438   9.256   9.661   4.611
  251POPC   D2A 3439   9.347   9.887   5.007
  251POPC   C3A 3440   9.474   9.710   5.387
  251POPC   C4A 3441   9.428   9.850   5.799
  251POPC   C1B 3442   9.513   9.244   4.655
  251POPC   C2B 3443   9.685   9.424   4.998
  251POPC   C3B 3444   9.801   9.312   5.361
  251POPC   C4B 3445   9.497   9.260   5.660
  252POPC   NC3 3446   3.098   5.508   4.045
  252POPC   PO4 3447   2.451   5.498   3.940
  252POPC   GL1 3448   2.629   5.582   4.300
  252POPC   GL2 3449   2.574   5.919   4.420
  252POPC   C1A 3450   2.658   5.482   4.726
  252POPC   D2A 3451   2.403   5.388   5.063
  252POPC   C3A 3452   2.627   5.291   5.471
  252POPC   C4A 3453   2.601   5.338   5.944
  252POPC   C1B 3454   2.574   5.964   4.883
  252POPC   C2B 3455   2.755   5.731   5.227
  252POPC   C3B 3456   2.812   5.733   5.677
  252POPC   C4B 3457   2.827   6.117   5.956
  253POPC   NC3 3458   2.047   3.427   3.767
  253POPC   PO4 3459   1.464   3.294   4.060
  253POPC   GL1 3460   1.840   3.211   4.215
  253POPC   GL2 3461   1.910   3.537   4.297
  253POPC   C1A 3462   1.905   3.155   4.659
  253POPC   D2A 3463   1.690   3.283   5.060
  253POPC   C3A 3464   1.877   3.234   5.460
  253POPC   C4A 3465   2.140   3.507   5.689
  253POPC   C1B 3466   1.820   3.660   4.732
  253POPC   C2B 3467   2.065   3.624   5.130
  253POPC   C3B 3468   1.744   3.741   5.401
  253POPC   C4B 3469   1.664   3.676   5.801
  254POPC   NC3 3470   0.279   4.212   3.813
  254POPC   PO4 3471   0.901   4.177   3.874
  254POPC   GL1 3472   0.559   4.235   4.229
  254POPC   GL2 3473   0.218   4.057   4.271
  254POPC   C1A 3474   0.431   4.356   4.650
  254POPC   D2A 3475   0.222   4.364   5.051
  254POPC   C3A 3476   0.399   4.433   5.435
  254POPC   C4A 3477   0.371   4.249   5.813
  254POPC   C1B 3478   0.478   3.831   4.567
  254POPC   C2B 3479   0.495   3.919   4.995
  254POPC   C3B 3480   0.320   3.934   5.396
  254POPC   C4B 3481   0.016   3.868   5.761
  255POPC   NC3 3482   5.031   1.269   3.896
  255POPC   PO4 3483   4.641   0.873   3.586
  255POPC   GL1 3484   4.713   0.958   4.083
  255POPC   GL2 3485   5.004   0.859   4.252
  255POPC   C1A 3486   4.738   1.196   4.506
  255POPC   D2A 3487   4.656   1.268   4.941
  255POPC   C3A 3488   4.567   1.006   5.286
  255POPC   C4A 3489   4.508   1.205   5.703
  255POPC   C1B 3490   5.037   0.816   4.685
  255POPC   C2B 3491   5.099   1.033   5.083
  255POPC   C3B 3492   4.985   1.222   5.472
  255POPC   C4B 3493   4.982   0.977   5.823
  256POPC   NC3 3494   8.047   8.792   3.830
  256POPC   PO4 3495   7.662   8.360   4.068
  256POPC   GL1 3496   7.852   8.392   4.403
  256POPC   GL2 3497   8.035   8.673   4.329
  256POPC   C1A 3498   7.859   8.272   4.819
  256POPC   D2A 3499   8.100   8.333   5.193
  256POPC   C3A 3500   7.807   8.359   5.525
  256POPC   C4A 3501   7.758   8.566   5.884
  256POPC   C1B 3502   8.230   8.599   4.740
  256POPC   C2B 3503   8.244   8.867   5.132
  256POPC   C3B 3504   8.076   8.795   5.556
  256POPC   C4B 3505   8.085   8.898   6.040
  257POPC   NC3 3506   2.782   4.419   3.623
  257POPC   PO4 3507   2.334   4.672   4.022
  257POPC   GL1 3508   2.250   4.458   4.417
  257POPC   GL2 3509   2.497   4.204   4.332
  257POPC   C1A 3510   2.258   4.521   4.892
  257POPC   D2A 3511   2.590   4.510   5.204
  257POPC   C3A 3512   2.613   4.269   5.572
  257POPC   C4A 3513   2.573   4.400   6.008
  257POPC   C1B 3514   2.664   4.251   4.751
  257POPC   C2B 3515   2.979   4.160   5.061
  257POPC   C3B 3516   3.124   4.211   5.485
  257POPC   C4B 3517   2.993   4.135   5.915
  258POPC   NC3 3518   5.714   1.303   3.766
  258POPC   PO4 3519   5.338   0.871   3.893
  258POPC   GL1 3520   5.430   1.180   4.215
  258POPC   GL2 3521   5.781   1.272   4.292
  258POPC   C1A 3522   5.335   1.235   4.659
  258POPC   D2A 3523   5.624   1.257   5.042
  258POPC   C3A 3524   5.482   1.289   5.483
  258POPC   C4A 3525   5.338   1.348   5.960
  258POPC   C1B 3526   5.787   0.953   4.624
  258POPC   C2B 3527   6.044   0.944   5.011
  258POPC   C3B 3528   6.004   1.149   5.429
  258POPC   C4B 3529   5.810   1.117   5.844
  259POPC   NC3 3530   9.270   5.881   4.079
  259POPC   PO4 3531   9.803   5.748   3.705
  259POPC   GL1 3532   9.709   5.693   4.314
  259POPC   GL2 3533   9.383   5.577   4.468
  259POPC   C1A 3534   9.672   5.641   4.837
  259POPC   D2A 3535   9.858   5.388   5.132
  259POPC   C3A 3536   9.639   5.363   5.485
  259POPC   C4A 3537   9.715   5.170   5.849
  259POPC   C1B 3538   9.229   5.936   4.726
  259POPC   C2B 3539   9.252   5.784   5.153
  259POPC   C3B 3540   9.264   5.862   5.580
  259POPC   C4B 3541   9.375   5.548   5.887
  260POPC   NC3 3542   6.096   9.322   3.911
  260POPC   PO4 3543   5.496   9.044   3.987
  260POPC   GL1 3544   5.729   9.302   4.271
  260POPC   GL2 3545   5.548   9.571   4.223
  260POPC   C1A 3546   5.812   9.203   4.727
  260POPC   D2A 3547   5.611   9.000   5.077
  260POPC   C3A 3548   5.730   8.995   5.505
  260POPC   C4A 3549   5.683   9.130   5.937
  260POPC   C1B 3550   5.543   9.626   4.682
  260POPC   C2B 3551   5.397   9.502   5.126
  260POPC   C3B 3552   5.490   9.473   5.596
  260POPC   C4B 3553   5.779   9.760   5.833
  261POPC   NC3 3554   9.368   6.986   3.907
  261POPC   PO4 3555   9.678   7.587   3.824
  261POPC   GL1 3556   9.547   7.599   4.251
  261POPC   GL2 3557   9.359   7.312   4.317
  261POPC   C1A 3558   9.648   7.469   4.684
  261POPC   D2A 3559   9.782   7.375   5.089
  261POPC   C3A 3560   9.523   7.206   5.389
  261POPC   C4A 3561   9.597   7.255   5.818
  261POPC   C1B 3562   9.132   7.398   4.699
  261POPC   C2B 3563   9.285   7.092   4.952
  261POPC   C3B 3564   9.192   6.810   5.285
  261POPC   C4B 3565   9.188   6.956   5.680
  262POPC   NC3 3566   2.671   1.855   3.710
  262POPC   PO4 3567   2.927   2.455   3.969
  262POPC   GL1 3568   2.887   2.243   4.453
  262POPC   GL2 3569   2.796   1.869   4.567
  262POPC   C1A 3570   2.778   2.177   4.936
  262POPC   D2A 3571   3.062   2.335   5.207
  262POPC   C3A 3572   2.996   2.158   5.621
  262POPC   C4A 3573   2.801   2.069   6.015
  262POPC   C1B 3574   2.460   1.717   4.760
  262POPC   C2B 3575   2.304   1.953   5.088
  262POPC   C3B 3576   2.536   2.007   5.451
  262POPC   C4B 3577   2.455   1.737   5.770
  263POPC   NC3 3578   4.111   1.940   3.905
  263POPC   PO4 3579   4.604   1.461   3.918
  263POPC   GL1 3580   4.275   1.604   4.292
  263POPC   GL2 3581   4.217   1.980   4.379
  263POPC   C1A 3582   4.117   1.696   4.765
  263POPC   D2A 3583   3.881   1.942   5.091
  263POPC   C3A 3584   3.883   1.787   5.505
  263POPC   C4A 3585   4.230   1.632   5.701
  263POPC   C1B 3586   4.438   2.152   4.733
  263POPC   C2B 3587   4.408   1.949   5.125
  263POPC   C3B 3588   4.332   2.106   5.530
  263POPC   C4B 3589   4.579   2.365   5.820
  264POPC   NC3 3590   2.921  10.244   3.941
  264POPC   PO4 3591   2.303   0.103   3.872
  264POPC   GL1 3592   2.503  10.314   4.227
  264POPC   GL2 3593   2.510   9.944   4.169
  264POPC   C1A 3594   2.769  10.315   4.659
  264POPC   D2A 3595   2.758  10.476   5.120
  264POPC   C3A 3596   3.009  10.374   5.506
  264POPC   C4A 3597   2.897  10.211   5.897
  264POPC   C1B 3598   2.485   9.817   4.622
  264POPC   C2B 3599   2.559   9.990   5.054
  264POPC   C3B 3600   2.542  10.149   5.489
  264POPC   C4B 3601   2.375  10.135   5.927
  265POPC   NC3 3602   4.140   0.352   3.755
  265POPC   PO4 3603   3.744   0.847   3.815
  265POPC   GL1 3604   3.895   0.663   4.225
  265POPC   GL2 3605   4.027   0.295   4.260
  265POPC   C1A 3606   3.809   0.671   4.685
  265POPC   D2A 3607   3.586   0.492   5.071
  265POPC   C3A 3608   3.801   0.474   5.475
  265POPC   C4A 3609   3.796   0.766   5.811
  265POPC   C1B 3610   4.214   0.375   4.667
  265POPC   C2B 3611   4.063   0.247   5.045
  265POPC   C3B 3612   4.218   0.094   5.397
  265POPC   C4B 3613   4.273   0.278   5.770
  266POPC   NC3 3614   1.301   6.964   3.872
  266POPC   PO4 3615   0.927   7.410   4.047
  266POPC   GL1 3616   1.071   7.082   4.304
  266POPC   GL2 3617   1.405   7.236   4.332
  266POPC   C1A 3618   1.304   6.847   4.614
  266POPC   D2A 3619   1.300   6.703   5.031
  266POPC   C3A 3620   1.239   6.884   5.454
  266POPC   C4A 3621   1.321   6.955   5.897
  266POPC   C1B 3622   1.189   7.319   4.757
  266POPC   C2B 3623   1.298   7.330   5.201
  266POPC   C3B 3624   1.220   7.372   5.656
  266POPC   C4B 3625   0.833   7.592   5.822
  267POPC   NC3 3626   7.866   2.282   3.860
  267POPC   PO4 3627   8.263   2.868   3.873
  267POPC   GL1 3628   8.136   2.571   4.228
  267POPC   GL2 3629   7.773   2.561   4.285
  267POPC   C1A 3630   8.092   2.383   4.653
  267POPC   D2A 3631   8.163   2.673   5.005
  267POPC   C3A 3632   8.106   2.522   5.432
  267POPC   C4A 3633   7.812   2.434   5.761
  267POPC   C1B 3634   7.716   2.718   4.695
  267POPC   C2B 3635   7.664   2.839   5.105
  267POPC   C3B 3636   7.780   2.888   5.498
  267POPC   C4B 3637   7.708   3.006   5.870
  268POPC   NC3 3638   1.675   9.322   3.854
  268POPC   PO4 3639   1.562   9.987   3.663
  268POPC   GL1 3640   1.846   9.882   4.114
  268POPC   GL2 3641   2.008   9.549   4.180
  268POPC   C1A 3642   1.959   9.773   4.622
  268POPC   D2A 3643   2.188   9.603   5.027
  268POPC   C3A 3644   1.938   9.593   5.432
  268POPC   C4A 3645   2.034   9.631   5.891
  268POPC   C1B 3646   1.778   9.279   4.495
  268POPC   C2B 3647   1.858   9.208   4.918
  268POPC   C3B 3648   1.753   9.119   5.320
  268POPC   C4B 3649   1.900   9.155   5.733
  269POPC   NC3 3650   9.109   1.603   3.835
  269POPC   PO4 3651   9.074   2.284   3.818
  269POPC   GL1 3652   8.869   2.191   4.251
  269POPC   GL2 3653   8.658   1.873   4.294
  269POPC   C1A 3654   8.849   2.176   4.710
  269POPC   D2A 3655   8.738   1.998   5.095
  269POPC   C3A 3656   8.733   2.216   5.486
  269POPC   C4A 3657   8.661   1.868   5.792
  269POPC   C1B 3658   8.395   1.959   4.696
  269POPC   C2B 3659   8.265   2.165   5.097
  269POPC   C3B 3660   8.256   2.054   5.539
  269POPC   C4B 3661   8.256   2.243   5.942
  270POPC   NC3 3662   2.839   2.903   3.942
  270POPC   PO4 3663   2.375   2.454   4.270
  270POPC   GL1 3664   2.527   2.817   4.345
  270POPC   GL2 3665   2.884   2.776   4.409
  270POPC   C1A 3666   2.443   3.012   4.717
  270POPC   D2A 3667   2.188   3.100   5.067
  270POPC   C3A 3668   2.269   2.877   5.401
  270POPC   C4A 3669   2.370   3.001   5.825
  270POPC   C1B 3670   2.773   2.648   4.788
  270POPC   C2B 3671   2.732   2.815   5.165
  270POPC   C3B 3672   2.667   2.539   5.476
  270POPC   C4B 3673   2.693   2.553   5.869
  271POPC   NC3 3674  10.127   8.694   3.597
  271POPC   PO4 3675  10.177   8.052   3.705
  271POPC   GL1 3676  10.141   8.367   4.094
  271POPC   GL2 3677  10.186   8.730   4.140
  271POPC   C1A 3678   9.969   8.371   4.536
  271POPC   D2A 3679  10.040   8.548   4.982
  271POPC   C3A 3680   9.952   8.345   5.362
  271POPC   C4A 3681   9.860   8.419   5.771
  271POPC   C1B 3682  10.292   8.794   4.598
  271POPC   C2B 3683   0.028   8.774   5.008
  271POPC   C3B 3684  10.382   8.688   5.449
  271POPC   C4B 3685  10.262   8.710   5.897
  272POPC   NC3 3686   8.898   4.765   3.908
  272POPC   PO4 3687   9.186   5.414   4.066
  272POPC   GL1 3688   8.825   5.261   4.327
  272POPC   GL2 3689   8.747   4.927   4.342
  272POPC   C1A 3690   8.628   5.170   4.749
  272POPC   D2A 3691   8.888   5.045   5.083
  272POPC   C3A 3692   8.657   5.055   5.425
  272POPC   C4A 3693   8.749   4.871   5.794
  272POPC   C1B 3694   8.822   4.688   4.704
  272POPC   C2B 3695   8.623   4.625   5.055
  272POPC   C3B 3696   8.584   4.543   5.425
  272POPC   C4B 3697   8.311   4.667   5.695
  273POPC   NC3 3698  10.175   3.034   3.765
  273POPC   PO4 3699   9.732   2.685   3.924
  273POPC   GL1 3700  10.068   2.742   4.245
  273POPC   GL2 3701  10.403   2.705   4.197
  273POPC   C1A 3702  10.021   2.871   4.703
  273POPC   D2A 3703   9.944   2.948   5.165
  273POPC   C3A 3704   9.879   3.172   5.612
  273POPC   C4A 3705   9.947   2.832   5.950
  273POPC   C1B 3706  10.412   2.540   4.655
  273POPC   C2B 3707  10.173   2.507   5.070
  273POPC   C3B 3708  10.124   2.569   5.522
  273POPC   C4B 3709  10.405   2.297   5.800
  274POPC   NC3 3710   0.291   0.942   3.723
  274POPC   PO4 3711   0.880   1.042   4.027
  274POPC   GL1 3712   0.653   0.925   4.434
  274POPC   GL2 3713   0.367   0.871   4.251
  274POPC   C1A 3714   0.587   0.896   4.923
  274POPC   D2A 3715   0.225   0.832   5.222
  274POPC   C3A 3716   0.321   0.813   5.673
  274POPC   C4A 3717   0.682   0.952   5.849
  274POPC   C1B 3718   0.298   1.233   4.592
  274POPC   C2B 3719   0.325   1.317   5.045
  274POPC   C3B 3720   0.341   1.270   5.449
  274POPC   C4B 3721   0.363   1.370   5.837
  275POPC   NC3 3722   4.285   9.742   3.783
  275POPC   PO4 3723   4.313  10.436   3.712
  275POPC   GL1 3724   4.240  10.248   4.130
  275POPC   GL2 3725   3.875  10.214   4.228
  275POPC   C1A 3726   4.289  10.377   4.577
  275POPC   D2A 3727   4.544   0.025   4.938
  275POPC   C3A 3728   4.665  10.333   5.374
  275POPC   C4A 3729   4.446  10.299   5.775
  275POPC   C1B 3730   3.917  10.036   4.663
  275POPC   C2B 3731   4.129  10.198   5.062
  275POPC   C3B 3732   4.044  10.102   5.509
  275POPC   C4B 3733   3.997  10.126   5.986
  276POPC   NC3 3734   6.545   8.794   4.017
  276POPC   PO4 3735   6.548   9.438   3.892
  276POPC   GL1 3736   6.542   9.246   4.279
  276POPC   GL2 3737   6.233   9.284   4.414
  276POPC   C1A 3738   6.643   9.258   4.738
  276POPC   D2A 3739   6.361   9.484   5.031
  276POPC   C3A 3740   6.439   9.508   5.471
  276POPC   C4A 3741   6.687   9.451   5.785
  276POPC   C1B 3742   6.050   9.641   4.624
  276POPC   C2B 3743   5.882   9.697   5.057
  276POPC   C3B 3744   5.952   9.460   5.436
  276POPC   C4B 3745   6.165   9.216   5.790
  277POPC   NC3 3746   1.348   5.327   3.926
  277POPC   PO4 3747   1.068   5.950   4.004
  277POPC   GL1 3748   1.065   5.570   4.273
  277POPC   GL2 3749   1.426   5.596   4.331
  277POPC   C1A 3750   1.118   5.330   4.682
  277POPC   D2A 3751   0.922   5.548   5.032
  277POPC   C3A 3752   1.076   5.428   5.448
  277POPC   C4A 3753   0.878   5.751   5.697
  277POPC   C1B 3754   1.305   5.804   4.678
  277POPC   C2B 3755   1.409   5.654   5.078
  277POPC   C3B 3756   1.262   5.876   5.387
  277POPC   C4B 3757   1.401   5.935   5.754
  278POPC   NC3 3758   1.150   3.854   3.676
  278POPC   PO4 3759   1.476   4.239   4.076
  278POPC   GL1 3760   1.234   4.166   4.391
  278POPC   GL2 3761   0.988   4.429   4.411
  278POPC   C1A 3762   1.385   4.220   4.809
  278POPC   D2A 3763   1.313   4.453   5.183
  278POPC   C3A 3764   1.360   4.113   5.473
  278POPC   C4A 3765   1.292   4.008   5.905
  278POPC   C1B 3766   0.885   4.204   4.792
  278POPC   C2B 3767   0.839   4.236   5.231
  278POPC   C3B 3768   0.886   4.307   5.665
  278POPC   C4B 3769   0.791   4.034   5.998
  279POPC   NC3 3770  10.186   1.613   3.939
  279POPC   PO4 3771   0.289   2.029   3.869
  279POPC   GL1 3772   0.002   2.147   4.209
  279POPC   GL2 3773  10.157   2.240   4.214
  279POPC   C1A 3774  10.336   1.847   4.548
  279POPC   D2A 3775  10.420   1.584   4.912
  279POPC   C3A 3776   0.073   1.709   5.294
  279POPC   C4A 3777  10.453   1.675   5.711
  279POPC   C1B 3778  10.017   2.221   4.655
  279POPC   C2B 3779  10.134   1.988   5.012
  279POPC   C3B 3780  10.199   2.078   5.408
  279POPC   C4B 3781  10.022   1.947   5.808
  280POPC   NC3 3782   9.237   4.016   4.024
  280POPC   PO4 3783   9.773   4.184   3.662
  280POPC   GL1 3784   9.700   4.208   4.150
  280POPC   GL2 3785   9.620   4.540   4.232
  280POPC   C1A 3786   9.466   4.120   4.605
  280POPC   D2A 3787   9.309   4.024   5.039
  280POPC   C3A 3788   9.437   4.255   5.430
  280POPC   C4A 3789   9.461   4.046   5.839
  280POPC   C1B 3790   9.487   4.646   4.647
  280POPC   C2B 3791   9.240   4.571   5.008
  280POPC   C3B 3792   9.066   4.668   5.393
  280POPC   C4B 3793   9.053   4.454   5.771
  281POPC   NC3 3794   2.614   7.868   3.801
  281POPC   PO4 3795   2.161   8.336   4.042
  281POPC   GL1 3796   2.464   8.001   4.276
  281POPC   GL2 3797   2.524   7.612   4.222
  281POPC   C1A 3798   2.662   8.098   4.690
  281POPC   D2A 3799   2.766   8.163   5.147
  281POPC   C3A 3800   2.396   8.147   5.436
  281POPC   C4A 3801   2.346   7.934   5.841
  281POPC   C1B 3802   2.788   7.615   4.601
  281POPC   C2B 3803   2.659   7.665   5.000
  281POPC   C3B 3804   2.648   7.714   5.420
  281POPC   C4B 3805   2.719   7.588   5.820
  282POPC   NC3 3806   0.674   6.191   3.966
  282POPC   PO4 3807   0.259   6.667   4.066
  282POPC   GL1 3808   0.468   6.476   4.377
  282POPC   GL2 3809   0.701   6.719   4.367
  282POPC   C1A 3810   0.370   6.514   4.814
  282POPC   D2A 3811   0.241   6.230   5.131
  282POPC   C3A 3812   0.090   6.356   5.542
  282POPC   C4A 3813   0.349   6.611   5.743
  282POPC   C1B 3814   0.882   6.605   4.733
  282POPC   C2B 3815   0.811   6.512   5.135
  282POPC   C3B 3816   0.748   6.742   5.467
  282POPC   C4B 3817   0.885   6.684   5.873
  283POPC   NC3 3818  10.063   7.628   3.584
  283POPC   PO4 3819  10.451   7.617   4.100
  283POPC   GL1 3820  10.061   7.636   4.345
  283POPC   GL2 3821  10.013   7.907   4.245
  283POPC   C1A 3822   9.887   7.893   4.727
  283POPC   D2A 3823  10.089   7.930   5.101
  283POPC   C3A 3824  10.110   7.603   5.397
  283POPC   C4A 3825  10.323   7.435   5.732
  283POPC   C1B 3826  10.354   8.043   4.562
  283POPC   C2B 3827  10.475   8.256   4.925
  283POPC   C3B 3828  10.441   8.196   5.354
  283POPC   C4B 3829  10.179   8.017   5.686
  284POPC   NC3 3830   8.435   7.132   4.140
  284POPC   PO4 3831   8.933   6.965   3.739
  284POPC   GL1 3832   8.926   7.086   4.192
  284POPC   GL2 3833   8.823   7.447   4.298
  284POPC   C1A 3834   8.851   6.970   4.641
  284POPC   D2A 3835   8.761   7.036   5.087
  284POPC   C3A 3836   9.019   7.301   5.344
  284POPC   C4A 3837   9.134   7.449   5.759
  284POPC   C1B 3838   8.577   7.421   4.723
  284POPC   C2B 3839   8.331   7.304   5.116
  284POPC   C3B 3840   8.440   7.158   5.497
  284POPC   C4B 3841   8.639   7.520   5.581
  285POPC   NC3 3842   6.514   0.341   3.965
  285POPC   PO4 3843   6.035   0.993   3.946
  285POPC   GL1 3844   6.133   0.598   4.228
  285POPC   GL2 3845   6.488   0.587   4.386
  285POPC   C1A 3846   6.086   0.502   4.691
  285POPC   D2A 3847   5.971   0.446   5.147
  285POPC   C3A 3848   6.228   0.676   5.445
  285POPC   C4A 3849   6.175   0.678   5.874
  285POPC   C1B 3850   6.595   0.308   4.696
  285POPC   C2B 3851   6.525   0.451   5.082
  285POPC   C3B 3852   6.602   0.304   5.461
  285POPC   C4B 3853   6.539   0.334   5.846
  286POPC   NC3 3854   4.466   9.377   4.172
  286POPC   PO4 3855   3.848   9.657   3.872
  286POPC   GL1 3856   4.117   9.748   4.270
  286POPC   GL2 3857   4.120   9.497   4.552
  286POPC   C1A 3858   4.422   9.884   4.611
  286POPC   D2A 3859   4.258   9.708   4.999
  286POPC   C3A 3860   4.446   9.830   5.361
  286POPC   C4A 3861   4.285   9.718   5.758
  286POPC   C1B 3862   4.237   9.132   4.799
  286POPC   C2B 3863   4.148   8.972   5.197
  286POPC   C3B 3864   4.263   9.222   5.556
  286POPC   C4B 3865   3.966   9.317   5.879
  287POPC   NC3 3866   8.464   4.090   3.962
  287POPC   PO4 3867   9.042   4.410   4.172
  287POPC   GL1 3868   8.649   4.429   4.271
  287POPC   GL2 3869   8.724   4.059   4.391
  287POPC   C1A 3870   8.400   4.388   4.615
  287POPC   D2A 3871   8.607   4.149   4.903
  287POPC   C3A 3872   8.405   4.074   5.286
  287POPC   C4A 3873   8.485   4.155   5.709
  287POPC   C1B 3874   8.873   3.723   4.689
  287POPC   C2B 3875   8.853   3.792   5.140
  287POPC   C3B 3876   8.916   4.131   5.396
  287POPC   C4B 3877   8.954   3.965   5.812
  288POPC   NC3 3878   8.180   1.509   3.668
  288POPC   PO4 3879   8.243   2.097   4.051
  288POPC   GL1 3880   7.864   2.048   4.327
  288POPC   GL2 3881   7.926   1.784   4.548
  288POPC   C1A 3882   7.646   2.131   4.737
  288POPC   D2A 3883   7.775   2.333   5.069
  288POPC   C3A 3884   7.776   2.063   5.386
  288POPC   C4A 3885   7.535   2.018   5.734
  288POPC   C1B 3886   7.977   1.775   4.953
  288POPC   C2B 3887   8.309   1.652   5.222
  288POPC   C3B 3888   8.163   1.550   5.636
  288POPC   C4B 3889   7.974   1.813   5.909
  289POPC   NC3 3890   9.524   2.166   3.738
  289POPC   PO4 3891   9.524   1.439   3.743
  289POPC   GL1 3892   9.467   1.605   4.190
  289POPC   GL2 3893   9.296   1.933   4.152
  289POPC   C1A 3894   9.653   1.753   4.592
  289POPC   D2A 3895   9.643   1.989   4.958
  289POPC   C3A 3896   9.590   1.763   5.324
  289POPC   C4A 3897   9.518   1.829   5.745
  289POPC   C1B 3898   9.145   1.809   4.537
  289POPC   C2B 3899   9.179   1.775   4.979
  289POPC   C3B 3900   9.095   1.843   5.440
  289POPC   C4B 3901   9.203   2.229   5.708
  290POPC   NC3 3902   3.322   8.406   3.632
  290POPC   PO4 3903   3.012   7.810   4.026
  290POPC   GL1 3904   3.326   7.808   4.350
  290POPC   GL2 3905   3.326   7.477   4.367
  290POPC   C1A 3906   3.410   8.145   4.716
  290POPC   D2A 3907   3.286   8.267   5.152
  290POPC   C3A 3908   3.499   8.142   5.551
  290POPC   C4A 3909   3.793   8.119   5.913
  290POPC   C1B 3910   3.263   7.661   4.817
  290POPC   C2B 3911   3.409   7.731   5.228
  290POPC   C3B 3912   3.155   7.771   5.588
  290POPC   C4B 3913   2.877   8.093   5.678
  291POPC   NC3 3914   0.370   5.121   3.931
  291POPC   PO4 3915   0.062   4.582   3.965
  291POPC   GL1 3916   0.259   4.700   4.302
  291POPC   GL2 3917   0.266   5.083   4.427
  291POPC   C1A 3918   0.062   4.706   4.691
  291POPC   D2A 3919   0.165   4.876   5.033
  291POPC   C3A 3920   0.017   4.790   5.424
  291POPC   C4A 3921   0.176   5.131   5.687
  291POPC   C1B 3922   0.603   4.869   4.623
  291POPC   C2B 3923   0.637   4.673   5.013
  291POPC   C3B 3924   0.549   4.903   5.388
  291POPC   C4B 3925   0.624   4.772   5.786
  292POPC   NC3 3926   0.968   8.616   3.809
  292POPC   PO4 3927   0.704   9.183   3.932
  292POPC   GL1 3928   0.885   8.917   4.242
  292POPC   GL2 3929   1.253   8.863   4.267
  292POPC   C1A 3930   0.899   8.703   4.653
  292POPC   D2A 3931   0.685   8.625   5.062
  292POPC   C3A 3932   0.927   8.653   5.452
  292POPC   C4A 3933   0.900   8.887   5.843
  292POPC   C1B 3934   1.414   8.889   4.705
  292POPC   C2B 3935   1.392   8.614   5.089
  292POPC   C3B 3936   1.582   8.670   5.498
  292POPC   C4B 3937   1.400   9.014   5.722
  293POPC   NC3 3938   7.939   9.758   4.009
  293POPC   PO4 3939   7.981   9.219   3.667
  293POPC   GL1 3940   7.993   9.184   4.187
  293POPC   GL2 3941   7.941   9.473   4.423
  293POPC   C1A 3942   8.010   9.060   4.687
  293POPC   D2A 3943   8.130   9.403   5.037
  293POPC   C3A 3944   8.203   9.286   5.472
  293POPC   C4A 3945   8.205   9.704   5.703
  293POPC   C1B 3946   7.673   9.429   4.752
  293POPC   C2B 3947   7.686   9.229   5.127
  293POPC   C3B 3948   7.783   9.549   5.459
  293POPC   C4B 3949   7.822   9.314   5.834
  294POPC   NC3 3950   3.434   1.215   3.780
  294POPC   PO4 3951   3.084   0.879   4.241
  294POPC   GL1 3952   3.480   1.031   4.315
  294POPC   GL2 3953   3.538   1.407   4.291
  294POPC   C1A 3954   3.489   1.065   4.761
  294POPC   D2A 3955   3.720   0.986   5.101
  294POPC   C3A 3956   3.472   0.869   5.422
  294POPC   C4A 3957   3.392   1.066   5.819
  294POPC   C1B 3958   3.617   1.604   4.657
  294POPC   C2B 3959   3.655   1.491   5.060
  294POPC   C3B 3960   3.595   1.366   5.457
  294POPC   C4B 3961   3.490   1.543   5.847
  295POPC   NC3 3962   3.231   8.212   4.086
  295POPC   PO4 3963   3.529   8.790   3.793
  295POPC   GL1 3964   3.583   8.687   4.227
  295POPC   GL2 3965   3.256   8.657   4.352
  295POPC   C1A 3966   3.632   8.718   4.679
  295POPC   D2A 3967   3.475   8.789   5.061
  295POPC   C3A 3968   3.537   8.626   5.431
  295POPC   C4A 3969   3.142   8.524   5.590
  295POPC   C1B 3970   3.223   9.019   4.667
  295POPC   C2B 3971   3.197   9.204   5.073
  295POPC   C3B 3972   3.243   9.023   5.463
  295POPC   C4B 3973   3.502   9.103   5.778
  296POPC   NC3 3974   2.941   7.350   4.026
  296POPC   PO4 3975   3.475   7.036   4.079
  296POPC   GL1 3976   3.112   7.005   4.384
  296POPC   GL2 3977   2.776   6.885   4.226
  296POPC   C1A 3978   3.086   7.185   4.826
  296POPC   D2A 3979   3.020   7.391   5.261
  296POPC   C3A 3980   3.049   7.213   5.720
  296POPC   C4A 3981   2.954   7.166   6.193
  296POPC   C1B 3982   2.636   7.136   4.590
  296POPC   C2B 3983   2.609   7.154   5.043
  296POPC   C3B 3984   2.574   7.217   5.493
  296POPC   C4B 3985   2.521   7.107   5.939
  297POPC   NC3 3986   1.476   6.227   3.953
  297POPC   PO4 3987   0.907   6.706   3.872
  297POPC   GL1 3988   1.151   6.521   4.223
  297POPC   GL2 3989   0.943   6.244   4.395
  297POPC   C1A 3990   1.378   6.348   4.614
  297POPC   D2A 3991   1.198   6.197   5.002
  297POPC   C3A 3992   1.337   6.368   5.405
  297POPC   C4A 3993   1.359   6.454   5.839
  297POPC   C1B 3994   0.733   6.105   4.785
  297POPC   C2B 3995   0.761   6.015   5.251
  297POPC   C3B 3996   0.908   6.247   5.623
  297POPC   C4B 3997   1.032   6.143   6.052
  298POPC   NC3 3998   0.746   5.634   3.853
  298POPC   PO4 3999   0.291   6.163   3.698
  298POPC   GL1 4000   0.252   6.045   4.184
  298POPC   GL2 4001   0.584   5.852   4.329
  298POPC   C1A 4002   0.228   6.017   4.644
  298POPC   D2A 4003   0.420   5.747   4.976
  298POPC   C3A 4004   0.238   5.797   5.374
  298POPC   C4A 4005   0.454   6.047   5.687
  298POPC   C1B 4006   0.616   5.454   4.577
  298POPC   C2B 4007   0.509   5.244   4.975
  298POPC   C3B 4008   0.565   5.407   5.401
  298POPC   C4B 4009   0.410   5.555   5.795
  299POPC   NC3 4010   1.308   0.597   3.680
  299POPC   PO4 4011   0.899   0.166   3.978
  299POPC   GL1 4012   1.212   0.219   4.289
  299POPC   GL2 4013   1.389   0.557   4.260
  299POPC   C1A 4014   1.026   0.278   4.702
  299POPC   D2A 4015   1.204   0.228   5.094
  299POPC   C3A 4016   1.147   0.308   5.529
  299POPC   C4A 4017   1.507   0.055   5.720
  299POPC   C1B 4018   1.367   0.639   4.688
  299POPC   C2B 4019   1.115   0.751   5.027
  299POPC   C3B 4020   1.256   0.826   5.439
  299POPC   C4B 4021   1.162   0.731   5.838
  300POPC   NC3 4022   3.986   8.796   3.909
  300POPC   PO4 4023   4.457   8.255   4.002
  300POPC   GL1 4024   4.085   8.421   4.240
  300POPC   GL2 4025   4.065   8.730   4.431
  300POPC   C1A 4026   3.905   8.311   4.668
  300POPC   D2A 4027   3.907   8.532   5.081
  300POPC   C3A 4028   3.969   8.352   5.480
  300POPC   C4A 4029   4.287   8.215   5.708
  300POPC   C1B 4030   4.313   8.618   4.791
  300POPC   C2B 4031   4.414   8.476   5.224
  300POPC   C3B 4032   4.327   8.708   5.604
  300POPC   C4B 4033   3.922   8.852   5.672
  301POPC   NC3 4034   9.801   1.071   3.666
  301POPC   PO4 4035  10.484   1.284   3.740
  301POPC   GL1 4036  10.449   1.241   4.230
  301POPC   GL2 4037  10.386   0.881   4.390
  301POPC   C1A 4038  10.125   1.355   4.572
  301POPC   D2A 4039   9.879   1.482   4.966
  301POPC   C3A 4040  10.064   1.602   5.370
  301POPC   C4A 4041  10.012   1.433   5.794
  301POPC   C1B 4042   0.119   0.771   4.715
  301POPC   C2B 4043  10.399   1.074   4.909
  301POPC   C3B 4044  10.345   1.194   5.311
  301POPC   C4B 4045  10.424   1.145   5.730
  302W        W 4046  10.385   3.590   8.971
  303W        W 4047   3.392   7.447   2.238
  304W        W 4048   7.991   2.752   1.864
  305W        W 4049   6.080   0.521   0.261
  306W        W 4050   9.149   2.116   8.594
  307W        W 4051   9.838   3.086   8.672
  308W        W 4052   8.190   5.484   9.721
  309W        W 4053   2.264   3.565   0.845
  310W        W 4054  10.032   3.172   0.983
  311W        W 4055   0.278   7.403  10.511
  312W        W 4056   5.261   1.901   2.172
  313W        W 4057   9.677   7.145   9.555
  314W        W 4058   9.920   7.954   8.995
  315W        W 4059   8.430   5.665   0.083
  316W        W 4060   8.965   0.825   3.204
  317W        W 4061   5.270   6.439   1.664
  318W        W 4062   8.012   6.173   1.473
  319W        W 4063   5.654  10.453  11.919
  320W        W 4064   6.516  10.333   1.441
  321W        W 4065   1.849   5.693  11.751
  322W        W 4066   3.512   6.670  11.488
  323W        W 4067   6.427   8.055   0.336
  324W        W 4068   8.948   7.690   9.827
  325W        W 4069   0.980   1.859   9.793
  326W        W 4070  10.298   1.831   9.106
  327W        W 4071   4.641   0.736  10.099
  328W        W 4072   9.997   8.575  10.927
  329W        W 4073   9.749   2.272   0.769
  330W        W 4074   1.867   6.961   2.777
  331W        W 4075   1.391   6.999   1.786
  332W        W 4076   9.557   2.102  11.784
  333W        W 4077   6.341   3.120  10.018
  334W        W 4078   2.194   2.844   2.544
  335W        W 4079   0.419   1.000   9.416
  336W        W 4080   8.735   2.241   2.136
  337W        W 4081   8.885   8.834  10.592
  338W        W 4082   4.972   0.464   1.510
  339W        W 4083   2.720   9.484  11.141
  340W        W 4084   3.524   7.378   2.992
  341W        W 4085   9.131   0.923   2.712
  342W        W 4086   1.374   2.556   0.097
  343W        W 4087   2.367   4.684   2.656
  344W        W 4088   6.654   0.069   3.528
  345W        W 4089  10.468   4.218   9.656
  346W        W 4090   7.016  10.288   1.704
  347W        W 4091   7.401   3.679   9.857
  348W        W 4092   1.646   6.779  10.307
  349W        W 4093  10.270   5.071   2.017
  350W        W 4094   8.442   5.604   0.614
  351W        W 4095   3.583   6.893  11.034
  352W        W 4096   6.979   4.084   1.885
  353W        W 4097   4.699   4.169  10.385
  354W        W 4098   8.548   7.599   9.024
  355W        W 4099   5.149  10.105  10.711
  356W        W 4100   8.540   7.674   9.537
  357W        W 4101   6.416   9.137   2.069
  358W        W 4102   2.273   1.264   1.687
  359W        W 4103   7.581   4.626   9.437
  360W        W 4104   0.879   0.850   0.301
  361W        W 4105   4.798   8.449   9.705
  362W        W 4106   5.303   4.774   0.319
  363W        W 4107   8.361   3.206   1.870
  364W        W 4108   0.435   0.799   1.373
  365W        W 4109   8.904   8.145   0.215
  366W        W 4110   5.177   3.045  11.384
  367W        W 4111   9.375   2.632   3.570
  368W        W 4112   2.197   1.880   3.015
  369W        W 4113   4.845   0.937   1.751
  370W        W 4114   8.444   0.230   1.754
  371W        W 4115   8.985   9.106  10.159
  372W        W 4116   9.242   1.384   1.093
  373W        W 4117   8.045   6.080   2.906
  374W        W 4118   6.142   3.716   0.676
  375W        W 4119   4.915   7.932   0.225
  376W        W 4120   8.715   9.781  10.962
  377W        W 4121   0.933   8.619   9.481
  378W        W 4122   5.693   9.436  10.210
  379W        W 4123   1.012   7.190   2.586
  380W        W 4124   1.930   0.909   1.784
  381W        W 4125   4.598   9.917   9.803
  382W        W 4126   6.704   9.702  11.727
  383W        W 4127   0.970   4.669   3.021
  384W        W 4128   7.132   3.557  10.465
  385W        W 4129   8.120   7.335   1.654
  386W        W 4130   4.760   2.160   2.904
  387W        W 4131   9.654   9.833   0.714
  388W        W 4132   8.479   9.580   3.206
  389W        W 4133   6.682   4.587   9.183
  390W        W 4134   7.030   9.449  10.235
  391W        W 4135   0.780   7.727   0.012
  392W        W 4136   5.445   7.568  10.477
  393W        W 4137   7.487   6.261  11.825
  394W        W 4138   1.631   0.514   1.701
  395W        W 4139   7.831   1.170   2.949
  396W        W 4140   0.935   3.760   8.788
  397W        W 4141   3.512   2.392  11.364
  398W        W 4142   4.057   9.640   9.785
  399W        W 4143   3.104   5.266   2.789
  400W        W 4144   7.181   4.342   3.336
  401W        W 4145   9.413   8.077   2.573
  402W        W 4146   7.713   1.428   9.506
  403W        W 4147   2.327   5.483   8.605
  404W        W 4148   8.188   3.749   2.894
  405W        W 4149   9.788   8.573   1.531
  406W        W 4150   7.564   4.591   3.134
  407W        W 4151   0.727  10.337   0.676
  408W        W 4152   2.610   2.696   2.259
  409W        W 4153   8.137   9.321   9.336
  410W        W 4154   1.744   4.492   8.688
  411W        W 4155   0.390   4.363   9.927
  412W        W 4156   7.894  10.264  10.566
  413W        W 4157   1.188   9.165  11.191
  414W        W 4158   7.038   8.199  11.933
  415W        W 4159   1.269   3.594   9.610
  416W        W 4160   6.358   9.775  11.320
  417W        W 4161   3.657   0.465   0.490
  418W        W 4162   9.238   7.195   2.919
  419W        W 4163   6.699   9.401  11.232
  420W        W 4164   8.064   1.217  10.131
  421W        W 4165   7.864   0.440   0.015
  422W        W 4166   7.751   2.709   8.820
  423W        W 4167  10.215   3.409   3.365
  424W        W 4168   0.962  10.495   1.699
  425W        W 4169   4.165   2.508  11.772
  426W        W 4170   4.749   4.117   2.204
  427W        W 4171   5.274   6.191   3.469
  428W        W 4172   7.470   8.577   3.648
  429W        W 4173   2.092   0.914   3.451
  430W        W 4174   4.255   0.828   1.864
  431W        W 4175  10.097   6.841  11.777
  432W        W 4176   1.981   9.129   1.246
  433W        W 4177   7.522   7.687   2.718
  434W        W 4178   1.764   2.102   0.358
  435W        W 4179   9.928   2.798  10.057
  436W        W 4180   0.235   4.657   9.539
  437W        W 4181   4.453   3.174   3.644
  438W        W 4182   6.516   5.027  11.572
  439W        W 4183   7.954   1.590   3.220
  440W        W 4184   1.881   0.617   8.902
  441W        W 4185   5.012   6.684   0.304
  442W        W 4186   3.724   3.731   1.965
  443W        W 4187   4.110   8.515  10.934
  444W        W 4188   1.383   0.446   2.855
  445W        W 4189   4.529   1.714   1.912
  446W        W 4190   8.142   5.712   9.222
  447W        W 4191   6.913   9.908   0.362
  448W        W 4192   3.449   0.768   0.861
  449W        W 4193   9.552   5.549   2.157
  450W        W 4194   6.640   9.926   3.024
  451W        W 4195   8.995   4.325   3.676
  452W        W 4196   5.080   5.252  11.404
  453W        W 4197   6.802   9.448   2.923
  454W        W 4198  10.399  10.341   2.446
  455W        W 4199   8.385   0.224  11.330
  456W        W 4200   2.858   1.291   8.787
  457W        W 4201   6.084   3.794  11.192
  458W        W 4202   0.763   8.609   1.768
  459W        W 4203   2.200   7.192   1.246
  460W        W 4204   9.507   9.551   2.391
  461W        W 4205   6.690   4.094  11.839
  462W        W 4206   6.943   4.137   9.285
  463W        W 4207   3.226   2.316   2.904
  464W        W 4208   8.164   3.736   0.282
  465W        W 4209   1.773   2.269  11.857
  466W        W 4210   8.044   1.078   3.418
  467W        W 4211   1.492  10.313  11.902
  468W        W 4212   5.484   6.636   9.448
  469W        W 4213   2.091   0.799   0.885
  470W        W 4214   5.950   8.175   0.513
  471W        W 4215  10.355   1.999   1.580
  472W        W 4216   6.629   4.095   9.682
  473W        W 4217   9.033   0.291   9.140
  474W        W 4218   8.003   4.665   2.899
  475W        W 4219   5.126   2.502   1.720
  476W        W 4220   3.119   8.206   2.655
  477W        W 4221   7.415   8.937  11.735
  478W        W 4222   2.885   0.353  11.810
  479W        W 4223  10.402   0.217   1.656
  480W        W 4224   1.955   0.878   0.392
  481W        W 4225   9.297   8.388   3.553
  482W        W 4226   9.830   6.400   9.001
  483W        W 4227   6.047   9.174  11.937
  484W        W 4228   9.405   6.642  10.819
  485W        W 4229   7.550   8.852   9.305
  486W        W 4230   2.385   4.229   9.873
  487W        W 4231   5.498   3.277   1.271
  488W        W 4232   4.496   9.956  11.320
  489W        W 4233   5.234   3.736   1.181
  490W        W 4234   5.047   0.771   9.777
  491W        W 4235   5.119   0.798   9.274
  492W        W 4236   1.295   4.953   3.544
  493W        W 4237   8.133   4.171  10.026
  494W        W 4238   2.908   2.408   3.303
  495W        W 4239   8.531   8.433  11.465
  496W        W 4240   9.775   2.358  10.293
  497W        W 4241   2.360   6.285   8.809
  498W        W 4242   5.960   6.296   9.492
  499W        W 4243   6.133   3.740   1.193
  500W        W 4244   2.800   7.415   1.002
  501W        W 4245   9.321   5.159  10.501
  502W        W 4246   6.834   2.121   1.681
  503W        W 4247   7.214   5.337   2.106
  504W        W 4248   6.111   6.023   2.527
  505W        W 4249   3.251   1.389   2.476
  506W        W 4250   0.087   3.897   0.777
  507W        W 4251   0.193   1.256   2.296
  508W        W 4252  10.070   3.970   8.720
  509W        W 4253   7.214   5.842   8.151
  510W        W 4254   2.772   5.860   9.472
  511W        W 4255  10.164   4.260  10.077
  512W        W 4256   2.171   5.189   2.934
  513W        W 4257   3.812   2.793  11.527
  514W        W 4258   8.315   6.493   0.044
  515W        W 4259   6.864   0.119  10.834
  516W        W 4260   6.659   4.544   1.902
  517W        W 4261   5.654   6.511   3.272
  518W        W 4262   6.179   3.702   2.801
  519W        W 4263   7.721   3.571   2.891
  520W        W 4264   6.573   5.948   1.820
  521W        W 4265   4.606   5.446   2.400
  522W        W 4266   2.915   3.162   0.405
  523W        W 4267   5.157   0.841   0.669
  524W        W 4268   1.428   7.582   1.147
  525W        W 4269   2.803   2.753  11.687
  526W        W 4270   6.429   1.471   2.838
  527W        W 4271   1.830   5.885   9.409
  528W        W 4272   3.573   2.376   2.194
  529W        W 4273   9.998   0.041  10.456
  530W        W 4274   6.505   1.664  10.074
  531W        W 4275   5.739   6.199   4.235
  532W        W 4276   6.715   7.028   0.106
  533W        W 4277   7.716   4.323  11.841
  534W        W 4278   9.330   8.584   9.496
  535W        W 4279   9.060  10.219  10.883
  536W        W 4280   9.130   4.668  10.563
  537W        W 4281   4.207   1.252  10.603
  538W        W 4282   9.905   4.740   1.217
  539W        W 4283   1.672   6.106   0.754
  540W        W 4284   9.662   4.174  10.049
  541W        W 4285   3.461   2.290   3.366
  542W        W 4286   0.461   5.267   9.770
  543W        W 4287   0.410   4.528   2.445
  544W        W 4288   2.402   6.039  10.317
  545W        W 4289   5.530  10.455  10.480
  546W        W 4290   1.959   0.666   2.245
  547W        W 4291   7.647   3.568   8.898
  548W        W 4292   7.985   1.856   9.335
  549W        W 4293   6.638   5.455   0.466
  550W        W 4294   9.804   7.173  10.529
  551W        W 4295  10.150   4.670  10.383
  552W        W 4296   3.752   6.626  10.640
  553W        W 4297   9.513   2.600   3.054
  554W        W 4298   7.555   1.139  11.471
  555W        W 4299   6.623   8.634   2.721
  556W        W 4300   4.562   1.813   3.285
  557W        W 4301   5.009   2.791   8.012
  558W        W 4302   4.191   0.596   9.888
  559W        W 4303   6.458   5.680   2.258
  560W        W 4304   8.917   5.086   9.547
  561W        W 4305   8.926   2.173   0.493
  562W        W 4306   8.440   2.802   2.199
  563W        W 4307   2.170   4.707   9.875
  564W        W 4308   1.373   0.712   0.362
  565W        W 4309   7.874   7.444   1.215
  566W        W 4310   6.914   3.151   1.227
  567W        W 4311  10.121   5.087  10.071
  568W        W 4312   0.795   2.775   9.708
  569W        W 4313   5.216   4.305   2.326
  570W        W 4314   1.197   4.774   9.624
  571W        W 4315   6.579   5.872   0.195
  572W        W 4316   2.019   8.018  11.925
  573W        W 4317   4.728   4.954  11.641
  574W        W 4318   0.639   1.678   1.727
  575W        W 4319   7.091   5.587  11.929
  576W        W 4320   3.347   1.892   2.177
  577W        W 4321   8.863   4.242   1.540
  578W        W 4322   0.361   9.901   1.791
  579W        W 4323   0.474   5.636   1.896
  580W        W 4324   8.495   8.907   8.784
  581W        W 4325   6.067   6.947   2.778
  582W        W 4326   6.245   6.543   9.866
  583W        W 4327   2.688   5.210   3.118
  584W        W 4328   7.131   6.529   9.384
  585W        W 4329   3.752   2.574   0.063
  586W        W 4330   3.258   8.226   0.561
  587W        W 4331   9.353   7.325   9.195
  588W        W 4332   6.683   9.247   0.678
  589W        W 4333   3.095   3.347   2.590
  590W        W 4334   9.421   7.539   2.480
  591W        W 4335   9.054   4.120   0.409
  592W        W 4336   4.504   4.106   0.675
  593W        W 4337   5.198   7.057   9.296
  594W        W 4338   5.111   9.922   9.027
  595W        W 4339   1.956   6.720   9.893
  596W        W 4340   3.778   6.056  10.483
  597W        W 4341   5.986   9.697   3.420
  598W        W 4342   9.441   3.790   0.433
  599W        W 4343   0.877   0.333  10.511
  600W        W 4344   2.295   4.567   1.012
  601W        W 4345   6.663   1.757   8.652
  602W        W 4346   2.697   3.527   3.374
  603W        W 4347   7.700   3.727   3.798
  604W        W 4348   6.050   3.213  10.805
  605W        W 4349   1.309   3.813   9.146
  606W        W 4350   9.528   4.743   1.952
  607W        W 4351   0.877   8.332  11.193
  608W        W 4352   3.527   1.563   3.394
  609W        W 4353   1.247   7.467   8.837
  610W        W 4354   4.800   1.021   1.220
  611W        W 4355   7.672   2.791   1.316
  612W        W 4356   1.331   2.396  11.051
  613W        W 4357   4.620   2.143  10.587
  614W        W 4358   3.235   9.739   9.171
  615W        W 4359   9.276   6.267   9.799
  616W        W 4360   4.081   8.403   9.078
  617W        W 4361   6.980   1.844  11.008
  618W        W 4362   4.115   5.998  11.785
  619W        W 4363   3.404   1.030   2.129
  620W        W 4364   9.046   1.691   0.649
  621W        W 4365   5.162   3.844   0.670
  622W        W 4366   3.361   5.008   9.848
  623W        W 4367   2.132   5.691  10.009
  624W        W 4368   4.548   2.827   8.813
  625W        W 4369   1.581   0.252   9.071
  626W        W 4370   6.943   7.031   3.504
  627W        W 4371   7.653   1.034   9.834
  628W        W 4372   2.398   7.360   0.224
  629W        W 4373   7.619   4.111  10.031
  630W        W 4374   6.136   8.361   1.879
  631W        W 4375   4.799   4.591   2.430
  632W        W 4376   7.247   3.629  11.968
  633W        W 4377   3.603   6.148   2.680
  634W        W 4378   4.763   7.356   0.972
  635W        W 4379   2.417   6.547  10.073
  636W        W 4380   7.507   0.828  11.857
  637W        W 4381   5.013   6.479  10.363
  638W        W 4382   3.206  10.300  11.414
  639W        W 4383   9.870   8.468   9.062
  640W        W 4384   9.207   5.739   0.698
  641W        W 4385   0.361   5.955   0.384
  642W        W 4386  10.079   2.790   1.784
  643W        W 4387   5.514   5.143  10.921
  644W        W 4388   2.143   2.078   9.948
  645W        W 4389   3.288   8.384  10.495
  646W        W 4390   4.731   0.021   2.004
  647W        W 4391  10.074   8.290   9.975
  648W        W 4392   5.671   4.139   9.532
  649W        W 4393   4.072   2.360   2.305
  650W        W 4394   4.497   4.218   1.187
  651W        W 4395   7.987  10.437   0.438
  652W        W 4396   9.450   6.734   9.886
  653W        W 4397   0.045   6.567  11.058
  654W        W 4398   1.778   6.961   3.288
  655W        W 4399   9.015   4.282   1.019
  656W        W 4400   1.932   8.786  10.536
  657W        W 4401   8.631   7.227   2.305
  658W        W 4402   9.827   1.373   0.251
  659W        W 4403   3.310   5.070   8.382
  660W        W 4404   2.321   2.100   1.025
  661W        W 4405   9.322   7.698   2.961
  662W        W 4406   6.725   5.989   8.740
  663W        W 4407   5.236   5.778   9.087
  664W        W 4408   7.606   5.697   2.142
  665W        W 4409   4.841   2.679  11.270
  666W        W 4410   9.080   2.331   1.372
  667W        W 4411   5.668   5.617   1.088
  668W        W 4412   5.901   8.625   1.504
  669W        W 4413   4.062   3.295   2.306
  670W        W 4414   6.108   0.342   2.481
  671W        W 4415   9.469   9.453   8.952
  672W        W 4416   3.809   0.047   1.689
  673W        W 4417   4.963   3.262   3.640
  674W        W 4418  10.071   3.616   1.711
  675W        W 4419   1.211   4.227   1.942
  676W        W 4420   0.475   3.380   3.497
  677W        W 4421   8.049   8.619  11.010
  678W        W 4422   6.516   3.601  11.726
  679W        W 4423   5.370  10.366   2.996
  680W        W 4424   5.054   6.062   1.408
  681W        W 4425   7.994   1.769   0.801
  682W        W 4426   0.826   0.944  11.808
  683W        W 4427   9.827   6.978   0.947
  684W        W 4428   1.959   3.696  11.922
  685W        W 4429   6.554   0.595   2.242
  686W        W 4430   0.287   2.047   1.861
  687W        W 4431   0.356   3.951  10.527
  688W        W 4432   6.230   4.682   0.518
  689W        W 4433   9.626   0.591   0.092
  690W        W 4434   0.515   4.743   1.965
  691W        W 4435   9.934   2.292   1.718
  692W        W 4436  10.264   7.795   9.853
  693W        W 4437   6.736   7.275   2.206
  694W        W 4438   0.830   8.550   2.267
  695W        W 4439   2.334   1.562   9.989
  696W        W 4440   8.633   6.529   1.891
  697W        W 4441   4.626   0.341   3.520
  698W        W 4442   1.955  10.452   3.323
  699W        W 4443   0.273   4.820  11.117
  700W        W 4444   7.217   1.857   8.591
  701W        W 4445   1.997   3.948   9.342
  702W        W 4446   3.737   7.622   2.598
  703W        W 4447   8.935   3.113   0.556
  704W        W 4448   7.828   3.116   3.116
  705W        W 4449   3.750   0.083   3.505
  706W        W 4450   8.018   8.336   3.095
  707W        W 4451   4.773   0.343   0.031
  708W        W 4452   5.226   6.028   1.950
  709W        W 4453   8.446   9.497   2.701
  710W        W 4454   1.330   5.565   8.463
  711W        W 4455   5.595   3.427   8.980
  712W        W 4456   7.897   5.230   9.078
  713W        W 4457   0.976   8.066   9.510
  714W        W 4458   2.325   6.986   8.907
  715W        W 4459   6.987  10.428   8.531
  716W        W 4460   7.134   7.404   1.872
  717W        W 4461   1.630  10.331   2.410
  718W        W 4462   3.219   0.335   0.787
  719W        W 4463   5.174   7.869  10.829
  720W        W 4464   7.119   4.216  10.930
  721W        W 4465   8.445   8.877   9.300
  722W        W 4466   5.680   8.928   2.189
  723W        W 4467   9.752   6.959   9.081
  724W        W 4468   5.121   7.160   0.469
  725W        W 4469   5.501   5.176   2.639
  726W        W 4470   6.440   7.438   0.378
  727W        W 4471   8.173   4.897   8.658
  728W        W 4472   6.411   7.406  11.192
  729W        W 4473   7.732   0.539   9.941
  730W        W 4474   1.416   1.468   1.716
  731W        W 4475   0.314   7.897   2.337
  732W        W 4476   1.578   8.417   1.623
  733W        W 4477   6.040   4.238  11.463
  734W        W 4478   0.086   4.710   0.425
  735W        W 4479   3.647   9.931   9.988
  736W        W 4480   9.533   5.270  10.977
  737W        W 4481   9.685   0.138  10.002
  738W        W 4482   3.791   1.908   0.423
  739W        W 4483   1.268   3.789   0.033
  740W        W 4484   0.430   5.721  11.028
  741W        W 4485   9.880   2.612   3.434
  742W        W 4486   1.181   7.801   3.298
  743W        W 4487   5.673   1.827   0.030
  744W        W 4488   2.139   9.267   8.963
  745W        W 4489   7.562   6.657   1.110
  746W        W 4490   5.649   9.559   8.852
  747W        W 4491   5.699   2.097   2.974
  748W        W 4492  10.058   3.523  10.714
  749W        W 4493   7.447   9.714   9.008
  750W        W 4494   1.767   7.585  11.825
  751W        W 4495   1.444   0.075  11.291
  752W        W 4496   4.335   6.665   1.597
  753W        W 4497   9.993   8.811  10.023
  754W        W 4498   0.575   0.006  10.804
  755W        W 4499   4.191  10.088   2.403
  756W        W 4500   5.326  10.070   9.513
  757W        W 4501   4.517   1.336   8.734
  758W        W 4502   0.448   0.829  10.999
  759W        W 4503   9.402   9.890   9.464
  760W        W 4504   2.069   3.187   0.027
  761W        W 4505   9.038   2.712  11.251
  762W        W 4506   7.282   7.915   9.115
  763W        W 4507   3.295   7.955   2.255
  764W        W 4508   1.352   1.983  10.723
  765W        W 4509   6.989   2.631   1.876
  766W        W 4510   8.969   3.136   0.055
  767W        W 4511   2.595  10.481   8.981
  768W        W 4512   2.173   8.952  11.797
  769W        W 4513   6.567   4.041   1.016
  770W        W 4514   9.893   9.996   9.282
  771W        W 4515   3.098   6.241   3.704
  772W        W 4516   1.708  10.414   1.268
  773W        W 4517   2.152   9.466   2.732
  774W        W 4518   9.613   8.441   0.304
  775W        W 4519   3.350   1.926  10.362
  776W        W 4520   1.325   0.682   1.224
  777W        W 4521   7.397   8.161  10.074
  778W        W 4522   2.745   6.420  10.972
  779W        W 4523   3.794   4.780   0.560
  780W        W 4524   7.702   5.773   1.327
  781W        W 4525   6.187   7.031  11.477
  782W        W 4526   0.347   2.294   1.411
  783W        W 4527   6.160   5.482   0.992
  784W        W 4528   5.557   6.022  10.234
  785W        W 4529   5.077   3.309   2.225
  786W        W 4530   0.845   6.200  11.510
  787W        W 4531   5.779   1.244  10.251
  788W        W 4532   6.384   9.506   3.197
  789W        W 4533   5.598   6.741   2.820
  790W        W 4534   0.081   2.111   8.641
  791W        W 4535   4.299   3.086   1.880
  792W        W 4536   6.634   0.337   1.357
  793W        W 4537   2.672   5.605   9.008
  794W        W 4538   0.158   9.425   3.289
  795W        W 4539   3.240   0.794   1.701
  796W        W 4540   0.264   6.554  10.584
  797W        W 4541   3.109   4.291   2.774
  798W        W 4542   4.277   9.341   8.883
  799W        W 4543   1.246   1.858   2.988
  800W        W 4544   3.011   4.291   8.576
  801W        W 4545   8.272   1.056  10.999
  802W        W 4546   7.262   2.829   0.021
  803W        W 4547   5.182   6.516   1.170
  804W        W 4548   7.231   4.233   8.538
  805W        W 4549  10.019   3.985  10.915
  806W        W 4550   4.786   0.345  11.517
  807W        W 4551   4.152   2.771   9.610
  808W        W 4552   8.875   0.238   8.652
  809W        W 4553   6.790   5.347   1.296
  810W        W 4554   9.342   4.088   1.370
  811W        W 4555   8.969   7.918   1.796
  812W        W 4556   7.046   7.548  10.377
  813W        W 4557   0.950   0.827  10.228
  814W        W 4558   3.718   4.026   3.748
  815W        W 4559   4.675   9.341  10.946
  816W        W 4560   7.549   7.315   3.614
  817W        W 4561  10.259   9.480  10.487
  818W        W 4562   6.923   3.682   9.540
  819W        W 4563  10.245   7.443  10.538
  820W        W 4564   5.630   2.247  11.188
  821W        W 4565   1.060   1.416   8.985
  822W        W 4566   0.125   5.571   9.527
  823W        W 4567   5.120   0.958   3.455
  824W        W 4568   3.600   4.239   1.821
  825W        W 4569   3.767   7.858   2.092
  826W        W 4570   7.111   1.197   0.796
  827W        W 4571   5.990   8.377  11.490
  828W        W 4572   2.501   6.906   2.972
  829W        W 4573   6.730   1.480   2.237
  830W        W 4574   8.048   2.872  11.212
  831W        W 4575   4.501   1.627   0.889
  832W        W 4576   8.544   9.498  10.572
  833W        W 4577   2.692   2.630   9.426
  834W        W 4578   7.905  10.169  10.070
  835W        W 4579   2.565   0.708   3.325
  836W        W 4580   7.387   5.587   8.580
  837W        W 4581   7.930   6.547  11.195
  838W        W 4582   6.034   3.287   0.925
  839W        W 4583   5.614   6.755   1.928
  840W        W 4584   9.203   1.093   2.028
  841W        W 4585   7.122   4.720   0.235
  842W        W 4586   4.844   6.183   0.369
  843W        W 4587   1.083   9.677  11.304
  844W        W 4588   0.716   9.868   2.481
  845W        W 4589   4.774   4.720   0.418
  846W        W 4590   4.748   3.689   9.502
  847W        W 4591   2.228   7.354  11.749
  848W        W 4592   6.207   4.242  11.945
  849W        W 4593   9.961   9.954   3.391
  850W        W 4594   6.568   8.365  10.372
  851W        W 4595   2.889   2.680  10.295
  852W        W 4596   7.931   4.701   8.269
  853W        W 4597   3.350   5.744   2.827
  854W        W 4598   1.780   1.720   2.317
  855W        W 4599   3.102   6.476   2.201
  856W        W 4600   4.063   8.620  11.430
  857W        W 4601   3.355   8.559   1.440
  858W        W 4602   2.152   2.428   2.267
  859W        W 4603   7.745   2.479   9.982
  860W        W 4604   2.280   3.798   3.190
  861W        W 4605   6.683   7.070  11.436
  862W        W 4606   0.556   8.623   3.217
  863W        W 4607   2.771   6.015   0.069
  864W        W 4608   6.665   4.779   2.394
  865W        W 4609   1.306   7.271  11.662
  866W        W 4610   8.895   7.457  10.853
  867W        W 4611   1.150   9.315   3.038
  868W        W 4612   3.663   2.756  10.031
  869W        W 4613   8.067   6.454  10.711
  870W        W 4614   6.452   3.243   0.556
  871W        W 4615   8.672   3.552   2.063
  872W        W 4616   9.531   6.630   1.181
  873W        W 4617   4.181   9.808  10.944
  874W        W 4618   1.459   0.507   2.319
  875W        W 4619   7.872   3.287  10.478
  876W        W 4620   0.311   3.229   9.118
  877W        W 4621   1.775   5.058   3.245
  878W        W 4622   4.116   0.418  10.750
  879W        W 4623   2.605   6.596   2.148
  880W        W 4624   0.531   0.906   9.927
  881W        W 4625   7.505   9.958   1.028
  882W        W 4626   2.048   1.013  11.800
  883W        W 4627   7.459   4.961   9.818
  884W        W 4628   8.468   4.668  10.792
  885W        W 4629  10.055   0.934  10.599
  886W        W 4630   9.654   6.641   2.201
  887W        W 4631   9.373   6.126  10.728
  888W        W 4632   4.973   2.614   8.990
  889W        W 4633   8.448   4.544   8.908
  890W        W 4634   4.689   2.196  11.449
  891W        W 4635  10.242   7.980   1.444
  892W        W 4636   9.090   2.835   0.969
  893W        W 4637   6.571   5.122   0.880
  894W        W 4638   8.164   3.664   8.936
  895W        W 4639  10.403   3.261   9.425
  896W        W 4640   0.674   9.752  10.454
  897W        W 4641   0.891   0.945   1.216
  898W        W 4642   8.111   4.785  11.225
  899W        W 4643   9.410   9.426  10.467
  900W        W 4644   0.493   7.569   0.839
  901W        W 4645   4.001   7.707   1.279
  902W        W 4646   3.582  10.027   0.483
  903W        W 4647   4.738   1.744   8.948
  904W        W 4648   5.626   9.394  11.751
  905W        W 4649   4.273   3.626   0.673
  906W        W 4650   7.552   7.632  10.305
  907W        W 4651   0.821   8.026   2.434
  908W        W 4652   2.557   1.164  11.462
  909W        W 4653   0.931   9.145   1.888
  910W        W 4654   0.777   3.063   2.326
  911W        W 4655   8.045   9.307   3.158
  912W        W 4656   7.557   1.012   3.347
  913W        W 4657   8.523   0.505   0.614
  914W        W 4658   8.417   1.972  11.945
  915W        W 4659   6.986   1.485   0.411
  916W        W 4660   6.316   2.719   3.220
  917W        W 4661   2.226   9.367  11.270
  918W        W 4662   8.111   1.373   9.167
  919W        W 4663   1.698   7.213   8.900
  920W        W 4664   2.150   4.103  10.744
  921W        W 4665   6.524   0.729   0.406
  922W        W 4666   9.885   2.738  11.121
  923W        W 4667   6.413   6.808  10.553
  924W        W 4668   0.952   8.747  10.356
  925W        W 4669   3.529   0.956   1.319
  926W        W 4670   3.329   6.808   0.217
  927W        W 4671  10.025   7.343  11.872
  928W        W 4672   8.877   4.196  10.492
  929W        W 4673   7.040   6.962   9.984
  930W        W 4674   1.526   8.193  11.923
  931W        W 4675   9.072   9.483  11.832
  932W        W 4676   0.571   9.128  11.124
  933W        W 4677   5.463   6.625   4.053
  934W        W 4678   8.382  10.035   8.365
  935W        W 4679   0.568   4.838   0.543
  936W        W 4680   9.360   6.177   8.755
  937W        W 4681   6.620   3.751   1.437
  938W        W 4682   9.443   6.399  10.281
  939W        W 4683   4.363  10.349   2.890
  940W        W 4684   3.870   7.322   2.184
  941W        W 4685   8.429   0.728  11.359
  942W        W 4686   4.563   5.776  11.901
  943W        W 4687   8.728   9.332   2.180
  944W        W 4688   3.664   6.052   1.287
  945W        W 4689   8.311   9.454   0.884
  946W        W 4690   5.207   5.242   9.542
  947W        W 4691   7.911   4.038   1.130
  948W        W 4692   1.832   1.608   0.525
  949W        W 4693   5.132   5.231   0.824
  950W        W 4694   1.713   4.151   3.190
  951W        W 4695   3.287   8.376   9.528
  952W        W 4696   9.920   3.133   9.200
  953W        W 4697   6.100   2.460  10.347
  954W        W 4698   1.883   9.387  10.828
  955W        W 4699   5.612   6.507   2.370
  956W        W 4700   2.618   9.977   9.121
  957W        W 4701   0.986   9.037   2.410
  958W        W 4702   3.821   9.381  11.763
  959W        W 4703   2.639   8.030   3.320
  960W        W 4704   4.612   4.078   8.894
  961W        W 4705   3.690   7.571   3.434
  962W        W 4706   2.395   0.283  11.816
  963W        W 4707   5.667   8.029  11.306
  964W        W 4708   1.423   5.666   2.486
  965W        W 4709   5.259   0.954  11.344
  966W        W 4710   7.513   6.960   8.657
  967W        W 4711   2.900   3.179   8.920
  968W        W 4712   2.624   8.940   9.981
  969W        W 4713   5.647   7.566   8.862
  970W        W 4714   4.073   2.230   8.887
  971W        W 4715   5.960   6.798   9.505
  972W        W 4716   9.830  10.281  11.443
  973W        W 4717   4.251   0.347   2.765
  974W        W 4718   7.322   1.032   2.893
  975W        W 4719   4.160   8.540   2.707
  976W        W 4720   1.858   5.075   9.995
  977W        W 4721   8.886   4.536   2.017
  978W        W 4722   3.203   6.095   9.650
  979W        W 4723   9.010   0.838  11.425
  980W        W 4724   5.542   1.678  10.532
  981W        W 4725   2.791   8.080   1.793
  982W        W 4726   6.642   8.141   2.800
  983W        W 4727   6.648  10.028   1.022
  984W        W 4728   6.701   4.444   0.642
  985W        W 4729   4.827   9.827   0.901
  986W        W 4730  10.425   1.427   0.822
  987W        W 4731  10.318   4.718  11.384
  988W        W 4732   3.543   5.271   9.417
  989W        W 4733   5.460   4.336   1.662
  990W        W 4734   0.155   0.190   2.108
  991W        W 4735   0.862   7.124   3.572
  992W        W 4736   4.548   2.661   2.779
  993W        W 4737   1.162   6.118  10.851
  994W        W 4738   9.090   9.732   2.172
  995W        W 4739   8.807   9.879  11.525
  996W        W 4740   6.862   8.334   2.363
  997W        W 4741   0.218   9.189   2.401
  998W        W 4742   8.933   0.054  10.487
  999W        W 4743  10.294   3.248  11.365
 1000W        W 4744   2.375   2.052   2.027
 1001W        W 4745   7.822   3.295   1.103
 1002W        W 4746   0.784   0.512  11.568
 1003W        W 4747   5.141   4.635   3.191
 1004W        W 4748   2.282   7.834   0.370
 1005W        W 4749   9.879   9.255   2.622
 1006W        W 4750   4.045   3.943   9.149
 1007W        W 4751   5.348   7.893   2.651
 1008W        W 4752   6.581   5.712  11.717
 1009W        W 4753   5.945   2.245  10.771
 1010W        W 4754   5.688   8.572   0.715
 1011W        W 4755  10.308  10.019  11.785
 1012W        W 4756   1.691   9.050   9.133
 1013W        W 4757   2.574   2.702   3.573
 1014W        W 4758   7.424   1.326   1.693
 1015W        W 4759   1.121   1.871   1.606
 1016W        W 4760   3.150   6.122  11.765
 1017W        W 4761   7.932   9.138   0.789
 1018W        W 4762   3.525   7.713   1.654
 1019W        W 4763   3.677   4.694   8.232
 1020W        W 4764   7.095   4.730  10.391
 1021W        W 4765   9.418   3.743  10.156
 1022W        W 4766   8.544   5.694   3.063
 1023W        W 4767   4.004   4.435   1.558
 1024W        W 4768   9.159   3.585  11.342
 1025W        W 4769   9.542   6.356   0.160
 1026W        W 4770   2.497   2.632   3.071
 1027W        W 4771   9.327   7.830  11.498
 1028W        W 4772   8.361  10.194   0.194
 1029W        W 4773   5.554  10.497   8.849
 1030W        W 4774   5.795   9.871   9.598
 1031W        W 4775   1.334   0.773   9.521
 1032W        W 4776   1.245   5.099   3.030
 1033W        W 4777   5.660  10.400   1.975
 1034W        W 4778   5.756   0.686   1.319
 1035W        W 4779   1.877   8.595   3.158
 1036W        W 4780   1.207   1.099   3.638
 1037W        W 4781  10.459   1.787  10.098
 1038W        W 4782   2.309   3.642  11.086
 1039W        W 4783   8.867   5.733   2.658
 1040W        W 4784   8.142   9.252   9.837
 1041W        W 4785   5.229   3.528   1.745
 1042W        W 4786   1.891   8.460  10.149
 1043W        W 4787   5.592   3.692  11.952
 1044W        W 4788   8.328   3.328  10.804
 1045W        W 4789   6.549   8.540   9.830
 1046W        W 4790   2.801   0.386   9.781
 1047W        W 4791   7.526   0.286   2.278
 1048W        W 4792  10.231   5.101   3.208
 1049W        W 4793   1.335   5.916   3.408
 1050W        W 4794   4.585   1.878  11.054
 1051W        W 4795   4.272   3.321  11.264
 1052W        W 4796   8.252  10.209   8.836
 1053W        W 4797   9.747   4.012   1.686
 1054W        W 4798  10.169   5.992   9.001
 1055W        W 4799   2.569   4.503   8.762
 1056W        W 4800   6.657   7.538   1.749
 1057W        W 4801   5.785   6.203  11.513
 1058W        W 4802   6.863   5.146   9.517
 1059W        W 4803   0.924   3.568  10.820
 1060W        W 4804   4.067   0.204  11.217
 1061W        W 4805   9.978   3.241   9.724
 1062W        W 4806   0.814   7.973   3.011
 1063W        W 4807   1.359   9.984  10.609
 1064W        W 4808   0.610   0.554   9.128
 1065W        W 4809   7.125   1.063   8.924
 1066W        W 4810   0.775   2.586   3.036
 1067W        W 4811   8.706   7.303  11.844
 1068W        W 4812   7.140   3.372   8.920
 1069W        W 4813   4.425   0.025   2.409
 1070W        W 4814   7.842   5.180  11.437
 1071W        W 4815   9.567   7.127  10.992
 1072W        W 4816   4.144  10.087  10.022
 1073W        W 4817   6.990   6.098   9.614
 1074W        W 4818   0.116   7.462   9.573
 1075W        W 4819   7.098   4.657   4.262
 1076W        W 4820   7.457   0.865  10.891
 1077W        W 4821   5.252   8.298   0.491
 1078W        W 4822   4.768   9.325   0.920
 1079W        W 4823   9.253   1.603   1.961
 1080W        W 4824   5.148   8.970   1.970
 1081W        W 4825   3.624   8.579   8.929
 1082W        W 4826   6.942   0.178  11.827
 1083W        W 4827   9.895   1.843   1.445
 1084W        W 4828   7.572   5.404  11.003
 1085W        W 4829   8.673   6.831   1.470
 1086W        W 4830   5.783   4.651   1.368
 1087W        W 4831   5.102  10.448   1.551
 1088W        W 4832   8.348   6.222   2.176
 1089W        W 4833   6.146   3.680   1.701
 1090W        W 4834  10.388   1.284   2.722
 1091W        W 4835   3.556   2.751   1.844
 1092W        W 4836   5.263   8.991  11.463
 1093W        W 4837   1.758   7.175   9.807
 1094W        W 4838   9.862   7.074   2.991
 1095W        W 4839   3.691   9.605   0.210
 1096W        W 4840   6.867   2.227  10.683
 1097W        W 4841   9.428   1.207   9.966
 1098W        W 4842   5.341   0.428  10.585
 1099W        W 4843   3.284  10.185  10.898
 1100W        W 4844   8.150   8.393   0.306
 1101W        W 4845   6.484   3.292   2.818
 1102W        W 4846   4.630   7.869   2.307
 1103W        W 4847   2.326   8.356   1.404
 1104W        W 4848   6.089   9.683  10.463
 1105W        W 4849   6.088   1.043   0.165
 1106W        W 4850   3.297   0.503   2.790
 1107W        W 4851   3.893   4.663   2.724
 1108W        W 4852   2.860   3.575  11.740
 1109W        W 4853   5.285   1.352  10.996
 1110W        W 4854   2.939   4.594   9.618
 1111W        W 4855   6.293   1.425  10.519
 1112W        W 4856   3.224   4.556  11.570
 1113W        W 4857   6.566  10.225   0.550
 1114W        W 4858   9.865   1.406  10.682
 1115W        W 4859   0.145   8.310   0.362
 1116W        W 4860   3.416   3.658  10.375
 1117W        W 4861   0.178   6.181   9.854
 1118W        W 4862   4.952   5.629  10.262
 1119W        W 4863   6.167   6.498   1.219
 1120W        W 4864   5.639   3.134  11.145
 1121W        W 4865   4.680   9.108   9.148
 1122W        W 4866   9.528   9.587   0.034
 1123W        W 4867   4.994   4.514   1.850
 1124W        W 4868   1.748   6.013   9.914
 1125W        W 4869   2.196   9.487   9.855
 1126W        W 4870   0.374   2.752   1.163
 1127W        W 4871   2.977   5.928   0.552
 1128W        W 4872   2.245   0.928  10.559
 1129W        W 4873   0.183   1.675  11.069
 1130W        W 4874   3.562   1.711  11.996
 1131W        W 4875   9.964   6.156   1.365
 1132W        W 4876   8.085   7.233   8.652
 1133W        W 4877   5.976   7.478   1.510
 1134W        W 4878   3.684   3.509   1.469
 1135W        W 4879   8.469   5.907   9.577
 1136W        W 4880   0.998   5.892   9.373
 1137W        W 4881   2.811   8.881   2.155
 1138W        W 4882   4.807   3.131   2.713
 1139W        W 4883   9.901   6.017   0.001
 1140W        W 4884   5.021   4.218   8.611
 1141W        W 4885  10.417   7.248   0.208
 1142W        W 4886   9.576   7.042  11.927
 1143W        W 4887   7.575   5.779  11.919
 1144W        W 4888   3.717   1.425   9.356
 1145W        W 4889   0.774   7.044  10.585
 1146W        W 4890   9.197   1.755  10.803
 1147W        W 4891   8.943   3.317   1.074
 1148W        W 4892  10.306   0.473   0.695
 1149W        W 4893   0.282   6.964  10.250
 1150W        W 4894   8.418   5.033   9.640
 1151W        W 4895   0.268   2.653   3.138
 1152W        W 4896   4.416   9.535  10.122
 1153W        W 4897   7.906  10.191   9.547
 1154W        W 4898   2.686   5.670   1.723
 1155W        W 4899   7.198   7.012   0.212
 1156W        W 4900   5.441   7.288   3.701
 1157W        W 4901   8.350  10.485  11.768
 1158W        W 4902   6.482   1.380   9.624
 1159W        W 4903   1.790   4.283   0.629
 1160W        W 4904   9.892   8.894  11.561
 1161W        W 4905   3.524   7.545   1.170
 1162W        W 4906   1.626   3.138   2.970
 1163W        W 4907   6.970   6.058   0.960
 1164W        W 4908   0.485   2.119   0.935
 1165W        W 4909   7.177   9.328   3.264
 1166W        W 4910   2.674   1.933   9.916
 1167W        W 4911   3.698   8.862   0.905
 1168W        W 4912   1.362   0.870  10.533
 1169W        W 4913   9.969   5.693  10.302
 1170W        W 4914   8.742  10.046  10.517
 1171W        W 4915   3.125   9.805  11.344
 1172W        W 4916   1.830   5.756  11.236
 1173W        W 4917   0.805   1.394   3.500
 1174W        W 4918   9.542   7.053   3.429
 1175W        W 4919  10.342   9.858   1.688
 1176W        W 4920   5.746   7.021   2.365
 1177W        W 4921   7.409   5.611   9.100
 1178W        W 4922   2.847   4.816   2.801
 1179W        W 4923   9.492   3.561   3.327
 1180W        W 4924   9.550   4.502   0.425
 1181W        W 4925   5.710   1.325   8.735
 1182W        W 4926   7.054   3.968   2.411
 1183W        W 4927   5.667   3.727   1.979
 1184W        W 4928   7.686   3.828  11.866
 1185W        W 4929   7.170   2.653  10.616
 1186W        W 4930  10.423   4.373   0.772
 1187W        W 4931   7.193   1.236  11.856
 1188W        W 4932   2.915   2.954   8.436
 1189W        W 4933   5.540   2.221   8.798
 1190W        W 4934   8.152   1.900   2.834
 1191W        W 4935   3.333   0.532   2.268
 1192W        W 4936   7.939   7.395   2.709
 1193W        W 4937   0.279   1.345   9.827
 1194W        W 4938   2.361   1.870   8.627
 1195W        W 4939   0.621   8.892   0.952
 1196W        W 4940   6.198   6.000   1.042
 1197W        W 4941   9.087   3.733  10.541
 1198W        W 4942   4.268   1.167   0.844
 1199W        W 4943   2.652   3.809   0.620
 1200W        W 4944   7.889   5.106   0.217
 1201W        W 4945   7.840   8.284  11.333
 1202W        W 4946   7.935   6.610  11.695
 1203W        W 4947   1.263   7.328   3.080
 1204W        W 4948   1.443   6.510  11.008
 1205W        W 4949   7.595   7.873  11.058
 1206W        W 4950   1.619   2.657   3.204
 1207W        W 4951   6.053   1.967   0.720
 1208W        W 4952   2.227   8.579   2.297
 1209W        W 4953   6.901   7.862   9.995
 1210W        W 4954   1.396   5.584   9.447
 1211W        W 4955   1.867   5.907  10.408
 1212W        W 4956   1.727   7.715   8.774
 1213W        W 4957   7.193   1.484  11.330
 1214W        W 4958   2.277   3.779   8.895
 1215W        W 4959  10.014   3.805  10.272
 1216W        W 4960   0.018   9.379   1.408
 1217W        W 4961   9.846   5.519   9.819
 1218W        W 4962   7.667   9.451   8.589
 1219W        W 4963   3.175   2.769   9.351
 1220W        W 4964   7.294   4.417   0.601
 1221W        W 4965   2.960   7.555   8.632
 1222W        W 4966   4.074   7.912   3.383
 1223W        W 4967   3.538   3.163   3.251
 1224W        W 4968   8.199   4.688   0.172
 1225W        W 4969   5.619   1.729   2.476
 1226W        W 4970   3.134   4.089  10.819
 1227W        W 4971   9.526   0.705  11.598
 1228W        W 4972   5.646   8.468   0.213
 1229W        W 4973   2.146   7.331  11.237
 1230W        W 4974   4.591   5.023  10.803
 1231W        W 4975   3.746   1.327  10.377
 1232W        W 4976   2.253   8.341   9.031
 1233W        W 4977   8.921   0.058   1.880
 1234W        W 4978   6.037   5.808   9.571
 1235W        W 4979   0.902  10.020   3.369
 1236W        W 4980   5.710   9.583   3.007
 1237W        W 4981   9.411   1.731   1.492
 1238W        W 4982   3.516   1.714   0.800
 1239W        W 4983   6.997   0.278   9.523
 1240W        W 4984   9.500   0.969   0.907
 1241W        W 4985   9.337   9.619   2.867
 1242W        W 4986   9.320   5.094   9.219
 1243W        W 4987   1.526   7.777   2.940
 1244W        W 4988   2.196   5.795   2.343
 1245W        W 4989   6.192   6.451   3.855
 1246W        W 4990   5.284   3.772   2.315
 1247W        W 4991   0.505   8.284   9.505
 1248W        W 4992   6.220   2.709  10.773
 1249W        W 4993   5.136   3.761   7.992
 1250W        W 4994   4.280   3.898  10.345
 1251W        W 4995   7.391   6.795   3.672
 1252W        W 4996   5.379   7.075  10.565
 1253W        W 4997   6.030   8.379   9.571
 1254W        W 4998   7.204   7.322   0.652
 1255W        W 4999   5.083   0.707   2.133
 1256W        W 5000   4.751   2.703  10.761
 1257W        W 5001   3.330   2.814   0.259
 1258W        W 5002   7.963   0.934   8.852
 1259W        W 5003   6.004   3.908  10.186
 1260W        W 5004   2.172   5.778   8.987
 1261W        W 5005   2.784   4.700   1.941
 1262W        W 5006   9.718   7.146   1.447
 1263W        W 5007   8.564   3.373   3.363
 1264W        W 5008   5.001   7.983   9.756
 1265W        W 5009   1.690   4.695   9.692
 1266W        W 5010   9.137   8.194   9.227
 1267W        W 5011   7.484   5.196   3.623
 1268W        W 5012   6.502   7.344   2.741
 1269W        W 5013   4.554   8.131  10.023
 1270W        W 5014   4.505   9.704   8.553
 1271W        W 5015   7.819  10.415  11.955
 1272W        W 5016   4.135   1.403   0.391
 1273W        W 5017   1.255   6.456   0.304
 1274W        W 5018   8.106   8.913   0.333
 1275W        W 5019   0.152   6.828   8.627
 1276W        W 5020   4.605   5.023   2.668
 1277W        W 5021   9.345   2.422   9.975
 1278W        W 5022  10.154   0.353   9.978
 1279W        W 5023   1.820   1.652  10.055
 1280W        W 5024   1.276   2.203   1.160
 1281W        W 5025   7.956   8.823   3.321
 1282W        W 5026  10.275   6.486   9.648
 1283W        W 5027   0.471   3.459  10.604
 1284W        W 5028   7.053   5.378   0.769
 1285W        W 5029   5.608   9.405   1.463
 1286W        W 5030   3.492   8.415   3.155
 1287W        W 5031   7.469   5.029   0.480
 1288W        W 5032   7.225   9.283   1.919
 1289W        W 5033   9.132   1.351   0.217
 1290W        W 5034   2.854   4.013   3.291
 1291W        W 5035   9.747   0.508   1.885
 1292W        W 5036   1.827   5.555   0.254
 1293W        W 5037   3.110  10.487   9.632
 1294W        W 5038   1.830  10.326  11.523
 1295W        W 5039  10.232   1.930   2.074
 1296W        W 5040   6.879   7.617   1.238
 1297W        W 5041   6.482   3.538  10.744
 1298W        W 5042   8.747  10.431   9.476
 1299W        W 5043   3.212   6.003   2.348
 1300W        W 5044   4.470   4.616   0.823
 1301W        W 5045  10.477   5.431   2.353
 1302W        W 5046   3.067   0.676   3.223
 1303W        W 5047   6.709   5.553  10.841
 1304W        W 5048   8.921   7.649   0.362
 1305W        W 5049   8.428   8.610   3.304
 1306W        W 5050   2.410   0.292   9.433
 1307W        W 5051   8.397   1.808   0.433
 1308W        W 5052   0.515   2.415   8.497
 1309W        W 5053   0.707   4.161   2.224
 1310W        W 5054   6.976   2.271   8.831
 1311W        W 5055   4.648   7.087   1.641
 1312W        W 5056   0.375   6.418  11.911
 1313W        W 5057   3.171   7.636   3.244
 1314W        W 5058   4.146   7.880   9.784
 1315W        W 5059   2.512   9.595   8.788
 1316W        W 5060   7.667   6.528   1.565
 1317W        W 5061   6.849   2.322  11.739
 1318W        W 5062   1.167   7.554  11.258
 1319W        W 5063   4.586   9.933   2.696
 1320W        W 5064   7.860   6.051   4.129
 1321W        W 5065   4.848   1.318  11.252
 1322W        W 5066   6.558   5.851   2.740
 1323W        W 5067   9.915   7.483   1.822
 1324W        W 5068   6.488   0.972   9.302
 1325W        W 5069   2.377   1.468   9.015
 1326W        W 5070   4.775   6.501   1.810
 1327W        W 5071   4.616   6.144  10.375
 1328W        W 5072   6.979   9.432   1.468
 1329W        W 5073   4.153   4.696   9.961
 1330W        W 5074   2.704   3.219  10.860
 1331W        W 5075   4.196   0.345   1.193
 1332W        W 5076   7.700   8.309   0.527
 1333W        W 5077   9.358   0.230   9.555
 1334W        W 5078   2.809   1.451   9.815
 1335W        W 5079   3.202   4.092  11.319
 1336W        W 5080   7.420   9.757   0.474
 1337W        W 5081   1.219   6.522   1.705
 1338W        W 5082  10.418   0.166   1.138
 1339W        W 5083   8.862   3.180   9.531
 1340W        W 5084   6.079   7.372   3.069
 1341W        W 5085   5.106   7.409  10.083
 1342W        W 5086   7.717   7.309   9.942
 1343W        W 5087   3.811   2.252   1.774
 1344W        W 5088   2.585   3.173  11.947
 1345W        W 5089   3.932   2.631   8.585
 1346W        W 5090   7.905   7.040   9.544
 1347W        W 5091   3.874   3.641  11.051
 1348W        W 5092   6.087   0.390   0.785
 1349W        W 5093   2.185   4.385   8.438
 1350W        W 5094   6.225   0.035  10.840
 1351W        W 5095   7.524   2.953   2.303
 1352W        W 5096   5.555   4.364  11.407
 1353W        W 5097   8.208   5.782   3.850
 1354W        W 5098   9.010   7.706   9.306
 1355W        W 5099   4.722   7.233   9.475
 1356W        W 5100   7.922   1.152   1.918
 1357W        W 5101   7.859   8.351   9.831
 1358W        W 5102   3.698   1.410   1.489
 1359W        W 5103   7.426   7.421  11.257
 1360W        W 5104   6.568   6.857   2.714
 1361W        W 5105   8.448   4.579   3.104
 1362W        W 5106   7.800   5.090   7.972
 1363W        W 5107   4.578  10.358  10.071
 1364W        W 5108   5.787   4.594   2.929
 1365W        W 5109   9.717  10.459   1.251
 1366W        W 5110  10.067   0.515  11.807
 1367W        W 5111   5.103   6.149  11.052
 1368W        W 5112   2.278   6.236   3.784
 1369W        W 5113   1.923   1.114   8.826
 1370W        W 5114   1.817   3.199  10.993
 1371W        W 5115   4.084   2.373   0.458
 1372W        W 5116   9.351   0.409   8.698
 1373W        W 5117   2.883   4.011   2.383
 1374W        W 5118   8.951   2.713  10.744
 1375W        W 5119   4.467   6.774  11.808
 1376W        W 5120   0.135   9.309  11.288
 1377W        W 5121  10.298   6.381   2.521
 1378W        W 5122   5.829   7.689   1.956
 1379W        W 5123   2.654   9.916   3.249
 1380W        W 5124   8.395   4.156   9.564
 1381W        W 5125   5.736   8.317   1.146
 1382W        W 5126   4.719   3.232   9.693
 1383W        W 5127   2.628   1.211  10.270
 1384W        W 5128   7.801  10.322   1.233
 1385W        W 5129   8.292   0.242   0.217
 1386W        W 5130   7.130   8.812   3.306
 1387W        W 5131   7.848   9.376   2.661
 1388W        W 5132   2.258   9.846   1.407
 1389W        W 5133   5.988   2.960  10.357
 1390W        W 5134   7.227   7.884   1.694
 1391W        W 5135   1.700   2.648   9.533
 1392W        W 5136   5.429   0.853  10.873
 1393W        W 5137   9.977   0.620   3.204
 1394W        W 5138   1.262   0.537  11.407
 1395W        W 5139   8.546   1.806   1.396
 1396W        W 5140   2.436   2.202   9.553
 1397W        W 5141   1.960   3.316   1.507
 1398W        W 5142   5.707   8.226   2.744
 1399W        W 5143   1.013   2.329   9.579
 1400W        W 5144   0.702   2.877  11.418
 1401W        W 5145   7.681   1.980  10.265
 1402W        W 5146   5.454   0.832   3.088
 1403W        W 5147   3.941   5.630  10.223
 1404W        W 5148   2.908   4.531  10.977
 1405W        W 5149   8.947   6.209   2.828
 1406W        W 5150   5.573   2.042   0.962
 1407W        W 5151   1.614   8.053  10.057
 1408W        W 5152   2.677   6.977   3.455
 1409W        W 5153   7.672   1.411   3.627
 1410W        W 5154   2.780   3.735   1.961
 1411W        W 5155  10.355   3.068   8.924
 1412W        W 5156   9.105   6.674   2.658
 1413W        W 5157   1.212   3.316   0.233
 1414W        W 5158   5.531   0.906   8.486
 1415W        W 5159   3.574   3.220  10.663
 1416W        W 5160   1.428   2.261   9.310
 1417W        W 5161   0.460   6.868  10.949
 1418W        W 5162   2.142   7.679   1.192
 1419W        W 5163   1.330   4.312   8.993
 1420W        W 5164   2.570   2.691   0.846
 1421W        W 5165   9.087   5.549   9.261
 1422W        W 5166   0.289   4.135  11.929
 1423W        W 5167   2.442   0.839   1.925
 1424W        W 5168   2.373   6.089   9.799
 1425W        W 5169   5.007   3.765   9.048
 1426W        W 5170   8.898   5.304   0.437
 1427W        W 5171   6.208   5.487   0.078
 1428W        W 5172   1.485   5.082   1.930
 1429W        W 5173   0.238   0.564   0.967
 1430W        W 5174   6.146   8.375  10.090
 1431W        W 5175   0.321   0.388  11.368
 1432W        W 5176   9.494   4.153   0.058
 1433W        W 5177   7.983   8.751   1.694
 1434W        W 5178  10.256   8.464   3.123
 1435W        W 5179   4.820   4.567   1.357
 1436W        W 5180   0.948   0.341   0.353
 1437W        W 5181   8.938   9.889   3.107
 1438W        W 5182   1.061  10.385   0.170
 1439W        W 5183   7.993   4.617   2.388
 1440W        W 5184  10.377  10.078   9.070
 1441W        W 5185   8.890   5.597   9.744
 1442W        W 5186   8.842   9.051  11.978
 1443W        W 5187   4.792   1.228   0.748
 1444W        W 5188   7.955   6.509   2.632
 1445W        W 5189   5.434   2.151  10.736
 1446W        W 5190   4.219   5.852  10.635
 1447W        W 5191   2.200   2.196  11.132
 1448W        W 5192   5.228   4.250   3.608
 1449W        W 5193   3.695   5.887   2.229
 1450W        W 5194   1.746   9.590   8.965
 1451W        W 5195   5.268   0.062  10.965
 1452W        W 5196   6.118   9.890   2.961
 1453W        W 5197   2.160   6.528   1.908
 1454W        W 5198   8.174   5.742   8.461
 1455W        W 5199   1.637   4.595   0.256
 1456W        W 5200   7.624   3.268  11.935
 1457W        W 5201   2.840   5.751  10.392
 1458W        W 5202   6.635   6.627   3.153
 1459W        W 5203   6.815   2.069  10.196
 1460W        W 5204   5.761   3.727   2.490
 1461W        W 5205   5.185   1.754   0.841
 1462W        W 5206   3.806   3.549   9.392
 1463W        W 5207  10.210   6.032   0.918
 1464W        W 5208   4.225   1.423   9.578
 1465W        W 5209   2.959   0.900   2.377
 1466W        W 5210   3.562   0.137  11.289
 1467W        W 5211   4.606   0.300   9.828
 1468W        W 5212   1.719   3.143   2.469
 1469W        W 5213   1.008   8.333   0.447
 1470W        W 5214   3.535   6.700   8.678
 1471W        W 5215   2.262   5.480  11.998
 1472W        W 5216   6.427   5.274   2.586
 1473W        W 5217   2.355   0.258   3.347
 1474W        W 5218   7.518   1.513   0.727
 1475W        W 5219   9.716  10.139  10.315
 1476W        W 5220   9.586   2.222   1.272
 1477W        W 5221   1.797   7.274  10.328
 1478W        W 5222   0.741   4.243   3.266
 1479W        W 5223   1.676   7.617  11.312
 1480W        W 5224   8.544   5.301   1.265
 1481W        W 5225   5.736   7.131   4.085
 1482W        W 5226   4.521   8.125   8.979
 1483W        W 5227   9.786   7.650   9.387
 1484W        W 5228   4.972   7.900   8.810
 1485W        W 5229   8.748   5.832   0.965
 1486W        W 5230   3.261   6.342   1.460
 1487W        W 5231   6.848   8.113   8.888
 1488W        W 5232   8.999   3.360   1.574
 1489W        W 5233   9.500   4.720  10.964
 1490W        W 5234   2.707   4.656   0.717
 1491W        W 5235   9.856   2.211   0.185
 1492W        W 5236  10.371   6.104   0.281
 1493W        W 5237   3.147   5.656   1.937
 1494W        W 5238   7.887   7.169  10.422
 1495W        W 5239   6.158   0.521  10.753
 1496W        W 5240   7.851   9.739  11.451
 1497W        W 5241   3.966   8.335   3.121
 1498W        W 5242   0.263   8.559   9.134
 1499W        W 5243   5.311   4.489   1.199
 1500W        W 5244   8.480   6.377   1.274
 1501W        W 5245   7.681   9.603   3.589
 1502W        W 5246   3.709  10.094   9.110
 1503W        W 5247   8.623   0.954   2.814
 1504W        W 5248   4.267   1.478  11.094
 1505W        W 5249   3.565   4.318   0.432
 1506W        W 5250   4.534   6.966   0.620
 1507W        W 5251   8.470   9.020   2.508
 1508W        W 5252   2.067   7.713   2.139
 1509W        W 5253   8.484   8.277  11.950
 1510W        W 5254   1.688   2.153   2.873
 1511W        W 5255   5.663   1.299   0.245
 1512W        W 5256   7.014   7.559   3.536
 1513W        W 5257   0.191   5.941  11.891
 1514W        W 5258   9.434   5.024   1.254
 1515W        W 5259   4.265   1.107   9.985
 1516W        W 5260   0.001   8.408  10.992
 1517W        W 5261   9.325   0.558  10.476
 1518W        W 5262   3.162   6.980   2.160
 1519W        W 5263   7.679   4.236   8.292
 1520W        W 5264   1.461   5.495  11.461
 1521W        W 5265   5.071   0.071   3.398
 1522W        W 5266   9.538   5.441   0.959
 1523W        W 5267   9.032   5.825   3.160
 1524W        W 5268   8.769   7.045   2.770
 1525W        W 5269   3.637   8.620   2.698
 1526W        W 5270   2.740  10.427  11.590
 1527W        W 5271   3.500   2.767  10.952
 1528W        W 5272   7.297   2.311   9.749
 1529W        W 5273   3.099   9.129   3.637
 1530W        W 5274  10.304   6.217   3.012
 1531W        W 5275   1.840   3.713  10.892
 1532W        W 5276   7.487   6.121   9.418
 1533W        W 5277   6.037   7.427   2.567
 1534W        W 5278   5.602   8.314   3.640
 1535W        W 5279   2.229   5.791   1.455
 1536W        W 5280   5.537   6.847   0.404
 1537W        W 5281   3.217   1.164   3.327
 1538W        W 5282  10.350   6.476   9.111
 1539W        W 5283   6.769   8.461   0.302
 1540W        W 5284   9.819   5.234  10.461
 1541W        W 5285   4.464   7.547   1.469
 1542W        W 5286   3.674   6.686   9.174
 1543W        W 5287   1.465   5.570   2.984
 1544W        W 5288   5.597   3.090   9.376
 1545W        W 5289   7.551   8.883   1.949
 1546W        W 5290  10.169   6.008   9.874
 1547W        W 5291   9.844   6.007   8.593
 1548W        W 5292   6.140   9.896   9.980
 1549W        W 5293   9.865   3.268  11.128
 1550W        W 5294   6.093   6.476  11.813
 1551W        W 5295   4.496   7.475   1.975
 1552W        W 5296   2.385   7.584  10.111
 1553W        W 5297   4.472   7.247  11.078
 1554W        W 5298   5.618   1.290   9.250
 1555W        W 5299   7.249   4.454   9.014
 1556W        W 5300   7.687   6.952   0.338
 1557W        W 5301  10.301   4.965   2.519
 1558W        W 5302   8.942   6.245   3.458
 1559W        W 5303   8.095   1.267  11.453
 1560W        W 5304   6.767   5.691   9.841
 1561W        W 5305   1.473   1.932   1.980
 1562W        W 5306   4.871   5.632   9.409
 1563W        W 5307   5.102   1.196   2.983
 1564W        W 5308   3.594   3.719   8.943
 1565W        W 5309   7.491   6.760  11.882
 1566W        W 5310   5.678   2.791   1.578
 1567W        W 5311   3.705   5.883   3.157
 1568W        W 5312   6.112   5.931  11.816
 1569W        W 5313   2.839   0.737  11.488
 1570W        W 5314   7.367   2.362  11.757
 1571W        W 5315   5.294   9.317   2.949
 1572W        W 5316   9.674   5.448   9.306
 1573W        W 5317   2.137   8.030  10.108
 1574W        W 5318   8.049   4.418   3.942
 1575W        W 5319   9.567   0.478   0.593
 1576W        W 5320   4.600   0.743   0.828
 1577W        W 5321   2.201   4.075   0.865
 1578W        W 5322   1.337   9.387  11.632
 1579W        W 5323   1.053   8.377  10.713
 1580W        W 5324   1.601   0.764   0.804
 1581W        W 5325   7.783   1.139   2.434
 1582W        W 5326   9.204   5.597   3.591
 1583W        W 5327   1.851   9.236   0.335
 1584W        W 5328   9.966   0.320   2.797
 1585W        W 5329   1.346   8.404   9.256
 1586W        W 5330   8.836   0.797   9.039
 1587W        W 5331   6.550   5.033  11.058
 1588W        W 5332   8.960   7.934   3.370
 1589W        W 5333   5.406   7.103   8.781
 1590W        W 5334   1.800   8.071   9.145
 1591W        W 5335   6.368   2.430  11.933
 1592W        W 5336   1.222   1.146   0.035
 1593W        W 5337   3.358   8.730   0.439
 1594W        W 5338   5.713   0.193  11.453
 1595W        W 5339   7.099   6.586   1.522
 1596W        W 5340   8.015   7.673  10.621
 1597W        W 5341   9.269   2.385  10.478
 1598W        W 5342   9.856   6.155   2.321
 1599W        W 5343   7.258   2.938   0.923
 1600W        W 5344   0.957   5.159   0.581
 1601W        W 5345  10.363   4.510   1.262
 1602W        W 5346   3.563   3.651   9.826
 1603W        W 5347   8.967   3.598   0.280
 1604W        W 5348   6.023   5.199  10.127
 1605W        W 5349   9.762   8.157  10.724
 1606W        W 5350   8.877   4.367   2.542
 1607W        W 5351   7.398   6.592   1.971
 1608W        W 5352   1.296   5.759   9.937
 1609W        W 5353   0.006   8.748   2.224
 1610W        W 5354   7.613   8.112   1.451
 1611W        W 5355   6.946   4.539  11.813
 1612W        W 5356   5.503   6.237   2.788
 1613W        W 5357   8.200   0.681   9.684
 1614W        W 5358   6.008   9.181   1.749
 1615W        W 5359   5.319   9.878   0.896
 1616W        W 5360   7.656   9.552  11.022
 1617W        W 5361   7.077   3.588   2.080
 1618W        W 5362   4.728   3.645   0.928
 1619W        W 5363   8.522   1.480   9.936
 1620W        W 5364   8.442   3.811   2.438
 1621W        W 5365   2.507   1.645   0.899
 1622W        W 5366   4.126   6.583   9.382
 1623W        W 5367   3.348   2.302   9.622
 1624W        W 5368   9.641   3.469  11.559
 1625W        W 5369   6.115   0.312   1.317
 1626W        W 5370   5.211   3.920   9.510
 1627W        W 5371   4.892   9.048   2.857
 1628W        W 5372   3.298   7.379   3.682
 1629W        W 5373   9.402   9.772   1.726
 1630W        W 5374   1.647  10.449   2.915
 1631W        W 5375   8.537   2.780   9.469
 1632W        W 5376   4.096   4.115   1.945
 1633W        W 5377   1.323   9.418   9.246
 1634W        W 5378   2.815   7.347   0.500
 1635W        W 5379   8.959   3.157  11.024
 1636W        W 5380   5.062  10.489   0.286
 1637W        W 5381   1.204   2.786   1.449
 1638W        W 5382   8.527   5.542  10.560
 1639W        W 5383   2.678   6.023   2.904
 1640W        W 5384   0.227   2.722   9.111
 1641W        W 5385   6.973   6.033   3.576
 1642W        W 5386   4.452   5.664  10.229
 1643W        W 5387   4.333   1.386   3.488
 1644W        W 5388   4.082   6.134   2.892
 1645W        W 5389   7.168   3.210  11.697
 1646W        W 5390   5.932   5.624  10.414
 1647W        W 5391   1.354   6.874   2.822
 1648W        W 5392   0.922   2.692  10.186
 1649W        W 5393   7.244   3.710   2.870
 1650W        W 5394   4.989   5.176   0.335
 1651W        W 5395   7.053   0.328   1.681
 1652W        W 5396   6.031   2.397   2.234
 1653W        W 5397   5.570   2.437   1.984
 1654W        W 5398   7.837   5.658   8.819
 1655W        W 5399   2.165   7.776  11.464
 1656W        W 5400   8.518   0.676   1.507
 1657W        W 5401   5.521  10.230  11.462
 1658W        W 5402   4.780   8.080  11.695
 1659W        W 5403   4.587   5.921   1.194
 1660W        W 5404  10.326   3.085   2.967
 1661W        W 5405   1.922   1.375   9.256
 1662W        W 5406   4.756   3.645  10.496
 1663W        W 5407   0.508   5.238   0.895
 1664W        W 5408   0.577   9.329   0.695
 1665W        W 5409   9.796   2.335   9.776
 1666W        W 5410   2.757   7.873   2.844
 1667W        W 5411   1.241   6.577   2.214
 1668W        W 5412   0.978   9.368   8.415
 1669W        W 5413   6.137   1.051  11.433
 1670W        W 5414   2.224   6.821   2.433
 1671W        W 5415   2.118   4.320   0.134
 1672W        W 5416   0.394   6.498   8.935
 1673W        W 5417   3.942   3.202   3.583
 1674W        W 5418   5.461   3.333   3.634
 1675W        W 5419   4.704   1.288   2.625
 1676W        W 5420   5.186   1.218   1.503
 1677W        W 5421   3.927   8.938   2.980
 1678W        W 5422   1.596   9.179  10.459
 1679W        W 5423   1.104   8.468   1.408
 1680W        W 5424   6.219   1.399   2.358
 1681W        W 5425   3.800   2.832   0.546
 1682W        W 5426   7.539   3.094   9.159
 1683W        W 5427   1.356   2.471  11.585
 1684W        W 5428   5.112   2.228   0.625
 1685W        W 5429   6.356   7.302  10.445
 1686W        W 5430   9.820   1.798  11.452
 1687W        W 5431   0.997   1.395   1.445
 1688W        W 5432   6.352   1.997   1.586
 1689W        W 5433   5.689   8.510   3.172
 1690W        W 5434   4.223   6.712   2.366
 1691W        W 5435   2.242   0.903   2.932
 1692W        W 5436   5.659   3.260   1.780
 1693W        W 5437   7.366   6.864   0.707
 1694W        W 5438   4.471   2.196   0.061
 1695W        W 5439   2.712   5.673  11.251
 1696W        W 5440   7.629   4.088   3.018
 1697W        W 5441  10.244   5.732  11.782
 1698W        W 5442   8.059   1.659  11.786
 1699W        W 5443   5.713   3.155   3.238
 1700W        W 5444   7.905   1.946  10.731
 1701W        W 5445   2.090   4.218   1.878
 1702W        W 5446   5.533  10.269   0.389
 1703W        W 5447   2.233  10.420   9.764
 1704W        W 5448   5.208   2.023   2.682
 1705W        W 5449   2.308   5.150   0.381
 1706W        W 5450   4.778   7.154   8.985
 1707W        W 5451   2.838   9.040   8.996
 1708W        W 5452  10.066   9.416   1.675
 1709W        W 5453   6.957   6.569   0.028
 1710W        W 5454   5.661   2.199   0.478
 1711W        W 5455   9.679   1.807  10.956
 1712W        W 5456   5.556   7.297   1.246
 1713W        W 5457   0.282   4.715   0.949
 1714W        W 5458   9.882   8.063  11.207
 1715W        W 5459   7.345   9.679  11.507
 1716W        W 5460   4.159   9.129   0.719
 1717W        W 5461   9.261   5.465   0.093
 1718W        W 5462   4.602   8.241   2.670
 1719W        W 5463   0.250   2.872  10.887
 1720W        W 5464   6.419   2.473   0.839
 1721W        W 5465   3.328   0.738  10.026
 1722W        W 5466   2.795   1.416  11.870
 1723W        W 5467   0.662   5.086   2.777
 1724W        W 5468  10.267   3.170   0.333
 1725W        W 5469   2.697   7.233   9.794
 1726W        W 5470   2.917   9.020  10.481
 1727W        W 5471   2.850   6.967   0.138
 1728W        W 5472   7.681   7.972   0.964
 1729W        W 5473   0.799  10.115   2.017
 1730W        W 5474   3.956   5.207  11.453
 1731W        W 5475   6.192   2.404   1.298
 1732W        W 5476  10.258   6.480  10.625
 1733W        W 5477   6.258   8.552   0.341
 1734W        W 5478   4.154   6.875   0.249
 1735W        W 5479   2.148   6.102  10.774
 1736W        W 5480   2.634   5.527   2.213
 1737W        W 5481   0.002   6.997  10.737
 1738W        W 5482   5.097   3.124  10.881
 1739W        W 5483   3.036   1.888   1.726
 1740W        W 5484   7.429   7.169   2.712
 1741W        W 5485   6.081   3.325   2.456
 1742W        W 5486   0.274   6.202  11.449
 1743W        W 5487   7.550   8.618   1.451
 1744W        W 5488   9.121   7.098   2.384
 1745W        W 5489   8.691   4.815   0.370
 1746W        W 5490   1.165   7.537   9.356
 1747W        W 5491   4.345   9.986   0.947
 1748W        W 5492   2.489   9.904  11.934
 1749W        W 5493   4.141   2.239   1.393
 1750W        W 5494   7.708   4.823  11.781
 1751W        W 5495   9.182   3.484   2.923
 1752W        W 5496   2.805   6.100   9.007
 1753W        W 5497   0.489   7.344   0.354
 1754W        W 5498   1.510   1.947   9.730
 1755W        W 5499   9.135   7.530   0.797
 1756W        W 5500  10.344   0.766   2.817
 1757W        W 5501   4.970   3.331   1.347
 1758W        W 5502   2.323   3.497  11.615
 1759W        W 5503   9.839   1.326   2.650
 1760W        W 5504   4.977   1.252   9.015
 1761W        W 5505   4.334   3.742   2.200
 1762W        W 5506   9.851   8.359  11.839
 1763W        W 5507   7.442   4.072   1.639
 1764W        W 5508   2.656   3.552   2.417
 1765W        W 5509   4.600   7.225   3.414
 1766W        W 5510   3.264   1.384   9.588
 1767W        W 5511   0.381   8.063   9.048
 1768W        W 5512   8.343   7.042   3.112
 1769W        W 5513   5.862   8.902   8.845
 1770W        W 5514   3.535   6.419  11.933
 1771W        W 5515   2.433   5.223  11.158
 1772W        W 5516   2.926   9.912   1.283
 1773W        W 5517   3.535   4.513   1.381
 1774W        W 5518   6.999  10.464  11.357
 1775W        W 5519   2.891   7.648  10.079
 1776W        W 5520   9.553   2.639   2.004
 1777W        W 5521   5.137   8.305  10.569
 1778W        W 5522   2.712   8.616   8.641
 1779W        W 5523   0.585   3.517   1.612
 1780W        W 5524   5.485   4.703  10.132
 1781W        W 5525   2.283   7.275   2.731
 1782W        W 5526   4.094   6.688   8.855
 1783W        W 5527   5.350   7.996   1.259
 1784W        W 5528   0.071   5.717  11.398
 1785W        W 5529   7.515   0.719   9.031
 1786W        W 5530   5.459   2.646   9.145
 1787W        W 5531   5.719   9.555   0.943
 1788W        W 5532   3.022   2.228   1.350
 1789W        W 5533   8.889   8.563  11.845
 1790W        W 5534   3.291   1.483  11.101
 1791W        W 5535   2.854   6.244  10.497
 1792W        W 5536   8.685   1.927   3.765
 1793W        W 5537   1.148   6.967   0.405
 1794W        W 5538   5.970   6.968   1.363
 1795W        W 5539   2.106   4.267   2.862
 1796W        W 5540   7.140   8.171   1.260
 1797W        W 5541   5.709   5.606  10.914
 1798W        W 5542   4.182   2.833   0.185
 1799W        W 5543   6.005   1.180   1.870
 1800W        W 5544   6.151   6.156   0.263
 1801W        W 5545   5.210   2.876   0.274
 1802W        W 5546  10.493   2.124  11.069
 1803W        W 5547   3.121   2.745  11.296
 1804W        W 5548   6.625   1.839   2.569
 1805W        W 5549   9.860   9.870   1.438
 1806W        W 5550   4.854   9.862  11.692
 1807W        W 5551   7.424   7.300  11.775
 1808W        W 5552   6.030   1.619   9.302
 1809W        W 5553   9.458   8.504   2.281
 1810W        W 5554   3.889   3.643  10.539
 1811W        W 5555   4.918   7.491  11.098
 1812W        W 5556   3.703   9.529   1.503
 1813W        W 5557   3.579   2.668   3.027
 1814W        W 5558   5.177   3.411   9.411
 1815W        W 5559   4.585   6.900   1.176
 1816W        W 5560  10.496   9.120  11.894
 1817W        W 5561   1.912   0.390   9.442
 1818W        W 5562   3.581   9.025   1.393
 1819W        W 5563   6.165   0.631   9.545
 1820W        W 5564   2.053   3.777   1.268
 1821W        W 5565   3.535   2.241   1.339
 1822W        W 5566   5.560   6.058   9.731
 1823W        W 5567   4.202   9.147   9.830
 1824W        W 5568   5.759  10.078   0.820
 1825W        W 5569   8.575   8.574   2.297
 1826W        W 5570   7.051   0.990  11.400
 1827W        W 5571   9.516   2.609   2.528
 1828W        W 5572   0.142   4.088   2.328
 1829W        W 5573   1.693   2.371   9.977
 1830W        W 5574   6.220   7.476   9.988
 1831W        W 5575   6.571   4.530   0.139
 1832W        W 5576   7.668   7.508   2.250
 1833W        W 5577  10.203   2.309   2.440
 1834W        W 5578   6.549   2.810   9.457
 1835W        W 5579   7.548   3.942   0.739
 1836W        W 5580   4.724   0.237   2.966
 1837W        W 5581   8.614   1.749   2.832
 1838W        W 5582   4.069   6.476  11.945
 1839W        W 5583   8.843   7.081   3.263
 1840W        W 5584   6.882   6.810   0.557
 1841W        W 5585   2.774   9.423   1.398
 1842W        W 5586   4.404   4.575   2.777
 1843W        W 5587   7.925   2.792   0.344
 1844W        W 5588   6.129   8.960   2.456
 1845W        W 5589   5.051  10.409  11.432
 1846W        W 5590   1.709   3.794   0.759
 1847W        W 5591   2.172   2.616   9.755
 1848W        W 5592   5.642   7.035   3.276
 1849W        W 5593   0.690   4.885   9.531
 1850W        W 5594   1.314   9.567   2.081
 1851W        W 5595   3.871   7.090   3.252
 1852W        W 5596   6.951   3.288   0.693
 1853W        W 5597   4.339   4.715   1.309
 1854W        W 5598  10.222   8.324  10.519
 1855W        W 5599   8.830   5.099   9.033
 1856W        W 5600   0.990   7.909   8.642
 1857W        W 5601   3.678   4.924   2.321
 1858W        W 5602   1.398   4.105  11.472
 1859W        W 5603   7.916   9.065  11.880
 1860W        W 5604   7.176   9.776   1.771
 1861W        W 5605  10.447   9.894   3.223
 1862W        W 5606   8.460   4.724   2.622
 1863W        W 5607   0.245   2.743   1.710
 1864W        W 5608  10.401   1.098   1.917
 1865W        W 5609   9.703   8.758   1.021
 1866W        W 5610   7.054   1.711   3.438
 1867W        W 5611   2.087   2.720  10.958
 1868W        W 5612   0.488   0.352   3.346
 1869W        W 5613   4.534   6.767  11.270
 1870W        W 5614   5.182   3.476   2.719
 1871W        W 5615   3.658   6.258   9.453
 1872W        W 5616   1.733   2.712   2.205
 1873W        W 5617   9.528   5.686   3.193
 1874W        W 5618   5.843   3.800   8.694
 1875W        W 5619   3.051   0.931   1.138
 1876W        W 5620   5.162   9.262  10.760
 1877W        W 5621   8.554   8.148   2.567
 1878W        W 5622   5.906   2.979   9.786
 1879W        W 5623   0.177   5.605   2.829
 1880W        W 5624   2.315   4.205   1.377
 1881W        W 5625   6.624   2.008   0.819
 1882W        W 5626   1.823   9.876  11.007
 1883W        W 5627   0.694   8.040   1.026
 1884W        W 5628  10.389   2.698   9.860
 1885W        W 5629   1.711   1.785  11.590
 1886W        W 5630   0.946   7.805   1.922
 1887W        W 5631   1.250   3.750   0.526
 1888W        W 5632   6.291   2.627   9.873
 1889W        W 5633   0.815   1.866  10.273
 1890W        W 5634   8.305   6.110   0.870
 1891W        W 5635   1.853   8.116   1.257
 1892W        W 5636   4.847   4.012   9.874
 1893W        W 5637   9.273   0.670   1.783
 1894W        W 5638  10.470   7.077   3.153
 1895W        W 5639   3.190   5.640  11.999
 1896W        W 5640   5.755   7.729   2.872
 1897W        W 5641   1.740   3.987   8.903
 1898W        W 5642   9.402   9.825   3.323
 1899W        W 5643   7.487   8.679  10.000
 1900W        W 5644   3.801   7.345   0.800
 1901W        W 5645   8.537   0.439   9.273
 1902W        W 5646   3.603   6.029   0.693
 1903W        W 5647   2.834   7.184   8.943
 1904W        W 5648   6.111   4.435   9.453
 1905W        W 5649   3.426   2.765   8.507
 1906W        W 5650   3.210   1.839  11.458
 1907W        W 5651   9.484   5.248   1.728
 1908W        W 5652  10.258   7.602   9.204
 1909W        W 5653   3.841   6.118   0.233
 1910W        W 5654   6.449   2.305   2.504
 1911W        W 5655   4.968   6.240   9.074
 1912W        W 5656   5.690   4.064   0.702
 1913W        W 5657   1.197   7.894   0.287
 1914W        W 5658   4.400  10.381   9.599
 1915W        W 5659   0.520   8.333  10.808
 1916W        W 5660   4.199   4.865   1.778
 1917W        W 5661   1.751   6.593   2.437
 1918W        W 5662  10.212   5.650   1.365
 1919W        W 5663   6.282   3.627   0.189
 1920W        W 5664   7.665   9.452   2.174
 1921W        W 5665   8.128   6.643   9.254
 1922W        W 5666   7.025   5.796   0.483
 1923W        W 5667   6.532   4.893   2.906
 1924W        W 5668   6.436   6.342  10.315
 1925W        W 5669  10.379   2.630   0.426
 1926W        W 5670   6.042   1.126   9.523
 1927W        W 5671   1.376   8.955   9.594
 1928W        W 5672  10.465   4.604   3.084
 1929W        W 5673   9.527   5.862   0.314
 1930W        W 5674   3.723   9.977  11.046
 1931W        W 5675   5.260   0.363   3.020
 1932W        W 5676   6.374   1.881   9.588
 1933W        W 5677   3.100   2.114   3.665
 1934W        W 5678   4.550   3.613   9.993
 1935W        W 5679   8.329   8.067  10.503
 1936W        W 5680   2.893   3.648  11.051
 1937W        W 5681   9.897   6.194   0.522
 1938W        W 5682   0.821   2.672   1.956
 1939W        W 5683   0.194   1.946   0.503
 1940W        W 5684   8.004   4.221   0.283
 1941W        W 5685   8.046   4.383   8.641
 1942W        W 5686   9.866   3.553   8.924
 1943W        W 5687   9.445   4.595   0.971
 1944W        W 5688   0.019  10.458   3.515
 1945W        W 5689   3.161   7.824   9.029
 1946W        W 5690   3.383   0.899   0.356
 1947W        W 5691  10.333   0.037   8.849
 1948W        W 5692   9.961   1.235   8.640
 1949W        W 5693   6.100   7.458   9.096
 1950W        W 5694   7.470   3.107   0.420
 1951W        W 5695   6.197   1.273   0.991
 1952W        W 5696   5.081   1.617   1.792
 1953W        W 5697   0.008   2.207   2.834
 1954W        W 5698   5.681   3.697   1.478
 1955W        W 5699   6.613   2.547  10.343
 1956W        W 5700   1.478   9.208   3.394
 1957W        W 5701   8.028   0.222   1.448
 1958W        W 5702   0.790   0.256   2.846
 1959W        W 5703   1.364   3.698  11.072
 1960W        W 5704   6.895   2.849   9.019
 1961W        W 5705   4.792   9.434  10.460
 1962W        W 5706   0.211   6.947   0.501
 1963W        W 5707   0.966   5.635   1.696
 1964W        W 5708   2.334   5.555   1.009
 1965W        W 5709   4.667   6.645   8.599
 1966W        W 5710   8.571   3.691   1.590
 1967W        W 5711   2.632   0.796  11.045
 1968W        W 5712   5.570   7.437   0.162
 1969W        W 5713   0.741   5.097   9.014
 1970W        W 5714   1.313   1.465   9.831
 1971W        W 5715   1.766  10.291   9.017
 1972W        W 5716   5.763   5.418   0.631
 1973W        W 5717   4.947   6.976  10.316
 1974W        W 5718   9.820   6.048   2.871
 1975W        W 5719   7.165   4.119   9.735
 1976W        W 5720   0.002   5.571   3.325
 1977W        W 5721   5.435   8.050   3.218
 1978W        W 5722   7.976   7.379   0.388
 1979W        W 5723   4.788   4.979   9.406
 1980W        W 5724   5.371   6.213   8.749
 1981W        W 5725   6.646   4.954   0.387
 1982W        W 5726  10.242   4.537   2.108
 1983W        W 5727   8.338   1.362   0.748
 1984W        W 5728   0.063   6.677  11.569
 1985W        W 5729   8.237   4.152   0.744
 1986W        W 5730   2.611   4.464   9.260
 1987W        W 5731   4.580   2.662   9.324
 1988W        W 5732   1.796   5.666   1.683
 1989W        W 5733   4.274   7.933   1.919
 1990W        W 5734  10.463   4.567  11.928
 1991W        W 5735   3.657   5.417  11.813
 1992W        W 5736   1.700   3.803   9.793
 1993W        W 5737   2.946   0.732   0.656
 1994W        W 5738   6.009   1.580   9.797
 1995W        W 5739   0.465   4.289   8.707
 1996W        W 5740  10.406   2.342   9.079
 1997W        W 5741   4.513   3.634   8.100
 1998W        W 5742   9.490  10.342   0.761
 1999W        W 5743   9.278   8.791   1.884
 2000W        W 5744   8.831   5.343   3.302
 2001W        W 5745   8.990  10.349   2.861
 2002W        W 5746  10.184   7.869  10.830
 2003W        W 5747   9.735   9.122   8.429
 2004W        W 5748   0.526   6.968   2.416
 2005W        W 5749   3.068   7.665   1.903
 2006W        W 5750  10.252   5.866   2.645
 2007W        W 5751   2.300   9.913   2.432
 2008W        W 5752   4.630   7.633   9.771
 2009W        W 5753   7.843   4.599   9.895
 2010W        W 5754   5.086   5.177   1.908
 2011W        W 5755   0.530   6.371  11.044
 2012W        W 5756   6.725   3.033   3.196
 2013W        W 5757   2.110   2.555  11.486
 2014W        W 5758   5.460   6.894   0.941
 2015W        W 5759   2.415  10.354   3.065
 2016W        W 5760   8.499   3.574   0.975
 2017W        W 5761   6.004   6.988   9.970
 2018W        W 5762   3.723   3.083  11.981
 2019W        W 5763   0.347  10.494   9.099
 2020W        W 5764   6.555  10.133   1.900
 2021W        W 5765   0.883   9.836   9.032
 2022W        W 5766   6.031   4.253   8.898
 2023W        W 5767   2.126   9.860  11.499
 2024W        W 5768   6.590   9.513   1.105
 2025W        W 5769   8.750   6.438   0.312
 2026W        W 5770   1.262   3.423  10.406
 2027W        W 5771   8.071   0.017  10.977
 2028W        W 5772   0.846   8.632   0.081
 2029W        W 5773   1.403   5.333   8.937
 2030W        W 5774   6.637   8.638   0.769
 2031W        W 5775   3.124   8.043   8.561
 2032W        W 5776   3.402   3.111   2.250
 2033W        W 5777   0.724   5.194   1.767
 2034W        W 5778   0.970   9.456   1.395
 2035W        W 5779   8.809   5.562  11.301
 2036W        W 5780   2.264   0.772   1.420
 2037W        W 5781   3.291   1.706   8.748
 2038W        W 5782   2.320   4.664   2.156
 2039W        W 5783   1.683   6.642   9.321
 2040W        W 5784  10.335  10.343  11.394
 2041W        W 5785   0.271   1.784   1.392
 2042W        W 5786   0.303   2.565   3.909
 2043W        W 5787   5.315   8.559   8.424
 2044W        W 5788   8.605   0.810   1.018
 2045W        W 5789   1.913   0.405   3.067
 2046W        W 5790   9.857   5.181  11.376
 2047W        W 5791   6.685   4.422   2.773
 2048W        W 5792   5.200   0.996   0.180
 2049W        W 5793   1.918   2.185   3.308
 2050W        W 5794   0.257   6.110   1.776
 2051W        W 5795   2.355   6.111   9.296
 2052W        W 5796   3.371   9.572   3.670
 2053W        W 5797   3.189   4.560  10.057
 2054W        W 5798   1.781   2.287  10.837
 2055W        W 5799   9.240   5.424  11.568
 2056W        W 5800  10.444   1.301   3.241
 2057W        W 5801   8.666   3.590   2.893
 2058W        W 5802   4.523   6.680  10.351
 2059W        W 5803   6.988   3.239   0.181
 2060W        W 5804   4.231  10.303   9.131
 2061W        W 5805   3.092   1.190  11.494
 2062W        W 5806   2.153   6.991   0.502
 2063W        W 5807   7.502   2.599  11.322
 2064W        W 5808   6.117   3.980   9.698
 2065W        W 5809   7.001   8.703  11.892
 2066W        W 5810   4.646   3.638   3.440
 2067W        W 5811   2.712   5.249  10.304
 2068W        W 5812   8.479   7.173  10.957
 2069W        W 5813   3.830   3.600   0.071
 2070W        W 5814   5.147   3.538   3.229
 2071W        W 5815   0.152  10.050  10.007
 2072W        W 5816   1.663   5.175   2.746
 2073W        W 5817   1.800   1.928   8.681
 2074W        W 5818   4.306   7.054   9.180
 2075W        W 5819   9.865  10.027   1.920
 2076W        W 5820   7.013   2.217   2.203
 2077W        W 5821   5.705   6.805  10.862
 2078W        W 5822   2.038   4.846   0.038
 2079W        W 5823   7.861   1.667   2.431
 2080W        W 5824   5.964   5.545   1.485
 2081W        W 5825   1.121   4.537  11.462
 2082W        W 5826   2.730   5.620  11.751
 2083W        W 5827   2.761   8.471  11.188
 2084W        W 5828   7.072   1.743   1.951
 2085W        W 5829   1.371   1.185   1.190
 2086W        W 5830   4.189   2.309   3.514
 2087W        W 5831   0.517   7.783   9.525
 2088W        W 5832   2.979  10.006  11.829
 2089W        W 5833   1.343   0.909  11.062
 2090W        W 5834   5.612   4.640   9.634
 2091W        W 5835   7.952   3.649   2.421
 2092W        W 5836   8.962   5.370   0.971
 2093W        W 5837   7.930   2.164  11.902
 2094W        W 5838   0.794   5.985   3.339
 2095W        W 5839   3.860   7.118   2.696
 2096W        W 5840   3.615   4.167   8.602
 2097W        W 5841   8.982   2.725   9.220
 2098W        W 5842   7.746   2.837   0.820
 2099W        W 5843   4.713   4.024  11.905
 2100W        W 5844   0.874  10.133   9.473
 2101W        W 5845   8.778   7.904  10.625
 2102W        W 5846   5.218   2.300   3.139
 2103W        W 5847   1.796   3.091   3.459
 2104W        W 5848   3.313   9.675  10.884
 2105W        W 5849   8.622   0.920  11.839
 2106W        W 5850  10.423   4.647  10.811
 2107W        W 5851   7.109   7.982   2.657
 2108W        W 5852   4.264   9.187   3.294
 2109W        W 5853   2.313   3.154   3.392
 2110W        W 5854   7.690   1.285  10.999
 2111W        W 5855   9.384   3.071   1.790
 2112W        W 5856   7.442   7.016   3.214
 2113W        W 5857   5.470   9.385   2.023
 2114W        W 5858   4.767   0.780   0.305
 2115W        W 5859   6.095   6.064   1.559
 2116W        W 5860   5.445   4.107   8.235
 2117W        W 5861   7.631   1.512  10.030
 2118W        W 5862   3.298   7.233   1.715
 2119W        W 5863   0.298   2.869   0.270
 2120W        W 5864   4.685   1.442  10.788
 2121W        W 5865   2.181   6.525   2.869
 2122W        W 5866   1.194   7.967  10.970
 2123W        W 5867   7.446  10.058  10.272
 2124W        W 5868   8.155   0.522   1.021
 2125W        W 5869   8.438   4.056   8.711
 2126W        W 5870   6.978   3.869   3.276
 2127W        W 5871   1.638   9.708   0.353
 2128W        W 5872   8.363   8.453   9.042
 2129W        W 5873   1.391   9.286   1.654
 2130W        W 5874   1.637   4.150   1.636
 2131W        W 5875   7.512   8.069  10.574
 2132W        W 5876   9.024   6.643   1.146
 2133W        W 5877   1.671   1.238   3.486
 2134W        W 5878   2.786   2.187   0.884
 2135W        W 5879   8.932   6.170   1.330
 2136W        W 5880   1.272   3.819  10.080
 2137W        W 5881   0.339   0.495   2.892
 2138W        W 5882   0.441   8.780   9.564
 2139W        W 5883   7.842   0.601   3.307
 2140W        W 5884   9.096   0.797   9.905
 2141W        W 5885   8.087   2.833  10.219
 2142W        W 5886   1.086   6.299   3.639
 2143W        W 5887   8.489   1.890   9.616
 2144W        W 5888   9.526  10.480   2.870
 2145W        W 5889   7.055   2.401   0.199
 2146W        W 5890   8.762   0.240   2.339
 2147W        W 5891   1.825   8.734   0.421
 2148W        W 5892  10.343   8.959   2.695
 2149W        W 5893   0.999   5.316  11.238
 2150W        W 5894   3.178   2.807   9.866
 2151W        W 5895   0.737   1.709   3.072
 2152W        W 5896   7.483   7.410   0.270
 2153W        W 5897  10.006   4.692   2.886
 2154W        W 5898   4.715   3.737   0.414
 2155W        W 5899   9.930   1.250   0.777
 2156W        W 5900   9.273   0.297  11.408
 2157W        W 5901   1.325   9.883   9.478
 2158W        W 5902   2.917   4.808   8.582
 2159W        W 5903   9.066   6.699   0.635
 2160W        W 5904   8.968   8.450   3.118
 2161W        W 5905   8.064   3.530  11.773
 2162W        W 5906   6.819   8.985   0.263
 2163W        W 5907   6.113   9.529   1.378
 2164W        W 5908   7.930   6.040   2.392
 2165W        W 5909   7.772   7.642  11.967
 2166W        W 5910   4.414   2.746   3.315
 2167W        W 5911   4.125   5.012   0.916
 2168W        W 5912   3.396   9.940   1.474
 2169W        W 5913   7.709   9.285   9.065
 2170W        W 5914  10.302   8.428   2.567
 2171W        W 5915   5.251   1.462   0.006
 2172W        W 5916   7.041   0.402  10.447
 2173W        W 5917   2.568   2.068   1.566
 2174W        W 5918   4.460   2.766   0.600
 2175W        W 5919   1.368   6.851  11.955
 2176W        W 5920   2.617   1.194   2.689
 2177W        W 5921   4.208   4.802   2.330
 2178W        W 5922   0.006   4.723   1.712
 2179W        W 5923   7.196  10.272   2.858
 2180W        W 5924   4.630   8.955  10.619
 2181W        W 5925   9.296   5.740   1.724
 2182W        W 5926   8.464   2.347   0.333
 2183W        W 5927   3.460   9.097   2.867
 2184W        W 5928   3.102   2.733   2.091
 2185W        W 5929  10.265   2.578   3.093
 2186W        W 5930   5.098   9.799   2.037
 2187W        W 5931  10.276   9.703  10.015
 2188W        W 5932   5.578   9.299   0.257
 2189W        W 5933   1.794   8.633   2.585
 2190W        W 5934   7.023   2.830   0.474
 2191W        W 5935   9.935   8.589   9.555
 2192W        W 5936   5.620  10.006   2.737
 2193W        W 5937   7.067   4.928   9.093
 2194W        W 5938   1.817   6.685  11.727
 2195W        W 5939   8.080   5.030  10.040
 2196W        W 5940   2.605   8.057   9.938
 2197W        W 5941   0.340   6.872   1.365
 2198W        W 5942   5.048   4.932  11.017
 2199W        W 5943   8.579   1.471  11.850
 2200W        W 5944   5.864   9.858  11.468
 2201W        W 5945   8.216   7.800   1.823
 2202W        W 5946   9.661   1.378   2.171
 2203W        W 5947   8.319   0.757   0.219
 2204W        W 5948   7.074  10.163   0.761
 2205W        W 5949   9.211   5.046   3.139
 2206W        W 5950   7.026   9.869  10.528
 2207W        W 5951   2.731   0.730   2.839
 2208W        W 5952   9.968   9.375  11.308
 2209W        W 5953   4.160   0.504   0.694
 2210W        W 5954   5.098   7.081  11.519
 2211W        W 5955   7.997   2.264   9.003
 2212W        W 5956   9.779   1.824   0.502
 2213W        W 5957   4.369   7.095   8.660
 2214W        W 5958   8.526   0.033   2.759
 2215W        W 5959   8.143   7.326   2.188
 2216W        W 5960   4.636   2.566  10.274
 2217W        W 5961   2.816   1.736   1.291
 2218W        W 5962   0.337   1.759  11.549
 2219W        W 5963   1.579   2.783  10.797
 2220W        W 5964   4.128   5.262   2.574
 2221W        W 5965   4.115   4.378  10.368
 2222W        W 5966   4.174   8.384   9.571
 2223W        W 5967   2.016   1.501   8.497
 2224W        W 5968   6.015   2.453  11.515
 2225W        W 5969   9.065   3.825   1.727
 2226W        W 5970  10.332  10.448   0.690
 2227W        W 5971   8.382   5.199   0.272
 2228W        W 5972   8.444   7.440   2.743
 2229W        W 5973   7.614   2.735   2.775
 2230W        W 5974   5.619   8.484   1.920
 2231W        W 5975   3.744   9.362   1.019
 2232W        W 5976   0.701   2.564  11.002
 2233W        W 5977   6.174   9.854   0.998
 2234W        W 5978   6.057  10.325   1.185
 2235W        W 5979   8.336   8.557  10.607
 2236W        W 5980   2.418   1.234  10.940
 2237W        W 5981   8.297  10.281   1.309
 2238W        W 5982  10.114   7.504   0.936
 2239W        W 5983   7.113   5.115   1.627
 2240W        W 5984   8.566   3.731  10.500
 2241W        W 5985   6.925   7.446  11.201
 2242W        W 5986   1.025   5.695  11.656
 2243W        W 5987   7.473   4.298   1.151
 2244W        W 5988   3.086   3.235  10.502
 2245W        W 5989   8.400   8.801  11.837
 2246W        W 5990   2.497   2.787  10.602
 2247W        W 5991   9.897   6.062  11.475
 2248W        W 5992   1.012   7.102   9.110
 2249W        W 5993   5.686   1.788  11.503
 2250W        W 5994   6.494   7.105   3.197
 2251W        W 5995   8.434   7.912   3.569
 2252W        W 5996   1.867   5.603   0.761
 2253W        W 5997   2.688   6.510   3.647
 2254W        W 5998   9.593   0.316   3.268
 2255W        W 5999   3.693   4.756   1.833
 2256W        W 6000   8.426   0.960   1.942
 2257W        W 6001   3.191   6.081   3.213
 2258W        W 6002   1.178   2.251  10.064
 2259W        W 6003   4.331   9.898   1.485
 2260W        W 6004   3.279   5.647   0.913
 2261W        W 6005   5.455   0.853  10.065
 2262W        W 6006   6.334   4.961   9.383
 2263W        W 6007   3.604   5.354  11.126
 2264W        W 6008   0.242   5.118   3.395
 2265W        W 6009   2.356   6.056   1.901
 2266W        W 6010   3.103   8.116   9.939
 2267W        W 6011   7.958   3.272   9.429
 2268W        W 6012   7.397   4.037  11.342
 2269W        W 6013   2.355   6.485   0.845
 2270W        W 6014   4.452   4.605   9.553
 2271W        W 6015   8.442   7.689  10.959
 2272W        W 6016   5.728   1.261   2.283
 2273W        W 6017   9.189   0.290  10.059
 2274W        W 6018   9.979   6.963   0.272
 2275W        W 6019   6.285   6.194  11.390
 2276W        W 6020   5.472   5.868  11.292
 2277W        W 6021   5.046   6.977   9.795
 2278W        W 6022   2.846   7.482  11.983
 2279W        W 6023   8.092   4.520   1.891
 2280W        W 6024   8.954   6.034   9.432
 2281W        W 6025   7.168   1.693   1.464
 2282W        W 6026  10.300   9.898   2.211
 2283W        W 6027   5.547   7.102   9.657
 2284W        W 6028   1.402   7.528   9.797
 2285W        W 6029   6.583   6.212  11.818
 2286W        W 6030   7.166   9.240  11.325
 2287W        W 6031   5.256   7.895  11.848
 2288W        W 6032   2.897   1.065   0.282
 2289W        W 6033   3.394   0.383  11.745
 2290W        W 6034   4.938   4.395   9.523
 2291W        W 6035  10.171   1.414   2.249
 2292W        W 6036   9.386   8.103  11.089
 2293W        W 6037   8.000   0.267   2.476
 2294W        W 6038   1.579   3.360  10.012
 2295W        W 6039   1.520   8.259   0.525
 2296W        W 6040   7.048   3.080   2.213
 2297W        W 6041   0.089   3.998  10.103
 2298W        W 6042   9.187   1.373   2.433
 2299W        W 6043   6.473   2.439   1.917
 2300W        W 6044   0.273   6.454   0.404
 2301W        W 6045   1.271   6.882   3.357
 2302W        W 6046   1.958  10.450   0.750
 2303W        W 6047   2.823   6.407   8.578
 2304W        W 6048   0.437   2.256   8.982
 2305W        W 6049   8.016   4.169   2.649
 2306W        W 6050   7.040   8.885   9.072
 2307W        W 6051   1.165   5.110   1.540
 2308W        W 6052   9.599  10.340  10.890
 2309W        W 6053   8.347  10.450   2.273
 2310W        W 6054   1.586   5.190   0.882
 2311W        W 6055   9.523   0.890   3.126
 2312W        W 6056   0.715   3.394   2.752
 2313W        W 6057   2.815   8.534   1.345
 2314W        W 6058   0.086   2.198   3.423
 2315W        W 6059   1.279   3.196  10.858
 2316W        W 6060   0.299   2.359  10.756
 2317W        W 6061   3.578   4.164   0.906
 2318W        W 6062   5.074   8.410  11.055
 2319W        W 6063   0.451   1.827   9.826
 2320W        W 6064   0.874   0.912  11.285
 2321W        W 6065   1.994   7.055   9.321
 2322W        W 6066   5.218   6.633  10.791
 2323W        W 6067   0.894   6.338   1.376
 2324W        W 6068   2.249  10.215  10.757
 2325W        W 6069   7.372   5.691   3.513
 2326W        W 6070   6.263   2.887  11.700
 2327W        W 6071   3.375   7.084   9.550
 2328W        W 6072   8.107   8.140   0.773
 2329W        W 6073   3.738   6.886  11.916
 2330W        W 6074   1.375   9.302   0.134
 2331W        W 6075   5.444   6.071   1.091
 2332W        W 6076   3.666   7.158  10.576
 2333W        W 6077  10.104   6.572  11.340
 2334W        W 6078   7.461   3.284  10.180
 2335W        W 6079   6.669   3.712   0.640
 2336W        W 6080   7.097   4.527   1.595
 2337W        W 6081   0.534   1.882  10.721
 2338W        W 6082   3.837   8.726   3.417
 2339W        W 6083   9.548   2.775   9.031
 2340W        W 6084   5.582   7.964   0.228
 2341W        W 6085   9.301   9.863   9.971
 2342W        W 6086   7.241   2.691   8.588
 2343W        W 6087   5.258   7.597   3.079
 2344W        W 6088   3.746   3.783  11.544
 2345W        W 6089   5.580   1.717   9.536
 2346W        W 6090   8.683   1.367   2.514
 2347W        W 6091   8.001   3.670   0.778
 2348W        W 6092   9.059   2.637   2.839
 2349W        W 6093  10.057   7.124   3.473
 2350W        W 6094   8.891   5.715  11.823
 2351W        W 6095   4.222   3.789   9.614
 2352W        W 6096   7.479   5.102   8.806
 2353W        W 6097   0.466   4.593   0.093
 2354W        W 6098   3.205   5.419  10.216
 2355W        W 6099   3.271   1.238   0.765
 2356W        W 6100   1.701   9.791   9.831
 2357W        W 6101   6.140   1.223   9.007
 2358W        W 6102   1.654   9.676  10.330
 2359W        W 6103   0.478   2.119  11.199
 2360W        W 6104   1.514  10.438   1.761
 2361W        W 6105   7.176   5.058   1.138
 2362W        W 6106   7.385   3.179   2.817
 2363W        W 6107   6.478   4.514  11.604
 2364W        W 6108   0.738   1.246  10.943
 2365W        W 6109   4.329   2.730   1.426
 2366W        W 6110   5.557   8.947   1.682
 2367W        W 6111   6.523   0.057   9.633
 2368W        W 6112   3.205   3.702   3.567
 2369W        W 6113   2.303   9.450  11.779
 2370W        W 6114  10.294   9.156   8.903
 2371W        W 6115   4.631   3.722   1.421
 2372W        W 6116   2.053   9.509   8.518
 2373W        W 6117   9.082   4.597   0.609
 2374W        W 6118   8.083   6.615   9.747
 2375W        W 6119   2.822   3.943   1.498
 2376W        W 6120  10.126   5.653   9.408
 2377W        W 6121   2.960   8.583  10.154
 2378W        W 6122   3.648   7.972  11.822
 2379W        W 6123   6.822   5.509   1.777
 2380W        W 6124   3.789   8.377   2.162
 2381W        W 6125   0.281   1.315  10.733
 2382W        W 6126   3.282   1.307  10.090
 2383W        W 6127   8.770   8.220   8.414
 2384W        W 6128   5.282   2.983   2.579
 2385W        W 6129  10.350   9.189  10.084
 2386W        W 6130   2.068   2.834   8.844
 2387W        W 6131   2.655   5.016   2.364
 2388W        W 6132   8.962   9.836   1.271
 2389W        W 6133   3.172   6.133   1.007
 2390W        W 6134   8.740   0.452   0.123
 2391W        W 6135   1.224   8.175   2.758
 2392W        W 6136   4.584   1.652   9.894
 2393W        W 6137   6.607   2.240   0.357
 2394W        W 6138   3.013   4.098   9.427
 2395W        W 6139   8.980   9.324  10.777
 2396W        W 6140   8.609   4.603   9.401
 2397W        W 6141   4.505  10.446   0.297
 2398W        W 6142   0.155   9.801  10.486
 2399W        W 6143   7.901   4.755  10.758
 2400W        W 6144   1.422   9.083   2.152
 2401W        W 6145   5.946   7.639  10.395
 2402W        W 6146   5.081   8.145   3.656
 2403W        W 6147   0.830   3.558   2.255
 2404W        W 6148   9.855   6.168  10.440
 2405W        W 6149   5.995   8.677  11.890
 2406W        W 6150   3.351   6.824  10.389
 2407W        W 6151   4.652   2.630  11.763
 2408W        W 6152   4.259   1.783   8.746
 2409W        W 6153   3.686   7.620   3.956
 2410W        W 6154   8.928   7.532   2.591
 2411W        W 6155   7.754   0.389   8.388
 2412W        W 6156  10.048   9.478   1.179
 2413W        W 6157   1.604   4.529   3.635
 2414W        W 6158   8.562   9.383  10.082
 2415W        W 6159   5.318   4.781   2.155
 2416W        W 6160   8.844  10.447  11.361
 2417W        W 6161   2.840   0.318   3.583
 2418W        W 6162   7.611   2.699   9.522
 2419W        W 6163   5.550   8.299  11.758
 2420W        W 6164  10.441   7.891   3.308
 2421W        W 6165   6.521   0.466  11.955
 2422W        W 6166   2.384   6.851   9.617
 2423W        W 6167   2.883   8.085   9.359
 2424W        W 6168   8.415   4.199   1.258
 2425W        W 6169   5.564   5.155  10.357
 2426W        W 6170   9.952   1.869   9.915
 2427W        W 6171   4.790   3.680   2.454
 2428W        W 6172  10.117   8.389   0.293
 2429W        W 6173   5.062   9.245   0.235
 2430W        W 6174   4.665   1.189  10.331
 2431W        W 6175   0.681   2.280   9.956
 2432W        W 6176   2.236   4.769   9.077
 2433W        W 6177   8.889   9.570   1.731
 2434W        W 6178   7.246   6.477   9.900
 2435W        W 6179   0.401   4.327   0.549
 2436W        W 6180   9.220   5.760   1.211
 2437W        W 6181   2.695   9.486   2.934
 2438W        W 6182   2.698   7.823   0.694
 2439W        W 6183   2.555   0.315  11.305
 2440W        W 6184   6.152   4.741  11.271
 2441W        W 6185   2.913   0.290   9.265
 2442W        W 6186   0.927   0.535   8.425
 2443W        W 6187   9.872   3.717   1.258
 2444W        W 6188   4.959   4.017   4.092
 2445W        W 6189   7.169   7.725  10.834
 2446W        W 6190   8.857   6.090   8.891
 2447W        W 6191   1.652   4.204  10.772
 2448W        W 6192   7.076   4.597   9.521
 2449W        W 6193   0.765   1.435   9.997
 2450W        W 6194   8.887   0.291   0.913
 2451W        W 6195  10.412   7.162   8.965
 2452W        W 6196   2.128   1.849  10.773
 2453W        W 6197   3.713   0.987   9.115
 2454W        W 6198   2.329   8.695   9.452
 2455W        W 6199   4.160   1.323   1.819
 2456W        W 6200   7.628   8.081   3.537
 2457W        W 6201   6.923   0.801   9.524
 2458W        W 6202   1.846   1.351   1.988
 2459W        W 6203   7.459   8.428  11.664
 2460W        W 6204   2.690   2.123   2.946
 2461W        W 6205  10.456  10.040  10.940
 2462W        W 6206   3.359   7.906   3.652
 2463W        W 6207   7.915   0.706   2.743
 2464W        W 6208   2.325   7.681   3.047
 2465W        W 6209   2.590   2.232   2.465
 2466W        W 6210  10.417   3.714   0.027
 2467W        W 6211   6.482   6.986   1.833
 2468W        W 6212   6.103  10.479   1.714
 2469W        W 6213   3.883   0.133   8.953
 2470W        W 6214   3.818   0.535   9.311
 2471W        W 6215   7.198   7.844   0.871
 2472W        W 6216   5.064   3.557   9.880
 2473W        W 6217   8.103   9.305  10.354
 2474W        W 6218   1.782   0.900   1.297
 2475W        W 6219   1.869   2.101  10.373
 2476W        W 6220   6.698   2.886   0.867
 2477W        W 6221   4.610   8.561  11.898
 2478W        W 6222  10.007   9.533   8.575
 2479W        W 6223   6.265   8.827  11.469
 2480W        W 6224   0.393   4.181   1.042
 2481W        W 6225   6.079   6.256   3.363
 2482W        W 6226   8.387   8.022   8.767
 2483W        W 6227   4.160   7.706   0.798
 2484W        W 6228   5.229  10.160  11.908
 2485W        W 6229  10.141   8.531   1.170
 2486W        W 6230   5.123   2.518  10.017
 2487W        W 6231   3.199  10.413   1.299
 2488W        W 6232   5.018   6.011  11.905
 2489W        W 6233   7.536   8.854   8.780
 2490W        W 6234   8.931   3.201   9.034
 2491W        W 6235   0.836   7.482  10.289
 2492W        W 6236   0.378   1.597  10.305
 2493W        W 6237   0.910   8.946   1.414
 2494W        W 6238  10.090   8.099   9.477
 2495W        W 6239   7.163   2.888  11.067
 2496W        W 6240   2.922   0.234   1.574
 2497W        W 6241   2.499   7.256   9.303
 2498W        W 6242   3.883   8.092   1.618
 2499W        W 6243   5.442   4.230   3.130
 2500W        W 6244   9.941   2.446  11.680
 2501W        W 6245   3.375   0.306   1.797
 2502W        W 6246   7.572   3.791  10.436
 2503W        W 6247   4.254   3.878  11.289
 2504W        W 6248   0.027   5.941   2.215
 2505W        W 6249   0.659   6.586  10.275
 2506W        W 6250   7.892   2.323   2.799
 2507W        W 6251   9.397   3.135   1.285
 2508W        W 6252   3.736   1.285   0.988
 2509W        W 6253   4.588   7.981   3.601
 2510W        W 6254   1.197   5.326  10.295
 2511W        W 6255   5.715   9.901   1.306
 2512W        W 6256   0.727   7.451   2.244
 2513W        W 6257   7.926  10.024  11.048
 2514W        W 6258   9.437   7.655  10.188
 2515W        W 6259   5.658   4.489   9.154
 2516W        W 6260   8.022   1.783   1.944
 2517W        W 6261   7.828   7.053   0.868
 2518W        W 6262   8.072   0.254   2.973
 2519W        W 6263   9.358   2.820   0.482
 2520W        W 6264   2.137   7.416   1.724
 2521W        W 6265   4.146   8.635   0.861
 2522W        W 6266   8.913   5.970  10.968
 2523W        W 6267   9.596  10.031   3.770
 2524W        W 6268  10.005   4.454   1.661
 2525W        W 6269   2.404   5.332   1.467
 2526W        W 6270  10.055   4.882  11.817
 2527W        W 6271   8.120   2.458   1.444
 2528W        W 6272   9.156   3.679   9.175
 2529W        W 6273   6.285   2.899   1.156
 2530W        W 6274  10.292   1.286   9.977
 2531W        W 6275  10.391   2.419   1.965
 2532W        W 6276   6.511   2.744   2.770
 2533W        W 6277   8.303   7.153   9.142
 2534W        W 6278   9.988  10.330   2.727
 2535W        W 6279   0.833   6.810   1.166
 2536W        W 6280   3.270   0.227  10.044
 2537W        W 6281   2.085   2.654   3.430
 2538W        W 6282   4.063   5.279   0.473
 2539W        W 6283   6.222   6.939   9.089
 2540W        W 6284   2.866   4.168   9.909
 2541W        W 6285   3.203   9.688   9.915
 2542W        W 6286   5.953   6.630  11.302
 2543W        W 6287   8.154   4.034  11.827
 2544W        W 6288   7.236   5.584   1.189
 2545W        W 6289   0.924   9.142   9.446
 2546W        W 6290   5.242   0.273   1.931
 2547W        W 6291   6.245   1.209  10.041
 2548W        W 6292   7.863   5.448   1.759
 2549W        W 6293   7.419   8.080   3.069
 2550W        W 6294   5.463   7.826   3.730
 2551W        W 6295   7.037   6.076   0.047
 2552W        W 6296   1.890   4.259   9.863
 2553W        W 6297   4.991   2.922   8.553
 2554W        W 6298   3.143   3.459   3.103
 2555W        W 6299   9.334   9.310   3.352
 2556W        W 6300   6.247   4.977   2.146
 2557W        W 6301   4.508   7.704  11.448
 2558W        W 6302   9.011   4.512  11.047
 2559W        W 6303   8.570   9.294  11.125
 2560W        W 6304   5.975   3.497   9.866
 2561W        W 6305  10.421   0.346   3.136
 2562W        W 6306   3.569   2.247   8.744
 2563W        W 6307   8.142   9.321  11.513
 2564W        W 6308   4.727   8.369   0.409
 2565W        W 6309   8.931   1.487   1.539
 2566W        W 6310   6.930   0.813  10.933
 2567W        W 6311   4.588   6.648   9.098
 2568W        W 6312   9.162   3.437   2.065
 2569W        W 6313   8.488   7.398   0.329
 2570W        W 6314   4.684   9.067  10.109
 2571W        W 6315   1.603   6.508   3.501
 2572W        W 6316   5.197   1.418   2.496
 2573W        W 6317   3.622   8.394  10.881
 2574W        W 6318   5.619   1.704   0.550
 2575W        W 6319   3.825   7.485   9.770
 2576W        W 6320   5.649   5.159   1.305
 2577W        W 6321   9.412   7.907   2.079
 2578W        W 6322   7.192   1.369   9.779
 2579W        W 6323   8.520   6.694  10.010
 2580W        W 6324   9.718   9.964   2.940
 2581W        W 6325   4.064   1.529  11.557
 2582W        W 6326   0.770   6.093   9.867
 2583W        W 6327   1.375   8.500  11.083
 2584W        W 6328   3.312   1.466  10.597
 2585W        W 6329  10.483   0.015   9.715
 2586W        W 6330   2.680   4.926   3.577
 2587W        W 6331   5.753   0.740  10.490
 2588W        W 6332   0.764   4.340   1.743
 2589W        W 6333   6.004   7.320   9.568
 2590W        W 6334   0.865   4.651   8.683
 2591W        W 6335   4.592   8.466  11.363
 2592W        W 6336   2.221   3.205  10.687
 2593W        W 6337   6.667   8.394   1.853
 2594W        W 6338   0.380   5.722   9.976
 2595W        W 6339   9.633   5.371   0.453
 2596W        W 6340   9.806   3.056   0.072
 2597W        W 6341   4.310   9.528  11.838
 2598W        W 6342   1.714   3.665  10.402
 2599W        W 6343   0.457   0.489   0.367
 2600W        W 6344   1.795   5.609   8.682
 2601W        W 6345  10.219   2.804  11.952
 2602W        W 6346   5.795   2.496   9.953
 2603W        W 6347   6.577   2.945   1.928
 2604W        W 6348   6.489   3.920  10.347
 2605W        W 6349   7.496   2.256   8.776
 2606W        W 6350   6.520  10.388  10.116
 2607W        W 6351   2.249   9.650   9.268
 2608W        W 6352   4.691   6.411   1.307
 2609W        W 6353   3.626  10.402  10.298
 2610W        W 6354   2.948   5.645   3.116
 2611W        W 6355   6.346  10.224   3.288
 2612W        W 6356   9.391   3.040   2.804
 2613W        W 6357   8.050   1.760   8.818
 2614W        W 6358   8.959   9.528   9.806
 2615W        W 6359   9.431   2.194   1.769
 2616W        W 6360   8.396   0.205   8.828
 2617W        W 6361   5.389   9.569   9.824
 2618W        W 6362   7.002   2.191   3.293
 2619W        W 6363   7.896   3.871  11.368
 2620W        W 6364   1.139   1.416  11.210
 2621W        W 6365   7.082   5.028  11.805
 2622W        W 6366   8.305   7.105   1.235
 2623W        W 6367   4.223   6.550   1.098
 2624W        W 6368   2.742   9.890  10.035
 2625W        W 6369   5.454   7.622   1.600
 2626W        W 6370   7.100   5.729  10.235
 2627W        W 6371   8.433   0.714   8.742
 2628W        W 6372   7.254   9.292   9.273
 2629W        W 6373   6.060   1.991  11.212
 2630W        W 6374   7.322   5.194  10.250
 2631W        W 6375   2.058   9.932   0.671
 2632W        W 6376   9.960   9.310  11.873
 2633W        W 6377   4.617   0.674  10.638
 2634W        W 6378   9.852   9.488  10.798
 2635W        W 6379   9.473   1.809   2.406
 2636W        W 6380   9.568   0.471   9.159
 2637W        W 6381   5.193   1.930  10.266
 2638W        W 6382   2.758   9.291   2.463
 2639W        W 6383   1.151   1.001   0.750
 2640W        W 6384   5.954   3.028   9.007
 2641W        W 6385   6.516  10.170  11.594
 2642W        W 6386   6.961   8.524  10.696
 2643W        W 6387   0.370   2.675  10.056
 2644W        W 6388   2.445   9.544   0.611
 2645W        W 6389   0.523   7.394  10.967
 2646W        W 6390   3.796   0.433   2.519
 2647W        W 6391   5.231   5.045  11.858
 2648W        W 6392   3.718   6.706   9.701
 2649W        W 6393   9.767   6.626   9.489
 2650W        W 6394   0.029   3.395   0.816
 2651W        W 6395   9.462   9.859  10.732
 2652W        W 6396   2.233  10.436  10.281
 2653W        W 6397   0.199   3.350  11.028
 2654W        W 6398   6.100   1.109   2.776
 2655W        W 6399   2.825   6.065   1.421
 2656W        W 6400   5.681   0.080   0.909
 2657W        W 6401   8.905   4.725   2.902
 2658W        W 6402   8.517   4.148   2.826
 2659W        W 6403   3.640   7.091  10.045
 2660W        W 6404   5.238   6.501   9.880
 2661W        W 6405   6.143   7.703   0.074
 2662W        W 6406   7.556   3.942   2.540
 2663W        W 6407   6.082   1.476   0.521
 2664W        W 6408   4.618   8.372   2.137
 2665W        W 6409   7.058   4.831   2.035
 2666W        W 6410   7.981   7.642   3.616
 2667W        W 6411   8.513   3.397   0.478
 2668W        W 6412   5.531   6.492  10.427
 2669W        W 6413   6.349   8.175   8.691
 2670W        W 6414   9.290   4.286   1.858
 2671W        W 6415   4.485   3.228   1.425
 2672W        W 6416   4.219   8.049  10.778
 2673W        W 6417   9.453   6.731   3.047
 2674W        W 6418   1.480   1.942   0.740
 2675W        W 6419   9.730   9.043   1.827
 2676W        W 6420   6.804   8.248   8.389
 2677W        W 6421  10.303   2.743  11.445
 2678W        W 6422   1.841   0.392   0.501
 2679W        W 6423   8.883   5.503   1.902
 2680W        W 6424   0.257   1.311  11.769
 2681W        W 6425   1.630   4.160   2.663
 2682W        W 6426   8.506   4.590   1.623
 2683W        W 6427   6.675   4.461  10.568
 2684W        W 6428   6.683   3.143  11.541
 2685W        W 6429   7.666   0.502   1.222
 2686W        W 6430   9.869   9.130  10.420
 2687W        W 6431  10.347   2.592  10.964
 2688W        W 6432   4.489   5.591   0.381
 2689W        W 6433   1.419   6.028   1.653
 2690W        W 6434   2.217   1.300   0.679
 2691W        W 6435   3.703   1.884   9.568
 2692W        W 6436   9.621   1.785   2.914
 2693W        W 6437   8.383   5.699  11.580
 2694W        W 6438   9.833   1.720   8.804
 2695W        W 6439   0.267   5.110   8.810
 2696W        W 6440   0.306   4.893  10.545
 2697W        W 6441   5.891   7.577   3.862
 2698W        W 6442   8.492   7.575   1.353
 2699W        W 6443   9.251   8.107   9.738
 2700W        W 6444   1.091   7.673   2.699
 2701W        W 6445   4.212   8.909   1.703
 2702W        W 6446   8.801   0.562   1.932
 2703W        W 6447   0.821   9.491  10.009
 2704W        W 6448   4.966   4.014   3.220
 2705W        W 6449   7.440   5.533  11.490
 2706W        W 6450   1.149   4.323  10.358
 2707W        W 6451   2.314   2.704  11.941
 2708W        W 6452   4.524   6.560   0.287
 2709W        W 6453   0.386   9.804   1.264
 2710W        W 6454   2.244   7.215   3.294
 2711W        W 6455   9.747   6.475  11.715
 2712W        W 6456   7.896   8.439   9.259
 2713W        W 6457   7.511   4.761   2.269
 2714W        W 6458   4.368   4.200   9.923
 2715W        W 6459   5.818   9.311   9.628
 2716W        W 6460   8.623   9.376  11.626
 2717W        W 6461   3.101   1.514   0.351
 2718W        W 6462   9.442   6.224  11.238
 2719W        W 6463   9.185   0.713   9.409
 2720W        W 6464   8.359   3.294  10.268
 2721W        W 6465   1.837   0.673  10.331
 2722W        W 6466   3.509   6.919   0.714
 2723W        W 6467   1.390   5.604  11.987
 2724W        W 6468   8.839   7.147   0.625
 2725W        W 6469   0.365   0.238  10.413
 2726W        W 6470   8.610   4.784  11.857
 2727W        W 6471   2.663   9.802   1.737
 2728W        W 6472   7.882   5.274   8.472
 2729W        W 6473  10.333   5.249  11.596
 2730W        W 6474   7.324   6.952   9.158
 2731W        W 6475   2.080  10.275   2.116
 2732W        W 6476   8.567   7.826  10.136
 2733W        W 6477   1.932   6.201   1.589
 2734W        W 6478   6.372   0.683   2.740
 2735W        W 6479   3.193   9.519   2.654
 2736W        W 6480   5.832   4.523   0.872
 2737W        W 6481   0.404  10.377   0.243
 2738W        W 6482   6.157   1.663   1.921
 2739W        W 6483   1.844   8.555   9.299
 2740W        W 6484   6.584  10.301  11.118
 2741W        W 6485   9.258   2.356   0.880
 2742W        W 6486   3.224   0.970  10.476
 2743W        W 6487   1.535   0.961   2.102
 2744W        W 6488   8.722   8.177   9.794
 2745W        W 6489   6.106   4.297  10.978
 2746W        W 6490   3.790   7.673  11.440
 2747W        W 6491   0.481   1.868   0.044
 2748W        W 6492   8.004   3.174   8.901
 2749W        W 6493   7.018   9.169   1.040
 2750W        W 6494   7.475   0.536   2.966
 2751W        W 6495  10.462   4.671   9.978
 2752W        W 6496   9.409   9.369   9.955
 2753W        W 6497   7.474   0.138  11.312
 2754W        W 6498   7.836   6.978   1.395
 2755W        W 6499  10.322   1.227  10.952
 2756W        W 6500   5.141   1.346  10.512
 2757W        W 6501   3.057  10.259   9.165
 2758W        W 6502   0.986   7.021   8.584
 2759W        W 6503   7.110   8.843   0.649
 2760W        W 6504   2.296   8.853   1.528
 2761W        W 6505  10.336   6.066   3.486
 2762W        W 6506   0.363   0.918   0.088
 2763W        W 6507  10.351   4.096  10.559
 2764W        W 6508   8.577   2.626   1.188
 2765W        W 6509   8.407   0.230   9.728
 2766W        W 6510   0.652   7.335   9.353
 2767W        W 6511   8.374   5.539   1.746
 2768W        W 6512   8.756   4.182   9.092
 2769W        W 6513   0.825   3.704   9.348
 2770W        W 6514   6.187   4.433   2.122
 2771W        W 6515   8.383   6.539  11.462
 2772W        W 6516   2.586   4.766  11.284
 2773W        W 6517   9.948   6.936   1.884
 2774W        W 6518   8.291   9.633   0.405
 2775W        W 6519   3.427   3.222  10.105
 2776W        W 6520   0.071   5.990   1.296
 2777W        W 6521   2.010   8.257   0.373
 2778W        W 6522  10.421   6.436   1.515
 2779W        W 6523   6.830   5.311  10.163
 2780W        W 6524   2.656   5.980   0.945
 2781W        W 6525   7.482   5.894  10.791
 2782W        W 6526   6.152   9.999   1.555
 2783W        W 6527   9.117   1.750   2.783
 2784W        W 6528   8.613   5.078   1.727
 2785W        W 6529   0.196   8.569   2.858
 2786W        W 6530   8.343   9.726  11.305
 2787W        W 6531   5.720   7.102   9.173
 2788W        W 6532   7.240   1.852   9.998
 2789W        W 6533   6.139   8.658  10.521
 2790W        W 6534   1.823   6.054   3.537
 2791W        W 6535   5.939   4.098   3.069
 2792W        W 6536   7.019   0.705   0.716
 2793W        W 6537   2.500   8.271   0.545
 2794W        W 6538   9.766   5.917   1.837
 2795W        W 6539   8.427   9.086   3.488
 2796W        W 6540   8.536   2.854  10.488
 2797W        W 6541   3.294   3.275   8.586
 2798W        W 6542   3.099   2.258  11.116
 2799W        W 6543   9.060   1.227   8.695
 2800W        W 6544   8.902   7.021   1.900
 2801W        W 6545   0.218   3.086  10.390
 2802W        W 6546  10.417   8.213   2.099
 2803W        W 6547   2.213   6.398  11.598
 2804W        W 6548  10.440   6.051   9.425
 2805W        W 6549   3.106   2.362   0.132
 2806W        W 6550   3.876   3.341   0.519
 2807W        W 6551   5.566   3.308  11.619
 2808W        W 6552   8.569   8.596   2.818
 2809W        W 6553   8.755  10.334   8.960
 2810W        W 6554   1.918   8.068   1.792
 2811W        W 6555   5.293   9.577   3.399
 2812W        W 6556   3.866   2.329   9.803
 2813W        W 6557   4.538   7.932   0.568
 2814W        W 6558   8.139   1.701  10.324
 2815W        W 6559   9.835   0.533  10.336
 2816W        W 6560   9.876   0.960  10.046
 2817W        W 6561   5.996   2.758   8.423
 2818W        W 6562   7.972   8.877   1.212
 2819W        W 6563   1.215   4.293   3.451
 2820W        W 6564   6.049   0.018   0.225
 2821W        W 6565   9.962   7.457  10.110
 2822W        W 6566   1.122   9.005   0.969
 2823W        W 6567   8.336   0.032   0.827
 2824W        W 6568   3.137   5.253   1.469
 2825W        W 6569   1.889   3.733   1.802
 2826W        W 6570   8.461   6.073   1.693
 2827W        W 6571   0.020   0.208   0.280
 2828W        W 6572   0.255   1.113   8.424
 2829W        W 6573   7.620   1.074  10.359
 2830W        W 6574   7.809   6.194   1.016
 2831W        W 6575   4.079   9.017   1.222
 2832W        W 6576  10.090   2.649   0.857
 2833W        W 6577   9.493   8.896   0.514
 2834W        W 6578   1.048   5.222   9.395
 2835W        W 6579   5.963   8.813   9.857
 2836W        W 6580   9.407   2.322   0.391
 2837W        W 6581   8.022   6.165   8.781
 2838W        W 6582   7.194   5.477  10.653
 2839W        W 6583   8.371   5.422   3.503
 2840W        W 6584   0.311   9.958  11.918
 2841W        W 6585   9.347   5.352   9.684
 2842W        W 6586   3.285   1.310   9.078
 2843W        W 6587   1.027   4.800   1.976
 2844W        W 6588   8.537   6.199   3.165
 2845W        W 6589   9.410   6.296   9.303
 2846W        W 6590   6.948  10.443   0.303
 2847W        W 6591   0.029   0.731   2.302
 2848W        W 6592   6.679   7.825  11.937
 2849W        W 6593   5.303   1.426  11.508
 2850W        W 6594   6.244   8.905   2.976
 2851W        W 6595   1.404   0.966  10.023
 2852W        W 6596   7.931   2.156   2.324
 2853W        W 6597   1.014   5.846   0.320
 2854W        W 6598   8.676   0.031   0.460
 2855W        W 6599   4.649   8.933   9.615
 2856W        W 6600   5.550   3.222   0.156
 2857W        W 6601   1.849   6.774  11.205
 2858W        W 6602   4.153   6.379   0.604
 2859W        W 6603   3.460  10.049   0.001
 2860W        W 6604   2.610   4.113  10.402
 2861W        W 6605   5.251   8.671   3.775
 2862W        W 6606   0.494   8.927   2.068
 2863W        W 6607   1.322   2.034  11.856
 2864W        W 6608   0.415   7.195   2.857
 2865W        W 6609   3.211   1.842   9.864
 2866W        W 6610   7.265   0.368   9.989
 2867W        W 6611   4.735   3.127  10.252
 2868W        W 6612   4.551   9.434   9.579
 2869W        W 6613   8.479   4.394   3.564
 2870W        W 6614   8.592   3.865   0.049
 2871W        W 6615   9.355   1.781   3.389
 2872W        W 6616   3.044   2.670   1.079
 2873W        W 6617   1.303  10.359   9.260
 2874W        W 6618   6.639   5.665   0.928
 2875W        W 6619   4.417   5.830  11.407
 2876W        W 6620   7.959   8.153  10.832
 2877W        W 6621   1.401   4.745  11.831
 2878W        W 6622   1.832   9.932   1.125
 2879W        W 6623   3.001   9.163  11.867
 2880W        W 6624   8.814   9.514   0.287
 2881W        W 6625   4.179   7.417  10.130
 2882W        W 6626   8.510   1.325  10.434
 2883W        W 6627   3.024   0.057   2.116
 2884W        W 6628   0.431   7.107   1.933
 2885W        W 6629   9.275   9.302   1.944
 2886W        W 6630   7.446   0.106   1.457
 2887W        W 6631   1.134   8.286   1.916
 2888W        W 6632   5.057   8.739   9.303
 2889W        W 6633   4.588   9.099  11.984
 2890W        W 6634   1.494   9.322   1.142
 2891W        W 6635   2.766   9.483   9.245
 2892W        W 6636   5.927   7.987   8.955
 2893W        W 6637   7.859   9.759  10.439
 2894W        W 6638   6.192   4.217   0.721
 2895W        W 6639   3.340   0.463  10.488
 2896W        W 6640   8.279   2.341   1.979
 2897W        W 6641   4.614   2.641   1.896
 2898W        W 6642  10.158   5.216   0.499
 2899W        W 6643   6.762   1.671  10.553
 2900W        W 6644   2.079   2.164   1.452
 2901W        W 6645   8.355   6.940  11.798
 2902W        W 6646   6.886   6.598  10.304
 2903W        W 6647   8.060   5.223  10.953
 2904W        W 6648   8.779   5.715   1.468
 2905W        W 6649   4.035   4.669  11.645
 2906W        W 6650   6.017   5.299   9.623
 2907W        W 6651   9.869   4.179  11.398
 2908W        W 6652   4.309   3.104   9.971
 2909W        W 6653   1.596   4.558  11.153
 2910W        W 6654   2.406   4.283   3.304
 2911W        W 6655   7.123   6.908  11.215
 2912W        W 6656   5.624   4.191   2.649
 2913W        W 6657   2.828   9.323   0.868
 2914W        W 6658   3.033   4.720   1.154
 2915W        W 6659  10.319   3.462   1.285
 2916W        W 6660   4.899   8.655   2.511
 2917W        W 6661   5.209   0.491   0.264
 2918W        W 6662   8.178   3.751   8.018
 2919W        W 6663   7.902   6.898   3.506
 2920W        W 6664   2.715   9.452   9.748
 2921W        W 6665  10.179   5.965  10.759
 2922W        W 6666   9.787   5.607   2.639
 2923W        W 6667   5.135   7.513   9.579
 2924W        W 6668   3.579   3.999   9.402
 2925W        W 6669   1.117   0.106  11.702
 2926W        W 6670   1.688  10.228   0.372
 2927W        W 6671  10.468   7.368  10.073
 2928W        W 6672   7.680   6.532   9.049
 2929W        W 6673   8.315   5.810   1.276
 2930W        W 6674   4.593   6.285  11.865
 2931W        W 6675   3.394   4.528  11.094
 2932W        W 6676  10.020   1.387   9.151
 2933W        W 6677   0.182   5.260  10.210
 2934W        W 6678   0.987   1.622  10.705
 2935W        W 6679   1.688   7.413   1.970
 2936W        W 6680   0.207   0.398  10.880
 2937W        W 6681   7.016   4.867   0.707
 2938W        W 6682   6.819   8.913   1.861
 2939W        W 6683   4.563   8.550   9.264
 2940W        W 6684   7.511   4.764   1.392
 2941W        W 6685   4.186   8.291   0.496
 2942W        W 6686   5.122   3.203  11.874
 2943W        W 6687   4.695   5.963   1.742
 2944W        W 6688   8.653   8.094   9.265
 2945W        W 6689   0.157   4.443  10.388
 2946W        W 6690   6.384   2.040  10.520
 2947W        W 6691   0.224   7.986   0.746
 2948W        W 6692   9.814   0.381  11.305
 2949W        W 6693   8.476   7.445  10.497
 2950W        W 6694   1.186   5.197  11.747
 2951W        W 6695   6.536   3.741   2.360
 2952W        W 6696   5.192   7.418   2.616
 2953W        W 6697   3.863   1.275  11.958
 2954W        W 6698   2.533   6.666   0.401
 2955W        W 6699   5.542   8.073   2.215
 2956W        W 6700   5.102   8.361   0.024
 2957W        W 6701   0.431   1.258   3.178
 2958W        W 6702   6.303   2.137  10.016
 2959W        W 6703   8.113   5.516   2.213
 2960W        W 6704   4.263   4.812   0.365
 2961W        W 6705   1.307   2.820   1.941
 2962W        W 6706   0.226   4.218   3.316
 2963W        W 6707   5.284   3.507  11.205
 2964W        W 6708   1.971   8.255  10.620
 2965W        W 6709   5.682   2.117  10.279
 2966W        W 6710   9.051   1.231   9.230
 2967W        W 6711   9.280   7.892  10.638
 2968W        W 6712   7.767   6.003   3.627
 2969W        W 6713   4.231   2.081  10.229
 2970W        W 6714   0.572   8.515   1.303
 2971W        W 6715   8.550   5.099   0.777
 2972W        W 6716   9.057   1.893   8.159
 2973W        W 6717   4.067   3.229  10.792
 2974W        W 6718   4.168   6.093  10.149
 2975W        W 6719   2.240   7.886   8.795
 2976W        W 6720   0.378   4.648   3.531
 2977W        W 6721   1.696   9.458   2.445
 2978W        W 6722   3.770   1.391   9.860
 2979W        W 6723   9.763   8.478   3.303
 2980W        W 6724   0.930   3.213   9.484
 2981W        W 6725   7.033   4.066   1.330
 2982W        W 6726   0.715   2.827   9.204
 2983W        W 6727   5.133   4.004   2.743
 2984W        W 6728   3.003   6.890   0.647
 2985W        W 6729   4.022   6.872   0.740
 2986W        W 6730   9.093   4.629   9.331
 2987W        W 6731   3.764   5.756   9.463
 2988W        W 6732   5.540   4.274   8.707
 2989W        W 6733   7.858   2.614   3.248
 2990W        W 6734   1.708   1.664  10.551
 2991W        W 6735   3.666   7.152  11.465
 2992W        W 6736   8.672   2.314   3.425
 2993W        W 6737   6.977   0.466  11.368
 2994W        W 6738   2.405   8.384  10.379
 2995W        W 6739   1.662   3.552   0.305
 2996W        W 6740   3.179   6.448   8.974
 2997W        W 6741  10.365   4.202  11.228
 2998W        W 6742   5.137   2.300   3.685
 2999W        W 6743   4.264   3.372   3.192
 3000W        W 6744   3.607   5.912  11.833
 3001W        W 6745   9.500   4.090   0.843
 3002W        W 6746   6.204   5.717   0.548
 3003W        W 6747   0.938   3.330  11.807
 3004W        W 6748   2.720   4.950   1.495
 3005W        W 6749   0.900   7.087  11.111
 3006W        W 6750   3.244   5.929  10.120
 3007W        W 6751   8.531   1.825   1.906
 3008W        W 6752   6.623   9.811   1.512
 3009W        W 6753   7.040  10.408   9.935
 3010W        W 6754   5.009   9.351  11.740
 3011W        W 6755   4.232   7.041   1.951
 3012W        W 6756   7.824   9.637   0.793
 3013W        W 6757   7.092   8.557   8.674
 3014W        W 6758  10.034   5.718   0.405
 3015W        W 6759  10.058   3.503   8.440
 3016W        W 6760   1.200   3.367   3.050
 3017W        W 6761   4.246   6.172   1.474
 3018W        W 6762   4.729   7.480   0.469
 3019W        W 6763   0.974   5.592   8.946
 3020W        W 6764   5.691   0.398  10.973
 3021W        W 6765   5.530   0.988  11.808
 3022W        W 6766   8.017   8.887   9.031
 3023W        W 6767   6.033  10.316   8.984
 3024W        W 6768   1.450   0.226   0.208
 3025W        W 6769   9.749   1.383   1.251
 3026W        W 6770   8.569   5.251   2.230
 3027W        W 6771   2.713   6.024   3.428
 3028W        W 6772   4.681   3.164   9.197
 3029W        W 6773   9.907   5.241   1.265
 3030W        W 6774   5.212   0.275   0.743
 3031W        W 6775   2.836   1.759   9.026
 3032W        W 6776   5.178   5.578  10.972
 3033W        W 6777   2.664   3.068   2.601
 3034W        W 6778   9.661   2.170   3.253
 3035W        W 6779   8.944   6.506   9.223
 3036W        W 6780   1.013   9.556   0.379
 3037W        W 6781   6.474   9.967   0.110
 3038W        W 6782   4.509   4.487  11.681
 3039W        W 6783   1.776   5.896   1.216
 3040W        W 6784   5.991   8.857   9.351
 3041W        W 6785   7.602   9.585   9.495
 3042W        W 6786   3.729   6.983   1.183
 3043W        W 6787   7.032   4.051   0.805
 3044W        W 6788   8.026   5.030   2.082
 3045W        W 6789   8.442   0.289  10.464
 3046W        W 6790   6.535   4.046  10.848
 3047W        W 6791   4.583   0.862   8.608
 3048W        W 6792   8.928   1.788  11.656
 3049W        W 6793  10.183   7.500   3.099
 3050W        W 6794   3.174   4.948   3.168
 3051W        W 6795   5.944   3.615   3.251
 3052W        W 6796   1.495   7.576  10.814
 3053W        W 6797   0.443   2.249  11.694
 3054W        W 6798   4.708   9.583   1.355
 3055W        W 6799   8.071   3.405  11.285
 3056W        W 6800   5.177   7.493   9.049
 3057W        W 6801   2.194  10.319   1.189
 3058W        W 6802   1.945   5.171   1.732
 3059W        W 6803   9.080   5.019  10.949
 3060W        W 6804   4.610   2.527   1.032
 3061W        W 6805   1.925   3.175  11.513
 3062W        W 6806   3.787   6.249  11.486
 3063W        W 6807  10.341   1.743   9.611
 3064W        W 6808   1.274   3.895  10.607
 3065W        W 6809   9.453   5.526  10.146
 3066W        W 6810  10.030   5.675   3.178
 3067W        W 6811   6.636   6.151   2.290
 3068W        W 6812   3.807   7.110   8.869
 3069W        W 6813   3.120   6.375  11.319
 3070W        W 6814   1.851   5.039   8.861
 3071W        W 6815   2.588   3.710  10.095
 3072W        W 6816   7.828   9.930   8.685
 3073W        W 6817   4.288   8.431  10.430
 3074W        W 6818   0.704   7.871  10.945
 3075W        W 6819  10.476   6.945   9.801
 3076W        W 6820   4.217   9.406   1.575
 3077W        W 6821   2.036   0.279  11.395
 3078W        W 6822   8.151   2.910   1.185
 3079W        W 6823   2.048   8.539   1.825
 3080W        W 6824   1.183   1.319  10.321
 3081W        W 6825   7.461   6.640   2.470
 3082W        W 6826   7.517   0.843   8.519
 3083W        W 6827   6.725   1.796   1.278
 3084W        W 6828   0.206   6.991   9.345
 3085W        W 6829   2.788   1.263   9.311
 3086W        W 6830   7.493   4.090   0.259
 3087W        W 6831   2.572   2.772   8.947
 3088W        W 6832   4.402   0.655   3.181
 3089W        W 6833   7.475   5.532   0.380
 3090W        W 6834   3.330   7.495   9.876
 3091W        W 6835   4.800   0.381   8.648
 3092W        W 6836   0.494   9.469   9.183
 3093W        W 6837   3.539   8.663  11.305
 3094W        W 6838   6.503   0.025   0.970
 3095W        W 6839  10.248   5.165   9.257
 3096W        W 6840   2.579   1.451   0.362
 3097W        W 6841   7.235   7.465   9.907
 3098W        W 6842   3.861   6.593   2.712
 3099W        W 6843   3.317   1.782   1.257
 3100W        W 6844   7.505   0.155   0.318
 3101W        W 6845   6.465   5.513   9.473
 3102W        W 6846   9.163   5.866   2.244
 3103W        W 6847   4.520   9.884   3.202
 3104W        W 6848   5.943   7.591  11.296
 3105W        W 6849   6.692   3.423  10.278
 3106W        W 6850   9.687   1.388   3.269
 3107W        W 6851   6.756   2.783  11.942
 3108W        W 6852   3.140   6.090  10.894
 3109W        W 6853   7.467   0.140   9.334
 3110W        W 6854   1.924   4.468   2.391
 3111W        W 6855   5.720   5.604   9.954
 3112W        W 6856   6.490   6.361   2.728
 3113W        W 6857   3.463   0.070   9.275
 3114W        W 6858   8.512   9.073   3.005
 3115W        W 6859   0.778   0.670   3.656
 3116W        W 6860   9.454   4.654   8.986
 3117W        W 6861   3.990   2.953   3.130
 3118W        W 6862   2.221   9.064   0.763
 3119W        W 6863   2.206   1.976   9.123
 3120W        W 6864   2.888   9.504  10.639
 3121W        W 6865   1.375   9.939   8.968
 3122W        W 6866   9.048   7.500   2.089
 3123W        W 6867   7.457   1.481   3.170
 3124W        W 6868   9.065   2.234   9.088
 3125W        W 6869   0.780   6.346   9.389
 3126W        W 6870   0.041  10.457  10.701
 3127W        W 6871   9.752   7.232   2.243
 3128W        W 6872   2.562   7.645   1.967
 3129W        W 6873   5.910   2.545   8.893
 3130W        W 6874   2.729   9.519   0.168
 3131W        W 6875   4.201   8.184   2.351
 3132W        W 6876   9.833   3.323   2.992
 3133W        W 6877   3.791   9.462  10.805
 3134W        W 6878   0.250   4.447  11.490
 3135W        W 6879   6.576   4.631   9.692
 3136W        W 6880   7.476  10.442   1.917
 3137W        W 6881   0.166   0.449  11.852
 3138W        W 6882   6.483   3.099  11.059
 3139W        W 6883   0.072   9.481   0.855
 3140W        W 6884   8.321   8.402   9.551
 3141W        W 6885   3.768   6.480  10.162
 3142W        W 6886   7.335   5.606   1.694
 3143W        W 6887   1.478   8.904   8.452
 3144W        W 6888   8.441   1.657  11.407
 3145W        W 6889   1.767   3.657  11.431
 3146W        W 6890   6.250   1.512   0.011
 3147W        W 6891   2.721   6.979   2.489
 3148W        W 6892   0.037   1.854  10.611
 3149W        W 6893   7.189   6.153   8.554
 3150W        W 6894   8.824   7.024  10.264
 3151W        W 6895   0.792   6.828   1.664
 3152W        W 6896   7.582  10.225   0.618
 3153W        W 6897   5.335   3.809   8.647
 3154W        W 6898   9.464   0.071  10.452
 3155W        W 6899   2.333   8.146   2.584
 3156W        W 6900   1.628   8.593   2.102
 3157W        W 6901   8.210   2.593  11.965
 3158W        W 6902   4.676   5.209  10.325
 3159W        W 6903   0.045   0.849  10.684
 3160W        W 6904   9.910   4.468   0.786
 3161W        W 6905   0.964   6.611   0.726
 3162W        W 6906   7.402   9.502  10.575
 3163W        W 6907   5.163  10.284   2.047
 3164W        W 6908  10.415   6.419   2.030
 3165W        W 6909   3.030   1.876  11.953
 3166W        W 6910   4.829   3.369   8.771
 3167W        W 6911   7.679   0.938   1.495
 3168W        W 6912   5.743   2.684  10.921
 3169W        W 6913   3.093   6.275   2.760
 3170W        W 6914   6.330   9.069   0.367
 3171W        W 6915   6.182   4.309  10.487
 3172W        W 6916   2.361   8.123   2.076
 3173W        W 6917   7.638   9.926  11.859
 3174W        W 6918   5.166   5.626   1.162
 3175W        W 6919   4.165   1.570  10.179
 3176W        W 6920   3.617   5.222   2.735
 3177W        W 6921   6.126   0.175   9.333
 3178W        W 6922   4.120   1.375   9.058
 3179W        W 6923   4.969   2.723   0.705
 3180W        W 6924   1.029   8.430   9.945
 3181W        W 6925  10.358   8.243   9.057
 3182W        W 6926   2.277   5.635   9.498
 3183W        W 6927   0.932   0.981   9.239
 3184W        W 6928   2.492   4.265   0.473
 3185W        W 6929   5.582   8.045  10.375
 3186W        W 6930   6.917   3.019   2.708
 3187W        W 6931   3.311   4.520  10.603
 3188W        W 6932   6.917   5.398  11.487
 3189W        W 6933   0.481   3.778  11.005
 3190W        W 6934   9.888   1.386   9.667
 3191W        W 6935   6.272   5.623   9.986
 3192W        W 6936   5.966   5.075   1.706
 3193W        W 6937   8.926   8.085  11.688
 3194W        W 6938   8.535   8.558   1.761
 3195W        W 6939   6.636   1.259   8.855
 3196W        W 6940   2.142   9.669   0.230
 3197W        W 6941   5.232   7.567   0.982
 3198W        W 6942   4.180   6.191   8.869
 3199W        W 6943   8.031   0.478   9.101
 3200W        W 6944   2.769   4.443   1.479
 3201W        W 6945   2.640   4.539   8.252
 3202W        W 6946   2.221   1.489  11.701
 3203W        W 6947   6.009   6.112  10.528
 3204W        W 6948   3.149   4.122  10.321
 3205W        W 6949   3.196   0.393   0.245
 3206W        W 6950   9.917  10.249   0.478
 3207W        W 6951   8.868   8.831   1.284
 3208W        W 6952   7.151   3.546   3.692
 3209W        W 6953   9.304   6.879  10.381
 3210W        W 6954   0.637   8.418  11.643
 3211W        W 6955   4.595   7.151   9.990
 3212W        W 6956   8.135   9.542  10.857
 3213W        W 6957   9.451   7.562   0.359
 3214W        W 6958   3.175   8.341   9.004
 3215W        W 6959   1.918   8.533  11.949
 3216W        W 6960   6.056   9.510   0.340
 3217W        W 6961   4.048   4.893  10.464
 3218W        W 6962   4.669   9.119   1.840
 3219W        W 6963   8.439   5.081   2.999
 3220W        W 6964   0.237   5.523   1.441
 3221W        W 6965   4.041   9.711  11.431
 3222W        W 6966   1.495   3.497   3.607
 3223W        W 6967   0.728   7.445   8.738
 3224W        W 6968   1.347   5.630  10.981
 3225W        W 6969   9.451   6.175   1.457
 3226W        W 6970   4.762  10.375  11.848
 3227W        W 6971   0.926   6.111   1.866
 3228W        W 6972   0.452   9.995  10.882
 3229W        W 6973   7.845   0.145   0.872
 3230W        W 6974   5.650   8.037   9.542
 3231W        W 6975   6.312   5.436   1.843
 3232W        W 6976   9.960   3.703   2.669
 3233W        W 6977   2.824   5.182  11.488
 3234W        W 6978   8.461   9.719   9.702
 3235W        W 6979   9.975   0.389   1.411
 3236W        W 6980   6.374   9.460  10.828
 3237W        W 6981   9.295   4.944   0.267
 3238W        W 6982   0.803   3.637   0.267
 3239W        W 6983   4.999   4.825  10.286
 3240W        W 6984  10.403   7.995  11.322
 3241W        W 6985   6.769   1.214  10.055
 3242W        W 6986   0.620   1.654   0.489
 3243W        W 6987   1.981   6.330   9.581
 3244W        W 6988   6.063   9.355  11.429
 3245W        W 6989  10.134   7.343   9.645
 3246W        W 6990   6.177   3.487   8.931
 3247W        W 6991   3.833   6.340   8.455
 3248W        W 6992   2.868   6.114   1.928
 3249W        W 6993   5.206   6.990   2.325
 3250W        W 6994   7.793   4.389   0.737
 3251W        W 6995   8.080   9.790   2.932
 3252W        W 6996   6.772   6.491   8.600
 3253W        W 6997  10.209   9.075   0.920
 3254W        W 6998   9.057   8.031  10.199
 3255W        W 6999   5.206   0.387   8.964
 3256W        W 7000   0.430   1.937   2.659
 3257W        W 7001   5.981   5.080   2.772
 3258W        W 7002   3.615   7.905   3.052
 3259W        W 7003   2.784   0.279   3.041
 3260W        W 7004   9.364   1.209   1.563
 3261W        W 7005   7.930   3.251   9.965
 3262W        W 7006   8.161   0.976   1.301
 3263W        W 7007   3.155   5.020   2.341
 3264W        W 7008   6.584   1.029   3.039
 3265W        W 7009   6.092   8.123  10.550
 3266W        W 7010   1.920   5.588   3.235
 3267W        W 7011   7.223   5.433   9.788
 3268W        W 7012  10.497   5.301   1.033
 3269W        W 7013   0.699   5.286  11.663
 3270W        W 7014   9.111  10.310   0.406
 3271W        W 7015   8.670   4.636  10.301
 3272W        W 7016  10.175   0.348   3.581
 3273W        W 7017   5.299   8.392   9.582
 3274W        W 7018   9.610   6.707  11.284
 3275W        W 7019   7.868   4.226  10.466
 3276W        W 7020   8.446   6.946   9.577
 3277W        W 7021   7.358   6.284   3.775
 3278W        W 7022   5.547   3.759   2.947
 3279W        W 7023   5.789   5.790   0.263
 3280W        W 7024   3.099   2.731   1.573
 3281W        W 7025   5.081   6.721   8.933
 3282W        W 7026   7.873   4.197   9.589
 3283W        W 7027   2.711   6.665   9.007
 3284W        W 7028   3.580   9.496  11.296
 3285W        W 7029   7.906   0.387  11.498
 3286W        W 7030   7.652   5.565   8.111
 3287W        W 7031   8.570   5.437   9.334
 3288W        W 7032   8.288   0.559   3.633
 3289W        W 7033   2.628   6.486   2.640
 3290W        W 7034   5.331   5.505   3.131
 3291W        W 7035   7.338   0.602   3.494
 3292W        W 7036   3.773   9.170   1.853
 3293W        W 7037   6.593   6.003   9.275
 3294W        W 7038   6.447   8.639   2.230
 3295W        W 7039   0.123   8.430  11.553
 3296W        W 7040   5.920   7.101   8.182
 3297W        W 7041   1.419   2.417  10.472
 3298W        W 7042   7.429   3.429   0.823
 3299W        W 7043   0.982   1.814   2.094
 3300W        W 7044   7.363  10.328  11.700
 3301W        W 7045   6.167   3.247   1.953
 3302W        W 7046   7.880   4.702   9.025
 3303W        W 7047   4.235   9.624   0.319
 3304W        W 7048  10.038   5.477  10.827
 3305W        W 7049   6.430   8.093   2.219
 3306W        W 7050   0.020   7.465  10.976
 3307W        W 7051   1.183   0.471   9.949
 3308W        W 7052   1.704   1.842   9.212
 3309W        W 7053   5.761   1.961   2.034
 3310W        W 7054   3.007   2.797  10.788
 3311W        W 7055   9.916   5.233   2.329
 3312W        W 7056   8.570   9.810   2.093
 3313W        W 7057  10.379   9.872   1.175
 3314W        W 7058   4.327   7.117   2.955
 3315W        W 7059   4.025   6.320   3.369
 3316W        W 7060   4.311   1.403   2.310
 3317W        W 7061   9.996   9.785   0.222
 3318W        W 7062   5.231   4.761   9.270
 3319W        W 7063   2.242  10.312   8.537
 3320W        W 7064   4.714   7.492   8.593
 3321W        W 7065   3.664   7.850   0.734
 3322W        W 7066   7.411   7.649   1.284
 3323W        W 7067   8.670   9.928   3.524
 3324W        W 7068   2.706   4.981   9.041
 3325W        W 7069   6.488   9.254  11.685
 3326W        W 7070   1.896   2.626  10.424
 3327W        W 7071   8.562   0.996   3.515
 3328W        W 7072   8.199   1.232   0.064
 3329W        W 7073   5.565   3.628   0.456
 3330W        W 7074   7.017   4.502   1.060
 3331W        W 7075   2.342   0.424  10.469
 3332W        W 7076   2.848   9.504   3.433
 3333W        W 7077   0.673   0.430  10.039
 3334W        W 7078   9.333   7.462   1.248
 3335W        W 7079  10.258   7.072   0.689
 3336W        W 7080   4.740   7.683   9.229
 3337W        W 7081   0.168   8.094   9.921
 3338W        W 7082   8.128   7.553  10.120
 3339W        W 7083   9.110   0.325   0.444
 3340W        W 7084   8.976   9.431   8.764
 3341W        W 7085   1.775   1.229   0.891
 3342W        W 7086   5.674   3.630   0.954
 3343W        W 7087   7.327   1.762   9.462
 3344W        W 7088   4.065  10.187   3.316
 3345W        W 7089   1.821   2.334   8.984
 3346W        W 7090   3.636   0.522  10.965
 3347W        W 7091   3.413   4.583   0.038
 3348W        W 7092   2.412   1.928  10.355
 3349W        W 7093   1.286   5.124   2.406
 3350W        W 7094   1.029   5.168   8.601
 3351W        W 7095   4.347   3.668  10.828
 3352W        W 7096   0.302   3.360   2.424
 3353W        W 7097   8.959   7.959   2.321
 3354W        W 7098   4.583   8.331   0.908
 3355W        W 7099   3.930   4.608   8.681
 3356W        W 7100   2.979  10.307   0.852
 3357W        W 7101   8.331   4.968   9.155
 3358W        W 7102   2.416   8.614   3.309
 3359W        W 7103   5.352   0.750   1.675
 3360W        W 7104   8.408   6.075   0.369
 3361W        W 7105   5.135   3.336   0.864
 3362W        W 7106   6.984  10.017   2.158
 3363W        W 7107   2.117   8.918  10.060
 3364W        W 7108   0.798   5.185   2.269
 3365W        W 7109   5.688   9.902  11.955
 3366W        W 7110   8.139   3.620   1.344
 3367W        W 7111   5.700   7.570   3.356
 3368W        W 7112   6.769   2.842   9.924
 3369W        W 7113   5.842   4.491   0.235
 3370W        W 7114   0.010   9.465   8.506
 3371W        W 7115   5.413   2.141   9.828
 3372W        W 7116   8.943   2.748   3.343
 3373W        W 7117   4.213   8.423   1.812
 3374W        W 7118  10.014   0.014   3.203
 3375W        W 7119   4.961   7.671   1.398
 3376W        W 7120   1.825   2.821   0.741
 3377W        W 7121   5.727   7.829  10.834
 3378W        W 7122   3.821   0.535  11.505
 3379W        W 7123   6.620   8.576   8.916
 3380W        W 7124   9.601   2.786   0.931
 3381W        W 7125   9.462   8.913  10.169
 3382W        W 7126   6.214   2.634   3.701
 3383W        W 7127   3.586   8.909  10.802
 3384W        W 7128   3.128   7.755   0.415
 3385W        W 7129   4.072   4.020   0.966
 3386W        W 7130   1.360   5.490   0.489
 3387W        W 7131   7.727   8.151   2.673
 3388W        W 7132   5.106   9.919   1.358
 3389W        W 7133   3.254   6.928   9.067
 3390W        W 7134   8.091   5.435   3.067
 3391W        W 7135   9.372   0.458   1.055
 3392W        W 7136   8.829   3.235  10.041
 3393W        W 7137   9.037   9.342  11.336
 3394W        W 7138   5.692   2.673   3.825
 3395W        W 7139   1.769   5.516  10.722
 3396W        W 7140   6.934   4.267  11.393
 3397W        W 7141   4.282   3.879   0.178
 3398W        W 7142   2.191   8.099  11.071
 3399W        W 7143   6.173   7.658   8.620
 3400W        W 7144   1.778   1.232   9.739
 3401W        W 7145   5.411   6.485   0.014
 3402W        W 7146   1.315   7.142  10.121
 3403W        W 7147   8.914   3.580  11.771
 3404W        W 7148   6.038   5.171  11.627
 3405W        W 7149   0.513   7.856  10.452
 3406W        W 7150   7.434   6.520  11.382
 3407W        W 7151   8.170   7.877   2.748
 3408W        W 7152   2.555   0.167   1.909
 3409W        W 7153  10.175   0.546  10.940
 3410W        W 7154   6.377  10.484   2.248
 3411W        W 7155   2.761   5.110   4.047
 3412W        W 7156   8.355  10.317  10.312
 3413W        W 7157   9.000   3.574   8.683
 3414W        W 7158   7.174   3.698   0.467
 3415W        W 7159   8.204   7.968   9.797
 3416W        W 7160   0.695   1.209  10.446
 3417W        W 7161   6.775   9.274   9.439
 3418W        W 7162   1.155   0.459   1.866
 3419W        W 7163   4.209   9.349  11.127
 3420W        W 7164   4.976   7.413  10.595
 3421W        W 7165   8.184   6.928   0.281
 3422W        W 7166   4.710   5.432   9.845
 3423W        W 7167   4.021   6.584  11.082
 3424W        W 7168   7.068   8.322   3.466
 3425W        W 7169   3.830   1.944   3.479
 3426W        W 7170   7.378   6.320   0.775
 3427W        W 7171   4.240   3.221   8.921
 3428W        W 7172   0.976   0.401   2.377
 3429W        W 7173   4.296   0.918   0.383
 3430W        W 7174   5.259   1.264   0.998
 3431W        W 7175   7.491   4.759   0.895
 3432W        W 7176   6.933   3.740  10.915
 3433W        W 7177   7.107   1.706   0.943
 3434W        W 7178   5.486   4.884   0.910
 3435W        W 7179   7.559   0.235   8.840
 3436W        W 7180   1.880   6.234   9.048
 3437W        W 7181   6.104   6.766   3.254
 3438W        W 7182   6.480   4.811  10.236
 3439W        W 7183   2.119   9.928   8.856
 3440W        W 7184   3.598   0.841  11.866
 3441W        W 7185   6.553   6.299   3.515
 3442W        W 7186   3.616   9.941  10.539
 3443W        W 7187   7.572   9.063   2.988
 3444W        W 7188   6.481   8.277   9.344
 3445W        W 7189   0.293   1.558   9.377
 3446W        W 7190   9.388   4.853   9.659
 3447W        W 7191   6.104   2.861   0.678
 3448W        W 7192   1.165   4.280   2.449
 3449W        W 7193   8.916   4.879   2.414
 3450W        W 7194   9.520   3.545   1.638
 3451W        W 7195   4.339   2.800   2.319
 3452W        W 7196   0.708   9.203  10.425
 3453W        W 7197   3.850   8.529   1.280
 3454W        W 7198   1.054   2.899   8.814
 3455W        W 7199   4.743   3.061   4.064
 3456W        W 7200   7.052   1.908   0.006
 3457W        W 7201   0.648   6.622   8.503
 3458W        W 7202   1.747   6.076   2.536
 3459W        W 7203   6.950   7.940   3.160
 3460W        W 7204   5.179   8.325   2.839
 3461W        W 7205   5.363   8.842   0.408
 3462W        W 7206   8.856   5.549   8.782
 3463W        W 7207   6.999   9.251  11.838
 3464W        W 7208  10.386  10.214   0.233
 3465W        W 7209   1.478   3.252   0.680
 3466W        W 7210   7.057   6.633   1.028
 3467W        W 7211  10.349   0.675   0.210
 3468W        W 7212   9.944   4.189   9.609
 3469W        W 7213   3.283   4.993  11.297
 3470W        W 7214   7.867   6.919   2.928
 3471W        W 7215   4.714   3.042   1.008
 3472W        W 7216   4.121   4.135  11.740
 3473W        W 7217   9.444   8.326   1.799
 3474W        W 7218   0.874   2.861   0.979
 3475W        W 7219   2.903   5.201   1.921
 3476W        W 7220   0.931   2.343   9.081
 3477W        W 7221   9.891   7.111  11.410
 3478W        W 7222   5.704   7.120  11.344
 3479W        W 7223  10.117   4.556   0.336
 3480W        W 7224   5.572  10.002   3.303
 3481W        W 7225   5.159   1.246   9.512
 3482W        W 7226   1.224   4.239   2.951
 3483W        W 7227   9.735   3.989   9.180
 3484W        W 7228   3.738   8.205  11.371
 3485W        W 7229   0.425   8.633  11.200
 3486W        W 7230  10.220   2.166   0.599
 3487W        W 7231   5.102   0.689  11.778
 3488W        W 7232   7.229   1.887  10.529
 3489W        W 7233   3.821   8.823   9.944
 3490W        W 7234   8.067   3.243   0.191
 3491W        W 7235   1.860   7.882   0.760
 3492W        W 7236   5.531   8.819   1.176
 3493W        W 7237   1.287   8.127  11.442
 3494W        W 7238   9.882   4.719   3.405
 3495W        W 7239   2.684   2.985   1.286
 3496W        W 7240   6.516   8.991   1.133
 3497W        W 7241   1.984   3.449   2.771
 3498W        W 7242   8.704   0.524  10.110
 3499W        W 7243   6.623   6.738   1.380
 3500W        W 7244   5.632   9.962  10.092
 3501W        W 7245   8.790   3.628  10.970
 3502W        W 7246  10.008   0.277   0.300
 3503W        W 7247   9.852   8.316   2.829
 3504W        W 7248   3.174   1.331   1.457
 3505W        W 7249   5.709   6.283   3.728
 3506W        W 7250   4.509   7.666   8.084
 3507W        W 7251   2.836   8.101  10.385
 3508W        W 7252   6.707   5.930  11.265
 3509W        W 7253   2.600  10.335   3.549
 3510W        W 7254   1.376  10.088  11.130
 3511W        W 7255   1.902   6.950   2.002
 3512W        W 7256   3.197   4.770   1.664
 3513W        W 7257   7.094   0.262   3.139
 3514W        W 7258   7.935   0.803  10.688
 3515W        W 7259   2.322   2.877   0.434
 3516W        W 7260   3.055   1.877  10.779
 3517W        W 7261   1.268   3.076   3.445
 3518W        W 7262   7.994   3.570   3.351
 3519W        W 7263  10.255   9.409   2.971
 3520W        W 7264   2.935   1.183  10.838
 3521W        W 7265   0.253   4.307   1.899
 3522W        W 7266   9.667  10.323   9.597
 3523W        W 7267   1.338   1.803  10.227
 3524W        W 7268   7.267   7.898   9.634
 3525W        W 7269   4.485   0.817   2.712
 3526W        W 7270   5.756   8.076   1.614
 3527W        W 7271   1.199   4.286  11.921
 3528W        W 7272   3.099   9.925  10.450
 3529W        W 7273   6.588   0.176   1.837
 3530W        W 7274   5.373   0.503   3.508
 3531W        W 7275   5.087   9.996   2.507
 3532W        W 7276   0.639   0.231  11.952
 3533W        W 7277   6.575   4.496  11.094
 3534W        W 7278   0.739   0.417  11.059
 3535W        W 7279   2.916   1.645  10.288
 3536W        W 7280   3.166   7.854   0.942
 3537W        W 7281   2.637   4.267  11.958
 3538W        W 7282   2.273   1.656  11.226
 3539W        W 7283   4.666   9.625   9.078
 3540W        W 7284   3.719   0.325   0.990
 3541W        W 7285   4.985   6.070   0.877
 3542W        W 7286   3.338   2.686  11.769
 3543W        W 7287   0.442   4.008   1.537
 3544W        W 7288   7.592   7.427  10.765
 3545W        W 7289   7.110   6.232  11.077
 3546W        W 7290   8.434   8.956   0.987
 3547W        W 7291   0.594   2.450   3.514
 3548W        W 7292   0.388   7.444  11.861
 3549W        W 7293   3.565   4.964  10.727
 3550W        W 7294   7.114   8.834   9.609
 3551W        W 7295   9.750   4.300   3.148
 3552W        W 7296   3.639   8.507  11.800
 3553W        W 7297   3.983   0.059   2.168
 3554W        W 7298   6.911   7.900   2.079
 3555W        W 7299   1.379   4.976  11.351
 3556W        W 7300   0.338   5.289  11.310
 3557W        W 7301   7.503   3.196   9.670
 3558W        W 7302  10.013   9.116   9.407
 3559W        W 7303   7.126   0.404   1.175
 3560W        W 7304   0.560   1.307   9.035
 3561W        W 7305   5.713   6.394   1.427
 3562W        W 7306   8.851   0.531  10.643
 3563W        W 7307   0.818   7.021  10.080
 3564W        W 7308   4.552   7.647  10.766
 3565W        W 7309   2.338   6.879   8.142
 3566W        W 7310   4.749   6.828   3.126
 3567W        W 7311   2.855   3.193  11.400
 3568W        W 7312  10.341   2.945   1.307
 3569W        W 7313   0.534   7.008   8.929
 3570W        W 7314   9.960   9.520   9.075
 3571W        W 7315   4.262   3.658   2.703
 3572W        W 7316   8.550   6.667   3.436
 3573W        W 7317   0.804   7.784   9.107
 3574W        W 7318   1.917   2.203   9.505
 3575W        W 7319   7.285   9.432   2.768
 3576W        W 7320   1.471   7.974   9.548
 3577W        W 7321   6.689   7.016  10.929
 3578W        W 7322   4.592   0.759  11.802
 3579W        W 7323   1.292   1.033  11.556
 3580W        W 7324   5.170   4.268   9.097
 3581W        W 7325   6.723   7.379   9.999
 3582W        W 7326   3.997   3.115   1.419
 3583W        W 7327   4.705   6.936   2.122
 3584W        W 7328   5.566   2.564  10.471
 3585W        W 7329   6.237   8.673   8.575
 3586W        W 7330   4.046   8.039   8.707
 3587W        W 7331   2.227   6.594   9.213
 3588W        W 7332  10.271   8.004   2.851
 3589W        W 7333   3.092   1.908   3.210
 3590W        W 7334  10.434   0.898  11.759
 3591W        W 7335   7.483  10.090   1.532
 3592W        W 7336   1.185   3.330   2.566
 3593W        W 7337   3.371   6.112   1.881
 3594W        W 7338   0.899   4.718   2.486
 3595W        W 7339   6.069   2.004  11.739
 3596W        W 7340   8.615   9.398   1.286
 3597W        W 7341   6.561   2.318   3.056
 3598W        W 7342   6.926   6.465  11.500
 3599W        W 7343   4.535   1.124   9.245
 3600W        W 7344   0.733   8.414   2.766
 3601W        W 7345  10.261   0.872   3.534
 3602W        W 7346   4.291   9.418  10.605
 3603W        W 7347   0.521   2.894   8.721
 3604W        W 7348   4.182   4.211   3.591
 3605W        W 7349   4.568   9.972   0.480
 3606W        W 7350   2.204   3.758   9.767
 3607W        W 7351   5.602   5.107   9.841
 3608W        W 7352   5.494   9.880  11.069
 3609W        W 7353   9.298   9.016   8.718
 3610W        W 7354   1.417   9.260   0.632
 3611W        W 7355   9.375   8.087  11.956
 3612W        W 7356   1.354   9.996   2.831
 3613W        W 7357   2.475   1.809   0.018
 3614W        W 7358   5.947   7.915   9.958
 3615W        W 7359   0.779  10.230   2.855
 3616W        W 7360   1.199   2.857   2.958
 3617W        W 7361   5.711   3.615   4.284
 3618W        W 7362   0.386   8.957  11.581
 3619W        W 7363   2.642   7.537  11.497
 3620W        W 7364   7.463  10.107  11.254
 3621W        W 7365   1.780   2.816   1.722
 3622W        W 7366   1.729   9.300   9.969
 3623W        W 7367  10.359   5.961   8.514
 3624W        W 7368   2.037   7.128   8.506
 3625W        W 7369  10.010   7.907  10.319
 3626W        W 7370   1.250   3.639  11.562
 3627W        W 7371   7.137   0.190   3.671
 3628W        W 7372   3.980   0.915  10.961
 3629W        W 7373   7.773   6.148  10.443
 3630W        W 7374   7.684   1.975   9.750
 3631W        W 7375   7.862   7.831   3.140
 3632W        W 7376   1.704   5.203  11.865
 3633W        W 7377   4.967   4.244   8.102
 3634W        W 7378   8.069   1.995  11.387
 3635W        W 7379   5.340   4.432   0.690
 3636W        W 7380   8.732   2.613   0.690
 3637W        W 7381   6.856   1.760   9.654
 3638W        W 7382   6.956   4.038  10.490
 3639W        W 7383   1.356   4.341   9.889
 3640W        W 7384   5.315   6.659   8.480
 3641W        W 7385  10.035   2.230  11.209
 3642W        W 7386   2.436   1.302   3.586
 3643W        W 7387   5.739   5.094   2.172
 3644W        W 7388   6.954   0.180   0.747
 3645W        W 7389  10.374   8.982   3.241
 3646W        W 7390   9.907   2.816   2.817
 3647W        W 7391   4.700   3.112  11.581
 3648W        W 7392   2.236   9.900   2.956
 3649W        W 7393  10.273   3.083  10.861
 3650W        W 7394   9.501   1.106  11.938
 3651W        W 7395   4.424   8.889  11.127
 3652W        W 7396   0.913   6.681   2.590
 3653W        W 7397   7.936   4.113   2.157
 3654W        W 7398   6.539   9.108   9.000
 3655W        W 7399   5.226   8.374   8.886
 3656W        W 7400   4.975  10.446   9.734
 3657W        W 7401   4.488   9.582   2.353
 3658W        W 7402   1.134   0.506   0.787
 3659W        W 7403   4.868   0.233  10.581
 3660W        W 7404   3.893   9.872   1.184
 3661W        W 7405   4.188   7.900  10.298
 3662W        W 7406   3.741   1.931  11.498
 3663W        W 7407  10.285   8.458   1.654
 3664W        W 7408   7.604   1.819   1.660
 3665W        W 7409   7.507   9.970  10.759
 3666W        W 7410   8.834   9.033   1.769
 3667W        W 7411   1.785   8.095  11.485
 3668W        W 7412   1.026   5.524   3.247
 3669W        W 7413   9.454   7.890   3.485
 3670W        W 7414   9.400   8.596  11.865
 3671W        W 7415   8.599   4.292  11.775
 3672W        W 7416   3.585  10.312   3.058
 3673W        W 7417   4.175   4.380  11.250
 3674W        W 7418   9.745   1.005   1.840
 3675W        W 7419   7.552   8.917   4.024
 3676W        W 7420   2.578   2.372   0.438
 3677W        W 7421   9.854   9.791  11.703
 3678W        W 7422   4.453   3.638   9.116
 3679W        W 7423   9.339   2.199   2.777
 3680W        W 7424   4.216   6.552   9.924
 3681W        W 7425   0.997   2.402   0.770
 3682W        W 7426   6.248   0.781   1.140
 3683W        W 7427   5.983   5.691  11.375
 3684W        W 7428   4.229   8.952  10.304
 3685W        W 7429   8.504   8.005   1.035
 3686W        W 7430   0.489   5.109   0.121
 3687W        W 7431   7.814   9.360   0.345
 3688W        W 7432   2.893   9.053   3.164
 3689W        W 7433   2.200   1.215   1.171
 3690W        W 7434   9.847   2.284   2.790
 3691W        W 7435   1.821   1.435   1.424
 3692W        W 7436   0.290   4.922  11.677
 3693W        W 7437   8.950   8.004   2.846
 3694W        W 7438   8.947   1.763   9.340
 3695W        W 7439   4.589   9.061   2.390
 3696W        W 7440   8.356   2.377   2.497
 3697W        W 7441   3.616   1.387   0.410
 3698W        W 7442   8.286   6.303   3.733
 3699W        W 7443   1.832   4.800  11.565
 3700W        W 7444   6.760   6.739   9.065
 3701W        W 7445   7.638   0.919   0.722
 3702W        W 7446   8.569   1.452  10.962
 3703W        W 7447   2.079   9.314  10.355
 3704W        W 7448   9.853   4.636   9.902
 3705W        W 7449   3.779   9.145  10.386
 3706W        W 7450   0.668   9.399   2.244
 3707W        W 7451   2.649   2.284  11.922
 3708W        W 7452   2.779   3.040   3.196
 3709W        W 7453   9.946   6.398   1.846
 3710W        W 7454   1.442   3.616   8.686
 3711W        W 7455   9.433   3.952  11.552
 3712W        W 7456   8.306  10.010  10.736
 3713W        W 7457   1.994   4.884   3.686
 3714W        W 7458   0.749   6.533   2.100
 3715W        W 7459   0.652   0.372   1.941
 3716W        W 7460   9.657   4.274   8.748
 3717W        W 7461   0.885   2.761  11.880
 3718W        W 7462   8.115   7.949  11.774
 3719W        W 7463   6.466   8.500  10.879
 3720W        W 7464   3.581   7.533   9.332
 3721W        W 7465   3.280   3.809   2.660
 3722W        W 7466   6.017   6.089  10.015
 3723W        W 7467  10.395   8.169  11.929
 3724W        W 7468   9.783   4.994   0.790
 3725W        W 7469   7.479   4.582  11.014
 3726W        W 7470   5.178   8.357  10.075
 3727W        W 7471  10.325   5.109  10.565
 3728W        W 7472  10.287   7.049   1.202
 3729W        W 7473   7.144   7.216  10.804
 3730W        W 7474   7.633   9.126   9.749
 3731W        W 7475   8.610   9.250   9.583
 3732W        W 7476   9.593   3.501   9.386
 3733W        W 7477   0.042   0.873   9.740
 3734W        W 7478   9.907   9.320   9.905
 3735W        W 7479   9.899   6.132   9.467
 3736W        W 7480   6.918  10.163  11.881
 3737W        W 7481   5.445   9.994   1.724
 3738W        W 7482   5.501   3.312   9.828
 3739W        W 7483   9.555   6.658   1.681
 3740W        W 7484   5.061   8.510  11.550
 3741W        W 7485   3.739  10.491  10.818
 3742W        W 7486   9.325   9.495   0.504
 3743W        W 7487   4.815   8.704   8.841
 3744W        W 7488   9.337  10.317  11.865
 3745W        W 7489   3.738   8.668   1.762
 3746W        W 7490  10.352   5.551   9.967
 3747W        W 7491   1.523   3.665   2.772
 3748W        W 7492   6.619   8.486   1.321
 3749W        W 7493   2.891   7.429   2.331
 3750W        W 7494   3.096   5.122  10.841
 3751W        W 7495   5.256   9.668   0.054
 3752W        W 7496   0.040   3.202   9.925
 3753W        W 7497   9.389   3.286   0.287
 3754W        W 7498   8.905   8.347   1.075
 3755W        W 7499   4.281   6.789   3.353
 3756W        W 7500   9.989   8.823   0.552
 3757W        W 7501   2.447   3.401   0.381
 3758W        W 7502   7.416   2.456   0.944
 3759W        W 7503   6.690   0.287   8.764
 3760W        W 7504   2.668   6.926   8.533
 3761W        W 7505   0.253   3.368   0.333
 3762W        W 7506   9.382   6.230   3.108
 3763W        W 7507   7.567  10.492   9.813
 3764W        W 7508   2.976   6.775   2.883
 3765W        W 7509   1.482   8.212   3.209
 3766W        W 7510   2.782   2.747   0.182
 3767W        W 7511   1.302   9.754   8.482
 3768W        W 7512   5.769   4.245   3.558
 3769W        W 7513   0.227   4.188   2.818
 3770W        W 7514   9.757   5.873  11.016
 3771W        W 7515   6.001  10.389   9.923
 3772W        W 7516   4.223   7.340   0.451
 3773W        W 7517   7.339   9.022   0.221
 3774W        W 7518  10.314   9.466   2.473
 3775W        W 7519   3.259   7.084  11.760
 3776W        W 7520   2.471   7.826  11.871
 3777W        W 7521   5.703   0.714  11.421
 3778W        W 7522   9.167   2.284   3.272
 3779W        W 7523   3.742   3.167  11.171
 3780W        W 7524   4.731   3.168   3.208
 3781W        W 7525   7.387   6.978   1.639
 3782W        W 7526   2.400   9.936   9.647
 3783W        W 7527   8.324   3.794  11.039
 3784W        W 7528   5.654   9.095   0.759
 3785W        W 7529   3.826   9.459   2.896
 3786W        W 7530   1.708   9.443  11.294
 3787W        W 7531   1.700   6.531   2.995
 3788W        W 7532   3.356   7.381   8.913
 3789W        W 7533   0.249   1.637   8.373
 3790W        W 7534   6.541   0.181  11.497
 3791W        W 7535   4.709   4.577  11.191
 3792W        W 7536   8.227   2.656   0.740
 3793W        W 7537   6.196   8.210   1.384
 3794W        W 7538   0.805   9.297  11.542
 3795W        W 7539   5.117   6.052   2.458
 3796W        W 7540   2.667   8.098  10.860
 3797W        W 7541   6.141   4.259   1.242
 3798W        W 7542   4.761   8.563  10.282
 3799W        W 7543   5.616   9.038  10.540
 3800W        W 7544   7.555   0.069  10.310
 3801W        W 7545   4.506   4.715  10.351
 3802W        W 7546   7.147   4.920   3.349
 3803W        W 7547   4.923   7.347   8.119
 3804W        W 7548   7.931   3.165   1.583
 3805W        W 7549   5.463  10.416   9.914
 3806W        W 7550   9.170   6.695   0.131
 3807W        W 7551   9.608   8.963   9.694
 3808W        W 7552   2.237   0.752   9.639
 3809W        W 7553   8.053   6.608  10.244
 3810W        W 7554   5.243   7.087   4.194
 3811W        W 7555   7.373   7.133  10.340
 3812W        W 7556   3.063   6.629  11.765
 3813W        W 7557   0.299   2.910   9.580
 3814W        W 7558   6.226   7.028   3.993
 3815W        W 7559   1.844   6.727   1.532
 3816W        W 7560   1.127   5.261   1.053
 3817W        W 7561   8.724   7.463   3.566
 3818W        W 7562   1.320   7.067  10.651
 3819W        W 7563   8.810  10.288   0.905
 3820W        W 7564   7.018   7.089   8.776
 3821W        W 7565   1.808   4.959   2.317
 3822W        W 7566   4.231   5.204  10.085
 3823W        W 7567   6.186   8.390   2.891
 3824W        W 7568   5.085   3.363   0.364
 3825W        W 7569   3.148   1.015   2.836
 3826W        W 7570  10.435   0.638   1.357
 3827W        W 7571   1.515   7.851   2.438
 3828W        W 7572   6.912   6.284   8.128
 3829W        W 7573   5.949   9.642  11.020
 3830W        W 7574   4.431   1.701   2.792
 3831W        W 7575   8.118   2.771   2.837
 3832W        W 7576   8.590   6.780   0.938
 3833W        W 7577   4.818   1.342   2.121
 3834W        W 7578   9.387  10.153   2.114
 3835W        W 7579   9.969  10.128   0.979
 3836W        W 7580   7.660   8.145   0.033
 3837W        W 7581   3.288   5.992   9.169
 3838W        W 7582   2.283   5.984  11.887
 3839W        W 7583   8.378   6.934  10.480
 3840W        W 7584   0.223   7.157   0.963
 3841W        W 7585   8.550   2.821   9.986
 3842W        W 7586   5.157   6.505   2.150
 3843W        W 7587   1.374   6.836   8.893
 3844W        W 7588   5.659   3.290   2.766
 3845W        W 7589   8.129   6.536   3.160
 3846W        W 7590   4.681   9.851  10.812
 3847W        W 7591   9.019   4.736   1.546
 3848W        W 7592   1.756   2.880   9.990
 3849W        W 7593   7.039   8.982   2.839
 3850W        W 7594   6.139   6.499  10.842
 3851W        W 7595   1.364   3.308   2.113
 3852W        W 7596   7.059   2.741  11.538
 3853W        W 7597   9.864  10.239  11.969
 3854W        W 7598   3.749   8.118   9.530
 3855W        W 7599   3.170   1.462   1.961
 3856W        W 7600   6.481   0.220   0.458
 3857W        W 7601   5.067   1.794  10.755
 3858W        W 7602   2.278   5.573  11.500
 3859W        W 7603   5.362   5.714   8.584
 3860W        W 7604   2.202   7.379   9.670
 3861W        W 7605   6.137   8.094  11.076
 3862W        W 7606   2.178   7.792   9.348
 3863W        W 7607   6.938   3.488   2.557
 3864W        W 7608   1.891   4.528   1.411
 3865W        W 7609   0.327   0.958   2.704
 3866W        W 7610   0.913   5.090   9.944
 3867W        W 7611   0.457   4.845  10.059
 3868W        W 7612   4.629   5.373  11.190
 3869W        W 7613   5.129   3.806   0.137
 3870W        W 7614   4.316   4.598  10.817
 3871W        W 7615   5.589   3.284   2.272
 3872W        W 7616   2.090   9.764  10.579
 3873W        W 7617   7.649   9.605   1.645
 3874W        W 7618   4.091   6.057   1.000
 3875W        W 7619  10.325   1.789  11.451
 3876W        W 7620   8.952   2.869   1.456
 3877W        W 7621   0.587   5.914   1.455
 3878W        W 7622   7.416   0.599   9.544
 3879W        W 7623   8.509   3.912   3.301
 3880W        W 7624   9.066   2.246  11.469
 3881W        W 7625   9.357   4.611  10.102
 3882W        W 7626   1.899   9.042   2.857
 3883W        W 7627   1.805   0.888   9.338
 3884W        W 7628   9.435   1.271  10.918
 3885W        W 7629   8.572   4.600  11.312
 3886W        W 7630   8.548   2.709   8.943
 3887W        W 7631   8.890   1.874   3.231
 3888W        W 7632   7.210   7.896   8.569
 3889W        W 7633   1.981   7.743   2.649
 3890W        W 7634   9.894   0.656   0.984
 3891W        W 7635   1.178   4.042   1.442
 3892W        W 7636   5.744   1.278  10.753
 3893W        W 7637   8.062   7.843  11.261
 3894W        W 7638   2.277   5.251   3.458
 3895W        W 7639   7.966   9.809   9.178
 3896W        W 7640   2.690   8.963  10.982
 3897W        W 7641  10.491   1.842  11.946
 3898W        W 7642   9.442   8.617   2.783
 3899W        W 7643   3.200   4.711   3.609
 3900W        W 7644   9.747   0.858  11.010
 3901W        W 7645   7.151   6.695  10.733
 3902W        W 7646   9.058   0.736   0.753
 3903W        W 7647   9.963   9.988  10.817
 3904W        W 7648   5.249   9.713  10.368
 3905W        W 7649   7.547   8.565   3.140
 3906W        W 7650   5.712   6.458   0.931
 3907W        W 7651   1.391   9.550  10.893
 3908W        W 7652   9.788   3.727   9.809
 3909W        W 7653   7.063   0.041   9.040
 3910W        W 7654   6.476   6.644  11.223
 3911W        W 7655   1.747   6.185  11.846
 3912W        W 7656   5.263   4.465  11.011
 3913W        W 7657   5.675   4.207   2.139
 3914W        W 7658   5.552   5.011   3.125
 3915W        W 7659   1.953   3.227   9.672
 3916W        W 7660   6.153   3.339  11.420
 3917W        W 7661   6.369   7.743   1.283
 3918W        W 7662   5.648   0.273   0.420
 3919W        W 7663   3.274   4.985   4.042
 3920W        W 7664   8.194   6.698   2.212
 3921W        W 7665   1.077   3.531   1.480
 3922W        W 7666   4.828   9.461   3.185
 3923W        W 7667  10.465  10.486  10.209
 3924W        W 7668   9.292   4.061   2.478
 3925W        W 7669   8.384   1.874   2.384
 3926W        W 7670   3.675   4.011   1.373
 3927W        W 7671   1.065   7.096   9.645
 3928W        W 7672   9.657   4.741  10.483
 3929W        W 7673   2.763   1.219   0.782
 3930W        W 7674   2.238   8.308  11.566
 3931W        W 7675   8.034   8.452  11.773
 3932W        W 7676   1.798  10.036   1.632
 3933W        W 7677   6.549   9.352  10.350
 3934W        W 7678   9.631   3.796  10.615
 3935W        W 7679  10.493   0.821  11.239
 3936W        W 7680   1.342   1.443   2.215
 3937W        W 7681   9.434   2.663   1.495
 3938W        W 7682   4.892  10.236   2.947
 3939W        W 7683   4.119   2.701   9.072
 3940W        W 7684   9.323  10.053   2.602
 3941W        W 7685   5.601   6.644   8.946
 3942W        W 7686   8.072   2.887  10.713
 3943W        W 7687   1.787   2.784  11.806
 3944W        W 7688   3.580   0.901   2.589
 3945W        W 7689   8.476   8.922  10.284
 3946W        W 7690   0.283   4.210   9.237
 3947W        W 7691   1.563   1.483   8.879
 3948W        W 7692   4.952   2.236  11.880
 3949W        W 7693   8.592  10.491  10.879
 3950W        W 7694   2.143   1.067  10.062
 3951W        W 7695   0.968   7.008   2.111
 3952W        W 7696   8.056   0.665   1.724
 3953W        W 7697   7.285   6.239  10.369
 3954W        W 7698   9.338   0.837   3.589
 3955W        W 7699  10.478   5.104   9.716
 3956W        W 7700   8.815   5.084  10.501
 3957W        W 7701   8.953   4.642   8.844
 3958W        W 7702   4.887   3.741   8.435
 3959W        W 7703   4.976   5.683   0.297
 3960W        W 7704   2.342   0.351   2.803
 3961W        W 7705   9.807   9.069   3.452
 3962W        W 7706  10.476   8.588  10.081
 3963W        W 7707   6.324  10.316   2.753
 3964W        W 7708   4.255   5.345  10.579
 3965W        W 7709   7.068   3.358  11.229
 3966W        W 7710   1.445   1.670   0.214
 3967W        W 7711   7.436   5.169   9.356
 3968W        W 7712   3.284   0.473   1.285
 3969W        W 7713   1.226   3.689   1.014
 3970W        W 7714   7.075   6.096   9.097
 3971W        W 7715   5.984   2.106   9.133
 3972W        W 7716   9.846   1.834   9.389
 3973W        W 7717   0.871   1.685   2.577
 3974W        W 7718   3.322   9.573  11.799
 3975W        W 7719   6.580   0.508   0.874
 3976W        W 7720   3.338   3.951   3.129
 3977W        W 7721   3.415   5.406   3.211
 3978W        W 7722   7.229   4.117  11.818
 3979W        W 7723   1.217   6.119  11.882
 3980W        W 7724   0.853   9.636   9.516
 3981W        W 7725   7.163   7.516   2.379
 3982W        W 7726   9.383   3.634   1.145
 3983W        W 7727   3.929   9.716   0.701
 3984W        W 7728   5.436   1.644   2.954
 3985W        W 7729   3.286   4.896   0.509
 3986W        W 7730   5.073   4.071  10.748
 3987W        W 7731   8.045   5.389   1.262
 3988W        W 7732   4.523   4.127   9.394
 3989W        W 7733   5.341   9.759  11.553
 3990W        W 7734   7.521   9.578  10.064
 3991W        W 7735   6.883   9.392  10.730
 3992W        W 7736   0.194   6.186   0.829
 3993W        W 7737   2.638   5.650   9.933
 3994W        W 7738   3.171   4.206   1.245
 3995W        W 7739  10.181   6.914   9.370
 3996W        W 7740   9.626   7.428   0.832
 3997W        W 7741   7.064   5.234   0.284
 3998W        W 7742   5.952   0.785   9.988
 3999W        W 7743   8.136   8.444   2.604
 4000W        W 7744   6.590   6.680   2.249
 4001W        W 7745   6.949   4.878   9.937
 4002W        W 7746   3.851   3.077   9.249
 4003W        W 7747   1.734   2.233  11.344
 4004W        W 7748   6.830  10.332   2.522
 4005W        W 7749   1.390  10.373  10.265
 4006W        W 7750   5.952   4.742  10.335
 4007W        W 7751   4.959   7.872   8.275
 4008W        W 7752   8.405   3.609   8.471
 4009W        W 7753  10.326   0.867   8.694
 4010W        W 7754   9.040   2.539   1.843
 4011W        W 7755   2.898   4.615   4.074
 4012W        W 7756   4.667   6.465   2.330
 4013W        W 7757   5.067   7.151   1.333
 4014W        W 7758   0.705   6.175   0.920
 4015W        W 7759   9.546   0.063   0.274
 4016W        W 7760   2.907   3.708  10.528
 4017W        W 7761   3.229   8.326  11.514
 4018W        W 7762   7.876   2.414  10.495
 4019W        W 7763   0.857   1.382   0.933
 4020W        W 7764   9.481   1.837   0.933
 4021W        W 7765   7.188   2.626   2.533
 4022W        W 7766   1.463   8.428   1.045
 4023W        W 7767   3.043   2.541   0.597
 4024W        W 7768   7.554   6.105   2.738
 4025W        W 7769   5.661   1.185   1.321
 4026W        W 7770   7.022   9.649   0.826
 4027W        W 7771   9.557   7.184  10.068
 4028W        W 7772   5.940   6.676   4.242
 4029W        W 7773   4.602   3.226  10.823
 4030W        W 7774  10.060   0.996   1.412
 4031W        W 7775   0.418   8.934   1.553
 4032W        W 7776   2.698   7.904   1.222
 4033W        W 7777  10.377   8.521   0.738
 4034W        W 7778   9.957   5.441   1.772
 4035W        W 7779   6.664   5.281  11.979
 4036W        W 7780   5.073   7.883  10.289
 4037W        W 7781   9.942   4.965  10.880
 4038W        W 7782   9.844   1.441  10.180
 4039W        W 7783   4.248   4.433   9.086
 4040W        W 7784   5.594   9.505  10.710
 4041W        W 7785   4.502   6.000   0.705
 4042W        W 7786   7.647   5.593   3.962
 4043W        W 7787   2.147   0.375   9.986
 4044W        W 7788   6.480  10.007   2.383
 4045W        W 7789   5.238   9.435   0.657
 4046W        W 7790   9.665   9.813  11.215
 4047W        W 7791   7.949   0.289  10.553
 4048W        W 7792   0.812   7.898  11.489
 4049W        W 7793  10.310  10.319   1.940
 4050W        W 7794   5.703   3.577  10.910
 4051W        W 7795   2.293   5.066  11.631
 4052W        W 7796  10.067   5.705   2.194
 4053W        W 7797   4.700   2.748   9.806
 4054W        W 7798   6.057   7.199   3.544
 4055W        W 7799   7.604   6.674  10.478
 4056W        W 7800   1.632   8.569  11.531
 4057W        W 7801   5.986   7.131   1.890
 4058W        W 7802   8.738   1.474   3.489
 4059W        W 7803   4.508   7.940   8.516
 4060W        W 7804   8.400   6.187   9.125
 4061W        W 7805   3.399   4.629   8.662
 4062W        W 7806   8.378   9.261   0.057
 4063W        W 7807   1.345   6.369   2.666
 4064W        W 7808  10.202   4.160   2.888
 4065W        W 7809   7.464   5.825   0.809
 4066W        W 7810   0.005   1.731   2.467
 4067W        W 7811   2.919   2.049   9.470
 4068W        W 7812   0.061   1.581   1.842
 4069W        W 7813   4.059   6.917  10.308
 4070W        W 7814   6.742   4.593   3.270
 4071W        W 7815   7.170   2.646   1.371
 4072W        W 7816   4.858   2.827   2.305
 4073W        W 7817   4.888   9.523   2.677
 4074W        W 7818   5.138   4.679  11.475
 4075W        W 7819   8.964   0.394   1.448
 4076W        W 7820   4.022   7.529   3.039
 4077W        W 7821   1.846   3.252   1.986
 4078W        W 7822   1.646   9.508   2.959
 4079W        W 7823   7.104   7.876  11.469
 4080W        W 7824   1.269   4.258   0.432
 4081W        W 7825   9.369   8.580   8.984
 4082W        W 7826   0.828   3.853  11.781
 4083W        W 7827   0.734   7.102   0.750
 4084W        W 7828   3.361   8.873   3.308
 4085W        W 7829   9.566  10.299   3.337
 4086W        W 7830   1.188   2.863   0.510
 4087W        W 7831   6.939   9.965  11.374
 4088W        W 7832   2.315   3.822   2.680
 4089W        W 7833   4.936   4.227   0.929
 4090W        W 7834   4.645   4.939   9.901
 4091W        W 7835   2.729   1.151   3.185
 4092W        W 7836   9.008   8.430   2.574
 4093W        W 7837   3.302   2.380  10.122
 4094W        W 7838   1.807   6.273  11.311
 4095W        W 7839   4.633   7.622  10.267
 4096W        W 7840   6.485   3.038  10.513
 4097W        W 7841   7.345   1.074   9.398
 4098W        W 7842   7.062   7.458   9.402
 4099W        W 7843   4.077  10.100   0.348
 4100W        W 7844   8.385   1.984  10.963
 4101W        W 7845   5.678   1.150   0.743
 4102W        W 7846   8.180   6.633   1.621
 4103W        W 7847   9.410   3.114  11.262
 4104W        W 7848   0.283   7.805   0.254
 4105W        W 7849   0.303   1.741   8.898
 4106W        W 7850   4.467   1.019  10.982
 4107W        W 7851   7.473   2.786   1.784
 4108W        W 7852   8.336   0.913   9.219
 4109W        W 7853   4.682   3.020   0.109
 4110W        W 7854   5.872   2.388   0.038
 4111W        W 7855   7.376   5.022  11.370
 4112W        W 7856   7.445   3.285   1.899
 4113W        W 7857   1.236   7.470   2.200
 4114W        W 7858   4.194   0.785  10.385
 4115W        W 7859   6.753   1.468  11.953
 4116W        W 7860   2.612   3.874  11.421
 4117W        W 7861   6.952   0.979   0.276
 4118W        W 7862   1.442   8.655  10.533
 4119W        W 7863   8.324   9.819  10.213
 4120W        W 7864   8.040   6.019   0.006
 4121W        W 7865   1.900   8.534  11.090
 4122W        W 7866   9.784   9.866   9.831
 4123W        W 7867   3.788   1.813   9.021
 4124W        W 7868   4.447   8.095   0.083
 4125W        W 7869   5.201   9.440   1.163
 4126W        W 7870   1.325  10.310   9.765
 4127W        W 7871   6.505   3.650   3.212
 4128W        W 7872   2.810   8.549  10.645
 4129W        W 7873   5.532   6.404  11.123
 4130W        W 7874   7.046   8.655   1.117
 4131W        W 7875   5.136   8.960   0.874
 4132W        W 7876  10.166  10.293   1.431
 4133W        W 7877   1.427   9.084   2.673
 4134W        W 7878   4.647   5.455   1.856
 4135W        W 7879   1.266   8.462   8.734
 4136W        W 7880   4.480  10.453  11.421
 4137W        W 7881  10.412   3.636   2.150
 4138W        W 7882   8.068   7.514   9.587
 4139W        W 7883   4.048   6.820  11.526
 4140W        W 7884   7.408   7.572   3.199
 4141W        W 7885  10.068   6.859   2.418
 4142W        W 7886   2.826   4.559  10.475
 4143W        W 7887   6.108   0.204  11.765
 4144W        W 7888   0.471   0.417   2.424
 4145W        W 7889   2.769   5.506   0.749
 4146W        W 7890   4.597  10.315  10.562
 4147W        W 7891   6.174   0.305   8.841
 4148W        W 7892   5.622  10.390   1.444
 4149W        W 7893   6.920   3.810  10.042
 4150W        W 7894   2.734   8.847   2.713
 4151W        W 7895   7.574   5.259   1.390
 4152W        W 7896   2.311   5.654   0.504
 4153W        W 7897   9.351   7.586  11.051
 4154W        W 7898   7.412   9.069   2.428
 4155W        W 7899   8.673   2.403  11.867
 4156W        W 7900   8.796   6.144   9.922
 4157W        W 7901   8.959  10.058   1.803
 4158W        W 7902   3.742   8.097  10.462
 4159W        W 7903   3.286   2.175   0.893
 4160W        W 7904   0.019   2.903   0.821
 4161W        W 7905   0.708   2.924   1.504
 4162W        W 7906   4.180   8.874   9.394
 4163W        W 7907   3.623   8.066   9.044
 4164W        W 7908   1.692   2.233   2.374
 4165W        W 7909   0.280   6.006   3.185
 4166W        W 7910   4.784  10.365  11.012
 4167W        W 7911   0.226   6.100   2.677
 4168W        W 7912   0.871   5.566   9.743
 4169W        W 7913   5.070   6.525   2.644
 4170W        W 7914   1.825   9.922   9.352
 4171W        W 7915   8.014   8.825   9.572
 4172W        W 7916   5.150   1.276  10.021
 4173W        W 7917   4.789   2.037   0.991
 4174W        W 7918   6.634   4.240   2.304
 4175W        W 7919   2.760   0.701   1.494
 4176W        W 7920   3.158   8.663   2.879
 4177W        W 7921   6.126   0.460  11.292
 4178W        W 7922   7.756   0.425  10.995
 4179W        W 7923   2.527   6.973   0.855
 4180W        W 7924   9.986   5.520   8.899
 4181W        W 7925   8.113   3.029  11.701
 4182W        W 7926   5.491   0.822   2.426
 4183W        W 7927   5.555   7.305   0.668
 4184W        W 7928   2.258   8.623   2.807
 4185W        W 7929   3.296   3.703   1.192
 4186W        W 7930   7.221   3.888   8.935
 4187W        W 7931   2.805   8.492   9.685
 4188W        W 7932   6.074   3.851  10.687
 4189W        W 7933   7.642   4.196   3.524
 4190W        W 7934   2.425   4.776   3.153
 4191W        W 7935   0.324   1.246  11.260
 4192W        W 7936   8.012   7.389  11.042
 4193W        W 7937   6.509   5.838  10.391
 4194W        W 7938   0.287   9.528  10.065
 4195W        W 7939   5.040   6.650  11.252
 4196W        W 7940   2.188   6.017   2.800
 4197W        W 7941   9.235   9.042   0.939
 4198W        W 7942   0.070   3.759   9.417
 4199W        W 7943   2.218   3.311   2.342
 4200W        W 7944   7.098   1.198   3.352
 4201W        W 7945   3.220   7.692   2.706
 4202W        W 7946   9.439   5.056   2.344
 4203W        W 7947   8.713   1.763  10.605
 4204W        W 7948   3.163   5.597  11.022
 4205W        W 7949   1.836   0.281   2.583
 4206W        W 7950   9.977   2.743   2.293
 4207W        W 7951   6.743   4.835   1.311
 4208W        W 7952   3.029   8.804  11.458
 4209W        W 7953   8.801   8.903  11.474
 4210W        W 7954   2.154   8.982  10.940
 4211W        W 7955   5.883   7.666   0.529
 4212W        W 7956   8.515   8.126   3.098
 4213W        W 7957   3.635   5.637   0.311
 4214W        W 7958   4.975   6.877   0.858
 4215W        W 7959   2.295   9.368   1.638
 4216W        W 7960   2.582   2.373  11.423
 4217W        W 7961   2.868   5.091   9.853
 4218W        W 7962   8.007   2.338   9.530
 4219W        W 7963   6.734   2.333   9.757
 4220W        W 7964   1.011   8.402   3.218
 4221W        W 7965   8.914   4.627   9.831
 4222W        W 7966   1.928   6.520   0.574
 4223W        W 7967   3.432   8.201   1.829
 4224W        W 7968   4.288  10.289   1.848
 4225W        W 7969   3.354   5.753  10.574
 4226W        W 7970   6.022   1.756  10.260
 4227W        W 7971   1.384   3.740   1.846
 4228W        W 7972   3.425   9.580   0.671
 4229W        W 7973   7.121   6.571   3.299
 4230W        W 7974   5.403   2.051   1.688
 4231W        W 7975   2.122   4.674   0.535
 4232W        W 7976   4.874   1.409   3.422
 4233W        W 7977   9.250   8.508  10.409
 4234W        W 7978   8.563   8.070   1.529
 4235W        W 7979   3.783   3.207   1.887
 4236W        W 7980   0.262   6.458   9.418
 4237W        W 7981   5.991   1.747  10.767
 4238W        W 7982   3.690   4.904   3.141
 4239W        W 7983   2.112   1.324   0.188
 4240W        W 7984   2.742   2.361  10.773
 4241W        W 7985   7.907   1.343   0.467
 4242W        W 7986   6.976   4.182   0.270
 4243W        W 7987   5.634   0.479  11.914
 4244W        W 7988   2.292   6.711   1.290
 4245W        W 7989   9.776   9.283   0.351
 4246W        W 7990   4.079   8.994  10.779
 4247W        W 7991   7.180   1.852   2.953
 4248W        W 7992   6.987   8.413   9.272
 4249W        W 7993   8.861   4.058  11.396
 4250W        W 7994   2.243   4.449  10.323
 4251W        W 7995  10.041   5.542   0.882
 4252W        W 7996   6.931   7.142   1.470
 4253W        W 7997   3.099   5.010   9.378
 4254W        W 7998   8.065   8.906   2.823
 4255W        W 7999   9.177   0.559   2.307
 4256W        W 8000   5.655   0.370   9.217
 4257W        W 8001   2.703   3.594   9.129
 4258W        W 8002   8.949   1.459  10.210
 4259W        W 8003   0.709   9.325   2.739
 4260W        W 8004   7.835   5.022   3.269
 4261W        W 8005   0.771   1.822   1.241
 4262W        W 8006   6.661   8.570   3.228
 4263W        W 8007   7.452   3.452   2.411
 4264W        W 8008  10.486   5.573   0.214
 4265W        W 8009   4.724   5.472   1.357
 4266W        W 8010   3.159   5.090  11.991
 4267W        W 8011   3.280   0.470   9.576
 4268W        W 8012   7.624   4.757  10.323
 4269W        W 8013   4.343   4.908  11.299
 4270W        W 8014   1.582   8.835  10.067
 4271W        W 8015   6.007   6.604  10.328
 4272W        W 8016   4.296   1.757  10.646
 4273W        W 8017   8.483   6.659  10.954
 4274W        W 8018   0.316   8.642  11.980
 4275W        W 8019   7.382  10.491   0.982
 4276W        W 8020   6.580   9.900   9.245
 4277W        W 8021   7.173   0.876   9.972
 4278W        W 8022   6.246   2.841   2.351
 4279W        W 8023   3.719   8.228   0.266
 4280W        W 8024   8.430   3.212   9.213
 4281W        W 8025  10.448   0.315   2.602
 4282W        W 8026   4.023   4.274   9.540
 4283W        W 8027   4.168   3.546   1.735
 4284W        W 8028   6.748   3.716   9.025
 4285W        W 8029   9.601   7.606  11.870
 4286W        W 8030   3.824   2.829   2.282
 4287W        W 8031   0.504   9.310   1.215
 4288W        W 8032   6.243   3.213   3.272
 4289W        W 8033   9.872   4.265  10.513
 4290W        W 8034   7.723   2.737  11.875
 4291W        W 8035   3.674   6.882   2.264
 4292W        W 8036   1.253   8.771   1.800
 4293W        W 8037   4.169   3.965   1.468
 4294W        W 8038   4.089   9.911   2.879
 4295W        W 8039   2.621   5.951  10.834
 4296W        W 8040   8.401   0.517   2.672
 4297W        W 8041   5.710   0.339   1.694
 4298W        W 8042   1.000   7.478  10.773
 4299W        W 8043   6.607   0.420   3.122
 4300W        W 8044   6.102   8.141   3.666
 4301W        W 8045   2.843   8.781   0.793
 4302W        W 8046   2.226   7.643   3.581
 4303W        W 8047   5.963   7.195   0.357
 4304W        W 8048   6.798   9.619   3.463
 4305W        W 8049   4.282   9.925  10.472
 4306W        W 8050   9.408   7.807   8.988
 4307W        W 8051   4.204   3.091  11.748
 4308W        W 8052   6.466   4.060   1.839
 4309W        W 8053   6.239   7.926  11.594
 4310W        W 8054   3.263   0.182   3.212
 4311W        W 8055   4.230   8.119  11.291
 4312W        W 8056   1.340   5.798  10.476
 4313W        W 8057   5.842   1.911   1.446
 4314W        W 8058   2.127   5.143  10.757
 4315W        W 8059   7.954   2.291   0.446
 4316W        W 8060   5.681   9.338   3.611
 4317W        W 8061   8.487   2.758   1.679
 4318W        W 8062   4.131  10.420  11.938
 4319W        W 8063   8.765   6.590  11.794
 4320W        W 8064   6.928   0.444   0.280
 4321W        W 8065   0.415   1.451   2.710
 4322W        W 8066   0.191   6.027   8.972
 4323W        W 8067   2.800   0.336   1.070
 4324W        W 8068   3.882   3.905   0.490
 4325W        W 8069   2.962   7.915  11.704
 4326W        W 8070   3.981   8.307  10.036
 4327W        W 8071   2.744   6.885  10.743
 4328W        W 8072   4.091   0.092   9.957
 4329W        W 8073   3.757   9.555   8.991
 4330W        W 8074   2.783   8.038   0.195
 4331W        W 8075   4.666   2.046   9.527
 4332W        W 8076   6.003   4.998   0.953
 4333W        W 8077   2.663   6.617  11.423
 4334W        W 8078   6.611   0.260   2.631
 4335W        W 8079   2.652   2.258   9.064
 4336W        W 8080   0.475   1.682   2.213
 4337W        W 8081   9.822   7.958   0.188
 4338W        W 8082   2.607   8.024  11.366
 4339W        W 8083   9.914   7.992   3.248
 4340W        W 8084   4.447   2.387  11.042
 4341W        W 8085  10.430   8.965   1.748
 4342W        W 8086   2.764   5.908   3.919
 4343W        W 8087   8.860   8.754   0.761
 4344W        W 8088   4.112   7.972   2.804
 4345W        W 8089   5.699   6.249   1.907
 4346W        W 8090  10.458   6.553  10.138
 4347W        W 8091   9.897   3.689   2.174
 4348W        W 8092   3.857   5.079   9.774
 4349W        W 8093   0.815   4.171   9.071
 4350W        W 8094   3.307   8.941   1.934
 4351W        W 8095   8.544   6.689   8.972
 4352W        W 8096   9.425   9.379  11.021
 4353W        W 8097   6.021  10.022   0.347
 4354W        W 8098   3.171  10.462  11.903
 4355W        W 8099   9.784   7.447   8.909
 4356W        W 8100   6.076   9.316   9.154
 4357W        W 8101   1.953   1.779   0.034
 4358W        W 8102   2.547   8.540   1.857
 4359W        W 8103   7.596   5.673  10.338
 4360W        W 8104   5.156   5.229  10.053
 4361W        W 8105  10.318   0.937   0.946
 4362W        W 8106   8.103   3.170   0.690
 4363W        W 8107   9.120   8.602   0.306
 4364W        W 8108   3.607   4.229   2.730
 4365W        W 8109   0.520   1.336   1.352
 4366W        W 8110   0.987   6.189  10.347
 4367W        W 8111   9.346   4.939  11.402
 4368W        W 8112   0.867   9.648   1.854
 4369W        W 8113   0.458   9.843   3.159
 4370W        W 8114   2.788   4.736  11.756
 4371W        W 8115   5.248   7.676   0.492
 4372W        W 8116   9.344   9.547   1.025
 4373W        W 8117   2.785   3.650   9.622
 4374W        W 8118   1.740   2.944   1.237
 4375W        W 8119   1.367   2.715   0.983
 4376W        W 8120   4.666   0.079   9.046
 4377W        W 8121   9.833   3.545   0.226
 4378W        W 8122   2.803   7.198   1.851
 4379W        W 8123   1.160   2.836  11.219
 4380W        W 8124   1.837   9.549   1.471
 4381W        W 8125   7.617   2.288   1.379
 4382W        W 8126   4.938   2.240  10.973
 4383W        W 8127  10.241   8.049   0.926
 4384W        W 8128   8.369   7.120   3.617
 4385W        W 8129   5.925   3.969   0.269
 4386W        W 8130   7.495   8.448   0.969
 4387W        W 8131   3.707   4.531   3.571
 4388W        W 8132   9.015   5.501  10.776
 4389W        W 8133   0.546   5.764  11.533
 4390W        W 8134   6.093   2.861   0.166
 4391W        W 8135   1.625   4.140  10.275
 4392W        W 8136   4.330   2.197   1.889
 4393W        W 8137   3.390  10.068   9.535
 4394W        W 8138   3.830   2.637   1.417
 4395W        W 8139   9.689   0.181  11.765
 4396W        W 8140   9.909   8.872   2.996
 4397W        W 8141   5.484   7.257   1.956
 4398W        W 8142   2.117   3.957  10.236
 4399W        W 8143   7.984   5.617   0.340
 4400W        W 8144   2.341   7.878  10.551
 4401W        W 8145   2.304   5.534  10.453
 4402W        W 8146   8.594   5.780   2.209
 4403W        W 8147   4.893   0.713   3.084
 4404W        W 8148   0.457   2.151   3.106
 4405W        W 8149   8.167   4.737   0.677
 4406W        W 8150   3.686   1.452   1.995
 4407W        W 8151   0.847   0.012   3.498
 4408W        W 8152   8.113   8.513   2.111
 4409W        W 8153   2.816   4.513   2.401
 4410W        W 8154   0.747   3.126   0.288
 4411W        W 8155   2.804   3.758   2.857
 4412W        W 8156   9.501   9.023   2.326
 4413W        W 8157   8.686   6.736   2.354
 4414W        W 8158   6.442   4.132   9.187
 4415W        W 8159   7.211   9.269   8.732
 4416W        W 8160   9.869   5.063   9.593
 4417W        W 8161   3.174  10.489   2.724
 4418W        W 8162   6.892   5.522   2.541
 4419W        W 8163   3.565   1.339   2.935
 4420W        W 8164   3.843   9.035   9.032
 4421W        W 8165   6.987   3.151   1.718
 4422W        W 8166   0.803   8.924   9.898
 4423W        W 8167   3.402   3.131  11.536
 4424W        W 8168   4.018   7.525   1.752
 4425W        W 8169   0.333   6.614   1.810
 4426W        W 8170   9.396   4.406  11.362
 4427W        W 8171   3.200   5.410   0.455
 4428W        W 8172   6.209   3.947   3.543
 4429W        W 8173   4.716   7.082   0.131
 4430W        W 8174   4.715   3.509  11.964
 4431W        W 8175   5.627   1.759   9.009
 4432W        W 8176   8.815   4.787   3.402
 4433W        W 8177   1.387   5.230   9.819
 4434W        W 8178   8.394   3.244   9.735
 4435W        W 8179   7.944   9.121  11.071
 4436W        W 8180   0.855   1.238   2.905
 4437W        W 8181   3.252   8.799   9.254
 4438W        W 8182   7.553   2.029   0.678
 4439W        W 8183   7.526   8.296   8.555
 4440W        W 8184   7.444   7.887   0.432
 4441W        W 8185   8.500   6.433  10.433
 4442W        W 8186   0.679   6.832   9.420
 4443W        W 8187   5.658   5.055   9.329
 4444W        W 8188   5.853   1.260   3.209
 4445W        W 8189   5.080   0.826   8.733
 4446W        W 8190   5.587   0.016   3.451
 4447W        W 8191   5.947   7.341   0.966
 4448W        W 8192   1.263  10.002   1.821
 4449W        W 8193   6.942   5.206   2.954
 4450W        W 8194   7.962   9.733   9.828
 4451W        W 8195   6.396   6.948   0.516
 4452W        W 8196   9.478   9.974   8.961
 4453W        W 8197   9.802   4.686  11.427
 4454W        W 8198   5.841   2.682   3.331
 4455W        W 8199   4.636  10.092   8.868
 4456W        W 8200   4.404   3.667   8.614
 4457W        W 8201   8.962   6.617   3.134
 4458W        W 8202   4.697   6.913   2.626
 4459W        W 8203   2.693   7.501   3.386
 4460W        W 8204   5.646   0.794   0.343
 4461W        W 8205   3.330   5.968   4.058
 4462W        W 8206   9.696   5.691   1.388
 4463W        W 8207   1.776   4.619  10.213
 4464W        W 8208   9.170   9.803  11.163
 4465W        W 8209   7.934   8.972   2.314
 4466W        W 8210   7.019   2.181   9.337
 4467W        W 8211   4.801   1.776   0.505
 4468W        W 8212   4.807   7.328   2.949
 4469W        W 8213   1.398   1.270   9.358
 4470W        W 8214   9.855   0.024   1.762
 4471W        W 8215  10.252   5.102   8.727
 4472W        W 8216   7.618   6.606   9.537
 4473W        W 8217   2.199   2.230   0.129
 4474W        W 8218   8.465   2.900   0.334
 4475W        W 8219   8.309   6.537   0.583
 4476W        W 8220   5.614   5.697   2.745
 4477W        W 8221   5.181   4.361  10.351
 4478W        W 8222   6.465   2.143   8.945
 4479W        W 8223   3.272   9.104   0.775
 4480W        W 8224   4.331   3.394  10.397
 4481W        W 8225   4.886   1.536   1.197
 4482W        W 8226   7.537   1.841  11.800
 4483W        W 8227   8.105   4.015   3.609
 4484W        W 8228   3.642   2.719   9.530
 4485W        W 8229   2.777   4.335  11.455
 4486W        W 8230   9.403   1.850   9.083
 4487W        W 8231   3.410   4.449   4.000
 4488W        W 8232   9.271   3.270  10.341
 4489W        W 8233   7.744   3.211  10.978
 4490W        W 8234   1.378   5.602   1.968
 4491W        W 8235   1.887   8.183   2.297
 4492W        W 8236   7.906   3.674  10.814
 4493W        W 8237   5.295   4.679   2.687
 4494W        W 8238   1.863   7.095   0.045
 4495W        W 8239   6.916   1.299   1.267
 4496W        W 8240   5.436   7.420  11.678
 4497W        W 8241   1.747   4.624   9.179
 4498W        W 8242   8.642   4.179  10.025
 4499W        W 8243   5.161   8.009  11.351
 4500W        W 8244  10.220   6.711   2.913
 4501W        W 8245   4.713  10.233   1.208
 4502W        W 8246  10.254   7.292   2.152
 4503W        W 8247   4.625   3.256   0.565
 4504W        W 8248   1.889   4.737   2.830
 4505W        W 8249   0.259   7.497   3.287
 4506W        W 8250   3.943   9.918  11.887
 4507W        W 8251   8.104   8.261   1.667
 4508W        W 8252   9.404   7.132   8.698
 4509W        W 8253   3.166   0.918   9.376
 4510W        W 8254   1.987   3.259   0.547
 4511W        W 8255   5.915   2.097   9.654
 4512W        W 8256   5.226   7.522   8.539
 4513W        W 8257   6.786   8.900  11.462
 4514W        W 8258   9.084   3.226   3.471
 4515W        W 8259  10.090   2.207   1.148
 4516W        W 8260   1.300   7.109   0.880
 4517W        W 8261   8.641   2.168   8.787
 4518W        W 8262   7.306   2.237   1.764
 4519W        W 8263   8.515   0.243   1.248
 4520W        W 8264  10.371   0.861   9.201
 4521W        W 8265   0.768   2.947   3.636
 4522W        W 8266   9.882   6.649   3.321
 4523W        W 8267   3.842   5.687   2.693
 4524W        W 8268   8.466  10.237   1.831
 4525W        W 8269   8.634   4.182  10.943
 4526W        W 8270   4.157   9.856   8.890
 4527W        W 8271   1.189   2.336   2.206
 4528W        W 8272   6.928   7.601   8.915
 4529W        W 8273   1.448   3.116   9.583
 4530W        W 8274   2.807  10.410  11.079
 4531W        W 8275   8.239   5.970  10.427
 4532W        W 8276   6.639   1.553   1.724
 4533W        W 8277   3.810   8.618  10.437
 4534W        W 8278   4.374   0.016   0.822
 4535W        W 8279   2.462   7.648  11.006
 4536W        W 8280   3.188   2.970   2.912
 4537W        W 8281   1.789   0.200   2.086
 4538W        W 8282   8.479   6.331   8.587
 4539W        W 8283   7.508   2.160   0.195
 4540W        W 8284   6.937   7.438  11.709
 4541W        W 8285   3.283   6.501   9.979
 4542W        W 8286   6.053   3.791  11.733
 4543W        W 8287   2.105   4.800  11.148
 4544W        W 8288   2.413   5.087   1.912
 4545W        W 8289   3.282   7.871  10.361
 4546W        W 8290   0.734   7.890   0.529
 4547W        W 8291  10.236   6.978  10.311
 4548W        W 8292   2.028   5.031   9.476
 4549W        W 8293   4.645   5.056   1.098
 4550W        W 8294   2.318   0.702  11.523
 4551W        W 8295   4.080   9.137   2.539
 4552W        W 8296   7.166   9.338   9.770
 4553W        W 8297   9.841   6.140   3.371
 4554W        W 8298   9.683  10.460   9.088
 4555W        W 8299   7.431   7.422   8.948
 4556W        W 8300   5.716   4.166  11.841
 4557W        W 8301   6.596   7.593   3.183
 4558W        W 8302  10.096   5.621  11.301
 4559W        W 8303   8.988   8.889   2.820
 4560W        W 8304   2.390   3.672  10.577
 4561W        W 8305   5.663   0.334   2.242
 4562W        W 8306   0.246  10.439  11.712
 4563W        W 8307  10.352   1.742   3.481
 4564W        W 8308   0.297   0.132   0.703
 4565W        W 8309   3.284   3.795   1.692
 4566W        W 8310   7.099   9.009  10.467
 4567W        W 8311   7.371   7.154   1.141
 4568W        W 8312   4.658   6.167   2.751
 4569W        W 8313   8.671   6.969  11.393
 4570W        W 8314   5.955   8.607  11.021
 4571W        W 8315   1.261   3.195   1.138
 4572W        W 8316   8.210   9.420   2.254
 4573W        W 8317   6.477   4.071   0.338
 4574W        W 8318   3.156   9.831   1.910
 4575W        W 8319   2.649   7.674   9.057
 4576W        W 8320   0.715   4.346  11.720
 4577W        W 8321   4.234   9.086  11.590
 4578W        W 8322   7.947   7.544   9.063
 4579W        W 8323   3.310   1.261  11.968
 4580W        W 8324   8.079   6.700   8.733
 4581W        W 8325   3.553   1.439  11.544
 4582W        W 8326   3.922   9.615  10.286
 4583W        W 8327   1.672   2.762  11.297
 4584W        W 8328   5.371   9.576   2.501
 4585W        W 8329   9.206  10.315   9.262
 4586W        W 8330   7.280   8.486   0.287
 4587W        W 8331   8.045  10.100   0.837
 4588W        W 8332   9.521   2.802  10.380
 4589W        W 8333   5.057   0.365  10.104
 4590W        W 8334   7.327   8.527   2.265
 4591W        W 8335   7.129   5.039   2.505
 4592W        W 8336   3.151  10.446  10.460
 4593W        W 8337   2.444   3.303   9.791
 4594W        W 8338   2.454   5.556   2.709
 4595W        W 8339   7.873   5.497   3.520
 4596W        W 8340  10.406   6.602   3.415
 4597W        W 8341   7.813   8.784  11.449
 4598W        W 8342   7.876   3.166   2.608
 4599W        W 8343   2.312   0.228   0.356
 4600W        W 8344   0.822   3.971   0.696
 4601W        W 8345   3.868   4.077  10.005
 4602W        W 8346   1.362   6.509  11.546
 4603W        W 8347   6.684   2.308   1.233
 4604W        W 8348   1.230   1.546  11.702
 4605W        W 8349   2.194   9.993   3.463
 4606W        W 8350   9.508   7.053   0.476
 4607W        W 8351   1.280   2.344   1.702
 4608W        W 8352  10.280   9.226   0.381
 4609W        W 8353   0.072   1.728   2.976
 4610W        W 8354   4.663   3.609  11.472
 4611W        W 8355   5.084   1.735   9.764
 4612W        W 8356   7.704   3.611   1.600
 4613W        W 8357   1.154   0.568  11.923
 4614W        W 8358   5.409   7.958   9.106
 4615W        W 8359   9.556   2.299   8.823
 4616W        W 8360   2.230   6.684   3.384
 4617W        W 8361   2.738   7.064  11.652
 4618W        W 8362   6.116   6.575   2.401
 4619W        W 8363   4.455   4.366   0.195
 4620W        W 8364   6.909   0.703   2.650
 4621W        W 8365   5.239   3.013   1.628
 4622W        W 8366   1.291   2.407   2.719
 4623W        W 8367   0.157   5.195   0.541
 4624W        W 8368   7.047   2.687   9.511
 4625W        W 8369   3.583   6.392   3.120
 4626W        W 8370   0.063   7.946   9.429
 4627W        W 8371   1.447   8.858   1.342
 4628W        W 8372   1.673   4.055   0.186
 4629W        W 8373   6.699   7.515  10.752
 4630W        W 8374  10.037   2.667   8.898
 4631W        W 8375   9.959  10.032   8.761
 4632W        W 8376   8.974   9.625  10.318
 4633W        W 8377   3.713   3.141   0.971
 4634W        W 8378   0.855   4.087   9.959
 4635W        W 8379   2.312   4.316  11.240
 4636W        W 8380   1.892   6.396   1.113
 4637W        W 8381   9.080   5.028   1.959
 4638W        W 8382   0.741   1.365  11.551
 4639W        W 8383   3.344   9.245   9.044
 4640W        W 8384   5.420   7.580  11.196
 4641W        W 8385   6.973   2.361  11.184
 4642W        W 8386   5.412   8.545   2.423
 4643W        W 8387   9.331  10.280  11.326
 4644W        W 8388   3.789   1.360   2.473
 4645W        W 8389   5.595   3.614   8.244
 4646W        W 8390   6.451   9.524   2.385
 4647W        W 8391   2.873   3.209   2.113
 4648W        W 8392   5.710   8.823   3.565
 4649W        W 8393   8.546   6.086  11.320
 4650W        W 8394   1.017   1.362   0.424
 4651W        W 8395  10.488   9.609   0.116
 4652W        W 8396   0.215   1.111  10.267
 4653W        W 8397   3.965   6.609   1.944
 4654W        W 8398   3.414   5.195   1.922
 4655W        W 8399   2.724   7.201  10.318
 4656W        W 8400   6.255   1.787   1.127
 4657W        W 8401   6.682   9.087   3.280
 4658W        W 8402   4.102   9.167   0.174
 4659W        W 8403   2.326   1.253   9.581
 4660W        W 8404   4.292   0.340  11.701
 4661W        W 8405   7.469   4.961   4.077
 4662W        W 8406   7.818  10.341   9.069
 4663W        W 8407   0.669   6.800   0.325
 4664W        W 8408   8.055   6.127  11.509
 4665W        W 8409   6.244   7.033  11.981
 4666W        W 8410   7.175   1.414  10.296
 4667W        W 8411   0.774   2.621   0.347
 4668W        W 8412   0.935   4.811  10.452
 4669W        W 8413   9.410   8.977  10.660
 4670W        W 8414   6.073   2.870  11.238
 4671W        W 8415   3.138   1.882   2.653
 4672W        W 8416   6.439   5.471  11.292
 4673W        W 8417   3.902   3.159  10.276
 4674W        W 8418   2.858   8.275   0.903
 4675W        W 8419   4.501   3.183   8.430
 4676W        W 8420   4.547   4.120   8.380
 4677W        W 8421   7.973   6.060  11.000
 4678W        W 8422   8.225   7.446  11.904
 4679W        W 8423   8.170   1.179   9.643
 4680W        W 8424   9.375   6.292   2.481
 4681W        W 8425   7.378   3.585   9.342
 4682W        W 8426   1.205   8.885   9.094
 4683W        W 8427   0.705   4.348  11.214
 4684W        W 8428   8.369   8.964   2.016
 4685W        W 8429   7.836   0.903   0.239
 4686W        W 8430  10.464   7.090   2.647
 4687W        W 8431   4.015   1.664   0.812
 4688W        W 8432   4.397   4.016   4.040
 4689W        W 8433   8.692   9.967   0.509
 4690W        W 8434   9.428   3.289   8.936
 4691W        W 8435   0.200   1.444   0.280
 4692W        W 8436   8.399   4.796   1.172
 4693W        W 8437   3.224   9.364   1.649
 4694W        W 8438   2.517   9.125   8.584
 4695W        W 8439   5.163   6.980   2.845
 4696W        W 8440   9.557   1.045   9.455
 4697W        W 8441   4.101   8.717  11.943
 4698W        W 8442   7.635   3.064  11.464
 4699W        W 8443   6.346   6.932   1.012
 4700W        W 8444   5.263   8.046   1.778
 4701W        W 8445   0.051   6.882   2.194
 4702W        W 8446   9.696   5.942   0.931
 4703W        W 8447   3.680   4.317  11.492
 4704W        W 8448   9.871   3.875  11.831
 4705W        W 8449   4.606   2.676   8.312
 4706W        W 8450   7.717   5.377   9.949
 4707W        W 8451   7.607   7.896  11.569
 4708W        W 8452   8.377  10.220  11.286
 4709W        W 8453   0.930   2.096  10.979
 4710W        W 8454   7.561   6.059   1.749
 4711W        W 8455   4.880   8.180   1.372
 4712W        W 8456   4.010   1.603   3.138
 4713W        W 8457   1.618   0.319  11.721
 4714W        W 8458   4.224   5.757   1.832
 4715W        W 8459   7.482   1.763  10.980
 4716W        W 8460   7.729   6.317   9.959
 4717W        W 8461   7.083   3.282   8.407
 4718W        W 8462   3.704   6.024   9.923
 4719W        W 8463   1.363   2.908  10.321
 4720W        W 8464   2.399   8.351   0.051
 4721W        W 8465   8.133   7.639   0.816
 4722W        W 8466   3.617   6.382   2.242
 4723W        W 8467   2.662   6.462   3.151
 4724W        W 8468   5.277   0.422  11.372
 4725W        W 8469   0.343   8.401   2.394
 4726W        W 8470   3.750   2.338  10.852
 4727W        W 8471   5.106   8.474   1.987
 4728W        W 8472   5.232   0.380   2.510
 4729W        W 8473   4.193   5.619   9.771
 4730W        W 8474   3.767   5.443  10.657
 4731W        W 8475   0.459   2.945   2.729
 4732W        W 8476   9.291   4.369   2.906
 4733W        W 8477   2.242   6.173   3.273
 4734W        W 8478   8.993   4.569  11.588
 4735W        W 8479   7.038   5.199  11.045
 4736W        W 8480   7.987   5.503  11.828
 4737W        W 8481   2.637   9.971  11.408
 4738W        W 8482  10.023  10.384   3.683
 4739W        W 8483   8.971   9.871   9.040
 4740W        W 8484   4.663  10.053   2.201
 4741W        W 8485   5.566   9.379  11.240
 4742W        W 8486   3.171   8.670  10.963
 4743W        W 8487   9.562   6.569   0.652
 4744W        W 8488   2.665  10.405  10.560
 4745W        W 8489   2.110   2.576   1.131
 4746W        W 8490   6.946   1.396   2.862
 4747W        W 8491   8.422   9.407   1.769
 4748W        W 8492   4.791   4.480   9.997
 4749W        W 8493   9.385   7.940   1.488
 4750W        W 8494   3.607   7.940   9.968
 4751W        W 8495   5.955   4.169   1.709
 4752W        W 8496   9.871   2.991  11.571
 4753W        W 8497   6.882   3.227  10.777
 4754W        W 8498   8.899   9.934   8.534
 4755W        W 8499  10.414   6.075  10.314
 4756W        W 8500   2.296   0.326   0.902
 4757W        W 8501   0.698   6.005  11.960
 4758W        W 8502   6.005   5.212  11.133
 4759W        W 8503  10.304   3.654   9.858
 4760W        W 8504   5.773   8.938  11.458
 4761W        W 8505   9.879   6.425   9.977
 4762W        W 8506   4.894   1.178  11.746
 4763W        W 8507   9.918   4.395  11.891
 4764W        W 8508   8.837   7.242   9.424
 4765W        W 8509   4.728   0.328   0.550
 4766W        W 8510   7.438   5.327   3.109
 4767W        W 8511   3.915  10.082   9.570
 4768W        W 8512   8.763   0.931  10.973
 4769W        W 8513   1.404   5.532   1.410
 4770W        W 8514   6.645   1.505   0.842
 4771W        W 8515   0.974   7.692   1.367
 4772W        W 8516  10.266   7.510  11.425
 4773W        W 8517   3.626   9.941   2.663
 4774W        W 8518   5.912   2.425   0.887
 4775W        W 8519   2.195   4.056  11.666
 4776W        W 8520   3.136   8.093   1.414
 4777W        W 8521   1.297   2.850   2.446
 4778W        W 8522   7.072   8.444   2.918
 4779W        W 8523   2.212   3.056   0.997
 4780W        W 8524   7.888   9.940   0.310
 4781W        W 8525   7.005   8.581  10.186
 4782W        W 8526   6.136   8.843   0.785
 4783W        W 8527   9.453   3.808   8.748
 4784W        W 8528   3.222   3.607   2.167
 4785W        W 8529   8.523   9.763  11.950
 4786W        W 8530   5.644   8.534  10.461
 4787W        W 8531   9.094   9.303   2.525
 4788W        W 8532   2.542   0.954  11.930
 4789W        W 8533   1.199  10.371   3.155
 4790W        W 8534   5.625   5.997   2.335
 4791W        W 8535   1.472   8.124  10.540
 4792W        W 8536   9.508   4.562   1.483
 4793W        W 8537   5.949   8.447   2.341
 4794W        W 8538   5.869   8.896   0.340
 4795W        W 8539   4.300   1.890   0.454
 4796W        W 8540   6.051   9.821   9.134
 4797W        W 8541   8.863   1.217   0.783
 4798W        W 8542   4.658   4.988   2.129
 4799W        W 8543   6.716   1.160  10.587
 4800W        W 8544   3.380   3.185   9.084
 4801W        W 8545   8.151   9.357   8.797
 4802W        W 8546   3.758   2.313  10.327
 4803W        W 8547   7.397   7.077   2.158
 4804W        W 8548   8.976   3.715   3.339
 4805W        W 8549   5.072   9.433  11.239
 4806W        W 8550   7.437  10.378   8.285
 4807W        W 8551   0.769   3.833   1.190
 4808W        W 8552   5.468   6.900  10.112
 4809W        W 8553   2.935   7.718  11.112
 4810W        W 8554   9.869   0.318   9.545
 4811W        W 8555   6.781   3.701   0.144
 4812W        W 8556   4.995   7.406   1.833
 4813W        W 8557   9.385   6.056   3.593
 4814W        W 8558   7.398   9.789   2.441
 4815W        W 8559  10.131   8.439  11.410
 4816W        W 8560   5.510   2.179   9.326
 4817W        W 8561   3.335   5.497   2.380
 4818W        W 8562   1.480   4.640   3.162
 4819W        W 8563   7.714   5.648   9.517
 4820W        W 8564   0.725   8.303  10.351
 4821W        W 8565  10.286   1.153   0.412
 4822W        W 8566   4.738   9.620   0.130
 4823W        W 8567   8.961   6.519  10.223
 4824W        W 8568   0.241  10.164   0.901
 4825W        W 8569   6.387   2.692   8.991
 4826W        W 8570   4.967   6.631  11.772
 4827W        W 8571   2.626   7.693   9.586
 4828W        W 8572   5.619   0.784   9.530
 4829W        W 8573  10.021   7.369  10.983
 4830W        W 8574   6.797   4.220   8.807
 4831W        W 8575  10.343   9.541  11.626
 4832W        W 8576   3.104   8.116   3.158
 4833W        W 8577   8.494   9.761   8.805
 4834W        W 8578   3.242   5.473  11.518
 4835W        W 8579   0.583   7.635   2.691
 4836W        W 8580   9.355   5.356   2.764
 4837W        W 8581   3.361   9.449  10.415
 4838W        W 8582   7.805   2.022   8.451
 4839W        W 8583   5.470   6.711  11.539
 4840W        W 8584   6.906   6.978   9.493
 4841W        W 8585   0.392   1.604   0.927
 4842W        W 8586  10.203   0.665   1.805
 4843W        W 8587   1.904   8.629   1.297
 4844W        W 8588   3.116   5.215   3.605
 4845W        W 8589   3.808   1.871  10.591
 4846W        W 8590   0.864   9.448  10.869
 4847W        W 8591   0.158   0.446   9.997
 4848W        W 8592   4.284   1.701  11.984
 4849W        W 8593   5.439   7.801   9.942
 4850W        W 8594   0.429   8.742  10.466
 4851W        W 8595   7.123   5.961  11.563
 4852W        W 8596   0.343   9.486  10.835
 4853W        W 8597   3.553   0.843   3.108
 4854W        W 8598   0.099   8.291   1.226
 4855W        W 8599   4.150   5.549  11.047
 4856W        W 8600   9.856   1.784   3.517
 4857W        W 8601   7.615   2.733  10.853
 4858W        W 8602   5.566   3.134   0.697
 4859W        W 8603   3.283   2.988   0.732
 4860W        W 8604   3.591   4.921  11.702
 4861W        W 8605   2.330   9.502   3.322
 4862W        W 8606   5.703   3.415  10.292
 4863W        W 8607   0.800   9.740  11.785
 4864W        W 8608   8.528   2.874  10.996
 4865W        W 8609   4.829   2.552   0.242
 4866W        W 8610   9.952   3.818   3.158
 4867W        W 8611   5.386   1.362   3.376
 4868W        W 8612   4.194   5.006   3.004
 4869W        W 8613   3.654   8.125   2.587
 4870W        W 8614   0.858  10.388   9.011
 4871W        W 8615   7.458   0.947   2.031
 4872W        W 8616   9.379   8.803   3.260
 4873W        W 8617  10.150   9.884  11.305
 4874W        W 8618   0.465   3.926   9.675
 4875W        W 8619   1.290   1.423   2.713
 4876W        W 8620   0.987   7.527   0.903
 4877W        W 8621   5.624   3.829  11.443
 4878W        W 8622   7.064   8.320   0.724
 4879W        W 8623   3.844   0.366   0.002
 4880W        W 8624   5.992   0.196  10.392
 4881W        W 8625   6.313   5.144   1.342
 4882W        W 8626   7.903   2.359  11.032
 4883W        W 8627   8.923   0.948  10.352
 4884W        W 8628   3.607   5.245   0.724
 4885W        W 8629   3.743   7.903  10.952
 4886W        W 8630   4.944   9.366   2.200
 4887W        W 8631   1.103   4.101   9.512
 4888W        W 8632   4.218   9.269   2.071
 4889W        W 8633   6.523   6.502   0.281
 4890W        W 8634   7.010   3.028  10.327
 4891W        W 8635   3.115  10.276   0.370
 4892W        W 8636   4.931   4.226   0.382
 4893W        W 8637   5.192  10.461   9.235
 4894W        W 8638   0.829   2.437   1.281
 4895W        W 8639   0.515   3.466  11.430
 4896W        W 8640   2.384   9.071   3.040
 4897W        W 8641   0.676   2.190   2.266
 4898W        W 8642   5.393   0.310   1.265
 4899W        W 8643   0.170   2.254   9.837
 4900W        W 8644   0.089   3.055   3.423
 4901W        W 8645   6.280   4.751  10.738
 4902W        W 8646   4.387   5.368  11.646
 4903W        W 8647   2.413   0.265   1.417
 4904W        W 8648   3.796   2.174   0.872
 4905W        W 8649   2.881   8.531   0.325
 4906W        W 8650   6.572   3.229   2.329
 4907W        W 8651   2.341   7.901   1.600
 4908W        W 8652   9.699   7.504   3.242
 4909W        W 8653   8.122   5.492  10.252
 4910W        W 8654   2.431   2.204   3.393
 4911W        W 8655   1.661   1.177   2.989
 4912W        W 8656   4.415   0.311  10.314
 4913W        W 8657   9.407   6.241   1.967
 4914W        W 8658   4.802   1.753  11.982
 4915W        W 8659   9.144   9.925   0.750
 4916W        W 8660   6.428   7.246   1.396
 4917W        W 8661   3.796   5.645   0.945
 4918W        W 8662   8.375   5.673  11.035
 4919W        W 8663   6.633   8.776   9.391
 4920W        W 8664   0.502   3.096  11.847
 4921W        W 8665   3.736   6.472   0.932
 4922W        W 8666   0.905   5.821  11.169
 4923W        W 8667   9.534   3.034   3.297
 4924W        W 8668   7.605   4.528   1.809
 4925W        W 8669   9.567   0.629   9.815
 4926W        W 8670   0.308   8.987  10.023
 4927W        W 8671   7.489   8.386  10.974
 4928W        W 8672   1.833   5.441   9.180
 4929W        W 8673   1.772   3.637   2.315
 4930W        W 8674   5.212   0.184  11.827
 4931W        W 8675   1.910   5.606   2.714
 4932W        W 8676   7.636   6.979  11.436
 4933W        W 8677   8.396   1.842   3.315
 4934W        W 8678  10.358   5.156  11.100
 4935W        W 8679   2.287   7.357  10.590
 4936W        W 8680   8.984   1.965   1.727
 4937W        W 8681   5.994   3.300  11.905
 4938W        W 8682   7.152   2.135   1.231
 4939W        W 8683   4.576   2.235   9.034
 4940W        W 8684   6.114  10.377  11.341
 4941W        W 8685   2.618  10.218   2.151
 4942W        W 8686   3.351   7.872  11.338
 4943W        W 8687   4.344   6.270   1.968
 4944W        W 8688   1.536   7.918   3.642
 4945W        W 8689   9.862   0.905   9.052
 4946W        W 8690   4.586   8.863   0.847
 4947W        W 8691   2.771   8.393  11.713
 4948W        W 8692   7.959   0.216   1.964
 4949W        W 8693   3.187   5.738   3.587
 4950W        W 8694   0.251   6.686   2.853
 4951W        W 8695   7.330   2.610   9.100
 4952W        W 8696   5.480   3.927   3.945
 4953W        W 8697   1.923   0.393   1.285
 4954W        W 8698   4.276   6.370  11.477
 4955W        W 8699   9.080   2.686  11.759
 4956W        W 8700   0.497   4.656   9.086
 4957W        W 8701   0.035   7.509   0.621
 4958W        W 8702   7.717   1.610  11.401
 4959W        W 8703   3.530   4.858   9.094
 4960W        W 8704   8.884   1.345   2.998
 4961W        W 8705   1.877   3.378   8.867
 4962W        W 8706   2.693   0.740   9.410
 4963W        W 8707   7.139   9.819   3.110
 4964W        W 8708   4.189  10.347   1.309
 4965W        W 8709   8.347   0.504   2.168
 4966W        W 8710   2.385   7.228   2.176
 4967W        W 8711   9.247   6.513  11.624
 4968W        W 8712  10.403   8.865  11.360
 4969W        W 8713   4.099   0.802  11.866
 4970W        W 8714   2.263   3.787   2.156
 4971W        W 8715   3.131   5.699   8.765
 4972W        W 8716   0.455   5.964   9.459
 4973W        W 8717   0.819   6.623   3.363
 4974W        W 8718   5.623   2.372   1.331
 4975W        W 8719   2.108   0.171   8.998
 4976W        W 8720   9.010   9.946   0.055
 4977W        W 8721   0.931   6.595   9.819
 4978W        W 8722  10.483   6.614   1.037
 4979W        W 8723   9.459   4.636  11.844
 4980W        W 8724   5.933   6.066  11.038
 4981W        W 8725   6.599   5.024   1.746
 4982W        W 8726   8.520   7.911  11.456
 4983W        W 8727   5.682   0.206   2.755
 4984W        W 8728   6.198   1.672   3.280
 4985W        W 8729   0.764   3.096   3.155
 4986W        W 8730   6.612  10.242  10.605
 4987W        W 8731   5.550   3.823   9.941
 4988W        W 8732   9.890   8.209   2.335
 4989W        W 8733   5.991   6.412   2.875
 4990W        W 8734   5.229  10.354   1.064
 4991W        W 8735   5.555   1.762  11.031
 4992W        W 8736   5.313   8.877   8.852
 4993W        W 8737   8.296   0.503  10.914
 4994W        W 8738   5.074   8.833   9.874
 4995W        W 8739   8.848   1.869  11.145
 4996W        W 8740   3.184  10.091   2.373
 4997W        W 8741   9.569   0.998  10.474
 4998W        W 8742   1.678   7.195   1.392
 4999W        W 8743   5.719   7.558   8.360
 5000W        W 8744   4.706   4.110  11.396
 5001W        W 8745   1.250  10.239   1.367
 5002W        W 8746   3.483  10.437   0.744
 5003W        W 8747   6.580   9.113   2.622
 5004W        W 8748   5.887  10.339   3.059
 5005W        W 8749   4.857   8.308   8.533
 5006W        W 8750   2.634   1.597   1.786
 5007W        W 8751   1.891   2.607   0.264
 5008W        W 8752   1.707   8.910   0.888
 5009W        W 8753   2.330   8.484   9.899
 5010W        W 8754   7.561   6.022  11.305
 5011W        W 8755   8.911   3.727  10.071
 5012W        W 8756   0.902   6.550  10.714
 5013W        W 8757   5.186   8.511   3.311
 5014W        W 8758   4.565   3.266   2.280
 5015W        W 8759   7.632   6.458   8.551
 5016W        W 8760   0.269   4.260  10.928
 5017W        W 8761   0.422   3.415   9.583
 5018W        W 8762   5.514   8.526  11.322
 5019W        W 8763   5.299   1.161   2.013
 5020W        W 8764   6.472   6.808   3.610
 5021W        W 8765   4.233   3.865   3.204
 5022W        W 8766   5.243   1.876  11.727
 5023W        W 8767   1.792   8.189   2.808
 5024W        W 8768   6.457   7.816   9.057
 5025W        W 8769   8.857   5.238   2.789
 5026W        W 8770  10.301   8.840  10.492
 5027W        W 8771   0.618   9.825   0.774
 5028W        W 8772   1.196  10.488   2.655
 5029W        W 8773   7.964   2.480  11.518
 5030W        W 8774   5.140   7.720   2.195
 5031W        W 8775   2.766   6.376   9.433
 5032W        W 8776   2.886   0.380   2.499
 5033W        W 8777   7.425   2.170   2.587
 5034W        W 8778   5.125   9.372   9.012
 5035W        W 8779   1.360   4.826   8.863
 5036W        W 8780   9.443   3.849   2.057
 5037W        W 8781   1.372   7.604  10.319
 5038W        W 8782   9.464   8.541  10.882
 5039W        W 8783   5.108   3.017   9.913
 5040W        W 8784   9.803   5.032   9.025
 5041W        W 8785   0.685   4.381   9.518
 5042W        W 8786   7.839   0.903   9.371
 5043W        W 8787   8.917   8.000   0.723
 5044W        W 8788   9.873   1.346  11.687
 5045W        W 8789   0.011   7.822  10.334
 5046W        W 8790   3.018   1.487   2.940
 5047W        W 8791   8.639   8.686  11.019
 5048W        W 8792  10.431   7.664  11.898
 5049W        W 8793   4.254   7.245  11.943
 5050W        W 8794   5.350   2.403   0.145
 5051W        W 8795   0.267   2.555  11.287
 5052W        W 8796   6.218   8.363   0.905
 5053W        W 8797   6.968   6.873   1.942
 5054W        W 8798   4.790   1.310   0.246
 5055W        W 8799   3.244   8.199   0.040
 5056W        W 8800   0.462   4.638   2.991
 5057W        W 8801   4.790   0.253   1.066
 5058W        W 8802   2.152   0.674  11.042
 5059W        W 8803   9.794   3.127   0.559
 5060W        W 8804   0.542   8.846   2.575
 5061W        W 8805   6.140   2.417   0.439
 5062W        W 8806   2.621   9.118  11.512
 5063W        W 8807   5.704   6.356   0.424
 5064W        W 8808   0.188   7.930  10.838
 5065W        W 8809   0.948   9.940  10.886
 5066W        W 8810   6.145   9.385   2.770
 5067W        W 8811   6.978   7.006   2.991
 5068W        W 8812  10.307   6.264  11.742
 5069W        W 8813   3.248   7.370  11.297
 5070W        W 8814   1.737   1.235   2.488
 5071W        W 8815   0.396   2.682   2.238
 5072W        W 8816   7.446   0.440   0.761
 5073W        W 8817  10.054   7.388   2.620
 5074W        W 8818   8.902   3.818   1.232
 5075W        W 8819   6.886   9.543   9.011
 5076W        W 8820   1.219   0.425  10.903
 5077W        W 8821   6.722   4.179   3.592
 5078W        W 8822   9.823   6.685  10.432
 5079W        W 8823   9.776   3.179   2.488
 5080W        W 8824   1.892   9.456   0.819
 5081W        W 8825   9.985   2.729  10.600
 5082W        W 8826   0.936  10.488  10.045
 5083W        W 8827   6.113   0.139   3.451
 5084W        W 8828   9.356   8.042   0.471
 5085W        W 8829   1.813  10.250  10.006
 5086W        W 8830   3.157   4.949  10.363
 5087W        W 8831   2.578   9.402  10.242
 5088W        W 8832   3.646   4.121  10.485
 5089W        W 8833   2.392   8.591   0.947
 5090W        W 8834   6.104   3.918   2.170
 5091W        W 8835   3.171   8.147  10.941
 5092W        W 8836  10.188   9.450   3.483
 5093W        W 8837   3.708   1.361   8.748
 5094W        W 8838   5.982   5.495   2.414
 5095W        W 8839   5.996   3.249   1.421
 5096W        W 8840   4.107   6.083  11.084
 5097W        W 8841   4.743   8.949  11.519
 5098W        W 8842   2.139   4.435   9.455
 5099W        W 8843   7.445   3.763   8.475
 5100W        W 8844   4.768   7.378   2.385
 5101W        W 8845   8.399   5.508   2.632
 5102W        W 8846   5.039   8.853  11.929
 5103W        W 8847   7.056   3.183   9.392
 5104W        W 8848   0.361   8.171   3.384
 5105W        W 8849   4.352   2.779  11.375
 5106W        W 8850   9.887   3.184   1.475
 5107W        W 8851   3.720   3.642   3.392
 5108W        W 8852   2.977   9.798   0.774
 5109W        W 8853   2.513   4.875   9.527
 5110W        W 8854   2.745   1.353   2.234
 5111W        W 8855   6.190   1.357  11.022
 5112W        W 8856   2.600   3.248  10.333
 5113W        W 8857   4.338   7.535   8.952
 5114W        W 8858   6.539   7.351   3.669
 5115W        W 8859   1.351   6.081   2.181
 5116W        W 8860   9.206   5.965  10.230
 5117W        W 8861   5.095   9.455   1.674
 5118W        W 8862   3.852   1.167   3.417
 5119W        W 8863   3.637   9.629   9.494
 5120W        W 8864   9.683   0.425   2.379
 5121W        W 8865   5.174   2.321  11.405
 5122W        W 8866   1.974   1.702   0.999
 5123W        W 8867   6.967   9.378   2.375
 5124W        W 8868   9.242  10.383   8.735
 5125W        W 8869   5.107   5.622   1.664
 5126W        W 8870   1.478   7.112   9.358
 5127W        W 8871   8.820   0.903   0.343
 5128W        W 8872   9.395   7.551   9.677
 5129W        W 8873   9.097   0.880   1.240
 5130W        W 8874   6.580   6.213   1.332
 5131W        W 8875   0.847   4.829  11.826
 5132W        W 8876   6.584   3.563  11.233
 5133W        W 8877   8.838   7.203   1.138
 5134W        W 8878   6.485   8.359  11.363
 5135W        W 8879   4.300   0.417   8.805
 5136W        W 8880   9.383   3.652  11.950
 5137W        W 8881   2.457   0.898   0.500
 5138W        W 8882   1.213   0.013   2.149
 5139W        W 8883   8.271  10.485   9.285
 5140W        W 8884   8.206   1.405   2.693
 5141W        W 8885   4.148   7.568   8.471
 5142W        W 8886   2.414   6.499  10.590
 5143W        W 8887   5.738   6.520   9.901
 5144W        W 8888   3.332   6.446   0.601
 5145W        W 8889   4.715   1.175   9.770
 5146W        W 8890   6.707   6.462  10.786
 5147W        W 8891   2.290   6.956  10.948
 5148W        W 8892   3.597   7.691   0.253
 5149W        W 8893   5.201   4.169  11.755
 5150W        W 8894   0.446   7.017   3.321
 5151W        W 8895   6.544   0.715  11.491
 5152W        W 8896   2.741   5.555   0.257
 5153W        W 8897   3.797   0.609   8.762
 5154W        W 8898   4.583   7.832   1.066
 5155W        W 8899   8.602   2.897  11.827
 5156W        W 8900   8.993   7.210   8.375
 5157W        W 8901   4.580   6.282   9.451
 5158W        W 8902  10.073  10.283   9.940
 5159W        W 8903   1.909   5.259  11.342
 5160W        W 8904  10.086   3.992   0.868
 5161W        W 8905   8.030   5.906   1.905
 5162W        W 8906   2.003   0.016   1.652
 5163W        W 8907   6.165   0.750   1.642
 5164W        W 8908   4.301   7.198   2.434
 5165W        W 8909   2.212   1.105   2.312
 5166W        W 8910   7.693   5.970   8.416
 5167W        W 8911   7.664   4.610   0.270
 5168W        W 8912   2.711   8.139   8.860
 5169W        W 8913   6.943   5.884   1.455
 5170W        W 8914   9.078   9.437   9.311
 5171W        W 8915   7.471   2.585   0.457
 5172W        W 8916   5.588   1.198   2.767
 5173W        W 8917   0.170   6.090  10.779
 5174W        W 8918   4.191   2.410  10.612
 5175W        W 8919   3.159  10.002   3.465
 5176W        W 8920   6.110   7.855   9.443
 5177W        W 8921   1.443   7.569   0.630
 5178W        W 8922   8.138   6.988  11.348
 5179W        W 8923   5.162   2.698  11.766
 5180W        W 8924   0.398   3.609  11.898
 5181W        W 8925   4.594   7.537   3.855
 5182W        W 8926   8.941   2.666   2.337
 5183W        W 8927   2.707   5.458  10.785
 5184W        W 8928   6.983   2.625   3.022
 5185W        W 8929   0.353   7.974  11.760
 5186W        W 8930  10.253   1.679   0.399
 5187W        W 8931   1.386   6.247   1.179
 5188W        W 8932   2.472   3.785   0.035
 5189W        W 8933   2.668   3.230   0.836
 5190W        W 8934   8.532   8.135   2.042
 5191W        W 8935   6.559   0.444   9.260
 5192W        W 8936   3.091   3.136  11.927
 5193W        W 8937   2.387   2.990  11.507
 5194W        W 8938   0.317   2.357   0.189
 5195W        W 8939   4.870   8.838   0.428
 5196W        W 8940   6.683   7.732   2.495
 5197W        W 8941   4.780   0.811  11.327
 5198W        W 8942   1.934   1.383  10.902
 5199W        W 8943   9.577   4.210  10.939
 5200W        W 8944   3.759   1.870  10.068
 5201W        W 8945   0.948  10.295  10.521
 5202W        W 8946   7.434   1.342   1.194
 5203W        W 8947   5.148   8.805  10.531
 5204W        W 8948   5.746   8.416   8.687
 5205W        W 8949   8.158   0.905   0.686
 5206W        W 8950   4.523   4.285   3.192
 5207W        W 8951   8.444  10.009   2.561
 5208W        W 8952  10.452   8.772   0.299
 5209W        W 8953   1.898   9.013   2.267
 5210W        W 8954   5.757   6.897  11.912
 5211W        W 8955   4.642   2.323   1.495
 5212W        W 8956   5.133   4.794   9.777
 5213W        W 8957   3.371   8.869  10.296
 5214W        W 8958   2.908   0.954   9.835
 5215W        W 8959   6.974   3.762  11.532
 5216W        W 8960   1.358   2.484   8.845
 5217W        W 8961   3.763   7.044   1.744
 5218W        W 8962  10.322   9.948   0.664
 5219W        W 8963   2.687  10.363   1.259
 5220W        W 8964   3.632   9.635   2.007
 5221W        W 8965   5.468   4.600  11.870
 5222W        W 8966   1.660   4.106   2.146
 5223W        W 8967  10.445   5.562   1.858
 5224W        W 8968   0.450   7.159   9.783
 5225W        W 8969   2.461   7.412   8.637
 5226W        W 8970   2.623   4.967  10.732
 5227W        W 8971   5.330   0.345   9.645
 5228W        W 8972   0.786   8.777  10.850
 5229W        W 8973   9.523   0.932   2.370
 5230W        W 8974   4.330   0.361   9.329
 5231W        W 8975   9.741   1.820   1.936
 5232W        W 8976   8.091   6.640   1.086
 5233W        W 8977   6.542   6.705  11.745
 5234W        W 8978   0.475   5.602   8.802
 5235W        W 8979   3.286   1.972   0.408
 5236W        W 8980   5.451   8.888  10.987
 5237W        W 8981   0.984   8.896   8.631
 5238W        W 8982   9.329   8.936  11.508
 5239W        W 8983   6.105   0.888   0.652
 5240W        W 8984   6.100   6.609   1.740
 5241W        W 8985   1.196   1.778   9.337
 5242W        W 8986   5.450   7.991   8.588
 5243W        W 8987   4.800   3.138   1.834
 5244W        W 8988   0.024   1.308   8.986
 5245W        W 8989   2.914   5.691   2.597
 5246W        W 8990   9.401   7.046   1.951
 5247W        W 8991   0.080   7.588   2.797
 5248W        W 8992   0.350   0.012   2.698
 5249W        W 8993   2.426   8.911  10.488
 5250W        W 8994   9.616   9.439   9.475
 5251W        W 8995   7.701   8.002   9.402
 5252W        W 8996   6.375   3.912   8.707
 5253W        W 8997   8.860   2.351  10.079
 5254W        W 8998   2.946   3.638   0.235
 5255W        W 8999   3.494   3.006   1.399
 5256W        W 9000   7.550   0.093   3.301
 5257W        W 9001   1.341   3.821   3.218
 5258W        W 9002   8.707   0.869   9.558
 5259W        W 9003   4.627   5.955   2.268
 5260W        W 9004   2.690   5.345   9.452
 5261W        W 9005   6.469   1.788  10.977
 5262W        W 9006   5.696   9.988  10.606
 5263W        W 9007   1.701   9.903   2.131
 5264W        W 9008   4.244   5.268   2.077
 5265W        W 9009   5.519   8.840  10.090
 5266W        W 9010   5.407   7.134   8.257
 5267W        W 9011   5.541   8.901  11.918
 5268W        W 9012   3.087   4.248   1.839
 5269W        W 9013   1.695   6.024   3.039
 5270W        W 9014   3.034   7.442   9.368
 5271W        W 9015   3.575   6.119   3.590
 5272W        W 9016   9.411   8.900   1.412
 5273W        W 9017   0.380  10.252   9.542
 5274W        W 9018   1.507   7.368   2.644
 5275W        W 9019   8.823   2.202   2.656
 5276W        W 9020   6.590   1.081   2.519
 5277W        W 9021   6.192  10.180   9.479
 5278W        W 9022   8.351   9.043  10.760
 5279W        W 9023   0.588   8.209   0.149
 5280W        W 9024   2.302   1.679   1.385
 5281W        W 9025  10.489   6.740   0.083
 5282W        W 9026   4.341   6.076   0.237
 5283W        W 9027   2.909   9.901   9.545
 5284W        W 9028   7.028   5.812   2.144
 5285W        W 9029   9.081   5.071  10.045
 5286W        W 9030  10.282   4.860   0.855
 5287W        W 9031   2.512   9.927   0.967
 5288W        W 9032   4.287   2.097   0.936
 5289W        W 9033   0.807   1.862   8.888
 5290W        W 9034   6.489   3.233   1.509
 5291W        W 9035   5.300   3.320   8.552
 5292W        W 9036   5.417   9.893   3.809
 5293W        W 9037   5.105   9.006   1.445
 5294W        W 9038   5.234   2.923   3.913
 5295W        W 9039   7.913   1.808   0.267
 5296W        W 9040   7.867   6.383   2.009
 5297W        W 9041   1.656   6.040  10.864
 5298W        W 9042   0.303   0.888   8.896
 5299W        W 9043   5.768   2.869   1.090
 5300W        W 9044   8.666   5.839   8.391
 5301W        W 9045   0.553   5.501   0.456
 5302W        W 9046   7.508   4.684   3.620
 5303W        W 9047   7.969   5.714   0.868
 5304W        W 9048   7.900   2.314   0.971
 5305W        W 9049   0.279  10.388  11.182
 5306W        W 9050   8.176   5.891   3.355
 5307W        W 9051   7.001   8.067  10.460
 5308W        W 9052   7.947  10.255   1.727
 5309W        W 9053   6.115  10.392   0.691
 5310W        W 9054   7.324   4.516   9.986
 5311W        W 9055   3.556   2.626   0.975
 5312W        W 9056   4.703   2.292   3.414
 5313W        W 9057   3.902   3.943   2.410
 5314W        W 9058   2.279   7.082  10.068
 5315W        W 9059   7.481   9.992   9.777
 5316W        W 9060   1.323   1.907   2.490
 5317W        W 9061   5.784   4.650   1.899
 5318W        W 9062   9.500   2.656  11.470
 5319W        W 9063   3.148   3.485   0.724
 5320W        W 9064   9.516   3.884   2.908
 5321W        W 9065   5.736   4.644   2.416
 5322W        W 9066   0.509   3.823   2.563
 5323W        W 9067   4.142   7.316  11.461
 5324W        W 9068   8.409   4.306   2.320
 5325W        W 9069   0.017   5.694   0.697
 5326W        W 9070   0.899   0.129   9.538
 5327W        W 9071   8.513   5.745  10.061
 5328W        W 9072  10.483   2.628  10.429
 5329W        W 9073   5.616   1.523   1.768
 5330W        W 9074   8.958   6.567   8.679
 5331W        W 9075   7.911   4.938   1.091
 5332W        W 9076   7.527   4.421   4.045
 5333W        W 9077   3.788   5.401   2.211
 5334W        W 9078  10.293   1.375  11.962
 5335W        W 9079   8.993   8.394   2.063
 5336W        W 9080   5.529   3.928   9.090
 5337W        W 9081   8.082   9.364   1.351
 5338W        W 9082   8.917   4.189   9.567
 5339W        W 9083   9.034   8.584   9.940
 5340W        W 9084   3.768   3.105   8.734
 5341W        W 9085   7.018   6.945   2.473
 5342W        W 9086   5.414  10.005   8.585
 5343W        W 9087   7.649   9.271  11.449
 5344W        W 9088   9.214   7.001   1.466
 5345W        W 9089   0.152   5.073   2.884
 5346W        W 9090   6.754   6.555   9.779
 5347W        W 9091   9.772   9.472   3.118
 5348W        W 9092   9.553   6.950   2.598
 5349W        W 9093   4.202   6.370  10.624
 5350W        W 9094   3.796   0.527   2.012
 5351W        W 9095   5.856   3.281   8.556
 5352W        W 9096   8.549   4.321   0.296
 5353W        W 9097   8.592   5.192  10.941
 5354W        W 9098   0.279   5.116   9.306
 5355W        W 9099   5.511   6.175   9.239
 5356W        W 9100   9.237   0.068   2.469
 5357W        W 9101   7.163   8.952   1.503
 5358W        W 9102   9.339   4.607   3.380
 5359W        W 9103   5.045   5.993  10.589
 5360W        W 9104   1.400   4.622   1.658
 5361W        W 9105   9.207  10.484   1.177
 5362W        W 9106   0.265   3.192   1.411
 5363W        W 9107   6.999   0.705  11.833
 5364W        W 9108   0.286   3.660   1.191
 5365W        W 9109   0.886   6.528  11.927
 5366W        W 9110   0.513   3.581   0.742
 5367W        W 9111   0.555   9.622  11.265
 5368W        W 9112   3.314   1.795   9.263
 5369W        W 9113   1.423  10.479  10.758
 5370W        W 9114   4.977   1.962   1.450
 5371W        W 9115   4.921   8.051   3.191
 5372W        W 9116   3.204   2.286   9.117
 5373W        W 9117   5.410   5.616  10.493
 5374W        W 9118  10.379   3.990   1.307
 5375W        W 9119   7.582   5.322   0.885
 5376W        W 9120   1.984   6.376  10.275
 5377W        W 9121   6.994   4.705  10.889
 5378W        W 9122   0.819   9.993   1.495
 5379W        W 9123   5.657   3.614   9.468
 5380W        W 9124  10.322   0.352  11.401
 5381W        W 9125   6.473   1.127   1.470
 5382W        W 9126   3.729   8.619   9.436
 5383W        W 9127   6.436   0.922  10.994
 5384W        W 9128   0.986   1.864   0.778
 5385W        W 9129   1.293   2.693   9.832
 5386W        W 9130   6.153   6.415   0.698
 5387W        W 9131   2.782   6.529   1.192
 5388W        W 9132   3.050   3.221   3.606
 5389W        W 9133  10.340   1.289  11.451
 5390W        W 9134   9.177   6.215   0.479
 5391W        W 9135  10.031   1.094   3.075
 5392W        W 9136   8.563   5.233  10.080
 5393W        W 9137   3.734   7.386  11.021
 5394W        W 9138   8.007   0.868  11.747
 5395W        W 9139   8.865   4.040   2.142
 5396W        W 9140   7.940  10.239   3.206
 5397W        W 9141   3.603  10.433   9.800
 5398W        W 9142   0.885   7.183   0.002
 5399W        W 9143   7.433   8.412   9.556
 5400W        W 9144   3.679   4.578   9.779
 5401W        W 9145   9.018   1.362  11.200
 5402W        W 9146   7.651   8.661   2.644
 5403W        W 9147   1.887   6.875   0.971
 5404W        W 9148   3.845   0.384  10.310
 5405W        W 9149   9.139   3.993  10.975
 5406W        W 9150   9.826   9.649  10.295
 5407W        W 9151   5.109   5.997   2.991
 5408W        W 9152   3.713   9.196   0.517
 5409W        W 9153   8.474   7.922   0.464
 5410W        W 9154   9.750   4.616   9.379
 5411W        W 9155   7.513   2.460   2.179
 5412W        W 9156   7.818   4.372  11.335
 5413W        W 9157   8.462   4.775   2.119
 5414W        W 9158   8.912   1.798   2.307
 5415W        W 9159   1.588   4.214   9.441
 5416W        W 9160   5.552   5.381   1.767
 5417W        W 9161   5.434   4.182   0.259
 5418W        W 9162   8.974   1.308  10.695
 5419W        W 9163   3.092   6.883  11.283
 5420W        W 9164   9.797   7.797   2.782
 5421W        W 9165   4.155   3.549   1.180
 5422W        W 9166   1.328   4.819  10.125
 5423W        W 9167   2.346   9.192   0.227
 5424W        W 9168   5.681   2.715   0.412
 5425W        W 9169   3.113   5.167   0.929
 5426W        W 9170   8.776   6.314   0.817
 5427W        W 9171   7.639  10.035   2.821
 5428W        W 9172   1.824   5.463   9.687
 5429W        W 9173   8.753   8.343   3.585
 5430W        W 9174   9.218   0.302  11.938
 5431W        W 9175   4.180   1.247   2.795
 5432W        W 9176   0.752   9.999   0.278
 5433W        W 9177   7.927   0.482   0.516
 5434W        W 9178   1.845  10.394  11.016
 5435W        W 9179   0.427   2.442   2.688
 5436W        W 9180   4.306   5.518   0.939
 5437W        W 9181   5.514   8.855   9.588
 5438W        W 9182   5.596   5.420   8.962
 5439W        W 9183   3.407   4.082   2.258
 5440W        W 9184   6.625   7.866  11.260
 5441W        W 9185   7.787   5.209  10.496
 5442W        W 9186   3.252   9.507   1.154
 5443W        W 9187   1.655   0.230   9.995
 5444W        W 9188   4.936   5.774  11.399
 5445W        W 9189   6.458   8.099   3.283
 5446W        W 9190   2.335   4.636   1.656
 5447W        W 9191   9.984   0.964   0.000
 5448W        W 9192   4.970   7.587  11.583
 5449W        W 9193   5.384   1.668   1.322
 5450W        W 9194   2.841   3.410   1.573
 5451W        W 9195   1.390   0.375  10.415
 5452W        W 9196   4.670   8.084  10.527
 5453W        W 9197   1.617   3.022   0.236
 5454W        W 9198   5.545   8.289  10.881
 5455W        W 9199   7.624   7.409   1.700
 5456W        W 9200   2.723   8.439   2.384
 5457W        W 9201   1.809   2.192   0.999
 5458W        W 9202   3.399   3.823   0.386
 5459W        W 9203   8.476   2.292   9.264
 5460W        W 9204   1.628   1.342  11.327
 5461W        W 9205   3.564   1.897   3.008
 5462W        W 9206   1.147   9.545  10.440
 5463W        W 9207   1.787   0.086   8.576
 5464W        W 9208   0.186   9.204  10.461
 5465W        W 9209   3.901  10.434   2.667
 5466W        W 9210   4.430   7.581   2.732
 5467W        W 9211   0.710   3.317   1.154
 5468W        W 9212   3.635   5.685   1.748
 5469W        W 9213   4.092   9.385   9.350
 5470W        W 9214   4.070   7.506  10.626
 5471W        W 9215   2.086   1.410   3.214
 5472W        W 9216   5.025  10.039   3.434
 5473W        W 9217   0.224   7.395   2.328
 5474W        W 9218   1.802   5.470   2.193
 5475W        W 9219   4.675   0.659   9.062
 5476W        W 9220   0.476   3.831   3.069
 5477W        W 9221   4.319   5.137   9.564
 5478W        W 9222   1.875   2.890   8.359
 5479W        W 9223   8.178   5.040  11.801
 5480W        W 9224   8.076   8.641   0.766
 5481W        W 9225   3.229   7.357  10.369
 5482W        W 9226   6.992   0.752   3.154
 5483W        W 9227   0.710   3.085  10.922
 5484W        W 9228  10.465   9.430   1.983
 5485W        W 9229   6.140   9.129   3.429
 5486W        W 9230   1.112   0.448   9.155
 5487W        W 9231   6.187   6.196   2.051
 5488W        W 9232   4.071   9.652   3.329
 5489W        W 9233   7.024   4.585   3.754
 5490W        W 9234   9.264   3.391   9.808
 5491W        W 9235   4.575   4.147  10.897
 5492W        W 9236   5.046   2.392   9.491
 5493W        W 9237   1.207   4.238  11.018
 5494W        W 9238   8.598   7.135   8.718
 5495W        W 9239   9.339   0.873   8.942
 5496W        W 9240   8.915   1.714   8.836
 5497W        W 9241   5.070   6.107   9.558
 5498W        W 9242   6.124   1.960   0.231
 5499W        W 9243   0.756   6.332   2.938
 5500W        W 9244   4.224   3.609  11.734
 5501W        W 9245   3.289   6.161   8.568
 5502W        W 9246   0.674   8.868   9.090
 5503W        W 9247   6.293   1.401   8.406
 5504W        W 9248   4.575   9.261   0.461
 5505W        W 9249   0.964   1.761   0.110
 5506W        W 9250  10.412   4.491   2.578
 5507W        W 9251   8.630   7.563   0.826
 5508W        W 9252   9.390   1.526   9.518
 5509W        W 9253   9.882   1.351  11.184
 5510W        W 9254   4.288   3.119   2.735
 5511W        W 9255   2.883   2.158  10.330
 5512W        W 9256   4.272   5.231   1.401
 5513W        W 9257   7.619   8.804   0.581
 5514W        W 9258   4.744   1.700  10.362
 5515W        W 9259   6.170   7.548   8.091
 5516W        W 9260   9.281   6.232   0.965
 5517W        W 9261   8.474   6.058   2.650
 5518W        W 9262   3.207   7.130   1.191
 5519W        W 9263   2.783   9.752   2.261
 5520W        W 9264   9.460   3.564   2.492
 5521W        W 9265   6.439   2.299  10.973
 5522W        W 9266   6.170   9.665  11.837
 5523W        W 9267   6.465   2.168  11.458
 5524W        W 9268   5.962   4.654  11.743
 5525W        W 9269   7.196   6.664   8.358
 5526W        W 9270   7.129   1.970  11.496
 5527W        W 9271   1.471   7.903   1.936
 5528W        W 9272   9.077   6.990  11.723
 5529W        W 9273   9.178   2.252  10.950
 5530W        W 9274   0.438   6.934  11.885
 5531W        W 9275   7.427   7.999   2.259
 5532W        W 9276   1.222  10.011   0.479
 5533W        W 9277   0.426   7.649   1.886
 5534W        W 9278   3.387   3.651  10.879
 5535W        W 9279   5.745  10.348  10.980
 5536W        W 9280   2.638   8.819  11.957
 5537W        W 9281   1.310   0.928   2.600
 5538W        W 9282   4.612  10.364   3.333
 5539W        W 9283   9.110   8.894  11.056
 5540W        W 9284   2.213   2.522   9.231
 5541W        W 9285   9.406   8.188   3.075
 5542W        W 9286   6.399   5.340  10.435
 5543W        W 9287   6.552   1.740   0.387
 5544W        W 9288   3.273   2.357  10.644
 5545W        W 9289   5.664   8.360   9.950
 5546W        W 9290   7.459   1.464   2.675
 5547W        W 9291   7.913   7.998  10.238
 5548W        W 9292  10.275   2.759   9.359
 5549W        W 9293   1.672   5.032  10.953
 5550W        W 9294   7.223   9.722   3.739
 5551W        W 9295   1.261   4.196   0.936
 5552W        W 9296   9.798   2.788   9.544
 5553W        W 9297   0.856   0.441   1.424
 5554W        W 9298   6.476   0.755   8.837
 5555W        W 9299   4.767  10.094   1.705
 5556W        W 9300   7.534   9.066   3.508
 5557W        W 9301   9.199   1.277   3.383
 5558W        W 9302   8.039   8.023   2.263
 5559W        W 9303   5.737   2.767   2.500
 5560W        W 9304   1.973   9.090   3.365
 5561W        W 9305   7.160   9.736  11.969
 5562W        W 9306   0.687   0.053  11.430
 5563W        W 9307   8.529   3.208   1.382
 5564W        W 9308   9.023   6.047  11.472
 5565W        W 9309   8.320   2.455  10.769
 5566W        W 9310   3.261   7.302   0.225
 5567W        W 9311   8.311   7.146   0.729
 5568W        W 9312   4.208   0.333   1.752
 5569W        W 9313   0.806   4.772   1.503
 5570W        W 9314   0.965  10.149   8.517
 5571W        W 9315   3.414   9.991   0.975
 5572W        W 9316   5.652   4.121   1.210
 5573W        W 9317   7.369   3.155  10.667
 5574W        W 9318   3.634   3.517   2.448
 5575W        W 9319   8.138   9.837   3.515
 5576W        W 9320   9.846   4.723   2.386
 5577W        W 9321   6.535   6.077   0.652
 5578W        W 9322   9.990   4.483  10.994
 5579W        W 9323  10.325   6.125  11.211
 5580W        W 9324   4.193   0.879   8.963
 5581W        W 9325   1.829   7.370   0.912
 5582W        W 9326   4.270   9.492   1.069
 5583W        W 9327   0.871   2.262  11.979
 5584W        W 9328   5.621   7.249   2.820
 5585W        W 9329   4.719   6.462  10.816
 5586W        W 9330   5.550   2.697  11.399
 5587W        W 9331   7.480   8.949   1.053
 5588W        W 9332   2.828   9.059   0.377
 5589W        W 9333   8.110   4.194   3.140
 5590W        W 9334   8.081   5.102   2.608
 5591W        W 9335   6.569   2.662  11.352
 5592W        W 9336   8.097   4.977   1.580
 5593W        W 9337   1.317   1.693   1.180
 5594W        W 9338   9.750   2.229   2.242
 5595W        W 9339   8.380   2.417  10.274
 5596W        W 9340   3.717   0.438   9.815
 5597W        W 9341   8.846   3.169   2.462
 5598W        W 9342   4.038   9.456   8.444
 5599W        W 9343   7.507   1.944   2.142
 5600W        W 9344   8.937   2.646   0.238
 5601W        W 9345   7.063   6.940  11.716
 5602W        W 9346   5.059   2.361  10.492
 5603W        W 9347   5.986   7.917   2.418
 5604W        W 9348   0.031   2.412   0.979
 5605W        W 9349   6.246   4.649   1.603
 5606W        W 9350   2.453   3.373   2.939
 5607W        W 9351   1.983   4.567   3.295
 5608W        W 9352   7.682   6.453   3.407
 5609W        W 9353   7.076  10.183  10.928
 5610W        W 9354   2.210  10.252   9.271
 5611W        W 9355   7.921   0.253   9.551
 5612W        W 9356   2.933   8.565   3.338
 5613W        W 9357   3.119   0.682  10.929
 5614W        W 9358   2.409  10.239   1.679
 5615W        W 9359   8.589   9.348   9.089
 5616W        W 9360   0.728  10.075  11.332
 5617W        W 9361   7.598   2.822  10.354
 5618W        W 9362   8.527   6.426   9.553
 5619W        W 9363   6.952  10.423   1.216
 5620W        W 9364   4.543   0.321  11.034
 5621W        W 9365   0.373   4.511   1.429
 5622W        W 9366   0.717  10.244  11.827
 5623W        W 9367   2.749   8.558   9.180
 5624W        W 9368   2.996   4.149   0.334
 5625W        W 9369   4.593   0.111   1.523
 5626W        W 9370   0.432   9.386   1.770
 5627W        W 9371   0.996   4.655   9.183
 5628W        W 9372  10.191   2.243  10.650
 5629W        W 9373   7.028   9.893   9.996
 5630W        W 9374   4.622   7.210  11.589
 5631W        W 9375   5.550   3.077  10.641
 5632W        W 9376  10.299   1.551   1.317
 5633W        W 9377   4.091   2.605   0.956
 5634W        W 9378   0.923   2.140   3.271
 5635W        W 9379   1.750   0.739  11.408
 5636W        W 9380   3.182   8.698  11.938
 5637W        W 9381   5.801   8.086   4.071
 5638W        W 9382   8.440   8.500   1.244
 5639W        W 9383   8.630   5.289  11.805
 5640W        W 9384   2.297   4.560  11.693
 5641W        W 9385   9.373   4.217  10.477
 5642W        W 9386   2.404   2.900   8.470
 5643W        W 9387   5.601   7.556   9.376
 5644W        W 9388   6.516   3.416   1.032
 5645W        W 9389   8.069   1.645   9.803
 5646W        W 9390   3.276   3.255   1.777
 5647W        W 9391   4.845  10.338   0.721
 5648W        W 9392   1.776   4.706   0.937
 5649W        W 9393   2.618   4.249   2.841
 5650W        W 9394   1.319   1.968   8.873
 5651W        W 9395   4.728   0.446   2.452
 5652W        W 9396   5.659   5.975   3.197
 5653W        W 9397   1.752   4.341  11.765
 5654W        W 9398   4.709   8.024  11.079
 5655W        W 9399   0.855   5.715  10.229
 5656W        W 9400   0.437  10.221  10.403
 5657W        W 9401   2.364   6.960   1.727
 5658W        W 9402   9.774   8.598  10.443
 5659W        W 9403   3.852  10.039   1.669
 5660W        W 9404   5.061   2.539   2.703
 5661W        W 9405   5.199   1.636   8.718
 5662W        W 9406   8.303   0.731   3.136
 5663W        W 9407   6.982   1.180   1.908
 5664W        W 9408   9.112   2.206  11.990
 5665W        W 9409   2.290   9.444   2.228
 5666W        W 9410   3.394   0.947   8.733
 5667W        W 9411   5.306   8.486   1.497
 5668W        W 9412   2.482   6.150   0.460
 5669W        W 9413   3.098   0.798  11.911
 5670W        W 9414   7.450   0.646  11.373
 5671W        W 9415   0.526   6.040   2.210
 5672W        W 9416   7.340   6.121   3.213
 5673W        W 9417   5.631   4.084  10.971
 5674W        W 9418   4.364   8.578   1.316
 5675W        W 9419  10.370   7.030  11.235
 5676W        W 9420   5.889   7.088  10.455
 5677W        W 9421   4.998   8.003   0.825
 5678W        W 9422   6.447   3.662   9.914
 5679W        W 9423   1.704   3.525   9.334
 5680W        W 9424   2.779   1.918   0.420
 5681W        W 9425   2.881   6.945   9.402
 5682W        W 9426   0.894   6.617   8.952
 5683W        W 9427   7.953   2.677   2.366
 5684W        W 9428   4.016   2.656   2.723
 5685W        W 9429   0.928   6.172   2.468
 5686W        W 9430  10.290   7.913   0.412
 5687W        W 9431   8.529   0.263   3.242
 5688W        W 9432   0.157   0.819   3.231
 5689W        W 9433   3.474   0.530   3.496
 5690W        W 9434   4.534   4.114   7.858
 5691W        W 9435   7.362   6.543   0.322
 5692W        W 9436   3.199   9.945   2.940
 5693W        W 9437   6.932   9.839   2.627
 5694W        W 9438   7.670   1.872   2.911
 5695W        W 9439  10.395   8.894   9.681
 5696W        W 9440   3.828   2.761  10.551
 5697W        W 9441   9.374   9.093   0.029
 5698W        W 9442   0.026   2.629   8.640
 5699W        W 9443   8.860   5.827   0.330
 5700W        W 9444   5.006   0.867   2.606
 5701W        W 9445   6.616   6.456   1.803
 5702W        W 9446   8.958   7.437   1.573
 5703W        W 9447   5.335   2.736   3.441
 5704W        W 9448  10.020   0.840   9.572
 5705W        W 9449   2.413   5.683   3.181
 5706W        W 9450   6.481   1.085   2.007
 5707W        W 9451   2.699   8.375   2.915
 5708W        W 9452   7.874   7.438  11.520
 5709W        W 9453   6.231   1.990   2.877
 5710W        W 9454   4.164   7.123   1.446
 5711W        W 9455   8.888   8.914   3.339
 5712W        W 9456   3.384   2.684   2.546
 5713W        W 9457   3.013   0.785   8.452
 5714W        W 9458   9.346   3.051   9.409
 5715W        W 9459   8.817   7.550   3.072
 5716W        W 9460   5.106   5.252   9.050
 5717W        W 9461   9.733   5.602  11.674
 5718W        W 9462  10.147   2.088   3.173
 5719W        W 9463  10.481   2.709   2.627
 5720W        W 9464   6.424   6.055  10.858
 5721W        W 9465   7.257   9.768   8.538
 5722W        W 9466   8.609   4.506   0.793
 5723W        W 9467   4.218   3.123   0.893
 5724W        W 9468   4.373   9.469   2.855
 5725W        W 9469   6.163   8.581   3.405
 5726W        W 9470   7.412  10.226   8.775
 5727W        W 9471   9.389   7.950   0.977
 5728W        W 9472   4.746   4.561   9.079
 5729W        W 9473   2.870   6.696  10.301
 5730W        W 9474   3.539   2.396   0.489
 5731W        W 9475   1.399   8.642   0.138
 5732W        W 9476  10.044   6.482   0.130
 5733W        W 9477   6.212  10.030  10.874
 5734W        W 9478   1.734   8.379   3.606
 5735W        W 9479   4.581   9.070   1.337
 5736W        W 9480   9.035   9.091   0.442
 5737W        W 9481   7.397   3.232   1.376
 5738W        W 9482   5.904   2.610   9.416
 5739W        W 9483   3.664   6.242   8.929
 5740W        W 9484   8.083   2.818   9.719
 5741W        W 9485   0.233   3.036  11.418
 5742W        W 9486   2.113   3.436  10.169
 5743W        W 9487   0.883   2.371  11.440
 5744W        W 9488   1.812   3.387   1.027
 5745W        W 9489   1.731   4.147   1.127
 5746W        W 9490   9.744   4.285   2.120
 5747W        W 9491   1.031   0.433   3.261
 5748W        W 9492   2.682   5.876   8.563
 5749W        W 9493   6.137   1.714   8.803
 5750W        W 9494   9.413   5.524   8.848
 5751W        W 9495   4.062   0.935   2.363
 5752W        W 9496   2.381   4.225   2.388
 5753W        W 9497   8.906   9.951   9.531
 5754W        W 9498   8.709   2.379  11.074
 5755W        W 9499   6.006   3.867   9.214
 5756W        W 9500   1.621   0.754   3.298
 5757W        W 9501   1.457   4.609   2.181
 5758W        W 9502   2.256   2.331  10.639
 5759W        W 9503   6.162   9.386  10.021
 5760W        W 9504   8.979   8.876   2.284
 5761W        W 9505   9.402   7.292  11.491
 5762W        W 9506   1.144   7.924   9.989
 5763W        W 9507   9.281   5.055   0.749
 5764W        W 9508   3.711   3.652   0.907
 5765W        W 9509   9.933   9.544   2.134
 5766W        W 9510   9.567   4.833   3.805
 5767W        W 9511   6.916   6.570   3.766
 5768W        W 9512   9.507   4.808   2.792
 5769W        W 9513   3.345   3.217   9.593
 5770W        W 9514   7.443   2.333   3.071
 5771W        W 9515   4.082   8.242  11.773
 5772W        W 9516   9.020   7.467   8.814
 5773W        W 9517   2.522   0.719  10.084
 5774W        W 9518   9.451   9.124   2.863
 5775W        W 9519   0.232   9.527   2.791
 5776W        W 9520   8.291   6.218   9.980
 5777W        W 9521  10.028   4.554   8.962
 5778W        W 9522   8.406   6.999   1.884
 5779W        W 9523  10.280   4.063   1.868
 5780W        W 9524   1.784   0.767   2.719
 5781W        W 9525   1.035  10.005   0.984
 5782W        W 9526   5.821   0.317   9.715
 5783W        W 9527   3.682   2.257   2.659
 5784W        W 9528   2.360   6.227   1.287
 5785W        W 9529   2.317   2.995   9.371
 5786W        W 9530   9.730   7.652  10.665
 5787W        W 9531   4.618   1.352   1.579
 5788W        W 9532   2.409   9.377  10.745
 5789W        W 9533   9.351   5.862   2.738
 5790W        W 9534   9.463   0.288   1.520
 5791W        W 9535   5.925   6.878   0.748
 5792W        W 9536   7.578   4.611   8.639
 5793W        W 9537   3.124   7.038   9.989
 5794W        W 9538   1.831   9.421   1.957
 5795W        W 9539   5.578   9.949   2.217
 5796W        W 9540   9.114   7.208   0.186
 5797W        W 9541   5.103   5.573   2.670
 5798W        W 9542   6.522   0.273  10.466
 5799W        W 9543   2.275   4.962  10.311
 5800W        W 9544   8.535   8.386   0.694
 5801W        W 9545   9.854   2.655   0.405
 5802W        W 9546   9.597   0.776   1.395
 5803W        W 9547   8.333   0.487  11.784
 5804W        W 9548   7.531   0.568  10.447
 5805W        W 9549   8.176   7.964   9.258
 5806W        W 9550   2.246   0.197  10.908
 5807W        W 9551   2.286   1.584   2.189
 5808W        W 9552   1.838   9.593   3.451
 5809W        W 9553   1.161   9.079  10.683
 5810W        W 9554   6.476   7.803  10.312
 5811W        W 9555   3.623   5.121   0.217
 5812W        W 9556   8.040   6.927  10.849
 5813W        W 9557   6.566   3.227   9.134
 5814W        W 9558   9.050   4.172   8.653
 5815W        W 9559   4.177   5.723   2.322
 5816W        W 9560   0.768   7.467   3.156
 5817W        W 9561   0.689   2.139   0.453
 5818W        W 9562   7.590   1.828   1.146
 5819W        W 9563   3.264   4.211   3.562
 5820W        W 9564   5.933   8.045   8.372
 5821W        W 9565   9.607   5.060  10.050
 5822W        W 9566   8.669   5.820   3.538
 5823W        W 9567   4.898   9.513   9.956
 5824W        W 9568   9.752   3.339  10.180
 5825W        W 9569   4.477   1.839   1.381
 5826W        W 9570   4.279   0.675  11.321
 5827W        W 9571   4.140   7.742  11.802
 5828W        W 9572   2.538   1.706   9.453
 5829W        W 9573   8.114   4.612   9.454
 5830W        W 9574   0.475   5.554   2.415
 5831W        W 9575   6.425   7.440  11.710
 5832W        W 9576   3.267   9.454   3.168
 5833W        W 9577   0.857   8.314   9.063
 5834W        W 9578   8.503   9.898   1.011
 5835W        W 9579   9.068   5.019  11.839
 5836W        W 9580   8.115   4.187   9.118
 5837W        W 9581   3.487   8.438  10.023
 5838W        W 9582   9.437   5.837   9.550
 5839W        W 9583   9.609   9.380   1.438
 5840W        W 9584   6.050   2.978   2.855
 5841W        W 9585   5.754   7.825  11.758
 5842W        W 9586   1.460   3.242  11.338
 5843W        W 9587   9.142   6.634   2.144
 5844W        W 9588   5.229   1.905   0.259
 5845W        W 9589   0.740   4.260   2.748
 5846W        W 9590  10.152   9.077  10.922
 5847W        W 9591   0.387   0.311   9.542
 5848W        W 9592   3.217   7.165   2.643
 5849W        W 9593   7.845   6.935   1.905
 5850W        W 9594   9.098   0.276   3.194
 5851W        W 9595   8.953   3.666   2.476
 5852W        W 9596   4.101   0.935   9.486
 5853W        W 9597   4.480   7.186  10.513
 5854W        W 9598   3.353   3.609  11.893
 5855W        W 9599   2.727   9.966   2.735
 5856W        W 9600   3.614   9.830   3.234
 5857W        W 9601   6.405   9.608   8.825
 5858W        W 9602   3.151   9.771   0.281
 5859W        W 9603   0.216   8.053   1.660
 5860W        W 9604   4.380   5.710   2.787
 5861W        W 9605   6.250   1.174   3.513
 5862W        W 9606   1.843   7.773  10.427
 5863W        W 9607   9.379   2.517   9.455
 5864W        W 9608   8.007   7.741   8.558
 5865W        W 9609   2.628   6.373   4.143
 5866W        W 9610   5.478   5.519   2.260
 5867W        W 9611   5.962  10.172   3.607
 5868W        W 9612   3.175   9.390   2.160
 5869W        W 9613   0.246   5.440  11.809
 5870W        W 9614  10.387   2.616   3.602
 5871W        W 9615   5.416  10.396   2.462
 5872W        W 9616   1.042   0.862   2.173
 5873W        W 9617   0.829   3.582   9.863
 5874W        W 9618   8.279   1.409   2.186
 5875W        W 9619   3.790   4.136   3.244
 5876W        W 9620   8.788  10.343   1.424
 5877W        W 9621   4.077   6.218   2.395
 5878W        W 9622   7.527   3.139   8.639
 5879W        W 9623   4.129   4.126   8.683
 5880W        W 9624   6.932   8.949  10.971
 5881W        W 9625   5.446   2.690   9.659
 5882W        W 9626   3.202   9.335   9.537
 5883W        W 9627   8.916   7.917  11.133
 5884W        W 9628   6.465   5.149   9.850
 5885W        W 9629   1.201  10.026   2.343
 5886W        W 9630   1.179   6.674   9.369
 5887W        W 9631   6.504   7.540   9.549
 5888W        W 9632   8.553   3.049   0.886
 5889W        W 9633   7.391   4.996  10.731
 5890W        W 9634  10.124   2.188   3.693
 5891W        W 9635   3.108   7.135   3.219
 5892W        W 9636   7.112   4.707   2.896
 5893W        W 9637  10.300   6.567   0.560
 5894W        W 9638   0.381   8.456   0.835
 5895W        W 9639   2.077   8.714   3.697
 5896W        W 9640   7.009   7.507   2.869
 5897W        W 9641   6.070  10.087   2.053
 5898W        W 9642   1.648   8.989  11.843
 5899W        W 9643   4.829   6.969  10.836
 5900W        W 9644   0.576   3.134   9.994
 5901W        W 9645   0.258   8.531   1.831
 5902W        W 9646   5.142   3.668  11.656
 5903W        W 9647   5.661   2.822  11.876
 5904W        W 9648   2.281   6.015  11.266
 5905W        W 9649   4.709   5.555  10.708
 5906W        W 9650   4.278   3.355   0.198
 5907W        W 9651   5.456   9.612   9.323
 5908W        W 9652   3.881   5.257   1.724
 5909W        W 9653   4.165   7.446   3.573
 5910W        W 9654   4.111   7.909   9.235
 5911W        W 9655   0.833   1.885  11.624
 5912W        W 9656   5.539   2.920  10.133
 5913W        W 9657   3.479   2.187  11.851
 5914W        W 9658   9.098   7.163   9.858
 5915W        W 9659   3.852   7.111   9.382
 5916W        W 9660   6.731   8.010   1.537
 5917W        W 9661   6.181   9.349   0.829
 5918W        W 9662   0.983   7.450   0.415
 5919W        W 9663   8.608   8.687   0.288
 5920W        W 9664   2.676  10.419   0.102
 5921W        W 9665   8.806   3.280  10.558
 5922W        W 9666   1.272   7.746  11.792
 5923W        W 9667   7.378   5.611   2.628
 5924W        W 9668   8.362  10.218   9.791
 5925W        W 9669   6.730  10.434   3.018
 5926W        W 9670   5.576   9.146   9.189
 5927W        W 9671   3.951   0.651   3.386
 5928W        W 9672   2.081   1.120  11.306
 5929W        W 9673   3.934  10.240   0.818
 5930W        W 9674   6.827   7.920   9.401
 5931W        W 9675   8.826   5.039  11.392
 5932W        W 9676   6.112   0.865   2.320
 5933W        W 9677  10.490   3.726   2.667
 5934W        W 9678  10.033   0.884   2.257
 5935W        W 9679   9.369   1.637   8.596
 5936W        W 9680   2.759   4.074   8.971
 5937W        W 9681   2.808   5.082   0.469
 5938W        W 9682   0.846   3.152  10.433
 5939W        W 9683   8.928   6.423  10.733
 5940W        W 9684   4.754   8.972   3.367
 5941W        W 9685   0.844   2.304  10.521
 5942W        W 9686   0.917   9.750   2.947
 5943W        W 9687   7.510  10.480  10.824
 5944W        W 9688   2.573   0.801   1.014
 5945W        W 9689   0.926   8.869   2.929
 5946W        W 9690   1.864   7.409   3.014
 5947W        W 9691  10.367   0.452   9.512
 5948W        W 9692   2.837   0.340  10.302
 5949W        W 9693   8.883   9.762   2.625
 5950W        W 9694   6.114   8.468   9.047
 5951W        W 9695   5.573   5.376  11.377
 5952W        W 9696   2.269   2.381   8.713
 5953W        W 9697   0.431  10.492   9.971
 5954W        W 9698   2.824   3.156   9.439
 5955W        W 9699   5.054   1.812  11.262
 5956W        W 9700   5.760   5.538  11.825
 5957W        W 9701   2.266   0.216   2.312
 5958W        W 9702   7.501   6.568   2.958
 5959W        W 9703   5.210   9.218  10.226
 5960W        W 9704   5.578   5.593   9.451
 5961W        W 9705   6.979   8.411  11.469
 5962W        W 9706   7.021   1.742   9.049
 5963W        W 9707   5.610   1.239   9.765
 5964W        W 9708   2.345   6.912  11.987
 5965W        W 9709   7.527   9.407  11.926
 5966W        W 9710   0.871   3.634   3.278
 5967W        W 9711   4.027   3.576  10.024
 5968W        W 9712   3.665   5.156  10.246
 5969W        W 9713   8.864   9.457   0.821
 5970W        W 9714   4.959   8.180   9.265
 5971W        W 9715   0.899   5.564  10.721
 5972W        W 9716   1.874   6.529  10.753
 5973W        W 9717   9.789   7.658   1.323
 5974W        W 9718   6.626   7.253   9.143
 5975W        W 9719   2.650   5.154  11.981
 5976W        W 9720   7.559   7.496   8.441
 5977W        W 9721   3.560   0.004   0.236
 5978W        W 9722  10.270   8.666  11.844
 5979W        W 9723   4.269   7.250   0.977
 5980W        W 9724   0.971   3.327  11.278
 5981W        W 9725   2.143   4.947   1.305
 5982W        W 9726   4.308   8.822   8.887
 5983W        W 9727   9.545   2.198  11.283
 5984W        W 9728   1.845   6.003   2.048
 5985W        W 9729   5.602  10.041   9.078
 5986W        W 9730   0.215   8.279  10.408
 5987W        W 9731   0.778   7.385  11.537
 5988W        W 9732   9.232   2.243   2.257
 5989W        W 9733   8.570   1.943  10.147
 5990W        W 9734   7.890   1.434   1.473
 5991W        W 9735   3.373   4.742   2.713
 5992W        W 9736   7.875   7.090  11.894
 5993W        W 9737   8.621   3.885   0.567
 5994W        W 9738   5.558   5.881   1.558
 5995W        W 9739   0.460   6.656   0.848
 5996W        W 9740   6.078   4.785   9.831
 5997W        W 9741   6.413   7.013   9.587
 5998W        W 9742   8.807   3.685   9.571
 5999W        W 9743   7.134   3.632   1.582
 6000W        W 9744   2.471   0.678   2.409
 6001W        W 9745   9.885   8.730   2.509
 6002W        W 9746   8.740   8.389  10.350
 6003W        W 9747   4.091   5.578   0.056
 6004W        W 9748   1.401   0.873   9.000
 6005W        W 9749   8.343   3.291   2.399
 6006W        W 9750   2.864   2.610   2.711
 6007W        W 9751   4.704   8.477   3.543
 6008W        W 9752   4.780   2.116  10.049
 6009W        W 9753   9.977   7.468   0.407
 6010W        W 9754   7.519  10.030   3.371
 6011W        W 9755   0.661  10.402   1.246
 6012W        W 9756   3.962   4.761   9.378
 6013W        W 9757   0.726   5.426   1.307
 6014W        W 9758   0.353   3.865   0.347
 6015W        W 9759   6.613   1.009   0.831
 6016W        W 9760   9.522   9.401  11.549
 6017W        W 9761   7.443   9.079  10.875
 6018W        W 9762   3.337   6.068   0.244
 6019W        W 9763   8.974   1.281   9.737
 6020W        W 9764   3.239   0.183  10.893
 6021W        W 9765   4.694   4.990   1.614
 6022W        W 9766   0.431   5.739   0.992
 6023W        W 9767   4.935   8.897  11.045
 6024W        W 9768   9.970   6.910   9.889
 6025W        W 9769   8.597   7.786  11.972
 6026W        W 9770   5.811   4.334   9.999
 6027W        W 9771   8.114   4.294  10.918
 6028W        W 9772   0.393   9.012   3.496
 6029W        W 9773  10.243   2.261  10.121
 6030W        W 9774   0.947   9.040   0.443
 6031W        W 9775   8.398   8.973   1.494
 6032W        W 9776   3.944   4.520   1.033
 6033W        W 9777   1.173   1.781   3.546
 6034W        W 9778  10.236   3.671   0.497
 6035W        W 9779   6.812   0.800   1.243
 6036W        W 9780   3.013   1.704   0.823
 6037W        W 9781   4.319   8.678   3.272
 6038W        W 9782   3.069   9.213  10.038
 6039W        W 9783   0.049   5.480   8.522
 6040W        W 9784   1.576   3.371  11.843
 6041W        W 9785   7.614   1.269   9.017
 6042W        W 9786   5.233   3.592  10.714
 6043W        W 9787   4.827   3.699  11.010
 6044W        W 9788   1.039   5.866   1.240
 6045W        W 9789   2.055   1.733   3.653
 6046W        W 9790   7.880   5.615   2.654
 6047W        W 9791   1.355   6.015  11.354
 6048W        W 9792   0.587   3.869   3.610
 6049W        W 9793   0.969   3.334   0.707
 6050W        W 9794   5.258   8.425   0.977
 6051W        W 9795   4.407   1.147  11.474
 6052W        W 9796   3.109   3.971   0.795
 6053W        W 9797   2.798   8.951   1.646
 6054W        W 9798   0.303   1.095   0.977
 6055W        W 9799   7.654   6.821  10.000
 6056W        W 9800   6.917   3.776   8.536
 6057W        W 9801   8.324   7.565   3.219
 6058W        W 9802   5.695   9.212   2.628
 6059W        W 9803   1.100   0.031   0.980
 6060W        W 9804   0.056   1.136   1.435
 6061W        W 9805   0.670   5.240  10.372
 6062W        W 9806   6.205   5.602  10.848
 6063W        W 9807   3.174   9.181  10.899
 6064W        W 9808   9.150   6.930  11.215
 6065W        W 9809   9.802  10.434   2.264
 6066W        W 9810   3.167   7.066   8.556
 6067W        W 9811   4.979   6.608   9.440
 6068W        W 9812  10.145   4.088   2.377
 6069W        W 9813   0.086   3.669   1.667
 6070W        W 9814   7.877   7.324   3.222
 6071W        W 9815   1.235   6.390   3.161
 6072W        W 9816   0.879   4.465   0.711
 6073W        W 9817   7.967   2.116   3.285
 6074W        W 9818   7.769   8.018   8.908
 6075W        W 9819   3.597   8.075   1.194
 6076W        W 9820   7.651   5.245   2.357
 6077W        W 9821   6.111   2.234   3.321
 6078W        W 9822   2.446   2.438  10.171
 6079W        W 9823   8.583   7.333   9.933
 6080W        W 9824   4.535   8.054   9.501
 6081W        W 9825   3.629   4.075  11.972
 6082W        W 9826   2.614   2.768  11.111
 6083W        W 9827   3.377   4.143   9.841
 6084W        W 9828   0.402   8.124  11.266
 6085W        W 9829   6.622   4.343   1.426
 6086W        W 9830   3.035   6.780   1.621
 6087W        W 9831   1.209   9.897  10.060
 6088W        W 9832   0.705   1.447   8.580
 6089W        W 9833   1.495  10.237   0.852
 6090W        W 9834   8.926   4.843   1.055
 6091W        W 9835   5.300   4.285   9.869
 6092W        W 9836   4.600   2.272   0.578
 6093W        W 9837   3.138   6.596   3.328
 6094W        W 9838   8.914   2.253   9.572
 6095W        W 9839  10.176   1.732  10.953
 6096W        W 9840   1.273   7.395   3.585
 6097W        W 9841   8.376   4.201  10.483
 6098W        W 9842   0.388   9.970   9.117
 6099W        W 9843   6.206   7.653  10.816
 6100W        W 9844   0.280   7.546   9.084
 6101W        W 9845   6.259   7.816   2.856
 6102W        W 9846   8.847   1.792   0.163
 6103W        W 9847   2.592   5.081   1.008
 6104W        W 9848   8.844   6.252   2.330
 6105W        W 9849   2.722   7.211  11.127
 6106W        W 9850   4.506   0.658   1.439
 6107W        W 9851   1.929   4.648  10.697
 6108W        W 9852   0.762   5.067   3.293
 6109W        W 9853   9.338   4.076   3.365
 6110W        W 9854   0.906   5.653   0.791
 6111W        W 9855   8.592   2.781   2.702
 6112W        W 9856   1.658   6.469   1.946
 6113W        W 9857   3.756   6.600   0.376
 6114W        W 9858   8.861   4.304   3.203
 6115W        W 9859   2.410   3.408   1.311
 6116W        W 9860   7.624   9.595   3.093
 6117W        W 9861   9.717   9.571   3.631
 6118W        W 9862   6.590  10.019   9.758
 6119W        W 9863   3.112   4.079  11.828
 6120W        W 9864   8.862   1.003   1.668
 6121W        W 9865   7.844  10.323   2.265
 6122W        W 9866   6.168   0.256   2.963
 6123W        W 9867   5.967   3.089   3.680
 6124W        W 9868   9.921   0.813   0.488
 6125W        W 9869   3.299   8.845   9.766
 6126W        W 9870   7.601   9.955   2.015
 6127W        W 9871   8.781   2.212   0.990
 6128W        W 9872   0.476   8.508   9.979
 6129W        W 9873   3.268   3.593  11.388
 6130W        W 9874   1.418   4.657  10.637
 6131W        W 9875   3.836   1.837   1.248
 6132W        W 9876   5.873   3.603   3.778
 6133W        W 9877   1.323   5.063   0.220
 6134W        W 9878   1.306   3.281   9.097
 6135W        W 9879   7.639   7.518   0.764
 6136W        W 9880   3.812   4.433   2.258
 6137W        W 9881   6.195   7.688   3.467
 6138W        W 9882   6.578   9.459   0.160
 6139W        W 9883   8.132   0.668  10.212
 6140W        W 9884   4.164   7.656  11.093
 6141W        W 9885   6.686   0.697   1.740
 6142W        W 9886   7.709   8.660   0.096
 6143W        W 9887   7.438   8.410   9.041
 6144W        W 9888   8.443   2.830   3.235
 6145W        W 9889   9.305   5.713  11.157
 6146W        W 9890   3.743   4.360   9.076
 6147W        W 9891   3.305   8.505   2.278
 6148W        W 9892   1.789   8.960   1.728
 6149W        W 9893   9.810   8.986   8.933
 6150W        W 9894   5.614   0.611   0.828
 6151W        W 9895   3.713   8.363   0.770
 6152W        W 9896   8.457   2.378   9.769
 6153W        W 9897   2.339   9.805  11.027
 6154W        W 9898   8.604   1.187  11.410
 6155W        W 9899   3.995   0.775   2.873
 6156W        W 9900   6.945   7.463   0.222
 6157W        W 9901   6.516   8.311  11.872
 6158W        W 9902   4.103   4.170   2.833
 6159W        W 9903   3.310   4.578   2.159
 6160W        W 9904   7.353  10.298   2.388
 6161W        W 9905   6.038   6.683   0.277
 6162W        W 9906   3.373   4.475   9.401
 6163W        W 9907   6.524   1.655   9.160
 6164W        W 9908   5.792   5.968   0.734
 6165W        W 9909   0.259   3.365   2.998
 6166W        W 9910  10.000   1.742   0.942
 6167W        W 9911   8.393   1.324   3.147
 6168W        W 9912   6.692   0.746  10.300
 6169W        W 9913   8.853   9.407   3.508
 6170W        W 9914   4.901   2.695   3.150
 6171W        W 9915   0.539   9.563   0.191
 6172W        W 9916   4.823   2.803   1.438
 6173W        W 9917   7.477   3.733   3.337
 6174W        W 9918   6.086   0.706  11.783
 6175W        W 9919   5.962   9.379   2.221
 6176W        W 9920   8.769   2.263  10.580
 6177W        W 9921   7.630   4.097  10.897
 6178W        W 9922   9.059   8.452  11.337
 6179W        W 9923   7.434   6.157   2.244
 6180W        W 9924   2.573   7.475   1.473
 6181W        W 9925   5.263   6.454   0.673
 6182W        W 9926   1.608   9.869  11.530
 6183W        W 9927   0.869   7.539   9.789
 6184W        W 9928  10.013   5.354   0.031
 6185W        W 9929  10.326   2.309   0.045
 6186W        W 9930   6.849   6.138  10.100
 6187W        W 9931   2.464  10.366   0.730
 6188W        W 9932   3.355   2.813  10.419
 6189W        W 9933   0.354   0.292   1.419
 6190W        W 9934   5.249   6.256  11.535
 6191W        W 9935   1.727   1.660   2.823
 6192W        W 9936   3.295   7.872   9.541
 6193W        W 9937   5.327   6.049   0.337
 6194W        W 9938   1.097   3.159   9.968
 6195W        W 9939   7.350  10.174   0.182
 6196W        W 9940   7.429   0.733   2.496
 6197W        W 9941   3.664  10.434  11.734
 6198W        W 9942   0.435   6.136  10.293
 6199W        W 9943   2.749   0.787  10.545
 6200W        W 9944   4.051   5.070  11.953
 6201W        W 9945   1.116   9.719   3.767
 6202W        W 9946  10.039   8.993   1.393
 6203W        W 9947   5.790   1.582   1.016
 6204W        W 9948   1.500   5.990   0.296
 6205W        W 9949   9.560   8.133  10.267
 6206W        W 9950   4.703   4.119   3.647
 6207W        W 9951   7.298   2.805   9.947
 6208W        W 9952   5.738   7.329  10.871
 6209W        W 9953   1.168   6.128   0.716
 6210W        W 9954   2.725   5.515   3.542
 6211W        W 9955  10.214   4.259   3.394
 6212W        W 9956   2.342   5.231   9.862
 6213W        W 9957   6.763   0.356   9.981
 6214W        W 9958   5.144   3.868  10.265
 6215W        W 9959   3.777   3.749   2.890
 6216W        W 9960   0.315   6.486   2.362
 6217W        W 9961   8.774   1.375   2.018
 6218W        W 9962  10.083   1.607   3.021
 6219W        W 9963   7.007   6.532   2.786
 6220W        W 9964   9.521   1.349   9.018
 6221W        W 9965   3.792   2.670   3.511
 6222W        W 9966   6.485   8.813  11.935
 6223W        W 9967   2.046   1.720   9.594
 6224W        W 9968   3.278   8.576   0.945
 6225W        W 9969  10.392   7.717   1.887
 6226W        W 9970   1.202   2.133   0.358
 6227W        W 9971   6.224   4.167   2.618
 6228W        W 9972   9.601   8.490  11.382
 6229W        W 9973   8.448   2.632  11.439
 6230W        W 9974   9.322   7.340  10.592
 6231W        W 9975   3.712   9.256   3.373
 6232W        W 9976   5.942   8.059   3.201
 6233W        W 9977   3.507   4.818   0.981
 6234W        W 9978   4.328   9.860   9.377
 6235W        W 9979   2.241   3.498   9.331
 6236W        W 9980   7.517   1.923   3.420
 6237W        W 9981   2.365   8.827   8.969
 6238W        W 9982   9.455   1.736   9.999
 6239W        W 9983   5.923   7.355  11.771
 6240W        W 9984   7.889  10.363  11.445
 6241W        W 9985   0.588   8.172   2.004
 6242W        W 9986  10.324   7.783   2.395
 6243W        W 9987   9.017   4.530   0.096
 6244W        W 9988   3.865   6.137   1.803
 6245W        W 9989   0.861   2.606   2.510
 6246W        W 9990  10.338   9.554  10.973
 6247W        W 9991   2.843   1.110   1.793
 6248W        W 9992   9.662   5.973   9.990
 6249W        W 9993   9.452   1.190  11.425
 6250W        W 9994   1.493   5.424   3.461
 6251W        W 9995   1.462   3.218   1.618
 6252W        W 9996   6.011   9.809   2.475
 6253W        W 9997   5.796   8.728   2.736
 6254W        W 9998   7.184   0.821   1.606
 6255W        W 9999   6.975   5.640   9.369
 6256W        W10000   7.617   1.551  10.541
 6257W        W10001   2.077   2.937   3.012
 6258W        W10002   8.873  10.212   2.309
 6259W        W10003   1.012   7.914  10.496
 6260W        W10004   0.409   6.653   9.850
 6261W        W10005   4.085   7.021  10.832
 6262W        W10006  10.004   0.887  11.452
 6263W        W10007   5.177   1.677   9.241
 6264W        W10008   5.065   6.075  10.074
 6265W        W10009   2.824   7.624  10.610
 6266W        W10010   3.467   7.657   8.506
 6267W        W10011   6.448   4.167   3.142
 6268W        W10012   5.915  10.347   2.458
 6269W        W10013  10.253   4.125   9.189
 6270W        W10014   9.787   5.194   2.979
 6271W        W10015   9.869   3.209   1.989
 6272W        W10016   1.809   9.426   9.469
 6273W        W10017   0.402   0.851  11.558
 6274W        W10018  10.276   3.268   2.484
 6275W        W10019   9.310   6.598   3.556
 6276W        W10020  10.492   4.741   9.076
 6277W        W10021   0.802   1.455   9.473
 6278W        W10022   8.081   7.895   1.308
 6279W        W10023   6.264   7.880   1.764
 6280W        W10024   9.247   0.733  10.968
 6281W        W10025   6.513   6.919  10.075
 6282W        W10026   7.105  10.308   3.335
 6283W        W10027   4.295   4.278   2.380
 6284W        W10028   0.909   0.809  10.755
 6285W        W10029   0.879   4.652   3.568
 6286W        W10030   8.473   7.714   2.315
 6287W        W10031   0.405   2.557   0.676
 6288W        W10032   8.578   7.476   1.874
 6289W        W10033   2.169   1.451   2.696
 6290W        W10034   9.564   1.942  10.478
 6291W        W10035   9.092   7.629  11.889
 6292W        W10036   9.380   8.410   1.263
 6293W        W10037   1.352   8.014   1.425
 6294W        W10038   4.418   8.944   2.859
 6295W        W10039   6.746   1.360  11.051
 6296W        W10040   0.412   3.760   2.043
 6297W        W10041   9.376   6.655   8.941
 6298W        W10042  10.444   2.265  11.560
 6299W        W10043   1.598   0.820  11.916
 6300W        W10044   5.209   3.329  10.300
 6301W        W10045   3.778   7.398  11.886
 6302W        W10046  10.480   3.586  10.427
 6303W        W10047   1.924   0.050   0.042
 6304W        W10048   7.429   1.666   0.259
 6305W        W10049   7.419   9.287   0.685
 6306W        W10050  10.496   9.589   9.079
 6307W        W10051   7.820   6.990   2.416
 6308W        W10052   2.615   1.666   3.226
 6309W        W10053   7.063   0.632   2.123
 6310W        W10054  10.225   4.673   9.519
 6311W        W10055   7.937   5.651  11.304
 6312W        W10056   5.743   0.768   1.983
 6313W        W10057  10.048   5.536   8.378
 6314W        W10058   1.731   1.196  10.354
 6315W        W10059   9.434   1.597  11.804
 6316W        W10060   8.161   4.545  11.682
 6317W        W10061   1.610   8.958  10.936
 6318W        W10062   7.377   4.319  10.484
 6319W        W10063  10.484   1.912   0.985
 6320W        W10064   2.353   9.193   9.456
 6321W        W10065   6.799   5.079  10.608
 6322W        W10066   7.420   3.619  10.943
 6323W        W10067   8.921   7.460  11.392
 6324W        W10068   7.900   5.066   9.560
 6325W        W10069   7.412   4.242   2.159
 6326W        W10070   1.924   8.426   0.832
 6327W        W10071   4.576   0.737   9.569
 6328W        W10072   9.962   1.779  11.953
 6329W        W10073   3.680   9.114   9.511
 6330W        W10074   2.207   9.940  10.120
 6331W        W10075   4.815   1.787   2.418
 6332W        W10076   9.061   3.713   0.762
 6333W        W10077   0.400   3.174   1.949
 6334W        W10078  10.461   5.072   0.074
 6335W        W10079   8.876   6.490  11.253
 6336W        W10080   8.850   8.479   8.895
 6337W        W10081   1.475   7.013   2.299
 6338W        W10082   2.645   7.332   8.175
 6339W        W10083   0.296   7.628  11.382
 6340W        W10084   2.225  10.215   0.283
 6341W        W10085   4.058   1.800   1.700
 6342W        W10086   5.608   2.256   2.476
 6343W        W10087   7.575   7.494   9.442
 6344W        W10088   5.088   2.121   9.029
 6345W        W10089   9.047   6.190  11.984
 6346W        W10090   5.313   6.768   3.585
 6347W        W10091   9.311   3.860   9.638
 6348W        W10092   5.361   4.764  10.623
 6349W        W10093   2.177   9.818   1.912
 6350W        W10094   3.462   6.639   1.838
 6351W        W10095   6.615   3.273   9.636
 6352W        W10096   6.016   0.728   9.087
 6353W        W10097   1.650   1.733   3.325
 6354W        W10098   4.336  10.447   8.638
 6355W        W10099   4.602   7.613  11.966
 6356W        W10100   2.259   6.485  11.100
 6357W        W10101   1.008  10.442  11.052
 6358W        W10102   2.193   2.040  11.630
 6359W        W10103   2.391   3.319   1.843
 6360W        W10104   6.556   2.002   3.518
 6361W        W10105   5.115   6.908   1.811
 6362W        W10106   5.438   2.551   0.830
 6363W        W10107   1.882   6.726   8.848
 6364W        W10108   5.586   9.761   0.456
 6365W        W10109   1.816   2.308   1.869
 6366W        W10110   6.491   4.038  11.371
 6367W        W10111   5.058  10.369  10.271
 6368W        W10112   7.987   4.560   3.449
 6369W        W10113   8.528   3.184   8.712
 6370W        W10114   1.329  10.426   8.744
 6371W        W10115  10.374  10.037   9.578
 6372W        W10116   0.808   0.773   2.672
 6373W        W10117   5.979   9.064   1.230
 6374W        W10118   4.315   0.441   0.207
 6375W        W10119   1.067   4.735  10.997
 6376W        W10120   7.562   6.386  10.887
 6377W        W10121   0.423   5.667  10.497
 6378W        W10122   7.702   5.773   3.120
 6379W        W10123   3.980   9.632   2.432
 6380W        W10124   1.786   5.072   0.428
 6381W        W10125   1.695   7.575   9.294
 6382W        W10126   6.183   2.801   1.647
 6383W        W10127   3.196  10.187  10.022
 6384W        W10128   6.615   8.883  10.557
 6385W        W10129   8.844  10.369   3.353
 6386W        W10130   6.275   7.064   2.317
 6387W        W10131   1.414   2.203   3.321
 6388W        W10132   8.785   9.996  10.017
 6389W        W10133   1.571   1.189   0.389
 6390W        W10134   3.640   8.964   0.066
 6391W        W10135   5.925   7.171   8.694
 6392W        W10136   8.317   4.173  11.366
 6393W        W10137   7.554   6.928  10.937
 6394W        W10138  10.496   8.423   9.570
 6395W        W10139   8.268   0.955   2.433
 6396W        W10140   9.768   7.603  11.359
 6397W        W10141  10.243   2.249   9.562
 6398W        W10142   4.060   0.960   8.449
 6399W        W10143   6.565   0.436  11.048
 6400W        W10144   7.561   1.785   8.992
 6401W        W10145   8.471   1.782   9.112
 6402W        W10146   2.690   6.115  11.546
 6403W        W10147   0.870   6.980   3.020
 6404W        W10148  10.222   5.382   2.792
 6405W        W10149   3.601   0.947   9.612
 6406W        W10150   9.904   4.945   1.684
 6407W        W10151   8.157   7.055  10.002
 6408W        W10152   7.314   8.756  11.270
 6409W        W10153   1.890  10.003  11.946
 6410W        W10154   8.035   7.419   8.158
 6411W        W10155   4.620   8.490  10.834
 6412W        W10156   3.042   8.524   1.836
 6413W        W10157   9.793   6.519   2.709
 6414W        W10158   0.822   3.758  10.354
 6415W        W10159   1.398   6.757   1.268
 6416W        W10160   5.225   1.380   0.508
 6417W        W10161  10.425   4.153   0.303
 6418W        W10162   0.702   1.682  11.167
 6419W        W10163   3.665   4.630  10.272
 6420W        W10164   4.398   2.358   9.834
 6421W        W10165   3.910   2.295   3.104
 6422W        W10166   1.156   6.682  10.285
 6423W        W10167   8.905   7.954   8.829
 6424W        W10168   0.668   8.032   9.937
 6425W        W10169   8.463  10.006   9.271
 6426W        W10170   1.321   8.717   0.620
 6427W        W10171   5.547   2.886   8.701
 6428W        W10172   4.380   8.079   1.454
 6429W        W10173   8.301   3.238   2.923
 6430W        W10174  10.354   5.167   1.510
 6431W        W10175   3.538   1.843   1.705
 6432W        W10176   0.981   6.899  11.589
 6433W        W10177   8.335   2.160   0.791
 6434W        W10178   4.614   5.983  10.955
 6435W        W10179   8.311   8.888  11.345
 6436W        W10180   1.825   9.910   2.644
 6437W        W10181   7.197   1.347  10.807
 6438W        W10182   4.628   9.626   1.861
 6439W        W10183   7.620   0.065   2.768
 6440W        W10184   6.952   6.308   0.500
 6441W        W10185   2.984   6.442   0.235
 6442W        W10186   5.128   7.159   3.311
 6443W        W10187   4.258  10.315  10.949
 6444W        W10188   0.745  10.455   2.382
 6445W        W10189   5.331   8.804   2.917
 6446W        W10190   5.951   4.195   8.385
 6447W        W10191   3.365   0.543   9.069
 6448W        W10192   0.839   4.353   1.214
 6449W        W10193   1.678   1.348  11.874
 6450W        W10194   0.560   6.640  11.477
 6451W        W10195   0.501   2.433   9.473
 6452W        W10196   8.143  10.033  11.740
 6453W        W10197   5.124   2.849  10.434
 6454W        W10198  10.475   3.783  10.944
 6455W        W10199   8.038   1.946   1.393
 6456W        W10200   6.729   2.709  10.848
 6457W        W10201   2.299   8.084   0.956
 6458W        W10202   3.187   6.624  10.832
 6459W        W10203   1.885   8.981  11.377
 6460W        W10204   6.693   9.839  10.925
 6461W        W10205   4.245   2.014  11.580
 6462W        W10206   1.645   7.021   0.516
 6463W        W10207   8.974   3.135  11.536
 6464W        W10208   1.325   0.230   1.403
 6465W        W10209   4.677   3.578   3.948
 6466W        W10210   2.345   8.739  11.340
 6467W        W10211   2.793   2.348   1.924
 6468W        W10212   1.401   5.706   0.934
 6469W        W10213   9.142   4.168  10.028
 6470W        W10214   9.843   2.345   9.252
 6471W        W10215   0.562   2.733  10.527
 6472W        W10216   0.868   2.152   2.763
 6473W        W10217   0.942   5.705   2.230
 6474W        W10218   4.867   8.649   1.199
 6475W        W10219   7.554   0.492   1.788
 6476W        W10220   2.155   6.016   0.860
 6477W        W10221   9.293   6.852   9.405
 6478W        W10222   7.055   9.751   9.486
 6479W        W10223   3.248   5.778   1.427
 6480W        W10224   8.439   4.118   1.845
 6481W        W10225   2.295   0.955   9.155
 6482W        W10226   2.418   4.527  10.799
 6483W        W10227   1.790   9.500  11.865
 6484W        W10228   4.344   8.438   8.511
 6485W        W10229   6.044   2.466   2.810
 6486W        W10230   7.253   0.411  10.927
 6487W        W10231   0.167  10.262   1.405
 6488W        W10232   0.326  10.202   2.222
 6489W        W10233   1.325   4.768   0.661
 6490W        W10234   8.080   9.777   1.887
 6491W        W10235   8.859   3.026   1.954
 6492W        W10236   7.422   9.477   1.176
 6493W        W10237   6.265   9.622   9.556
 6494W        W10238   3.599   9.356   9.950
 6495W        W10239   1.653   2.470   1.384
 6496W        W10240   7.391   7.058   9.637
 6497W        W10241   4.247   7.466   9.474
 6498W        W10242   1.926   7.284   2.388
 6499W        W10243   6.408   7.414   0.904
 6500W        W10244   1.382   9.303   8.746
 6501W        W10245   4.600   4.130   1.711
 6502W        W10246   6.661   9.520   9.873
 6503W        W10247   0.515   5.526   3.213
 6504W        W10248   2.272  10.305  11.761
 6505W        W10249   6.075   1.456   1.458
 6506W        W10250   6.204   5.197   0.513
 6507W        W10251   5.291   6.138   8.245
 6508W        W10252   0.911   3.875  11.262
 6509W        W10253   3.069   7.581   1.403
 6510W        W10254   7.510   5.271  11.926
 6511W        W10255   5.727   1.299  11.266
 6512W        W10256   7.817   2.253   1.831
 6513W        W10257   4.519   7.681   3.210
 6514W        W10258   3.810   4.524  10.773
 6515W        W10259   9.525   5.646  10.626
 6516W        W10260   5.981   2.324   1.736
 6517W        W10261   2.124   7.441   9.007
 6518W        W10262   0.200   7.330   1.535
 6519W        W10263   2.000   6.033   0.346
 6520W        W10264   5.668   4.362  10.522
 6521W        W10265   2.230   8.194   3.070
 6522W        W10266   7.454   1.444   2.173
 6523W        W10267   2.380   3.249   8.898
 6524W        W10268   6.441   5.697   1.399
 6525W        W10269   5.088   9.969   0.431
 6526W        W10270   4.629   2.343   2.366
 6527W        W10271  10.061   9.540   0.688
 6528W        W10272   4.167   7.682   2.335
 6529W        W10273   8.943   6.675   9.728
 6530W        W10274   7.877   8.452  10.400
 6531W        W10275   8.146   3.674   1.932
 6532W        W10276   8.348   5.245  11.373
 6533W        W10277   3.290   2.310   1.794
 6534W        W10278   0.348   9.469  11.729
 6535W        W10279   5.968   3.298   0.420
 6536W        W10280   3.821   6.534   1.450
 6537W        W10281   5.599   7.546   2.371
 6538W        W10282   7.460   6.051   0.333
 6539W        W10283   6.566   9.859  10.271
 6540W        W10284   7.386   0.660   0.313
 6541W        W10285   0.825   7.346   1.732
 6542W        W10286   5.079   3.759   3.676
 6543W        W10287   1.016   9.495   0.890
 6544W        W10288   5.048   5.136   2.412
 6545W        W10289   5.178   6.552   3.128
 6546W        W10290   4.749   6.256  11.387
 6547W        W10291   9.158   7.450   3.882
 6548W        W10292  10.315   4.118  11.722
 6549W        W10293   3.578   2.704   9.004
 6550W        W10294   2.096   5.124   0.838
 6551W        W10295   6.576   0.760   3.478
 6552W        W10296   1.764  10.006   3.155
 6553W        W10297   6.701   1.715  11.450
 6554W        W10298   1.211   5.159  10.772
 6555W        W10299   9.833   0.797   2.728
 6556W        W10300   0.679   9.377   3.242
 6557W        W10301   6.103   9.165  10.496
 6558W        W10302   7.412   1.172   0.343
 6559W        W10303   9.905   2.663   1.326
 6560W        W10304   9.740   4.282   2.640
 6561W        W10305   9.075   6.537   1.647
 6562W        W10306   8.844   3.112   2.994
 6563W        W10307   3.707   2.281   9.252
 6564W        W10308   1.311   6.281   9.975
 6565W        W10309   0.255  10.022   2.710
 6566W        W10310   8.959   0.729   8.509
 6567W        W10311   8.504   3.192  11.395
 6568W        W10312  10.362   0.401  10.484
 6569W        W10313   5.068   5.089   2.921
 6570W        W10314   6.516   0.827   9.831
 6571W        W10315   9.409   9.030   9.239
 6572W        W10316   8.951   5.526  10.262
 6573W        W10317  10.489   7.160  11.720
 6574W        W10318   3.852   1.913   2.163
 6575W        W10319   4.442   8.195   3.157
 6576W        W10320   7.950   8.379   1.193
 6577W        W10321   5.521   2.661   2.941
 6578W        W10322   5.184   4.014  11.251
 6579W        W10323   7.974   7.889   0.356
 6580W        W10324   7.170   9.677  11.024
 6581W        W10325   7.584   4.956   2.772
 6582W        W10326   5.705  10.397   9.437
 6583W        W10327   0.056   7.671   1.117
 6584W        W10328   6.204   1.576  11.484
 6585W        W10329   0.485   9.280   9.656
 6586W        W10330   0.461  10.424   1.776
 6587W        W10331   5.607   2.260   3.477
 6588W        W10332   8.318   4.929   3.460
 6589W        W10333   0.807   4.858   1.011
 6590W        W10334   4.587   1.141   3.106
 6591W        W10335   5.535   0.859   8.997
 6592W        W10336   5.113   7.575   4.013
 6593W        W10337   6.120   1.904   2.393
 6594W        W10338   2.147   2.380   2.818
 6595W        W10339   5.168   1.848   3.342
 6596W        W10340   8.687   6.922   0.192
 6597W        W10341   9.412   0.487   2.806
 6598W        W10342   9.402   3.087  11.789
 6599W        W10343   0.903   4.159   8.432
 6600W        W10344   4.793   5.595   0.802
 6601W        W10345   2.423   8.200   9.484
 6602W        W10346   5.005   5.628   2.165
 6603W        W10347  10.017   7.894  11.696
 6604W        W10348  10.190   8.679   8.700
 6605W        W10349   6.696   8.065   0.994
 6606W        W10350   1.287   9.456   9.755
 6607W        W10351   0.648   4.350  10.358
 6608W        W10352   5.664   3.146   4.082
 6609W        W10353   1.486   6.309  10.467
 6610W        W10354   8.192   4.227   8.176
 6611W        W10355   6.913   4.794  11.373
 6612W        W10356   0.063   8.822   1.212
 6613W        W10357   7.659   4.125   8.845
 6614W        W10358   9.034   5.265   1.470
 6615W        W10359   0.913   9.313   8.945
 6616W        W10360   6.933   8.853   2.350
 6617W        W10361   3.078   3.701   8.793
 6618W        W10362   4.133   2.642  10.142
 6619W        W10363   4.332   1.919   2.332
 6620W        W10364   0.328   9.055   2.980
 6621W        W10365   1.853   4.116  11.237
 6622W        W10366   9.297   7.040   0.947
 6623W        W10367   6.135   0.401   1.993
 6624W        W10368   7.459   3.774   1.202
 6625W        W10369   0.766   8.113   1.543
 6626W        W10370   5.594   3.869  10.491
 6627W        W10371  10.285   8.734   9.206
 6628W        W10372   8.067  10.300   2.718
 6629W        W10373   2.298   5.275   9.095
 6630W        W10374   8.556   6.110  11.835
 6631W        W10375   4.772   7.920   1.819
 6632W        W10376   2.389   4.964   8.623
 6633W        W10377   0.336   2.133  10.300
 6634W        W10378   6.423   6.514   9.383
 6635W        W10379   6.125  10.201  10.399
 6636W        W10380   8.886   0.384   9.653
 6637W        W10381   1.890   7.886   3.272
 6638W        W10382   2.639   6.052   2.375
 6639W        W10383   5.216   2.894   1.125
 6640W        W10384   2.798   1.512  11.200
 6641W        W10385   3.476   1.040  10.951
 6642W        W10386   5.522   3.819   3.446
 6643W        W10387  10.075   3.408  11.798
 6644W        W10388   3.092   8.994   1.236
 6645W        W10389   1.681   8.061  10.999
 6646W        W10390   8.763   5.992  10.457
 6647W        W10391   7.931   5.858   9.963
 6648W        W10392   3.516   1.931  11.028
 6649W        W10393   5.271   9.050   3.405
 6650W        W10394   9.342   9.871  11.640
 6651W        W10395   4.976   9.703   9.489
 6652W        W10396   3.388   5.939  11.350
 6653W        W10397   8.513   0.983  10.022
 6654W        W10398   5.249   2.634  10.929
 6655W        W10399   7.981   9.862   1.331
 6656W        W10400   4.873   7.806   2.755
 6657W        W10401   1.423   1.331  10.791
 6658W        W10402   4.208   8.733   2.221
 6659W        W10403   6.530   2.749   0.396
 6660W        W10404   2.228   5.623  10.948
 6661W        W10405   5.972   5.156  10.646
 6662W        W10406   1.460   9.733   0.839
 6663W        W10407   7.388   2.861   3.226
 6664W        W10408   1.907   5.405   1.251
 6665W        W10409   4.602   9.456  11.440
 6666W        W10410  10.088   0.016  10.980
 6667W        W10411   7.423   0.329  11.798
 6668W        W10412   3.684   5.846  10.952
 6669W        W10413   0.780   0.841   1.737
 6670W        W10414   3.944   1.808   2.665
 6671W        W10415  10.075   3.662   9.388
 6672W        W10416   9.455   6.022  11.744
 6673W        W10417   4.014   0.091   0.441
 6674W        W10418   7.965   9.230   1.848
 6675W        W10419   7.492   3.553  11.476
 6676W        W10420   6.211   4.669   2.584
 6677W        W10421  10.234   7.470   1.452
 6678W        W10422   8.042   1.297  10.627
 6679W        W10423   6.722   3.895   2.806
 6680W        W10424   2.568   9.886  10.506
 6681W        W10425   9.390   2.032   9.584
 6682W        W10426   0.221   0.650   1.816
 6683W        W10427   8.931   6.077   1.846
 6684W        W10428   4.618   5.948   9.841
 6685W        W10429   7.046   6.039   2.612
 6686W        W10430   1.428   6.199   9.487
 6687W        W10431   2.831   1.862   2.196
 6688W        W10432   7.312   2.332  10.261
 6689W        W10433   3.352   6.313  10.460
 6690W        W10434   0.802   4.089  10.763
 6691W        W10435   9.665   5.905   9.077
 6692W        W10436   8.537   6.574   2.820
 6693W        W10437   2.145   0.455   1.817
 6694W        W10438   9.395  10.287   1.624
 6695W        W10439   9.809   8.149   1.219
 6696W        W10440   6.335   9.112   9.634
 6697W        W10441   3.199   8.796   8.727
 6698W        W10442   1.729   2.673   2.710
 6699W        W10443   9.325   8.473   0.764
 6700W        W10444   4.200   0.189   3.254
 6701W        W10445   2.211   5.253   2.388
 6702W        W10446   1.766   0.700   9.819
 6703W        W10447   3.046   2.296  11.613
 6704W        W10448   2.553   4.024   8.502
 6705W        W10449   8.015   9.587  11.934
 6706W        W10450   5.061   0.823  10.389
 6707W        W10451   9.319   3.016   2.295
 6708W        W10452   1.520   8.460   9.733
 6709W        W10453   2.697   4.202   1.004
 6710W        W10454  10.382   1.268   9.481
 6711W        W10455   7.147   0.248   2.624
 6712W        W10456   1.385   6.992  11.225
 6713W        W10457   5.898   5.750   1.961
 6714W        W10458   2.707   7.019   1.330
 6715W        W10459   2.188   1.439  10.460
 6716W        W10460   4.945   4.574  11.960
 6717W        W10461   4.260   3.290   9.476
 6718W        W10462   8.042   0.156  10.070
 6719W        W10463   8.978   8.396   1.566
 6720W        W10464   6.673   2.749   1.469
 6721W        W10465   4.378   8.768   0.375
 6722W        W10466   2.320   9.034   2.523
 6723W        W10467   1.273   0.959   1.657
 6724W        W10468   7.138   5.705  11.112
 6725W        W10469   8.384   2.336   3.005
 6726W        W10470  10.148  10.454   9.336
 6727W        W10471   1.178   9.536   2.568
 6728W        W10472   2.633   2.846   9.882
 6729W        W10473   3.336   7.635  10.809
 6730W        W10474   0.991   1.067   9.750
 6731W        W10475   3.879   8.712   0.428
 6732W        W10476   6.082  10.187  11.832
 6733W        W10477   5.240   9.054   2.472
 6734W        W10478   5.139   2.393   2.236
 6735W        W10479   7.069   6.201   1.836
 6736W        W10480   1.501   0.235   3.346
 6737W        W10481   4.979   7.625   3.510
 6738W        W10482   5.215   5.674   9.812
 6739W        W10483   7.569   3.265   3.541
 6740W        W10484  10.154   0.299   2.164
 6741W        W10485   6.509   9.271   1.575
 6742W        W10486   5.107   9.986   9.944
 6743W        W10487   3.779   0.526   1.480
 6744W        W10488   5.724   5.040   0.007
 6745W        W10489   4.176   1.908   9.746
 6746W        W10490   8.058   5.241   0.694
 6747W        W10491   2.165   4.275   8.968
 6748W        W10492   7.040   3.310   9.900
 6749W        W10493   7.026   0.565   9.076
 6750W        W10494   5.683   7.374  10.056
 6751W        W10495   5.924   0.883  10.999
 6752W        W10496   4.969   7.050   8.530
 6753W        W10497   1.921   0.423   3.571
 6754W        W10498   5.534   5.994  11.880
 6755W        W10499   7.411   5.921   9.888
 6756W        W10500   9.271   4.187   9.135
 6757W        W10501   4.819   2.756   3.645
 6758W        W10502   5.134   5.107   3.433
 6759W        W10503   3.405   3.316   0.315
 6760W        W10504   0.883   4.584   9.966
 6761W        W10505   2.826   6.195   9.990
 6762W        W10506   8.296   5.076  10.515
 6763W        W10507   2.342   9.455   1.103
 6764W        W10508   6.143   0.777   3.190
 6765W        W10509   7.963   4.064   1.641
 6766W        W10510   1.773   7.431   3.509
 6767W        W10511   8.925   8.956   9.114
 6768W        W10512   5.152   4.012   1.900
 6769W        W10513  10.258   0.053  11.858
 6770W        W10514   7.923   6.101   0.523
 6771W        W10515   1.868   4.684   1.891
 6772W        W10516   9.936   8.600   2.016
 6773W        W10517   0.609   5.505   9.305
 6774W        W10518   4.037   2.762  10.996
 6775W        W10519   4.721   1.551   9.418
 6776W        W10520   8.746   0.007  10.021
 6777W        W10521   1.454   5.848   9.023
 6778W        W10522   0.430   3.975  11.466
 6779W        W10523   1.306   7.505   1.677
 6780W        W10524   8.080   2.764   9.215
 6781W        W10525   4.947   1.009  10.852
 6782W        W10526   4.110  10.423  10.452
 6783W        W10527   2.669   2.874   1.788
 6784W        W10528   3.211   3.630   9.304
 6785W        W10529   3.689   3.085   2.723
 6786W        W10530   6.577   8.018  10.770
 6787W        W10531   0.309   5.032   2.374
 6788W        W10532   7.029   6.456   2.281
 6789W        W10533   8.305   8.401  10.086
 6790W        W10534   0.428   3.747   9.031
 6791W        W10535   9.703   2.322  10.808
 6792W        W10536   2.225   2.936  10.182
 6793W        W10537   0.719   4.873  11.342
 6794W        W10538   2.160   1.967   2.517
 6795W        W10539   1.005   5.465   2.712
 6796W        W10540   3.596   5.354   1.296
 6797W        W10541   5.700   0.475   8.702
 6798W        W10542   5.579   0.367  10.145
 6799W        W10543   5.544   7.990   0.776
 6800W        W10544   5.256   0.788   1.175
 6801W        W10545   1.262   4.676   1.168
 6802W        W10546   1.469   6.595   0.781
 6803W        W10547   5.609   8.543   9.184
 6804W        W10548   4.274   2.206   2.757
 6805W        W10549   9.584   5.132  11.834
 6806W        W10550   0.686   0.323   0.956
 6807W        W10551   9.465   1.407   0.616
 6808W        W10552   6.426   3.677   9.407
 6809W        W10553   5.032   8.174   2.379
 6810W        W10554   9.384   1.324   2.888
 6811W        W10555   3.281   7.384   0.737
 6812W        W10556   7.968   3.875   8.511
 6813W        W10557   5.700   1.758   3.411
 6814W        W10558   8.452   0.839  10.556
 6815W        W10559   0.186   2.043   9.374
 6816W        W10560   3.827   7.617   8.894
 6817W        W10561   0.985   6.578  11.201
 6818W        W10562   6.357   8.786   1.669
 6819W        W10563   7.006   8.154  11.034
 6820W        W10564   0.322   9.755   9.594
 6821W        W10565   8.383   4.595   9.879
 6822W        W10566   2.109  10.349   2.655
 6823W        W10567   5.551   1.666  10.031
 6824W        W10568   0.425  10.361   3.201
 6825W        W10569   5.071   7.462   0.061
 6826W        W10570   2.659  10.353   9.487
 6827W        W10571   3.742   7.163   0.337
 6828W        W10572   4.033   5.688   1.380
 6829W        W10573   4.060   5.795   0.552
 6830W        W10574   1.400   0.453   8.633
 6831W        W10575   4.766   8.576   3.023
 6832W        W10576   9.060   5.381   2.347
 6833W        W10577   4.731   6.450   9.926
 6834W        W10578   8.491   9.845   1.523
 6835W        W10579   1.395   4.692   2.675
 6836W        W10580   1.670   5.508  10.182
 6837W        W10581   6.378   4.641   1.014
 6838W        W10582   3.025   7.700   8.151
 6839W        W10583   7.357   6.184   1.286
 6840W        W10584   6.898   1.318   9.331
 6841W        W10585   0.868   8.812  11.386
 6842W        W10586   3.068   0.304  11.342
 6843W        W10587   5.102   5.222  10.598
 6844W        W10588   3.497   0.040   2.321
 6845W        W10589   3.686  10.348   1.243
 6846W        W10590   8.995   2.735   9.737
 6847W        W10591   7.053   9.420   0.355
 6848W        W10592   7.661   8.371   1.909
 6849W        W10593   2.844   6.405   0.718
 6850W        W10594   5.739   0.865   3.515
 6851W        W10595   3.125   5.516   9.242
 6852W        W10596   6.191   3.465  10.350
 6853W        W10597   2.189   6.310   2.368
 6854W        W10598   6.485   9.721   0.603
 6855W        W10599   1.812   3.577   3.229
 6856W        W10600   2.669   9.990   0.419
 6857W        W10601   1.783   0.912  10.806
 6858W        W10602   4.175   1.432   1.283
 6859W        W10603   3.463   9.048  11.616
 6860W        W10604   1.066   2.744  10.703
 6861W        W10605   0.715   6.066   8.954
 6862W        W10606   0.521   8.728   0.444
 6863W        W10607   7.726   7.867   1.873
 6864W        W10608   8.919   9.371   3.003
 6865W        W10609   6.307   7.560   2.156
 6866W        W10610   0.394   6.378   1.297
 6867W        W10611   9.798   4.928   0.258
 6868W        W10612  10.233  10.062  10.392
 6869W        W10613   6.489   3.193   0.048
 6870W        W10614   0.764   1.231   2.404
 6871W        W10615   6.925   2.221   2.716
 6872W        W10616   6.720   5.227   2.179
 6873W        W10617   7.961   8.474   8.733
 6874W        W10618   3.179   4.462   0.740
 6875W        W10619   0.760   6.289   0.390
 6876W        W10620   1.512   2.449   0.599
 6877W        W10621   7.082   4.735   8.603
 6878W        W10622   6.831   7.090  10.435
 6879W        W10623   1.355   6.347   9.002
 6880W        W10624   2.332   8.991   2.003
 6881W        W10625   9.825   4.234   1.231
 6882W        W10626   9.584   8.484   9.921
 6883W        W10627   8.811   0.431  11.130
 6884W        W10628   2.106   6.882  10.483
 6885W        W10629   3.864   5.722  11.429
 6886W        W10630   1.982   7.663  10.894
 6887W        W10631   9.859   8.366   0.748
 6888W        W10632   4.496   4.527   1.991
 6889W        W10633   4.914  10.470   2.494
 6890W        W10634   9.746   7.908   9.840
 6891W        W10635   7.702   1.327  11.938
 6892W        W10636   7.566   9.114  10.270
 6893W        W10637  10.373   2.483   1.465
 6894W        W10638   0.493   0.722  10.461
 6895W        W10639   2.121   6.467   0.105
 6896W        W10640   4.160   9.786   1.978
 6897W        W10641   7.992   8.836  10.090
 6898W        W10642   2.252   6.903  11.485
 6899W        W10643   7.080   4.496   2.432
 6900W        W10644   4.620   4.087   2.727
 6901W        W10645   8.894   0.468   2.775
 6902W        W10646   9.032   1.839   1.187
 6903W        W10647   9.429   2.746  10.897
 6904W        W10648   0.370   7.111  11.387
 6905W        W10649   6.988   3.626   1.070
 6906W        W10650   2.984   0.311   8.757
 6907W        W10651   9.820   9.949   2.432
 6908W        W10652   9.609   8.153   9.380
 6909W        W10653   5.023   4.113   1.427
 6910W        W10654   9.706   9.234   0.861
 6911W        W10655   6.518   1.240   0.388
 6912W        W10656   1.425   7.367   0.157
 6913W        W10657  10.117   9.072   2.181
 6914W        W10658  10.422   6.926   1.695
 6915W        W10659   2.511   0.503   8.972
 6916W        W10660   0.414   1.197   1.829
 6917W        W10661   3.325   7.583  11.779
 6918W        W10662   8.788   0.905   2.314
 6919W        W10663   4.079   4.550   3.201
 6920W        W10664   8.970   1.123   3.828
 6921W        W10665   2.810   5.567   1.240
 6922W        W10666   8.457   6.152  10.842
 6923W        W10667   9.428   7.508   1.748
 6924W        W10668   1.655   5.074  10.456
 6925W        W10669   5.565   2.257  11.693
 6926W        W10670   2.715  10.414  10.016
 6927W        W10671   9.071   9.019   9.645
 6928W        W10672   7.215   4.060   3.763
 6929W        W10673   3.880   1.046  11.451
 6930W        W10674   2.617   1.630  10.714
 6931W        W10675   0.655   5.838   2.814
 6932W        W10676   7.630   9.127   1.499
 6933W        W10677   5.938   9.931   8.622
 6934W        W10678   6.832   6.151   3.086
 6935W        W10679   6.343   2.351   9.412
 6936W        W10680   6.322   4.336  10.014
 6937W        W10681   7.149   0.919  10.480
 6938W        W10682   7.899   0.840  11.235
 6939W        W10683   3.108   3.223   1.163
 6940W        W10684   8.366   1.391   1.673
 6941W        W10685   9.111   0.790  11.935
 6942W        W10686   7.897   1.278   0.985
 6943W        W10687   5.328   5.692   0.686
 6944W        W10688   4.557   5.148   0.620
 6945W        W10689   9.688   3.170  10.672
 6946W        W10690   3.860   4.909   1.357
 6947W        W10691   8.809   0.399  11.630
 6948W        W10692   2.585   2.497   1.317
 6949W        W10693   9.448  10.022   1.175
 6950W        W10694   5.268   7.003  11.989
 6951W        W10695   5.823   6.783   3.706
 6952W        W10696   9.448   2.930   9.901
 6953W        W10697   9.039   4.060  11.882
 6954W        W10698   6.935   2.423   0.772
 6955W        W10699   4.846   2.110   1.933
 6956W        W10700   2.478   8.321   8.247
 6957W        W10701  10.006   6.856  10.905
 6958W        W10702   1.754   7.685   1.523
 6959W        W10703   2.842   9.931  10.926
 6960W        W10704   1.126   7.182   1.348
 6961W        W10705   1.926   7.445   0.415
 6962W        W10706  10.203   3.140  10.342
 6963W        W10707   4.587   1.644  11.530
 6964W        W10708   3.568   6.344  11.034
 6965W        W10709   7.209   6.554   8.866
 6966W        W10710   2.362   8.725   0.406
 6967W        W10711   0.264   9.700   2.293
 6968W        W10712   2.329   7.454   0.755
 6969W        W10713   0.190   2.682  11.797
 6970W        W10714   6.027   8.190  11.999
 6971W        W10715   9.323   1.741  11.324
 6972W        W10716   5.011   0.526  10.967
 6973W        W10717   9.742   6.726   8.589
 6974W        W10718   1.693   7.852   0.265
 6975W        W10719   7.948   9.842   2.422
 6976W        W10720   4.764   1.647   8.370
 6977W        W10721  10.031   1.431   1.744
 6978W        W10722   6.446   8.019   9.811
 6979W        W10723  10.428   5.601  10.503
 6980W        W10724   7.070   9.913   1.280
 6981W        W10725   3.046   4.599   9.032
 6982W        W10726   5.335   2.867   2.093
 6983W        W10727   1.202   8.001   0.860
 6984W        W10728   9.000   3.961   2.881
 6985W        W10729   1.267   1.950  11.341
 6986W        W10730   7.109   1.143   2.418
 6987W        W10731   5.935   1.591   2.829
 6988W        W10732   5.733   9.074   3.122
 6989W        W10733   0.484   3.076   0.729
 6990W        W10734   8.609   2.277   1.586
 6991W        W10735   4.387   1.211  11.967
 6992W        W10736   8.989   6.984   9.003
 6993W        W10737   5.232   3.077   3.070
 6994W        W10738   5.823   1.386  11.771
 6995W        W10739   3.261   6.647   1.063
 6996W        W10740   0.397   7.614  10.013
 6997W        W10741   8.945   7.825   1.227
 6998W        W10742   0.672   0.809   3.166
 6999W        W10743   7.116   1.762   2.455
 7000W        W10744   0.170   9.922  11.412
 7001W        W10745   0.777   4.170   0.214
 7002W        W10746  10.452   2.910   2.149
 7003W        W10747   8.075   3.751  10.327
 7004W        W10748   7.090  10.382  10.444
 7005W        W10749   7.951   5.653  10.712
 7006W        W10750   7.671   3.590   0.351
 7007W        W10751   9.817   7.871   0.694
 7008W        W10752   3.279   9.274   0.271
 7009W        W10753   0.026   3.218  11.866
 7010W        W10754   9.500  10.026   0.270
 7011W        W10755   3.166   4.598   8.183
 7012W        W10756   3.411   4.475   3.151
 7013W        W10757   1.005   3.806   2.787
 7014W        W10758   9.171  10.323   9.798
 7015W        W10759   2.606   6.484   1.659
 7016W        W10760   1.383   9.762   1.370
 7017W        W10761   4.259   0.485   2.257
 7018W        W10762   9.994   6.698   1.419
 7019W        W10763   4.943   7.137   3.782
 7020W        W10764   3.836   9.054  11.245
 7021W        W10765   4.597   0.909   2.235
 7022W        W10766   0.674  10.002   9.952
 7023W        W10767   3.178   7.147  10.831
 7024W        W10768   5.783   4.694  10.907
 7025W        W10769   7.318   0.861   1.115
 7026W        W10770   4.663   6.480   0.789
 7027W        W10771   5.425   5.420   0.220
 7028W        W10772  10.328   0.803  10.191
 7029W        W10773   6.922  10.269   9.467
 7030W        W10774   3.787   1.456  10.901
 7031W        W10775   9.894   4.071   0.382
 7032W        W10776   2.828   6.681   9.812
 7033W        W10777   2.358   8.531  10.862
 7034W        W10778   9.774   3.598   0.764
 7035W        W10779   5.197   9.825   2.972
 7036W        W10780   9.207   7.437   3.386
 7037W        W10781   4.717   3.619   2.947
 7038W        W10782   9.846   6.367  10.930
 7039W        W10783   2.617   1.713   2.644
 7040W        W10784   0.375   3.587  10.099
 7041W        W10785   7.564   4.442   2.648
 7042W        W10786   2.191   2.894   2.039
 7043W        W10787   1.572   3.679   1.380
 7044W        W10788   8.979   8.342  10.824
 7045W        W10789   1.775   3.151  10.459
 7046W        W10790   7.133   3.350   3.218
 7047W        W10791   1.892   8.944   9.615
 7048W        W10792   7.361   4.532  11.517
 7049W        W10793   2.226   5.554   1.910
 7050W        W10794   8.084   1.586  11.047
 7051W        W10795   2.645   4.664  10.026
 7052W        W10796   2.919  10.243   1.709
 7053W        W10797   8.963   1.808   9.837
 7054W        W10798   6.097   3.292   9.417
 7055W        W10799  10.078   0.430   9.076
 7056W        W10800   6.145   0.579   3.684
 7057W        W10801  10.335   1.391  10.470
 7058W        W10802   3.580   9.954  11.527
 7059W        W10803   5.007   9.946  11.204
 7060W        W10804   7.564   5.044   1.854
 7061W        W10805   8.656   3.665   9.050
 7062W        W10806   6.233   0.922  10.460
 7063W        W10807   2.491   4.000   9.407
 7064W        W10808   8.503   3.367  11.964
 7065W        W10809   3.742   0.329   3.027
 7066W        W10810   9.707   0.362  10.803
 7067W        W10811   6.937   5.983  10.662
 7068W        W10812   0.882   3.852   1.838
 7069W        W10813   8.146   4.624  10.330
 7070W        W10814   1.272   3.800   2.336
 7071W        W10815   6.982   8.303   9.762
 7072W        W10816  10.053   1.824  10.427
 7073W        W10817  10.258   6.005   1.754
 7074W        W10818   5.843   0.683   2.766
 7075W        W10819   0.955   8.992   3.451
 7076W        W10820   4.078   4.090  10.799
 7077W        W10821   4.712   8.626   1.689
 7078W        W10822  10.471   3.805   3.174
 7079W        W10823   1.621   1.954   1.483
 7080W        W10824   6.644   6.201   4.010
 7081W        W10825   8.614   1.737   0.901
 7082W        W10826   0.159   0.849   0.561
 7083W        W10827   0.998   4.664   0.265
 7084W        W10828   0.171   2.201   2.323
 7085W        W10829   1.813   7.155  10.851
 7086W        W10830   8.948   7.522  10.310
 7087W        W10831   8.549   2.132  11.474
 7088W        W10832   6.548   0.977  11.946
 7089W        W10833   9.679   8.952  11.106
 7090W        W10834   2.789   9.571  11.663
 7091W        W10835   7.804   6.581   0.662
 7092W        W10836   8.480   3.709  11.531
 7093W        W10837   0.366   5.028   1.370
 7094W        W10838   3.625   4.086  11.021
 7095W        W10839   6.160   7.027  10.950
 7096W        W10840   0.765   2.200   1.748
 7097W        W10841   2.373   3.792   1.661
 7098W        W10842   0.335   1.709   3.393
 7099W        W10843   8.395   7.420  11.418
 7100W        W10844   7.571   3.773   2.048
 7101W        W10845   6.605   1.227  11.514
 7102W        W10846   2.780   7.358   2.865
 7103W        W10847   0.622   4.604  10.796
 7104W        W10848   0.801   0.946   8.734
 7105W        W10849   6.252   4.945   0.050
 7106W        W10850   3.958   2.096  11.994
 7107W        W10851   2.922  10.315   3.134
 7108W        W10852   5.765   0.431   3.211
 7109W        W10853   2.209   8.715   8.470
 7110W        W10854   1.248   1.399   3.220
 7111W        W10855   0.150   8.931  10.891
 7112W        W10856   1.182   0.900   3.100
 7113W        W10857   3.282   4.141   8.994
 7114W        W10858   8.631   1.365   0.341
 7115W        W10859   6.601   6.510   0.892
 7116W        W10860   7.397   2.259  10.867
 7117W        W10861   3.402  10.291   1.856
 7118W        W10862   9.351   1.828   0.250
 7119W        W10863   6.262   7.872   0.792
 7120W        W10864   2.694   0.561   0.215
 7121W        W10865   5.769   4.920   0.496
 7122W        W10866   6.417   8.995  11.019
 7123W        W10867   6.259   0.359   9.986
 7124W        W10868   3.112   9.300  11.381
 7125W        W10869   6.547  10.418   9.124
 7126W        W10870   6.839   4.364  10.082
 7127W        W10871  10.051   2.168   8.780
 7128W        W10872   7.561   2.205   9.302
 7129W        W10873   1.303   7.937   9.056
 7130W        W10874   8.594   1.269   8.932
 7131W        W10875   7.840   3.781   9.308
 7132W        W10876   4.289   1.819   9.249
 7133W        W10877  10.375   4.780   3.553
 7134W        W10878   9.985   1.829   2.532
 7135W        W10879   2.579   9.007   1.164
 7136W        W10880   3.701   7.569  10.282
 7137W        W10881   8.420   3.718   9.948
 7138W        W10882   2.867   2.393   9.849
 7139W        W10883  10.327   1.623   8.646
 7140W        W10884   6.559   1.952   2.079
 7141W        W10885   4.080   7.820   0.308
 7142W        W10886   0.795   3.311   8.996
 7143W        W10887   3.587   5.514   9.879
 7144W        W10888   1.769  10.407   9.516
 7145W        W10889   9.897   0.164   0.823
 7146W        W10890   6.029   0.907   8.609
 7147W        W10891   7.269   7.761  11.958
 7148W        W10892   6.738   2.676   2.321
 7149W        W10893   3.707   0.823  10.549
 7150W        W10894   2.217   8.177   3.573
 7151W        W10895   8.310   3.665   9.443
 7152W        W10896   7.907   3.234   2.102
 7153W        W10897   0.938   3.208   1.856
 7154W        W10898   7.430   8.634  10.523
 7155W        W10899   0.819   0.623   9.589
 7156W        W10900   9.087   1.941  10.312
 7157W        W10901   9.099   9.290   1.381
 7158W        W10902   4.334   2.899  10.523
 7159W        W10903   8.572   1.297   1.211
 7160W        W10904   6.717   2.567   3.492
 7161W        W10905   4.128   6.121   9.635
 7162W        W10906   2.306  10.328  11.257
 7163W        W10907   2.938   3.254   9.948
 7164W        W10908   9.031   1.267  11.718
 7165W        W10909   1.861   0.190  10.533
 7166W        W10910   1.116   2.601   3.442
 7167W        W10911   9.540   2.610  11.987
 7168W        W10912   7.148   4.202   2.855
 7169W        W10913   0.690   6.033  10.719
 7170W        W10914   6.546   1.938  11.913
 7171W        W10915   2.634   4.069  10.926
 7172W        W10916   8.283   6.978   2.613
 7173W        W10917   0.944   8.495   0.923
 7174W        W10918   1.409   0.273   9.547
 7175W        W10919   1.533   5.059   9.347
 7176W        W10920   4.083   4.362   0.570
 7177W        W10921   4.124   8.359   3.633
 7178W        W10922   6.459   6.093   9.759
 7179W        W10923   8.101   2.107  10.000
 7180W        W10924   3.198   8.973   2.462
 7181W        W10925   8.035   0.169   3.455
 7182W        W10926   3.096   3.726  10.005
 7183W        W10927   4.020  10.223  11.421
 7184W        W10928   1.148   5.952   2.902
 7185W        W10929   0.933   1.306   1.932
 7186W        W10930   8.821   8.555   9.436
 7187W        W10931   4.357   6.590   2.858
 7188W        W10932   7.541   6.065   8.905
 7189W        W10933   0.691   1.957   9.374
 7190W        W10934   3.767   0.977   1.771
 7191W        W10935   7.015   0.104   2.136
 7192W        W10936   5.855   2.861   2.034
 7193W        W10937   9.834   8.841   0.070
 7194W        W10938   1.809  10.182  10.514
 7195W        W10939   3.088   2.298   2.360
 7196W        W10940   0.667   1.352   0.063
 7197W        W10941   2.124   2.392   0.649
 7198W        W10942   7.458   4.115   9.325
 7199W        W10943   3.367   0.757  11.386
 7200W        W10944   2.640  10.454   2.615
 7201W        W10945  10.500   5.547   9.029
 7202W        W10946   4.920   1.661   2.928
 7203W        W10947   3.931   4.492   0.103
 7204W        W10948   9.330   4.549   2.375
 7205W        W10949   9.208  10.138  10.374
 7206W        W10950   9.375   0.927   0.399
 7207W        W10951   1.226   2.752   9.296
 7208W        W10952   2.588   4.216   1.918
 7209W        W10953   3.101   5.557   9.740
 7210W        W10954   2.829   8.979   9.510
 7211W        W10955   5.521   6.060  10.746
 7212W        W10956   7.710   7.794   9.846
 7213W        W10957   3.070   2.702   8.860
 7214W        W10958   5.043  10.396   8.725
 7215W        W10959   6.511  10.462   0.013
 7216W        W10960   3.831   3.170   9.761
 7217W        W10961   7.831   6.468   0.170
 7218W        W10962   6.077   2.180   8.562
 7219W        W10963   3.214   3.198  11.037
 7220W        W10964   4.780  10.153   9.355
 7221W        W10965   4.122   7.039   9.795
 7222W        W10966  10.247   9.893   2.746
 7223W        W10967   4.079   2.650   1.875
 7224W        W10968   0.522   0.851   2.190
 7225W        W10969   1.362   1.466   0.749
 7226W        W10970   1.992   1.795   1.804
 7227W        W10971   3.739  10.098   2.183
 7228W        W10972   5.635   4.872  11.390
 7229W        W10973   9.849   7.721   2.261
 7230ION    NA+10974   7.815   7.038   9.052
 7231ION    NA+10975   8.830  10.447  11.964
 7232ION    NA+10976   0.393   6.627   3.624
 7233ION    NA+10977   6.691   1.827   3.072
 7234ION    NA+10978   0.005   3.687  11.504
 7235ION    NA+10979   1.399   8.639   2.922
 7236ION    NA+10980   9.975   6.480   0.954
 7237ION    NA+10981   4.893   0.355   9.407
 7238ION    NA+10982   2.943   4.641   0.235
 7239ION    NA+10983   0.105   0.436   9.060
 7240ION    NA+10984   7.460   4.705   8.145
 7241ION    NA+10985   0.183   9.068   9.259
 7242ION    NA+10986   5.282   7.094  11.053
 7243ION    NA+10987   5.197   3.079   9.037
 7244ION    NA+10988   6.380   8.916  10.116
 7245ION    NA+10989   1.443   6.752   9.802
 7246ION    NA+10990   4.063   1.976  11.069
 7247ION    NA+10991   1.567   0.264   0.926
 7248ION    NA+10992   2.744   0.345  10.817
 7249ION    NA+10993   2.305   2.503   1.751
 7250ION    NA+10994   9.401   0.165   2.006
 7251ION    NA+10995   0.484   7.708   1.366
 7252ION    NA+10996   7.769   0.794   3.784
 7253ION    NA+10997   7.921   3.734   9.813
 7254ION    NA+10998   0.245   5.308  10.806
 7255ION    NA+10999   3.800   4.790  11.212
 7256ION    NA+11000   7.059   1.987   0.514
 7257ION    NA+11001   3.608   9.290   2.407
 7258ION    NA+11002   6.612   3.525   1.900
 7259ION    NA+11003   3.247   6.582   9.468
 7260ION    NA+11004   1.628   4.990   1.366
 7261ION    NA+11005  10.445  10.354   2.972
 7262ION    NA+11006   2.666   1.982  11.111
 7263ION    NA+11007   7.043  10.025   9.051
 7264ION    NA+11008   9.366   3.263   0.791
 7265ION    NA+11009   1.685   1.798  11.065
 7266ION    NA+11010   1.731   2.988   9.178
 7267ION    NA+11011   4.534   6.793   9.603
 7268ION    NA+11012   1.782   7.157  11.537
 7269ION    NA+11013   3.850   0.948   0.618
 7270ION    NA+11014   0.281   9.172   0.332
 7271ION    NA+11015   9.399   1.468  10.436
 7272ION    NA+11016   7.584   2.108  11.348
 7273ION    NA+11017   9.575   5.216   3.443
 7274ION    NA+11018   4.536   5.166   0.093
 7275ION    NA+11019   0.923   5.395   0.120
 7276ION    NA+11020  10.104   9.616   9.546
 7277ION    NA+11021   3.370   6.662   2.595
 7278ION    NA+11022   2.718   9.347   1.942
 7279ION    NA+11023   5.918   9.125  10.978
 7280ION    NA+11024   4.911   3.305   8.106
 7281ION    NA+11025   5.387   4.870   1.643
 7282ION    NA+11026   9.653   3.722  11.132
 7283ION    NA+11027   0.242   5.163   1.870
 7284ION    NA+11028   1.156  10.072  11.627
 7285ION    NA+11029   1.719   0.406  10.987
 7286ION    NA+11030   4.107   8.152   1.025
 7287ION    NA+11031   5.103   2.395   1.199
 7288ION    NA+11032   1.064   9.013  11.848
 7289ION    NA+11033   0.339   8.044   2.889
 7290ION    NA+11034   6.293   9.631   1.894
 7291ION    NA+11035   4.980   4.752   0.890
 7292ION    NA+11036   0.669   0.793   0.766
 7293ION    NA+11037   1.342   9.750   3.307
 7294ION    NA+11038   3.808   0.903  10.064
 7295ION    NA+11039   1.877   7.741   9.768
 7296ION    NA+11040   5.259   5.583  11.748
 7297ION    NA+11041   3.936   0.071   9.462
 7298ION    NA+11042   2.806   0.188   0.539
 7299ION    NA+11043   7.866   0.686   2.203
 7300ION    NA+11044   2.017   0.546   0.009
 7301ION    NA+11045   4.759   3.652   1.928
 7302ION    NA+11046   1.022   8.175  11.879
 7303ION    NA+11047   6.807   7.596   0.705
 7304ION    NA+11048   2.787   7.938   2.327
 7305ION    NA+11049   4.379   8.644   9.943
 7306ION    CL-11050   5.133   4.953   1.275
 7307ION    CL-11051   4.871   5.390  11.880
 7308ION    CL-11052   9.021   2.802  10.243
 7309ION    CL-11053   8.580   1.386   9.429
 7310ION    CL-11054  10.376   3.212   1.755
 7311ION    CL-11055   5.476   6.850   1.451
 7312ION    CL-11056   1.689  10.066   8.586
 7313ION    CL-11057   8.542   8.793   9.805
 7314ION    CL-11058   9.216   0.211  10.895
 7315ION    CL-11059   3.226   2.783   3.404
 7316ION    CL-11060   1.943   8.170   9.654
 7317ION    CL-11061   2.804   3.653   1.091
 7318ION    CL-11062   7.403  10.132   9.306
 7319ION    CL-11063   0.634   7.302   1.252
 7320ION    CL-11064   2.685   1.876  11.546
 7321ION    CL-11065   1.165   8.571  11.707
 7322ION    CL-11066   1.315   2.959  11.732
 7323ION    CL-11067   3.703   8.877   2.266
 7324ION    CL-11068   4.660   0.501   1.922
 7325ION    CL-11069   9.130   2.628   8.720
 7326ION    CL-11070   2.883   0.553   2.001
 7327ION    CL-11071   3.940   0.808   1.035
 7328ION    CL-11072   6.794   9.026   9.990
 7329ION    CL-11073   8.531   9.147   0.528
 7330ION    CL-11074   9.414   4.349   9.632
 7331ION    CL-11075   6.740   9.562   1.950
 7332ION    CL-11076   9.344   3.488  10.895
 7333ION    CL-11077   7.879   8.909  10.612
 7334ION    CL-11078   2.896   4.515   3.210
 7335ION    CL-11079   2.675   1.248   1.313
 7336ION    CL-11080   0.622   9.083   0.015
 7337ION    CL-11081   0.157   8.962   0.722
 7338ION    CL-11082   2.095   3.824   0.406
 7339ION    CL-11083   1.571   2.937   8.754
 7340ION    CL-11084   4.437  10.007  11.974
 7341ION    CL-11085   1.286   8.617   2.483
 7342ION    CL-11086   2.463   7.667   2.473
 7343ION    CL-11087   5.118   9.213   9.518
 7344ION    CL-11088   4.763   9.913  10.298
 7345ION    CL-11089   8.349   5.345   8.830
 7346ION    CL-11090   6.657   1.448   3.311
 7347ION    CL-11091  10.076   3.719  11.351
 7348ION    CL-11092   9.884   8.038   1.818
 7349ION    CL-11093   6.836   7.190   0.944
 7350ION    CL-11094   2.261   1.891   0.516
 7351ION    CL-11095   5.053   2.902   9.420
 7352ION    CL-11096  10.476   9.364   9.532
 7353ION    CL-11097   4.192   3.672   3.679
 7354ION    CL-11098   5.855   7.819   1.152
 7355ION    CL-11099   2.506   4.711   0.194
 7356ION    CL-11100   3.156   5.161   8.872
 7357ION    CL-11101   4.853   4.559  10.701
 7358ION    CL-11102   7.169   8.414   1.740
 7359ION    CL-11103   4.010   2.355  11.300
 7360ION    CL-11104   1.192   9.142  10.141
 7361ION    CL-11105   6.802   9.952   8.667
 7362ION    CL-11106   7.980   4.505   1.370
 7363ION    CL-11107   0.258   9.913   0.431
 7364ION    CL-11108   2.598   6.475  11.916
 7365ION    CL-11109   8.007   6.158   9.512
 7366ION    CL-11110   1.394   8.694   3.396
 7367ION    CL-11111   9.296   5.047   8.713
 7368ION    CL-11112   0.648   5.131  10.886
 7369ION    CL-11113   5.212   3.456   4.070
 7370ION    CL-11114   6.918   7.935   0.417
 7371ION    CL-11115   5.847   9.686   1.822
 7372ION    CL-11116   4.023   5.063  10.940
 7373ION    CL-11117   3.484   6.866   2.975
 7374ION    CL-11118   0.557   1.161   0.542
 7375ION    CL-11119   8.470   8.198  10.995
 7376ION    CL-11120   8.911   6.939  10.760
 7377ION    CL-11121   8.425  10.140   3.078
 7378ION    CL-11122   4.195   2.298   9.385
 7379ION    CL-11123   2.936   0.792   8.940
 7380ION    CL-11124   2.239   2.879   1.516
 7381ION    CL-11125   1.312   9.792  11.943
  10.50000  10.50000  12.00000
