Protein in INSANE! Membrane UpperLeaflet>POPC=1.0 LowerLeaflet>POPC=1.0
11530
    1AU     AUC    1   9.925   3.948   5.697  0.0137 -0.0514 -0.0471
    1AU     AUC    2  10.170   3.932   5.432  0.0119 -0.0462 -0.0493
    1AU     AUC    3  10.041   3.665   5.594  0.0548  0.0156 -0.0416
    1AU     AUC    4   9.827   4.263   5.809 -0.1007  0.0347  0.0518
    1AU     AUC    5   9.747   3.933   5.955 -0.0162 -0.0048  0.1004
    1AU     AUC    6  10.051   4.070   5.987 -0.0369  0.0060  0.1194
    1AU     AUC    7  10.245   3.892   5.763  0.0767 -0.0580  0.0293
    1AU     AUC    8   9.634   4.029   5.613 -0.0483 -0.0496  0.0011
    1AU     AUC    9   9.860   3.828   5.403 -0.0221 -0.0810 -0.0842
    1AU     AUC   10   9.749   3.680   5.669  0.0055 -0.0140  0.0412
    1AU     AUC   11   9.993   3.703   5.919  0.0952  0.0286  0.0204
    1AU     AUC   12   9.892   4.162   5.455 -0.1296 -0.0672 -0.0052
    1AU     AUC   13  10.158   4.186   5.640  0.0586 -0.0204 -0.0217
    1AU     AUC   14  10.397   3.868   5.176  0.0013 -0.0350  0.0117
    1AU     AUC   15  10.321   3.586   5.297 -0.0609  0.0416  0.0414
    1AU     AUC   16  10.156   3.310   5.520  0.0048  0.0121  0.0535
    1AU     AUC   17   9.688   4.529   5.910 -0.0488  0.0955 -0.0312
    1AU     AUC   18   9.588   4.259   6.085  0.0199 -0.1184  0.0296
    1AU     AUC   19   9.546   3.932   6.219 -0.0873  0.0535  0.0394
    1AU     AUC   20  10.219   4.204   6.245 -0.1573 -0.0308  0.0026
    1AU     AUC   21  10.455   4.018   6.053 -0.0626  0.0143 -0.0107
    1AU     AUC   22  10.541   3.829   5.816  0.0649 -0.0554 -0.1031
    1AU     AUC   23   9.276   4.128   5.521  0.0333 -0.0196 -0.1954
    1AU     AUC   24   9.500   3.926   5.283  0.0966 -0.0024 -0.0506
    1AU     AUC   25   9.728   3.732   5.070 -0.0185 -0.0468  0.0536
    1AU     AUC   26   9.507   3.440   5.657  0.0001  0.0733 -0.0398
    1AU     AUC   27   9.771   3.433   5.934  0.0505 -0.0002  0.0838
    1AU     AUC   28  10.058   3.488   6.145 -0.0371  0.0158 -0.0201
    1AU     AUC   29   9.834   4.417   5.214  0.0583 -0.0239  0.1372
    1AU     AUC   30  10.085   4.461   5.385  0.0522  0.0487  0.0238
    1AU     AUC   31  10.396   4.444   5.573 -0.0898  0.0319 -0.0222
    1AU     AUC   32   9.801   3.362   5.581  0.0461 -0.0873 -0.0258
    1AU     AUC   33  10.081   3.326   5.850 -0.0982  0.0645  0.0837
    1AU     AUC   34  10.104   4.178   5.164 -0.0569  0.0769  0.0760
    1AU     AUC   35  10.425   4.195   5.325 -0.0055  0.0826  0.0331
    1AU     AUC   36   9.512   3.687   5.944 -0.0317  0.0854  0.0466
    1AU     AUC   37   9.803   3.718   6.216  0.0595 -0.0632  0.0741
    1AU     AUC   38   9.738   4.510   5.592 -0.0214  0.0020  0.0692
    1AU     AUC   39  10.033   4.513   5.762 -0.0199  0.0361  0.0088
    1AU     AUC   40  10.492   3.810   5.458  0.0648  0.0286 -0.1128
    1AU     AUC   41  10.353   3.528   5.662  0.0198 -0.0624  0.0699
    1AU     AUC   42   9.982   4.391   6.087  0.0466  0.0289 -0.0523
    1AU     AUC   43   9.888   4.061   6.262 -0.1288 -0.0574 -0.0375
    1AU     AUC   44  10.052   3.801   5.106 -0.0606 -0.0368 -0.0729
    1AU     AUC   45   9.971   3.513   5.253  0.0472  0.0826  0.0416
    1AU     AUC   46   9.465   4.322   5.767  0.0540  0.0494 -0.0198
    1AU     AUC   47   9.393   4.001   5.896 -0.0875 -0.0338 -0.0625
    1AU     AUC   48  10.181   3.836   6.230 -0.0799 -0.0620  0.1136
    1AU     AUC   49  10.325   3.638   6.010  0.0331 -0.0208 -0.0630
    1AU     AUC   50   9.414   3.766   5.569  0.0953 -0.0117 -0.0305
    1AU     AUC   51   9.574   3.564   5.327 -0.0146 -0.0459 -0.0356
    1AU     AUC   52  10.305   4.350   5.898  0.0557 -0.0210  0.0034
    1AU     AUC   53  10.515   4.141   5.642 -0.0822 -0.0016 -0.0034
    1AU     AUC   54   9.501   4.284   5.405 -0.1479 -0.1358 -0.0045
    1AU     AUC   55   9.760   4.121   5.140  0.0087  0.0054 -0.1132
    1AU    AUSL   56   9.988   3.036   5.599  0.0057  0.0528  0.0289
    1AU    AUSL   57   9.564   3.145   5.388 -0.0020 -0.0283  0.0394
    1AU     AUL   58   9.825   2.846   5.364 -0.0355 -0.0849 -0.1023
    1AU       S   59   9.591   2.909   4.979  0.2723  0.2231  0.2941
    1AU     LIG   60   9.888   2.602   4.982  0.0654 -0.1593 -0.1865
    1AU     LIG   61  10.294   2.771   4.792  0.3512 -0.3130 -0.0756
    1AU       S   62   9.725   2.700   5.775 -0.0342 -0.3364 -0.1847
    1AU     LIG   63   9.758   2.408   6.139  0.1918  0.1186 -0.1045
    1AU     LIG   64   9.709   1.985   6.374 -0.2346 -0.3350  0.2499
    1AU    AUSL   65   9.611   3.186   5.813 -0.0158 -0.0429 -0.0275
    1AU    AUSL   66   9.779   3.367   6.188 -0.0778 -0.0508 -0.1663
    1AU     AUL   67   9.608   3.053   6.223 -0.0734  0.0365  0.0290
    1AU       S   68   9.531   2.887   5.779  0.0275 -0.0397 -0.4547
    1AU     LIG   69   9.341   2.711   5.386 -0.0177 -0.2592  0.2131
    1AU     LIG   70   9.083   2.400   5.303  0.2503  0.2106 -0.0021
    1AU       S   71   9.143   2.966   6.326 -0.2098  0.1136 -0.0723
    1AU     LIG   72   9.260   2.523   6.139 -0.0595  0.0372  0.1233
    1AU     LIG   73   9.319   2.270   5.789  0.0025  0.0893  0.1945
    1AU    AUSL   74   9.993   3.047   6.014  0.0926 -0.0407 -0.0426
    1AU    AUSL   75  10.373   3.103   5.823 -0.0484  0.0328  0.0164
    1AU     AUL   76  10.199   2.802   5.740  0.0161 -0.0353 -0.0255
    1AU       S   77  10.026   2.785   6.162  0.2696 -0.0187 -0.1169
    1AU     LIG   78  10.223   2.365   5.959  0.0623 -0.1256  0.0866
    1AU     LIG   79  10.138   1.974   6.014  0.0529 -0.0168 -0.0091
    1AU       S   80  10.527   2.920   6.077  0.5958  0.1314  0.0356
    1AU     LIG   81  10.649   2.653   5.737 -0.0170  0.1251  0.4551
    1AU     LIG   82  10.532   2.176   5.531 -0.0379  0.4267 -0.0305
    1AU    AUSL   83  10.481   4.237   5.037  0.0386  0.0039 -0.0141
    1AU    AUSL   84  10.776   4.312   5.343 -0.1451 -0.0080  0.0794
    1AU     AUL   85  10.801   4.419   4.977  0.0655 -0.0547  0.0469
    1AU       S   86  10.480   4.692   4.786 -0.0343  0.4727  0.0167
    1AU     LIG   87  10.824   4.713   4.570 -0.1980  0.3668  0.0671
    1AU     LIG   88  11.112   4.319   4.475 -0.0891  0.0366  0.0466
    1AU       S   89  11.102   4.183   5.227 -0.2354  0.1507  0.0574
    1AU     LIG   90  11.442   4.434   5.079 -0.2551 -0.2265  0.1506
    1AU     LIG   91  11.890   4.638   5.158 -0.4968  0.1408  0.0898
    1AU    AUSL   92  10.116   4.484   5.080  0.0089 -0.0853 -0.0511
    1AU    AUSL   93  10.138   3.988   4.994  0.1323  0.0038  0.0018
    1AU     AUL   94  10.399   4.197   4.784 -0.0226  0.0039  0.0615
    1AU       S   95   9.862   4.227   4.234 -0.1288 -0.1237  0.1192
    1AU     LIG   96   9.516   4.579   4.441 -0.1105 -0.3298 -0.0773
    1AU     LIG   97   9.336   4.907   4.791  0.1398  0.2052 -0.1753
    1AU       S   98  10.216   4.619   4.796  0.2826 -0.2126  0.0235
    1AU     LIG   99   9.812   4.912   4.712 -0.0992  0.1227 -0.1390
    1AU     LIG  100   9.612   5.297   4.728  0.2720 -0.1142 -0.1347
    1AU    AUSL  101  10.463   4.600   5.290 -0.0346 -0.0909  0.0028
    1AU    AUSL  102   9.859   4.812   5.223 -0.0570 -0.0554 -0.0163
    1AU     AUL  103  10.245   4.885   5.193 -0.0427 -0.0682  0.0737
    1AU       S  104   9.880   5.213   5.184 -0.1484  0.1186 -0.1531
    1AU     LIG  105  10.309   5.363   5.314  0.1134 -0.1514  0.5526
    1AU     LIG  106  10.457   5.604   5.009 -0.2373  0.1112  0.1009
    1AU       S  107  10.272   4.924   4.650  0.1896 -0.0567  0.1943
    1AU     LIG  108  10.444   4.974   4.198  0.2429 -0.1831  0.0108
    1AU     LIG  109  10.553   5.168   3.809 -0.0568  0.2354  0.2819
    1AU    AUSL  110   9.503   3.658   6.390 -0.1329 -0.0300  0.0129
    1AU    AUSL  111  10.005   3.593   6.488 -0.0867  0.0324  0.0358
    1AU     AUL  112   9.683   3.373   6.557 -0.1010 -0.0114 -0.0464
    1AU       S  113   9.230   3.238   6.524  0.2637 -0.1050 -0.2809
    1AU     LIG  114   9.425   3.026   6.800  0.2204  0.3629 -0.0940
    1AU     LIG  115   9.393   2.781   7.018  0.1142 -0.3171 -0.0748
    1AU       S  116   9.931   3.619   6.880  0.0208 -0.0080  0.1673
    1AU     LIG  117   9.827   3.236   7.054  0.2246 -0.1101  0.2450
    1AU     LIG  118   9.853   2.971   7.269 -0.1052  0.0210  0.1337
    1AU    AUSL  119   9.360   3.388   6.081  0.0517 -0.0621 -0.0417
    1AU    AUSL  120   9.304   3.819   6.035  0.0226 -0.0628  0.0271
    1AU     AUL  121   9.176   3.653   6.352 -0.0400  0.0581 -0.0242
    1AU       S  122   8.882   3.525   6.024  0.2125  0.1699  0.0694
    1AU     LIG  123   8.615   3.108   5.994 -0.1316 -0.0935  0.2238
    1AU     LIG  124   8.773   2.626   5.976  0.0561 -0.0192 -0.2017
    1AU       S  125   9.170   3.188   6.194 -0.0026 -0.0036 -0.1687
    1AU     LIG  126   9.077   3.112   5.759  0.0875  0.0343  0.2039
    1AU     LIG  127   8.761   2.851   5.518  0.1179 -0.1428  0.2047
    1AU    AUSL  128   9.793   4.865   5.655  0.0317 -0.1348 -0.0208
    1AU    AUSL  129   9.601   4.508   5.397 -0.0450  0.1053 -0.0350
    1AU     AUL  130   9.518   4.897   5.373  0.0673  0.0033 -0.0243
    1AU       S  131   9.804   5.279   5.523  0.1745  0.0233  0.3149
    1AU     LIG  132   9.633   5.696   5.522  0.2578  0.2637  0.2794
    1AU     LIG  133   9.502   6.071   5.637 -0.1957  0.0493 -0.1150
    1AU       S  134   9.085   4.911   5.623  0.2079 -0.0162 -0.1671
    1AU     LIG  135   8.856   5.270   5.701 -0.0428 -0.2049  0.2238
    1AU     LIG  136   8.382   5.418   5.701 -0.0862  0.2231 -0.1695
    1AU    AUSL  137  10.152   4.625   5.556  0.0211 -0.0409 -0.1633
    1AU    AUSL  138  10.009   4.673   5.980  0.0923 -0.0090  0.0623
    1AU     AUL  139  10.114   4.971   5.662  0.0516  0.0312  0.0790
    1AU       S  140  10.015   5.023   6.117  0.1501 -0.4932 -0.2946
    1AU     LIG  141   9.884   5.440   5.986  0.0078  0.2868  0.1931
    1AU     LIG  142   9.536   5.638   6.156 -0.2769  0.1748 -0.0174
    1AU       S  143   9.794   5.334   5.245 -0.1763 -0.0215  0.2402
    1AU     LIG  144   9.315   5.375   5.276 -0.1208  0.2797 -0.1321
    1AU     LIG  145   8.997   5.468   4.966 -0.0772 -0.0652 -0.1833
    1AU    AUSL  146  10.772   3.577   5.612 -0.0667 -0.0321 -0.0727
    1AU    AUSL  147  10.690   3.911   5.212 -0.0134 -0.0668  0.0170
    1AU     AUL  148  11.015   3.744   5.418 -0.0133  0.0549 -0.0189
    1AU       S  149  10.883   3.954   5.009 -0.0705  0.3062 -0.1322
    1AU     LIG  150  10.791   3.958   4.624 -0.0381 -0.0490  0.3152
    1AU     LIG  151  10.526   3.847   4.291 -0.0244  0.1903 -0.0038
    1AU       S  152  10.835   3.014   5.395 -0.1542  0.1595 -0.1582
    1AU     LIG  153  11.353   3.209   5.641  0.0761 -0.1082 -0.0407
    1AU     LIG  154  11.809   3.324   5.448  0.0162  0.2941  0.0907
    1AU    AUSL  155  10.656   3.493   5.199 -0.0356 -0.0235 -0.1185
    1AU    AUSL  156  10.297   3.270   5.088 -0.0110  0.0562 -0.0131
    1AU     AUL  157  10.640   3.186   4.966  0.0735  0.0355  0.0489
    1AU       S  158  10.901   3.293   5.310 -0.2988  0.1297  0.0938
    1AU     LIG  159  11.263   3.454   5.135 -0.4028  0.0590 -0.3022
    1AU     LIG  160  11.499   3.280   4.779  0.2163  0.1677  0.4349
    1AU       S  161  10.317   3.245   4.647 -0.0665 -0.3668  0.1150
    1AU     LIG  162  10.665   3.009   4.527 -0.3981 -0.1892  0.0890
    1AU     LIG  163  10.707   2.606   4.530  0.0577 -0.2288 -0.1552
    1AU    AUSL  164  10.391   3.345   5.488 -0.0064 -0.0341  0.0632
    1AU    AUSL  165  10.464   3.522   5.886  0.0182 -0.0320 -0.0152
    1AU     AUL  166  10.719   3.287   5.776  0.0437  0.1102  0.0518
    1AU       S  167  10.436   2.870   6.366 -0.0573 -0.8558  0.1874
    1AU     LIG  168  10.549   2.494   6.345  0.0453 -0.0689 -0.0509
    1AU     LIG  169  10.667   2.092   6.042  0.1172  0.0479 -0.2638
    1AU       S  170  10.603   3.063   5.415 -0.0679 -0.1392 -0.1413
    1AU     LIG  171  10.334   2.741   5.289 -0.0615  0.1810 -0.1136
    1AU     LIG  172  10.159   2.360   5.324  0.3151  0.5545 -0.1293
    1AU    AUSL  173   9.984   4.323   6.409 -0.0345  0.0504  0.0101
    1AU    AUSL  174   9.760   3.936   6.577 -0.0480  0.0286  0.0387
    1AU     AUL  175   9.839   4.266   6.733  0.0241 -0.0708 -0.0319
    1AU       S  176   9.720   3.798   6.836 -0.3822 -0.2044  0.0278
    1AU     LIG  177   9.320   3.522   6.940  0.0641  0.0817  0.1541
    1AU     LIG  178   8.982   3.628   7.018  0.1853  0.0825  0.2706
    1AU       S  179  10.342   4.388   6.700  0.1072  0.1665 -0.0094
    1AU     LIG  180  10.199   4.767   6.925  0.1758  0.1638 -0.1292
    1AU     LIG  181  10.268   5.099   7.278  0.3282 -0.0091  0.0082
    1AU    AUSL  182   9.695   4.626   6.247  0.0071 -0.0127 -0.0496
    1AU    AUSL  183  10.299   4.570   6.285 -0.0221  0.0737  0.0846
    1AU     AUL  184   9.991   4.692   6.457  0.0018 -0.0083  0.0406
    1AU       S  185   9.575   4.955   6.235  0.0791 -0.0123  0.1715
    1AU     LIG  186   9.731   5.332   6.440  0.0883  0.0911  0.0157
    1AU     LIG  187   9.986   5.663   6.398 -0.2937  0.1225 -0.2212
    1AU       S  188  10.425   4.891   6.376  0.0895 -0.1063  0.0460
    1AU     LIG  189  10.645   5.229   6.610 -0.0107  0.0025 -0.2127
    1AU     LIG  190  10.800   5.058   7.003 -0.2496 -0.4622  0.1881
    1AU    AUSL  191   9.582   4.201   6.293 -0.0284 -0.0602 -0.0975
    1AU    AUSL  192   9.296   4.523   6.151 -0.0688 -0.0041 -0.0943
    1AU     AUL  193   9.474   4.535   6.477  0.0188  0.0299  0.0256
    1AU       S  194   8.996   4.569   6.462  0.1283 -0.3848 -0.1565
    1AU     LIG  195   8.993   4.924   6.230 -0.3283 -0.1669  0.2813
    1AU     LIG  196   9.144   5.320   6.252  0.0156 -0.0329 -0.2976
    1AU       S  197   9.321   4.060   6.709 -0.3813  0.4272 -0.0498
    1AU     LIG  198   9.375   4.321   7.010  0.0026  0.0568 -0.0339
    1AU     LIG  199   9.181   4.661   7.041 -0.0708 -0.2319 -0.1214
    1AU    AUSL  200  10.010   3.538   4.908  0.0709  0.0077  0.0295
    1AU    AUSL  201   9.947   3.327   5.327  0.1155  0.0178  0.0564
    1AU     AUL  202  10.023   3.094   5.033 -0.0049  0.0666 -0.0026
    1AU       S  203  10.083   3.359   4.680 -0.1342 -0.3134 -0.5153
    1AU     LIG  204   9.997   3.533   4.227  0.2571 -0.2086  0.3117
    1AU     LIG  205  10.120   3.809   3.982  0.0779 -0.0972 -0.0054
    1AU       S  206   9.519   2.931   4.857 -0.4548  0.0142  0.1258
    1AU     LIG  207   9.382   2.439   4.921 -0.2471 -0.0779 -0.4163
    1AU     LIG  208   8.947   2.209   4.854 -0.0976  0.2041 -0.1857
    1AU    AUSL  209  10.411   3.686   4.916  0.0766  0.0349  0.2143
    1AU    AUSL  210   9.794   3.857   4.735  0.0015 -0.0433  0.0024
    1AU     AUL  211  10.146   3.832   4.653 -0.0798 -0.0471 -0.0180
    1AU       S  212  10.485   3.468   4.631  0.0079 -0.0890  0.1832
    1AU     LIG  213  10.445   3.343   4.089 -0.0258  0.3700  0.1431
    1AU     LIG  214  10.189   3.225   3.816  0.0376 -0.0723  0.4439
    1AU       S  215   9.808   3.992   4.380  0.0184 -0.3347 -0.3670
    1AU     LIG  216   9.585   3.880   4.060 -0.3417  0.2783  0.2636
    1AU     LIG  217   9.298   3.795   3.705  0.0665  0.0009 -0.0802
    1AU    AUSL  218   9.221   4.207   5.830  0.0175 -0.0496  0.0187
    1AU    AUSL  219   9.462   4.631   5.782  0.0373  0.0659 -0.0906
    1AU     AUL  220   9.061   4.503   5.972  0.0579 -0.0150 -0.0889
    1AU       S  221   9.304   4.856   5.771  0.1329 -0.4823  0.2271
    1AU     LIG  222   9.349   5.286   5.818  0.0129  0.2502  0.0475
    1AU     LIG  223   9.142   5.645   5.879 -0.4566 -0.1437 -0.0246
    1AU       S  224   8.862   4.406   6.619 -0.0429 -0.4387 -0.2396
    1AU     LIG  225   8.408   4.045   6.428 -0.1109  0.0070 -0.2449
    1AU     LIG  226   8.061   3.948   6.285 -0.1219  0.1084 -0.3802
    1AU    AUSL  227   9.169   4.132   6.273 -0.0401  0.0114 -0.0124
    1AU    AUSL  228   8.998   3.868   5.730  0.0875 -0.0335 -0.0819
    1AU     AUL  229   8.959   4.024   6.067  0.0219  0.0050  0.0563
    1AU       S  230   8.749   3.619   5.890 -0.2954 -0.0893  0.3844
    1AU     LIG  231   8.556   3.301   5.537  0.0569  0.1955 -0.0498
    1AU     LIG  232   8.520   3.129   5.243 -0.0452  0.1407  0.0031
    1AU       S  233   8.995   4.300   6.484 -0.1413  0.4220  0.0007
    1AU     LIG  234   8.865   3.934   6.616  0.0353  0.2167  0.2197
    1AU     LIG  235   8.532   3.716   6.748  0.2734  0.2037 -0.1554
    1AU    AUSL  236  10.410   3.656   6.336 -0.0527  0.0241 -0.0265
    1AU    AUSL  237  10.203   3.977   6.546 -0.0322 -0.0108 -0.0275
    1AU     AUL  238  10.352   3.575   6.632 -0.0516  0.0203 -0.0092
    1AU       S  239  10.179   3.935   6.855  0.1531 -0.7664 -0.1001
    1AU     LIG  240  10.279   4.188   7.159  0.1737 -0.1831  0.0936
    1AU     LIG  241  10.441   4.454   7.368 -0.0163  0.0213  0.2013
    1AU       S  242  10.829   3.696   6.567  0.2868 -0.1536  0.2169
    1AU     LIG  243  10.686   4.036   6.858 -0.0469  0.2959  0.1927
    1AU     LIG  244  10.838   4.508   6.880 -0.0247  0.1598 -0.0593
    1AU    AUSL  245  10.582   4.074   6.394  0.0295  0.0921  0.0323
    1AU    AUSL  246  10.851   4.124   5.969 -0.0798 -0.0828 -0.0574
    1AU     AUL  247  10.908   4.242   6.344 -0.0652 -0.0942 -0.0032
    1AU       S  248  11.106   3.590   6.470  0.3758  0.2543  0.4796
    1AU     LIG  249  11.124   3.248   6.182 -0.0826 -0.0478  0.1763
    1AU     LIG  250  11.124   2.905   5.948  0.5258  0.2182  0.0314
    1AU       S  251  11.133   4.458   5.959  0.2098  0.0788  0.3467
    1AU     LIG  252  11.433   4.261   5.622  0.1093  0.6122 -0.0504
    1AU     LIG  253  11.915   4.415   5.648 -0.1252 -0.5166 -0.1595
    1AU    AUSL  254  10.736   3.740   6.078 -0.0597 -0.0738  0.0453
    1AU    AUSL  255  10.247   3.306   6.212 -0.0535 -0.1478  0.0234
    1AU     AUL  256  10.649   3.396   6.237  0.0768  0.0844 -0.0016
    1AU       S  257  10.283   3.146   6.387  0.1918  0.6063 -0.1728
    1AU     LIG  258   9.979   3.020   6.655 -0.1689  0.0808  0.3414
    1AU     LIG  259   9.838   2.562   6.901 -0.0820 -0.0584 -0.0204
    1AU       S  260  10.926   3.764   6.271  0.2215  0.0542  0.1422
    1AU     LIG  261  11.142   3.627   5.874 -0.0976  0.2412  0.0164
    1AU     LIG  262  11.524   3.719   5.613 -0.1612  0.3386  0.1884
    1AU    AUSL  263   9.286   3.453   5.307  0.0929 -0.0825  0.1492
    1AU    AUSL  264   9.634   3.398   5.038 -0.0041 -0.0481  0.0137
    1AU     AUL  265   9.307   3.193   5.229 -0.0561 -0.0169  0.0749
    1AU       S  266   8.654   4.253   5.718  0.0751  0.1281  0.1705
    1AU     LIG  267   8.452   4.019   5.970  0.0930 -0.0055 -0.1368
    1AU     LIG  268   8.243   3.584   5.804  0.0465 -0.0811  0.0891
    1AU       S  269   9.616   3.250   4.844 -0.0217 -0.0298 -0.3691
    1AU     LIG  270   9.164   3.333   4.806 -0.1328 -0.1492  0.1514
    1AU     LIG  271   8.839   3.436   5.023  0.1561  0.3463  0.1050
    1AU    AUSL  272   9.241   3.892   5.395 -0.0218 -0.0884  0.0222
    1AU    AUSL  273   9.294   3.555   5.704 -0.0040 -0.0616  0.0620
    1AU     AUL  274   9.005   3.600   5.461 -0.0088  0.0297  0.0441
    1AU       S  275   8.806   4.065   5.372 -0.4267 -0.0178  0.0792
    1AU     LIG  276   8.543   3.736   5.365 -0.2504 -0.3159  0.0291
    1AU     LIG  277   8.095   3.529   5.261  0.3798  0.1842  0.1798
    1AU       S  278   8.674   3.586   6.207  0.0948  0.0755 -0.0479
    1AU     LIG  279   8.790   3.396   6.524  0.0274  0.2233  0.5914
    1AU     LIG  280   8.893   3.177   6.921 -0.1601  0.2620 -0.3136
    1AU    AUSL  281   9.384   3.718   4.969  0.0240 -0.0365  0.1239
    1AU    AUSL  282   9.232   4.206   5.128  0.0030 -0.0767  0.0486
    1AU     AUL  283   9.103   3.838   5.056  0.0771  0.0052  0.0005
    1AU       S  284   8.992   4.288   4.889  0.0883  0.1795 -0.1272
    1AU     LIG  285   8.671   3.907   4.843  0.2106 -0.4174 -0.2820
    1AU     LIG  286   8.376   3.618   4.894 -0.0515 -0.1832 -0.1832
    1AU       S  287   8.701   4.317   5.473  0.3091  0.0752  0.3088
    1AU     LIG  288   8.764   4.601   5.172  0.3245 -0.0617  0.1570
    1AU     LIG  289   9.012   5.002   5.148  0.2720 -0.0920  0.0803
    1AU    AUSL  290  10.672   4.432   5.728  0.0429  0.0216 -0.0528
    1AU    AUSL  291  10.667   3.989   5.624  0.0330  0.0205  0.0501
    1AU     AUL  292  10.974   4.143   5.675 -0.0347  0.0613 -0.0254
    1AU       S  293  10.952   4.622   5.734  0.4142 -0.4311  0.6009
    1AU     LIG  294  11.058   4.717   5.263  0.3406 -0.3254  0.2377
    1AU     LIG  295  11.250   4.861   4.840  0.3051  0.0382  0.1513
    1AU       S  296  11.155   4.047   4.974 -0.4130 -0.0781 -0.3071
    1AU     LIG  297  11.289   3.754   4.683 -0.0730 -0.2171  0.2318
    1AU     LIG  298  11.330   3.920   4.226 -0.1695 -0.0920  0.0520
    1AU    AUSL  299  10.433   4.260   6.051 -0.0352 -0.0821 -0.0114
    1AU    AUSL  300  10.415   4.724   5.880  0.0509  0.0134 -0.0642
    1AU     AUL  301  10.658   4.577   6.083 -0.0018 -0.0438 -0.0757
    1AU       S  302  11.184   4.689   5.913 -0.3625 -0.1235  0.0180
    1AU     LIG  303  11.088   5.062   5.733  0.2464 -0.3368  0.0433
    1AU     LIG  304  11.226   5.203   5.245  0.0519 -0.2637  0.0090
    1AU       S  305  10.353   4.985   6.072 -0.0993 -0.0602 -0.1049
    1AU     LIG  306  10.453   5.315   5.820 -0.2657  0.3208  0.7307
    1AU     LIG  307  10.786   5.461   5.443  0.2823 -0.1059  0.3166
    1AU    AUSL  308   9.569   4.454   5.002 -0.0046 -0.0582  0.0807
    1AU    AUSL  309   9.164   4.434   5.487 -0.0091  0.1014  0.0125
    1AU     AUL  310   9.263   4.602   5.148 -0.0028  0.0667 -0.0345
    1AU       S  311   9.077   4.695   5.534  0.1365 -0.0845 -0.2275
    1AU     LIG  312   8.673   4.801   5.797 -0.5329 -0.0106 -0.0296
    1AU     LIG  313   8.262   4.959   5.887 -0.1190  0.2389  0.1093
    1AU       S  314   9.030   4.500   4.701  0.2651 -0.4465 -0.1356
    1AU     LIG  315   8.973   4.739   4.430  0.0852 -0.3611 -0.1416
    1AU     LIG  316   9.143   5.240   4.527  0.2174 -0.0133 -0.2010
    1AU    AUSL  317   9.646   4.027   5.086  0.0636  0.0180 -0.0062
    1AU    AUSL  318   9.898   4.272   4.789  0.0026 -0.0699  0.0227
    1AU     AUL  319   9.545   4.178   4.737 -0.0622 -0.0985 -0.0361
    1AU       S  320   9.047   4.189   4.612  0.2702 -0.0239  0.1360
    1AU     LIG  321   9.191   3.770   4.534  0.0962 -0.0495 -0.1103
    1AU     LIG  322   9.485   3.492   4.433 -0.1009 -0.2423  0.1797
    1AU       S  323   9.988   4.257   4.490  0.2276 -0.5394  0.0417
    1AU     LIG  324  10.070   4.633   4.300 -0.2369  0.0136  0.2362
    1AU     LIG  325  10.294   4.689   3.835  0.0570 -0.1545 -0.0821
    2POPC   NC3  326   2.706   0.551   7.752  0.2182 -0.2268 -0.0300
    2POPC   PO4  327   2.389   0.810   7.830  0.0015 -0.1412 -0.2653
    2POPC   GL1  328   2.225   0.789   7.441  0.4277 -0.3304  0.0455
    2POPC   GL2  329   2.450   0.906   7.351 -0.2143 -0.2228 -0.1783
    2POPC   C1A  330   2.209   0.677   6.934 -0.2817 -0.0273  0.1526
    2POPC   D2A  331   2.107   0.657   6.555  0.0822  0.2801  0.1058
    2POPC   C3A  332   2.198   0.869   6.151 -0.2361 -0.1261  0.2124
    2POPC   C4A  333   2.346   0.667   5.837 -0.0291  0.1663 -0.1072
    2POPC   C1B  334   2.586   0.955   6.936 -0.1315  0.0083 -0.0279
    2POPC   C2B  335   2.692   1.126   6.622 -0.1195  0.0371 -0.2010
    2POPC   C3B  336   2.591   1.187   6.240  0.0092  0.2137  0.0612
    2POPC   C4B  337   2.768   0.903   5.834  0.0655  0.1436 -0.0402
    3POPC   NC3  338   2.373   4.159   7.616  0.1162  0.1416 -0.1565
    3POPC   PO4  339   2.348   3.710   7.583 -0.0473 -0.1802  0.2758
    3POPC   GL1  340   2.156   3.529   7.248  0.0688  0.0062 -0.0265
    3POPC   GL2  341   2.108   3.255   7.172  0.2451  0.1152 -0.0158
    3POPC   C1A  342   2.300   3.489   6.784 -0.1067 -0.1860  0.0782
    3POPC   D2A  343   2.485   3.609   6.387  0.0309 -0.2642 -0.1951
    3POPC   C3A  344   2.631   4.002   6.313  0.0560 -0.1527  0.1690
    3POPC   C4A  345   2.454   4.419   6.133  0.0624  0.1864 -0.1281
    3POPC   C1B  346   1.815   3.017   6.801  0.3109 -0.2279 -0.3224
    3POPC   C2B  347   1.637   2.789   6.512 -0.1408  0.3650  0.2359
    3POPC   C3B  348   1.386   2.509   6.284  0.4052 -0.0944 -0.3065
    3POPC   C4B  349   1.251   2.498   5.850  0.0442  0.1691 -0.0383
    4POPC   NC3  350   1.951   9.800   8.237  0.0781 -0.1955 -0.0218
    4POPC   PO4  351   1.921   9.910   7.796  0.0984 -0.0197  0.2386
    4POPC   GL1  352   1.973   9.829   7.315  0.0339  0.0298 -0.2562
    4POPC   GL2  353   2.175  10.103   7.220  0.1188  0.1021 -0.2072
    4POPC   C1A  354   1.646   9.635   7.050  0.0945  0.1158  0.2559
    4POPC   D2A  355   1.577   9.668   6.683 -0.0922 -0.1376  0.3225
    4POPC   C3A  356   2.010   9.614   6.455  0.1576 -0.1925 -0.1846
    4POPC   C4A  357   2.187   9.393   6.109  0.0376 -0.0268  0.1973
    4POPC   C1B  358   1.708  10.090   6.997 -0.2515 -0.1938  0.2120
    4POPC   C2B  359   1.364  10.165   6.665  0.0566 -0.2572 -0.1767
    4POPC   C3B  360   1.050  10.037   6.529 -0.0273 -0.0656 -0.1724
    4POPC   C4B  361   0.679   9.806   6.481 -0.1990 -0.0157  0.0339
    5POPC   NC3  362   6.805   0.620   7.769 -0.3067 -0.0472 -0.2076
    5POPC   PO4  363   6.542   0.927   7.895 -0.1699 -0.0588  0.0474
    5POPC   GL1  364   6.591   0.981   7.448  0.0151 -0.0447  0.1281
    5POPC   GL2  365   6.559   0.659   7.240 -0.0828 -0.1594  0.0555
    5POPC   C1A  366   6.505   1.122   6.940 -0.0315 -0.0798  0.0802
    5POPC   D2A  367   6.251   1.175   6.580  0.0940 -0.1568  0.0982
    5POPC   C3A  368   6.071   0.797   6.283 -0.3317  0.3234 -0.1094
    5POPC   C4A  369   6.099   0.500   5.868  0.1082  0.0289 -0.0163
    5POPC   C1B  370   6.937   0.636   6.966 -0.1283 -0.0334 -0.1149
    5POPC   C2B  371   7.005   0.873   6.602 -0.0500 -0.1257 -0.1505
    5POPC   C3B  372   6.784   1.089   6.327 -0.2212 -0.2817 -0.2164
    5POPC   C4B  373   6.621   1.190   5.944 -0.0825 -0.0677  0.1561
    6POPC   NC3  374   8.341   0.475   7.624  0.0327 -0.0509 -0.2173
    6POPC   PO4  375   8.360   0.795   7.924  0.2592 -0.2218  0.0762
    6POPC   GL1  376   8.226   0.915   7.466  0.0211  0.3915  0.2722
    6POPC   GL2  377   8.087   1.185   7.389  0.0141 -0.4481  0.3668
    6POPC   C1A  378   8.552   1.116   7.262  0.3931  0.2505  0.3151
    6POPC   D2A  379   8.585   1.333   6.905  0.1110  0.1274 -0.2015
    6POPC   C3A  380   8.795   1.135   6.548 -0.0525 -0.0034 -0.0299
    6POPC   C4A  381   8.779   0.731   6.337 -0.2297  0.2939  0.2189
    6POPC   C1B  382   7.862   1.208   6.989  0.0606  0.0643 -0.0783
    6POPC   C2B  383   8.084   1.248   6.684  0.1436 -0.2120 -0.1508
    6POPC   C3B  384   8.363   1.478   6.486  0.2373 -0.4653 -0.4210
    6POPC   C4B  385   8.306   1.601   6.028 -0.0337 -0.1178 -0.0639
    7POPC   NC3  386   1.855   5.784   7.768 -0.2926  0.1466 -0.2271
    7POPC   PO4  387   2.088   6.054   7.472  0.1080  0.1801 -0.0503
    7POPC   GL1  388   2.069   6.075   7.039  0.1173  0.3599 -0.0658
    7POPC   GL2  389   2.190   6.362   7.097 -0.2096  0.0132  0.0706
    7POPC   C1A  390   1.930   6.131   6.676 -0.2458 -0.1339 -0.3825
    7POPC   D2A  391   1.827   6.136   6.321 -0.1502 -0.0029  0.1758
    7POPC   C3A  392   2.186   5.989   5.978  0.0031 -0.4727 -0.2643
    7POPC   C4A  393   2.498   6.328   5.940 -0.0594 -0.0044  0.0369
    7POPC   C1B  394   2.244   6.531   6.727  0.0532  0.2832 -0.0750
    7POPC   C2B  395   2.459   6.771   6.506  0.1381  0.3014 -0.2236
    7POPC   C3B  396   2.631   6.775   6.075  0.0253  0.1207  0.1253
    7POPC   C4B  397   2.394   6.838   5.717  0.2671  0.0864 -0.1154
    8POPC   NC3  398   2.918   4.905   7.544  0.4977  0.3036 -0.0496
    8POPC   PO4  399   2.652   4.508   7.512 -0.2666 -0.4591  0.0141
    8POPC   GL1  400   2.819   4.414   7.019  0.0135  0.0252 -0.1463
    8POPC   GL2  401   3.057   4.548   7.069 -0.2425  0.2289  0.2904
    8POPC   C1A  402   3.083   4.123   6.749 -0.3658  0.1418 -0.5146
    8POPC   D2A  403   3.180   3.978   6.350 -0.4563 -0.0203 -0.1530
    8POPC   C3A  404   3.114   3.607   6.400 -0.0452  0.0596  0.2085
    8POPC   C4A  405   2.883   3.283   6.256  0.1642  0.0916 -0.0775
    8POPC   C1B  406   3.434   4.510   6.741  0.1990 -0.1653 -0.1251
    8POPC   C2B  407   3.595   4.236   6.549  0.0513  0.1184 -0.0995
    8POPC   C3B  408   3.613   3.719   6.350 -0.1266  0.1743 -0.0650
    8POPC   C4B  409   3.343   3.391   6.005 -0.1073  0.0604  0.0244
    9POPC   NC3  410   4.524   7.510   7.327  0.2182  0.1332 -0.1225
    9POPC   PO4  411   4.277   7.235   7.608 -0.0930 -0.1328  0.0255
    9POPC   GL1  412   4.244   7.050   7.268 -0.1589 -0.3641  0.3511
    9POPC   GL2  413   4.363   6.708   7.201  0.3975 -0.0530 -0.4056
    9POPC   C1A  414   4.447   7.051   6.897  0.1884 -0.0512 -0.1315
    9POPC   D2A  415   4.639   6.869   6.506 -0.1666  0.1692 -0.0048
    9POPC   C3A  416   4.739   6.868   6.067  0.1028 -0.1466 -0.0515
    9POPC   C4A  417   5.039   7.173   5.919 -0.2221 -0.1932  0.3326
    9POPC   C1B  418   4.640   6.603   6.926  0.1138  0.0553  0.1420
    9POPC   C2B  419   4.995   6.500   6.819  0.0963 -0.0441 -0.0475
    9POPC   C3B  420   5.165   6.343   6.596 -0.1479  0.1393 -0.0987
    9POPC   C4B  421   5.389   6.136   6.309  0.3197  0.2347  0.2184
   10POPC   NC3  422   3.294   7.015   7.537 -0.0180 -0.0681  0.0492
   10POPC   PO4  423   2.947   7.285   7.497 -0.1719 -0.0856  0.0561
   10POPC   GL1  424   3.075   7.266   7.101  0.0729 -0.1448 -0.1536
   10POPC   GL2  425   2.783   7.372   6.980  0.1264 -0.1376 -0.0736
   10POPC   C1A  426   3.161   7.343   6.662 -0.1057  0.2891 -0.1592
   10POPC   D2A  427   3.039   7.574   6.312 -0.3685 -0.0646 -0.0467
   10POPC   C3A  428   3.047   7.195   6.014  0.0987 -0.1389  0.0301
   10POPC   C4A  429   3.143   6.878   6.272  0.2504  0.0485  0.1189
   10POPC   C1B  430   2.860   7.714   6.953 -0.0187 -0.1325  0.1650
   10POPC   C2B  431   2.955   7.970   6.597  0.0517  0.1046 -0.2487
   10POPC   C3B  432   2.830   8.234   6.292 -0.1169 -0.6129  0.1385
   10POPC   C4B  433   2.866   8.460   5.914 -0.0856 -0.2085 -0.0474
   11POPC   NC3  434   5.057   0.594   7.832  0.0968  0.0296  0.0895
   11POPC   PO4  435   5.453   0.309   7.890  0.0749  0.0532  0.1180
   11POPC   GL1  436   5.336   0.452   7.463 -0.2492  0.0160  0.4256
   11POPC   GL2  437   5.247   0.735   7.295  0.0424  0.1330  0.0030
   11POPC   C1A  438   5.428   0.344   7.025 -0.2758 -0.0547 -0.0661
   11POPC   D2A  439   5.736   0.601   6.760  0.0706  0.0654  0.2472
   11POPC   C3A  440   5.834   1.048   6.758 -0.2316  0.0264 -0.0556
   11POPC   C4A  441   5.985   1.442   6.895  0.0767  0.1425 -0.2089
   11POPC   C1B  442   5.331   0.867   6.796  0.1060 -0.2554 -0.3875
   11POPC   C2B  443   5.184   0.768   6.430  0.3545 -0.0846  0.2941
   11POPC   C3B  444   5.199   0.303   6.414 -0.0017  0.0353  0.2201
   11POPC   C4B  445   4.970   0.126   6.135  0.6184  0.0900 -0.1613
   12POPC   NC3  446   2.838   3.041   7.832  0.0258  0.2011 -0.1926
   12POPC   PO4  447   3.241   3.129   7.905 -0.0681 -0.2236  0.1573
   12POPC   GL1  448   3.204   2.905   7.520  0.1318  0.0102  0.1526
   12POPC   GL2  449   2.957   2.879   7.363 -0.0180  0.3452  0.2008
   12POPC   C1A  450   3.571   2.876   7.241  0.1119  0.1364 -0.2103
   12POPC   D2A  451   3.885   3.091   7.067  0.1353  0.2505 -0.1266
   12POPC   C3A  452   4.021   3.130   6.566 -0.1272  0.0360 -0.0063
   12POPC   C4A  453   3.973   3.446   6.267 -0.0607 -0.1215 -0.1959
   12POPC   C1B  454   3.103   2.791   6.985 -0.1742  0.1744  0.1899
   12POPC   C2B  455   3.413   2.584   6.725  0.2998  0.0740 -0.0531
   12POPC   C3B  456   3.720   2.744   6.501  0.0987  0.2531 -0.2746
   12POPC   C4B  457   3.836   2.911   6.164  0.1550 -0.1076 -0.0426
   13POPC   NC3  458   4.653   1.431   7.840 -0.1626  0.0552  0.1278
   13POPC   PO4  459   4.887   1.509   7.566 -0.2748  0.0094  0.0478
   13POPC   GL1  460   5.029   1.424   7.228 -0.2139  0.0673 -0.0524
   13POPC   GL2  461   5.016   1.721   7.125  0.2812  0.1068  0.1260
   13POPC   C1A  462   4.875   1.259   6.808  0.0390  0.4300 -0.1478
   13POPC   D2A  463   4.711   1.015   6.618 -0.2954  0.2313 -0.0583
   13POPC   C3A  464   4.415   1.150   6.295 -0.0585  0.0005 -0.0212
   13POPC   C4A  465   4.072   0.898   6.102  0.1309  0.3381  0.0681
   13POPC   C1B  466   5.195   1.635   6.742 -0.2404  0.4376 -0.4358
   13POPC   C2B  467   5.390   1.254   6.490 -0.1196 -0.2759  0.2160
   13POPC   C3B  468   5.621   0.934   6.311 -0.0142 -0.2074 -0.0268
   13POPC   C4B  469   5.562   0.584   6.143 -0.0136 -0.0652  0.0403
   14POPC   NC3  470   1.942   8.485   7.613  0.1398 -0.2962 -0.3121
   14POPC   PO4  471   1.802   8.120   7.481  0.0132 -0.3514 -0.0580
   14POPC   GL1  472   1.809   7.903   7.088 -0.1966  0.0905  0.2096
   14POPC   GL2  473   1.886   8.209   6.986  0.1058 -0.3393 -0.2595
   14POPC   C1A  474   2.033   7.888   6.653 -0.1052 -0.0241 -0.0599
   14POPC   D2A  475   2.090   7.631   6.192 -0.1353 -0.0577  0.3067
   14POPC   C3A  476   1.876   7.769   5.806  0.2341  0.1533  0.1895
   14POPC   C4A  477   1.706   8.096   5.528  0.4475  0.0800  0.0374
   14POPC   C1B  478   1.472   8.183   6.840 -0.2759 -0.1359  0.0973
   14POPC   C2B  479   1.289   8.328   6.527 -0.0921 -0.2374 -0.2405
   14POPC   C3B  480   1.175   8.725   6.649  0.1496 -0.1701  0.0601
   14POPC   C4B  481   1.342   9.176   6.844 -0.0117 -0.2603 -0.5136
   15POPC   NC3  482   9.076   2.117   8.208  0.1796 -0.1947 -0.2044
   15POPC   PO4  483   9.189   1.668   8.210 -0.2474  0.1220 -0.0624
   15POPC   GL1  484   8.936   1.566   7.733  0.0520  0.0017 -0.1664
   15POPC   GL2  485   9.042   1.348   7.562  0.0580 -0.1762  0.2684
   15POPC   C1A  486   8.574   1.599   7.390  0.1415  0.2412  0.2696
   15POPC   D2A  487   8.628   1.838   6.910 -0.0177 -0.0197  0.0840
   15POPC   C3A  488   8.920   1.678   6.653  0.2244  0.0138  0.0265
   15POPC   C4A  489   8.778   1.723   6.249  0.1482  0.1886 -0.2841
   15POPC   C1B  490   9.298   1.255   7.214 -0.1397  0.0695  0.1994
   15POPC   C2B  491   9.319   1.321   6.776  0.2748  0.0124  0.2458
   15POPC   C3B  492   9.158   1.348   6.270  0.2121  0.2723  0.0434
   15POPC   C4B  493   9.242   1.741   6.003  0.0687 -0.1850  0.0076
   16POPC   NC3  494   3.127   1.578   8.324  0.1142  0.4797  0.1219
   16POPC   PO4  495   2.872   1.585   8.013  0.2066  0.0737 -0.0595
   16POPC   GL1  496   2.927   1.609   7.532  0.4245 -0.0031  0.2352
   16POPC   GL2  497   2.791   1.919   7.469  0.2494 -0.1230 -0.2947
   16POPC   C1A  498   2.820   1.479   7.107  0.4858 -0.1257 -0.0670
   16POPC   D2A  499   2.688   1.613   6.726  0.1525 -0.0588 -0.0024
   16POPC   C3A  500   3.038   1.664   6.412  0.0938 -0.2626  0.1507
   16POPC   C4A  501   3.002   1.440   6.016 -0.0045  0.3190  0.0255
   16POPC   C1B  502   2.969   1.928   7.111 -0.1305 -0.0756  0.2809
   16POPC   C2B  503   3.356   1.913   6.769  0.0857  0.1775  0.2009
   16POPC   C3B  504   3.526   1.571   6.341 -0.1148  0.0123 -0.2355
   16POPC   C4B  505   3.495   1.210   6.198  0.3541 -0.0635  0.0483
   17POPC   NC3  506   7.069  10.430   7.815  0.0363  0.0256 -0.1367
   17POPC   PO4  507   6.669  10.390   7.645  0.0552  0.1937 -0.2401
   17POPC   GL1  508   6.990  10.660   7.341  0.0577  0.2140 -0.0335
   17POPC   GL2  509   6.876  10.936   7.290 -0.0425  0.1528  0.2872
   17POPC   C1A  510   6.928  10.504   6.958  0.0671  0.3396  0.2093
   17POPC   D2A  511   6.877  10.357   6.600  0.3130  0.0335 -0.1282
   17POPC   C3A  512   6.421  10.110   6.435  0.4961 -0.1183 -0.1735
   17POPC   C4A  513   6.043  10.062   6.629 -0.1254 -0.3005  0.4019
   17POPC   C1B  514   6.535  11.029   6.963  0.2070  0.2746 -0.1162
   17POPC   C2B  515   6.628  10.797   6.649 -0.0083  0.0330 -0.0014
   17POPC   C3B  516   6.603  10.519   6.208 -0.2155 -0.2748  0.2140
   17POPC   C4B  517   6.426  10.040   5.988 -0.4387  0.0743  0.0293
   18POPC   NC3  518   1.598   8.726   7.934  0.0583  0.1203 -0.1124
   18POPC   PO4  519   1.932   8.942   7.803  0.1233 -0.1193 -0.2013
   18POPC   GL1  520   1.907   8.936   7.354 -0.0020  0.1854 -0.0248
   18POPC   GL2  521   1.933   9.198   7.146 -0.0780 -0.0444  0.1811
   18POPC   C1A  522   2.078   8.744   6.956  0.0074  0.2176 -0.0227
   18POPC   D2A  523   2.141   8.926   6.558 -0.0732  0.0803 -0.0427
   18POPC   C3A  524   2.008   8.911   6.145  0.1208 -0.2599  0.0887
   18POPC   C4A  525   1.557   9.090   5.966  0.0099  0.2013  0.0082
   18POPC   C1B  526   1.839   9.216   6.743  0.2555  0.0252 -0.0316
   18POPC   C2B  527   1.611   9.210   6.409  0.1052  0.1761 -0.0432
   18POPC   C3B  528   1.243   9.029   6.309 -0.2105 -0.3117  0.3390
   18POPC   C4B  529   0.902   8.890   6.267 -0.3686 -0.1169  0.2549
   19POPC   NC3  530   6.802   7.636   7.253  0.0380 -0.0025  0.2441
   19POPC   PO4  531   7.336   7.611   7.124 -0.0703 -0.1768 -0.0181
   19POPC   GL1  532   7.508   7.463   6.727 -0.1518 -0.0130  0.0669
   19POPC   GL2  533   7.518   7.036   6.664  0.2035 -0.2355 -0.1288
   19POPC   C1A  534   7.670   7.332   6.329  0.2634  0.0409 -0.1109
   19POPC   D2A  535   7.422   7.036   5.968  0.1251 -0.1024  0.1290
   19POPC   C3A  536   6.988   6.953   6.059 -0.0485  0.2477 -0.0197
   19POPC   C4A  537   6.614   6.767   6.015 -0.1149  0.3232 -0.1163
   19POPC   C1B  538   7.332   6.748   6.358 -0.2893  0.0570 -0.0936
   19POPC   C2B  539   6.976   6.507   6.303 -0.0682 -0.0893  0.1666
   19POPC   C3B  540   6.610   6.291   6.130 -0.1286  0.0030  0.2733
   19POPC   C4B  541   6.486   5.927   5.981 -0.2797 -0.0912 -0.3396
   20POPC   NC3  542   7.156   6.060   7.412  0.3428 -0.0152 -0.4596
   20POPC   PO4  543   7.396   5.676   7.538 -0.3408  0.2794 -0.1601
   20POPC   GL1  544   7.622   5.535   7.166  0.1093  0.4566 -0.0062
   20POPC   GL2  545   7.588   5.174   7.096  0.0593 -0.0033  0.0563
   20POPC   C1A  546   7.531   5.436   6.698 -0.0116  0.0276 -0.1798
   20POPC   D2A  547   7.735   5.449   6.207 -0.1544  0.2188 -0.3693
   20POPC   C3A  548   8.173   5.481   6.235 -0.1505 -0.4500 -0.0029
   20POPC   C4A  549   8.594   5.252   6.153 -0.1298  0.2160 -0.0859
   20POPC   C1B  550   7.103   5.299   7.051 -0.2148  0.2032 -0.2210
   20POPC   C2B  551   7.031   5.637   6.745 -0.1945 -0.0194 -0.1991
   20POPC   C3B  552   7.144   5.470   6.312  0.0892  0.1750 -0.1230
   20POPC   C4B  553   7.329   5.360   5.882  0.1118 -0.0057  0.1995
   21POPC   NC3  554   9.158   9.756   7.447 -0.1310 -0.0526  0.1869
   21POPC   PO4  555   8.696   9.778   7.477  0.0174  0.1830  0.2270
   21POPC   GL1  556   8.784   9.629   7.133 -0.1753  0.1193 -0.0891
   21POPC   GL2  557   8.996   9.378   7.122 -0.1337 -0.2589  0.1828
   21POPC   C1A  558   8.983   9.866   6.783  0.0700 -0.1724  0.4292
   21POPC   D2A  559   9.041  10.199   6.479  0.2715  0.3356 -0.0740
   21POPC   C3A  560   8.931  10.059   6.128  0.0804 -0.1091  0.1056
   21POPC   C4A  561   9.035   9.790   5.872  0.0802 -0.0161  0.0399
   21POPC   C1B  562   8.992   9.395   6.711  0.0022 -0.1696 -0.2378
   21POPC   C2B  563   9.324   9.195   6.395 -0.1101  0.1092  0.2557
   21POPC   C3B  564   9.209   9.076   6.081 -0.0174  0.0280  0.1166
   21POPC   C4B  565   9.103   9.334   5.650 -0.0619  0.0245 -0.3871
   22POPC   NC3  566   8.800   3.176   8.860 -0.3536 -0.1614 -0.0022
   22POPC   PO4  567   8.955   2.918   8.383 -0.0139  0.2709  0.1030
   22POPC   GL1  568   8.867   2.807   7.906  0.1630 -0.1067 -0.1665
   22POPC   GL2  569   8.859   2.433   7.803 -0.1161  0.0486  0.0948
   22POPC   C1A  570   8.461   2.845   7.732 -0.0338 -0.2948  0.0207
   22POPC   D2A  571   8.219   3.117   7.521  0.3307 -0.0792  0.0481
   22POPC   C3A  572   7.844   2.889   7.505 -0.3735  0.0247  0.0834
   22POPC   C4A  573   7.515   2.636   7.301 -0.1163  0.2189  0.0090
   22POPC   C1B  574   8.872   2.672   7.390 -0.0253 -0.0658 -0.0282
   22POPC   C2B  575   8.754   2.639   6.892  0.0309 -0.1694 -0.1047
   22POPC   C3B  576   9.087   2.600   6.635 -0.0855  0.1796 -0.4406
   22POPC   C4B  577   9.538   2.642   6.553 -0.1027 -0.1850  0.0477
   23POPC   NC3  578   9.829   9.089   7.473 -0.0877  0.0706 -0.5725
   23POPC   PO4  579   9.419   9.370   7.463 -0.2800 -0.0367 -0.1942
   23POPC   GL1  580   9.590   9.257   7.069 -0.1712  0.3083 -0.2142
   23POPC   GL2  581   9.466   9.620   6.993 -0.1690  0.1549 -0.0475
   23POPC   C1A  582   9.758   9.180   6.685 -0.2687 -0.2006  0.2835
   23POPC   D2A  583   9.896   8.929   6.389  0.1102  0.0656 -0.3931
   23POPC   C3A  584   9.657   8.964   5.947  0.1557 -0.1351  0.1641
   23POPC   C4A  585   9.623   9.222   5.596  0.1291  0.1738 -0.3234
   23POPC   C1B  586   9.538   9.649   6.598  0.1434 -0.0925  0.0578
   23POPC   C2B  587   9.217   9.766   6.344 -0.1538 -0.0730 -0.2937
   23POPC   C3B  588   8.878   9.482   6.161 -0.2353  0.0457  0.0442
   23POPC   C4B  589   8.627   9.471   5.802 -0.0144  0.1037  0.1661
   24POPC   NC3  590   3.778   9.616   7.373 -0.0765  0.0708  0.3201
   24POPC   PO4  591   3.490   9.942   7.381 -0.1227 -0.2809  0.0969
   24POPC   GL1  592   3.508  10.292   6.977  0.1392 -0.0123 -0.0857
   24POPC   GL2  593   3.463  10.523   7.188  0.2582  0.0579 -0.2816
   24POPC   C1A  594   3.740  10.651   6.692  0.0237  0.2959 -0.2370
   24POPC   D2A  595   3.880  10.942   6.332  0.0385 -0.0277  0.1707
   24POPC   C3A  596   3.600  11.159   5.943  0.0229  0.2838 -0.2232
   24POPC   C4A  597   3.380  11.205   5.603  0.2845  0.2960 -0.2470
   24POPC   C1B  598   3.430  10.872   6.977 -0.1049  0.1325  0.0480
   24POPC   C2B  599   3.436  11.348   6.895  0.0260  0.1005  0.1328
   24POPC   C3B  600   3.179  11.694   6.935  0.0431 -0.0049  0.0627
   24POPC   C4B  601   2.962  11.747   7.253 -0.1433  0.0266 -0.2201
   25POPC   NC3  602   5.229   2.156   7.968  0.1120 -0.3027  0.0766
   25POPC   PO4  603   5.624   2.168   7.812 -0.1229  0.0940  0.0652
   25POPC   GL1  604   5.812   1.989   7.463 -0.2488 -0.1243 -0.1489
   25POPC   GL2  605   6.086   2.238   7.495 -0.0476  0.0763  0.2185
   25POPC   C1A  606   6.109   1.922   7.099 -0.0865 -0.4967  0.0242
   25POPC   D2A  607   6.156   1.914   6.639 -0.0566 -0.3032 -0.0174
   25POPC   C3A  608   5.935   2.094   6.265 -0.1877 -0.3176  0.1781
   25POPC   C4A  609   5.883   2.218   5.867  0.0981 -0.1085 -0.1310
   25POPC   C1B  610   6.037   2.694   7.429  0.1225  0.0204 -0.1515
   25POPC   C2B  611   6.261   2.934   7.133 -0.1990 -0.0484 -0.2139
   25POPC   C3B  612   6.032   3.266   6.953  0.1219  0.1443 -0.0715
   25POPC   C4B  613   6.108   3.512   6.566  0.2178  0.0143 -0.3268
   26POPC   NC3  614   7.916  10.181   7.938 -0.0996  0.0340 -0.2466
   26POPC   PO4  615   7.936  10.237   7.524 -0.2498  0.0264 -0.3932
   26POPC   GL1  616   7.664  10.331   7.160 -0.1072 -0.2937  0.0194
   26POPC   GL2  617   7.479  10.537   7.172  0.2649 -0.3919  0.0713
   26POPC   C1A  618   7.869  10.478   6.809 -0.1239  0.1245  0.1000
   26POPC   D2A  619   7.985  10.468   6.517  0.0095  0.1059 -0.0053
   26POPC   C3A  620   8.111  10.077   6.311 -0.0207  0.1130  0.1801
   26POPC   C4A  621   8.119   9.654   6.326  0.0286 -0.1046  0.0154
   26POPC   C1B  622   7.403  10.447   6.708  0.1248  0.4598 -0.1839
   26POPC   C2B  623   7.581  10.124   6.483  0.0447 -0.0939 -0.2401
   26POPC   C3B  624   7.703   9.839   6.115  0.4830  0.0435 -0.0800
   26POPC   C4B  625   7.545   9.518   5.838  0.2271 -0.1738  0.0933
   27POPC   NC3  626   5.095   1.719   8.067 -0.0123  0.1102 -0.0781
   27POPC   PO4  627   4.760   1.949   7.874  0.1007 -0.2128  0.0442
   27POPC   GL1  628   4.649   2.006   7.481 -0.2733 -0.1404 -0.2360
   27POPC   GL2  629   4.541   1.772   7.307 -0.1462 -0.2971 -0.0092
   27POPC   C1A  630   4.712   2.304   7.091 -0.2380 -0.0767 -0.1114
   27POPC   D2A  631   4.581   2.392   6.654 -0.0366  0.0823  0.4817
   27POPC   C3A  632   4.782   2.172   6.302  0.0243 -0.0509 -0.0571
   27POPC   C4A  633   4.845   2.036   5.868  0.0777  0.0098 -0.1760
   27POPC   C1B  634   4.660   1.870   6.843  0.0784  0.2303  0.1830
   27POPC   C2B  635   4.725   1.615   6.480  0.0276  0.2853  0.0463
   27POPC   C3B  636   4.883   1.239   6.230 -0.1371  0.1047 -0.0903
   27POPC   C4B  637   5.232   1.113   6.020  0.1596  0.0276 -0.3614
   28POPC   NC3  638   1.109   1.966   8.142 -0.0879  0.1293  0.0830
   28POPC   PO4  639   1.463   1.611   8.127  0.0127  0.0663  0.0086
   28POPC   GL1  640   1.244   1.393   7.874  0.0040 -0.2470 -0.0691
   28POPC   GL2  641   1.185   1.719   7.565 -0.0112  0.1265  0.0066
   28POPC   C1A  642   1.337   1.203   7.434  0.2861  0.0355 -0.1527
   28POPC   D2A  643   1.439   1.187   7.000  0.3237  0.1933 -0.0441
   28POPC   C3A  644   1.616   0.818   6.810  0.0538  0.2814  0.0875
   28POPC   C4A  645   1.569   0.643   6.425  0.0286  0.1312  0.1110
   28POPC   C1B  646   1.301   1.639   7.060  0.0444 -0.3535 -0.2702
   28POPC   C2B  647   1.332   1.588   6.558  0.0271 -0.2486  0.3203
   28POPC   C3B  648   1.309   1.596   6.136  0.1608 -0.0590  0.0008
   28POPC   C4B  649   1.299   1.966   5.771  0.0411 -0.3924  0.1297
   29POPC   NC3  650   2.570   2.167   7.910 -0.0855 -0.0542 -0.0584
   29POPC   PO4  651   2.754   2.414   7.648  0.2863  0.0432  0.2691
   29POPC   GL1  652   2.943   2.413   7.268 -0.3488  0.3197  0.4388
   29POPC   GL2  653   2.672   2.481   7.065  0.0052 -0.0275  0.3908
   29POPC   C1A  654   2.981   2.291   6.744 -0.1064  0.1127 -0.1835
   29POPC   D2A  655   3.074   2.214   6.376 -0.2957  0.1857 -0.1857
   29POPC   C3A  656   2.882   2.218   6.091 -0.1284  0.0750  0.2816
   29POPC   C4A  657   2.719   2.372   5.738  0.1146 -0.1276 -0.0442
   29POPC   C1B  658   2.445   2.316   6.758  0.0749 -0.0108  0.0121
   29POPC   C2B  659   2.643   2.035   6.552 -0.1943 -0.0111  0.3164
   29POPC   C3B  660   2.577   1.702   6.205  0.1256 -0.1821  0.0188
   29POPC   C4B  661   2.607   1.603   5.676 -0.0772  0.1617  0.0483
   30POPC   NC3  662   7.364   7.042   7.632  0.2457  0.1800 -0.0025
   30POPC   PO4  663   6.960   7.123   7.369  0.3575 -0.0050  0.1842
   30POPC   GL1  664   7.041   7.082   6.924  0.0560  0.4817 -0.3423
   30POPC   GL2  665   6.998   6.780   6.778  0.1561 -0.3652  0.1182
   30POPC   C1A  666   7.115   7.157   6.485 -0.1999 -0.2163 -0.1466
   30POPC   D2A  667   7.182   7.485   6.220 -0.0834 -0.2006  0.0857
   30POPC   C3A  668   7.195   7.803   5.981  0.0181 -0.0460 -0.3058
   30POPC   C4A  669   7.343   7.849   5.520 -0.1349  0.0501 -0.0716
   30POPC   C1B  670   6.635   6.852   6.564  0.0907  0.1304 -0.2530
   30POPC   C2B  671   6.226   6.998   6.308  0.2270  0.0743 -0.0117
   30POPC   C3B  672   6.095   7.231   5.993  0.1775 -0.0182 -0.1173
   30POPC   C4B  673   6.180   7.088   5.576 -0.1952  0.1147  0.1014
   31POPC   NC3  674  10.031   2.637   8.968 -0.0882 -0.3594  0.0329
   31POPC   PO4  675  10.009   2.482   8.591 -0.2080  0.0818 -0.0838
   31POPC   GL1  676  10.116   2.207   8.198  0.3186  0.2004  0.2432
   31POPC   GL2  677  10.116   1.928   8.047 -0.0035  0.0277  0.0326
   31POPC   C1A  678   9.906   2.322   7.812  0.0719 -0.1885  0.1320
   31POPC   D2A  679   9.610   2.597   7.511  0.0720  0.0445 -0.2185
   31POPC   C3A  680   9.276   2.366   7.285 -0.0753  0.2931 -0.0329
   31POPC   C4A  681   8.939   2.172   6.998 -0.0048 -0.2621 -0.1682
   31POPC   C1B  682  10.008   1.822   7.579 -0.3778  0.1245 -0.1067
   31POPC   C2B  683  10.234   1.543   7.265 -0.0416  0.2888 -0.1947
   31POPC   C3B  684  10.344   1.572   6.781 -0.3072 -0.0135 -0.0066
   31POPC   C4B  685  10.221   1.738   6.409  0.0333 -0.1435  0.0845
   32POPC   NC3  686   2.200   9.423   7.502 -0.2712  0.1689  0.0355
   32POPC   PO4  687   2.434   9.003   7.467 -0.0426  0.0932 -0.1534
   32POPC   GL1  688   2.499   9.297   7.105  0.1243  0.1176 -0.0605
   32POPC   GL2  689   2.266   9.570   7.025  0.1029  0.0085  0.0777
   32POPC   C1A  690   2.472   9.214   6.692  0.2307 -0.0419 -0.0372
   32POPC   D2A  691   2.575   9.143   6.242  0.0699  0.2033  0.0878
   32POPC   C3A  692   2.943   8.993   5.994  0.0567  0.0368 -0.0471
   32POPC   C4A  693   3.346   9.076   5.775  0.3671  0.2688  0.3881
   32POPC   C1B  694   2.302   9.919   6.822  0.1243  0.2595  0.0282
   32POPC   C2B  695   2.589  10.151   6.539 -0.2391 -0.0219  0.1847
   32POPC   C3B  696   2.496  10.421   6.214 -0.0971  0.3536 -0.0623
   32POPC   C4B  697   2.274  10.556   5.933  0.1047  0.0840  0.0357
   33POPC   NC3  698   0.347   4.903   7.992 -0.3221  0.4271  0.0180
   33POPC   PO4  699   0.808   4.853   7.704  0.0298  0.2046 -0.0830
   33POPC   GL1  700   0.817   4.965   7.180  0.0197  0.1695 -0.0445
   33POPC   GL2  701   1.062   4.965   7.112 -0.0348 -0.0137 -0.0245
   33POPC   C1A  702   0.543   4.767   6.867  0.1231  0.0152 -0.0252
   33POPC   D2A  703   0.240   4.756   6.501  0.0989 -0.3756 -0.1508
   33POPC   C3A  704   0.135   5.094   6.194 -0.0329 -0.0239  0.0784
   33POPC   C4A  705   0.159   5.512   5.976  0.0314  0.0929  0.0350
   33POPC   C1B  706   0.931   4.918   6.624  0.1229  0.0834  0.1651
   33POPC   C2B  707   0.694   5.035   6.315  0.0475 -0.0038  0.2635
   33POPC   C3B  708   0.804   5.309   5.945 -0.0253 -0.3988  0.0685
   33POPC   C4B  709   0.640   5.642   6.064 -0.0841 -0.0292 -0.0211
   34POPC   NC3  710   1.899   0.729   8.500 -0.0247  0.1181  0.1105
   34POPC   PO4  711   1.870   0.775   8.110  0.1109  0.0963  0.1989
   34POPC   GL1  712   1.724   0.841   7.665 -0.1117 -0.0245  0.3602
   34POPC   GL2  713   1.589   0.825   7.563  0.3682  0.3056 -0.0803
   34POPC   C1A  714   1.846   1.033   7.210 -0.2337  0.2220 -0.1331
   34POPC   D2A  715   1.847   1.357   6.822  0.0420 -0.1194 -0.2319
   34POPC   C3A  716   1.772   1.132   6.380 -0.3922  0.0081 -0.2500
   34POPC   C4A  717   1.681   1.274   6.027 -0.0597 -0.0218  0.2335
   34POPC   C1B  718   1.797   0.563   7.201  0.0083  0.2111 -0.1468
   34POPC   C2B  719   2.222   0.277   7.221 -0.0902  0.1821 -0.0098
   34POPC   C3B  720   2.542   0.320   6.811 -0.1841  0.0125 -0.0838
   34POPC   C4B  721   2.715   0.075   6.439  0.1234  0.0842 -0.1869
   35POPC   NC3  722   4.232  10.572   8.138 -0.0228 -0.0835 -0.0075
   35POPC   PO4  723   4.024  10.803   7.828 -0.0303 -0.0303  0.0893
   35POPC   GL1  724   4.076  11.087   7.390 -0.2782  0.0373  0.2221
   35POPC   GL2  725   4.244  11.384   7.288 -0.0551 -0.1160  0.0483
   35POPC   C1A  726   3.873  11.094   6.972  0.3454  0.0643 -0.0906
   35POPC   D2A  727   3.948  11.436   6.597 -0.0039  0.3507 -0.3711
   35POPC   C3A  728   3.627  11.474   6.401  0.0440 -0.0388  0.0792
   35POPC   C4A  729   3.357  11.056   6.492 -0.3173 -0.5906 -0.0383
   35POPC   C1B  730   3.942  11.712   7.177 -0.1471  0.2007  0.3281
   35POPC   C2B  731   3.695  11.862   6.844 -0.0611 -0.0678 -0.5120
   35POPC   C3B  732   3.880  11.950   6.491 -0.0343 -0.1105 -0.3554
   35POPC   C4B  733   4.104  12.247   6.336  0.0478  0.1447 -0.2016
   36POPC   NC3  734  10.328   2.033   8.607  0.3397 -0.1196  0.0386
   36POPC   PO4  735  10.624   2.024   8.306 -0.2138 -0.0662 -0.1828
   36POPC   GL1  736  10.689   2.008   7.913  0.3822 -0.1339  0.1493
   36POPC   GL2  737  10.500   1.664   7.870 -0.2540  0.0809 -0.3904
   36POPC   C1A  738  10.952   2.231   7.613  0.0192 -0.2286  0.0427
   36POPC   D2A  739  11.204   2.083   7.272 -0.1355  0.0240  0.1910
   36POPC   C3A  740  10.991   2.133   6.879 -0.0952  0.1312  0.2012
   36POPC   C4A  741  10.951   2.486   6.767  0.2422  0.1034  0.3575
   36POPC   C1B  742  10.468   1.913   7.461  0.1278  0.2532 -0.0645
   36POPC   C2B  743  10.690   1.788   7.082  0.4131 -0.2021 -0.3538
   36POPC   C3B  744  10.833   1.642   6.754 -0.1597  0.0444 -0.2059
   36POPC   C4B  745  10.966   1.703   6.331  0.0041 -0.1329 -0.0086
   37POPC   NC3  746   0.026   8.929   7.725  0.0609  0.1486 -0.1882
   37POPC   PO4  747   0.229   9.074   7.480 -0.2011 -0.1258  0.2382
   37POPC   GL1  748   0.129   8.907   7.143 -0.2170  0.1915  0.1190
   37POPC   GL2  749   0.465   8.831   7.067 -0.0216  0.3272 -0.1026
   37POPC   C1A  750   0.252   8.845   6.662 -0.3290 -0.1816  0.1743
   37POPC   D2A  751   0.318   8.807   6.243 -0.2276 -0.7534 -0.4634
   37POPC   C3A  752   0.047   8.551   5.995  0.3237 -0.4407  0.0446
   37POPC   C4A  753  -0.283   8.353   6.242  0.1031 -0.1934 -0.2089
   37POPC   C1B  754   0.594   9.300   7.021  0.0778 -0.5828  0.1749
   37POPC   C2B  755   0.617   9.786   7.073  0.2504  0.1920 -0.2131
   37POPC   C3B  756   0.865  10.204   7.029  0.1361  0.0145 -0.2527
   37POPC   C4B  757   1.020  10.534   6.723  0.1048 -0.3867  0.1256
   38POPC   NC3  758  10.545  10.479   8.456  0.4157 -0.0545  0.3454
   38POPC   PO4  759  10.620  10.646   8.089  0.0274 -0.0027  0.2277
   38POPC   GL1  760  10.609  10.681   7.597 -0.3151  0.0250 -0.2901
   38POPC   GL2  761  10.644  10.988   7.332 -0.2837 -0.2583  0.1785
   38POPC   C1A  762  10.746  10.567   7.093 -0.0708 -0.1090  0.0089
   38POPC   D2A  763  10.479  10.371   6.741 -0.2507 -0.0240  0.1757
   38POPC   C3A  764  10.379  10.581   6.453 -0.2209  0.0676  0.0665
   38POPC   C4A  765  10.294  10.694   6.071 -0.0644 -0.0747 -0.1078
   38POPC   C1B  766  10.501  11.329   7.005  0.0387 -0.1973 -0.2867
   38POPC   C2B  767  10.474  11.461   6.505 -0.1222 -0.2607  0.0293
   38POPC   C3B  768  10.669  11.727   5.951  0.3347  0.3094 -0.0617
   38POPC   C4B  769  10.538  11.925   5.547 -0.0464  0.2142  0.0292
   39POPC   NC3  770   4.805   3.865   7.771 -0.2607 -0.0570  0.3482
   39POPC   PO4  771   4.707   3.389   7.816 -0.0625  0.1193  0.0275
   39POPC   GL1  772   4.943   3.528   7.395  0.0894  0.2523  0.2035
   39POPC   GL2  773   5.270   3.262   7.364 -0.1632  0.0881  0.0970
   39POPC   C1A  774   5.279   3.854   7.234  0.2824  0.1439 -0.3793
   39POPC   D2A  775   5.688   3.813   6.946  0.0225 -0.0019  0.2015
   39POPC   C3A  776   5.704   3.791   6.450 -0.0326 -0.1061  0.0058
   39POPC   C4A  777   5.751   3.429   6.115  0.0952  0.1859  0.2161
   39POPC   C1B  778   5.211   3.167   6.946  0.3920  0.2710  0.2000
   39POPC   C2B  779   4.959   3.228   6.521 -0.1056  0.2509 -0.3524
   39POPC   C3B  780   4.951   3.554   6.215  0.2245  0.1251  0.0091
   39POPC   C4B  781   5.275   3.876   6.212 -0.2666 -0.1166 -0.0490
   40POPC   NC3  782   5.313   8.723   7.722 -0.1355 -0.0906 -0.2857
   40POPC   PO4  783   4.914   8.834   7.507  0.0878 -0.0033  0.0081
   40POPC   GL1  784   5.148   9.082   7.116  0.0386  0.1985  0.0056
   40POPC   GL2  785   4.961   9.340   7.173 -0.1043  0.0129 -0.0248
   40POPC   C1A  786   5.292   9.448   6.736  0.2896  0.1330  0.3815
   40POPC   D2A  787   5.488   9.418   6.375 -0.1268  0.0783  0.2851
   40POPC   C3A  788   5.234   9.533   5.953 -0.1061 -0.0177 -0.2559
   40POPC   C4A  789   5.072   9.249   5.596  0.0058  0.0543 -0.0674
   40POPC   C1B  790   4.757   9.323   6.775  0.2835 -0.1882  0.1301
   40POPC   C2B  791   4.863   9.400   6.444  0.2847 -0.0455 -0.1252
   40POPC   C3B  792   4.694   9.437   6.045 -0.3563 -0.0823  0.0152
   40POPC   C4B  793   4.313   9.336   5.891  0.2034  0.0723  0.0819
   41POPC   NC3  794   3.985   1.954   8.141  0.0170 -0.1404  0.2030
   41POPC   PO4  795   3.829   2.344   8.389 -0.0299  0.3084  0.0220
   41POPC   GL1  796   4.100   2.559   8.028  0.0533 -0.1395  0.2536
   41POPC   GL2  797   4.325   2.446   7.797  0.0963  0.1140 -0.3926
   41POPC   C1A  798   4.013   2.718   7.600  0.1138 -0.0226 -0.0899
   41POPC   D2A  799   3.877   2.531   7.123 -0.3421 -0.1073  0.1126
   41POPC   C3A  800   3.755   2.203   6.662  0.3700 -0.1520 -0.3292
   41POPC   C4A  801   3.548   2.304   6.305  0.1445  0.0125  0.2212
   41POPC   C1B  802   4.171   2.197   7.393  0.1156 -0.3532 -0.0904
   41POPC   C2B  803   4.196   2.061   6.923  0.0644 -0.1901  0.1706
   41POPC   C3B  804   4.265   2.025   6.508 -0.0479  0.3543 -0.0648
   41POPC   C4B  805   4.434   1.838   6.033  0.1840  0.2154  0.0074
   42POPC   NC3  806   2.905   8.672   7.488  0.0268 -0.1823 -0.0233
   42POPC   PO4  807   2.745   8.219   7.385  0.0462  0.3494  0.0440
   42POPC   GL1  808   2.831   8.419   7.052  0.1179  0.4758  0.1727
   42POPC   GL2  809   2.680   8.724   7.043  0.1071 -0.5119  0.1642
   42POPC   C1A  810   3.149   8.391   6.716  0.1495  0.1885  0.5168
   42POPC   D2A  811   3.370   8.379   6.287  0.3227 -0.2592 -0.1006
   42POPC   C3A  812   3.262   8.006   5.984  0.3080 -0.3031 -0.1367
   42POPC   C4A  813   3.479   7.580   5.871  0.0957 -0.2492 -0.0843
   42POPC   C1B  814   2.808   8.794   6.627  0.0215  0.1422  0.1794
   42POPC   C2B  815   3.183   8.813   6.402  0.0427  0.2244 -0.0486
   42POPC   C3B  816   3.409   9.153   6.285 -0.1847 -0.0709 -0.0728
   42POPC   C4B  817   3.805   9.374   6.179  0.3412 -0.0433 -0.2668
   43POPC   NC3  818   5.473   7.208   8.064  0.0106 -0.0393 -0.4084
   43POPC   PO4  819   5.097   7.049   7.761  0.2876  0.0708  0.2634
   43POPC   GL1  820   5.383   7.037   7.467  0.1671  0.1915  0.0240
   43POPC   GL2  821   5.184   7.233   7.241 -0.0865 -0.1276  0.3001
   43POPC   C1A  822   5.485   6.916   7.011 -0.2672  0.0587 -0.1614
   43POPC   D2A  823   5.735   7.006   6.688 -0.2439  0.4851 -0.2159
   43POPC   C3A  824   5.604   7.204   6.397 -0.3534 -0.0103  0.0269
   43POPC   C4A  825   5.520   7.109   5.935 -0.0926 -0.2233  0.1726
   43POPC   C1B  826   5.012   6.958   6.910  0.0924 -0.0830 -0.0328
   43POPC   C2B  827   5.171   6.866   6.441  0.1391  0.2066  0.0032
   43POPC   C3B  828   5.288   6.708   6.089 -0.0062  0.0732 -0.0062
   43POPC   C4B  829   5.387   6.651   5.708  0.3303  0.0758 -0.0614
   44POPC   NC3  830  10.372   2.922   8.519 -0.3486 -0.1357  0.0733
   44POPC   PO4  831  10.478   2.625   8.716  0.2827  0.3932 -0.1107
   44POPC   GL1  832  10.468   2.543   8.250 -0.3006 -0.0719 -0.0613
   44POPC   GL2  833  10.198   2.708   8.017 -0.2928  0.1104 -0.3192
   44POPC   C1A  834  10.520   2.437   7.760  0.2641  0.0706  0.2648
   44POPC   D2A  835  10.660   2.494   7.316 -0.2553  0.1608  0.1128
   44POPC   C3A  836  10.387   2.196   7.025  0.2835  0.1918 -0.1272
   44POPC   C4A  837  10.523   2.076   6.618 -0.4061 -0.2650  0.2985
   44POPC   C1B  838  10.116   2.769   7.675 -0.0160  0.2190 -0.1851
   44POPC   C2B  839  10.196   2.554   7.391 -0.0566  0.0067 -0.0662
   44POPC   C3B  840   9.927   2.205   7.251  0.2246 -0.1895 -0.1080
   44POPC   C4B  841   9.567   1.976   7.357  0.1047  0.5778 -0.0114
   45POPC   NC3  842  10.325   6.989   7.734 -0.0592 -0.1748  0.2818
   45POPC   PO4  843  10.723   7.076   7.712 -0.1400  0.0500 -0.1857
   45POPC   GL1  844  10.579   7.072   7.249 -0.0216 -0.0717  0.0972
   45POPC   GL2  845  10.837   6.882   7.274  0.1792  0.4166 -0.0789
   45POPC   C1A  846  10.545   7.081   6.726 -0.3420 -0.0744 -0.0917
   45POPC   D2A  847  10.608   7.199   6.256 -0.1851  0.2077  0.0101
   45POPC   C3A  848  10.629   6.808   6.045  0.2114  0.0589 -0.1906
   45POPC   C4A  849  10.766   6.370   6.107  0.1230  0.4387 -0.3771
   45POPC   C1B  850  10.963   6.754   6.912 -0.1185 -0.0191 -0.3617
   45POPC   C2B  851  10.978   6.812   6.444  0.0165 -0.0584  0.0576
   45POPC   C3B  852  11.157   6.758   5.991 -0.0512  0.3476  0.0751
   45POPC   C4B  853  11.311   6.551   5.633  0.2147 -0.0715 -0.1938
   46POPC   NC3  854  10.628   8.448   7.484  0.0608  0.2417 -0.4017
   46POPC   PO4  855  10.359   8.863   7.371 -0.2620 -0.1025  0.2824
   46POPC   GL1  856  10.480   8.552   7.026  0.2376 -0.2128  0.1805
   46POPC   GL2  857  10.528   8.731   6.734 -0.1949  0.1803 -0.2064
   46POPC   C1A  858  10.323   8.243   6.854 -0.0931  0.2164  0.4504
   46POPC   D2A  859   9.997   8.137   6.548  0.0583 -0.2279  0.1916
   46POPC   C3A  860  10.010   7.971   6.082  0.0108 -0.3295  0.1806
   46POPC   C4A  861   9.646   7.679   5.874  0.0527  0.1545  0.0377
   46POPC   C1B  862  10.502   8.839   6.313 -0.0020  0.1165 -0.2292
   46POPC   C2B  863  10.239   8.826   5.884 -0.0423  0.0530 -0.2712
   46POPC   C3B  864  10.101   8.978   5.502 -0.1204 -0.1265  0.2891
   46POPC   C4B  865  10.042   9.430   5.321 -0.3272  0.2612 -0.0532
   47POPC   NC3  866   0.299   9.539   7.570 -0.0102  0.1262  0.5039
   47POPC   PO4  867   0.626   9.532   7.839  0.0713 -0.2573  0.0888
   47POPC   GL1  868   0.982   9.662   7.637  0.0137 -0.2449 -0.1481
   47POPC   GL2  869   0.967   9.981   7.491 -0.0083  0.1964 -0.0233
   47POPC   C1A  870   1.174   9.364   7.260  0.2231 -0.3201 -0.2393
   47POPC   D2A  871   1.018   8.886   7.170 -0.1492  0.0118 -0.0265
   47POPC   C3A  872   0.833   9.060   6.700  0.1514  0.0884  0.1153
   47POPC   C4A  873   0.668   9.271   6.480  0.1558 -0.2614  0.1172
   47POPC   C1B  874   1.168   9.855   7.062  0.0206  0.0331  0.2287
   47POPC   C2B  875   0.991   9.539   6.790  0.0578 -0.2259  0.0247
   47POPC   C3B  876   1.172   9.558   6.356  0.1209 -0.2647 -0.0968
   47POPC   C4B  877   1.576   9.633   6.145 -0.1119  0.1813 -0.0356
   48POPC   NC3  878   2.349   7.997   7.494 -0.3041 -0.1384  0.0137
   48POPC   PO4  879   2.173   7.654   7.282 -0.0948  0.2784  0.0388
   48POPC   GL1  880   2.353   7.715   6.960 -0.1170 -0.0292  0.0581
   48POPC   GL2  881   2.466   8.048   7.017 -0.1528 -0.0173  0.0364
   48POPC   C1A  882   2.511   7.813   6.534 -0.1321 -0.1420  0.1961
   48POPC   D2A  883   2.671   7.837   6.039  0.1876 -0.0072  0.1307
   48POPC   C3A  884   2.513   8.094   5.692 -0.0352  0.0709  0.3138
   48POPC   C4A  885   2.807   8.366   5.474 -0.2389 -0.0847  0.0444
   48POPC   C1B  886   2.485   8.314   6.694 -0.0933  0.1138 -0.0583
   48POPC   C2B  887   2.438   8.582   6.376  0.0684 -0.2072 -0.2887
   48POPC   C3B  888   2.364   8.621   5.937  0.1071  0.1488 -0.2191
   48POPC   C4B  889   2.050   8.368   5.806 -0.3558  0.3980 -0.1094
   49POPC   NC3  890   8.345   1.200   8.229  0.0681  0.2155  0.5334
   49POPC   PO4  891   8.094   1.537   8.012  0.0412  0.1162 -0.1244
   49POPC   GL1  892   8.061   1.643   7.609  0.2195  0.1663 -0.2732
   49POPC   GL2  893   7.880   1.945   7.512 -0.2510 -0.3353 -0.2674
   49POPC   C1A  894   8.106   1.634   7.170 -0.0743  0.1929 -0.0183
   49POPC   D2A  895   8.076   1.776   6.727 -0.0972 -0.0329 -0.1784
   49POPC   C3A  896   8.324   1.969   6.393  0.1435 -0.0492  0.1668
   49POPC   C4A  897   8.603   2.200   6.117  0.0184 -0.1543  0.0165
   49POPC   C1B  898   8.160   2.122   7.076 -0.2094  0.0189 -0.0704
   49POPC   C2B  899   8.404   2.329   6.826  0.0544 -0.1775 -0.0350
   49POPC   C3B  900   8.715   2.267   6.563  0.0335  0.3438 -0.3495
   49POPC   C4B  901   9.181   2.139   6.367  0.0797 -0.1704  0.0909
   50POPC   NC3  902   6.010   1.646   7.784  0.1053  0.0526  0.0231
   50POPC   PO4  903   5.542   1.657   7.738 -0.3215 -0.3058 -0.1493
   50POPC   GL1  904   5.345   1.771   7.473  0.0575 -0.0802 -0.0063
   50POPC   GL2  905   5.151   2.011   7.523  0.1817 -0.0821 -0.2191
   50POPC   C1A  906   5.596   1.739   7.051 -0.1145 -0.1203 -0.0063
   50POPC   D2A  907   5.641   1.802   6.567 -0.2263 -0.2199 -0.1373
   50POPC   C3A  908   5.904   1.532   6.413 -0.2799  0.0840  0.1128
   50POPC   C4A  909   6.101   1.262   6.131  0.0238 -0.1661 -0.0895
   50POPC   C1B  910   5.220   2.227   7.132  0.1521  0.1564 -0.1048
   50POPC   C2B  911   5.209   2.226   6.703 -0.2317  0.1245  0.0942
   50POPC   C3B  912   5.237   1.932   6.310 -0.1302  0.1762 -0.0336
   50POPC   C4B  913   5.461   1.930   5.904  0.0169  0.5406 -0.0529
   51POPC   NC3  914   7.710   0.257   7.963 -0.4562  0.1603  0.0188
   51POPC   PO4  915   7.882   0.597   7.758 -0.0908 -0.0307  0.4228
   51POPC   GL1  916   7.928   0.551   7.291  0.4194 -0.1073 -0.1219
   51POPC   GL2  917   7.657   0.740   7.113  0.1030  0.1514 -0.2488
   51POPC   C1A  918   8.132   0.799   7.007 -0.1852 -0.4016 -0.1139
   51POPC   D2A  919   8.400   0.853   6.738 -0.0542  0.3938 -0.1076
   51POPC   C3A  920   8.257   0.880   6.299  0.1300 -0.0122 -0.2181
   51POPC   C4A  921   8.159   1.063   5.896  0.0219 -0.0871  0.3762
   51POPC   C1B  922   7.425   0.670   6.704  0.0916  0.1676 -0.3244
   51POPC   C2B  923   7.267   0.586   6.324  0.1944 -0.4219  0.1844
   51POPC   C3B  924   7.059   0.807   5.974 -0.2152 -0.0619  0.0436
   51POPC   C4B  925   6.745   0.692   5.554 -0.1367  0.0850  0.0603
   52POPC   NC3  926   2.159   2.607   8.379  0.0320 -0.0419  0.0461
   52POPC   PO4  927   2.021   2.581   7.894  0.0837  0.4365 -0.0818
   52POPC   GL1  928   1.965   2.606   7.534 -0.1392 -0.0809  0.0853
   52POPC   GL2  929   1.761   2.927   7.359  0.0229  0.3808  0.1144
   52POPC   C1A  930   2.176   2.747   7.130 -0.0042  0.0244 -0.1308
   52POPC   D2A  931   2.249   2.846   6.733 -0.2753 -0.1948 -0.0986
   52POPC   C3A  932   2.605   2.719   6.447  0.1254 -0.1587  0.0238
   52POPC   C4A  933   2.969   2.719   6.477  0.2361  0.0596 -0.0231
   52POPC   C1B  934   1.603   2.612   7.220  0.0988  0.0022 -0.0464
   52POPC   C2B  935   1.288   2.475   6.833 -0.0011  0.1091 -0.1053
   52POPC   C3B  936   1.129   2.046   6.687  0.0460  0.3819  0.0753
   52POPC   C4B  937   1.186   2.046   6.267 -0.0914 -0.1076  0.4113
   53POPC   NC3  938   4.538   9.975   7.492 -0.0970 -0.1189 -0.0404
   53POPC   PO4  939   4.317  10.282   7.653 -0.0273 -0.0824 -0.3513
   53POPC   GL1  940   4.554  10.454   7.242 -0.1008 -0.2123 -0.0811
   53POPC   GL2  941   4.292  10.622   7.030 -0.1048 -0.1209  0.0715
   53POPC   C1A  942   4.788  10.689   6.925 -0.2488 -0.2198 -0.3017
   53POPC   D2A  943   5.125  10.671   6.822  0.1754 -0.2228 -0.0447
   53POPC   C3A  944   5.200  10.209   6.735 -0.0471  0.2905 -0.3885
   53POPC   C4A  945   5.211   9.896   6.367 -0.0102  0.1360 -0.0184
   53POPC   C1B  946   4.433  10.496   6.577 -0.3018 -0.1242  0.0665
   53POPC   C2B  947   4.854  10.418   6.495  0.1331 -0.3733  0.1827
   53POPC   C3B  948   5.284  10.547   6.336  0.0985  0.2696  0.0310
   53POPC   C4B  949   5.644  10.361   6.342 -0.2746 -0.0326  0.0418
   54POPC   NC3  950   6.997   1.924   7.732  0.0003 -0.2172 -0.0645
   54POPC   PO4  951   7.263   2.237   7.905 -0.0906 -0.0321  0.0345
   54POPC   GL1  952   7.586   2.306   7.755  0.1210 -0.2018  0.0359
   54POPC   GL2  953   7.375   2.137   7.439  0.2675  0.1850  0.0451
   54POPC   C1A  954   7.945   2.434   7.414  0.2256  0.2328 -0.2440
   54POPC   D2A  955   7.908   2.710   6.938  0.0126  0.4147 -0.1454
   54POPC   C3A  956   7.822   2.802   6.564 -0.0503  0.1716  0.2600
   54POPC   C4A  957   7.890   2.915   6.137  0.0696 -0.2479 -0.1931
   54POPC   C1B  958   7.604   2.174   7.112  0.2944 -0.0553  0.1518
   54POPC   C2B  959   7.870   2.251   6.685 -0.3149  0.2775 -0.1517
   54POPC   C3B  960   8.164   2.444   6.413 -0.1161 -0.0491  0.0385
   54POPC   C4B  961   8.278   2.617   6.101 -0.0283 -0.0519  0.0172
   55POPC   NC3  962   8.777   8.688   8.031  0.2164 -0.0269  0.1683
   55POPC   PO4  963   8.811   8.616   7.665 -0.3647  0.0553 -0.1579
   55POPC   GL1  964   8.910   8.877   7.290  0.0442 -0.0589 -0.0015
   55POPC   GL2  965   8.672   8.841   7.130  0.0208  0.0327 -0.0324
   55POPC   C1A  966   9.208   8.925   6.996 -0.1242 -0.0435 -0.1224
   55POPC   D2A  967   9.399   8.730   6.662 -0.0621 -0.1077 -0.4179
   55POPC   C3A  968   9.466   8.312   6.606  0.2095 -0.1708  0.0445
   55POPC   C4A  969   9.619   7.950   6.347  0.1352 -0.0008  0.1543
   55POPC   C1B  970   8.803   8.950   6.636 -0.2138  0.2214  0.1539
   55POPC   C2B  971   9.030   8.736   6.334  0.0751  0.0233 -0.1841
   55POPC   C3B  972   9.373   8.561   6.147 -0.0467  0.3068 -0.1477
   55POPC   C4B  973   9.833   8.510   6.187  0.1721  0.3137 -0.2119
   56POPC   NC3  974   7.585   0.957   7.545  0.0846 -0.1377 -0.0127
   56POPC   PO4  975   7.518   1.326   7.775  0.0726 -0.3250  0.3005
   56POPC   GL1  976   7.573   1.447   7.417 -0.1239  0.2358 -0.0102
   56POPC   GL2  977   7.255   1.655   7.396  0.1334  0.0859  0.2587
   56POPC   C1A  978   7.627   1.692   7.007  0.4375  0.0556 -0.0184
   56POPC   D2A  979   7.591   1.585   6.536  0.0632  0.1633  0.0652
   56POPC   C3A  980   7.851   1.930   6.266  0.2639 -0.0694 -0.2511
   56POPC   C4A  981   8.067   2.207   5.993  0.3806  0.1503  0.1166
   56POPC   C1B  982   7.246   1.319   7.079  0.1848 -0.0621  0.0646
   56POPC   C2B  983   7.386   1.215   6.781 -0.3300 -0.0381 -0.0979
   56POPC   C3B  984   7.669   1.048   6.506 -0.3159 -0.0606  0.2579
   56POPC   C4B  985   7.903   1.391   6.157  0.4858 -0.3813 -0.0087
   57POPC   NC3  986   6.651   8.824   7.351  0.0073 -0.0317 -0.2956
   57POPC   PO4  987   6.315   8.590   7.560  0.0007 -0.0581 -0.0820
   57POPC   GL1  988   6.123   8.611   7.118  0.1848  0.1249  0.0533
   57POPC   GL2  989   6.225   8.932   6.965 -0.1136  0.0882  0.0001
   57POPC   C1A  990   6.154   8.631   6.587  0.0212 -0.2360 -0.1457
   57POPC   D2A  991   6.006   8.438   6.272  0.0334 -0.0049  0.0903
   57POPC   C3A  992   6.075   8.605   5.866  0.3902 -0.1088 -0.0124
   57POPC   C4A  993   5.800   8.754   5.653  0.0295 -0.5447  0.0116
   57POPC   C1B  994   6.333   9.146   6.510 -0.0145  0.4884 -0.1868
   57POPC   C2B  995   6.725   9.423   6.363 -0.1532 -0.3247  0.1237
   57POPC   C3B  996   6.751   9.678   5.896  0.0137 -0.2240 -0.1131
   57POPC   C4B  997   6.966   9.598   5.483 -0.0329  0.2338  0.0439
   58POPC   NC3  998   7.513   9.800   8.035  0.2607  0.2608  0.2032
   58POPC   PO4  999   7.449  10.107   7.845 -0.2238  0.1718  0.1816
   58POPC   GL1 1000   7.367  10.058   7.412  0.1314  0.1242 -0.3233
   58POPC   GL2 1001   7.063  10.187   7.371 -0.1647 -0.2597 -0.0348
   58POPC   C1A 1002   7.513   9.845   6.990  0.0542  0.2862 -0.0556
   58POPC   D2A 1003   7.743   9.669   6.616 -0.1612 -0.0744  0.0751
   58POPC   C3A 1004   7.940   9.272   6.729 -0.0696  0.2201  0.0198
   58POPC   C4A 1005   7.834   8.853   6.499 -0.0975  0.1548  0.1606
   58POPC   C1B 1006   7.072  10.063   6.958 -0.1231 -0.3455  0.0774
   58POPC   C2B 1007   7.149   9.904   6.458  0.0606 -0.0164 -0.2357
   58POPC   C3B 1008   7.166   9.532   6.140 -0.0042 -0.3177  0.1231
   58POPC   C4B 1009   7.007   9.120   6.141  0.2178  0.2303 -0.0434
   59POPC   NC3 1010   2.052   3.073   7.685 -0.0577 -0.2683  0.0245
   59POPC   PO4 1011   2.395   3.261   7.836 -0.2312 -0.2193  0.0785
   59POPC   GL1 1012   2.594   3.324   7.428 -0.4707  0.2674 -0.2432
   59POPC   GL2 1013   2.944   3.396   7.415 -0.0792  0.1760  0.0524
   59POPC   C1A 1014   2.623   3.031   7.080 -0.0411 -0.2924  0.1625
   59POPC   D2A 1015   2.739   3.188   6.738  0.1672 -0.1206  0.0936
   59POPC   C3A 1016   2.399   3.131   6.280 -0.0540  0.1638 -0.4566
   59POPC   C4A 1017   1.949   3.107   6.217 -0.0899 -0.1071 -0.1407
   59POPC   C1B 1018   3.241   3.251   7.102 -0.0855  0.1876  0.0076
   59POPC   C2B 1019   3.481   3.280   6.827  0.1678  0.1180 -0.0161
   59POPC   C3B 1020   3.400   3.107   6.438 -0.0506 -0.1002  0.1197
   59POPC   C4B 1021   3.307   2.843   6.097  0.1948 -0.1072  0.4281
   60POPC   NC3 1022   5.395   4.470   7.820 -0.2582  0.2113  0.1467
   60POPC   PO4 1023   5.778   4.609   8.104 -0.0043 -0.1435  0.0749
   60POPC   GL1 1024   5.926   4.612   7.615 -0.0339 -0.0154 -0.0497
   60POPC   GL2 1025   5.710   4.510   7.396  0.1964  0.1640 -0.1090
   60POPC   C1A 1026   6.078   4.663   7.096  0.3326  0.1592  0.2323
   60POPC   D2A 1027   6.215   4.617   6.720 -0.1757  0.2443 -0.3490
   60POPC   C3A 1028   6.560   4.851   6.550 -0.1814 -0.1367  0.2773
   60POPC   C4A 1029   6.815   5.118   6.600  0.2569  0.4320  0.2196
   60POPC   C1B 1030   5.280   4.507   7.193  0.1219  0.2417 -0.4316
   60POPC   C2B 1031   5.166   4.650   6.850  0.1022  0.0465  0.1837
   60POPC   C3B 1032   4.772   4.605   6.587  0.1135 -0.2320  0.1134
   60POPC   C4B 1033   4.348   4.686   6.648  0.2319  0.0280  0.1138
   61POPC   NC3 1034   1.606   6.136   7.408 -0.0015 -0.1163  0.2991
   61POPC   PO4 1035   1.744   6.550   7.285  0.1693  0.3270  0.2128
   61POPC   GL1 1036   1.750   6.534   6.897  0.2314  0.0525  0.2205
   61POPC   GL2 1037   1.487   6.240   6.914  0.0350  0.2224  0.0693
   61POPC   C1A 1038   1.566   6.562   6.399  0.1918 -0.0930  0.0827
   61POPC   D2A 1039   1.319   6.757   6.069  0.0552 -0.0967 -0.1520
   61POPC   C3A 1040   1.024   6.562   5.896  0.3492 -0.1200 -0.0578
   61POPC   C4A 1041   0.847   6.897   5.488  0.0639 -0.0079  0.1016
   61POPC   C1B 1042   1.035   6.216   6.848 -0.1921  0.1265  0.1360
   61POPC   C2B 1043   0.850   5.921   6.455  0.1199 -0.2701  0.0750
   61POPC   C3B 1044   0.786   6.152   6.044  0.2285 -0.0716  0.1300
   61POPC   C4B 1045   0.431   6.162   5.865  0.0099 -0.2606  0.3852
   62POPC   NC3 1046   6.305  10.671   7.930 -0.0318  0.2519 -0.1201
   62POPC   PO4 1047   6.651  10.882   7.793  0.1180  0.0038 -0.1250
   62POPC   GL1 1048   6.352  10.874   7.457 -0.0456  0.0971 -0.4822
   62POPC   GL2 1049   6.498  10.538   7.228 -0.1576 -0.4449  0.2012
   62POPC   C1A 1050   6.002  10.579   7.247 -0.0683  0.2748  0.0085
   62POPC   D2A 1051   5.751  10.627   6.853  0.1283 -0.0121 -0.3590
   62POPC   C3A 1052   5.619  10.859   6.574  0.1831  0.0319  0.0480
   62POPC   C4A 1053   5.807  10.819   6.092  0.0443  0.0499  0.0485
   62POPC   C1B 1054   6.279  10.454   6.787 -0.3238  0.1341 -0.2159
   62POPC   C2B 1055   6.133  10.481   6.308 -0.0864 -0.0525  0.1182
   62POPC   C3B 1056   6.118  10.477   5.915 -0.0999  0.1648  0.0433
   62POPC   C4B 1057   5.889  10.864   5.587  0.1499  0.0062  0.2982
   63POPC   NC3 1058   8.404  10.385   8.297 -0.1360  0.3246  0.0702
   63POPC   PO4 1059   8.438  10.296   7.853  0.1532 -0.0877 -0.2172
   63POPC   GL1 1060   8.467  10.204   7.384  0.2564  0.0729  0.1769
   63POPC   GL2 1061   8.263  10.481   7.152 -0.2639  0.0451 -0.0963
   63POPC   C1A 1062   8.654  10.190   6.914  0.0311 -0.1313 -0.1496
   63POPC   D2A 1063   8.539  10.226   6.462 -0.0439  0.2341  0.2316
   63POPC   C3A 1064   8.657  10.449   6.192 -0.2149  0.0249  0.2044
   63POPC   C4A 1065   8.365  10.495   5.960  0.2176  0.2760  0.1992
   63POPC   C1B 1066   8.459  10.645   6.748  0.0657  0.2283  0.0371
   63POPC   C2B 1067   8.365  10.858   6.380 -0.0467  0.3843  0.3181
   63POPC   C3B 1068   8.361  11.129   5.991 -0.1393 -0.3443 -0.0733
   63POPC   C4B 1069   8.189  11.319   5.845  0.1510 -0.0816  0.0301
   64POPC   NC3 1070  10.214  10.402   7.717 -0.1334 -0.0624 -0.2617
   64POPC   PO4 1071  10.129   9.988   7.708 -0.2018  0.0580  0.2031
   64POPC   GL1 1072  10.335   9.953   7.349  0.0957  0.0198 -0.2912
   64POPC   GL2 1073  10.378  10.247   7.234 -0.0118  0.1077 -0.0814
   64POPC   C1A 1074  10.446   9.911   6.834 -0.0782 -0.1416 -0.1967
   64POPC   D2A 1075  10.530   9.759   6.391 -0.0046  0.0257  0.3020
   64POPC   C3A 1076  10.963   9.743   6.254 -0.2448 -0.2732 -0.0443
   64POPC   C4A 1077  11.185   9.442   6.080 -0.0350 -0.4567 -0.1498
   64POPC   C1B 1078  10.068  10.190   6.920  0.0632  0.2252 -0.3060
   64POPC   C2B 1079   9.926  10.497   6.591 -0.1743  0.1359 -0.0376
   64POPC   C3B 1080   9.921  10.888   6.413 -0.3018 -0.2867  0.1353
   64POPC   C4B 1081  10.219  11.221   6.160  0.0218 -0.0155 -0.1183
   65POPC   NC3 1082   0.925   7.293   7.732 -0.0152  0.0227 -0.1048
   65POPC   PO4 1083   0.882   7.637   7.492  0.0177 -0.1789 -0.0677
   65POPC   GL1 1084   0.809   7.552   7.126  0.1186 -0.1532 -0.5854
   65POPC   GL2 1085   0.529   7.467   7.072 -0.0980  0.1196  0.1586
   65POPC   C1A 1086   0.874   7.604   6.763  0.1195  0.3575  0.0463
   65POPC   D2A 1087   0.890   7.461   6.341  0.2048  0.0576 -0.2605
   65POPC   C3A 1088   0.822   7.660   5.940  0.1528  0.1186 -0.0361
   65POPC   C4A 1089   0.752   8.043   5.820 -0.2333  0.0656 -0.1221
   65POPC   C1B 1090   0.266   7.300   6.747  0.1489  0.3389  0.2474
   65POPC   C2B 1091   0.450   7.218   6.238  0.0122  0.1258  0.1607
   65POPC   C3B 1092   0.517   7.302   5.797  0.0464 -0.2161  0.0055
   65POPC   C4B 1093   0.601   7.322   5.349  0.2683  0.0868  0.0150
   66POPC   NC3 1094   4.878   5.899   7.948  0.3572 -0.2968  0.3987
   66POPC   PO4 1095   5.044   6.071   7.574  0.1271 -0.2232  0.0727
   66POPC   GL1 1096   4.903   6.116   7.211 -0.0379  0.0789  0.1082
   66POPC   GL2 1097   4.618   6.134   7.136 -0.1224 -0.0750  0.5799
   66POPC   C1A 1098   4.884   5.918   6.767 -0.1069 -0.0191 -0.2521
   66POPC   D2A 1099   4.866   5.887   6.312  0.0866  0.0639 -0.0905
   66POPC   C3A 1100   5.240   5.710   6.161  0.1161 -0.2694 -0.3240
   66POPC   C4A 1101   5.152   5.823   5.721  0.2191 -0.3120  0.1816
   66POPC   C1B 1102   4.471   6.166   6.684  0.5212  0.3105  0.1191
   66POPC   C2B 1103   4.250   6.093   6.305  0.1813  0.1215 -0.2540
   66POPC   C3B 1104   4.175   6.283   5.993  0.1962 -0.1843  0.1608
   66POPC   C4B 1105   4.157   6.077   5.619 -0.1231  0.3683 -0.1062
   67POPC   NC3 1106   7.009   4.508   8.425  0.1960 -0.0504  0.0987
   67POPC   PO4 1107   7.242   4.359   8.101  0.0424 -0.0968 -0.2831
   67POPC   GL1 1108   7.531   4.162   7.758 -0.2174 -0.0126  0.1214
   67POPC   GL2 1109   7.697   4.308   7.674  0.1683 -0.0557  0.1007
   67POPC   C1A 1110   7.557   3.809   7.467  0.0385  0.1478 -0.0797
   67POPC   D2A 1111   7.501   3.780   7.001 -0.1866 -0.0853 -0.1243
   67POPC   C3A 1112   7.421   3.428   6.599 -0.0279 -0.0338  0.3493
   67POPC   C4A 1113   7.544   3.114   6.407 -0.4001  0.0927  0.0585
   67POPC   C1B 1114   7.911   4.274   7.285  0.1151 -0.0683 -0.1156
   67POPC   C2B 1115   7.935   4.238   6.818  0.0415 -0.1788 -0.4029
   67POPC   C3B 1116   8.096   4.421   6.431  0.1618  0.1968  0.0473
   67POPC   C4B 1117   8.174   4.423   5.953 -0.4393  0.2384  0.3313
   68POPC   NC3 1118   5.947   6.217   7.495  0.0174  0.0989 -0.1080
   68POPC   PO4 1119   6.260   5.941   7.437  0.0074  0.2108 -0.2963
   68POPC   GL1 1120   6.050   5.937   7.054  0.0936  0.1102 -0.1288
   68POPC   GL2 1121   6.072   6.201   6.857 -0.0608 -0.0359 -0.0548
   68POPC   C1A 1122   6.092   5.621   6.711  0.0571  0.1142 -0.0755
   68POPC   D2A 1123   6.309   5.337   6.416 -0.1569 -0.1875  0.2249
   68POPC   C3A 1124   6.587   5.468   6.223 -0.0829 -0.1096  0.0842
   68POPC   C4A 1125   6.813   5.449   5.888 -0.1467 -0.2309  0.1304
   68POPC   C1B 1126   5.898   6.086   6.393  0.0042 -0.0012  0.4220
   68POPC   C2B 1127   5.993   6.115   5.847  0.1743 -0.1493 -0.2524
   68POPC   C3B 1128   6.335   6.283   5.615  0.1718  0.0169 -0.1110
   68POPC   C4B 1129   6.778   6.316   5.592  0.0838  0.1792  0.2747
   69POPC   NC3 1130   4.575   2.639   8.373  0.0564  0.1086 -0.0678
   69POPC   PO4 1131   4.831   2.451   8.047  0.1212 -0.1124  0.0835
   69POPC   GL1 1132   4.743   2.501   7.593  0.2937  0.0107 -0.2000
   69POPC   GL2 1133   4.775   2.855   7.598 -0.2060  0.0002  0.0319
   69POPC   C1A 1134   4.424   2.673   7.280 -0.1308 -0.0836  0.0817
   69POPC   D2A 1135   4.308   2.767   6.921 -0.0421 -0.4246 -0.2200
   69POPC   C3A 1136   4.134   2.500   6.659  0.0279  0.0858 -0.2664
   69POPC   C4A 1137   4.063   2.401   6.220  0.2960  0.0496 -0.0434
   69POPC   C1B 1138   4.704   3.031   7.222 -0.0717  0.0353  0.0200
   69POPC   C2B 1139   4.791   2.862   6.795 -0.0146 -0.2254 -0.1522
   69POPC   C3B 1140   4.541   2.924   6.485 -0.1938  0.1507 -0.3023
   69POPC   C4B 1141   4.385   2.789   6.092  0.0766  0.0797 -0.1667
   70POPC   NC3 1142   7.254   2.720   8.008  0.1409  0.1258 -0.0474
   70POPC   PO4 1143   7.383   3.158   8.047  0.2077 -0.0960  0.0926
   70POPC   GL1 1144   7.198   3.094   7.649  0.5562 -0.0176  0.1773
   70POPC   GL2 1145   7.449   3.317   7.558  0.1335  0.0593  0.2470
   70POPC   C1A 1146   7.011   2.924   7.237 -0.0636 -0.1711 -0.1856
   70POPC   D2A 1147   6.808   2.933   6.856  0.0688  0.1118  0.1813
   70POPC   C3A 1148   6.601   2.549   6.634  0.1481 -0.2670 -0.4164
   70POPC   C4A 1149   6.462   2.209   6.442  0.1562 -0.1663 -0.0530
   70POPC   C1B 1150   7.507   3.162   7.181  0.1456  0.0610  0.1538
   70POPC   C2B 1151   7.376   2.955   6.857 -0.3020 -0.0432  0.0511
   70POPC   C3B 1152   7.153   2.838   6.456  0.0282 -0.1742 -0.1550
   70POPC   C4B 1153   6.810   2.642   6.222  0.2610  0.1034  0.0063
   71POPC   NC3 1154   7.914   0.067   7.336 -0.0477  0.0832  0.2373
   71POPC   PO4 1155   7.593   0.314   7.485  0.1024  0.0046 -0.0521
   71POPC   GL1 1156   7.362   0.297   7.077  0.0891 -0.1836  0.2896
   71POPC   GL2 1157   7.698   0.274   6.922  0.6131  0.2318  0.0725
   71POPC   C1A 1158   7.105   0.245   6.738  0.0866  0.0189 -0.0727
   71POPC   D2A 1159   7.124  -0.007   6.331 -0.2032  0.1317  0.1993
   71POPC   C3A 1160   7.383  -0.041   6.036  0.1383 -0.0991  0.0900
   71POPC   C4A 1161   7.686  -0.385   5.931 -0.1843  0.0678 -0.2624
   71POPC   C1B 1162   7.607   0.147   6.468 -0.3614  0.0233  0.2109
   71POPC   C2B 1163   7.923   0.060   6.116 -0.2243 -0.1042  0.0735
   71POPC   C3B 1164   7.995   0.017   5.591  0.2962 -0.5773  0.2173
   71POPC   C4B 1165   8.325  -0.029   5.458  0.1959 -0.2409  0.1458
   72POPC   NC3 1166   8.875  10.256   7.624 -0.1199  0.1627 -0.0023
   72POPC   PO4 1167   8.543  10.649   7.511  0.0204 -0.5735 -0.2876
   72POPC   GL1 1168   8.476  10.984   7.130 -0.1369  0.3901 -0.0354
   72POPC   GL2 1169   8.594  11.291   7.186  0.2946 -0.0024 -0.0412
   72POPC   C1A 1170   8.214  11.050   6.800  0.0512 -0.3999  0.1904
   72POPC   D2A 1171   7.930  11.299   6.614 -0.0322  0.2010  0.1554
   72POPC   C3A 1172   7.787  11.394   6.177  0.1420  0.3166 -0.4265
   72POPC   C4A 1173   7.567  11.084   5.841 -0.1075 -0.4356  0.1220
   72POPC   C1B 1174   8.854  11.584   6.948  0.2113 -0.0036  0.1304
   72POPC   C2B 1175   9.228  11.545   6.734  0.0916  0.1224 -0.1315
   72POPC   C3B 1176   9.498  11.744   6.390  0.4421  0.1561  0.3487
   72POPC   C4B 1177   9.548  11.789   5.930  0.0946 -0.1125 -0.0924
   73POPC   NC3 1178   5.811   5.600   7.536  0.4189  0.0022 -0.0681
   73POPC   PO4 1179   5.436   5.278   7.598 -0.0440  0.1273  0.0711
   73POPC   GL1 1180   5.445   5.042   7.316  0.0370  0.1675 -0.0799
   73POPC   GL2 1181   5.131   5.100   7.247 -0.0615  0.1068  0.1192
   73POPC   C1A 1182   5.595   4.907   6.984 -0.2810  0.0312  0.0090
   73POPC   D2A 1183   5.431   4.865   6.466 -0.2380 -0.0782 -0.0499
   73POPC   C3A 1184   5.407   5.170   6.069 -0.0351 -0.3321 -0.1328
   73POPC   C4A 1185   5.053   5.342   5.726  0.2815 -0.1260  0.0969
   73POPC   C1B 1186   5.248   5.169   6.803 -0.1358  0.2101 -0.0348
   73POPC   C2B 1187   5.581   5.386   6.646 -0.0732  0.4238 -0.1917
   73POPC   C3B 1188   5.830   5.432   6.274 -0.2891  0.2310 -0.0970
   73POPC   C4B 1189   6.076   5.710   6.129  0.3797 -0.2204 -0.1436
   74POPC   NC3 1190  10.543   6.113   8.151 -0.0215 -0.0620  0.0668
   74POPC   PO4 1191  10.445   6.460   8.105  0.1188  0.0877 -0.2260
   74POPC   GL1 1192  10.566   6.315   7.664 -0.1408  0.0332 -0.0138
   74POPC   GL2 1193  10.435   6.570   7.531  0.0998  0.1469 -0.1267
   74POPC   C1A 1194  10.685   6.403   7.172  0.0628  0.0159 -0.0061
   74POPC   D2A 1195  10.733   6.324   6.693  0.0051  0.1772 -0.2483
   74POPC   C3A 1196  10.446   6.620   6.513  0.1015 -0.1527  0.0567
   74POPC   C4A 1197  10.008   6.517   6.517 -0.2290 -0.0176 -0.1124
   74POPC   C1B 1198  10.204   6.738   7.172 -0.2616 -0.1905  0.1872
   74POPC   C2B 1199   9.897   7.025   7.190  0.2974  0.2772  0.1908
   74POPC   C3B 1200   9.402   6.969   7.234 -0.0326 -0.1708 -0.2384
   74POPC   C4B 1201   8.972   6.861   7.190  0.2372  0.0683 -0.0960
   75POPC   NC3 1202   2.003   3.540   7.920 -0.0216  0.2429 -0.0052
   75POPC   PO4 1203   1.653   3.449   7.855  0.1624 -0.0719  0.2696
   75POPC   GL1 1204   1.606   3.430   7.432 -0.3878  0.1015  0.2838
   75POPC   GL2 1205   1.445   3.713   7.335 -0.3359 -0.1563  0.2015
   75POPC   C1A 1206   1.715   3.514   6.977 -0.1287  0.0151  0.2214
   75POPC   D2A 1207   1.695   3.562   6.540 -0.0861  0.2222  0.0350
   75POPC   C3A 1208   1.567   3.682   6.125 -0.0831 -0.1128 -0.3373
   75POPC   C4A 1209   1.355   3.462   5.853  0.1503  0.0806 -0.1266
   75POPC   C1B 1210   1.300   3.769   6.922 -0.1047 -0.1727  0.2721
   75POPC   C2B 1211   1.210   3.776   6.501  0.2670 -0.1204  0.0977
   75POPC   C3B 1212   1.131   3.850   5.959  0.1659  0.3286 -0.0302
   75POPC   C4B 1213   1.348   3.896   5.621 -0.1508  0.1955 -0.0782
   76POPC   NC3 1214   6.689   6.690   7.256 -0.1606 -0.0995 -0.0337
   76POPC   PO4 1215   7.121   6.642   7.280 -0.0550  0.0271  0.0892
   76POPC   GL1 1216   7.019   6.284   6.984 -0.1997 -0.0906  0.0195
   76POPC   GL2 1217   6.717   6.370   6.724 -0.0151  0.2624 -0.0620
   76POPC   C1A 1218   7.352   6.208   6.650  0.0406 -0.2719 -0.1047
   76POPC   D2A 1219   7.393   5.862   6.339 -0.0265 -0.1747  0.0643
   76POPC   C3A 1220   7.625   5.901   5.890  0.2157 -0.1775  0.0538
   76POPC   C4A 1221   7.668   6.203   5.673 -0.2618  0.0815 -0.2335
   76POPC   C1B 1222   6.926   5.999   6.392  0.1653  0.1235  0.0183
   76POPC   C2B 1223   6.976   5.885   6.020  0.0236  0.1735  0.3152
   76POPC   C3B 1224   7.123   5.815   5.627 -0.0137 -0.1193 -0.0340
   76POPC   C4B 1225   7.354   5.819   5.360 -0.1368  0.0958  0.0130
   77POPC   NC3 1226   0.828   2.793   8.011 -0.2573  0.2296  0.0636
   77POPC   PO4 1227   0.965   2.398   7.950 -0.1061  0.2305  0.0740
   77POPC   GL1 1228   0.886   2.141   7.662 -0.1939  0.0420  0.1138
   77POPC   GL2 1229   0.649   1.934   7.771 -0.1900  0.2286  0.2970
   77POPC   C1A 1230   1.058   2.237   7.273  0.1479  0.2735 -0.1541
   77POPC   D2A 1231   0.776   2.261   6.922 -0.0131 -0.2535 -0.3540
   77POPC   C3A 1232   0.791   2.445   6.523 -0.1535 -0.1837  0.1721
   77POPC   C4A 1233   0.866   2.357   6.141  0.0111 -0.1322 -0.1788
   77POPC   C1B 1234   0.219   1.739   7.506 -0.1678 -0.1906 -0.0621
   77POPC   C2B 1235  -0.055   1.430   7.437  0.1581  0.0208 -0.0501
   77POPC   C3B 1236  -0.083   1.230   7.065 -0.0776 -0.0597  0.1063
   77POPC   C4B 1237   0.148   0.969   6.865 -0.0308  0.0784 -0.1881
   78POPC   NC3 1238   2.722   9.458   7.562 -0.2508 -0.2988  0.0409
   78POPC   PO4 1239   2.974   9.115   7.295  0.3267 -0.1499  0.2611
   78POPC   GL1 1240   3.002   9.206   6.867  0.1969  0.1817 -0.2579
   78POPC   GL2 1241   3.348   9.205   6.741  0.1191  0.1990 -0.2415
   78POPC   C1A 1242   2.958   9.385   6.408  0.1401  0.1999 -0.1750
   78POPC   D2A 1243   2.835   9.511   6.016  0.2982 -0.0782 -0.0871
   78POPC   C3A 1244   2.945   9.463   5.526 -0.0012 -0.2095 -0.1340
   78POPC   C4A 1245   3.160   9.571   5.189  0.1399 -0.2535  0.1177
   78POPC   C1B 1246   3.804   9.188   6.784  0.0073  0.1340  0.1641
   78POPC   C2B 1247   4.247   9.065   6.607 -0.1289 -0.1466 -0.2936
   78POPC   C3B 1248   4.602   8.968   6.379 -0.0249  0.4319 -0.0014
   78POPC   C4B 1249   4.898   8.941   5.959 -0.1065 -0.5028 -0.1885
   79POPC   NC3 1250  10.122   3.926   8.741 -0.2184 -0.0379 -0.1155
   79POPC   PO4 1251  10.076   3.680   8.357 -0.1292  0.0194  0.1284
   79POPC   GL1 1252  10.321   3.715   7.909  0.4165  0.4471  0.1730
   79POPC   GL2 1253  10.377   4.062   7.763 -0.0339  0.0584  0.0018
   79POPC   C1A 1254  10.126   3.725   7.437 -0.1261  0.1546 -0.0333
   79POPC   D2A 1255  10.425   3.632   7.220  0.1365  0.2085 -0.0108
   79POPC   C3A 1256  10.392   3.208   7.075 -0.1898  0.0934 -0.0874
   79POPC   C4A 1257  10.469   2.728   6.910  0.4431 -0.1220  0.2482
   79POPC   C1B 1258   9.985   4.200   7.567  0.0031  0.1192  0.1561
   79POPC   C2B 1259   9.790   4.049   7.276 -0.1234 -0.1844  0.0467
   79POPC   C3B 1260   9.632   3.595   7.326  0.2178 -0.1321 -0.1632
   79POPC   C4B 1261   9.613   3.277   7.580  0.2745 -0.0163 -0.0065
   80POPC   NC3 1262   8.013   9.339   7.628 -0.3995  0.1752  0.0622
   80POPC   PO4 1263   7.782   9.770   7.562 -0.0944  0.0781 -0.1608
   80POPC   GL1 1264   8.067   9.909   7.167 -0.1371 -0.0607  0.1560
   80POPC   GL2 1265   8.188   9.641   7.230 -0.1407  0.0112 -0.0704
   80POPC   C1A 1266   8.179   9.906   6.748 -0.0352  0.0865  0.1931
   80POPC   D2A 1267   8.589   9.755   6.472  0.0852 -0.0963  0.2424
   80POPC   C3A 1268   8.504   9.843   6.105  0.2560 -0.0404 -0.0806
   80POPC   C4A 1269   8.369   9.895   5.717 -0.1688 -0.4217 -0.0413
   80POPC   C1B 1270   8.395   9.430   6.850 -0.0945  0.1859 -0.0166
   80POPC   C2B 1271   8.449   9.208   6.434 -0.3783 -0.0275 -0.0138
   80POPC   C3B 1272   8.612   9.014   6.051 -0.2157 -0.1626 -0.0469
   80POPC   C4B 1273   8.933   8.753   5.842  0.3053  0.0556 -0.0423
   81POPC   NC3 1274   3.340   2.325   8.384 -0.0109  0.0779 -0.3145
   81POPC   PO4 1275   3.394   1.946   8.220 -0.1794 -0.0476 -0.0503
   81POPC   GL1 1276   3.567   2.253   7.925 -0.0191  0.0301  0.0451
   81POPC   GL2 1277   3.732   1.950   7.691  0.3075  0.0805  0.0457
   81POPC   C1A 1278   3.437   2.449   7.467  0.1584 -0.2602 -0.0811
   81POPC   D2A 1279   3.420   2.307   7.114  0.2890 -0.0773 -0.0178
   81POPC   C3A 1280   3.746   1.974   7.137  0.3115  0.0849 -0.0906
   81POPC   C4A 1281   3.818   1.648   6.756 -0.1364 -0.1007 -0.1130
   81POPC   C1B 1282   3.360   1.934   7.461 -0.0484 -0.2611  0.2219
   81POPC   C2B 1283   3.279   1.586   7.168 -0.0965  0.1014  0.0484
   81POPC   C3B 1284   3.248   1.388   6.735 -0.2259 -0.0864 -0.2662
   81POPC   C4B 1285   3.125   0.985   6.430  0.3717  0.1114 -0.0676
   82POPC   NC3 1286   1.944   4.392   7.422 -0.2493  0.0079 -0.0784
   82POPC   PO4 1287   1.992   3.999   7.298  0.0953 -0.0418 -0.0112
   82POPC   GL1 1288   1.960   3.990   6.803  0.2232  0.1741  0.0049
   82POPC   GL2 1289   1.689   4.091   6.663  0.3727  0.6471 -0.1858
   82POPC   C1A 1290   2.032   3.864   6.338  0.0102 -0.0961 -0.2872
   82POPC   D2A 1291   2.337   3.839   6.006  0.0022 -0.2206  0.1096
   82POPC   C3A 1292   2.461   3.431   5.892  0.0071 -0.1488  0.1389
   82POPC   C4A 1293   2.539   3.155   5.546 -0.0015 -0.1356  0.0643
   82POPC   C1B 1294   1.860   4.390   6.396 -0.0243 -0.1465  0.3037
   82POPC   C2B 1295   1.649   4.684   6.202 -0.1715  0.0287  0.0414
   82POPC   C3B 1296   1.369   4.819   5.934 -0.0084  0.4231  0.1376
   82POPC   C4B 1297   1.423   4.902   5.498  0.1995 -0.1859  0.1214
   83POPC   NC3 1298   0.879   9.937   8.082 -0.1180 -0.2232  0.0615
   83POPC   PO4 1299   0.880  10.387   7.839 -0.0849 -0.2761  0.1096
   83POPC   GL1 1300   0.676  10.486   7.434  0.2283  0.2759 -0.0023
   83POPC   GL2 1301   0.414  10.405   7.337 -0.3065  0.1779  0.1880
   83POPC   C1A 1302   0.550  10.652   6.950 -0.1368  0.0162 -0.0372
   83POPC   D2A 1303   0.168  10.655   6.621 -0.1508  0.0798  0.2183
   83POPC   C3A 1304   0.064  10.150   6.453  0.0060  0.0369  0.1544
   83POPC   C4A 1305   0.224   9.780   6.738  0.1887  0.3237 -0.0151
   83POPC   C1B 1306   0.367  10.193   6.924 -0.0546 -0.3332  0.3129
   83POPC   C2B 1307   0.582  10.339   6.526 -0.2446 -0.2066 -0.0932
   83POPC   C3B 1308   0.679  10.203   6.115  0.0972 -0.0365 -0.1113
   83POPC   C4B 1309   0.872  10.207   5.687 -0.2586  0.1427 -0.1304
   84POPC   NC3 1310   2.512   6.515   7.935  0.1997 -0.0098  0.1973
   84POPC   PO4 1311   2.462   6.303   7.561  0.2873  0.2068 -0.4182
   84POPC   GL1 1312   2.759   6.301   7.195 -0.1118 -0.1203 -0.2191
   84POPC   GL2 1313   2.886   6.050   6.994  0.0049 -0.0495 -0.1964
   84POPC   C1A 1314   2.779   6.500   6.795 -0.2096  0.1167  0.0571
   84POPC   D2A 1315   2.896   6.856   6.732  0.0970  0.0731 -0.0077
   84POPC   C3A 1316   2.763   7.175   6.417  0.1585  0.4560  0.0790
   84POPC   C4A 1317   2.562   7.367   6.103 -0.2334 -0.0182  0.0931
   84POPC   C1B 1318   2.492   6.025   6.807 -0.0686 -0.1129 -0.3263
   84POPC   C2B 1319   2.524   6.230   6.465  0.0452  0.0227 -0.0699
   84POPC   C3B 1320   2.881   6.416   6.266 -0.0981  0.1494 -0.0486
   84POPC   C4B 1321   3.295   6.298   6.133 -0.2240 -0.0451  0.1047
   85POPC   NC3 1322   9.973   7.725   8.340 -0.0615  0.0146  0.0428
   85POPC   PO4 1323  10.049   7.409   7.867 -0.1592  0.1388  0.0894
   85POPC   GL1 1324  10.031   7.477   7.351  0.4895 -0.0882 -0.0167
   85POPC   GL2 1325   9.649   7.470   7.076 -0.0738  0.0432 -0.0745
   85POPC   C1A 1326  10.221   7.311   7.003 -0.1088  0.0684  0.2155
   85POPC   D2A 1327  10.049   6.926   6.743  0.0106 -0.1046 -0.0197
   85POPC   C3A 1328  10.165   7.032   6.319 -0.3707 -0.3056 -0.3762
   85POPC   C4A 1329  10.204   7.394   6.016 -0.0091 -0.1280 -0.1675
   85POPC   C1B 1330   9.524   7.168   6.767 -0.0847  0.1317 -0.2149
   85POPC   C2B 1331   9.582   6.857   6.351 -0.4792  0.0309 -0.1560
   85POPC   C3B 1332   9.856   6.744   6.065 -0.0998 -0.1102 -0.1190
   85POPC   C4B 1333  10.228   6.464   6.100  0.2799 -0.2853 -0.2393
   86POPC   NC3 1334   2.167   6.704   7.488  0.1738  0.2823 -0.1074
   86POPC   PO4 1335   1.682   6.863   7.678  0.0159 -0.2212  0.4126
   86POPC   GL1 1336   1.663   7.049   7.209  0.1582  0.2163 -0.1883
   86POPC   GL2 1337   1.702   7.379   7.185  0.1892 -0.0120 -0.0281
   86POPC   C1A 1338   1.516   7.008   6.804  0.1111 -0.2473  0.0080
   86POPC   D2A 1339   1.307   7.092   6.415 -0.2737  0.1429 -0.1008
   86POPC   C3A 1340   1.337   7.498   6.098  0.3521 -0.0199 -0.0933
   86POPC   C4A 1341   1.361   7.859   5.855  0.2843 -0.0587 -0.0086
   86POPC   C1B 1342   1.858   7.440   6.806  0.5199  0.1859  0.3792
   86POPC   C2B 1343   1.753   7.363   6.424 -0.3231 -0.2822 -0.3156
   86POPC   C3B 1344   1.685   7.091   6.070  0.0446 -0.3711  0.0111
   86POPC   C4B 1345   1.661   6.808   5.692  0.0863  0.1417  0.0596
   87POPC   NC3 1346   9.374   4.384   8.471 -0.0859 -0.5159 -0.2119
   87POPC   PO4 1347   9.840   4.552   8.224  0.2324  0.3429  0.1807
   87POPC   GL1 1348   9.634   4.234   7.954 -0.1272 -0.1347  0.0173
   87POPC   GL2 1349   9.787   3.904   7.888  0.2781  0.1474 -0.3036
   87POPC   C1A 1350   9.354   4.056   7.625 -0.2550  0.1029  0.4235
   87POPC   D2A 1351   9.145   3.955   7.319 -0.0903 -0.1666 -0.0995
   87POPC   C3A 1352   8.846   4.205   7.114 -0.0866  0.1566 -0.0563
   87POPC   C4A 1353   8.409   4.388   6.871  0.0291  0.3199  0.0627
   87POPC   C1B 1354   9.517   3.609   7.908  0.1713  0.0127  0.0709
   87POPC   C2B 1355   9.189   3.230   7.932 -0.1402 -0.2934 -0.0043
   87POPC   C3B 1356   8.728   3.265   7.704  0.0909 -0.0648  0.1688
   87POPC   C4B 1357   8.442   3.456   7.806  0.0035 -0.1963  0.0309
   88POPC   NC3 1358   9.622   1.508   8.435 -0.0401 -0.2879  0.2030
   88POPC   PO4 1359   9.994   1.455   8.084  0.1077  0.1144 -0.0722
   88POPC   GL1 1360  10.131   1.208   7.758  0.2202  0.2004 -0.2397
   88POPC   GL2 1361   9.833   1.024   7.578 -0.0860 -0.2041  0.3594
   88POPC   C1A 1362  10.272   1.063   7.349  0.1569 -0.1192  0.0714
   88POPC   D2A 1363  10.269   1.052   6.867  0.2802 -0.1245 -0.0489
   88POPC   C3A 1364   9.979   0.896   6.450  0.2559  0.2261  0.0953
   88POPC   C4A 1365   9.625   0.609   6.113 -0.0767  0.1001  0.0740
   88POPC   C1B 1366   9.779   1.336   7.308 -0.3027  0.2681 -0.3631
   88POPC   C2B 1367   9.821   1.715   7.011  0.1306 -0.0223  0.1041
   88POPC   C3B 1368  10.010   1.978   6.732 -0.1485  0.0230 -0.0829
   88POPC   C4B 1369  10.100   2.331   6.510 -0.3048  0.1738 -0.4006
   89POPC   NC3 1370   1.557   0.380   7.855  0.1774 -0.1299  0.3337
   89POPC   PO4 1371   1.140   0.439   7.964  0.1846  0.1345 -0.1675
   89POPC   GL1 1372   1.116   0.614   7.556 -0.1904  0.1341  0.1226
   89POPC   GL2 1373   0.839   0.836   7.370  0.1041 -0.0202  0.2662
   89POPC   C1A 1374   1.250   0.693   7.171  0.1337  0.1331  0.0395
   89POPC   D2A 1375   1.153   0.768   6.822  0.6280  0.3579  0.1978
   89POPC   C3A 1376   1.255   0.989   6.460  0.0632  0.1851 -0.0868
   89POPC   C4A 1377   1.230   1.049   6.077  0.3908  0.0764 -0.0485
   89POPC   C1B 1378   0.838   1.213   7.100  0.1494  0.1709 -0.0072
   89POPC   C2B 1379   0.905   1.269   6.637  0.1436  0.0402 -0.0034
   89POPC   C3B 1380   0.827   1.462   6.279  0.0796 -0.2804 -0.2670
   89POPC   C4B 1381   0.957   1.564   5.791  0.0854  0.1652  0.6428
   90POPC   NC3 1382   2.369   5.554   7.800  0.1093  0.0294 -0.0890
   90POPC   PO4 1383   2.088   5.264   7.751  0.1626 -0.1458  0.2203
   90POPC   GL1 1384   2.122   5.057   7.236 -0.0323  0.0069 -0.1125
   90POPC   GL2 1385   1.876   5.154   6.969 -0.0033 -0.1212  0.2230
   90POPC   C1A 1386   2.311   5.108   6.825 -0.3124  0.1850 -0.0981
   90POPC   D2A 1387   2.606   4.828   6.573 -0.1987 -0.2942  0.1083
   90POPC   C3A 1388   2.592   4.867   6.194 -0.1983 -0.0389  0.1938
   90POPC   C4A 1389   2.868   4.684   5.929  0.1124 -0.1171  0.1935
   90POPC   C1B 1390   1.897   5.215   6.590  0.0388  0.1097  0.5882
   90POPC   C2B 1391   2.257   5.270   6.280  0.2205 -0.0787  0.1827
   90POPC   C3B 1392   2.282   5.451   5.957 -0.1614  0.1837 -0.2278
   90POPC   C4B 1393   2.614   5.173   5.806 -0.1401  0.2288 -0.0387
   91POPC   NC3 1394  10.632   3.900   8.262  0.0124 -0.0263  0.0606
   91POPC   PO4 1395  11.075   4.002   8.072 -0.0976  0.0849  0.3972
   91POPC   GL1 1396  10.855   3.697   7.780 -0.1280  0.1874  0.2863
   91POPC   GL2 1397  10.849   3.888   7.430  0.0632 -0.0003  0.0811
   91POPC   C1A 1398  10.779   3.309   7.423  0.0071  0.0434  0.1557
   91POPC   D2A 1399  10.857   3.004   7.162  0.2126  0.1888  0.0016
   91POPC   C3A 1400  11.195   2.926   6.805  0.1987 -0.2276 -0.3804
   91POPC   C4A 1401  11.278   2.851   6.427 -0.2939  0.0535 -0.1343
   91POPC   C1B 1402  11.194   4.019   7.115  0.0691 -0.1370 -0.0710
   91POPC   C2B 1403  11.243   4.225   6.785 -0.0840 -0.1398  0.0639
   91POPC   C3B 1404  11.405   4.473   6.410  0.2271 -0.2330 -0.0261
   91POPC   C4B 1405  11.688   4.572   6.139  0.0606  0.4294 -0.3373
   92POPC   NC3 1406   8.208   5.829   7.823 -0.2183 -0.0621 -0.2367
   92POPC   PO4 1407   8.498   6.122   7.786 -0.0944  0.3217  0.0982
   92POPC   GL1 1408   8.400   6.215   7.423  0.3185  0.1519 -0.3154
   92POPC   GL2 1409   8.364   5.846   7.347 -0.2025  0.1018  0.0631
   92POPC   C1A 1410   8.719   6.350   7.141  0.0538 -0.2509 -0.1945
   92POPC   D2A 1411   8.839   6.516   6.776 -0.1667  0.3773 -0.0736
   92POPC   C3A 1412   9.268   6.693   6.760  0.2024 -0.1114 -0.0709
   92POPC   C4A 1413   9.659   6.622   6.937  0.2136  0.0282  0.1099
   92POPC   C1B 1414   8.640   5.834   7.087  0.1269  0.1580  0.1946
   92POPC   C2B 1415   8.895   5.754   6.689  0.0254 -0.1848 -0.0873
   92POPC   C3B 1416   9.099   6.011   6.375  0.0461  0.2179  0.1438
   92POPC   C4B 1417   9.141   6.132   5.994  0.0951 -0.0276 -0.1001
   93POPC   NC3 1418   5.916   3.731   8.018  0.2091 -0.1047  0.0853
   93POPC   PO4 1419   5.670   3.580   7.719 -0.0119 -0.4268 -0.5115
   93POPC   GL1 1420   6.149   3.741   7.564  0.2356 -0.1113  0.1192
   93POPC   GL2 1421   6.434   3.875   7.774  0.1669  0.0630 -0.1452
   93POPC   C1A 1422   6.225   3.680   7.099 -0.0877  0.1668 -0.1905
   93POPC   D2A 1423   6.176   3.999   6.718  0.0733  0.2590  0.1085
   93POPC   C3A 1424   6.191   4.123   6.364 -0.1660 -0.1519  0.0046
   93POPC   C4A 1425   6.290   4.466   6.236  0.4289 -0.1782 -0.2217
   93POPC   C1B 1426   6.643   3.920   7.333 -0.0673 -0.3644  0.1471
   93POPC   C2B 1427   6.664   3.857   6.892 -0.2738  0.1572  0.1813
   93POPC   C3B 1428   6.662   3.780   6.455 -0.0402  0.0890  0.1730
   93POPC   C4B 1429   6.895   3.695   6.088  0.1152  0.1175  0.1966
   94POPC   NC3 1430  10.002   9.531   7.539  0.0709 -0.1751 -0.4472
   94POPC   PO4 1431   9.724   9.835   7.387 -0.0529  0.2258  0.0075
   94POPC   GL1 1432   9.991   9.568   7.020 -0.1688  0.3893 -0.1690
   94POPC   GL2 1433  10.232   9.329   7.130  0.2024  0.1646  0.1065
   94POPC   C1A 1434  10.040   9.584   6.588 -0.0054  0.2137 -0.0484
   94POPC   D2A 1435   9.855   9.354   6.214  0.0409  0.1033  0.1838
   94POPC   C3A 1436   9.480   9.489   6.031  0.0710  0.1194 -0.0711
   94POPC   C4A 1437   9.492   9.954   5.895 -0.1582 -0.0984  0.2900
   94POPC   C1B 1438  10.643   9.355   6.906  0.0608  0.2330  0.0918
   94POPC   C2B 1439  10.811   9.303   6.524 -0.0724 -0.1058 -0.3346
   94POPC   C3B 1440  10.782   9.147   6.030  0.1017  0.3013 -0.0655
   94POPC   C4B 1441  10.730   9.312   5.707 -0.0175 -0.0442 -0.0825
   95POPC   NC3 1442   8.336   6.631   7.859 -0.3701 -0.1342 -0.0496
   95POPC   PO4 1443   8.167   6.629   7.487 -0.0213  0.0770  0.1219
   95POPC   GL1 1444   8.068   6.431   7.101 -0.0866  0.0318  0.1379
   95POPC   GL2 1445   8.268   6.240   6.926 -0.1991 -0.4609 -0.1582
   95POPC   C1A 1446   7.895   6.359   6.583 -0.0734  0.0993  0.0550
   95POPC   D2A 1447   7.637   6.266   6.249 -0.3347 -0.0827  0.0270
   95POPC   C3A 1448   7.804   6.679   5.950 -0.2349 -0.2969  0.1332
   95POPC   C4A 1449   7.911   7.093   5.909 -0.1349 -0.1756  0.0877
   95POPC   C1B 1450   8.526   6.162   6.538 -0.0710  0.1975  0.2093
   95POPC   C2B 1451   8.726   6.316   6.286  0.1542 -0.1675 -0.2462
   95POPC   C3B 1452   8.768   6.503   5.892 -0.4923 -0.0565  0.0409
   95POPC   C4B 1453   8.605   6.765   5.478 -0.1589 -0.1036  0.1659
   96POPC   NC3 1454   7.473   5.134   7.649 -0.1724  0.0680 -0.0242
   96POPC   PO4 1455   7.398   4.729   7.775 -0.1617  0.2412 -0.2960
   96POPC   GL1 1456   7.416   4.647   7.447  0.0986 -0.0815  0.0144
   96POPC   GL2 1457   7.342   4.357   7.326  0.3455 -0.0547  0.0417
   96POPC   C1A 1458   7.300   4.770   7.048 -0.2477 -0.1168  0.0966
   96POPC   D2A 1459   7.267   4.988   6.680  0.1712 -0.0259 -0.3367
   96POPC   C3A 1460   7.473   5.062   6.366  0.0078  0.0296  0.0708
   96POPC   C4A 1461   7.705   5.006   5.973  0.0342  0.1052 -0.3251
   96POPC   C1B 1462   7.453   4.264   6.851  0.0717 -0.0751  0.4453
   96POPC   C2B 1463   7.566   4.048   6.504  0.1551  0.2544  0.0568
   96POPC   C3B 1464   7.426   3.782   6.270 -0.0206  0.1806  0.0502
   96POPC   C4B 1465   7.346   3.456   6.008 -0.3632  0.0451  0.2211
   97POPC   NC3 1466   3.640   9.185   7.682  0.1853 -0.1034 -0.0342
   97POPC   PO4 1467   4.094   9.298   7.603  0.1681 -0.2887 -0.0731
   97POPC   GL1 1468   4.202   9.366   7.171 -0.3873  0.0603  0.4840
   97POPC   GL2 1469   4.496   9.074   7.113  0.2154  0.0978  0.0995
   97POPC   C1A 1470   4.412   9.650   6.907 -0.3083 -0.0454 -0.0370
   97POPC   D2A 1471   4.463  10.081   6.846 -0.4988 -0.3112  0.2639
   97POPC   C3A 1472   4.112  10.102   6.562 -0.1080 -0.0494  0.0537
   97POPC   C4A 1473   3.650  10.153   6.490  0.2176 -0.3018 -0.1547
   97POPC   C1B 1474   4.783   8.828   6.893  0.0763  0.3586  0.1007
   97POPC   C2B 1475   4.809   8.486   6.606  0.1456 -0.1792 -0.0417
   97POPC   C3B 1476   4.608   8.490   6.239 -0.1233  0.0360 -0.1087
   97POPC   C4B 1477   4.525   8.350   5.836 -0.0901  0.0115 -0.2170
   98POPC   NC3 1478   0.973   5.854   7.728 -0.0793 -0.0034 -0.3769
   98POPC   PO4 1479   0.715   5.847   8.118  0.1321  0.1426 -0.2847
   98POPC   GL1 1480   0.449   5.688   7.758 -0.1699  0.1609 -0.0486
   98POPC   GL2 1481   0.322   5.376   7.749 -0.0252  0.1343 -0.0919
   98POPC   C1A 1482   0.213   5.929   7.370  0.0230  0.2213 -0.3037
   98POPC   D2A 1483  -0.123   5.960   7.002  0.4701  0.0370  0.2254
   98POPC   C3A 1484  -0.071   5.770   6.645  0.0556  0.0158  0.1338
   98POPC   C4A 1485  -0.287   5.495   6.275 -0.0795 -0.4057 -0.0255
   98POPC   C1B 1486   0.568   5.369   7.330  0.0781  0.1864  0.0272
   98POPC   C2B 1487   0.622   5.286   6.828 -0.0611  0.0477  0.1011
   98POPC   C3B 1488   0.938   5.391   6.537  0.2825 -0.0404  0.1019
   98POPC   C4B 1489   1.262   5.198   6.190 -0.2939  0.3933  0.0295
   99POPC   NC3 1490   1.339   4.812   7.473 -0.2686 -0.1143  0.2668
   99POPC   PO4 1491   1.658   5.150   7.484  0.1711  0.0117 -0.2463
   99POPC   GL1 1492   1.725   4.763   7.166  0.1526 -0.1582 -0.1565
   99POPC   GL2 1493   1.499   4.479   7.037 -0.1456  0.3470  0.1015
   99POPC   C1A 1494   1.934   4.678   6.745 -0.7530  0.1688  0.2557
   99POPC   D2A 1495   2.172   4.747   6.382  0.0681  0.0669 -0.1174
   99POPC   C3A 1496   2.091   4.834   5.967  0.0201  0.0556 -0.1608
   99POPC   C4A 1497   1.845   4.566   5.722 -0.0178 -0.0241 -0.0111
   99POPC   C1B 1498   1.456   4.697   6.642 -0.0902 -0.0889 -0.0051
   99POPC   C2B 1499   1.418   5.148   6.691 -0.1887  0.1117  0.1434
   99POPC   C3B 1500   1.199   5.440   6.980  0.0888  0.1957  0.0789
   99POPC   C4B 1501   0.810   5.767   6.955 -0.1104  0.2208  0.1189
  100POPC   NC3 1502   7.639   8.000   7.336 -0.2083 -0.1923 -0.0506
  100POPC   PO4 1503   8.050   8.048   7.541 -0.1024  0.0981  0.3471
  100POPC   GL1 1504   8.481   8.003   7.333  0.3867  0.0520  0.1305
  100POPC   GL2 1505   8.535   8.246   7.250 -0.3271  0.2631  0.0590
  100POPC   C1A 1506   8.713   7.845   6.985 -0.0097 -0.0403  0.2353
  100POPC   D2A 1507   9.037   7.708   6.754 -0.1511 -0.0605 -0.0264
  100POPC   C3A 1508   9.040   7.944   6.461  0.6327 -0.0030  0.4342
  100POPC   C4A 1509   9.098   7.948   5.973 -0.5722 -0.1800 -0.0398
  100POPC   C1B 1510   8.348   8.167   6.840  0.2939 -0.1362  0.2593
  100POPC   C2B 1511   8.475   7.947   6.494 -0.2812  0.0546 -0.0740
  100POPC   C3B 1512   8.592   7.837   6.049  0.0275 -0.0856  0.0761
  100POPC   C4B 1513   8.744   8.134   5.708  0.0297 -0.2022 -0.0765
  101POPC   NC3 1514   9.151   7.189   8.111  0.1213 -0.1532  0.0171
  101POPC   PO4 1515   9.126   6.615   7.996  0.1124  0.1125  0.0990
  101POPC   GL1 1516   9.353   6.419   7.654  0.0927 -0.1387  0.0227
  101POPC   GL2 1517   9.490   6.171   7.722  0.1435  0.1831 -0.1122
  101POPC   C1A 1518   9.238   6.380   7.223 -0.2459 -0.1368 -0.1908
  101POPC   D2A 1519   9.193   6.124   6.883 -0.0991 -0.1419 -0.0588
  101POPC   C3A 1520   9.435   6.355   6.445  0.1740  0.2172  0.0624
  101POPC   C4A 1521   9.821   6.168   6.184 -0.2209 -0.0646  0.2186
  101POPC   C1B 1522   9.764   6.300   7.324  0.2828 -0.0301  0.0725
  101POPC   C2B 1523   9.750   6.181   6.840 -0.1153 -0.1934 -0.1601
  101POPC   C3B 1524   9.625   5.848   6.589 -0.1118 -0.0131 -0.0337
  101POPC   C4B 1525   9.356   5.493   6.773  0.1297  0.4103 -0.0599
  102POPC   NC3 1526   0.283   7.473   7.474 -0.2859 -0.0172 -0.2637
  102POPC   PO4 1527  -0.013   7.983   7.550 -0.0095  0.1708  0.1268
  102POPC   GL1 1528  -0.318   7.909   7.226  0.1419 -0.0754  0.2108
  102POPC   GL2 1529  -0.075   7.625   7.117 -0.1596 -0.0965 -0.0671
  102POPC   C1A 1530  -0.643   7.772   6.942 -0.0437 -0.2836  0.1811
  102POPC   D2A 1531  -0.669   7.505   6.602  0.0428  0.2618  0.1304
  102POPC   C3A 1532  -0.920   7.369   6.356  0.3165 -0.2233  0.0498
  102POPC   C4A 1533  -0.966   7.188   5.915 -0.0545  0.2627  0.2333
  102POPC   C1B 1534  -0.170   7.558   6.706 -0.0458 -0.2352 -0.1252
  102POPC   C2B 1535  -0.272   7.912   6.488 -0.0990  0.3205  0.0819
  102POPC   C3B 1536  -0.243   7.861   6.095  0.1032  0.1172 -0.0883
  102POPC   C4B 1537  -0.415   7.828   5.682 -0.1683  0.2510 -0.0427
  103POPC   NC3 1538   1.272   5.075   7.906  0.0201 -0.0978  0.0024
  103POPC   PO4 1539   1.398   5.527   7.810 -0.0158 -0.2849  0.1487
  103POPC   GL1 1540   1.591   5.636   7.371  0.1776  0.2414  0.0996
  103POPC   GL2 1541   1.944   5.545   7.272 -0.2456 -0.0772  0.1092
  103POPC   C1A 1542   1.635   5.609   6.923 -0.1859  0.0244  0.1607
  103POPC   D2A 1543   1.478   5.828   6.584  0.0325 -0.0751 -0.0620
  103POPC   C3A 1544   1.233   5.687   6.221  0.0063 -0.1010  0.2260
  103POPC   C4A 1545   1.139   5.817   5.740 -0.1411  0.4551  0.0162
  103POPC   C1B 1546   2.200   5.610   6.959 -0.0448  0.0064  0.2319
  103POPC   C2B 1547   2.155   5.724   6.502 -0.0821 -0.1215 -0.2731
  103POPC   C3B 1548   1.904   5.583   6.211 -0.2246 -0.0844  0.1228
  103POPC   C4B 1549   1.683   5.704   5.893 -0.1604 -0.0966  0.5545
  104POPC   NC3 1550   7.591   6.220   7.225  0.2198 -0.1868  0.1540
  104POPC   PO4 1551   7.860   5.926   7.447  0.1677  0.1074  0.1630
  104POPC   GL1 1552   8.013   5.842   7.023 -0.0228  0.1792  0.0514
  104POPC   GL2 1553   7.690   5.905   6.781 -0.0689  0.3382 -0.0094
  104POPC   C1A 1554   8.294   5.728   6.694 -0.1435 -0.1410  0.0156
  104POPC   D2A 1555   8.616   5.736   6.264 -0.2152 -0.3713 -0.0528
  104POPC   C3A 1556   8.665   5.958   5.950  0.3141  0.2005  0.1347
  104POPC   C4A 1557   8.740   6.229   5.529 -0.1891  0.2701  0.0265
  104POPC   C1B 1558   7.905   5.876   6.417  0.1912 -0.1291  0.0403
  104POPC   C2B 1559   8.148   6.147   6.193 -0.2103  0.0168  0.1521
  104POPC   C3B 1560   8.260   6.247   5.751  0.1947  0.1729 -0.1059
  104POPC   C4B 1561   8.212   5.855   5.465  0.1598  0.0317 -0.1693
  105POPC   NC3 1562   3.877   5.228   8.280 -0.1789 -0.0736 -0.2108
  105POPC   PO4 1563   3.831   5.248   7.836 -0.2039  0.2230  0.1411
  105POPC   GL1 1564   3.823   5.254   7.365 -0.1909 -0.1971 -0.1950
  105POPC   GL2 1565   4.075   5.260   7.309  0.1424 -0.1539  0.1289
  105POPC   C1A 1566   3.688   5.451   6.992 -0.1313  0.2271  0.0325
  105POPC   D2A 1567   3.859   5.584   6.586  0.1783  0.0611  0.1791
  105POPC   C3A 1568   3.995   6.016   6.774  0.2783 -0.3573  0.0688
  105POPC   C4A 1569   4.138   6.304   7.071  0.1918 -0.0064 -0.1001
  105POPC   C1B 1570   4.083   5.157   6.744  0.0103  0.2148  0.0590
  105POPC   C2B 1571   4.097   5.355   6.229  0.0468  0.1923 -0.0655
  105POPC   C3B 1572   3.945   5.230   5.914  0.1231  0.0679  0.3040
  105POPC   C4B 1573   3.581   5.079   5.823 -0.1093 -0.0045  0.0180
  106POPC   NC3 1574   1.344  10.194   7.921  0.2020  0.2816  0.3373
  106POPC   PO4 1575   1.411  10.626   7.980 -0.0198 -0.0937 -0.2052
  106POPC   GL1 1576   1.209  10.755   7.631  0.2029 -0.3462 -0.2639
  106POPC   GL2 1577   1.215  10.456   7.439  0.3544 -0.0459 -0.1631
  106POPC   C1A 1578   1.239  10.941   7.171  0.1831 -0.5878  0.0921
  106POPC   D2A 1579   1.473  11.078   6.808  0.1818  0.0446 -0.0894
  106POPC   C3A 1580   1.889  10.910   6.772  0.6811 -0.0373 -0.0468
  106POPC   C4A 1581   2.228  10.849   6.471 -0.1525 -0.0255  0.1669
  106POPC   C1B 1582   1.363  10.420   7.141 -0.0248  0.0009  0.1581
  106POPC   C2B 1583   1.493  10.603   6.861 -0.0789  0.1293 -0.2990
  106POPC   C3B 1584   1.401  10.595   6.416  0.0657 -0.2813  0.0616
  106POPC   C4B 1585   1.043  10.541   6.211  0.0670  0.1309  0.3006
  107POPC   NC3 1586   5.802   2.897   8.273 -0.1286  0.2297 -0.0449
  107POPC   PO4 1587   5.866   3.261   8.116  0.0734 -0.1577 -0.0147
  107POPC   GL1 1588   6.077   3.192   7.685  0.1298  0.1181  0.0513
  107POPC   GL2 1589   5.825   3.177   7.456  0.0210  0.4085  0.4540
  107POPC   C1A 1590   6.475   3.386   7.546 -0.1365 -0.1148  0.0880
  107POPC   D2A 1591   6.627   3.269   7.182 -0.2028  0.0345 -0.0622
  107POPC   C3A 1592   6.489   3.367   6.774  0.1156  0.0508  0.0611
  107POPC   C4A 1593   6.471   2.936   6.391  0.3643  0.0438 -0.0317
  107POPC   C1B 1594   5.591   2.920   7.220 -0.2328 -0.4211  0.2631
  107POPC   C2B 1595   5.732   2.868   6.779  0.3714 -0.1548 -0.1578
  107POPC   C3B 1596   5.901   3.073   6.496 -0.2730 -0.2854  0.3742
  107POPC   C4B 1597   6.085   3.091   6.136 -0.0928 -0.0691  0.1307
  108POPC   NC3 1598   3.295   6.009   7.872  0.2838 -0.1793 -0.0013
  108POPC   PO4 1599   3.275   6.434   7.613  0.0658  0.2423 -0.0747
  108POPC   GL1 1600   3.292   6.369   7.182  0.0428  0.0421  0.2358
  108POPC   GL2 1601   3.141   6.606   7.062  0.1934  0.1672 -0.3224
  108POPC   C1A 1602   3.613   6.438   6.963 -0.0064  0.0442 -0.0205
  108POPC   D2A 1603   3.696   6.347   6.614 -0.1170  0.2896 -0.1780
  108POPC   C3A 1604   3.709   6.089   6.346 -0.0643  0.0831  0.1565
  108POPC   C4A 1605   3.894   5.824   5.998  0.3133 -0.1673 -0.1992
  108POPC   C1B 1606   3.229   6.244   6.654  0.0988  0.2195  0.0060
  108POPC   C2B 1607   2.901   5.895   6.479 -0.1825 -0.0363  0.0617
  108POPC   C3B 1608   2.642   5.785   6.104 -0.1167 -0.2047  0.2329
  108POPC   C4B 1609   2.894   5.596   5.768  0.1708 -0.2035  0.3199
  109POPC   NC3 1610   9.588   5.484   8.209  0.2870  0.0971  0.1533
  109POPC   PO4 1611   9.586   5.929   8.155 -0.0339 -0.0007 -0.2095
  109POPC   GL1 1612   9.826   5.837   7.877 -0.2400  0.1700 -0.0464
  109POPC   GL2 1613  10.078   5.818   8.027  0.1190 -0.0749  0.2542
  109POPC   C1A 1614   9.733   5.794   7.493  0.1035 -0.0074 -0.1199
  109POPC   D2A 1615   9.489   5.862   7.177  0.1653 -0.0886 -0.0797
  109POPC   C3A 1616   9.188   5.624   7.251  0.2726 -0.0145 -0.2423
  109POPC   C4A 1617   8.869   5.384   7.517 -0.0876 -0.1818  0.1134
  109POPC   C1B 1618  10.144   6.012   7.512 -0.2172  0.0774  0.1092
  109POPC   C2B 1619  10.217   6.192   7.213  0.0652  0.0088  0.0848
  109POPC   C3B 1620  10.285   6.327   6.870 -0.1911 -0.0362 -0.1003
  109POPC   C4B 1621  10.264   6.088   6.476 -0.2028 -0.0760 -0.2462
  110POPC   NC3 1622   7.450   7.080   7.160 -0.2305  0.0709  0.1698
  110POPC   PO4 1623   7.701   6.788   7.317 -0.3253  0.0276  0.1354
  110POPC   GL1 1624   7.913   6.992   6.958  0.1490  0.1543 -0.0493
  110POPC   GL2 1625   7.904   7.279   6.999  0.0988  0.1206  0.2947
  110POPC   C1A 1626   7.968   6.928   6.468  0.0409 -0.1747 -0.1787
  110POPC   D2A 1627   8.291   7.200   6.178 -0.1043  0.3235  0.0223
  110POPC   C3A 1628   8.554   7.120   5.842 -0.0556  0.1897 -0.1829
  110POPC   C4A 1629   8.705   7.384   5.562  0.0915 -0.2100 -0.0570
  110POPC   C1B 1630   8.037   7.466   6.607 -0.3675 -0.1382  0.0193
  110POPC   C2B 1631   8.077   7.670   6.236 -0.2259  0.1237  0.2305
  110POPC   C3B 1632   8.107   7.658   5.831 -0.1332 -0.0109 -0.0002
  110POPC   C4B 1633   8.159   7.299   5.517  0.1252 -0.2328 -0.0665
  111POPC   NC3 1634   4.913   4.854   7.702  0.1065 -0.0195  0.0402
  111POPC   PO4 1635   4.908   4.355   7.653 -0.2842  0.0251  0.4193
  111POPC   GL1 1636   4.835   4.415   7.290  0.0807 -0.1287  0.4301
  111POPC   GL2 1637   4.777   4.719   7.202  0.0857  0.2337  0.0574
  111POPC   C1A 1638   5.002   4.178   6.923  0.1001 -0.1258 -0.0768
  111POPC   D2A 1639   4.901   3.721   6.916  0.1988 -0.1247  0.2010
  111POPC   C3A 1640   5.192   3.649   6.715 -0.0946  0.3146  0.0242
  111POPC   C4A 1641   5.503   3.389   6.636  0.0910 -0.0365 -0.1782
  111POPC   C1B 1642   4.799   5.018   6.902 -0.0197 -0.3327 -0.0505
  111POPC   C2B 1643   4.578   5.162   6.526  0.1829  0.3091  0.1763
  111POPC   C3B 1644   4.416   4.893   6.173 -0.0042  0.0992 -0.0557
  111POPC   C4B 1645   4.449   4.494   6.074 -0.0417 -0.2765 -0.0738
  112POPC   NC3 1646   7.373   8.628   7.830  0.0733 -0.0539  0.0494
  112POPC   PO4 1647   7.453   8.423   7.444 -0.0102 -0.1954  0.1468
  112POPC   GL1 1648   7.318   8.286   7.015  0.0387  0.0608  0.0890
  112POPC   GL2 1649   7.448   8.017   6.893  0.2220  0.0058  0.2835
  112POPC   C1A 1650   7.122   8.406   6.666 -0.0725 -0.1049  0.2177
  112POPC   D2A 1651   7.252   8.823   6.517 -0.5243  0.2901  0.1357
  112POPC   C3A 1652   7.450   8.806   6.149 -0.0535 -0.1233  0.2038
  112POPC   C4A 1653   7.325   8.492   5.780 -0.1406 -0.1405  0.1838
  112POPC   C1B 1654   7.327   7.961   6.507  0.1244 -0.2013 -0.0423
  112POPC   C2B 1655   7.081   8.291   6.216  0.0053 -0.1507 -0.4339
  112POPC   C3B 1656   6.875   8.620   6.077  0.2098  0.0944 -0.0585
  112POPC   C4B 1657   6.513   8.737   6.244  0.2353 -0.2158 -0.1573
  113POPC   NC3 1658   6.693   1.677   8.074 -0.1198  0.0374  0.3049
  113POPC   PO4 1659   6.596   1.460   7.695  0.1222 -0.0492  0.1646
  113POPC   GL1 1660   6.743   1.450   7.309 -0.1688 -0.1009  0.1227
  113POPC   GL2 1661   6.761   1.621   7.154 -0.2194  0.1758  0.1234
  113POPC   C1A 1662   6.897   1.405   6.754 -0.0361  0.2711 -0.0015
  113POPC   D2A 1663   7.063   1.675   6.368  0.1184 -0.0942 -0.2126
  113POPC   C3A 1664   6.900   1.640   5.938 -0.0519 -0.1025  0.2923
  113POPC   C4A 1665   6.748   1.657   5.553  0.0914  0.0353 -0.0914
  113POPC   C1B 1666   6.463   1.588   6.877 -0.1963  0.0877  0.0055
  113POPC   C2B 1667   6.487   1.555   6.376  0.0656  0.1390  0.3283
  113POPC   C3B 1668   6.434   1.755   5.947  0.0582  0.0296  0.1561
  113POPC   C4B 1669   6.421   2.174   5.938 -0.2079  0.3557  0.0523
  114POPC   NC3 1670   8.277   8.550   7.588 -0.1198 -0.2239  0.1386
  114POPC   PO4 1671   7.930   8.864   7.600  0.1227  0.4644 -0.0906
  114POPC   GL1 1672   7.768   8.652   7.181  0.0870  0.3209 -0.4356
  114POPC   GL2 1673   8.006   8.328   7.136  0.0090 -0.0053 -0.0649
  114POPC   C1A 1674   7.713   8.461   6.758 -0.3251  0.1008 -0.1324
  114POPC   D2A 1675   7.684   8.308   6.215  0.0908 -0.0454 -0.0103
  114POPC   C3A 1676   7.666   7.914   6.138 -0.0721  0.0609 -0.1546
  114POPC   C4A 1677   7.631   7.548   5.867  0.3256  0.1318 -0.1583
  114POPC   C1B 1678   8.205   8.631   6.946 -0.1612 -0.1500 -0.2021
  114POPC   C2B 1679   8.384   8.715   6.620  0.1550  0.1839  0.1407
  114POPC   C3B 1680   8.213   8.700   6.194 -0.2120  0.0923 -0.1985
  114POPC   C4B 1681   7.867   8.637   5.925 -0.1379  0.1356 -0.0342
  115POPC   NC3 1682   0.873   0.990   7.854 -0.0520 -0.0206 -0.3313
  115POPC   PO4 1683   0.727   1.442   7.876 -0.0652 -0.1626 -0.1058
  115POPC   GL1 1684   0.670   1.569   7.428 -0.1271  0.2945  0.0583
  115POPC   GL2 1685   0.749   1.718   7.284  0.0551 -0.2354 -0.0167
  115POPC   C1A 1686   0.377   1.399   7.164  0.0361 -0.0823  0.1891
  115POPC   D2A 1687   0.457   1.319   6.687  0.1532 -0.0068 -0.2548
  115POPC   C3A 1688   0.100   1.238   6.397 -0.0057  0.2994  0.1599
  115POPC   C4A 1689  -0.254   1.265   6.397 -0.0508  0.0913  0.1666
  115POPC   C1B 1690   0.772   1.675   6.877  0.0731 -0.0732 -0.0655
  115POPC   C2B 1691   0.636   1.915   6.607  0.0780  0.0161  0.2070
  115POPC   C3B 1692   0.400   2.223   6.367  0.0681  0.1740 -0.4489
  115POPC   C4B 1693   0.261   2.499   6.182 -0.2661 -0.0803  0.1867
  116POPC   NC3 1694   3.614   8.008   7.439 -0.1123 -0.2862 -0.3462
  116POPC   PO4 1695   3.368   8.331   7.368  0.2201 -0.1339 -0.0234
  116POPC   GL1 1696   3.219   8.117   7.102  0.0123  0.0300  0.1594
  116POPC   GL2 1697   3.382   7.867   7.000  0.1950 -0.1198 -0.1353
  116POPC   C1A 1698   3.486   7.982   6.562 -0.2401 -0.3948 -0.1320
  116POPC   D2A 1699   3.648   7.608   6.338 -0.1061 -0.1943  0.3557
  116POPC   C3A 1700   3.995   7.427   6.169  0.0825  0.0865  0.3623
  116POPC   C4A 1701   4.396   7.408   6.082  0.0439 -0.1947 -0.0810
  116POPC   C1B 1702   3.580   7.505   6.889  0.2579  0.3246 -0.1350
  116POPC   C2B 1703   3.800   7.217   6.659  0.2920  0.1489 -0.1470
  116POPC   C3B 1704   4.035   7.000   6.392 -0.0176  0.0605 -0.0946
  116POPC   C4B 1705   4.216   6.893   6.027 -0.1232 -0.2298 -0.0813
  117POPC   NC3 1706   3.979  10.560   7.421  0.0745 -0.1700  0.0307
  117POPC   PO4 1707   3.972  10.161   7.251 -0.0856 -0.0986 -0.2018
  117POPC   GL1 1708   3.901   9.764   6.942 -0.2814 -0.0615 -0.0822
  117POPC   GL2 1709   3.560   9.612   6.929  0.2584 -0.1345  0.1257
  117POPC   C1A 1710   4.053   9.578   6.579  0.1523  0.0664  0.2139
  117POPC   D2A 1711   4.279   9.551   6.378 -0.1311 -0.1181  0.3592
  117POPC   C3A 1712   4.423   9.855   6.099 -0.1378  0.0454  0.0538
  117POPC   C4A 1713   4.480  10.316   6.103  0.0625  0.1420 -0.3075
  117POPC   C1B 1714   3.367   9.633   6.476 -0.0608 -0.0598 -0.1767
  117POPC   C2B 1715   3.301   9.678   6.051 -0.1339  0.1374  0.1870
  117POPC   C3B 1716   3.073   9.898   5.802  0.2696 -0.0602 -0.0373
  117POPC   C4B 1717   2.592   9.981   5.841 -0.2066 -0.0182 -0.2654
  118POPC   NC3 1718   8.819   4.879   8.389  0.0532 -0.2292 -0.0898
  118POPC   PO4 1719   8.601   4.502   8.381 -0.2483  0.0986 -0.2408
  118POPC   GL1 1720   8.622   4.553   7.939  0.3357  0.0432 -0.1284
  118POPC   GL2 1721   8.539   4.827   7.774 -0.0724  0.1459 -0.2210
  118POPC   C1A 1722   8.763   4.480   7.539 -0.0253  0.1742  0.0811
  118POPC   D2A 1723   8.725   4.792   7.228 -0.4139  0.0306  0.2872
  118POPC   C3A 1724   8.853   4.896   6.777 -0.3252 -0.0259 -0.0680
  118POPC   C4A 1725   9.225   5.015   6.646 -0.1958 -0.1105 -0.0608
  118POPC   C1B 1726   8.438   5.152   7.451 -0.0417 -0.0032 -0.1240
  118POPC   C2B 1727   8.296   5.366   7.131  0.0447 -0.3066 -0.0668
  118POPC   C3B 1728   8.010   5.326   6.873  0.2303 -0.0494  0.1128
  118POPC   C4B 1729   8.027   5.107   6.622 -0.0455  0.1642 -0.0776
  119POPC   NC3 1730   5.654   7.850   7.662  0.0238  0.0512 -0.1067
  119POPC   PO4 1731   5.404   7.470   7.655  0.0528 -0.1701 -0.1185
  119POPC   GL1 1732   5.590   7.624   7.231  0.1410 -0.2476 -0.0824
  119POPC   GL2 1733   5.908   7.688   7.077  0.1053 -0.1265  0.2729
  119POPC   C1A 1734   5.424   7.416   6.809 -0.0982  0.2078 -0.0996
  119POPC   D2A 1735   5.035   7.327   6.504 -0.2073  0.0058  0.0033
  119POPC   C3A 1736   4.629   7.455   6.458  0.2535 -0.3497 -0.0711
  119POPC   C4A 1737   4.240   7.402   6.588 -0.0204 -0.0443 -0.1580
  119POPC   C1B 1738   5.799   7.612   6.636 -0.1114 -0.0139  0.4073
  119POPC   C2B 1739   5.772   7.597   6.084  0.0989  0.3482  0.4278
  119POPC   C3B 1740   5.575   7.899   5.773  0.2871  0.2134 -0.3183
  119POPC   C4B 1741   5.633   8.355   5.981 -0.1218 -0.0030  0.1697
  120POPC   NC3 1742   3.889   4.757   7.635  0.1694 -0.1296  0.1855
  120POPC   PO4 1743   3.454   4.686   7.727  0.0557 -0.0744  0.3150
  120POPC   GL1 1744   3.428   4.819   7.370 -0.1833  0.0193  0.1246
  120POPC   GL2 1745   3.633   4.651   7.186  0.0078  0.0294  0.0105
  120POPC   C1A 1746   3.479   5.024   6.936  0.0078  0.0893  0.1818
  120POPC   D2A 1747   3.573   5.083   6.592  0.2177 -0.2036 -0.0497
  120POPC   C3A 1748   3.488   5.400   6.231 -0.4805 -0.0930  0.0846
  120POPC   C4A 1749   3.250   5.674   6.155 -0.0484  0.1334  0.0821
  120POPC   C1B 1750   3.891   4.734   6.877 -0.1890 -0.1542  0.1083
  120POPC   C2B 1751   3.945   4.847   6.400 -0.0951  0.2791 -0.0281
  120POPC   C3B 1752   3.934   4.754   6.044  0.2538 -0.1741  0.0327
  120POPC   C4B 1753   4.298   4.906   5.700  0.0889 -0.3362  0.2749
  121POPC   NC3 1754   6.922   3.230   8.109  0.0055 -0.1072 -0.1699
  121POPC   PO4 1755   6.765   2.734   8.102  0.1125 -0.1350  0.2208
  121POPC   GL1 1756   6.853   2.491   7.722 -0.2027  0.1129 -0.2935
  121POPC   GL2 1757   7.073   2.511   7.473 -0.2417 -0.0216 -0.2143
  121POPC   C1A 1758   6.584   2.512   7.263  0.2574 -0.1853  0.1844
  121POPC   D2A 1759   6.196   2.410   7.054 -0.1193 -0.1067  0.2602
  121POPC   C3A 1760   6.130   2.607   6.627 -0.1515 -0.3273 -0.0374
  121POPC   C4A 1761   6.245   2.540   6.188  0.1311  0.0688  0.1290
  121POPC   C1B 1762   7.068   2.459   7.010  0.1553  0.0156 -0.0680
  121POPC   C2B 1763   7.452   2.473   6.758 -0.2663 -0.0275  0.0058
  121POPC   C3B 1764   7.567   2.476   6.295  0.0170  0.1452 -0.0243
  121POPC   C4B 1765   7.641   2.480   5.919  0.3855  0.1291  0.1581
  122POPC   NC3 1766   0.044   0.387   8.286  0.2850  0.1697 -0.3344
  122POPC   PO4 1767  -0.176   0.611   8.022 -0.0508  0.0464 -0.2267
  122POPC   GL1 1768  -0.164   0.677   7.662 -0.0182 -0.2886  0.0240
  122POPC   GL2 1769  -0.500   0.591   7.465  0.3367  0.3011 -0.0173
  122POPC   C1A 1770   0.210   0.747   7.305  0.1600 -0.0798  0.0946
  122POPC   D2A 1771   0.633   0.804   6.887 -0.4022  0.2054 -0.2827
  122POPC   C3A 1772   0.862   0.616   6.439  0.2484  0.1491  0.1837
  122POPC   C4A 1773   1.201   0.346   6.380  0.0607 -0.2647 -0.1365
  122POPC   C1B 1774  -0.718   0.723   7.139  0.3335  0.0904 -0.2609
  122POPC   C2B 1775  -0.667   0.507   6.800  0.2665 -0.2405  0.1378
  122POPC   C3B 1776  -1.100   0.522   6.645 -0.3338 -0.1251 -0.1943
  122POPC   C4B 1777  -1.508   0.414   6.424 -0.0936  0.0426 -0.0779
  123POPC   NC3 1778   3.008   5.306   8.200  0.1728  0.0324 -0.0146
  123POPC   PO4 1779   2.906   5.453   7.814  0.0986 -0.1909  0.1542
  123POPC   GL1 1780   2.963   5.542   7.382  0.1057  0.3113  0.2182
  123POPC   GL2 1781   3.173   5.311   7.215 -0.1402  0.2887  0.3553
  123POPC   C1A 1782   2.766   5.523   6.918 -0.0421 -0.2368 -0.0318
  123POPC   D2A 1783   2.615   5.503   6.522 -0.0121 -0.1950  0.2683
  123POPC   C3A 1784   2.846   5.364   6.230 -0.2479  0.2213 -0.0272
  123POPC   C4A 1785   3.136   5.022   6.152  0.1584  0.2787  0.0721
  123POPC   C1B 1786   3.000   5.047   6.939  0.0018  0.0385  0.1382
  123POPC   C2B 1787   3.105   4.817   6.610  0.1669 -0.2846  0.1334
  123POPC   C3B 1788   2.951   4.394   6.354 -0.0044 -0.2803  0.0463
  123POPC   C4B 1789   2.989   4.202   5.943 -0.1269 -0.0843 -0.4319
  124POPC   NC3 1790   5.569   6.532   7.537  0.2515  0.1755  0.0214
  124POPC   PO4 1791   5.865   6.821   7.514 -0.3213  0.1641  0.2539
  124POPC   GL1 1792   6.065   6.696   7.211 -0.0693 -0.1397  0.1924
  124POPC   GL2 1793   5.986   7.098   7.153 -0.1936  0.0594  0.0091
  124POPC   C1A 1794   6.144   6.726   6.822  0.0418  0.0806 -0.1797
  124POPC   D2A 1795   6.270   6.465   6.427 -0.0859  0.5827  0.0572
  124POPC   C3A 1796   6.456   5.940   6.532 -0.1396  0.2779 -0.2578
  124POPC   C4A 1797   6.544   5.607   6.808  0.3285 -0.1956 -0.0639
  124POPC   C1B 1798   6.249   7.281   6.720  0.1006 -0.0993  0.0643
  124POPC   C2B 1799   6.602   7.310   6.365 -0.2505  0.0198 -0.0123
  124POPC   C3B 1800   6.780   7.382   5.953  0.1760  0.1073  0.1739
  124POPC   C4B 1801   7.097   7.353   5.688 -0.0572  0.1741 -0.0266
  125POPC   NC3 1802   6.220   4.741   8.012 -0.0141  0.0256  0.0384
  125POPC   PO4 1803   5.872   5.071   7.774 -0.2142 -0.0576  0.0752
  125POPC   GL1 1804   5.925   5.169   7.332  0.1924  0.0618  0.3236
  125POPC   GL2 1805   6.181   5.413   7.246 -0.0671  0.1555 -0.2399
  125POPC   C1A 1806   6.050   5.087   6.789  0.1081  0.1227 -0.0582
  125POPC   D2A 1807   5.960   4.949   6.438  0.1024  0.2010  0.3018
  125POPC   C3A 1808   5.767   4.548   6.313  0.3060 -0.0523 -0.3444
  125POPC   C4A 1809   5.664   4.220   6.156 -0.1386  0.1660 -0.2186
  125POPC   C1B 1810   6.488   5.096   6.989  0.0146 -0.1354 -0.0770
  125POPC   C2B 1811   6.778   4.738   7.037  0.1683 -0.0107  0.4070
  125POPC   C3B 1812   6.969   4.469   6.865  0.4330  0.0000 -0.0662
  125POPC   C4B 1813   7.252   4.538   6.437  0.0269 -0.0529  0.2427
  126POPC   NC3 1814   6.756   4.054   8.521  0.3864 -0.4011 -0.0326
  126POPC   PO4 1815   6.762   3.672   8.165 -0.3315  0.1139  0.2571
  126POPC   GL1 1816   6.899   3.604   7.682 -0.0419  0.0449  0.0269
  126POPC   GL2 1817   7.107   3.869   7.551  0.4063  0.0070  0.2097
  126POPC   C1A 1818   7.058   3.469   7.279 -0.2480  0.0848  0.0245
  126POPC   D2A 1819   6.987   3.442   6.866 -0.1580  0.1660  0.1930
  126POPC   C3A 1820   6.848   3.281   6.490 -0.0458  0.1115 -0.1285
  126POPC   C4A 1821   6.780   3.112   6.073 -0.0755  0.0161  0.2148
  126POPC   C1B 1822   7.086   3.976   7.151  0.4111 -0.0029 -0.3678
  126POPC   C2B 1823   7.054   3.999   6.682  0.3377  0.0001  0.0673
  126POPC   C3B 1824   7.044   4.171   6.239 -0.1147 -0.3054 -0.1542
  126POPC   C4B 1825   7.222   4.463   5.890 -0.1287 -0.0135 -0.2993
  127POPC   NC3 1826   4.446   8.709   7.554  0.1067  0.0760  0.2761
  127POPC   PO4 1827   4.027   8.820   7.764  0.0372 -0.0251 -0.2649
  127POPC   GL1 1828   3.936   8.928   7.257 -0.1933  0.0019  0.2361
  127POPC   GL2 1829   3.723   8.761   7.101 -0.0244 -0.0793 -0.1654
  127POPC   C1A 1830   4.091   8.655   6.863 -0.2237 -0.0310  0.3955
  127POPC   D2A 1831   4.331   8.280   6.643  0.1156  0.3055 -0.0348
  127POPC   C3A 1832   4.321   8.083   6.228  0.2151  0.2175 -0.0197
  127POPC   C4A 1833   4.562   7.854   5.963  0.4861  0.0785 -0.0762
  127POPC   C1B 1834   3.632   8.767   6.648  0.0646  0.0841 -0.1241
  127POPC   C2B 1835   3.703   8.747   6.172 -0.0350 -0.3233 -0.2764
  127POPC   C3B 1836   3.879   8.552   5.909 -0.0157  0.3601  0.0791
  127POPC   C4B 1837   3.831   8.590   5.465  0.0445  0.1694  0.0809
  128POPC   NC3 1838   9.621   7.831   7.508 -0.0439 -0.2810 -0.1357
  128POPC   PO4 1839   9.243   7.700   7.727 -0.0599 -0.1115 -0.1652
  128POPC   GL1 1840   9.142   7.845   7.353  0.1134 -0.2811 -0.1087
  128POPC   GL2 1841   9.209   7.484   7.231  0.1110 -0.0865  0.0231
  128POPC   C1A 1842   9.186   8.162   6.954  0.0862 -0.2486 -0.1839
  128POPC   D2A 1843   8.853   8.452   6.907 -0.0208  0.0606 -0.0704
  128POPC   C3A 1844   8.719   8.390   6.552 -0.3935  0.2876 -0.0406
  128POPC   C4A 1845   8.614   8.425   6.183 -0.1674  0.3817  0.0299
  128POPC   C1B 1846   9.049   7.269   6.942 -0.1472 -0.0773  0.2693
  128POPC   C2B 1847   9.117   7.185   6.500  0.0547  0.0975 -0.2981
  128POPC   C3B 1848   9.265   7.129   6.063  0.2269 -0.1261 -0.1592
  128POPC   C4B 1849   9.061   6.950   5.766 -0.1673  0.1676  0.1115
  129POPC   NC3 1850   5.814   9.377   8.435  0.1131  0.0101  0.0147
  129POPC   PO4 1851   5.687   9.301   8.076  0.1942  0.2228 -0.0670
  129POPC   GL1 1852   5.709   9.332   7.682 -0.2084 -0.2593  0.3247
  129POPC   GL2 1853   5.503   9.679   7.625  0.1271  0.0581 -0.0911
  129POPC   C1A 1854   5.497   9.355   7.272 -0.1475 -0.1979 -0.1153
  129POPC   D2A 1855   5.281   9.734   7.145 -0.2792 -0.2394 -0.0532
  129POPC   C3A 1856   4.951   9.751   6.904  0.0785 -0.0581 -0.2239
  129POPC   C4A 1857   4.753   9.947   6.511  0.1390  0.2592 -0.1483
  129POPC   C1B 1858   5.858   9.842   7.397 -0.4824 -0.4674 -0.1163
  129POPC   C2B 1859   6.097  10.067   7.171 -0.0718 -0.0433  0.1980
  129POPC   C3B 1860   6.492   9.958   6.932  0.0574 -0.1473  0.0930
  129POPC   C4B 1861   6.764   9.664   6.796 -0.2297  0.0447  0.1015
  130POPC   NC3 1862   0.640   3.504   8.602  0.0948  0.0300 -0.0177
  130POPC   PO4 1863   0.538   3.169   8.235  0.1612 -0.1150 -0.0788
  130POPC   GL1 1864   0.346   3.142   7.840  0.0379 -0.4051 -0.0145
  130POPC   GL2 1865   0.720   3.207   7.685 -0.0704 -0.0758 -0.0036
  130POPC   C1A 1866   0.304   2.831   7.593 -0.2009  0.0451 -0.1055
  130POPC   D2A 1867   0.482   2.617   7.223  0.0732 -0.3497 -0.1576
  130POPC   C3A 1868   0.828   2.727   6.990 -0.1438 -0.0441  0.0734
  130POPC   C4A 1869   1.008   2.878   6.638  0.0944 -0.0671  0.1036
  130POPC   C1B 1870   0.637   3.102   7.259 -0.2941  0.2421 -0.1619
  130POPC   C2B 1871   0.800   3.240   6.907  0.0871 -0.1732  0.1011
  130POPC   C3B 1872   0.819   3.348   6.489 -0.2157 -0.1239 -0.1093
  130POPC   C4B 1873   0.807   3.479   6.059 -0.1824 -0.1030 -0.1866
  131POPC   NC3 1874   9.302   0.406   7.848 -0.0595  0.1112 -0.0457
  131POPC   PO4 1875   8.814   0.357   7.670  0.2025  0.1015 -0.3697
  131POPC   GL1 1876   8.963   0.035   7.379 -0.3722 -0.3570  0.1262
  131POPC   GL2 1877   9.318   0.019   7.350  0.1559  0.2753  0.1194
  131POPC   C1A 1878   8.988  -0.132   6.954  0.0765  0.1310  0.0555
  131POPC   D2A 1879   8.921  -0.063   6.533 -0.0469  0.0511 -0.3459
  131POPC   C3A 1880   9.160  -0.090   6.109  0.1122  0.0584 -0.1096
  131POPC   C4A 1881   9.617   0.109   5.993 -0.0500 -0.1026  0.3838
  131POPC   C1B 1882   9.412  -0.376   7.043  0.0671  0.5554 -0.4058
  131POPC   C2B 1883   9.537  -0.614   6.807  0.0743 -0.0154  0.0555
  131POPC   C3B 1884   9.850  -0.676   6.504  0.0940  0.3238 -0.0873
  131POPC   C4B 1885  10.003  -0.952   6.024  0.0327  0.1041  0.1556
  132POPC   NC3 1886   4.175   0.784   7.837 -0.0288  0.0384 -0.0563
  132POPC   PO4 1887   4.598   0.850   7.920 -0.0573 -0.1302 -0.0937
  132POPC   GL1 1888   4.797   1.004   7.467 -0.0747 -0.0134 -0.1864
  132POPC   GL2 1889   4.528   1.155   7.185 -0.1248 -0.1616 -0.2223
  132POPC   C1A 1890   4.818   0.766   7.046 -0.3082 -0.0497  0.0120
  132POPC   D2A 1891   4.996   0.466   6.837  0.0616  0.1647 -0.1737
  132POPC   C3A 1892   4.727   0.228   6.527 -0.1346 -0.0341 -0.1851
  132POPC   C4A 1893   4.444   0.128   6.165 -0.0670  0.0826  0.0803
  132POPC   C1B 1894   4.340   0.885   6.857  0.3295 -0.0209 -0.0755
  132POPC   C2B 1895   4.411   0.631   6.395  0.0425 -0.0918  0.0344
  132POPC   C3B 1896   4.703   0.640   6.177 -0.2110  0.3817 -0.3234
  132POPC   C4B 1897   5.024   0.597   5.979 -0.2696  0.3754 -0.0071
  133POPC   NC3 1898   6.817   9.490   7.539 -0.0992 -0.0548  0.0396
  133POPC   PO4 1899   6.613   9.294   7.282  0.1780 -0.1127 -0.0239
  133POPC   GL1 1900   6.347   9.427   7.003 -0.0655  0.0668  0.0234
  133POPC   GL2 1901   6.119   9.497   7.132  0.1735  0.1119 -0.2978
  133POPC   C1A 1902   6.237   9.594   6.680  0.0028  0.0757  0.2062
  133POPC   D2A 1903   6.188   9.667   6.262  0.1712  0.0102  0.2582
  133POPC   C3A 1904   6.365   9.363   5.994  0.1598  0.2758  0.2762
  133POPC   C4A 1905   6.598   9.160   5.615 -0.0560  0.2933  0.3968
  133POPC   C1B 1906   5.830   9.275   6.833 -0.1354  0.1762  0.0150
  133POPC   C2B 1907   5.777   8.937   6.620  0.1511 -0.0132  0.1544
  133POPC   C3B 1908   5.588   8.723   6.313  0.0757  0.0887 -0.0184
  133POPC   C4B 1909   5.181   8.570   6.111  0.2565  0.1379  0.4354
  134POPC   NC3 1910   1.578   3.296   8.373 -0.2193 -0.1995 -0.2398
  134POPC   PO4 1911   1.301   3.545   8.130 -0.0073  0.1498  0.2553
  134POPC   GL1 1912   1.208   3.334   7.681  0.0120  0.0340  0.1929
  134POPC   GL2 1913   1.283   3.052   7.530 -0.0370  0.2099 -0.1701
  134POPC   C1A 1914   0.938   3.528   7.311 -0.2097 -0.0327  0.0130
  134POPC   D2A 1915   0.522   3.580   7.189 -0.0308  0.0553  0.0130
  134POPC   C3A 1916   0.370   3.390   6.914  0.0787  0.1645  0.0027
  134POPC   C4A 1917  -0.031   3.162   6.707 -0.2549 -0.0537  0.3283
  134POPC   C1B 1918   1.291   2.950   7.086  0.1073  0.1054  0.0676
  134POPC   C2B 1919   1.345   3.261   6.726  0.0158 -0.1894 -0.0837
  134POPC   C3B 1920   1.375   3.259   6.279  0.0476  0.0665 -0.1244
  134POPC   C4B 1921   1.495   3.022   5.909  0.0229 -0.2080  0.0158
  135POPC   NC3 1922   5.518   3.045   7.786  0.1801  0.1138 -0.2575
  135POPC   PO4 1923   5.399   2.694   8.035 -0.0485  0.3250  0.1972
  135POPC   GL1 1924   5.311   2.495   7.609  0.0254 -0.4148 -0.1236
  135POPC   GL2 1925   5.583   2.465   7.397 -0.1397 -0.1936  0.0678
  135POPC   C1A 1926   5.105   2.693   7.239 -0.0333  0.2807  0.0553
  135POPC   D2A 1927   5.294   2.677   6.777 -0.1898 -0.0512 -0.2541
  135POPC   C3A 1928   4.992   2.626   6.365  0.2534 -0.3262 -0.0214
  135POPC   C4A 1929   4.888   2.577   5.894  0.0668 -0.3810  0.0856
  135POPC   C1B 1930   5.686   2.369   6.947  0.0381  0.1056  0.0284
  135POPC   C2B 1931   5.658   2.473   6.510 -0.3151  0.1522 -0.1630
  135POPC   C3B 1932   5.724   2.732   6.137 -0.1423 -0.2228 -0.1163
  135POPC   C4B 1933   5.406   2.937   6.322  0.1147  0.1104  0.1003
  136POPC   NC3 1934   7.682   4.597   8.124  0.2318  0.1238 -0.2526
  136POPC   PO4 1935   7.764   5.119   8.165  0.1788 -0.1124  0.1567
  136POPC   GL1 1936   7.909   4.933   7.741 -0.0674 -0.4113  0.1179
  136POPC   GL2 1937   8.051   4.654   7.614  0.1943  0.0633  0.1029
  136POPC   C1A 1938   7.938   5.028   7.348 -0.0683  0.1478 -0.0282
  136POPC   D2A 1939   7.779   4.689   7.033 -0.0716 -0.2221 -0.0988
  136POPC   C3A 1940   7.717   4.725   6.573  0.0516 -0.0932  0.1299
  136POPC   C4A 1941   7.674   4.506   6.130 -0.2429 -0.0830  0.0125
  136POPC   C1B 1942   8.288   4.619   7.292 -0.0980  0.2748  0.2620
  136POPC   C2B 1943   8.366   4.899   6.966  0.0628  0.0020  0.2873
  136POPC   C3B 1944   8.425   4.787   6.513 -0.0148 -0.2228  0.2555
  136POPC   C4B 1945   8.586   4.496   6.180  0.2331 -0.5871 -0.0456
  137POPC   NC3 1946   3.861   7.614   7.585 -0.2517 -0.2037 -0.0193
  137POPC   PO4 1947   4.101   7.929   7.282 -0.1808 -0.2519  0.0697
  137POPC   GL1 1948   3.844   7.995   6.972 -0.0591  0.1988  0.2511
  137POPC   GL2 1949   3.676   8.292   6.989  0.0642  0.1591 -0.2260
  137POPC   C1A 1950   3.996   7.844   6.598  0.2098 -0.0103  0.3643
  137POPC   D2A 1951   3.793   8.019   6.138 -0.0428 -0.2575 -0.1035
  137POPC   C3A 1952   3.936   7.653   5.714  0.1474 -0.2279 -0.1622
  137POPC   C4A 1953   3.953   7.388   5.365 -0.1337 -0.0618  0.3117
  137POPC   C1B 1954   3.843   8.367   6.489 -0.2265  0.4156  0.4747
  137POPC   C2B 1955   4.154   8.649   6.362  0.3317 -0.1324 -0.0294
  137POPC   C3B 1956   4.298   8.833   5.927  0.0162 -0.0124  0.1611
  137POPC   C4B 1957   4.574   8.945   5.525 -0.0323 -0.0281 -0.0262
  138POPC   NC3 1958   8.036   7.560   8.197 -0.1322 -0.0182  0.3281
  138POPC   PO4 1959   8.201   7.587   7.728  0.2076  0.1494  0.1883
  138POPC   GL1 1960   8.190   7.544   7.317 -0.1861 -0.2158  0.3492
  138POPC   GL2 1961   7.992   7.820   7.016  0.1782  0.2069  0.0774
  138POPC   C1A 1962   8.370   7.505   6.988 -0.1218 -0.0013  0.3363
  138POPC   D2A 1963   8.643   7.440   6.538 -0.0494  0.3087 -0.1600
  138POPC   C3A 1964   8.925   7.525   6.093  0.1348 -0.1840  0.0806
  138POPC   C4A 1965   9.149   7.445   5.733 -0.2651  0.2285  0.1639
  138POPC   C1B 1966   7.861   7.956   6.676  0.0422  0.0638 -0.0348
  138POPC   C2B 1967   8.126   8.182   6.312  0.1480  0.1700 -0.1027
  138POPC   C3B 1968   8.240   8.194   5.882 -0.1367 -0.0841 -0.0625
  138POPC   C4B 1969   8.225   8.195   5.504  0.1505 -0.3899  0.0968
  139POPC   NC3 1970   9.747   8.677   8.291 -0.2008  0.2126 -0.1524
  139POPC   PO4 1971   9.838   8.778   7.861  0.2126  0.5412  0.1522
  139POPC   GL1 1972   9.985   8.558   7.398 -0.0670  0.2929  0.2180
  139POPC   GL2 1973   9.703   8.690   7.130 -0.2306 -0.3024 -0.0857
  139POPC   C1A 1974  10.005   8.252   7.178  0.1229  0.2093  0.3028
  139POPC   D2A 1975   9.667   8.120   7.078 -0.1012  0.0081 -0.1477
  139POPC   C3A 1976   9.507   7.826   6.774 -0.0820 -0.0316  0.1047
  139POPC   C4A 1977   9.367   7.568   6.294  0.1722  0.2617  0.1567
  139POPC   C1B 1978  10.024   8.806   6.861  0.1020  0.2358 -0.0706
  139POPC   C2B 1979  10.294   9.197   6.593 -0.2512 -0.1261  0.2908
  139POPC   C3B 1980  10.354   9.332   6.222 -0.1271 -0.0353  0.0627
  139POPC   C4B 1981  10.273   9.369   5.778 -0.0591 -0.3742  0.1008
  140POPC   NC3 1982   9.593   2.854   8.653  0.2351 -0.0284  0.0923
  140POPC   PO4 1983   9.262   2.618   8.635  0.0181 -0.0866  0.3152
  140POPC   GL1 1984   9.381   2.723   8.134 -0.0896  0.1455 -0.0303
  140POPC   GL2 1985   9.349   2.454   7.923  0.1064 -0.0429 -0.4967
  140POPC   C1A 1986   9.713   2.905   7.934 -0.1534 -0.1111  0.1691
  140POPC   D2A 1987   9.953   3.337   7.912  0.1577 -0.1066 -0.0735
  140POPC   C3A 1988  10.312   3.209   7.795  0.0706  0.1319 -0.2626
  140POPC   C4A 1989  10.611   2.950   7.804  0.0183 -0.0427 -0.2859
  140POPC   C1B 1990   9.262   2.882   7.665 -0.0942  0.1816  0.1184
  140POPC   C2B 1991   9.117   3.144   7.395 -0.0558 -0.2459  0.2199
  140POPC   C3B 1992   9.146   3.504   7.528  0.2675 -0.0330  0.2514
  140POPC   C4B 1993   9.052   3.721   7.873 -0.2186  0.2779 -0.0554
  141POPC   NC3 1994   5.269   5.673   7.361  0.1763 -0.2574  0.1270
  141POPC   PO4 1995   5.501   6.055   7.445 -0.1925 -0.1762 -0.0934
  141POPC   GL1 1996   5.553   6.043   7.063 -0.5443 -0.1122  0.2582
  141POPC   GL2 1997   5.587   6.412   7.038 -0.0901 -0.1899  0.0502
  141POPC   C1A 1998   5.373   5.790   6.683  0.1794 -0.0759 -0.2345
  141POPC   D2A 1999   5.003   5.445   6.486  0.0563  0.1970  0.0630
  141POPC   C3A 2000   5.009   4.990   6.285 -0.0404  0.0560  0.0192
  141POPC   C4A 2001   5.280   4.706   5.966  0.0661  0.0610 -0.1188
  141POPC   C1B 2002   5.678   6.522   6.578 -0.0644 -0.2701 -0.2618
  141POPC   C2B 2003   5.770   6.618   6.198 -0.1832 -0.1257 -0.2743
  141POPC   C3B 2004   6.045   6.702   5.896 -0.1609 -0.1595 -0.2822
  141POPC   C4B 2005   5.858   6.652   5.517 -0.1391  0.3384 -0.1794
  142POPC   NC3 2006   2.012   7.217   7.537 -0.0381  0.0432  0.1691
  142POPC   PO4 2007   2.419   7.239   7.325  0.0855 -0.1655 -0.0904
  142POPC   GL1 2008   2.295   7.165   6.937 -0.0283  0.2008  0.4038
  142POPC   GL2 2009   2.062   6.991   6.985  0.0501  0.1111 -0.3550
  142POPC   C1A 2010   2.284   7.293   6.510 -0.1438 -0.0338 -0.1093
  142POPC   D2A 2011   2.192   7.034   6.147 -0.0980  0.0833 -0.1565
  142POPC   C3A 2012   2.110   7.356   5.735  0.2881  0.2383  0.0059
  142POPC   C4A 2013   2.325   7.653   5.633  0.0320  0.2296  0.1267
  142POPC   C1B 2014   1.937   6.897   6.560 -0.0993 -0.2232  0.4456
  142POPC   C2B 2015   2.093   6.515   6.219 -0.1376 -0.0752 -0.0390
  142POPC   C3B 2016   2.090   6.402   5.729  0.0833 -0.0689 -0.0285
  142POPC   C4B 2017   2.229   5.978   5.495  0.1661 -0.1521  0.0557
  143POPC   NC3 2018   0.550   8.881   7.850  0.0627 -0.2415  0.1949
  143POPC   PO4 2019   0.432   8.520   7.502 -0.0577  0.0982 -0.0373
  143POPC   GL1 2020   0.257   8.362   7.087 -0.0484 -0.0573 -0.0525
  143POPC   GL2 2021   0.079   8.108   7.092 -0.0098 -0.4312 -0.1913
  143POPC   C1A 2022   0.130   8.372   6.620  0.1372  0.1028  0.2085
  143POPC   D2A 2023   0.156   8.126   6.317 -0.2524  0.0292 -0.1362
  143POPC   C3A 2024   0.716   8.063   6.332 -0.0962  0.0355  0.0312
  143POPC   C4A 2025   1.117   7.939   6.272 -0.0748  0.0718 -0.1142
  143POPC   C1B 2026   0.291   7.828   6.752  0.2216  0.1365  0.1135
  143POPC   C2B 2027   0.278   7.656   6.383  0.2360  0.3213 -0.0791
  143POPC   C3B 2028   0.217   7.686   6.004 -0.1785  0.2853  0.0079
  143POPC   C4B 2029   0.180   8.097   5.776  0.1331  0.0338  0.0107
  144POPC   NC3 2030   1.191   6.903   7.563  0.3942  0.1678 -0.0869
  144POPC   PO4 2031   0.869   6.718   7.710  0.1948 -0.2260  0.0832
  144POPC   GL1 2032   0.858   6.646   7.226  0.0577  0.0388  0.0257
  144POPC   GL2 2033   1.250   6.680   7.119  0.2113 -0.0393  0.0474
  144POPC   C1A 2034   0.643   6.610   6.738 -0.2568  0.0332  0.1190
  144POPC   D2A 2035   0.485   6.375   6.385  0.0565  0.1207 -0.2290
  144POPC   C3A 2036   0.361   5.940   6.315  0.0942  0.0176  0.2450
  144POPC   C4A 2037   0.369   5.531   6.470  0.3260 -0.0581  0.0339
  144POPC   C1B 2038   1.157   6.697   6.701  0.0361  0.2822 -0.2040
  144POPC   C2B 2039   1.089   6.410   6.360 -0.3891  0.1131  0.5549
  144POPC   C3B 2040   1.307   6.190   6.119 -0.2667  0.0884  0.1694
  144POPC   C4B 2041   1.617   6.378   5.938  0.1126 -0.1764 -0.2567
  145POPC   NC3 2042   9.576   1.378   7.888  0.2953 -0.0424 -0.0404
  145POPC   PO4 2043   9.275   0.914   7.759  0.0229 -0.0775 -0.2778
  145POPC   GL1 2044   9.237   0.714   7.324 -0.3326 -0.0486 -0.0291
  145POPC   GL2 2045   9.507   0.810   7.171 -0.2115  0.3649  0.3762
  145POPC   C1A 2046   9.088   0.387   6.976  0.1176 -0.0077 -0.1327
  145POPC   D2A 2047   8.717   0.380   6.692 -0.3050 -0.0956 -0.0441
  145POPC   C3A 2048   8.798   0.244   6.180  0.0464 -0.1091  0.1972
  145POPC   C4A 2049   9.138   0.428   5.921 -0.1289  0.0325 -0.2261
  145POPC   C1B 2050   9.713   1.014   6.827  0.1937  0.1022 -0.3552
  145POPC   C2B 2051   9.857   1.316   6.523 -0.0832  0.0754  0.0873
  145POPC   C3B 2052   9.966   1.447   6.068  0.1429  0.0055 -0.1227
  145POPC   C4B 2053   9.933   1.361   5.622  0.0154 -0.0194  0.3759
  146POPC   NC3 2054   6.542   8.104   7.564  0.1552 -0.3464  0.0199
  146POPC   PO4 2055   6.359   7.703   7.516  0.0956  0.0125  0.0357
  146POPC   GL1 2056   6.380   7.717   7.018 -0.1011  0.0545 -0.1284
  146POPC   GL2 2057   6.442   8.086   7.070 -0.6010 -0.4005  0.3073
  146POPC   C1A 2058   6.472   7.783   6.590  0.1448 -0.1058  0.5883
  146POPC   D2A 2059   6.744   7.862   6.216 -0.6564  0.0375 -0.0036
  146POPC   C3A 2060   6.352   7.676   5.975 -0.1390 -0.1417 -0.0183
  146POPC   C4A 2061   6.111   7.544   5.591  0.0318 -0.1101 -0.0066
  146POPC   C1B 2062   6.123   8.209   6.754 -0.0140  0.3226 -0.0088
  146POPC   C2B 2063   5.710   8.481   6.811 -0.0207  0.0738 -0.1020
  146POPC   C3B 2064   5.669   8.840   7.071  0.0293  0.0286  0.1399
  146POPC   C4B 2065   5.950   9.115   7.284 -0.1478  0.2319 -0.1237
  147POPC   NC3 2066   3.143  10.418   7.576 -0.1599  0.0939  0.2872
  147POPC   PO4 2067   2.764  10.471   7.635  0.0461  0.0879 -0.0404
  147POPC   GL1 2068   2.680  10.589   7.274 -0.1192  0.0806 -0.0222
  147POPC   GL2 2069   2.952  10.815   7.193 -0.0619  0.2745  0.1530
  147POPC   C1A 2070   2.337  10.522   6.926 -0.1855 -0.1442 -0.1609
  147POPC   D2A 2071   2.169  10.392   6.622  0.0571 -0.3032  0.3384
  147POPC   C3A 2072   1.862  10.542   6.226 -0.2662 -0.0121  0.0356
  147POPC   C4A 2073   1.792  10.559   5.830 -0.2590  0.0649  0.3664
  147POPC   C1B 2074   3.001  10.638   6.859 -0.1550  0.0112  0.2651
  147POPC   C2B 2075   3.208  10.634   6.548 -0.3488  0.0499  0.0197
  147POPC   C3B 2076   3.526  10.647   6.175  0.2195 -0.1426 -0.1366
  147POPC   C4B 2077   3.521  10.257   5.844  0.3291  0.4307 -0.0478
  148POPC   NC3 2078   1.651   2.325   8.073  0.2469 -0.0183  0.0364
  148POPC   PO4 2079   1.605   2.036   7.822  0.0993 -0.2860  0.4714
  148POPC   GL1 2080   1.649   2.139   7.420  0.0574 -0.3043 -0.0841
  148POPC   GL2 2081   1.874   1.876   7.254 -0.1006  0.3058  0.2976
  148POPC   C1A 2082   1.493   2.089   7.083 -0.1276  0.2194  0.2624
  148POPC   D2A 2083   1.651   1.894   6.779  0.1230 -0.1366 -0.0627
  148POPC   C3A 2084   1.686   2.159   6.443  0.0384 -0.1083  0.0476
  148POPC   C4A 2085   1.777   2.098   6.006  0.0038  0.1678  0.0247
  148POPC   C1B 2086   1.986   2.256   7.097 -0.0561  0.2805  0.0113
  148POPC   C2B 2087   1.825   2.446   6.818  0.1273 -0.0138  0.1020
  148POPC   C3B 2088   2.051   2.561   6.413 -0.0396 -0.1711 -0.0333
  148POPC   C4B 2089   1.823   2.666   5.962 -0.1372  0.1307 -0.2142
  149POPC   NC3 2090   8.081   1.933   8.445  0.0645  0.2015  0.2813
  149POPC   PO4 2091   8.453   2.009   8.291  0.3296  0.1089 -0.1183
  149POPC   GL1 2092   8.643   2.037   7.909  0.1774 -0.4883 -0.0149
  149POPC   GL2 2093   8.404   2.014   7.616 -0.4571  0.0333 -0.0121
  149POPC   C1A 2094   8.877   2.029   7.459 -0.2319 -0.0074 -0.0841
  149POPC   D2A 2095   9.139   1.713   7.259 -0.0632 -0.1604 -0.1165
  149POPC   C3A 2096   9.334   1.885   6.889  0.0051 -0.1323 -0.0048
  149POPC   C4A 2097   9.576   2.179   6.829 -0.1496 -0.1004 -0.0997
  149POPC   C1B 2098   8.460   2.362   7.385  0.1110  0.1017  0.1677
  149POPC   C2B 2099   8.370   2.720   7.200 -0.2690  0.3395 -0.0857
  149POPC   C3B 2100   8.337   2.868   6.771  0.2582  0.2021 -0.1188
  149POPC   C4B 2101   8.703   2.855   6.435  0.3008 -0.4428 -0.3604
  150POPC   NC3 2102  10.455   5.642   8.698  0.2325 -0.0956  0.1124
  150POPC   PO4 2103  10.476   5.651   8.297  0.0458 -0.2378 -0.4264
  150POPC   GL1 2104  10.300   5.386   8.002  0.0879  0.6241  0.1446
  150POPC   GL2 2105  10.562   5.273   7.712  0.3402 -0.1560 -0.3372
  150POPC   C1A 2106  10.130   5.478   7.635 -0.0222  0.0680 -0.0110
  150POPC   D2A 2107  10.247   5.634   7.250  0.1664  0.3825  0.2971
  150POPC   C3A 2108  10.366   5.461   6.956  0.0166 -0.0424  0.0473
  150POPC   C4A 2109  10.154   5.196   6.670  0.0640 -0.1381 -0.1459
  150POPC   C1B 2110  10.706   5.437   7.347  0.1790  0.1487  0.0825
  150POPC   C2B 2111  10.909   5.568   6.972 -0.2832  0.0045 -0.0124
  150POPC   C3B 2112  11.083   5.932   6.806  0.0159 -0.1537  0.0536
  150POPC   C4B 2113  11.254   6.249   6.994  0.4256  0.2680  0.1761
  151POPC   NC3 2114   4.999   9.904   8.264 -0.1629  0.2183  0.1524
  151POPC   PO4 2115   5.090   9.984   7.906  0.1096 -0.1444  0.4257
  151POPC   GL1 2116   5.210  10.183   7.512 -0.1522  0.0606  0.2171
  151POPC   GL2 2117   5.502  10.303   7.328  0.0157 -0.0289 -0.2761
  151POPC   C1A 2118   5.062  10.610   7.366 -0.0213 -0.1302 -0.0426
  151POPC   D2A 2119   4.771  11.031   7.371 -0.1687 -0.3170  0.0749
  151POPC   C3A 2120   4.458  11.056   7.016  0.3164  0.1612 -0.0693
  151POPC   C4A 2121   4.233  10.964   6.687 -0.3290 -0.0207  0.0465
  151POPC   C1B 2122   5.588  10.147   7.047  0.2804  0.4002 -0.1595
  151POPC   C2B 2123   5.658   9.777   6.778 -0.2119  0.1352  0.2600
  151POPC   C3B 2124   5.684   9.876   6.355 -0.3331  0.0587 -0.0775
  151POPC   C4B 2125   5.916  10.034   6.019  0.1915 -0.0877  0.1252
  152POPC   NC3 2126   3.547   3.595   7.981 -0.0879  0.0057 -0.0139
  152POPC   PO4 2127   3.810   3.852   7.654  0.0545  0.1121  0.1069
  152POPC   GL1 2128   3.510   3.948   7.343 -0.0944  0.5172  0.2418
  152POPC   GL2 2129   3.429   4.191   7.138 -0.3657  0.0874 -0.0079
  152POPC   C1A 2130   3.145   3.751   7.123  0.0580  0.1271 -0.4360
  152POPC   D2A 2131   2.752   3.658   6.881 -0.0788 -0.1032 -0.0542
  152POPC   C3A 2132   2.487   3.988   6.873 -0.0260 -0.1345  0.1510
  152POPC   C4A 2133   2.369   4.338   6.623  0.0636  0.1657 -0.0576
  152POPC   C1B 2134   3.589   3.841   6.842 -0.0038 -0.0358  0.0892
  152POPC   C2B 2135   4.041   3.768   6.680  0.0654  0.2830  0.1500
  152POPC   C3B 2136   4.457   3.933   6.751  0.3881 -0.1917  0.0953
  152POPC   C4B 2137   4.881   4.040   6.471  0.2424 -0.2510  0.0592
  153POPC   NC3 2138   7.510   8.992   7.388  0.0723  0.1172  0.2024
  153POPC   PO4 2139   7.161   8.783   7.249 -0.0369  0.1963 -0.1784
  153POPC   GL1 2140   6.978   8.836   6.938 -0.3137  0.0744  0.2504
  153POPC   GL2 2141   6.825   9.083   6.803 -0.2959 -0.0043 -0.1519
  153POPC   C1A 2142   6.592   8.592   6.780 -0.0744  0.1813  0.3386
  153POPC   D2A 2143   6.578   8.267   6.464 -0.0883 -0.0970  0.5108
  153POPC   C3A 2144   6.491   8.235   5.964 -0.0901  0.1970  0.2462
  153POPC   C4A 2145   6.527   8.396   5.647  0.1406  0.0549 -0.1302
  153POPC   C1B 2146   7.136   9.300   6.636 -0.4070  0.1040 -0.0974
  153POPC   C2B 2147   7.486   9.279   6.439 -0.0051 -0.1060 -0.0488
  153POPC   C3B 2148   7.784   9.260   6.184  0.2228 -0.3016  0.0156
  153POPC   C4B 2149   8.030   9.518   5.816  0.2671 -0.0987 -0.0246
  154POPC   NC3 2150   5.516   0.931   8.303  0.3083 -0.0040  0.4033
  154POPC   PO4 2151   5.512   0.803   7.806 -0.3344  0.2146  0.1431
  154POPC   GL1 2152   5.760   0.692   7.455 -0.0857 -0.0464 -0.2658
  154POPC   GL2 2153   5.855   0.374   7.487  0.1598  0.1588  0.0158
  154POPC   C1A 2154   6.024   0.884   7.180  0.1785  0.1201  0.1730
  154POPC   D2A 2155   6.248   0.700   6.827  0.4109 -0.0598  0.4520
  154POPC   C3A 2156   6.554   0.717   6.441 -0.1768  0.0747 -0.0956
  154POPC   C4A 2157   6.514   0.697   6.011  0.2798  0.1681 -0.1231
  154POPC   C1B 2158   6.028   0.301   7.028 -0.2612  0.0673 -0.1960
  154POPC   C2B 2159   6.099   0.265   6.610  0.0458  0.1113 -0.0424
  154POPC   C3B 2160   6.241   0.313   6.306 -0.0838  0.0374  0.1371
  154POPC   C4B 2161   6.486   0.215   5.800  0.4277  0.2244  0.2833
  155POPC   NC3 2162   4.408   8.187   7.534  0.1078 -0.1678 -0.0840
  155POPC   PO4 2163   4.836   8.417   7.812  0.0338  0.2248 -0.0709
  155POPC   GL1 2164   5.012   8.293   7.315 -0.2461 -0.1130 -0.0470
  155POPC   GL2 2165   5.187   8.536   7.173  0.1403  0.1637  0.1133
  155POPC   C1A 2166   5.105   8.178   6.869 -0.1293  0.0337  0.0732
  155POPC   D2A 2167   5.302   8.318   6.565 -0.0513 -0.2974 -0.0969
  155POPC   C3A 2168   5.582   8.109   6.398 -0.0166 -0.0439 -0.0045
  155POPC   C4A 2169   5.996   7.981   6.317 -0.0656 -0.0471  0.1087
  155POPC   C1B 2170   5.281   8.752   6.730 -0.0656 -0.0002  0.1096
  155POPC   C2B 2171   5.150   8.996   6.409  0.0082 -0.0492  0.0390
  155POPC   C3B 2172   5.445   9.092   5.986  0.0591  0.3353  0.0956
  155POPC   C4B 2173   5.910   9.092   6.105  0.0986 -0.2707  0.4388
  156POPC   NC3 2174   1.358   7.846   7.395  0.0744 -0.1273 -0.1544
  156POPC   PO4 2175   1.373   7.367   7.536 -0.4646 -0.2684  0.3029
  156POPC   GL1 2176   1.112   7.166   7.144  0.2104  0.3417  0.2148
  156POPC   GL2 2177   1.263   7.352   6.943  0.1297  0.1822 -0.0946
  156POPC   C1A 2178   0.744   7.028   6.853 -0.1381 -0.0336 -0.1212
  156POPC   D2A 2179   0.859   6.952   6.394  0.2634 -0.0982  0.3404
  156POPC   C3A 2180   0.976   7.135   5.993 -0.0348 -0.0580 -0.1119
  156POPC   C4A 2181   1.211   7.151   5.690  0.2715 -0.1133 -0.4450
  156POPC   C1B 2182   1.420   7.683   6.656 -0.0286  0.0207 -0.1571
  156POPC   C2B 2183   1.615   7.879   6.318  0.1359 -0.2973  0.3482
  156POPC   C3B 2184   1.618   8.266   6.069 -0.2351 -0.1382 -0.2068
  156POPC   C4B 2185   1.520   8.650   6.220  0.1576 -0.0508  0.0263
  157POPC   NC3 2186   0.957   8.144   7.669 -0.4797 -0.1782 -0.0331
  157POPC   PO4 2187   1.183   8.485   7.981 -0.0970 -0.1072 -0.0521
  157POPC   GL1 2188   1.451   8.500   7.539 -0.0439 -0.0662  0.0104
  157POPC   GL2 2189   1.229   8.333   7.274  0.2458  0.3747  0.0229
  157POPC   C1A 2190   1.498   8.727   7.100 -0.4430  0.1155 -0.3115
  157POPC   D2A 2191   1.695   8.729   6.636 -0.2470 -0.1275  0.2777
  157POPC   C3A 2192   1.965   8.377   6.530 -0.1021 -0.0909  0.4188
  157POPC   C4A 2193   2.229   8.145   6.275  0.1463 -0.1200 -0.1510
  157POPC   C1B 2194   0.963   8.394   6.950 -0.0379 -0.2198  0.0972
  157POPC   C2B 2195   0.674   8.551   6.544 -0.3781  0.1434 -0.0848
  157POPC   C3B 2196   0.511   8.418   6.093  0.0446 -0.0191  0.2219
  157POPC   C4B 2197   0.525   8.445   5.640  0.0916 -0.1749  0.0164
  158POPC   NC3 2198   7.009   4.416   7.656 -0.0295  0.2034  0.1432
  158POPC   PO4 2199   6.718   4.225   8.012 -0.0201 -0.0438 -0.1585
  158POPC   GL1 2200   6.509   4.465   7.660 -0.0975 -0.2256 -0.1779
  158POPC   GL2 2201   6.299   4.260   7.529  0.4402  0.0921  0.1625
  158POPC   C1A 2202   6.492   4.333   7.058  0.1890  0.0688  0.1305
  158POPC   D2A 2203   6.653   4.299   6.554  0.0764 -0.0036 -0.1265
  158POPC   C3A 2204   6.793   4.629   6.174  0.1512  0.1524 -0.1905
  158POPC   C4A 2205   7.043   4.997   6.087 -0.4694  0.0890  0.0482
  158POPC   C1B 2206   6.057   4.138   7.208 -0.0211  0.0607  0.0835
  158POPC   C2B 2207   5.722   4.348   6.895 -0.0140  0.0700  0.1986
  158POPC   C3B 2208   5.450   4.237   6.582 -0.0791 -0.4422 -0.2793
  158POPC   C4B 2209   5.140   4.401   6.353 -0.1390 -0.1430  0.2033
  159POPC   NC3 2210   2.001   1.703   7.986 -0.0529 -0.3163 -0.1462
  159POPC   PO4 2211   2.425   1.726   7.780 -0.1469  0.0778  0.0750
  159POPC   GL1 2212   2.346   1.641   7.371  0.1594 -0.1704 -0.0119
  159POPC   GL2 2213   2.419   1.893   7.039  0.0737  0.1300 -0.0485
  159POPC   C1A 2214   2.297   1.361   7.013  0.1672 -0.2840  0.4563
  159POPC   D2A 2215   2.217   1.172   6.613 -0.2426  0.0288 -0.2310
  159POPC   C3A 2216   2.155   1.451   6.348  0.4266 -0.2262 -0.0539
  159POPC   C4A 2217   1.799   1.621   6.340  0.2247  0.1902 -0.0652
  159POPC   C1B 2218   2.118   1.784   6.777  0.3360  0.1069 -0.1532
  159POPC   C2B 2219   2.157   1.999   6.398 -0.0209  0.1517  0.0896
  159POPC   C3B 2220   2.351   2.277   6.124 -0.0148 -0.1126  0.0555
  159POPC   C4B 2221   2.318   2.762   5.918  0.1989  0.2369  0.0163
  160POPC   NC3 2222   9.097   5.727   8.305 -0.3479 -0.0823 -0.2470
  160POPC   PO4 2223   9.141   5.274   8.454 -0.2222 -0.0647  0.3367
  160POPC   GL1 2224   9.157   5.265   8.014  0.0188  0.4326  0.0383
  160POPC   GL2 2225   9.000   5.024   7.959  0.0746  0.1823 -0.2857
  160POPC   C1A 2226   9.353   5.261   7.614 -0.1899 -0.1342 -0.2390
  160POPC   D2A 2227   9.653   5.256   7.244 -0.2056 -0.0607 -0.0401
  160POPC   C3A 2228   9.853   5.522   6.995 -0.0300 -0.1719 -0.0042
  160POPC   C4A 2229  10.111   5.837   6.837  0.0390  0.0423  0.4830
  160POPC   C1B 2230   9.083   4.912   7.548  0.3810 -0.3519  0.0370
  160POPC   C2B 2231   9.136   5.133   7.161 -0.0474 -0.0117 -0.1413
  160POPC   C3B 2232   8.772   5.307   7.000 -0.0141 -0.0135 -0.0894
  160POPC   C4B 2233   8.593   5.365   6.616  0.0439  0.0417 -0.2200
  161POPC   NC3 2234   1.490   4.819   8.238 -0.0305  0.1447 -0.0090
  161POPC   PO4 2235   1.136   4.597   7.970  0.0594 -0.1361 -0.2453
  161POPC   GL1 2236   0.952   4.443   7.502 -0.1534 -0.1377 -0.1201
  161POPC   GL2 2237   0.642   4.496   7.322 -0.2082  0.0102  0.3270
  161POPC   C1A 2238   1.018   4.013   7.229  0.0738 -0.0331  0.0301
  161POPC   D2A 2239   0.816   3.767   6.850 -0.2061  0.0829 -0.0402
  161POPC   C3A 2240   0.791   3.972   6.433 -0.1134  0.2732 -0.1169
  161POPC   C4A 2241   0.603   4.039   6.076 -0.0823  0.1622 -0.2704
  161POPC   C1B 2242   0.958   4.496   7.015  0.3691  0.1244  0.2176
  161POPC   C2B 2243   1.161   4.248   6.739 -0.1933  0.1283  0.0380
  161POPC   C3B 2244   1.336   4.205   6.336  0.1104  0.0269 -0.2379
  161POPC   C4B 2245   1.474   4.202   5.968 -0.2473 -0.2676 -0.1467
  162POPC   NC3 2246   3.936   5.714   7.960  0.0126  0.0816 -0.0204
  162POPC   PO4 2247   4.323   5.945   8.040  0.1912  0.2315 -0.2278
  162POPC   GL1 2248   4.147   6.011   7.595  0.2026  0.1515 -0.1145
  162POPC   GL2 2249   4.170   5.673   7.569  0.0666 -0.1875  0.0986
  162POPC   C1A 2250   3.759   6.121   7.297  0.0262  0.0338 -0.2009
  162POPC   D2A 2251   3.491   5.906   6.968 -0.0777 -0.2117  0.1386
  162POPC   C3A 2252   3.417   5.727   6.661  0.1298 -0.0648  0.0476
  162POPC   C4A 2253   3.166   5.432   6.664 -0.0571 -0.2789  0.1085
  162POPC   C1B 2254   4.084   5.786   7.137 -0.0665  0.3865  0.1892
  162POPC   C2B 2255   4.345   5.654   6.839  0.1516  0.0593 -0.1877
  162POPC   C3B 2256   4.499   5.615   6.452 -0.3293  0.1556 -0.1201
  162POPC   C4B 2257   4.653   5.385   6.123  0.0511  0.0071 -0.1499
  163POPC   NC3 2258   6.335   2.426   7.951 -0.0652 -0.0390 -0.0669
  163POPC   PO4 2259   6.414   1.999   7.770 -0.1463  0.0875  0.1513
  163POPC   GL1 2260   6.620   2.039   7.422  0.1542 -0.0769  0.0177
  163POPC   GL2 2261   6.903   2.068   7.323 -0.0863 -0.1896  0.0029
  163POPC   C1A 2262   6.596   2.108   6.948  0.1534 -0.0564 -0.0752
  163POPC   D2A 2263   6.791   1.922   6.709  0.1510 -0.0017  0.3136
  163POPC   C3A 2264   7.043   2.230   6.467 -0.0278  0.2243 -0.0649
  163POPC   C4A 2265   6.869   2.077   6.122 -0.2625 -0.1471  0.0401
  163POPC   C1B 2266   7.135   1.924   7.005 -0.0740 -0.0402  0.0899
  163POPC   C2B 2267   7.389   2.011   6.677 -0.0889 -0.1309  0.2638
  163POPC   C3B 2268   7.411   2.039   6.104  0.2483  0.0150  0.1214
  163POPC   C4B 2269   7.475   2.125   5.663 -0.0932  0.0637 -0.0585
  164POPC   NC3 2270   4.880   4.617   8.153  0.1280 -0.0590  0.0479
  164POPC   PO4 2271   4.458   4.707   8.100  0.0745 -0.0028  0.0815
  164POPC   GL1 2272   4.388   4.560   7.614 -0.1296  0.0748 -0.0263
  164POPC   GL2 2273   4.446   4.240   7.568  0.2935  0.2596  0.0121
  164POPC   C1A 2274   4.318   4.617   7.147  0.0479  0.0758  0.0698
  164POPC   D2A 2275   4.040   4.280   6.912 -0.0986  0.1684  0.2208
  164POPC   C3A 2276   4.098   4.259   6.442  0.0712  0.3589 -0.0885
  164POPC   C4A 2277   3.858   4.039   6.106 -0.0562 -0.1387 -0.0152
  164POPC   C1B 2278   4.338   4.032   7.204 -0.2470 -0.1388  0.1178
  164POPC   C2B 2279   4.415   3.598   7.145  0.0166  0.0447 -0.5327
  164POPC   C3B 2280   4.419   3.350   6.738  0.2247 -0.1660  0.1372
  164POPC   C4B 2281   4.417   3.378   6.316 -0.4298 -0.2178 -0.2616
  165POPC   NC3 2282   4.029   7.003   7.947  0.0632  0.2543  0.3053
  165POPC   PO4 2283   3.747   7.121   7.559 -0.4781 -0.0123  0.4589
  165POPC   GL1 2284   3.767   7.102   7.141  0.0260 -0.0090  0.0153
  165POPC   GL2 2285   3.505   6.954   7.018 -0.4014 -0.0827 -0.2668
  165POPC   C1A 2286   4.036   6.822   6.861 -0.1945  0.0026  0.3787
  165POPC   D2A 2287   4.207   6.556   6.464  0.0628 -0.0066 -0.3500
  165POPC   C3A 2288   4.626   6.419   6.255 -0.0706 -0.3163  0.1342
  165POPC   C4A 2289   4.993   6.308   6.054  0.0834  0.1206 -0.0470
  165POPC   C1B 2290   3.371   6.793   6.681  0.2531 -0.0323  0.0412
  165POPC   C2B 2291   3.635   6.678   6.334 -0.0888 -0.2821 -0.0791
  165POPC   C3B 2292   3.753   6.549   6.035  0.1273 -0.0932 -0.0981
  165POPC   C4B 2293   3.730   6.274   5.775  0.1413 -0.2240 -0.2461
  166POPC   NC3 2294   0.701   0.176   8.048  0.3287  0.0178 -0.0458
  166POPC   PO4 2295   0.694   0.565   7.748  0.0948  0.0708 -0.1798
  166POPC   GL1 2296   0.766   0.317   7.340 -0.2993 -0.0950 -0.0771
  166POPC   GL2 2297   0.440   0.201   7.414  0.1947 -0.2090 -0.2186
  166POPC   C1A 2298   0.826   0.324   6.891  0.2125 -0.0205  0.0696
  166POPC   D2A 2299   0.601   0.207   6.510 -0.0309  0.0865  0.0338
  166POPC   C3A 2300   0.771   0.204   5.985 -0.1035 -0.0492  0.1528
  166POPC   C4A 2301   1.158   0.007   5.745  0.1131 -0.1070  0.2275
  166POPC   C1B 2302   0.290   0.341   7.001  0.2899 -0.2976  0.0797
  166POPC   C2B 2303   0.235   0.493   6.704 -0.0458  0.2750 -0.0601
  166POPC   C3B 2304   0.392   0.874   6.407 -0.0290  0.2660 -0.0659
  166POPC   C4B 2305   0.674   0.984   6.068 -0.4043 -0.3318  0.0541
  167POPC   NC3 2306  10.106   0.720   7.940  0.0774  0.2243 -0.0144
  167POPC   PO4 2307   9.820   0.570   7.733  0.0207 -0.3701 -0.0890
  167POPC   GL1 2308   9.769   0.317   7.399  0.2424  0.0464  0.0910
  167POPC   GL2 2309  10.113   0.103   7.393 -0.0157 -0.2148  0.2750
  167POPC   C1A 2310   9.767   0.186   7.022  0.2486 -0.2616  0.0430
  167POPC   D2A 2311   9.552   0.020   6.833  0.1533  0.0065  0.1847
  167POPC   C3A 2312   9.442  -0.139   6.512 -0.2569  0.1996 -0.1161
  167POPC   C4A 2313   9.462  -0.465   6.300 -0.0550 -0.0726  0.3876
  167POPC   C1B 2314  10.311   0.042   7.047 -0.2335  0.1346 -0.1708
  167POPC   C2B 2315  10.430   0.287   6.611 -0.1437  0.2228 -0.2403
  167POPC   C3B 2316  10.676   0.330   6.201  0.0841  0.1131 -0.3127
  167POPC   C4B 2317  11.122   0.503   6.078  0.3836 -0.0463 -0.0450
  168POPC   NC3 2318   7.270   3.802   8.134 -0.1309 -0.0711 -0.1702
  168POPC   PO4 2319   7.687   4.121   8.237  0.1496  0.1094 -0.2785
  168POPC   GL1 2320   7.993   4.030   7.951 -0.1489 -0.0382 -0.0958
  168POPC   GL2 2321   8.209   4.255   7.905 -0.3219 -0.0697 -0.2716
  168POPC   C1A 2322   8.079   3.756   7.527  0.0746 -0.1171  0.2790
  168POPC   D2A 2323   7.872   3.457   7.285 -0.1656  0.0127 -0.0791
  168POPC   C3A 2324   7.827   3.288   6.847  0.0038 -0.0439 -0.0054
  168POPC   C4A 2325   8.264   3.302   6.476 -0.0027  0.0192 -0.0757
  168POPC   C1B 2326   8.347   4.215   7.484 -0.1482 -0.3405 -0.0957
  168POPC   C2B 2327   8.301   3.997   7.068 -0.0600  0.2530 -0.0044
  168POPC   C3B 2328   8.030   3.755   6.744 -0.0759  0.0232  0.1685
  168POPC   C4B 2329   7.811   3.521   6.369 -0.0195  0.1962 -0.0406
  169POPC   NC3 2330   2.989   1.013   8.726 -0.0614  0.1042 -0.1594
  169POPC   PO4 2331   3.051   1.064   8.221 -0.0268 -0.2781 -0.1332
  169POPC   GL1 2332   3.108   1.047   7.741  0.1461 -0.1802 -0.0113
  169POPC   GL2 2333   3.226   0.777   7.787  0.1321 -0.1923  0.0599
  169POPC   C1A 2334   3.454   1.126   7.481  0.1773 -0.0019  0.3012
  169POPC   D2A 2335   3.701   1.476   7.372 -0.0073 -0.0233 -0.0438
  169POPC   C3A 2336   4.081   1.466   7.155 -0.1754  0.0114  0.2029
  169POPC   C4A 2337   4.286   1.425   6.796  0.1689  0.1959  0.1545
  169POPC   C1B 2338   3.161   0.605   7.353 -0.1552  0.2123 -0.0616
  169POPC   C2B 2339   2.931   0.525   6.926 -0.1325 -0.2011 -0.2256
  169POPC   C3B 2340   2.874   0.544   6.558  0.0041 -0.0338 -0.2147
  169POPC   C4B 2341   2.604   0.688   6.349  0.1565  0.1375  0.0512
  170POPC   NC3 2342   9.212   3.494   8.807  0.0813 -0.1302  0.1767
  170POPC   PO4 2343   9.204   3.955   8.744  0.2494  0.1965  0.0653
  170POPC   GL1 2344   8.904   4.091   8.346  0.1692  0.2145  0.0929
  170POPC   GL2 2345   9.072   4.243   8.126 -0.1464 -0.2128  0.1862
  170POPC   C1A 2346   8.624   3.932   7.948 -0.1419  0.2199 -0.1627
  170POPC   D2A 2347   8.687   3.851   7.435 -0.3129  0.1550 -0.0781
  170POPC   C3A 2348   8.486   3.517   7.282 -0.2200 -0.1845  0.0155
  170POPC   C4A 2349   8.264   3.320   6.994 -0.3043 -0.0595  0.0222
  170POPC   C1B 2350   9.170   4.554   7.838 -0.0829 -0.0922  0.0773
  170POPC   C2B 2351   9.579   4.609   7.599 -0.0666  0.2189  0.2640
  170POPC   C3B 2352   9.783   4.739   7.246  0.0270  0.0321  0.0174
  170POPC   C4B 2353   9.704   4.856   6.820 -0.0434 -0.0482 -0.2139
  171POPC   NC3 2354   4.769   7.922   7.827 -0.2675  0.3569 -0.2526
  171POPC   PO4 2355   5.002   7.744   7.487  0.0890  0.2909  0.4628
  171POPC   GL1 2356   5.061   7.724   6.987  0.3733  0.2941 -0.2037
  171POPC   GL2 2357   4.809   7.475   6.921  0.2875  0.2185  0.0699
  171POPC   C1A 2358   5.251   7.798   6.580 -0.1231  0.0169  0.0170
  171POPC   D2A 2359   5.326   7.670   6.211  0.0989 -0.2408  0.0274
  171POPC   C3A 2360   4.958   7.643   6.048  0.1546  0.3238 -0.0076
  171POPC   C4A 2361   4.714   7.452   5.694  0.0297 -0.0364 -0.0326
  171POPC   C1B 2362   4.743   7.905   6.659 -0.0877  0.2022 -0.1802
  171POPC   C2B 2363   4.988   8.103   6.264 -0.0621 -0.2256  0.2982
  171POPC   C3B 2364   5.010   8.147   5.817 -0.0986  0.1773 -0.3546
  171POPC   C4B 2365   4.841   8.416   5.463 -0.3598 -0.0588  0.1623
  172POPC   NC3 2366   8.016   7.144   7.477  0.1241 -0.0899 -0.1327
  172POPC   PO4 2367   8.514   7.034   7.580 -0.1920 -0.1167  0.0652
  172POPC   GL1 2368   8.459   7.059   7.178  0.3030  0.0955  0.1308
  172POPC   GL2 2369   8.406   6.754   7.057  0.2065 -0.1986 -0.1081
  172POPC   C1A 2370   8.667   7.006   6.721  0.0976 -0.1120 -0.1750
  172POPC   D2A 2371   8.694   6.904   6.270 -0.0796  0.3119 -0.1339
  172POPC   C3A 2372   9.094   6.695   6.222 -0.2315  0.1560 -0.1792
  172POPC   C4A 2373   9.402   6.580   5.880 -0.2388 -0.1582 -0.1870
  172POPC   C1B 2374   8.325   6.656   6.669 -0.1244 -0.1719  0.1872
  172POPC   C2B 2375   8.218   6.618   6.231 -0.0736  0.1023  0.1269
  172POPC   C3B 2376   8.281   6.719   5.823  0.1083  0.0805 -0.1316
  172POPC   C4B 2377   8.110   6.659   5.480  0.1763 -0.0730 -0.1111
  173POPC   NC3 2378   2.284  10.340   7.665 -0.1849  0.2488 -0.2698
  173POPC   PO4 2379   2.423   9.946   7.609 -0.0217 -0.0202  0.0631
  173POPC   GL1 2380   2.640  10.002   7.156  0.0380  0.1574 -0.0831
  173POPC   GL2 2381   3.037  10.220   7.132 -0.0285  0.0549 -0.0401
  173POPC   C1A 2382   2.717   9.658   6.857 -0.4029  0.4780  0.4218
  173POPC   D2A 2383   2.468   9.710   6.407 -0.2266 -0.0697  0.2011
  173POPC   C3A 2384   2.173  10.038   6.208  0.0601  0.4255 -0.0769
  173POPC   C4A 2385   1.793  10.040   6.418  0.4544  0.2507  0.4060
  173POPC   C1B 2386   3.090  10.041   6.739  0.0213  0.0906 -0.1545
  173POPC   C2B 2387   3.067  10.044   6.336  0.2028  0.0213 -0.3091
  173POPC   C3B 2388   2.953  10.383   5.905  0.0668  0.2955 -0.0029
  173POPC   C4B 2389   3.195  10.750   5.812  0.1579 -0.1102  0.2211
  174POPC   NC3 2390  10.385   1.280   3.884  0.1838 -0.1197 -0.3449
  174POPC   PO4 2391  10.709   1.645   3.925 -0.0803  0.0123 -0.1597
  174POPC   GL1 2392  11.012   1.792   4.284 -0.2583 -0.0255 -0.1536
  174POPC   GL2 2393  11.249   1.468   4.345  0.0015 -0.1289 -0.3143
  174POPC   C1A 2394  10.818   1.736   4.710 -0.1812 -0.0019 -0.0749
  174POPC   D2A 2395  10.844   1.372   4.842  0.0479 -0.2468  0.2041
  174POPC   C3A 2396  10.978   1.158   5.223 -0.1535  0.1865  0.0248
  174POPC   C4A 2397  11.163   0.960   5.553  0.0971 -0.3208  0.0711
  174POPC   C1B 2398  11.344   1.350   4.701  0.2845  0.2722 -0.1316
  174POPC   C2B 2399  11.435   1.325   5.118 -0.3716 -0.0025  0.4432
  174POPC   C3B 2400  11.302   1.473   5.467 -0.1441  0.1271  0.1201
  174POPC   C4B 2401  11.057   1.289   5.847 -0.2903  0.1491  0.1772
  175POPC   NC3 2402   7.254   0.733   3.989  0.0151 -0.0763 -0.1173
  175POPC   PO4 2403   7.251   0.344   3.794 -0.0254 -0.1262  0.2716
  175POPC   GL1 2404   7.253   0.344   4.325 -0.1199 -0.0381  0.3109
  175POPC   GL2 2405   7.121   0.604   4.417 -0.1787 -0.0503 -0.3273
  175POPC   C1A 2406   7.503   0.169   4.591  0.0730  0.0769  0.3082
  175POPC   D2A 2407   7.984   0.150   4.542  0.5341  0.2720  0.3404
  175POPC   C3A 2408   8.376  -0.013   4.504 -0.0029 -0.2027  0.0963
  175POPC   C4A 2409   8.559  -0.359   4.404 -0.3588  0.1413 -0.1902
  175POPC   C1B 2410   6.934   0.917   4.822 -0.0630  0.2922  0.2130
  175POPC   C2B 2411   7.096   0.798   5.215  0.0415  0.1644  0.3490
  175POPC   C3B 2412   7.213   0.445   5.379 -0.1213 -0.2186  0.0523
  175POPC   C4B 2413   7.370   0.090   5.497  0.1629 -0.1392 -0.0390
  176POPC   NC3 2414   6.739   8.379   3.634 -0.3702  0.0768 -0.0141
  176POPC   PO4 2415   7.042   8.578   3.510 -0.1568 -0.2756 -0.4941
  176POPC   GL1 2416   7.219   8.718   3.887  0.1421 -0.0097 -0.0969
  176POPC   GL2 2417   7.042   8.473   4.075  0.0669 -0.2329 -0.2481
  176POPC   C1A 2418   7.500   8.913   4.117  0.3375 -0.0269  0.1036
  176POPC   D2A 2419   7.690   9.025   4.470  0.2181 -0.1484  0.3706
  176POPC   C3A 2420   7.684   9.460   4.490  0.0879  0.3943 -0.5555
  176POPC   C4A 2421   7.941   9.848   4.633  0.1434 -0.2207 -0.0668
  176POPC   C1B 2422   7.150   8.686   4.511 -0.1314 -0.0167 -0.1129
  176POPC   C2B 2423   7.363   8.722   4.975 -0.0721  0.0959  0.1268
  176POPC   C3B 2424   7.405   8.808   5.395 -0.0906 -0.2413 -0.0188
  176POPC   C4B 2425   7.624   9.006   5.755 -0.2525 -0.3030  0.3092
  177POPC   NC3 2426   7.751   0.767   3.384 -0.1069 -0.0777  0.2155
  177POPC   PO4 2427   7.574   1.051   3.768  0.1069 -0.1934  0.3517
  177POPC   GL1 2428   7.640   1.079   4.151 -0.2605  0.0893  0.0388
  177POPC   GL2 2429   7.392   1.032   4.443 -0.1768  0.0621 -0.4669
  177POPC   C1A 2430   7.892   1.093   4.531  0.3676 -0.2191 -0.0587
  177POPC   D2A 2431   8.047   1.246   5.003  0.1721 -0.2300  0.1457
  177POPC   C3A 2432   8.084   0.892   5.379  0.1223 -0.1349 -0.1734
  177POPC   C4A 2433   7.831   0.536   5.463 -0.0719  0.0049 -0.0399
  177POPC   C1B 2434   7.464   1.117   4.886 -0.0640  0.0785 -0.1980
  177POPC   C2B 2435   7.588   1.006   5.228  0.0486  0.2166  0.0802
  177POPC   C3B 2436   7.774   1.359   5.468 -0.0219 -0.0332  0.0414
  177POPC   C4B 2437   7.809   1.737   5.759 -0.1353  0.0759 -0.0143
  178POPC   NC3 2438   6.308   6.044   3.814 -0.0269  0.3724 -0.3362
  178POPC   PO4 2439   5.804   6.208   3.826 -0.0168  0.0284  0.1820
  178POPC   GL1 2440   5.847   6.090   4.218 -0.1218 -0.0607 -0.1673
  178POPC   GL2 2441   6.014   5.769   4.106 -0.1580  0.1879  0.2222
  178POPC   C1A 2442   5.787   6.278   4.582 -0.3270 -0.0247  0.0884
  178POPC   D2A 2443   5.479   6.124   4.925 -0.1332  0.1184  0.1572
  178POPC   C3A 2444   5.372   6.250   5.407 -0.0630  0.0700  0.0696
  178POPC   C4A 2445   5.531   6.213   5.843 -0.1179  0.3607  0.2668
  178POPC   C1B 2446   6.206   5.961   4.513  0.1882  0.2942 -0.0916
  178POPC   C2B 2447   6.540   6.051   4.805  0.1559  0.0294  0.1582
  178POPC   C3B 2448   6.504   6.373   5.140 -0.1381 -0.3377 -0.1056
  178POPC   C4B 2449   6.482   6.704   5.483  0.0339 -0.0220 -0.0147
  179POPC   NC3 2450   6.755   4.892   3.149  0.1643  0.1465  0.2469
  179POPC   PO4 2451   6.962   4.918   3.588  0.3821 -0.1016  0.3210
  179POPC   GL1 2452   7.090   4.802   3.945 -0.0044  0.0774 -0.0081
  179POPC   GL2 2453   7.044   4.455   4.045 -0.1521 -0.2272  0.0649
  179POPC   C1A 2454   7.258   4.888   4.311 -0.0676 -0.0563 -0.0241
  179POPC   D2A 2455   7.545   4.923   4.604 -0.1386  0.1159  0.0474
  179POPC   C3A 2456   7.637   5.225   4.915 -0.2652 -0.1021 -0.2001
  179POPC   C4A 2457   7.487   5.325   5.376 -0.1607  0.2214  0.1100
  179POPC   C1B 2458   6.974   4.343   4.476  0.1476 -0.0053  0.2097
  179POPC   C2B 2459   6.801   3.966   4.665  0.1650  0.0051  0.1506
  179POPC   C3B 2460   6.413   3.949   4.947 -0.1264 -0.0423 -0.2230
  179POPC   C4B 2461   6.235   3.890   5.328  0.2139 -0.3533  0.0582
  180POPC   NC3 2462   9.953   7.618   3.805 -0.2268 -0.1020  0.0026
  180POPC   PO4 2463  10.041   7.179   3.778  0.0230 -0.0020 -0.1475
  180POPC   GL1 2464   9.727   7.296   4.078 -0.2881  0.1710 -0.1969
  180POPC   GL2 2465   9.445   7.195   4.157  0.0580 -0.2401  0.2075
  180POPC   C1A 2466   9.901   7.513   4.459  0.1347  0.1235  0.0453
  180POPC   D2A 2467   9.662   7.583   4.785 -0.0006 -0.0502 -0.2836
  180POPC   C3A 2468   9.554   7.979   5.029  0.2399  0.1159 -0.0092
  180POPC   C4A 2469   9.350   8.327   5.142  0.2157 -0.1223  0.2067
  180POPC   C1B 2470   9.273   7.067   4.492  0.1563 -0.0333  0.0212
  180POPC   C2B 2471   9.347   7.275   4.925  0.0462 -0.2359 -0.1053
  180POPC   C3B 2472   9.358   7.556   5.273 -0.3284 -0.2327 -0.1698
  180POPC   C4B 2473   9.224   7.849   5.498 -0.3398 -0.0852  0.0826
  181POPC   NC3 2474   4.259   7.913   3.755  0.0005 -0.0913 -0.1374
  181POPC   PO4 2475   3.835   7.885   3.770  0.1701  0.2250  0.0559
  181POPC   GL1 2476   3.984   7.936   4.222 -0.3441  0.2472  0.3384
  181POPC   GL2 2477   4.214   8.112   4.201  0.0257 -0.1092  0.5761
  181POPC   C1A 2478   4.150   7.689   4.539  0.0045  0.2975 -0.1378
  181POPC   D2A 2479   4.128   7.529   4.938  0.0065  0.3841  0.0925
  181POPC   C3A 2480   4.289   7.725   5.352 -0.0986 -0.5623 -0.1496
  181POPC   C4A 2481   4.717   7.929   5.514  0.0864  0.3330  0.3323
  181POPC   C1B 2482   3.938   8.321   4.551 -0.2321 -0.3062 -0.4701
  181POPC   C2B 2483   4.098   8.529   4.917  0.1541  0.0140 -0.0257
  181POPC   C3B 2484   3.904   8.782   4.985  0.0659  0.1719 -0.1047
  181POPC   C4B 2485   3.587   9.086   4.880 -0.1388 -0.0474  0.1632
  182POPC   NC3 2486   6.412   8.458   3.123 -0.0476 -0.1933 -0.0013
  182POPC   PO4 2487   6.265   8.512   3.615 -0.1562 -0.3824  0.2687
  182POPC   GL1 2488   6.255   8.319   3.973 -0.0408 -0.2412 -0.1584
  182POPC   GL2 2489   6.510   8.393   4.110  0.0088 -0.0958 -0.1213
  182POPC   C1A 2490   6.210   8.154   4.406 -0.0942  0.0236 -0.1505
  182POPC   D2A 2491   6.289   7.911   4.775 -0.1630  0.1382 -0.2247
  182POPC   C3A 2492   5.959   7.629   5.131  0.0259 -0.1375 -0.1859
  182POPC   C4A 2493   5.882   7.145   5.214 -0.0776 -0.2612  0.0008
  182POPC   C1B 2494   6.766   8.417   4.504  0.1824 -0.2279  0.2411
  182POPC   C2B 2495   6.886   8.517   4.912  0.2177 -0.1531 -0.1144
  182POPC   C3B 2496   6.974   8.563   5.318  0.1096  0.1462 -0.0801
  182POPC   C4B 2497   7.024   8.900   5.682 -0.0492 -0.2086 -0.0147
  183POPC   NC3 2498   8.045   4.934   3.636 -0.3200 -0.2101 -0.2352
  183POPC   PO4 2499   7.902   4.553   3.507  0.2203  0.1000 -0.1666
  183POPC   GL1 2500   7.880   4.547   3.994  0.1975  0.2025 -0.0270
  183POPC   GL2 2501   7.585   4.715   4.011 -0.1483  0.0361  0.2670
  183POPC   C1A 2502   7.956   4.544   4.399  0.1036 -0.1663  0.0188
  183POPC   D2A 2503   7.863   4.465   4.879  0.1420 -0.1785  0.0340
  183POPC   C3A 2504   7.725   4.750   5.132  0.1204  0.0766  0.3126
  183POPC   C4A 2505   7.441   4.845   5.477 -0.1969 -0.2397 -0.1397
  183POPC   C1B 2506   7.466   4.464   4.451 -0.1489 -0.1546 -0.2344
  183POPC   C2B 2507   7.385   4.311   4.861 -0.1906  0.1906  0.2736
  183POPC   C3B 2508   7.506   4.276   5.308 -0.1946 -0.0234 -0.1557
  183POPC   C4B 2509   7.791   4.560   5.624 -0.1037  0.2635 -0.1476
  184POPC   NC3 2510   1.711   9.388   3.658 -0.1164 -0.0248 -0.0510
  184POPC   PO4 2511   1.366   9.529   3.804  0.2468 -0.1649 -0.1018
  184POPC   GL1 2512   1.406   9.528   4.353  0.1123  0.0291  0.0767
  184POPC   GL2 2513   1.202   9.594   4.507  0.2291 -0.2184 -0.4597
  184POPC   C1A 2514   1.617   9.414   4.702  0.0053  0.0839  0.0960
  184POPC   D2A 2515   1.739   9.319   5.148  0.1029  0.2637 -0.1801
  184POPC   C3A 2516   1.372   9.306   5.511  0.0311 -0.0472 -0.0807
  184POPC   C4A 2517   1.025   9.325   5.909  0.2640 -0.1179 -0.0896
  184POPC   C1B 2518   1.516   9.894   4.819  0.1005 -0.4086  0.2540
  184POPC   C2B 2519   1.545   9.780   5.159  0.2529  0.1272  0.1123
  184POPC   C3B 2520   1.279   9.853   5.528  0.0101  0.4315  0.2152
  184POPC   C4B 2521   1.019   9.808   5.926  0.0619  0.2367  0.2552
  185POPC   NC3 2522   0.776   5.582   3.662  0.1525 -0.0306 -0.1449
  185POPC   PO4 2523   0.538   6.020   3.734 -0.0602 -0.1743 -0.2816
  185POPC   GL1 2524   0.505   5.852   4.129 -0.1132  0.3249 -0.0508
  185POPC   GL2 2525   0.749   5.936   4.242 -0.2544 -0.0708  0.0448
  185POPC   C1A 2526   0.260   5.775   4.566 -0.1411  0.1730 -0.1935
  185POPC   D2A 2527  -0.113   5.903   4.620  0.0804  0.1080 -0.0112
  185POPC   C3A 2528  -0.162   6.286   4.814  0.0484  0.2216 -0.0960
  185POPC   C4A 2529  -0.215   6.504   5.156 -0.1186 -0.0990 -0.2468
  185POPC   C1B 2530   0.868   5.698   4.580 -0.0510  0.1467 -0.0116
  185POPC   C2B 2531   1.075   5.942   4.875 -0.1111 -0.2265  0.1697
  185POPC   C3B 2532   1.429   5.961   5.295  0.0815  0.1521 -0.4596
  185POPC   C4B 2533   1.765   6.041   5.506  0.1915  0.3428 -0.1352
  186POPC   NC3 2534   7.407   2.401   3.629 -0.2686  0.1112  0.0948
  186POPC   PO4 2535   7.152   2.495   3.918  0.0162  0.1873 -0.0492
  186POPC   GL1 2536   6.957   2.567   4.314 -0.0564  0.1737  0.1955
  186POPC   GL2 2537   6.785   2.770   4.452 -0.2902  0.0166  0.2336
  186POPC   C1A 2538   7.093   2.436   4.811 -0.1415  0.1790 -0.0834
  186POPC   D2A 2539   7.263   2.454   5.236  0.1055 -0.0241  0.0954
  186POPC   C3A 2540   7.764   2.480   5.369 -0.0042  0.0909 -0.2943
  186POPC   C4A 2541   7.978   2.117   5.402 -0.3183  0.2763  0.0160
  186POPC   C1B 2542   7.089   2.890   4.683  0.3648  0.0290  0.1139
  186POPC   C2B 2543   7.399   2.969   5.018 -0.0199  0.0308 -0.1007
  186POPC   C3B 2544   7.372   2.913   5.436  0.0145  0.3148 -0.1376
  186POPC   C4B 2545   7.361   2.973   5.933 -0.2372  0.0539  0.0321
  187POPC   NC3 2546   9.852   4.043   2.326  0.0215 -0.2604 -0.0633
  187POPC   PO4 2547  10.274   3.739   2.384  0.3728  0.0529 -0.0068
  187POPC   GL1 2548  10.385   3.639   2.888  0.3352 -0.0154  0.3948
  187POPC   GL2 2549  10.255   3.428   3.075  0.2597 -0.1589 -0.1802
  187POPC   C1A 2550  10.389   3.890   3.276  0.0286  0.1161 -0.2951
  187POPC   D2A 2551  10.618   3.922   3.661 -0.0473  0.4284  0.0922
  187POPC   C3A 2552  10.645   4.257   3.982  0.1881  0.0748 -0.1192
  187POPC   C4A 2553  10.505   4.381   4.341 -0.2113 -0.2059  0.0183
  187POPC   C1B 2554  10.535   3.423   3.471 -0.0675  0.2016  0.1086
  187POPC   C2B 2555  10.816   3.438   3.813  0.2164 -0.2476  0.0709
  187POPC   C3B 2556  10.940   3.624   4.143 -0.1545  0.4324  0.0244
  187POPC   C4B 2557  10.992   3.410   4.541 -0.0697 -0.0315 -0.2463
  188POPC   NC3 2558   2.704   4.727   3.556  0.2307 -0.0340  0.1822
  188POPC   PO4 2559   3.028   4.506   3.743 -0.0814 -0.2916 -0.1151
  188POPC   GL1 2560   3.001   4.513   4.193  0.0037  0.1954  0.1305
  188POPC   GL2 2561   3.169   4.725   4.299  0.1086 -0.3478 -0.1648
  188POPC   C1A 2562   2.845   4.424   4.626 -0.1166  0.3161 -0.1923
  188POPC   D2A 2563   2.705   4.208   5.000 -0.1806  0.0477  0.0930
  188POPC   C3A 2564   2.428   4.396   5.173  0.1677  0.3248 -0.0141
  188POPC   C4A 2565   2.204   4.691   5.131  0.1803  0.4900 -0.0434
  188POPC   C1B 2566   3.155   4.886   4.708 -0.2082 -0.1090 -0.0263
  188POPC   C2B 2567   3.178   5.048   5.009  0.1934 -0.0441 -0.2076
  188POPC   C3B 2568   3.531   5.130   5.243 -0.3526 -0.1214 -0.0823
  188POPC   C4B 2569   4.011   5.132   5.324 -0.0399 -0.0864 -0.2604
  189POPC   NC3 2570   6.458   6.637   3.261  0.2871 -0.2647 -0.2051
  189POPC   PO4 2571   6.522   7.118   3.380 -0.0309 -0.1057  0.1291
  189POPC   GL1 2572   6.549   6.991   3.775 -0.0275 -0.0997  0.2725
  189POPC   GL2 2573   6.672   7.200   3.938  0.2829  0.0908  0.0612
  189POPC   C1A 2574   6.292   6.984   4.085  0.0215 -0.1603 -0.1649
  189POPC   D2A 2575   6.130   7.085   4.385  0.3338 -0.0922  0.0041
  189POPC   C3A 2576   5.993   6.934   4.740  0.0852  0.0652  0.0414
  189POPC   C4A 2577   6.126   6.675   5.133  0.1670 -0.0047 -0.1356
  189POPC   C1B 2578   6.706   7.373   4.241 -0.0280  0.1592  0.1566
  189POPC   C2B 2579   6.747   7.404   4.589 -0.0953 -0.0914 -0.0573
  189POPC   C3B 2580   6.862   7.308   4.968  0.2386  0.1436 -0.0361
  189POPC   C4B 2581   7.177   7.534   5.205 -0.1122  0.2833  0.2894
  190POPC   NC3 2582  10.320   5.973   3.478  0.0208 -0.4583  0.0230
  190POPC   PO4 2583  10.494   5.765   3.797  0.1363 -0.2269 -0.1791
  190POPC   GL1 2584  10.281   5.672   4.151  0.0303 -0.0654 -0.3782
  190POPC   GL2 2585  10.175   5.986   4.328  0.3711 -0.2481 -0.0810
  190POPC   C1A 2586   9.846   5.608   4.229  0.2888  0.1742 -0.0583
  190POPC   D2A 2587   9.372   5.649   4.429 -0.2665  0.1449 -0.1501
  190POPC   C3A 2588   9.396   5.763   4.859 -0.3705  0.3728 -0.0950
  190POPC   C4A 2589   9.603   6.037   5.085  0.1473  0.0350 -0.1569
  190POPC   C1B 2590   9.940   5.793   4.740 -0.0705 -0.2126  0.2129
  190POPC   C2B 2591  10.087   5.794   5.234  0.6336 -0.0172  0.2660
  190POPC   C3B 2592  10.177   5.715   5.663 -0.0516 -0.0571  0.2761
  190POPC   C4B 2593  10.308   5.903   6.019  0.3896 -0.1714  0.1405
  191POPC   NC3 2594   3.549   0.540   4.016 -0.0647  0.0389  0.1277
  191POPC   PO4 2595   3.823   0.958   3.932 -0.1889  0.0114 -0.1970
  191POPC   GL1 2596   4.027   0.907   4.337  0.1639  0.1103 -0.2886
  191POPC   GL2 2597   3.729   0.881   4.450  0.2557 -0.2444 -0.3131
  191POPC   C1A 2598   4.267   0.923   4.707  0.0811  0.2726 -0.4104
  191POPC   D2A 2599   4.394   0.942   5.199 -0.1253 -0.1182 -0.0371
  191POPC   C3A 2600   4.201   0.748   5.546  0.1397  0.1823 -0.0785
  191POPC   C4A 2601   3.737   0.840   5.642 -0.1621  0.1626 -0.0261
  191POPC   C1B 2602   3.787   0.712   4.805 -0.0128 -0.0346  0.2466
  191POPC   C2B 2603   3.479   0.728   5.096  0.2248  0.1176 -0.1769
  191POPC   C3B 2604   3.169   0.939   5.315  0.3919  0.1541 -0.0228
  191POPC   C4B 2605   2.976   1.335   5.511 -0.1775  0.0776  0.1014
  192POPC   NC3 2606   5.070   1.205   4.280 -0.0685  0.0500  0.2515
  192POPC   PO4 2607   4.822   0.916   4.182  0.3568  0.4300 -0.1671
  192POPC   GL1 2608   4.835   0.740   4.490 -0.2398 -0.0544  0.2510
  192POPC   GL2 2609   5.096   0.919   4.689  0.4816 -0.1937 -0.0466
  192POPC   C1A 2610   4.601   0.530   4.769  0.2140  0.1174  0.0993
  192POPC   D2A 2611   4.213   0.364   4.828 -0.0206  0.0037  0.2034
  192POPC   C3A 2612   3.982   0.538   5.204  0.1960  0.1254  0.1908
  192POPC   C4A 2613   3.841   0.319   5.549 -0.0759  0.1000  0.0904
  192POPC   C1B 2614   4.686   1.151   4.849 -0.0567  0.0258  0.0466
  192POPC   C2B 2615   4.658   1.352   5.187 -0.0425  0.2243 -0.2388
  192POPC   C3B 2616   4.827   1.604   5.512 -0.1936 -0.1117 -0.0192
  192POPC   C4B 2617   5.087   1.625   5.958  0.3018 -0.1773  0.3160
  193POPC   NC3 2618   8.351   6.863   3.109  0.0378  0.2026 -0.0794
  193POPC   PO4 2619   8.089   6.511   3.305 -0.0292  0.0550  0.1702
  193POPC   GL1 2620   8.233   6.479   3.756 -0.0989 -0.0232  0.0274
  193POPC   GL2 2621   7.904   6.516   3.804 -0.0982  0.1933 -0.2485
  193POPC   C1A 2622   8.226   6.459   4.255 -0.0126 -0.2819  0.3692
  193POPC   D2A 2623   8.100   6.438   4.655  0.2465  0.2790 -0.1915
  193POPC   C3A 2624   7.883   6.520   5.016 -0.0565  0.1666 -0.1610
  193POPC   C4A 2625   7.884   6.152   5.184  0.0296 -0.1993  0.1546
  193POPC   C1B 2626   7.807   6.068   4.094  0.2515 -0.2586 -0.0219
  193POPC   C2B 2627   8.137   5.835   4.365  0.2056 -0.0862 -0.0312
  193POPC   C3B 2628   8.284   5.957   4.833  0.0571  0.0931  0.1634
  193POPC   C4B 2629   8.402   6.227   5.161 -0.0850  0.2573 -0.0276
  194POPC   NC3 2630   7.113   5.517   3.632  0.1318  0.0184 -0.0626
  194POPC   PO4 2631   7.341   5.265   3.708 -0.1140  0.2318 -0.0423
  194POPC   GL1 2632   7.294   5.353   4.107 -0.1184  0.0119 -0.1430
  194POPC   GL2 2633   7.172   5.660   4.111  0.1881 -0.1090  0.1991
  194POPC   C1A 2634   7.295   5.388   4.486 -0.1049  0.0060 -0.1625
  194POPC   D2A 2635   7.294   5.625   4.873 -0.2361  0.0345  0.1127
  194POPC   C3A 2636   7.060   5.468   5.191 -0.0416 -0.0524  0.0063
  194POPC   C4A 2637   6.984   5.107   5.450 -0.0413  0.2427  0.1125
  194POPC   C1B 2638   7.388   5.925   4.435  0.0341  0.4617  0.0394
  194POPC   C2B 2639   7.779   5.834   4.778 -0.1321  0.1971  0.1352
  194POPC   C3B 2640   7.858   5.628   5.138 -0.1763  0.3832 -0.2984
  194POPC   C4B 2641   7.865   5.499   5.668 -0.0520  0.3295  0.0892
  195POPC   NC3 2642   5.450   3.785   4.008  0.3534  0.0513  0.1644
  195POPC   PO4 2643   5.558   3.409   4.258  0.0874  0.0500 -0.4595
  195POPC   GL1 2644   5.372   3.524   4.671  0.1270  0.0399 -0.0630
  195POPC   GL2 2645   5.450   3.772   4.790 -0.0474 -0.3555  0.3391
  195POPC   C1A 2646   5.396   3.309   5.027  0.1765  0.1688  0.1066
  195POPC   D2A 2647   5.298   3.213   5.489 -0.0256 -0.1414 -0.0300
  195POPC   C3A 2648   4.934   3.168   5.657 -0.0376  0.0985  0.1518
  195POPC   C4A 2649   4.795   3.104   6.049 -0.0115 -0.5834 -0.0915
  195POPC   C1B 2650   5.360   4.211   4.897 -0.1710  0.0726  0.1921
  195POPC   C2B 2651   5.367   4.428   5.255  0.0184 -0.2072  0.1946
  195POPC   C3B 2652   5.313   4.756   5.431 -0.0083 -0.1423 -0.1036
  195POPC   C4B 2653   5.486   5.106   5.554 -0.1803  0.0278  0.1079
  196POPC   NC3 2654  10.499  10.207   3.655 -0.2125  0.3611 -0.1180
  196POPC   PO4 2655  10.755   9.938   3.844 -0.0746 -0.0172 -0.1924
  196POPC   GL1 2656  10.684  10.142   4.223  0.4545 -0.0942  0.3490
  196POPC   GL2 2657  10.922   9.919   4.385  0.4074  0.0918  0.0533
  196POPC   C1A 2658  10.596  10.244   4.678  0.0740  0.0984  0.1879
  196POPC   D2A 2659  10.437  10.269   5.005 -0.0269 -0.0106 -0.0020
  196POPC   C3A 2660  10.513  10.233   5.467  0.0233  0.2192  0.0643
  196POPC   C4A 2661  10.635  10.490   5.760  0.1002  0.1868 -0.2181
  196POPC   C1B 2662  11.029   9.471   4.707  0.0918 -0.1597 -0.2463
  196POPC   C2B 2663  11.052   9.362   5.219  0.0641 -0.1312 -0.3495
  196POPC   C3B 2664  11.145   8.963   5.540  0.0197 -0.0036 -0.0626
  196POPC   C4B 2665  11.393   9.002   5.860  0.3714  0.3134 -0.0385
  197POPC   NC3 2666   5.463   7.913   3.374  0.0111 -0.2844  0.0126
  197POPC   PO4 2667   5.249   8.254   3.659  0.2262  0.0923  0.1716
  197POPC   GL1 2668   5.452   8.456   4.065 -0.1250  0.2884 -0.0604
  197POPC   GL2 2669   5.786   8.601   4.166  0.4196  0.0262  0.0860
  197POPC   C1A 2670   5.597   8.150   4.399 -0.0318 -0.1230  0.1536
  197POPC   D2A 2671   5.784   7.978   4.758 -0.0025  0.1336  0.0681
  197POPC   C3A 2672   5.907   8.230   5.081 -0.0035  0.3069  0.1951
  197POPC   C4A 2673   5.709   8.268   5.416 -0.2925 -0.0080  0.3249
  197POPC   C1B 2674   5.435   8.791   4.417 -0.1106 -0.2677 -0.1328
  197POPC   C2B 2675   5.500   8.902   4.800  0.2823  0.1188  0.1601
  197POPC   C3B 2676   5.557   8.769   5.210  0.0714 -0.3961 -0.1821
  197POPC   C4B 2677   5.214   8.713   5.612 -0.1951  0.2365  0.0235
  198POPC   NC3 2678   0.549   2.150   3.859  0.0367 -0.0394  0.0419
  198POPC   PO4 2679   0.423   2.500   3.666  0.1242 -0.0909  0.0157
  198POPC   GL1 2680   0.274   2.464   4.126 -0.3752  0.1338 -0.0612
  198POPC   GL2 2681   0.549   2.280   4.353  0.0498  0.0308 -0.2435
  198POPC   C1A 2682   0.423   2.860   4.405  0.5039 -0.0863 -0.0873
  198POPC   D2A 2683   0.839   2.679   4.543 -0.0551  0.3718 -0.0515
  198POPC   C3A 2684   0.976   2.793   4.959 -0.0903 -0.1367  0.0966
  198POPC   C4A 2685   0.836   2.958   5.262  0.0578  0.2291 -0.0187
  198POPC   C1B 2686   0.418   2.389   4.799  0.2361 -0.1757 -0.1378
  198POPC   C2B 2687   0.440   2.615   5.326  0.0173 -0.1230  0.1974
  198POPC   C3B 2688   0.707   2.623   5.697  0.1967 -0.1432  0.1345
  198POPC   C4B 2689   1.021   2.965   5.970 -0.1772  0.1535 -0.1913
  199POPC   NC3 2690   3.507   2.644   4.007 -0.0623  0.0557  0.0582
  199POPC   PO4 2691   3.938   2.671   3.924  0.4273  0.0208  0.0151
  199POPC   GL1 2692   3.909   2.545   4.335  0.1574 -0.1851 -0.2814
  199POPC   GL2 2693   3.711   2.729   4.641 -0.1619  0.0749 -0.1600
  199POPC   C1A 2694   4.188   2.420   4.661  0.4977  0.1801  0.0009
  199POPC   D2A 2695   4.384   2.340   5.040  0.0281  0.2695  0.1650
  199POPC   C3A 2696   4.233   2.443   5.394 -0.1619 -0.1992  0.2283
  199POPC   C4A 2697   3.935   2.582   5.763  0.1084  0.2263  0.2126
  199POPC   C1B 2698   3.790   2.558   5.020 -0.1723 -0.2285  0.0342
  199POPC   C2B 2699   3.770   2.240   5.382  0.1552  0.0311  0.4722
  199POPC   C3B 2700   3.919   2.008   5.725 -0.0257 -0.2242 -0.1313
  199POPC   C4B 2701   3.877   1.943   6.153  0.1479  0.0570 -0.0706
  200POPC   NC3 2702   2.784   1.364   4.037 -0.0090  0.2244  0.0451
  200POPC   PO4 2703   2.439   1.663   4.005  0.0428  0.3077  0.0149
  200POPC   GL1 2704   2.341   1.569   4.388  0.2603 -0.5319  0.2668
  200POPC   GL2 2705   2.508   1.502   4.665 -0.3132 -0.0437 -0.1384
  200POPC   C1A 2706   1.968   1.512   4.644  0.1102 -0.1249 -0.3396
  200POPC   D2A 2707   1.749   1.073   4.802 -0.2075  0.0151 -0.2746
  200POPC   C3A 2708   1.935   0.716   4.920  0.0022  0.0727 -0.3083
  200POPC   C4A 2709   2.172   0.616   5.298 -0.0453 -0.1035 -0.0108
  200POPC   C1B 2710   2.926   1.680   4.836 -0.1131 -0.1196 -0.1275
  200POPC   C2B 2711   2.971   1.728   5.240  0.0891  0.0229 -0.0667
  200POPC   C3B 2712   3.060   2.139   5.552 -0.1354  0.0904  0.1049
  200POPC   C4B 2713   3.385   2.314   5.788 -0.0880 -0.0989  0.5115
  201POPC   NC3 2714   7.373   1.517   4.005 -0.1962  0.0296 -0.1942
  201POPC   PO4 2715   7.138   1.180   4.013 -0.0946 -0.1462 -0.1994
  201POPC   GL1 2716   7.036   1.337   4.455  0.1380 -0.1134 -0.1400
  201POPC   GL2 2717   7.231   1.565   4.619  0.0965  0.0387  0.0537
  201POPC   C1A 2718   6.843   1.416   4.863 -0.0648 -0.0848  0.3894
  201POPC   D2A 2719   6.738   1.240   5.223 -0.0217  0.0513  0.0474
  201POPC   C3A 2720   7.055   1.133   5.620 -0.2390 -0.0317 -0.1914
  201POPC   C4A 2721   7.501   0.924   5.778 -0.2593  0.1661  0.2868
  201POPC   C1B 2722   6.891   1.862   4.783  0.2468 -0.4140 -0.1231
  201POPC   C2B 2723   6.694   2.225   4.619  0.1324  0.3085 -0.1340
  201POPC   C3B 2724   6.631   2.544   4.903 -0.1954 -0.1485  0.0865
  201POPC   C4B 2725   6.777   2.914   5.077 -0.2040  0.2935 -0.0397
  202POPC   NC3 2726   2.143   4.885   4.071 -0.1860  0.0207 -0.2241
  202POPC   PO4 2727   2.508   4.694   4.071 -0.1759  0.2874  0.1834
  202POPC   GL1 2728   2.675   4.863   4.358 -0.0554  0.2218  0.0169
  202POPC   GL2 2729   2.822   5.161   4.297  0.2489  0.0930  0.2850
  202POPC   C1A 2730   2.672   4.864   4.879 -0.1019 -0.0868 -0.3055
  202POPC   D2A 2731   2.789   4.840   5.207  0.3905 -0.0097 -0.4032
  202POPC   C3A 2732   2.998   5.138   5.437 -0.2873  0.1489  0.0964
  202POPC   C4A 2733   3.356   5.470   5.629 -0.1331 -0.0417 -0.0139
  202POPC   C1B 2734   2.760   5.256   4.670  0.0426 -0.1897 -0.0392
  202POPC   C2B 2735   2.740   5.352   5.087 -0.0642 -0.0346  0.2483
  202POPC   C3B 2736   2.954   5.641   5.201  0.0027 -0.2771  0.0793
  202POPC   C4B 2737   3.336   5.563   5.090 -0.0690 -0.0741  0.1431
  203POPC   NC3 2738   5.265   4.736   3.689  0.0926 -0.2583 -0.3421
  203POPC   PO4 2739   5.495   4.692   4.160 -0.2597  0.1366 -0.0516
  203POPC   GL1 2740   5.680   4.743   4.581 -0.1608 -0.1048  0.1339
  203POPC   GL2 2741   6.074   4.826   4.572  0.1273  0.2361  0.2437
  203POPC   C1A 2742   5.734   4.652   5.020 -0.1615  0.3589 -0.0234
  203POPC   D2A 2743   5.873   4.380   5.425  0.1654  0.0688  0.0591
  203POPC   C3A 2744   5.747   4.561   5.789  0.1779  0.2532 -0.0732
  203POPC   C4A 2745   5.926   4.866   5.938  0.0852 -0.0450 -0.0959
  203POPC   C1B 2746   6.141   4.937   4.920  0.1308 -0.0684 -0.0041
  203POPC   C2B 2747   6.055   4.871   5.433 -0.1635 -0.0520  0.2878
  203POPC   C3B 2748   6.261   4.598   5.655 -0.1142  0.0495  0.1785
  203POPC   C4B 2749   6.122   4.174   5.846  0.1737  0.0912  0.0150
  204POPC   NC3 2750   6.088   5.335   3.792 -0.1987  0.2235 -0.2916
  204POPC   PO4 2751   5.961   4.874   3.896  0.0656 -0.2182 -0.0508
  204POPC   GL1 2752   5.767   5.086   4.245  0.1602  0.1511 -0.0479
  204POPC   GL2 2753   5.864   5.251   4.260  0.0698  0.2258  0.0465
  204POPC   C1A 2754   5.786   5.199   4.735 -0.0355  0.0271 -0.0536
  204POPC   D2A 2755   5.581   5.213   5.054  0.4186 -0.1692 -0.0514
  204POPC   C3A 2756   5.280   4.806   4.905 -0.0507  0.2504  0.0276
  204POPC   C4A 2757   4.969   4.565   5.033 -0.0082 -0.1789 -0.2145
  204POPC   C1B 2758   6.206   5.441   4.485  0.2163  0.1368  0.1557
  204POPC   C2B 2759   6.227   5.411   4.875 -0.0744 -0.3106  0.2817
  204POPC   C3B 2760   6.059   5.381   5.335 -0.1965  0.1066 -0.1636
  204POPC   C4B 2761   6.001   5.284   5.673  0.0855  0.0158  0.1907
  205POPC   NC3 2762   4.454  10.366   3.407 -0.2625 -0.4668  0.0728
  205POPC   PO4 2763   4.761  10.232   3.728  0.2705 -0.2846  0.1090
  205POPC   GL1 2764   4.724  10.145   4.168  0.0429  0.0483 -0.0128
  205POPC   GL2 2765   4.717  10.321   4.455 -0.1136  0.1806  0.2925
  205POPC   C1A 2766   4.724   9.781   4.433  0.1186 -0.1257 -0.0151
  205POPC   D2A 2767   4.518   9.576   4.630 -0.0952  0.0124  0.1120
  205POPC   C3A 2768   4.583   9.271   5.058  0.1075  0.0672 -0.0074
  205POPC   C4A 2769   4.958   8.979   5.209  0.2800 -0.2390  0.3272
  205POPC   C1B 2770   4.558  10.027   4.811 -0.0107 -0.2549 -0.1502
  205POPC   C2B 2771   4.422   9.703   5.157  0.0111  0.1965 -0.2051
  205POPC   C3B 2772   4.265   9.738   5.502 -0.1357  0.1710 -0.0158
  205POPC   C4B 2773   3.964   9.626   5.790  0.1160 -0.2094 -0.0872
  206POPC   NC3 2774  10.624   9.524   4.046  0.0699  0.0161 -0.2649
  206POPC   PO4 2775  10.163   9.354   3.989 -0.1602 -0.0193 -0.4239
  206POPC   GL1 2776  10.126   9.567   4.308 -0.0481  0.2401 -0.2886
  206POPC   GL2 2777  10.481   9.591   4.515 -0.0293 -0.1783 -0.0046
  206POPC   C1A 2778  10.120   9.297   4.752 -0.0123  0.0220  0.0815
  206POPC   D2A 2779  10.310   8.870   4.855  0.0529 -0.1595  0.3270
  206POPC   C3A 2780  10.529   8.604   4.567  0.2719  0.0957 -0.0105
  206POPC   C4A 2781  10.834   8.271   4.816 -0.0360  0.2519  0.1410
  206POPC   C1B 2782  10.456   9.595   5.014 -0.1071  0.0697  0.3290
  206POPC   C2B 2783  10.484   9.699   5.452  0.1877 -0.0941 -0.0011
  206POPC   C3B 2784  10.531   9.826   5.859 -0.0043 -0.2015 -0.1130
  206POPC   C4B 2785  10.321  10.167   6.191 -0.0467  0.0194 -0.3897
  207POPC   NC3 2786   2.517   6.925   3.987 -0.0034  0.3684 -0.0019
  207POPC   PO4 2787   2.794   7.092   3.597  0.1838  0.0007  0.0291
  207POPC   GL1 2788   2.999   7.054   3.975 -0.2106  0.1030  0.0987
  207POPC   GL2 2789   3.339   6.981   4.132  0.2401 -0.1002  0.2372
  207POPC   C1A 2790   2.923   6.933   4.400 -0.0761 -0.0269 -0.1179
  207POPC   D2A 2791   3.003   6.642   4.769 -0.0455 -0.0377  0.0240
  207POPC   C3A 2792   3.058   6.829   5.185 -0.1492  0.0406 -0.5102
  207POPC   C4A 2793   3.345   7.158   5.438  0.0481  0.0453 -0.2510
  207POPC   C1B 2794   3.539   7.060   4.635  0.1606 -0.2406 -0.2492
  207POPC   C2B 2795   3.593   7.271   5.002  0.0601 -0.1787 -0.2841
  207POPC   C3B 2796   3.479   7.616   5.245  0.0869  0.0674 -0.1280
  207POPC   C4B 2797   3.206   7.760   5.478  0.3454  0.0553  0.2491
  208POPC   NC3 2798   1.423   0.429   3.856  0.0788  0.1816  0.0042
  208POPC   PO4 2799   1.337   0.895   3.912 -0.1350 -0.1302  0.0478
  208POPC   GL1 2800   1.230   1.128   4.336  0.0065 -0.1547 -0.0715
  208POPC   GL2 2801   1.551   1.366   4.487  0.0907  0.1222  0.1800
  208POPC   C1A 2802   1.217   1.163   4.761 -0.1546  0.2544  0.0288
  208POPC   D2A 2803   1.232   1.116   5.164  0.2117 -0.3133  0.1255
  208POPC   C3A 2804   1.610   1.037   5.383 -0.0204 -0.1836  0.1055
  208POPC   C4A 2805   1.967   0.969   5.616 -0.3464 -0.2123 -0.2515
  208POPC   C1B 2806   1.507   1.500   4.954 -0.2011 -0.1841  0.0152
  208POPC   C2B 2807   1.636   1.745   5.193 -0.0009 -0.1679 -0.1131
  208POPC   C3B 2808   1.751   2.137   5.540  0.2098  0.0314 -0.4593
  208POPC   C4B 2809   2.111   2.359   5.706 -0.2511  0.3462  0.0241
  209POPC   NC3 2810   2.610   3.816   3.714 -0.1057 -0.0371  0.1937
  209POPC   PO4 2811   3.034   3.975   3.904  0.0430  0.3832  0.0302
  209POPC   GL1 2812   3.138   4.052   4.335 -0.0259  0.0049 -0.1966
  209POPC   GL2 2813   3.442   4.270   4.327  0.2727  0.0546  0.1312
  209POPC   C1A 2814   3.338   3.848   4.625  0.1393 -0.1710 -0.0697
  209POPC   D2A 2815   3.189   3.965   5.085 -0.0100  0.0272 -0.1570
  209POPC   C3A 2816   3.403   4.263   5.431  0.2827 -0.1946  0.1211
  209POPC   C4A 2817   3.277   4.758   5.649  0.0380  0.0459 -0.2011
  209POPC   C1B 2818   3.477   4.466   4.726 -0.0289  0.0337 -0.3295
  209POPC   C2B 2819   3.168   4.500   5.038 -0.0656  0.0038  0.1035
  209POPC   C3B 2820   2.960   4.480   5.439 -0.0245 -0.0249 -0.3114
  209POPC   C4B 2821   2.726   4.103   5.524 -0.1457  0.2327  0.2116
  210POPC   NC3 2822   9.252   8.164   3.665  0.4856  0.0056 -0.4905
  210POPC   PO4 2823   8.952   7.826   3.568  0.0786  0.2736 -0.2178
  210POPC   GL1 2824   8.810   7.896   4.033 -0.2347  0.1178 -0.2859
  210POPC   GL2 2825   8.848   7.488   4.239 -0.0180 -0.2057  0.1048
  210POPC   C1A 2826   8.453   7.853   4.347 -0.1289  0.0754  0.0890
  210POPC   D2A 2827   8.604   7.743   4.764 -0.1603 -0.1096  0.0429
  210POPC   C3A 2828   8.284   7.865   5.174 -0.2457  0.0985 -0.2827
  210POPC   C4A 2829   7.908   7.815   5.406  0.1544 -0.0126  0.0544
  210POPC   C1B 2830   8.749   7.227   4.532 -0.0307  0.1017 -0.1267
  210POPC   C2B 2831   8.942   6.959   4.841  0.1432 -0.0252  0.2999
  210POPC   C3B 2832   9.059   7.014   5.255  0.0056 -0.0071 -0.0381
  210POPC   C4B 2833   9.560   6.988   5.391 -0.2330 -0.0692  0.0423
  211POPC   NC3 2834  10.576   7.861   3.958 -0.2673 -0.3677  0.2000
  211POPC   PO4 2835  10.352   8.167   3.736  0.0074 -0.2185 -0.0577
  211POPC   GL1 2836  10.179   8.065   4.164  0.0386  0.0468  0.1256
  211POPC   GL2 2837   9.966   7.910   4.187 -0.3275  0.1383 -0.1892
  211POPC   C1A 2838  10.083   8.298   4.529 -0.1233 -0.0690 -0.1069
  211POPC   D2A 2839   9.936   8.246   4.912 -0.3704 -0.0596  0.0469
  211POPC   C3A 2840   9.957   8.513   5.233 -0.1507 -0.0686  0.1779
  211POPC   C4A 2841   9.893   8.528   5.666 -0.0562 -0.2204  0.2276
  211POPC   C1B 2842   9.688   7.950   4.517  0.3442  0.0064 -0.3483
  211POPC   C2B 2843   9.513   8.271   4.665  0.1540 -0.0466 -0.1407
  211POPC   C3B 2844   9.641   8.742   4.785  0.0864 -0.2353  0.0914
  211POPC   C4B 2845   9.809   9.060   5.046  0.0412  0.4504 -0.1106
  212POPC   NC3 2846   2.797   2.318   3.561  0.2942 -0.1071 -0.1994
  212POPC   PO4 2847   2.921   1.859   3.576  0.3531 -0.0450 -0.0347
  212POPC   GL1 2848   2.994   1.836   4.094 -0.0326  0.2141 -0.0706
  212POPC   GL2 2849   2.839   1.725   4.374  0.0063 -0.1683 -0.0291
  212POPC   C1A 2850   3.278   1.840   4.574  0.0783 -0.1006  0.0172
  212POPC   D2A 2851   3.778   1.594   4.583 -0.0865 -0.2043 -0.1399
  212POPC   C3A 2852   3.859   1.263   4.858 -0.0455 -0.0085  0.0708
  212POPC   C4A 2853   3.841   1.028   5.231 -0.1159 -0.1224  0.0458
  212POPC   C1B 2854   2.849   2.130   4.463 -0.1877  0.0288 -0.1559
  212POPC   C2B 2855   2.711   2.558   4.644  0.0990  0.0538  0.3189
  212POPC   C3B 2856   2.864   2.772   4.963  0.3129  0.1789 -0.2404
  212POPC   C4B 2857   3.267   2.906   4.855  0.2867 -0.0027  0.4317
  213POPC   NC3 2858   8.410   0.406   3.576  0.1883  0.2860 -0.1271
  213POPC   PO4 2859   8.753   0.073   3.654  0.0406  0.3386 -0.0674
  213POPC   GL1 2860   8.831  -0.006   4.106  0.1291 -0.0027 -0.0364
  213POPC   GL2 2861   9.009  -0.219   4.118  0.0071 -0.4579  0.1907
  213POPC   C1A 2862   8.893  -0.026   4.591  0.0009 -0.2052  0.0451
  213POPC   D2A 2863   8.562  -0.080   4.949  0.2150  0.0194 -0.0646
  213POPC   C3A 2864   8.792  -0.021   5.275 -0.3184  0.2260 -0.1413
  213POPC   C4A 2865   8.702   0.092   5.724 -0.0419  0.3137 -0.0968
  213POPC   C1B 2866   9.449  -0.144   4.351  0.0710  0.0358  0.0000
  213POPC   C2B 2867   9.543  -0.189   4.762  0.2498 -0.1310  0.1609
  213POPC   C3B 2868   9.508  -0.118   5.196 -0.0342 -0.1543 -0.0652
  213POPC   C4B 2869   9.709   0.013   5.522 -0.0844 -0.0665 -0.0446
  214POPC   NC3 2870   9.893   1.548   3.968  0.1077  0.0706 -0.1948
  214POPC   PO4 2871   9.895   1.138   3.980 -0.0710  0.2339  0.1377
  214POPC   GL1 2872   9.987   1.123   4.348 -0.4140 -0.3380  0.0456
  214POPC   GL2 2873  10.258   0.963   4.352  0.3273 -0.0649 -0.0225
  214POPC   C1A 2874   9.901   1.067   4.807 -0.0459 -0.1880  0.0331
  214POPC   D2A 2875  10.091   1.139   5.188 -0.0499  0.0022 -0.1249
  214POPC   C3A 2876  10.131   0.821   5.463  0.0894 -0.0535  0.1869
  214POPC   C4A 2877  10.084   0.859   5.859 -0.0303 -0.0214 -0.3365
  214POPC   C1B 2878  10.334   1.258   4.686  0.0440 -0.1071 -0.3485
  214POPC   C2B 2879  10.431   1.461   5.096  0.1121 -0.0060 -0.2334
  214POPC   C3B 2880  10.796   1.606   5.362 -0.0411  0.1683 -0.0740
  214POPC   C4B 2881  10.846   1.775   5.672  0.0816  0.0119  0.2557
  215POPC   NC3 2882   4.787   7.185   3.435 -0.0652  0.1751 -0.1220
  215POPC   PO4 2883   4.515   7.116   3.751 -0.0641  0.1151 -0.2899
  215POPC   GL1 2884   4.340   7.064   4.207  0.0498  0.1019 -0.0204
  215POPC   GL2 2885   4.200   7.111   4.451 -0.2075  0.0413 -0.1916
  215POPC   C1A 2886   4.451   6.704   4.524 -0.0437  0.0762 -0.2493
  215POPC   D2A 2887   4.654   6.552   4.932  0.3372 -0.1785 -0.0296
  215POPC   C3A 2888   4.475   6.617   5.351  0.0488  0.0620  0.0938
  215POPC   C4A 2889   4.512   6.516   5.769 -0.0633  0.2088  0.2198
  215POPC   C1B 2890   4.055   6.840   4.796  0.0772 -0.0784 -0.0991
  215POPC   C2B 2891   3.849   6.942   5.264 -0.0316  0.0925  0.2717
  215POPC   C3B 2892   3.834   7.048   5.715  0.0798  0.4346 -0.2818
  215POPC   C4B 2893   3.611   7.158   6.083 -0.3174 -0.0229  0.0304
  216POPC   NC3 2894   4.685   9.678   3.766 -0.0154 -0.1141 -0.0278
  216POPC   PO4 2895   5.143   9.428   3.904 -0.0010 -0.3199 -0.0539
  216POPC   GL1 2896   4.993   9.225   4.258  0.0287  0.0045 -0.0096
  216POPC   GL2 2897   4.645   9.278   4.265 -0.1810  0.1366 -0.0760
  216POPC   C1A 2898   4.996   9.227   4.747 -0.1649  0.1936  0.0383
  216POPC   D2A 2899   5.257   9.353   5.118  0.1063 -0.1778 -0.0607
  216POPC   C3A 2900   5.552   9.173   5.462  0.3480 -0.1813 -0.0944
  216POPC   C4A 2901   5.716   9.468   5.775 -0.0904  0.0771  0.0554
  216POPC   C1B 2902   4.529   8.997   4.599  0.0091 -0.0844  0.0677
  216POPC   C2B 2903   4.462   8.827   5.048 -0.0413  0.2966 -0.1453
  216POPC   C3B 2904   4.314   8.387   5.411  0.1789 -0.1184  0.2138
  216POPC   C4B 2905   4.108   8.151   5.738  0.1058 -0.0923  0.0813
  217POPC   NC3 2906   5.945   4.475   4.195 -0.0319 -0.0084  0.0502
  217POPC   PO4 2907   5.600   4.189   4.286  0.5144  0.0201  0.0895
  217POPC   GL1 2908   5.804   4.105   4.634  0.0243  0.0151 -0.1300
  217POPC   GL2 2909   5.968   4.295   4.708 -0.0830  0.0940 -0.0174
  217POPC   C1A 2910   5.857   3.971   5.039  0.2752  0.0341 -0.1256
  217POPC   D2A 2911   5.803   3.866   5.583 -0.2993  0.1342 -0.1451
  217POPC   C3A 2912   5.457   3.606   5.727  0.0159  0.1850  0.0981
  217POPC   C4A 2913   5.302   3.283   6.008  0.3136 -0.2578  0.1537
  217POPC   C1B 2914   6.267   4.472   5.086 -0.1141  0.0560  0.2736
  217POPC   C2B 2915   6.559   4.208   5.443 -0.2477 -0.0381  0.1417
  217POPC   C3B 2916   6.788   4.233   5.805 -0.2340 -0.2467  0.3021
  217POPC   C4B 2917   6.566   4.116   6.074 -0.0590  0.0929  0.1702
  218POPC   NC3 2918   4.586   3.663   3.438  0.0518  0.0723  0.2232
  218POPC   PO4 2919   4.188   3.598   3.705 -0.1077  0.2171 -0.0938
  218POPC   GL1 2920   4.123   3.701   4.104  0.0189  0.1170 -0.1453
  218POPC   GL2 2921   4.166   3.395   4.284 -0.0438  0.1205  0.1181
  218POPC   C1A 2922   3.971   3.917   4.435  0.1194  0.2957 -0.0059
  218POPC   D2A 2923   3.739   4.074   4.855  0.2456 -0.1489  0.0007
  218POPC   C3A 2924   3.961   4.234   5.181 -0.2637 -0.1198 -0.0265
  218POPC   C4A 2925   4.192   4.632   5.317  0.1534  0.0927 -0.2575
  218POPC   C1B 2926   4.266   3.549   4.650  0.1142  0.4486 -0.2972
  218POPC   C2B 2927   4.230   3.380   4.992 -0.1087 -0.0924  0.0451
  218POPC   C3B 2928   4.076   3.488   5.406 -0.0275  0.0337 -0.0812
  218POPC   C4B 2929   3.793   3.474   5.733  0.3747  0.0583 -0.1247
  219POPC   NC3 2930   2.089   1.710   3.244  0.4208 -0.2549  0.2139
  219POPC   PO4 2931   1.690   1.654   3.437 -0.1449  0.1730  0.3046
  219POPC   GL1 2932   1.585   1.819   3.852  0.3099  0.1881  0.0881
  219POPC   GL2 2933   1.352   1.670   4.098  0.2664  0.2812 -0.2730
  219POPC   C1A 2934   1.615   2.156   4.123 -0.4546  0.0746  0.0288
  219POPC   D2A 2935   1.852   2.316   4.495 -0.0512 -0.0382 -0.3951
  219POPC   C3A 2936   1.712   2.258   4.969  0.3857  0.1868 -0.4834
  219POPC   C4A 2937   1.805   2.554   5.300  0.2196 -0.0757 -0.1952
  219POPC   C1B 2938   1.091   1.646   4.553  0.1916  0.1009  0.1288
  219POPC   C2B 2939   1.022   1.649   4.856 -0.2843  0.1390 -0.3649
  219POPC   C3B 2940   1.110   1.689   5.234 -0.1317 -0.0387 -0.2091
  219POPC   C4B 2941   1.333   1.371   5.571 -0.1263 -0.2229 -0.5277
  220POPC   NC3 2942   2.571   7.715   3.477 -0.0507  0.3582  0.0073
  220POPC   PO4 2943   2.902   7.804   3.677  0.1850 -0.0943 -0.0946
  220POPC   GL1 2944   2.885   7.525   3.892  0.0255  0.1024 -0.1106
  220POPC   GL2 2945   2.595   7.437   4.056 -0.2387  0.1810  0.0968
  220POPC   C1A 2946   3.066   7.431   4.392  0.2182  0.2370 -0.3746
  220POPC   D2A 2947   3.193   7.518   4.789  0.0097 -0.3294 -0.2964
  220POPC   C3A 2948   3.315   7.924   4.792 -0.1682 -0.1435 -0.0557
  220POPC   C4A 2949   3.119   8.197   5.016 -0.0667  0.0136 -0.1270
  220POPC   C1B 2950   2.605   7.507   4.456 -0.3139  0.1760  0.0520
  220POPC   C2B 2951   2.807   7.236   4.834 -0.2720  0.0021 -0.3002
  220POPC   C3B 2952   2.942   7.313   5.197 -0.0365 -0.0478  0.0303
  220POPC   C4B 2953   2.763   7.403   5.601  0.0834 -0.0902  0.2893
  221POPC   NC3 2954   4.101   3.117   3.792 -0.1437 -0.0012 -0.1110
  221POPC   PO4 2955   4.360   2.987   4.056  0.0107 -0.0240 -0.2223
  221POPC   GL1 2956   4.255   2.954   4.453 -0.0267  0.0855 -0.0371
  221POPC   GL2 2957   3.985   3.111   4.669  0.0399 -0.2656 -0.4226
  221POPC   C1A 2958   4.188   2.804   4.988 -0.1427 -0.1014 -0.0311
  221POPC   D2A 2959   4.006   2.986   5.425 -0.0122 -0.2538 -0.3007
  221POPC   C3A 2960   4.286   3.271   5.816 -0.1222  0.1308 -0.2297
  221POPC   C4A 2961   4.640   3.544   5.822  0.1427  0.1623 -0.0431
  221POPC   C1B 2962   3.647   3.091   5.047 -0.0973  0.2314  0.0285
  221POPC   C2B 2963   3.504   3.271   5.360 -0.1100 -0.0703  0.0445
  221POPC   C3B 2964   3.345   3.588   5.596  0.3869 -0.2617  0.3107
  221POPC   C4B 2965   3.405   3.905   5.866  0.0125  0.2783 -0.4227
  222POPC   NC3 2966   2.375  10.193   3.651  0.1309 -0.3870 -0.0071
  222POPC   PO4 2967   2.517  10.470   3.819  0.0800  0.0631 -0.0947
  222POPC   GL1 2968   2.354  10.192   4.191 -0.3292 -0.2426  0.3774
  222POPC   GL2 2969   2.383  10.409   4.508 -0.1956  0.4010  0.1669
  222POPC   C1A 2970   2.307   9.901   4.624 -0.2921 -0.3290  0.2244
  222POPC   D2A 2971   2.453   9.705   5.017  0.0100 -0.0314  0.0910
  222POPC   C3A 2972   2.825  10.014   5.242  0.0239  0.2733  0.1555
  222POPC   C4A 2973   2.961  10.458   5.331  0.0746 -0.1045 -0.0189
  222POPC   C1B 2974   2.577  10.288   4.859  0.0289 -0.1954 -0.2695
  222POPC   C2B 2975   2.413  10.333   5.356 -0.0629  0.0235  0.3228
  222POPC   C3B 2976   2.142  10.206   5.625  0.3264 -0.1917 -0.2127
  222POPC   C4B 2977   1.752   9.981   5.716 -0.3147  0.1537 -0.2366
  223POPC   NC3 2978   7.452   8.232   3.280  0.3182 -0.0070  0.1555
  223POPC   PO4 2979   7.747   8.488   3.355  0.0272 -0.3842  0.4572
  223POPC   GL1 2980   7.791   8.580   3.758  0.1258  0.1902 -0.2702
  223POPC   GL2 2981   7.654   8.329   3.996  0.1185  0.0190 -0.1208
  223POPC   C1A 2982   7.919   8.692   4.161 -0.3459  0.2087  0.0131
  223POPC   D2A 2983   8.167   8.812   4.567 -0.2378  0.1821 -0.1130
  223POPC   C3A 2984   8.106   9.115   4.854 -0.2434 -0.1832  0.2080
  223POPC   C4A 2985   8.426   9.385   5.218  0.0053  0.2230 -0.2956
  223POPC   C1B 2986   7.528   8.395   4.367  0.0743 -0.4051 -0.2083
  223POPC   C2B 2987   7.798   8.494   4.687 -0.1109  0.2500  0.1236
  223POPC   C3B 2988   7.914   8.704   5.059  0.2328  0.0160 -0.1268
  223POPC   C4B 2989   7.974   8.670   5.424  0.2382  0.0184  0.0497
  224POPC   NC3 2990   9.485   0.886   3.891 -0.2359 -0.3180 -0.1258
  224POPC   PO4 2991   9.202   1.294   3.955  0.1817  0.6194  0.0009
  224POPC   GL1 2992   9.424   1.192   4.330  0.0370 -0.0472 -0.2337
  224POPC   GL2 2993   9.604   0.866   4.346 -0.0099  0.1280  0.1646
  224POPC   C1A 2994   9.438   1.356   4.779  0.0510 -0.0231  0.0741
  224POPC   D2A 2995   9.517   1.216   5.078  0.0120 -0.0007 -0.1711
  224POPC   C3A 2996   9.589   0.849   5.317 -0.1998  0.0964 -0.0295
  224POPC   C4A 2997   9.488   0.459   5.434  0.2503  0.0216  0.0097
  224POPC   C1B 2998   9.299   0.876   4.629  0.1133 -0.0752 -0.5179
  224POPC   C2B 2999   9.208   0.821   5.060 -0.0452 -0.1633  0.1653
  224POPC   C3B 3000   9.066   0.916   5.480 -0.2258 -0.4345  0.0679
  224POPC   C4B 3001   9.080   0.887   6.016 -0.0267  0.1704 -0.0716
  225POPC   NC3 3002   3.490   1.939   3.627 -0.0467 -0.0954 -0.1949
  225POPC   PO4 3003   3.247   2.211   3.815  0.1153 -0.2149 -0.1478
  225POPC   GL1 3004   3.285   2.250   4.327 -0.1419 -0.0657  0.2958
  225POPC   GL2 3005   3.557   2.239   4.511 -0.1335 -0.0234 -0.1463
  225POPC   C1A 3006   3.174   2.403   4.743 -0.2046  0.1172 -0.0602
  225POPC   D2A 3007   3.286   2.441   5.158 -0.1525  0.0769 -0.3138
  225POPC   C3A 3008   3.380   2.759   5.370  0.0601 -0.0808  0.3526
  225POPC   C4A 3009   3.615   2.990   5.715  0.0340  0.2307  0.1346
  225POPC   C1B 3010   3.741   2.059   4.851 -0.1909  0.1101  0.1523
  225POPC   C2B 3011   3.387   1.971   5.085  0.1767  0.1655 -0.1005
  225POPC   C3B 3012   3.410   1.772   5.591 -0.0978  0.3062 -0.0318
  225POPC   C4B 3013   3.228   1.906   6.040 -0.4044 -0.1982  0.0699
  226POPC   NC3 3014   8.819   3.250   2.758 -0.1840 -0.2560 -0.0281
  226POPC   PO4 3015   8.741   3.711   2.863 -0.0747  0.0559  0.0577
  226POPC   GL1 3016   9.078   3.989   3.055 -0.0404 -0.2071 -0.4797
  226POPC   GL2 3017   8.932   4.120   3.417 -0.0837  0.0910 -0.1199
  226POPC   C1A 3018   9.521   3.983   3.172  0.1174 -0.1843 -0.0517
  226POPC   D2A 3019   9.836   3.750   3.322  0.0304  0.2556 -0.2023
  226POPC   C3A 3020   9.756   3.569   3.690 -0.1262  0.2835 -0.2760
  226POPC   C4A 3021   9.669   3.211   3.922  0.0189  0.0999  0.1628
  226POPC   C1B 3022   8.872   4.056   3.873 -0.0033  0.0499 -0.0249
  226POPC   C2B 3023   8.961   3.704   4.118 -0.1165 -0.1127  0.1754
  226POPC   C3B 3024   9.029   3.256   4.138 -0.0303 -0.1958  0.0430
  226POPC   C4B 3025   9.299   3.005   4.349 -0.1735  0.0901  0.1644
  227POPC   NC3 3026   6.810   5.288   3.949 -0.1102 -0.1415 -0.0787
  227POPC   PO4 3027   6.537   5.581   3.800 -0.0084  0.2031 -0.0870
  227POPC   GL1 3028   6.548   5.640   4.202 -0.1410  0.1207 -0.0460
  227POPC   GL2 3029   6.699   5.437   4.487  0.0675 -0.1306 -0.4086
  227POPC   C1A 3030   6.758   5.888   4.411 -0.1179 -0.2807 -0.1958
  227POPC   D2A 3031   7.062   6.042   4.766  0.0193 -0.0210 -0.2264
  227POPC   C3A 3032   6.910   6.072   5.184 -0.0567 -0.0228  0.3611
  227POPC   C4A 3033   6.661   5.839   5.512 -0.3739 -0.0449  0.2895
  227POPC   C1B 3034   6.723   5.509   4.825 -0.2979  0.1007 -0.1221
  227POPC   C2B 3035   6.540   5.389   5.290 -0.2509  0.0103  0.1102
  227POPC   C3B 3036   6.491   5.120   5.646  0.4137  0.0580  0.2481
  227POPC   C4B 3037   6.456   4.987   6.053 -0.1521 -0.0820  0.4828
  228POPC   NC3 3038   3.629   5.750   3.911  0.0845 -0.2766 -0.1618
  228POPC   PO4 3039   4.006   5.899   3.807  0.2984  0.0361 -0.1630
  228POPC   GL1 3040   4.100   5.876   4.215  0.0795 -0.1600 -0.0755
  228POPC   GL2 3041   4.535   6.069   4.275 -0.0283  0.3512  0.0700
  228POPC   C1A 3042   4.225   5.815   4.644  0.0748  0.0286 -0.3288
  228POPC   D2A 3043   4.579   5.879   4.798  0.2227  0.1471 -0.0966
  228POPC   C3A 3044   4.551   6.079   5.140 -0.2002 -0.2734  0.1534
  228POPC   C4A 3045   4.870   6.270   5.396 -0.1755 -0.0564  0.1692
  228POPC   C1B 3046   4.726   6.270   4.530  0.1612 -0.1664 -0.0191
  228POPC   C2B 3047   5.080   6.356   4.808 -0.0617 -0.0860  0.0693
  228POPC   C3B 3048   5.121   6.660   5.202  0.1602  0.0655  0.2812
  228POPC   C4B 3049   4.851   6.965   5.487  0.0332  0.1344 -0.0255
  229POPC   NC3 3050   1.950   9.000   3.869 -0.0524  0.0748  0.0384
  229POPC   PO4 3051   1.583   8.611   3.817  0.1671 -0.1231  0.1966
  229POPC   GL1 3052   1.781   8.645   4.191 -0.2996 -0.3518  0.0243
  229POPC   GL2 3053   1.884   9.010   4.398  0.0207 -0.1609  0.0239
  229POPC   C1A 3054   2.064   8.495   4.488 -0.0006  0.1967 -0.0131
  229POPC   D2A 3055   2.107   8.469   4.949  0.1986 -0.0534 -0.4966
  229POPC   C3A 3056   2.533   8.314   5.017  0.0316 -0.1386 -0.2567
  229POPC   C4A 3057   3.002   8.667   5.045  0.0980  0.4726 -0.0179
  229POPC   C1B 3058   2.374   8.898   4.445  0.0286  0.0930 -0.1279
  229POPC   C2B 3059   2.763   8.688   4.614  0.0163 -0.2563  0.1343
  229POPC   C3B 3060   3.044   8.341   4.470  0.1728 -0.2191  0.1319
  229POPC   C4B 3061   3.078   7.935   4.318 -0.1991 -0.2246 -0.1973
  230POPC   NC3 3062   0.057   2.812   3.409 -0.0600  0.0422 -0.2053
  230POPC   PO4 3063   0.051   2.798   3.838 -0.0934 -0.0040 -0.1898
  230POPC   GL1 3064  -0.246   2.831   3.963  0.1858  0.1218  0.2758
  230POPC   GL2 3065  -0.274   2.507   4.093 -0.0645  0.1117  0.2172
  230POPC   C1A 3066  -0.523   2.958   4.269  0.1582  0.3041  0.2340
  230POPC   D2A 3067  -0.824   2.939   4.502 -0.0136 -0.1992  0.1190
  230POPC   C3A 3068  -1.064   2.574   4.524 -0.0644  0.4070  0.0026
  230POPC   C4A 3069  -1.482   2.397   4.449 -0.0271 -0.3490  0.1206
  230POPC   C1B 3070  -0.618   2.409   4.393 -0.0074 -0.2102 -0.1118
  230POPC   C2B 3071  -0.703   2.213   4.706 -0.0667 -0.0065  0.2931
  230POPC   C3B 3072  -0.959   2.105   5.029 -0.1190 -0.0738 -0.0616
  230POPC   C4B 3073  -1.070   2.332   5.460  0.3847 -0.0680  0.0459
  231POPC   NC3 3074   7.864   9.521   3.823 -0.1364  0.0432 -0.1007
  231POPC   PO4 3075   7.454   9.633   3.802 -0.0412 -0.1081  0.2240
  231POPC   GL1 3076   7.242   9.477   4.160  0.0612  0.1243 -0.2848
  231POPC   GL2 3077   7.053   9.164   4.192  0.0637  0.5333 -0.0487
  231POPC   C1A 3078   7.078   9.580   4.580  0.1050  0.3322 -0.4086
  231POPC   D2A 3079   6.782   9.692   5.016 -0.2719 -0.3180 -0.0173
  231POPC   C3A 3080   6.659   9.349   5.192  0.1137 -0.1958  0.1959
  231POPC   C4A 3081   6.586   8.875   5.249  0.1083 -0.0837 -0.3172
  231POPC   C1B 3082   7.269   9.173   4.691  0.0930  0.0321 -0.0491
  231POPC   C2B 3083   7.663   9.152   4.959  0.3034  0.2121  0.0797
  231POPC   C3B 3084   7.938   9.178   5.387  0.0641 -0.3230 -0.0066
  231POPC   C4B 3085   8.143   9.008   5.780  0.0883 -0.1215 -0.0520
  232POPC   NC3 3086   5.260   6.060   3.747 -0.1876  0.1051 -0.0954
  232POPC   PO4 3087   5.030   5.709   3.829  0.1368  0.0201  0.3365
  232POPC   GL1 3088   5.117   5.859   4.213  0.0523  0.3388 -0.0362
  232POPC   GL2 3089   5.381   6.092   4.262 -0.0181 -0.0702  0.4037
  232POPC   C1A 3090   5.089   5.923   4.587  0.0479  0.4451 -0.0854
  232POPC   D2A 3091   5.045   5.890   5.101 -0.0696  0.2129 -0.1154
  232POPC   C3A 3092   5.061   5.595   5.252 -0.0345 -0.0432  0.0486
  232POPC   C4A 3093   5.027   5.159   5.204  0.0091 -0.3490 -0.0476
  232POPC   C1B 3094   5.657   5.788   4.480  0.3142  0.1790  0.2350
  232POPC   C2B 3095   5.895   5.768   4.848 -0.0931 -0.2682 -0.1231
  232POPC   C3B 3096   6.283   5.872   5.183 -0.0417 -0.0690 -0.0907
  232POPC   C4B 3097   6.172   5.771   5.612  0.1084  0.0406  0.0738
  233POPC   NC3 3098   2.826   1.030   3.585 -0.2659  0.2329 -0.0878
  233POPC   PO4 3099   2.827   0.872   3.880  0.0652  0.1172 -0.0284
  233POPC   GL1 3100   2.586   0.980   4.310 -0.1195  0.0723 -0.1229
  233POPC   GL2 3101   2.771   1.009   4.575 -0.2628 -0.2016 -0.0393
  233POPC   C1A 3102   2.284   1.086   4.744 -0.0299 -0.1813 -0.1100
  233POPC   D2A 3103   2.155   1.210   5.069 -0.2732 -0.0945 -0.0370
  233POPC   C3A 3104   1.943   1.425   5.414  0.0082  0.2283 -0.1450
  233POPC   C4A 3105   1.812   1.686   5.750  0.1384 -0.0517 -0.0941
  233POPC   C1B 3106   2.788   1.129   5.010 -0.0021  0.1188  0.2850
  233POPC   C2B 3107   2.570   1.466   5.204 -0.2237  0.1123  0.0315
  233POPC   C3B 3108   2.261   1.674   5.072 -0.1597 -0.0899 -0.0792
  233POPC   C4B 3109   2.039   1.948   4.818 -0.1395 -0.2182 -0.0686
  234POPC   NC3 3110   3.383   7.685   3.615 -0.1397  0.0117 -0.3239
  234POPC   PO4 3111   3.684   7.378   3.738 -0.0012  0.1561  0.0548
  234POPC   GL1 3112   3.751   7.288   4.213 -0.3820 -0.0616 -0.0449
  234POPC   GL2 3113   3.843   6.845   4.221  0.0448  0.0824  0.1750
  234POPC   C1A 3114   3.665   7.537   4.560 -0.0085  0.1092  0.1037
  234POPC   D2A 3115   3.789   7.918   4.828  0.1362  0.0045  0.3907
  234POPC   C3A 3116   3.880   8.120   5.237 -0.1277 -0.3099  0.1574
  234POPC   C4A 3117   3.591   8.084   5.531 -0.0280 -0.0836  0.2593
  234POPC   C1B 3118   3.663   6.587   4.547 -0.0900 -0.0356  0.0455
  234POPC   C2B 3119   3.519   6.694   5.066  0.1421  0.0449 -0.2018
  234POPC   C3B 3120   3.471   6.698   5.515 -0.0538 -0.1957 -0.0375
  234POPC   C4B 3121   3.338   6.804   5.821 -0.0999  0.0929 -0.0526
  235POPC   NC3 3122  10.029   8.547   3.707  0.0177  0.0982 -0.0850
  235POPC   PO4 3123   9.751   8.178   3.797 -0.3250  0.0443  0.2448
  235POPC   GL1 3124   9.809   8.449   4.119  0.1427  0.1515  0.0619
  235POPC   GL2 3125   9.472   8.627   4.258  0.2070  0.2054  0.1395
  235POPC   C1A 3126  10.018   8.782   4.340 -0.0706 -0.1375  0.0333
  235POPC   D2A 3127  10.370   9.051   4.345 -0.1097 -0.0863 -0.1228
  235POPC   C3A 3128  10.669   9.172   4.763  0.1911  0.0576 -0.0501
  235POPC   C4A 3129  10.550   9.100   5.231  0.0515 -0.1294 -0.1261
  235POPC   C1B 3130   9.157   8.605   4.518 -0.2531 -0.1450 -0.3288
  235POPC   C2B 3131   9.005   8.626   4.966  0.1698 -0.1959 -0.1521
  235POPC   C3B 3132   8.900   8.562   5.386 -0.1275  0.0871 -0.4939
  235POPC   C4B 3133   8.441   8.624   5.722 -0.2522 -0.0505  0.1541
  236POPC   NC3 3134   5.238   2.074   3.808 -0.3084  0.0188  0.0108
  236POPC   PO4 3135   5.035   1.694   3.925  0.0396  0.2404 -0.2215
  236POPC   GL1 3136   4.729   1.725   4.311  0.2870  0.0638 -0.6135
  236POPC   GL2 3137   4.531   1.393   4.263  0.1188  0.1952  0.4251
  236POPC   C1A 3138   4.621   1.655   4.794 -0.0498  0.0244  0.1064
  236POPC   D2A 3139   4.664   1.936   5.123  0.2195  0.1533 -0.1045
  236POPC   C3A 3140   4.451   2.017   5.560  0.2991  0.2066  0.0051
  236POPC   C4A 3141   4.425   2.367   5.854 -0.0907 -0.1430 -0.2031
  236POPC   C1B 3142   4.250   1.387   4.565  0.3490  0.1390 -0.3173
  236POPC   C2B 3143   4.247   1.439   5.036 -0.2245 -0.1670  0.0413
  236POPC   C3B 3144   4.174   1.289   5.482 -0.1189  0.1712  0.1474
  236POPC   C4B 3145   4.504   1.298   5.794 -0.0827 -0.0681 -0.1495
  237POPC   NC3 3146   0.997  10.343   4.042  0.0212  0.1931  0.4646
  237POPC   PO4 3147   1.440  10.491   3.997  0.0583  0.2051 -0.1242
  237POPC   GL1 3148   1.626  10.398   4.453 -0.1596  0.1414  0.1728
  237POPC   GL2 3149   1.950  10.562   4.489 -0.0190  0.0344 -0.4385
  237POPC   C1A 3150   1.524  10.522   4.869  0.4245  0.0409  0.0559
  237POPC   D2A 3151   1.219  10.313   5.164  0.0095 -0.0355  0.2936
  237POPC   C3A 3152   1.385  10.308   5.601  0.0818 -0.1498  0.1632
  237POPC   C4A 3153   1.388  10.100   6.063  0.1278 -0.1535  0.1532
  237POPC   C1B 3154   2.008  10.610   4.922 -0.3962  0.3688 -0.2145
  237POPC   C2B 3155   1.831  11.015   5.157 -0.0210  0.3479  0.1767
  237POPC   C3B 3156   1.648  11.172   5.567  0.0203 -0.0481  0.0279
  237POPC   C4B 3157   1.695  11.400   5.938 -0.1964  0.0851 -0.1124
  238POPC   NC3 3158   9.297   1.692   3.754 -0.1624  0.1387 -0.2786
  238POPC   PO4 3159   9.473   1.977   3.977 -0.0035  0.3106 -0.0867
  238POPC   GL1 3160   9.469   1.720   4.304  0.0111 -0.1631  0.5057
  238POPC   GL2 3161   9.777   1.848   4.353 -0.2099 -0.0024 -0.0628
  238POPC   C1A 3162   9.400   1.847   4.789 -0.1594 -0.3410 -0.2453
  238POPC   D2A 3163   9.294   1.926   5.221 -0.0424 -0.1816 -0.0635
  238POPC   C3A 3164   9.493   1.564   5.510  0.0227 -0.0495  0.2392
  238POPC   C4A 3165   9.158   1.340   5.771 -0.0147 -0.0496 -0.3107
  238POPC   C1B 3166   9.886   1.540   4.621 -0.2693 -0.1033 -0.0868
  238POPC   C2B 3167   9.887   1.581   5.121  0.0480 -0.1553 -0.0750
  238POPC   C3B 3168   9.894   1.891   5.480  0.0229 -0.0503 -0.1421
  238POPC   C4B 3169   9.678   1.914   5.843  0.0653  0.2003  0.0356
  239POPC   NC3 3170   4.627   6.192   3.208 -0.1619 -0.0741 -0.1667
  239POPC   PO4 3171   4.796   6.127   3.625  0.3129 -0.0760 -0.0234
  239POPC   GL1 3172   4.906   6.299   3.991 -0.2307  0.1276 -0.1089
  239POPC   GL2 3173   4.731   6.645   4.000  0.4527 -0.1034 -0.0907
  239POPC   C1A 3174   5.117   6.534   4.316  0.2838 -0.0695 -0.1484
  239POPC   D2A 3175   5.379   6.960   4.350 -0.2141  0.0662 -0.1552
  239POPC   C3A 3176   5.334   7.421   4.436  0.0685 -0.0218  0.0781
  239POPC   C4A 3177   4.993   7.627   4.502 -0.2372 -0.0989 -0.2524
  239POPC   C1B 3178   4.807   7.020   4.378  0.2643 -0.0512  0.2079
  239POPC   C2B 3179   4.565   7.158   4.814  0.0314 -0.0492 -0.0551
  239POPC   C3B 3180   4.412   7.146   5.167 -0.0377 -0.1097 -0.2989
  239POPC   C4B 3181   4.296   7.127   5.631 -0.0395 -0.0353  0.1860
  240POPC   NC3 3182   7.243   8.193   3.763  0.0822  0.2173  0.0821
  240POPC   PO4 3183   6.916   7.939   3.518  0.2920  0.0370 -0.3432
  240POPC   GL1 3184   6.892   7.866   3.938  0.0899  0.3168  0.2587
  240POPC   GL2 3185   6.579   7.912   3.932 -0.1216  0.1830 -0.1684
  240POPC   C1A 3186   7.104   8.005   4.452  0.0513 -0.1609 -0.2250
  240POPC   D2A 3187   7.371   8.252   4.843 -0.1757  0.1189 -0.0785
  240POPC   C3A 3188   7.428   8.311   5.315  0.2321 -0.1534 -0.3349
  240POPC   C4A 3189   7.750   8.157   5.703  0.1787 -0.0024 -0.0023
  240POPC   C1B 3190   6.653   7.910   4.351 -0.0932 -0.0194 -0.2452
  240POPC   C2B 3191   6.759   7.892   4.901  0.0160  0.1016  0.1835
  240POPC   C3B 3192   6.980   8.051   5.268  0.0014  0.0773  0.1048
  240POPC   C4B 3193   6.922   8.132   5.760  0.0338  0.0157  0.3049
  241POPC   NC3 3194   3.901  10.174   4.007 -0.0541  0.2918 -0.0756
  241POPC   PO4 3195   3.725  10.189   4.345 -0.1312 -0.0101  0.2532
  241POPC   GL1 3196   3.624  10.345   4.670  0.0586 -0.0398 -0.1849
  241POPC   GL2 3197   3.552  10.649   4.678 -0.4527  0.0336 -0.1498
  241POPC   C1A 3198   3.558  10.248   5.109 -0.0077  0.0073  0.0220
  241POPC   D2A 3199   3.427  10.037   5.427 -0.1397  0.0702  0.2136
  241POPC   C3A 3200   3.484   9.637   5.533 -0.0326 -0.0457  0.0753
  241POPC   C4A 3201   3.634   9.248   5.335 -0.1243  0.3530  0.1609
  241POPC   C1B 3202   3.912  10.644   5.035 -0.1416  0.2486  0.1418
  241POPC   C2B 3203   4.128  10.688   5.375  0.2996  0.2240  0.2859
  241POPC   C3B 3204   4.380  10.577   5.751  0.1220 -0.1528  0.0545
  241POPC   C4B 3205   4.871  10.449   5.856  0.2414 -0.0816  0.1639
  242POPC   NC3 3206  10.186  10.621   3.670 -0.1499  0.0939  0.1733
  242POPC   PO4 3207  10.533  10.829   3.615 -0.1520 -0.1834  0.1249
  242POPC   GL1 3208  10.428  10.974   4.002 -0.2733 -0.3786  0.1527
  242POPC   GL2 3209  10.648  11.145   4.175 -0.3272 -0.2905  0.1570
  242POPC   C1A 3210  10.198  10.955   4.360  0.2067 -0.0006 -0.2591
  242POPC   D2A 3211  10.416  10.806   4.711 -0.1421  0.0470 -0.1249
  242POPC   C3A 3212  10.595  11.102   4.992  0.0412 -0.0867 -0.0231
  242POPC   C4A 3213  10.514  11.545   5.066  0.1500  0.0519  0.0192
  242POPC   C1B 3214  10.864  10.740   4.394 -0.0288  0.0837  0.2576
  242POPC   C2B 3215  10.988  10.633   4.735 -0.3178  0.0391  0.0709
  242POPC   C3B 3216  10.918  10.339   5.017  0.0843 -0.0308  0.2575
  242POPC   C4B 3217  10.820   9.939   5.093 -0.3037  0.0207 -0.1026
  243POPC   NC3 3218   6.180   7.420   3.169 -0.4180 -0.0978 -0.0086
  243POPC   PO4 3219   5.975   7.749   3.419  0.0280 -0.4057  0.2060
  243POPC   GL1 3220   6.025   7.711   3.927 -0.1810 -0.2305 -0.0613
  243POPC   GL2 3221   6.274   7.479   4.082 -0.1161 -0.0381 -0.1694
  243POPC   C1A 3222   5.825   7.683   4.317 -0.1774 -0.0872  0.1419
  243POPC   D2A 3223   5.798   7.425   4.710  0.2017  0.2700  0.1738
  243POPC   C3A 3224   5.512   7.186   4.849  0.1234  0.1957  0.2963
  243POPC   C4A 3225   5.065   7.007   4.822  0.1049  0.0319 -0.2610
  243POPC   C1B 3226   6.308   7.542   4.465  0.0144 -0.1578  0.1217
  243POPC   C2B 3227   6.265   7.359   4.821 -0.1215  0.0130  0.1264
  243POPC   C3B 3228   6.447   7.586   5.136 -0.2266  0.1615 -0.0373
  243POPC   C4B 3229   6.628   7.751   5.576  0.0015 -0.0638 -0.3751
  244POPC   NC3 3230   4.059   7.023   3.763  0.1890  0.0835  0.0901
  244POPC   PO4 3231   4.023   6.649   3.671  0.0772 -0.1840 -0.1433
  244POPC   GL1 3232   3.903   6.305   4.016 -0.4916 -0.0898 -0.1123
  244POPC   GL2 3233   3.652   6.245   4.190  0.0722  0.1657  0.1268
  244POPC   C1A 3234   4.155   6.346   4.407  0.0530 -0.0550 -0.0129
  244POPC   D2A 3235   4.183   6.375   4.844 -0.0858 -0.0946  0.1350
  244POPC   C3A 3236   3.992   6.427   5.249 -0.0873 -0.0350 -0.0851
  244POPC   C4A 3237   4.041   6.628   5.626  0.1060  0.0075 -0.0929
  244POPC   C1B 3238   3.769   6.043   4.548 -0.0272 -0.1348  0.1428
  244POPC   C2B 3239   3.590   6.003   4.953 -0.2494 -0.0406  0.1776
  244POPC   C3B 3240   3.682   6.000   5.411  0.1898  0.3227  0.2993
  244POPC   C4B 3241   3.819   5.623   5.548 -0.1971 -0.0021 -0.1886
  245POPC   NC3 3242   8.695   4.371   3.098  0.1854 -0.4722 -0.1810
  245POPC   PO4 3243   9.116   4.460   2.887 -0.0049 -0.1852  0.2399
  245POPC   GL1 3244   9.251   4.534   3.304  0.5079 -0.0729 -0.0932
  245POPC   GL2 3245   9.254   4.845   3.404 -0.0089 -0.0976 -0.0933
  245POPC   C1A 3246   9.406   4.336   3.621 -0.3716 -0.1502  0.3094
  245POPC   D2A 3247   9.776   4.151   3.702 -0.0086 -0.3023 -0.1942
  245POPC   C3A 3248  10.191   4.240   3.641  0.2006 -0.1675  0.0128
  245POPC   C4A 3249  10.536   4.406   3.472 -0.0390  0.2249  0.3296
  245POPC   C1B 3250   9.256   4.968   3.828 -0.0149  0.0073  0.1343
  245POPC   C2B 3251   9.511   5.102   4.266 -0.1325  0.1083 -0.0199
  245POPC   C3B 3252   9.977   5.169   4.278  0.1813 -0.2731  0.0200
  245POPC   C4B 3253  10.267   5.415   4.564 -0.2847 -0.3077 -0.4498
  246POPC   NC3 3254   5.365   2.963   4.275  0.2598  0.0475  0.0024
  246POPC   PO4 3255   5.593   2.946   4.010 -0.3867 -0.2004  0.1240
  246POPC   GL1 3256   5.867   2.989   4.407  0.2584  0.1600  0.0230
  246POPC   GL2 3257   6.234   2.896   4.456 -0.1831 -0.0034  0.0793
  246POPC   C1A 3258   5.738   2.928   4.857 -0.0034 -0.0715 -0.1321
  246POPC   D2A 3259   5.730   2.872   5.297  0.0272  0.1658 -0.0415
  246POPC   C3A 3260   6.026   2.742   5.607 -0.1273 -0.0424  0.0116
  246POPC   C4A 3261   6.364   2.925   5.792 -0.0135 -0.1201 -0.5809
  246POPC   C1B 3262   6.191   3.097   4.846  0.0723  0.2173 -0.2394
  246POPC   C2B 3263   6.295   3.396   5.125  0.0625  0.4113  0.2175
  246POPC   C3B 3264   6.567   3.299   5.522 -0.0448 -0.0749 -0.0524
  246POPC   C4B 3265   6.986   3.210   5.651 -0.3056  0.2037 -0.0493
  247POPC   NC3 3266   6.373   3.741   3.938 -0.1251 -0.1670  0.1826
  247POPC   PO4 3267   6.270   4.176   3.915 -0.0319  0.3028 -0.1412
  247POPC   GL1 3268   6.412   4.628   4.208  0.0327 -0.2449 -0.0669
  247POPC   GL2 3269   6.747   4.808   4.291 -0.2775  0.0207  0.1808
  247POPC   C1A 3270   6.425   4.533   4.614 -0.0192  0.1383  0.0367
  247POPC   D2A 3271   6.779   4.445   4.901  0.0850  0.3835 -0.0307
  247POPC   C3A 3272   7.091   4.716   4.979 -0.4190 -0.2157  0.2504
  247POPC   C4A 3273   7.123   5.086   4.867  0.0685 -0.0932  0.0592
  247POPC   C1B 3274   6.734   4.977   4.595  0.1474 -0.4159 -0.3365
  247POPC   C2B 3275   6.590   4.926   5.011  0.1412 -0.1243 -0.2598
  247POPC   C3B 3276   6.642   4.728   5.347  0.0137 -0.0971 -0.0467
  247POPC   C4B 3277   6.727   4.689   5.712 -0.2535  0.0750  0.2671
  248POPC   NC3 3278   8.999   5.875   3.269 -0.1281 -0.1969 -0.2142
  248POPC   PO4 3279   9.539   6.006   3.441  0.0540  0.0152 -0.1919
  248POPC   GL1 3280   9.234   5.946   3.746 -0.2157 -0.0020 -0.0277
  248POPC   GL2 3281   8.986   6.042   3.725 -0.0645  0.2461  0.3866
  248POPC   C1A 3282   9.134   6.057   4.240  0.1879  0.0987  0.0987
  248POPC   D2A 3283   9.178   6.084   4.596  0.0357 -0.1157  0.2926
  248POPC   C3A 3284   9.205   6.388   4.876 -0.3308  0.1853  0.0860
  248POPC   C4A 3285   9.410   6.725   4.981  0.2095  0.2090  0.0544
  248POPC   C1B 3286   8.589   6.181   3.939  0.1042  0.1283 -0.1378
  248POPC   C2B 3287   8.638   6.189   4.385  0.1754  0.2144 -0.1505
  248POPC   C3B 3288   8.590   6.397   4.734  0.0016  0.1770 -0.1016
  248POPC   C4B 3289   8.404   6.762   4.975 -0.2516 -0.0528 -0.2885
  249POPC   NC3 3290   1.677   5.123   2.915  0.0513  0.0477  0.2196
  249POPC   PO4 3291   1.494   4.918   3.253 -0.2504  0.3056 -0.0873
  249POPC   GL1 3292   1.465   4.770   3.714 -0.1692  0.0808 -0.0947
  249POPC   GL2 3293   1.662   4.885   3.935  0.3186  0.1413 -0.0182
  249POPC   C1A 3294   1.431   4.519   4.129  0.1794 -0.1234 -0.0486
  249POPC   D2A 3295   1.300   4.449   4.464 -0.2549 -0.0961  0.1120
  249POPC   C3A 3296   1.530   4.450   4.819  0.0316 -0.1346 -0.0648
  249POPC   C4A 3297   1.705   4.579   5.196 -0.0331  0.0265  0.2193
  249POPC   C1B 3298   1.516   4.922   4.391  0.0233 -0.2016 -0.0205
  249POPC   C2B 3299   1.902   4.809   4.710  0.3423  0.0739 -0.3212
  249POPC   C3B 3300   2.284   4.556   4.687 -0.1851 -0.1002  0.1682
  249POPC   C4B 3301   2.460   4.125   4.518 -0.0832 -0.0218 -0.4212
  250POPC   NC3 3302   8.775  10.315   3.630 -0.1059 -0.1580 -0.0461
  250POPC   PO4 3303   9.211  10.188   3.836  0.2304  0.0856  0.2674
  250POPC   GL1 3304   9.308  10.136   4.198 -0.2841  0.0666 -0.1937
  250POPC   GL2 3305   9.573  10.084   4.538  0.1229 -0.1218  0.0601
  250POPC   C1A 3306   9.081  10.213   4.555  0.2320 -0.2528 -0.0705
  250POPC   D2A 3307   9.097  10.446   4.969 -0.0848  0.1472 -0.0917
  250POPC   C3A 3308   9.115  10.264   5.319  0.0838 -0.0169  0.0048
  250POPC   C4A 3309   8.846  10.313   5.713  0.1496  0.2790  0.0703
  250POPC   C1B 3310   9.421   9.983   4.949  0.1586 -0.1483 -0.0568
  250POPC   C2B 3311   9.528  10.043   5.421  0.2237  0.1117  0.1260
  250POPC   C3B 3312   9.409  10.402   5.719  0.2773  0.0020 -0.0003
  250POPC   C4B 3313   9.227  10.699   5.615 -0.0339 -0.2348  0.2550
  251POPC   NC3 3314   5.102   7.738   3.693 -0.2738 -0.3802  0.0206
  251POPC   PO4 3315   4.706   8.096   3.683 -0.2060  0.1611  0.0762
  251POPC   GL1 3316   4.886   8.227   3.988  0.3214 -0.1525 -0.0849
  251POPC   GL2 3317   4.731   8.544   4.053  0.0569  0.0663  0.2039
  251POPC   C1A 3318   5.038   8.160   4.420 -0.1821 -0.0303 -0.2401
  251POPC   D2A 3319   5.069   8.109   4.788 -0.1540  0.2314 -0.0593
  251POPC   C3A 3320   5.305   7.811   4.899 -0.1056  0.1480  0.2592
  251POPC   C4A 3321   5.504   7.814   5.243 -0.1027  0.0833  0.3883
  251POPC   C1B 3322   4.954   8.668   4.372 -0.0166  0.3050 -0.0253
  251POPC   C2B 3323   4.909   8.636   4.780 -0.1718  0.0794  0.1890
  251POPC   C3B 3324   4.591   8.351   4.941 -0.0489 -0.0153 -0.3886
  251POPC   C4B 3325   4.246   8.010   4.918  0.3115 -0.0442 -0.1986
  252POPC   NC3 3326   6.978   9.093   3.699  0.2356  0.1600  0.0181
  252POPC   PO4 3327   6.657   8.848   3.896 -0.1361 -0.2153  0.1231
  252POPC   GL1 3328   6.575   8.899   4.327  0.2004 -0.1525 -0.0225
  252POPC   GL2 3329   6.309   8.757   4.381 -0.0327  0.1474 -0.0177
  252POPC   C1A 3330   6.694   8.943   4.703 -0.1202 -0.2152 -0.0156
  252POPC   D2A 3331   6.976   9.012   5.040  0.1309  0.1232  0.2680
  252POPC   C3A 3332   7.220   9.271   5.232  0.0527 -0.2867  0.1657
  252POPC   C4A 3333   7.555   9.505   5.383 -0.0761  0.0348  0.0926
  252POPC   C1B 3334   6.403   8.611   4.878  0.1127  0.3422  0.0488
  252POPC   C2B 3335   6.469   8.281   5.040  0.3152 -0.2824  0.3210
  252POPC   C3B 3336   6.269   8.027   5.362  0.0822 -0.3589  0.1871
  252POPC   C4B 3337   6.061   8.058   5.776 -0.1185  0.0065  0.1342
  253POPC   NC3 3338   2.824   0.127   3.735 -0.1714  0.1072 -0.0828
  253POPC   PO4 3339   3.068   0.247   4.034 -0.0930 -0.0079  0.1862
  253POPC   GL1 3340   3.117   0.179   4.506 -0.0560 -0.1002 -0.2115
  253POPC   GL2 3341   3.468   0.393   4.637  0.1949 -0.4031 -0.0849
  253POPC   C1A 3342   3.031  -0.169   4.812 -0.2866  0.0126 -0.2566
  253POPC   D2A 3343   3.194  -0.680   4.910  0.1381  0.0088  0.1222
  253POPC   C3A 3344   3.622  -0.917   4.938  0.2224 -0.0916  0.0121
  253POPC   C4A 3345   3.881  -1.039   5.209  0.1528 -0.1169  0.0947
  253POPC   C1B 3346   3.389   0.166   5.138  0.0282  0.1026 -0.1723
  253POPC   C2B 3347   3.573  -0.106   5.453  0.0619 -0.1400 -0.0521
  253POPC   C3B 3348   3.885  -0.106   5.815 -0.0185 -0.0864  0.1336
  253POPC   C4B 3349   4.052  -0.220   6.265  0.0465  0.0226  0.2273
  254POPC   NC3 3350   2.800   8.259   3.578 -0.6043 -0.0231  0.1173
  254POPC   PO4 3351   2.430   8.171   3.685  0.4477 -0.0685 -0.0599
  254POPC   GL1 3352   2.599   8.038   4.018 -0.1323 -0.2703 -0.1832
  254POPC   GL2 3353   2.342   7.947   4.165  0.0715  0.0485 -0.0980
  254POPC   C1A 3354   2.580   8.267   4.474 -0.1013  0.4672 -0.0924
  254POPC   D2A 3355   2.760   7.926   4.747 -0.0051 -0.0530  0.0968
  254POPC   C3A 3356   2.652   7.903   5.239  0.1655 -0.0116  0.3216
  254POPC   C4A 3357   2.164   8.010   5.301  0.1365  0.0052  0.0009
  254POPC   C1B 3358   2.073   7.630   4.386  0.2931 -0.1715 -0.3413
  254POPC   C2B 3359   1.706   7.632   4.726 -0.2789  0.0636  0.2796
  254POPC   C3B 3360   1.337   7.508   5.034 -0.0622 -0.0365  0.3378
  254POPC   C4B 3361   1.114   7.267   5.263 -0.0025  0.1155  0.0108
  255POPC   NC3 3362   5.621  10.585   3.820  0.0167  0.0987 -0.1865
  255POPC   PO4 3363   5.297  10.800   4.094  0.0625 -0.0392  0.2438
  255POPC   GL1 3364   5.437  10.718   4.457  0.0611  0.1187  0.0300
  255POPC   GL2 3365   5.569  10.469   4.492 -0.1047  0.1214 -0.4145
  255POPC   C1A 3366   5.312  10.587   4.902  0.0344 -0.3144  0.2953
  255POPC   D2A 3367   5.304  10.820   5.241  0.3318  0.0027  0.3792
  255POPC   C3A 3368   5.196  11.157   5.143  0.4822  0.0242  0.0255
  255POPC   C4A 3369   4.857  11.509   5.137 -0.0847 -0.0153 -0.0720
  255POPC   C1B 3370   6.020  10.400   4.628  0.0196 -0.0568  0.0331
  255POPC   C2B 3371   6.270  10.363   4.861  0.0119 -0.1166 -0.0632
  255POPC   C3B 3372   6.528  10.116   5.175  0.1985 -0.0428 -0.0602
  255POPC   C4B 3373   6.455   9.762   5.466  0.1815 -0.0399 -0.1136
  256POPC   NC3 3374   0.748   5.389   3.046  0.0032  0.0438  0.1834
  256POPC   PO4 3375   0.471   5.279   3.417 -0.1782 -0.1222  0.0852
  256POPC   GL1 3376   0.470   5.283   3.937  0.1555  0.0383 -0.1548
  256POPC   GL2 3377   0.200   5.466   3.895 -0.0488  0.0584  0.0880
  256POPC   C1A 3378   0.617   5.195   4.277  0.4440  0.2479  0.0247
  256POPC   D2A 3379   0.533   5.368   4.758 -0.1227 -0.0948 -0.0327
  256POPC   C3A 3380   0.745   5.612   5.054  0.1036 -0.1839  0.0419
  256POPC   C4A 3381   0.929   5.500   5.349  0.2148  0.0024  0.3131
  256POPC   C1B 3382   0.041   5.351   4.248  0.0500 -0.0821 -0.1178
  256POPC   C2B 3383   0.044   5.226   4.643  0.1708 -0.0724 -0.0622
  256POPC   C3B 3384  -0.032   5.069   5.109 -0.1596  0.1379  0.0292
  256POPC   C4B 3385  -0.127   4.966   5.524  0.0959  0.0699 -0.0303
  257POPC   NC3 3386   3.329   8.726   3.781  0.2550  0.0784  0.3045
  257POPC   PO4 3387   2.948   8.839   3.658  0.0650  0.0550 -0.0034
  257POPC   GL1 3388   3.059   8.895   4.206 -0.3991 -0.1908  0.3320
  257POPC   GL2 3389   3.399   8.775   4.327  0.4041  0.1472  0.0626
  257POPC   C1A 3390   3.149   9.032   4.706  0.0929 -0.2061 -0.2925
  257POPC   D2A 3391   3.177   9.115   5.173 -0.2691  0.1748 -0.2923
  257POPC   C3A 3392   2.860   8.942   5.472 -0.3727 -0.0725  0.1536
  257POPC   C4A 3393   2.561   9.029   5.632 -0.0057 -0.1674 -0.1615
  257POPC   C1B 3394   3.510   8.591   4.658 -0.0116 -0.0237 -0.0427
  257POPC   C2B 3395   3.476   8.556   5.070 -0.0641  0.2997  0.4613
  257POPC   C3B 3396   3.288   8.654   5.432 -0.0199 -0.0059  0.3229
  257POPC   C4B 3397   3.371   8.529   5.805 -0.0298  0.1962 -0.0282
  258POPC   NC3 3398   3.127   6.704   3.556  0.0456 -0.0860  0.0938
  258POPC   PO4 3399   2.759   6.578   3.720 -0.1251 -0.3195  0.0009
  258POPC   GL1 3400   2.802   6.540   4.191 -0.0198  0.1443  0.0151
  258POPC   GL2 3401   2.685   6.289   4.529  0.0522  0.3276  0.3098
  258POPC   C1A 3402   3.166   6.251   4.470  0.1013  0.0222 -0.2657
  258POPC   D2A 3403   3.128   6.181   4.964 -0.0056 -0.1827  0.0826
  258POPC   C3A 3404   3.210   6.293   5.442  0.3529  0.1093  0.1042
  258POPC   C4A 3405   3.289   5.978   5.773  0.1298  0.2099 -0.2160
  258POPC   C1B 3406   2.348   6.181   4.770 -0.1529 -0.0266 -0.0425
  258POPC   C2B 3407   1.957   6.076   4.923  0.1937  0.2047  0.0810
  258POPC   C3B 3408   1.824   5.678   4.980  0.1063 -0.0441  0.2506
  258POPC   C4B 3409   2.016   5.541   5.355 -0.0332 -0.2831  0.1019
  259POPC   NC3 3410   1.278   2.321   3.256  0.0512 -0.0413  0.3497
  259POPC   PO4 3411   1.494   2.787   3.332  0.0415  0.0094  0.3095
  259POPC   GL1 3412   1.522   2.603   3.750  0.0951 -0.1036  0.1332
  259POPC   GL2 3413   1.768   2.689   4.081 -0.1087 -0.0221  0.4525
  259POPC   C1A 3414   1.307   2.536   4.222 -0.0190  0.2868  0.1918
  259POPC   D2A 3415   1.331   2.481   4.667  0.0680  0.1156  0.2905
  259POPC   C3A 3416   1.476   2.841   4.924 -0.0580 -0.3260  0.1475
  259POPC   C4A 3417   1.617   3.123   5.330  0.0079 -0.3102 -0.2141
  259POPC   C1B 3418   1.989   2.794   4.458  0.1074  0.0103 -0.0296
  259POPC   C2B 3419   2.221   2.515   4.797 -0.0746  0.0759 -0.0099
  259POPC   C3B 3420   2.228   2.253   5.195  0.2622 -0.0853 -0.2561
  259POPC   C4B 3421   2.494   1.999   5.456  0.1923 -0.1128 -0.3499
  260POPC   NC3 3422   5.638   6.975   3.663 -0.3853 -0.0347  0.0286
  260POPC   PO4 3423   6.048   6.729   3.632 -0.2992 -0.0707 -0.1111
  260POPC   GL1 3424   5.933   6.636   4.045 -0.2921 -0.0459 -0.0980
  260POPC   GL2 3425   5.665   6.596   4.259 -0.1679 -0.5760  0.0749
  260POPC   C1A 3426   6.160   6.549   4.386  0.0761  0.4083 -0.0123
  260POPC   D2A 3427   6.243   6.438   4.744  0.0522  0.0530 -0.3883
  260POPC   C3A 3428   5.974   6.230   5.030  0.1092 -0.3177 -0.1222
  260POPC   C4A 3429   5.840   6.104   5.353 -0.0860  0.2224 -0.1269
  260POPC   C1B 3430   5.533   6.682   4.739  0.0786 -0.1198  0.0514
  260POPC   C2B 3431   5.593   6.729   5.123 -0.2004 -0.2637 -0.0104
  260POPC   C3B 3432   5.467   7.003   5.409 -0.1071  0.0440  0.0414
  260POPC   C4B 3433   5.378   7.410   5.628 -0.2013  0.2692  0.2019
  261POPC   NC3 3434   4.167   9.528   3.601 -0.3051  0.1256 -0.1482
  261POPC   PO4 3435   4.250   9.918   3.776  0.1904  0.0819  0.2715
  261POPC   GL1 3436   4.256   9.929   4.312 -0.3903  0.4152  0.2715
  261POPC   GL2 3437   4.157  10.173   4.528 -0.0341 -0.2501 -0.0699
  261POPC   C1A 3438   4.031   9.705   4.627 -0.1696  0.3422  0.2396
  261POPC   D2A 3439   3.647   9.537   4.397  0.1918  0.1133 -0.0166
  261POPC   C3A 3440   3.299   9.556   4.642  0.0791  0.0664  0.1670
  261POPC   C4A 3441   2.842   9.735   4.717 -0.1309 -0.2298  0.0793
  261POPC   C1B 3442   4.045  10.135   5.009 -0.1108  0.0589 -0.0175
  261POPC   C2B 3443   3.986  10.140   5.435  0.1948 -0.2689  0.2875
  261POPC   C3B 3444   4.135  10.176   5.785  0.3858 -0.1269 -0.0925
  261POPC   C4B 3445   3.890  10.012   6.076  0.1351 -0.2113 -0.1353
  262POPC   NC3 3446   6.227   0.899   3.780 -0.5725  0.0813  0.0016
  262POPC   PO4 3447   5.815   0.877   3.955  0.2564  0.0930 -0.1868
  262POPC   GL1 3448   5.792   0.723   4.397  0.0459 -0.1840 -0.1551
  262POPC   GL2 3449   5.571   0.773   4.614  0.1585  0.0728  0.1668
  262POPC   C1A 3450   6.067   0.760   4.926 -0.1331 -0.3918  0.1114
  262POPC   D2A 3451   5.951   0.963   5.312  0.1713  0.0299 -0.3022
  262POPC   C3A 3452   5.773   1.238   5.077  0.2494  0.0202 -0.0519
  262POPC   C4A 3453   5.486   1.260   4.734  0.0080 -0.0459  0.0810
  262POPC   C1B 3454   5.535   0.863   5.039  0.0922  0.1331  0.1325
  262POPC   C2B 3455   5.441   0.804   5.433  0.2102 -0.5062 -0.1796
  262POPC   C3B 3456   5.392   0.363   5.634  0.0581 -0.0904 -0.0878
  262POPC   C4B 3457   5.372   0.032   5.814 -0.1002  0.0749 -0.0871
  263POPC   NC3 3458   6.408   0.486   3.618 -0.0122 -0.2077  0.1443
  263POPC   PO4 3459   6.210   0.503   4.049 -0.2833 -0.2404  0.0809
  263POPC   GL1 3460   6.222   0.507   4.530 -0.2438 -0.0117  0.1761
  263POPC   GL2 3461   6.551   0.564   4.614  0.1317 -0.0116  0.1326
  263POPC   C1A 3462   6.325   0.273   4.951  0.1818  0.1477  0.1459
  263POPC   D2A 3463   6.349  -0.070   5.238 -0.4023  0.0128  0.2628
  263POPC   C3A 3464   6.097  -0.391   5.389 -0.2020  0.1754 -0.1323
  263POPC   C4A 3465   5.990  -0.779   5.526  0.0779 -0.2822 -0.0160
  263POPC   C1B 3466   6.897   0.393   4.811 -0.0656  0.3464 -0.1464
  263POPC   C2B 3467   7.236   0.139   5.000  0.1926  0.4239  0.3480
  263POPC   C3B 3468   7.757   0.152   5.086  0.2247  0.2311 -0.0622
  263POPC   C4B 3469   8.134   0.274   4.990  0.1026  0.3468  0.4355
  264POPC   NC3 3470   9.670   8.814   2.928 -0.0434 -0.2436 -0.1757
  264POPC   PO4 3471   9.305   8.862   3.307 -0.1697 -0.4285 -0.2476
  264POPC   GL1 3472   9.009   8.666   3.544  0.1712  0.1385  0.0434
  264POPC   GL2 3473   8.713   8.473   3.564 -0.2918  0.0022  0.0759
  264POPC   C1A 3474   8.848   8.868   3.885 -0.2023 -0.2712 -0.2083
  264POPC   D2A 3475   8.978   9.020   4.339  0.0251  0.0875  0.0568
  264POPC   C3A 3476   8.659   9.303   4.672 -0.0300 -0.2611 -0.2542
  264POPC   C4A 3477   8.907   9.274   5.058 -0.1801 -0.2552  0.2125
  264POPC   C1B 3478   8.584   8.354   3.875 -0.1209 -0.2962 -0.4084
  264POPC   C2B 3479   8.353   8.386   4.327 -0.0341  0.0838  0.3553
  264POPC   C3B 3480   8.300   8.277   4.688  0.2023  0.1428  0.0515
  264POPC   C4B 3481   8.444   8.446   5.129  0.2600  0.0093  0.1487
  265POPC   NC3 3482   9.747   9.830   3.931 -0.3047  0.0138 -0.4204
  265POPC   PO4 3483  10.235  10.000   4.057 -0.0469  0.0075  0.1740
  265POPC   GL1 3484   9.999  10.028   4.357  0.2140 -0.0798 -0.2244
  265POPC   GL2 3485  10.138   9.970   4.650  0.1844 -0.1001 -0.2677
  265POPC   C1A 3486   9.727   9.680   4.685  0.0924  0.3071 -0.0998
  265POPC   D2A 3487   9.643   9.620   5.133 -0.0245 -0.0609 -0.1250
  265POPC   C3A 3488   9.225   9.611   5.227 -0.3440  0.4983 -0.2964
  265POPC   C4A 3489   8.823   9.816   5.378 -0.1532 -0.0538  0.1065
  265POPC   C1B 3490   9.946  10.030   5.047  0.0563 -0.1525  0.0409
  265POPC   C2B 3491  10.006   9.888   5.503  0.0975 -0.0128  0.0527
  265POPC   C3B 3492   9.980  10.199   5.760  0.3579 -0.0146  0.2681
  265POPC   C4B 3493   9.892  10.378   5.967 -0.0317  0.0346  0.0583
  266POPC   NC3 3494   0.489   1.537   3.787 -0.2357 -0.3915 -0.1297
  266POPC   PO4 3495   0.899   1.764   3.770 -0.1266  0.3023 -0.1227
  266POPC   GL1 3496   0.789   1.847   4.214 -0.0049 -0.3342 -0.1216
  266POPC   GL2 3497   1.090   2.088   4.266 -0.2795 -0.0738 -0.2145
  266POPC   C1A 3498   0.601   1.843   4.713 -0.1069  0.1857 -0.1043
  266POPC   D2A 3499   0.450   1.793   5.060 -0.0663 -0.3830 -0.3643
  266POPC   C3A 3500   0.269   2.145   5.314  0.3824  0.0658  0.0361
  266POPC   C4A 3501   0.292   2.299   5.725 -0.0354  0.1175  0.2440
  266POPC   C1B 3502   0.931   2.170   4.630 -0.1974  0.2851  0.1750
  266POPC   C2B 3503   0.789   2.153   5.116 -0.1419  0.0474 -0.4135
  266POPC   C3B 3504   0.758   2.025   5.560 -0.3596  0.1607 -0.1999
  266POPC   C4B 3505   0.584   1.888   5.952 -0.0870 -0.2468 -0.0737
  267POPC   NC3 3506   0.721   4.332   2.930 -0.1745  0.2408 -0.0963
  267POPC   PO4 3507   1.067   4.118   3.226 -0.1536 -0.1228 -0.2448
  267POPC   GL1 3508   0.931   3.907   3.635 -0.0833 -0.1780  0.0568
  267POPC   GL2 3509   1.109   4.158   3.781  0.1368  0.1221 -0.1444
  267POPC   C1A 3510   1.074   3.708   4.049  0.1025 -0.2312  0.2395
  267POPC   D2A 3511   1.006   3.656   4.483  0.2985 -0.1632 -0.0095
  267POPC   C3A 3512   0.980   3.863   4.977 -0.1334  0.3543  0.0595
  267POPC   C4A 3513   1.131   4.192   5.189 -0.2520 -0.1343 -0.0637
  267POPC   C1B 3514   0.992   4.240   4.119 -0.2717  0.1569  0.0761
  267POPC   C2B 3515   0.889   4.273   4.561  0.2468  0.2978 -0.1959
  267POPC   C3B 3516   0.975   4.685   4.724 -0.0439  0.1236  0.2165
  267POPC   C4B 3517   1.437   4.960   4.867  0.1584  0.2757  0.1590
  268POPC   NC3 3518   1.075   4.680   3.473 -0.1654  0.3170 -0.2551
  268POPC   PO4 3519   1.042   5.198   3.453 -0.1738 -0.5100  0.3396
  268POPC   GL1 3520   1.039   5.218   3.905 -0.3056 -0.1277  0.0800
  268POPC   GL2 3521   1.025   5.473   4.150 -0.1592 -0.0548 -0.1371
  268POPC   C1A 3522   1.051   4.876   4.189  0.1926  0.0782  0.1532
  268POPC   D2A 3523   0.643   4.677   4.325 -0.0871  0.0863 -0.0776
  268POPC   C3A 3524   0.556   4.440   4.009 -0.0259  0.0024 -0.3208
  268POPC   C4A 3525   0.360   4.027   3.818  0.3537 -0.2198 -0.3575
  268POPC   C1B 3526   1.038   5.219   4.528  0.1414 -0.0970 -0.0860
  268POPC   C2B 3527   0.953   5.143   5.006  0.3036  0.5630 -0.0937
  268POPC   C3B 3528   0.833   4.866   5.408 -0.2269  0.0313 -0.2997
  268POPC   C4B 3529   0.912   4.890   5.777 -0.2314 -0.0726 -0.1984
  269POPC   NC3 3530   9.522   6.551   3.436 -0.0007 -0.0007  0.0200
  269POPC   PO4 3531   9.788   6.363   3.819 -0.2249  0.3343  0.0305
  269POPC   GL1 3532  10.001   6.480   4.262 -0.0203 -0.1628  0.1857
  269POPC   GL2 3533  10.001   6.806   4.168  0.0137 -0.0323 -0.1946
  269POPC   C1A 3534   9.834   6.287   4.596 -0.0627  0.2009 -0.0375
  269POPC   D2A 3535  10.080   6.227   4.923 -0.3208  0.1080 -0.0625
  269POPC   C3A 3536  10.086   6.332   5.382 -0.0432  0.0572  0.4042
  269POPC   C4A 3537   9.991   6.181   5.707  0.3080 -0.1414  0.1539
  269POPC   C1B 3538   9.830   6.817   4.610 -0.2706 -0.1350  0.1053
  269POPC   C2B 3539   9.961   7.170   4.815  0.1164  0.0071  0.0265
  269POPC   C3B 3540   9.849   7.351   5.184 -0.2566  0.4006  0.1370
  269POPC   C4B 3541  10.006   7.498   5.469  0.0153 -0.0227  0.2533
  270POPC   NC3 3542   6.658   2.893   4.032 -0.1536 -0.2966 -0.0048
  270POPC   PO4 3543   6.666   3.312   3.991  0.0794 -0.4882 -0.2008
  270POPC   GL1 3544   6.491   3.436   4.353 -0.3177 -0.0061 -0.2481
  270POPC   GL2 3545   6.710   3.234   4.601 -0.1516  0.0748 -0.0085
  270POPC   C1A 3546   6.238   3.663   4.606 -0.1032  0.0230 -0.1782
  270POPC   D2A 3547   5.893   3.457   4.861 -0.0980 -0.3306 -0.5343
  270POPC   C3A 3548   5.789   3.451   5.337 -0.2445  0.0276 -0.0600
  270POPC   C4A 3549   6.107   3.446   5.711  0.1292 -0.2056  0.0306
  270POPC   C1B 3550   6.702   3.539   4.878  0.2490 -0.0664 -0.2235
  270POPC   C2B 3551   6.697   3.730   5.237 -0.0932  0.0942 -0.2853
  270POPC   C3B 3552   6.541   3.749   5.734 -0.3373  0.0544  0.0766
  270POPC   C4B 3553   6.215   3.709   6.109 -0.1113 -0.0834  0.1922
  271POPC   NC3 3554   4.726   4.347   4.190  0.0223 -0.0226  0.0148
  271POPC   PO4 3555   4.394   4.606   4.237  0.0259  0.2692  0.1905
  271POPC   GL1 3556   4.616   4.496   4.649  0.0369  0.4714 -0.2509
  271POPC   GL2 3557   4.877   4.127   4.723 -0.0553 -0.0749 -0.1410
  271POPC   C1A 3558   4.544   4.328   5.055  0.3099  0.1065 -0.2514
  271POPC   D2A 3559   4.618   4.400   5.485 -0.5862 -0.0791 -0.0309
  271POPC   C3A 3560   5.073   4.387   5.615 -0.1068  0.3386  0.0113
  271POPC   C4A 3561   5.417   4.130   5.739  0.1911 -0.1056 -0.1531
  271POPC   C1B 3562   4.834   4.021   5.232 -0.3720  0.3504  0.0342
  271POPC   C2B 3563   4.798   3.949   5.673  0.0753  0.0777  0.3086
  271POPC   C3B 3564   4.657   4.007   6.023  0.1209 -0.2076 -0.0614
  271POPC   C4B 3565   4.354   3.862   6.232 -0.0929  0.0782  0.0546
  272POPC   NC3 3566   0.212   7.274   4.113 -0.4828 -0.5882 -0.1713
  272POPC   PO4 3567  -0.168   7.375   3.857 -0.0163 -0.1799  0.1138
  272POPC   GL1 3568  -0.255   7.301   4.260  0.0983 -0.1760 -0.0146
  272POPC   GL2 3569  -0.371   7.620   4.362  0.0682  0.0171  0.0260
  272POPC   C1A 3570  -0.282   7.249   4.703 -0.3107 -0.0521 -0.2027
  272POPC   D2A 3571  -0.356   7.353   5.095 -0.1539 -0.3005 -0.0242
  272POPC   C3A 3572  -0.479   7.041   5.339 -0.2395 -0.2748 -0.0350
  272POPC   C4A 3573  -0.576   6.830   5.662  0.2100 -0.3804 -0.0514
  272POPC   C1B 3574  -0.353   7.856   4.693 -0.4156 -0.1448 -0.1961
  272POPC   C2B 3575  -0.584   7.854   5.043  0.0026  0.8810  0.0693
  272POPC   C3B 3576  -0.803   7.994   5.412  0.2952 -0.1213  0.0126
  272POPC   C4B 3577  -1.176   8.185   5.628 -0.3035 -0.0108  0.2730
  273POPC   NC3 3578   8.276   3.199   3.556 -0.1766 -0.2916  0.1486
  273POPC   PO4 3579   7.847   3.252   3.533  0.0684  0.0915  0.1074
  273POPC   GL1 3580   7.996   3.317   4.040 -0.3575  0.2479  0.0947
  273POPC   GL2 3581   7.982   3.673   4.103  0.0310  0.1456  0.2349
  273POPC   C1A 3582   8.251   3.208   4.409 -0.0177 -0.0733 -0.0636
  273POPC   D2A 3583   8.678   2.936   4.304 -0.2473 -0.1268 -0.1762
  273POPC   C3A 3584   8.945   2.777   4.687  0.1730 -0.0391 -0.2869
  273POPC   C4A 3585   9.012   2.809   5.044  0.0947  0.2798 -0.4281
  273POPC   C1B 3586   7.931   3.565   4.508 -0.1957  0.2959 -0.1957
  273POPC   C2B 3587   7.745   3.385   4.870  0.0790 -0.0804 -0.2808
  273POPC   C3B 3588   7.616   3.329   5.289 -0.0968 -0.4966 -0.1936
  273POPC   C4B 3589   7.778   3.191   5.675 -0.2355 -0.0898  0.1142
  274POPC   NC3 3590   3.777   3.034   4.236 -0.1573  0.0785  0.3491
  274POPC   PO4 3591   3.395   3.159   4.213 -0.1388 -0.0283 -0.1137
  274POPC   GL1 3592   3.316   3.344   4.529 -0.1747 -0.0805 -0.1619
  274POPC   GL2 3593   3.691   3.455   4.540  0.2162 -0.1861 -0.1873
  274POPC   C1A 3594   3.176   3.353   4.969 -0.1671 -0.2074 -0.3813
  274POPC   D2A 3595   2.946   3.184   5.267  0.0456  0.0994 -0.2711
  274POPC   C3A 3596   3.124   3.116   5.648  0.1140  0.0568  0.1546
  274POPC   C4A 3597   2.835   2.863   5.929 -0.0651  0.2141 -0.1206
  274POPC   C1B 3598   3.830   3.616   4.862 -0.0108  0.1401 -0.0063
  274POPC   C2B 3599   3.662   3.778   5.252 -0.0617 -0.2144 -0.0148
  274POPC   C3B 3600   3.816   3.991   5.533  0.0672 -0.1893 -0.0321
  274POPC   C4B 3601   4.081   4.298   5.704 -0.1372  0.2492  0.0136
  275POPC   NC3 3602   8.133   2.657   3.601 -0.1752  0.4124  0.1062
  275POPC   PO4 3603   7.838   2.328   3.430  0.4770 -0.2543  0.3105
  275POPC   GL1 3604   7.942   2.272   3.944  0.2334 -0.2197  0.2143
  275POPC   GL2 3605   7.687   2.218   4.154 -0.2759  0.2450  0.0890
  275POPC   C1A 3606   8.076   2.512   4.351 -0.0693 -0.1528  0.0157
  275POPC   D2A 3607   8.304   2.773   4.656 -0.2251 -0.1519 -0.1574
  275POPC   C3A 3608   8.595   3.086   4.743 -0.2443  0.1944  0.0104
  275POPC   C4A 3609   8.742   3.471   4.517 -0.3169  0.0320 -0.0183
  275POPC   C1B 3610   7.563   2.452   4.519 -0.0586  0.0771 -0.2026
  275POPC   C2B 3611   7.719   2.601   4.803 -0.1677  0.0744  0.1524
  275POPC   C3B 3612   8.074   2.453   4.986  0.0859 -0.0588  0.0828
  275POPC   C4B 3613   8.533   2.644   5.121  0.4883  0.1278  0.2760
  276POPC   NC3 3614   7.371   7.284   3.277  0.0034  0.0639  0.0175
  276POPC   PO4 3615   7.363   7.777   3.539 -0.0959 -0.0062  0.2889
  276POPC   GL1 3616   7.411   7.378   3.818 -0.0430 -0.0873 -0.0419
  276POPC   GL2 3617   7.180   7.215   3.932 -0.1256  0.5592  0.0222
  276POPC   C1A 3618   7.730   7.222   3.932 -0.1718  0.0522  0.1362
  276POPC   D2A 3619   7.856   6.920   4.345  0.0399 -0.2073  0.0042
  276POPC   C3A 3620   7.708   6.521   4.315 -0.2143 -0.3512 -0.3912
  276POPC   C4A 3621   7.657   6.260   4.614 -0.0621  0.1879 -0.0496
  276POPC   C1B 3622   7.193   7.530   4.250  0.0281  0.1157 -0.0022
  276POPC   C2B 3623   7.193   7.615   4.700 -0.0450 -0.1728 -0.3051
  276POPC   C3B 3624   7.553   7.810   5.070 -0.0002  0.0973 -0.2336
  276POPC   C4B 3625   7.898   8.187   5.079 -0.2149  0.1542 -0.2132
  277POPC   NC3 3626   9.567   7.347   3.603  0.0627 -0.1464 -0.2207
  277POPC   PO4 3627   9.500   7.708   3.617  0.0891  0.1749  0.2639
  277POPC   GL1 3628   9.488   7.718   4.099 -0.1843 -0.1735 -0.0215
  277POPC   GL2 3629   9.400   8.062   4.116 -0.1655  0.1643  0.1409
  277POPC   C1A 3630   9.314   7.570   4.429 -0.3324 -0.0636  0.0421
  277POPC   D2A 3631   9.082   7.719   4.894 -0.2856  0.3523 -0.0644
  277POPC   C3A 3632   8.867   7.419   5.034 -0.0425  0.4636  0.2211
  277POPC   C4A 3633   8.453   7.262   5.016 -0.3550 -0.1722 -0.1562
  277POPC   C1B 3634   8.963   8.066   4.476 -0.2116 -0.2534  0.4200
  277POPC   C2B 3635   8.754   8.236   4.714 -0.0502 -0.1144 -0.1011
  277POPC   C3B 3636   8.818   8.097   5.105 -0.0866 -0.0995  0.0777
  277POPC   C4B 3637   8.726   7.819   5.364 -0.1401  0.0835 -0.1277
  278POPC   NC3 3638   2.423   1.962   3.583 -0.0985  0.1609 -0.3888
  278POPC   PO4 3639   2.049   1.899   3.722 -0.1448 -0.0070 -0.0881
  278POPC   GL1 3640   2.053   1.912   4.124 -0.0630  0.0427 -0.3083
  278POPC   GL2 3641   1.800   1.737   4.243 -0.1884  0.2791 -0.1494
  278POPC   C1A 3642   2.376   2.154   4.475 -0.0610  0.2232 -0.1342
  278POPC   D2A 3643   2.571   2.053   4.878 -0.1130 -0.0340 -0.0973
  278POPC   C3A 3644   2.743   2.353   5.223 -0.0206  0.0780  0.4576
  278POPC   C4A 3645   2.884   2.698   5.427  0.2342  0.2104  0.1274
  278POPC   C1B 3646   1.535   1.937   4.608  0.1832 -0.2233 -0.0466
  278POPC   C2B 3647   1.263   2.057   4.933  0.0314  0.0493  0.0433
  278POPC   C3B 3648   1.220   2.346   5.261  0.0448 -0.0504 -0.1260
  278POPC   C4B 3649   1.268   2.785   5.402  0.1583 -0.1278  0.0910
  279POPC   NC3 3650   7.039   6.400   3.664 -0.2741 -0.1366  0.2131
  279POPC   PO4 3651   6.639   6.413   3.676 -0.0537  0.0896  0.3193
  279POPC   GL1 3652   6.535   6.541   4.011  0.0650 -0.0607  0.1017
  279POPC   GL2 3653   6.934   6.725   4.063  0.2697  0.1542  0.1143
  279POPC   C1A 3654   6.619   6.407   4.478  0.1621  0.1382  0.3004
  279POPC   D2A 3655   6.862   6.495   4.806  0.1789 -0.2657  0.0621
  279POPC   C3A 3656   6.881   6.753   5.158  0.0060 -0.0391  0.0053
  279POPC   C4A 3657   7.042   6.832   5.581  0.2478 -0.0029  0.0067
  279POPC   C1B 3658   6.686   6.912   4.359 -0.2187  0.1862  0.1274
  279POPC   C2B 3659   6.526   6.886   4.708  0.4361 -0.2088  0.1030
  279POPC   C3B 3660   6.477   7.044   5.138 -0.2264 -0.1626  0.0696
  279POPC   C4B 3661   6.701   7.214   5.453 -0.0701 -0.1071  0.0070
  280POPC   NC3 3662   1.517   5.280   3.537  0.3155 -0.2383 -0.0873
  280POPC   PO4 3663   1.786   5.673   3.565 -0.0668 -0.1299 -0.1653
  280POPC   GL1 3664   1.743   5.825   3.977 -0.0700 -0.1839 -0.0958
  280POPC   GL2 3665   1.374   5.882   4.111  0.1729  0.3674  0.0219
  280POPC   C1A 3666   1.878   5.844   4.448  0.3349 -0.1469  0.0179
  280POPC   D2A 3667   2.228   5.643   4.702 -0.2260 -0.3268  0.2002
  280POPC   C3A 3668   2.426   5.783   5.049  0.1572  0.2580  0.2008
  280POPC   C4A 3669   2.501   5.521   5.480  0.0557  0.0699  0.1934
  280POPC   C1B 3670   1.398   5.613   4.524  0.3786  0.1281 -0.1295
  280POPC   C2B 3671   1.287   5.498   4.927 -0.2933  0.0346  0.2303
  280POPC   C3B 3672   1.472   5.372   5.337  0.1015 -0.1253  0.1669
  280POPC   C4B 3673   1.229   5.296   5.693  0.1400 -0.1346 -0.2579
  281POPC   NC3 3674   0.617   7.516   3.989 -0.0968 -0.1375 -0.2247
  281POPC   PO4 3675   0.376   7.792   4.125 -0.3791 -0.1942  0.3160
  281POPC   GL1 3676   0.297   7.809   4.542  0.5430  0.2993  0.0453
  281POPC   GL2 3677   0.115   7.476   4.673 -0.0529  0.0276 -0.3309
  281POPC   C1A 3678   0.433   7.941   5.045  0.0965  0.0530  0.0977
  281POPC   D2A 3679   0.453   7.805   5.490 -0.0465  0.0356 -0.0860
  281POPC   C3A 3680   0.206   7.573   5.560 -0.1470 -0.0403  0.2019
  281POPC   C4A 3681  -0.102   7.224   5.694 -0.1036 -0.2955  0.1285
  281POPC   C1B 3682   0.063   7.662   5.066  0.0768  0.2436  0.1988
  281POPC   C2B 3683   0.004   8.008   5.306 -0.3412 -0.3453 -0.1003
  281POPC   C3B 3684   0.132   8.436   5.374 -0.0215  0.2434 -0.2647
  281POPC   C4B 3685  -0.106   8.781   5.588 -0.0517 -0.1292  0.1813
  282POPC   NC3 3686   8.716   7.418   3.656  0.1249 -0.2234 -0.0304
  282POPC   PO4 3687   8.308   7.260   3.445 -0.1380  0.0015 -0.0110
  282POPC   GL1 3688   8.267   7.207   3.779  0.0999  0.0294 -0.0119
  282POPC   GL2 3689   8.355   7.470   4.057 -0.2030 -0.0632  0.0061
  282POPC   C1A 3690   8.312   6.966   4.158  0.0328  0.1391  0.0656
  282POPC   D2A 3691   8.586   6.757   4.439 -0.0730  0.0744 -0.0946
  282POPC   C3A 3692   8.976   6.517   4.404  0.1717  0.5699  0.2341
  282POPC   C4A 3693   9.473   6.670   4.351 -0.0635  0.1831 -0.0588
  282POPC   C1B 3694   8.196   7.409   4.545  0.0389  0.0990 -0.2699
  282POPC   C2B 3695   8.102   7.022   4.750 -0.1907 -0.2642  0.0367
  282POPC   C3B 3696   7.882   7.006   5.166  0.2932  0.2635  0.0373
  282POPC   C4B 3697   7.622   6.768   5.489 -0.1180  0.3513  0.0171
  283POPC   NC3 3698   8.247   8.523   3.354  0.1256  0.1253 -0.0471
  283POPC   PO4 3699   8.138   8.121   3.234  0.2311 -0.0894 -0.0269
  283POPC   GL1 3700   8.252   7.721   3.585  0.3872 -0.1517 -0.0246
  283POPC   GL2 3701   8.467   7.936   3.596  0.3813  0.3737 -0.1507
  283POPC   C1A 3702   7.940   7.708   4.002  0.0994  0.2107 -0.0683
  283POPC   D2A 3703   7.781   7.593   4.352  0.3123 -0.2159 -0.0166
  283POPC   C3A 3704   7.541   7.221   4.619 -0.1151 -0.2019 -0.2320
  283POPC   C4A 3705   7.604   6.834   4.748  0.3200 -0.2064  0.0592
  283POPC   C1B 3706   8.164   8.156   3.919 -0.0951  0.4582  0.1094
  283POPC   C2B 3707   7.940   8.079   4.299 -0.1606 -0.1244 -0.2839
  283POPC   C3B 3708   8.001   7.871   4.699 -0.1398  0.1419  0.0883
  283POPC   C4B 3709   7.947   7.504   4.969 -0.1230 -0.1331  0.2878
  284POPC   NC3 3710   1.850   0.884   3.847 -0.0916  0.1761 -0.4114
  284POPC   PO4 3711   1.656   0.694   4.219 -0.0887 -0.1384  0.1396
  284POPC   GL1 3712   1.491   0.609   4.636  0.0167 -0.0413  0.1446
  284POPC   GL2 3713   1.312   0.347   4.663 -0.1776  0.0408  0.0002
  284POPC   C1A 3714   1.423   0.629   5.121  0.0608 -0.0846  0.0761
  284POPC   D2A 3715   1.206   0.713   5.491 -0.0964 -0.1368 -0.0735
  284POPC   C3A 3716   1.187   0.522   5.899  0.2571  0.0910  0.0568
  284POPC   C4A 3717   1.507   0.205   5.997 -0.1289 -0.3375 -0.1337
  284POPC   C1B 3718   1.158   0.155   5.003 -0.3113 -0.0693  0.1178
  284POPC   C2B 3719   1.016   0.273   5.376  0.1165 -0.0111 -0.0081
  284POPC   C3B 3720   0.558   0.457   5.599  0.3112  0.1976  0.2038
  284POPC   C4B 3721   0.204   0.260   5.716  0.0220  0.1206 -0.2982
  285POPC   NC3 3722   6.172   2.867   3.991  0.3090  0.1776 -0.2542
  285POPC   PO4 3723   5.828   2.526   4.185  0.1030 -0.3634  0.0872
  285POPC   GL1 3724   5.516   2.553   4.496 -0.0042  0.1661  0.0091
  285POPC   GL2 3725   5.417   2.304   4.630 -0.0810 -0.0291 -0.1253
  285POPC   C1A 3726   5.298   2.625   4.977 -0.2930  0.2265 -0.0180
  285POPC   D2A 3727   5.216   2.742   5.353  0.2745  0.2992 -0.0058
  285POPC   C3A 3728   5.444   2.793   5.688 -0.1978 -0.4710 -0.0749
  285POPC   C4A 3729   5.752   3.085   5.772 -0.0123  0.1765  0.0529
  285POPC   C1B 3730   5.759   2.368   4.936  0.3026 -0.1105  0.2253
  285POPC   C2B 3731   6.130   2.651   5.085  0.2255  0.1930 -0.0040
  285POPC   C3B 3732   6.458   2.609   5.401  0.1926  0.2697  0.5184
  285POPC   C4B 3733   6.814   2.695   5.651 -0.1513 -0.4027  0.1249
  286POPC   NC3 3734   9.292   0.021   3.634 -0.0749 -0.0669  0.2971
  286POPC   PO4 3735   9.534   0.472   3.552  0.0492 -0.1557 -0.0075
  286POPC   GL1 3736   9.573   0.308   3.998  0.0145  0.1736  0.0151
  286POPC   GL2 3737   9.857   0.136   4.001  0.4138 -0.0294 -0.0633
  286POPC   C1A 3738   9.744   0.295   4.487  0.2050 -0.0024  0.1812
  286POPC   D2A 3739   9.791   0.192   4.924 -0.1747  0.0228 -0.1558
  286POPC   C3A 3740  10.024   0.357   5.211  0.1884 -0.0697 -0.0551
  286POPC   C4A 3741   9.900   0.412   5.702 -0.0004 -0.0176 -0.2234
  286POPC   C1B 3742   9.908  -0.209   4.303 -0.2017  0.2318  0.2867
  286POPC   C2B 3743  10.053  -0.259   4.719 -0.0492 -0.2974  0.1411
  286POPC   C3B 3744  10.009  -0.182   5.139  0.1234  0.0479 -0.1938
  286POPC   C4B 3745  10.189  -0.054   5.528 -0.1311  0.1393 -0.1816
  287POPC   NC3 3746   3.424   3.781   3.588 -0.2288 -0.1251 -0.1886
  287POPC   PO4 3747   3.205   3.460   3.849 -0.0911 -0.3105 -0.1092
  287POPC   GL1 3748   2.976   3.454   4.206  0.1315 -0.1290 -0.1009
  287POPC   GL2 3749   2.767   3.682   4.292 -0.1221 -0.0686 -0.0233
  287POPC   C1A 3750   2.854   3.166   4.600 -0.3329 -0.1539 -0.1879
  287POPC   D2A 3751   2.422   2.970   4.782  0.1314  0.3498 -0.0228
  287POPC   C3A 3752   2.362   2.741   5.254  0.0953 -0.1993 -0.1516
  287POPC   C4A 3753   2.020   2.936   5.593 -0.0238 -0.1617  0.3165
  287POPC   C1B 3754   2.880   3.662   4.771 -0.0875 -0.2373  0.5640
  287POPC   C2B 3755   2.805   3.699   5.216 -0.2663 -0.2312  0.0724
  287POPC   C3B 3756   2.811   3.633   5.577 -0.3426 -0.0548  0.2255
  287POPC   C4B 3757   2.907   3.705   5.952  0.0241  0.3274  0.0892
  288POPC   NC3 3758   8.246   5.264   3.159 -0.0896 -0.2339 -0.0440
  288POPC   PO4 3759   8.000   5.430   3.499  0.1827  0.1472 -0.3376
  288POPC   GL1 3760   7.821   5.472   3.906 -0.0130 -0.0313 -0.1060
  288POPC   GL2 3761   7.780   5.168   3.963 -0.1210  0.1810  0.0548
  288POPC   C1A 3762   7.823   5.487   4.347  0.1837 -0.0815  0.1221
  288POPC   D2A 3763   8.141   5.464   4.747 -0.3655  0.0269  0.0882
  288POPC   C3A 3764   8.451   5.596   5.139  0.1217 -0.0827 -0.1229
  288POPC   C4A 3765   8.724   5.704   5.443  0.0491 -0.0668 -0.1608
  288POPC   C1B 3766   7.960   5.007   4.219 -0.0945  0.1219  0.1907
  288POPC   C2B 3767   8.061   4.955   4.617 -0.0131  0.2947 -0.1523
  288POPC   C3B 3768   8.111   5.117   5.084 -0.0101  0.2209  0.1620
  288POPC   C4B 3769   7.960   5.082   5.491 -0.2284  0.0265  0.2002
  289POPC   NC3 3770   9.046   2.629   3.450 -0.4155 -0.0386 -0.2204
  289POPC   PO4 3771   8.618   2.667   3.520  0.1126  0.1439 -0.1193
  289POPC   GL1 3772   8.654   2.451   3.956  0.0718 -0.2486 -0.0636
  289POPC   GL2 3773   8.481   2.145   4.046  0.0926 -0.0723 -0.2127
  289POPC   C1A 3774   8.648   2.421   4.378 -0.3757 -0.0801  0.1647
  289POPC   D2A 3775   8.405   2.268   4.662  0.4404  0.2823 -0.0849
  289POPC   C3A 3776   8.547   2.153   5.099  0.2807 -0.1321 -0.0302
  289POPC   C4A 3777   8.722   2.153   5.518  0.2766  0.1052 -0.1138
  289POPC   C1B 3778   8.158   2.035   4.290 -0.1402 -0.0429 -0.1187
  289POPC   C2B 3779   7.857   2.075   4.648  0.4688 -0.1389 -0.2714
  289POPC   C3B 3780   7.406   2.042   4.751  0.2920 -0.0305  0.0548
  289POPC   C4B 3781   7.180   1.983   5.245 -0.3010  0.2540 -0.0721
  290POPC   NC3 3782   4.525   2.563   4.125  0.0545 -0.3355 -0.0995
  290POPC   PO4 3783   4.969   2.612   4.310  0.0965  0.1163  0.0520
  290POPC   GL1 3784   4.855   2.684   4.649 -0.1576  0.2728  0.3307
  290POPC   GL2 3785   4.612   2.678   4.686  0.1830 -0.2301  0.4436
  290POPC   C1A 3786   4.788   2.612   5.201  0.0919 -0.1012 -0.1039
  290POPC   D2A 3787   4.844   2.282   5.438  0.1871 -0.1966 -0.1696
  290POPC   C3A 3788   5.240   2.315   5.684  0.0189 -0.0498  0.1841
  290POPC   C4A 3789   5.345   2.371   6.150  0.1440  0.0357 -0.0203
  290POPC   C1B 3790   4.635   3.075   4.898 -0.1945 -0.0210 -0.2514
  290POPC   C2B 3791   4.943   3.196   5.169  0.0984  0.1691 -0.0863
  290POPC   C3B 3792   5.063   3.601   5.341 -0.0998  0.0512 -0.0099
  290POPC   C4B 3793   5.327   3.925   5.290  0.2211  0.0358  0.1148
  291POPC   NC3 3794   0.959   6.203   3.583 -0.1077  0.0493 -0.1347
  291POPC   PO4 3795   1.173   6.355   3.958  0.0702 -0.2554 -0.0985
  291POPC   GL1 3796   1.375   6.485   4.350 -0.3047 -0.1564  0.1201
  291POPC   GL2 3797   1.335   6.252   4.523 -0.0958  0.2130 -0.0753
  291POPC   C1A 3798   1.575   6.553   4.767 -0.1872 -0.1658 -0.4001
  291POPC   D2A 3799   1.650   6.496   5.175 -0.3793 -0.2652 -0.1275
  291POPC   C3A 3800   2.114   6.392   5.247  0.2012  0.1418 -0.1460
  291POPC   C4A 3801   2.511   6.710   5.084  0.0414  0.1103 -0.1918
  291POPC   C1B 3802   0.940   6.423   4.809  0.0788 -0.1586 -0.1511
  291POPC   C2B 3803   0.856   6.396   5.204 -0.1756 -0.1965  0.1141
  291POPC   C3B 3804   0.832   6.099   5.443 -0.0778 -0.0579  0.0186
  291POPC   C4B 3805   0.544   5.819   5.538  0.2302  0.0797  0.2947
  292POPC   NC3 3806   1.024   9.260   4.043  0.1768  0.1601 -0.1442
  292POPC   PO4 3807   0.767   8.967   4.083  0.0641  0.0505  0.1990
  292POPC   GL1 3808   0.803   8.934   4.481  0.1538 -0.0487 -0.1864
  292POPC   GL2 3809   1.214   9.096   4.525 -0.0493  0.0194 -0.2148
  292POPC   C1A 3810   0.442   9.041   4.767  0.1101 -0.1080 -0.0513
  292POPC   D2A 3811   0.076   8.759   4.955  0.1949 -0.0479  0.2818
  292POPC   C3A 3812  -0.260   8.395   5.144 -0.0632  0.0309 -0.0176
  292POPC   C4A 3813  -0.329   8.320   5.658 -0.1768  0.1139 -0.2366
  292POPC   C1B 3814   1.566   8.847   4.688 -0.1635 -0.1488  0.2432
  292POPC   C2B 3815   1.632   8.480   4.751  0.0069  0.1164 -0.2020
  292POPC   C3B 3816   1.713   8.164   5.018  0.0305 -0.1421  0.0927
  292POPC   C4B 3817   1.303   7.975   5.199 -0.0024 -0.1219 -0.0564
  293POPC   NC3 3818   6.449   9.867   3.796  0.1609  0.1127 -0.2701
  293POPC   PO4 3819   6.022   9.962   3.780 -0.0862 -0.0382  0.1872
  293POPC   GL1 3820   6.046   9.748   4.189  0.0739 -0.0104  0.0173
  293POPC   GL2 3821   6.242   9.904   4.288  0.0850 -0.0091  0.0556
  293POPC   C1A 3822   5.893   9.544   4.538 -0.1736 -0.0625  0.1703
  293POPC   D2A 3823   5.807   9.262   4.924  0.0535 -0.0539 -0.0747
  293POPC   C3A 3824   6.022   8.928   5.101  0.0661  0.0232  0.0444
  293POPC   C4A 3825   6.167   8.680   5.355  0.1314 -0.0368  0.3116
  293POPC   C1B 3826   6.281   9.893   4.710 -0.1801 -0.1271 -0.1322
  293POPC   C2B 3827   6.014   9.864   4.993  0.2729 -0.1036 -0.0438
  293POPC   C3B 3828   5.582   9.700   5.245  0.4312  0.0154 -0.2511
  293POPC   C4B 3829   5.388   9.772   5.558 -0.0292 -0.0893 -0.3673
  294POPC   NC3 3830   6.700   4.429   3.714  0.0144  0.2930  0.0553
  294POPC   PO4 3831   7.116   4.079   3.777 -0.0769 -0.0281  0.0778
  294POPC   GL1 3832   7.396   3.895   4.144 -0.1630 -0.0810 -0.2883
  294POPC   GL2 3833   7.786   4.097   4.150  0.2399  0.2848  0.0379
  294POPC   C1A 3834   7.266   3.905   4.518  0.2567  0.0889 -0.2079
  294POPC   D2A 3835   7.214   3.852   4.906  0.0154 -0.0449 -0.0148
  294POPC   C3A 3836   7.030   4.102   5.171 -0.0009  0.2224  0.1388
  294POPC   C4A 3837   7.018   4.433   5.372 -0.0160  0.2126 -0.0422
  294POPC   C1B 3838   7.715   4.054   4.594  0.1551  0.3769  0.4296
  294POPC   C2B 3839   7.851   3.853   4.944 -0.3044  0.0418  0.1251
  294POPC   C3B 3840   7.762   3.836   5.417 -0.0421  0.0123 -0.2538
  294POPC   C4B 3841   7.743   4.063   5.834  0.0267  0.0431  0.3033
  295POPC   NC3 3842   9.536   9.329   3.667  0.0222  0.1507  0.7215
  295POPC   PO4 3843   9.249   9.731   3.684  0.0287  0.4007 -0.2348
  295POPC   GL1 3844   9.280   9.597   4.021 -0.1657 -0.0675 -0.0828
  295POPC   GL2 3845   9.570   9.423   4.142 -0.2818  0.0946  0.2297
  295POPC   C1A 3846   9.191   9.707   4.463 -0.2694 -0.1687 -0.0953
  295POPC   D2A 3847   8.941   9.785   4.805  0.2043 -0.0499 -0.0709
  295POPC   C3A 3848   8.681  10.154   4.861  0.0037 -0.1911 -0.1331
  295POPC   C4A 3849   8.485  10.268   5.261  0.2463 -0.3757  0.0748
  295POPC   C1B 3850   9.558   9.228   4.556  0.4266  0.0218 -0.2522
  295POPC   C2B 3851   9.338   9.254   4.803 -0.0444 -0.0790  0.2376
  295POPC   C3B 3852   9.252   9.007   5.327  0.0474  0.1094  0.0619
  295POPC   C4B 3853   9.426   8.645   5.605 -0.1097 -0.3566 -0.0568
  296POPC   NC3 3854   8.769   9.835   3.703  0.0381 -0.1429  0.3818
  296POPC   PO4 3855   8.276   9.967   3.617 -0.1280 -0.1064  0.2219
  296POPC   GL1 3856   8.277   9.852   4.079 -0.0770 -0.3143  0.0835
  296POPC   GL2 3857   8.150   9.646   4.205  0.1600  0.0225  0.0421
  296POPC   C1A 3858   8.563   9.765   4.422 -0.1666 -0.1151 -0.1136
  296POPC   D2A 3859   8.448   9.725   4.852 -0.0876 -0.0429  0.1991
  296POPC   C3A 3860   8.174   9.903   5.161  0.2935  0.0446 -0.0598
  296POPC   C4A 3861   7.716   9.996   5.161  0.1497 -0.0436  0.0571
  296POPC   C1B 3862   8.446   9.142   4.276 -0.1383 -0.1615 -0.1284
  296POPC   C2B 3863   8.682   8.809   4.646  0.0488 -0.1700 -0.1794
  296POPC   C3B 3864   8.535   8.893   5.118 -0.0949 -0.0363 -0.1091
  296POPC   C4B 3865   8.722   9.033   5.520 -0.2400  0.1491 -0.2602
  297POPC   NC3 3866   1.712   9.851   3.942  0.2491 -0.1535 -0.0597
  297POPC   PO4 3867   2.074   9.830   3.956  0.0492 -0.0520  0.4972
  297POPC   GL1 3868   1.932  10.034   4.358 -0.1116  0.3930  0.2826
  297POPC   GL2 3869   1.849   9.754   4.491  0.3821  0.2584 -0.0037
  297POPC   C1A 3870   1.923  10.161   4.809 -0.1542 -0.2782  0.0716
  297POPC   D2A 3871   1.850  10.141   5.151 -0.3292 -0.2653  0.1666
  297POPC   C3A 3872   1.719  10.478   5.286  0.0263 -0.3743  0.0899
  297POPC   C4A 3873   1.503  10.691   5.392  0.0494 -0.1131 -0.0454
  297POPC   C1B 3874   1.952   9.686   4.871 -0.0316 -0.2110  0.0467
  297POPC   C2B 3875   1.996   9.748   5.252 -0.0968 -0.0084 -0.0825
  297POPC   C3B 3876   1.838   9.476   5.627 -0.0956  0.0551 -0.1445
  297POPC   C4B 3877   2.025   9.036   5.627  0.4514  0.1484 -0.0628
  298POPC   NC3 3878   5.626   2.072   4.148  0.1388  0.2016 -0.0364
  298POPC   PO4 3879   5.508   1.630   4.009 -0.2075  0.0109  0.1755
  298POPC   GL1 3880   5.486   1.694   4.512 -0.2898 -0.2609 -0.0882
  298POPC   GL2 3881   5.172   1.823   4.704 -0.1148 -0.4105  0.0170
  298POPC   C1A 3882   5.513   1.667   5.004 -0.0426 -0.1055 -0.0516
  298POPC   D2A 3883   5.438   1.437   5.502  0.0642 -0.2799 -0.0073
  298POPC   C3A 3884   5.806   1.303   5.620 -0.2518  0.0391  0.0773
  298POPC   C4A 3885   5.810   0.935   5.861  0.0031  0.0526 -0.1911
  298POPC   C1B 3886   5.071   1.513   4.954 -0.2435  0.1918 -0.2498
  298POPC   C2B 3887   5.177   1.208   5.141  0.2800 -0.1303  0.0561
  298POPC   C3B 3888   5.009   1.116   5.515  0.3231  0.3152  0.4456
  298POPC   C4B 3889   4.675   0.735   5.677 -0.2100 -0.0790 -0.1797
  299POPC   NC3 3890   1.168   8.275   3.899  0.3208  0.0403  0.0322
  299POPC   PO4 3891   0.954   7.938   3.900 -0.0071  0.1721  0.0250
  299POPC   GL1 3892   0.836   7.910   4.339  0.0688  0.1685 -0.4018
  299POPC   GL2 3893   0.773   7.651   4.472  0.1949 -0.1093 -0.2293
  299POPC   C1A 3894   0.825   8.187   4.782 -0.2185  0.1046 -0.0430
  299POPC   D2A 3895   1.241   8.441   5.085  0.0335  0.1556 -0.2940
  299POPC   C3A 3896   1.244   8.362   5.584 -0.1211 -0.0062 -0.0669
  299POPC   C4A 3897   1.073   8.413   6.027  0.0324 -0.0069  0.1239
  299POPC   C1B 3898   1.047   7.291   4.703 -0.0696 -0.0232  0.2021
  299POPC   C2B 3899   0.992   6.957   4.751 -0.0184 -0.1240 -0.3149
  299POPC   C3B 3900   1.202   6.739   5.146  0.2062 -0.1851 -0.2045
  299POPC   C4B 3901   1.306   6.389   5.518  0.1314  0.3349  0.1796
  300POPC   NC3 3902   4.332   8.429   3.785  0.1705  0.0018 -0.1814
  300POPC   PO4 3903   4.258   8.954   3.935 -0.2021  0.0552 -0.0211
  300POPC   GL1 3904   4.224   8.650   4.253 -0.2716  0.0282 -0.0714
  300POPC   GL2 3905   3.986   8.707   4.305  0.0760 -0.0258 -0.2272
  300POPC   C1A 3906   4.479   8.439   4.494 -0.1182 -0.4852 -0.2563
  300POPC   D2A 3907   4.581   8.002   4.576 -0.2969 -0.0778  0.1006
  300POPC   C3A 3908   4.694   7.718   4.951 -0.0871  0.0034 -0.2082
  300POPC   C4A 3909   5.057   7.446   5.111 -0.2992  0.1760 -0.3101
  300POPC   C1B 3910   4.044   9.161   4.609 -0.0455  0.1145  0.0439
  300POPC   C2B 3911   4.065   9.240   5.029  0.0469 -0.0943  0.0689
  300POPC   C3B 3912   4.153   9.216   5.438 -0.0144 -0.2864 -0.0407
  300POPC   C4B 3913   3.833   9.060   5.795  0.2805 -0.0771  0.1775
  301POPC   NC3 3914   6.940  10.488   3.439 -0.0352 -0.2270  0.0419
  301POPC   PO4 3915   6.822  10.253   3.833  0.0840  0.2462 -0.2760
  301POPC   GL1 3916   6.726  10.219   4.299  0.1074  0.0334 -0.0067
  301POPC   GL2 3917   6.799   9.880   4.278 -0.0065  0.0231  0.1080
  301POPC   C1A 3918   6.871  10.127   4.763 -0.2662  0.1499  0.2565
  301POPC   D2A 3919   7.112  10.033   5.208 -0.0490  0.3725 -0.0261
  301POPC   C3A 3920   6.805  10.061   5.592  0.1563 -0.1230  0.0754
  301POPC   C4A 3921   6.556  10.380   5.689 -0.1816 -0.0513 -0.0665
  301POPC   C1B 3922   6.603   9.531   4.532  0.0638  0.0123  0.0476
  301POPC   C2B 3923   6.280   9.378   4.757  0.0090  0.0103  0.0995
  301POPC   C3B 3924   6.182   9.363   5.273 -0.0817 -0.1913 -0.0344
  301POPC   C4B 3925   6.101   9.161   5.596  0.0694  0.0224 -0.1176
  302POPC   NC3 3926   1.604   0.173   4.239 -0.2480  0.3416 -0.1216
  302POPC   PO4 3927   1.082   0.109   4.202  0.2522  0.3819 -0.1503
  302POPC   GL1 3928   1.056  -0.141   4.559  0.3840 -0.3365 -0.0728
  302POPC   GL2 3929   1.163  -0.444   4.641 -0.1725  0.0140  0.0846
  302POPC   C1A 3930   0.798  -0.235   4.894  0.4463  0.0131 -0.1224
  302POPC   D2A 3931   0.770  -0.216   5.330 -0.0727  0.2420  0.0698
  302POPC   C3A 3932   0.465  -0.181   5.746 -0.0293  0.1867 -0.1039
  302POPC   C4A 3933   0.302  -0.060   6.152 -0.0702 -0.0871 -0.1211
  302POPC   C1B 3934   1.014  -0.755   4.900  0.2063  0.5029 -0.0509
  302POPC   C2B 3935   0.954  -1.123   5.249 -0.0622  0.5066  0.0325
  302POPC   C3B 3936   0.655  -1.197   5.540 -0.1139 -0.1111 -0.5588
  302POPC   C4B 3937   0.256  -1.019   5.628 -0.0719  0.1130  0.0935
  303POPC   NC3 3938   4.538   5.256   3.649  0.1627  0.0268  0.2383
  303POPC   PO4 3939   4.551   5.137   4.087 -0.0905 -0.1665  0.1264
  303POPC   GL1 3940   4.617   5.108   4.527 -0.1197 -0.0522  0.0448
  303POPC   GL2 3941   4.818   5.006   4.663 -0.3959  0.0879  0.0044
  303POPC   C1A 3942   4.428   5.316   4.841 -0.1350 -0.0078 -0.3121
  303POPC   D2A 3943   4.399   5.517   5.229 -0.0906 -0.0731 -0.0343
  303POPC   C3A 3944   4.648   5.744   5.462 -0.0943 -0.0776 -0.1893
  303POPC   C4A 3945   4.627   5.982   5.881  0.0431 -0.1125  0.1902
  303POPC   C1B 3946   5.058   5.389   4.725  0.1044  0.0853  0.0762
  303POPC   C2B 3947   5.412   5.594   4.861 -0.1978 -0.2383  0.0562
  303POPC   C3B 3948   5.562   5.677   5.325 -0.1202 -0.0682  0.0130
  303POPC   C4B 3949   5.647   5.686   5.803  0.0654  0.2062  0.4153
  304POPC   NC3 3950   0.027   3.805   2.534  0.0148 -0.1864  0.1302
  304POPC   PO4 3951   0.186   3.616   2.889 -0.2275 -0.1267 -0.0621
  304POPC   GL1 3952   0.201   3.850   3.271  0.2128  0.2228 -0.1284
  304POPC   GL2 3953   0.334   3.717   3.490 -0.0526  0.1727 -0.1366
  304POPC   C1A 3954   0.244   4.222   3.353 -0.1197 -0.1121 -0.1950
  304POPC   D2A 3955   0.258   4.684   3.335  0.0352  0.2151  0.1667
  304POPC   C3A 3956   0.087   4.720   3.636  0.2730  0.0191 -0.0682
  304POPC   C4A 3957   0.170   4.878   4.044  0.1570 -0.2839 -0.0073
  304POPC   C1B 3958   0.619   3.552   3.869 -0.4071  0.0731 -0.0264
  304POPC   C2B 3959   0.807   3.236   4.265 -0.3823 -0.1292  0.1873
  304POPC   C3B 3960   1.100   3.082   4.479  0.2025 -0.0901 -0.0883
  304POPC   C4B 3961   1.485   2.976   4.419 -0.0902 -0.0648 -0.0606
  305POPC   NC3 3962   4.095   4.970   4.392 -0.0407  0.0592  0.3564
  305POPC   PO4 3963   3.698   5.002   4.297  0.1613  0.0379 -0.0715
  305POPC   GL1 3964   3.765   4.871   4.748  0.1637 -0.1758 -0.0623
  305POPC   GL2 3965   4.060   4.985   4.878  0.2219  0.0060  0.1520
  305POPC   C1A 3966   3.703   4.653   5.188 -0.0985  0.0679  0.1415
  305POPC   D2A 3967   3.751   4.659   5.562  0.1994  0.1003 -0.2304
  305POPC   C3A 3968   3.614   4.437   5.878 -0.0049 -0.1030 -0.2121
  305POPC   C4A 3969   3.372   4.550   6.225  0.2227  0.0007  0.1787
  305POPC   C1B 3970   4.442   4.839   4.967 -0.1719  0.3958  0.0142
  305POPC   C2B 3971   4.678   4.879   5.373 -0.1586 -0.1274  0.2898
  305POPC   C3B 3972   4.623   5.296   5.618  0.4384  0.1419 -0.1891
  305POPC   C4B 3973   4.311   5.610   5.783 -0.0504  0.4504 -0.3331
  306POPC   NC3 3974   1.996   5.293   3.835 -0.2315  0.1726 -0.3406
  306POPC   PO4 3975   2.409   5.623   3.950  0.2557 -0.0268  0.2847
  306POPC   GL1 3976   2.340   5.358   4.272 -0.3266 -0.0557 -0.0463
  306POPC   GL2 3977   2.009   5.405   4.313 -0.2085 -0.1021 -0.0562
  306POPC   C1A 3978   2.330   5.079   4.629  0.0702  0.3609  0.0967
  306POPC   D2A 3979   2.265   5.199   4.984  0.0718 -0.1559  0.0275
  306POPC   C3A 3980   2.368   5.053   5.325 -0.0868  0.2156 -0.2588
  306POPC   C4A 3981   2.412   4.733   5.614  0.0036  0.2983 -0.3097
  306POPC   C1B 3982   1.782   5.269   4.614  0.0607  0.0880 -0.2506
  306POPC   C2B 3983   1.839   5.117   5.122 -0.0112  0.1545  0.2647
  306POPC   C3B 3984   1.937   5.089   5.608  0.1324 -0.1636  0.0205
  306POPC   C4B 3985   1.721   5.190   5.923  0.1286  0.0258 -0.2012
  307POPC   NC3 3986   1.835   7.284   3.841 -0.0515  0.0041 -0.1552
  307POPC   PO4 3987   1.634   7.605   3.913  0.2279 -0.1124  0.0059
  307POPC   GL1 3988   1.379   7.813   4.269  0.1070 -0.1246  0.1757
  307POPC   GL2 3989   1.450   8.192   4.333  0.0873  0.0279  0.0011
  307POPC   C1A 3990   1.258   7.917   4.680 -0.1944  0.0204  0.0389
  307POPC   D2A 3991   0.893   7.659   5.032  0.0997 -0.1649  0.0173
  307POPC   C3A 3992   0.579   7.286   4.867  0.2524 -0.0422 -0.0060
  307POPC   C4A 3993   0.240   7.194   4.991 -0.0984  0.2479  0.1458
  307POPC   C1B 3994   1.852   8.049   4.484  0.1352  0.1789  0.2186
  307POPC   C2B 3995   2.222   7.973   4.745  0.3047  0.0970  0.1981
  307POPC   C3B 3996   2.386   7.585   4.901 -0.2153  0.0088  0.2713
  307POPC   C4B 3997   2.211   7.312   5.226  0.2197  0.1208 -0.1214
  308POPC   NC3 3998   9.953   2.174   3.780  0.2022  0.2444  0.0150
  308POPC   PO4 3999  10.218   1.855   3.769  0.0120 -0.1708 -0.0669
  308POPC   GL1 4000  10.304   1.952   4.085  0.3495  0.2068 -0.1193
  308POPC   GL2 4001  10.275   1.623   4.313  0.1312 -0.2891 -0.1722
  308POPC   C1A 4002  10.527   2.125   4.388 -0.1760  0.2010  0.1213
  308POPC   D2A 4003  10.661   2.203   4.876 -0.2295  0.0857  0.1842
  308POPC   C3A 4004  10.724   2.688   5.029  0.1494 -0.0106  0.0266
  308POPC   C4A 4005  11.126   2.936   4.949 -0.1009 -0.0861  0.0782
  308POPC   C1B 4006  10.291   1.819   4.682  0.2937 -0.2597  0.1429
  308POPC   C2B 4007  10.260   1.906   5.122  0.3169 -0.1368 -0.0077
  308POPC   C3B 4008  10.331   1.698   5.570  0.3502 -0.0052 -0.3454
  308POPC   C4B 4009  10.510   1.627   5.977 -0.2726  0.1350 -0.0160
  309POPC   NC3 4010   7.758   0.638   3.940  0.4046  0.1656 -0.0938
  309POPC   PO4 4011   8.075   0.752   3.705  0.0212  0.1310 -0.4312
  309POPC   GL1 4012   8.344   0.926   4.044  0.0471  0.0362  0.0598
  309POPC   GL2 4013   8.589   1.053   4.315  0.1127 -0.1999  0.1667
  309POPC   C1A 4014   8.275   0.678   4.372  0.0828  0.2056  0.1256
  309POPC   D2A 4015   8.254   0.776   4.791  0.0250  0.1506  0.0729
  309POPC   C3A 4016   7.848   0.693   4.890  0.0186  0.3419 -0.3014
  309POPC   C4A 4017   7.428   0.576   4.928  0.0256  0.2084 -0.1965
  309POPC   C1B 4018   8.398   1.251   4.654 -0.0993  0.1321 -0.1011
  309POPC   C2B 4019   8.556   1.390   5.053  0.0475  0.2452 -0.0095
  309POPC   C3B 4020   8.604   1.312   5.560 -0.0246  0.0296 -0.0217
  309POPC   C4B 4021   8.624   1.151   6.062  0.1764  0.1357 -0.1540
  310POPC   NC3 4022  10.556   5.110   3.180  0.0871 -0.0831 -0.3125
  310POPC   PO4 4023  10.190   4.960   3.287  0.1418 -0.3093  0.0273
  310POPC   GL1 4024   9.879   4.736   3.580 -0.2202 -0.2187  0.1186
  310POPC   GL2 4025   9.738   4.954   3.566  0.3592 -0.4060 -0.0165
  310POPC   C1A 4026   9.720   4.568   3.958 -0.0177 -0.1180 -0.0241
  310POPC   D2A 4027   9.281   4.350   4.105 -0.0157  0.0813  0.3437
  310POPC   C3A 4028   8.867   4.526   4.020  0.0369  0.1808 -0.1929
  310POPC   C4A 4029   8.411   4.634   4.164  0.5640  0.3071 -0.0019
  310POPC   C1B 4030   9.769   5.236   3.823 -0.0975 -0.0441  0.0733
  310POPC   C2B 4031   9.362   5.546   3.965  0.3299  0.1202  0.0243
  310POPC   C3B 4032   9.029   5.401   4.020  0.1551  0.3771 -0.1014
  310POPC   C4B 4033   8.770   5.064   4.011  0.4264  0.1991 -0.0001
  311POPC   NC3 4034   0.445   8.790   3.709 -0.1002  0.0541  0.1674
  311POPC   PO4 4035   0.250   8.614   4.112  0.0310 -0.0927  0.4349
  311POPC   GL1 4036   0.460   8.422   4.415 -0.2623 -0.1709 -0.1338
  311POPC   GL2 4037   0.850   8.428   4.304 -0.2468  0.3772 -0.1765
  311POPC   C1A 4038   0.542   8.550   4.783  0.2982 -0.2627 -0.2349
  311POPC   D2A 4039   0.680   8.513   5.191 -0.0752 -0.2278 -0.0095
  311POPC   C3A 4040   0.869   8.081   5.308  0.4714  0.1183  0.2082
  311POPC   C4A 4041   1.050   7.664   5.489 -0.0049  0.0980 -0.2546
  311POPC   C1B 4042   1.172   8.550   4.623 -0.0031  0.0691 -0.0764
  311POPC   C2B 4043   1.002   8.812   4.928  0.3341  0.0649  0.0431
  311POPC   C3B 4044   0.937   9.037   5.397  0.1611  0.2118  0.0536
  311POPC   C4B 4045   1.177   8.860   5.776  0.1733 -0.2201  0.2065
  312POPC   NC3 4046   4.544   1.702   3.823 -0.2205  0.3010  0.0782
  312POPC   PO4 4047   4.144   1.558   3.967  0.2160  0.0606 -0.2972
  312POPC   GL1 4048   4.205   1.766   4.280 -0.2293  0.1671  0.2372
  312POPC   GL2 4049   4.256   2.110   4.292  0.0197  0.0423  0.0675
  312POPC   C1A 4050   4.152   1.883   4.698  0.2120  0.1300 -0.0250
  312POPC   D2A 4051   4.107   1.944   5.171 -0.0350  0.1231  0.2429
  312POPC   C3A 4052   3.811   1.673   5.352 -0.1324  0.2341 -0.0258
  312POPC   C4A 4053   3.798   1.452   5.747 -0.2227 -0.0434 -0.2665
  312POPC   C1B 4054   4.644   2.121   4.616  0.1787 -0.2998  0.0942
  312POPC   C2B 4055   4.948   2.223   4.874 -0.4502 -0.0234  0.0276
  312POPC   C3B 4056   5.313   2.131   5.150 -0.3369  0.0015  0.4600
  312POPC   C4B 4057   5.221   1.894   5.428 -0.0701 -0.0989  0.3686
  313POPC   NC3 4058   7.775  10.030   3.700 -0.0675  0.1197  0.2218
  313POPC   PO4 4059   7.857  10.491   3.858 -0.1722  0.3733 -0.0516
  313POPC   GL1 4060   7.792  10.410   4.294 -0.3192 -0.1027  0.3303
  313POPC   GL2 4061   8.067  10.203   4.313 -0.3056 -0.2069  0.1501
  313POPC   C1A 4062   7.668  10.466   4.752  0.2843 -0.0690  0.0607
  313POPC   D2A 4063   7.410  10.359   5.076 -0.0298 -0.1325 -0.2005
  313POPC   C3A 4064   7.527  10.296   5.473 -0.2534  0.0481 -0.0857
  313POPC   C4A 4065   7.366   9.931   5.643  0.0569  0.0171  0.0457
  313POPC   C1B 4066   8.142  10.257   4.745 -0.3073 -0.1374  0.0372
  313POPC   C2B 4067   8.059  10.476   5.043  0.2222 -0.1128  0.0371
  313POPC   C3B 4068   8.021  10.308   5.481 -0.0145  0.0414 -0.0326
  313POPC   C4B 4069   7.916   9.991   5.689 -0.1741  0.1818 -0.1401
  314POPC   NC3 4070   6.248   0.964   4.297 -0.2395 -0.1485 -0.3089
  314POPC   PO4 4071   6.441   1.279   4.358  0.0041 -0.3060 -0.5151
  314POPC   GL1 4072   6.411   1.064   4.788 -0.0081  0.2247 -0.3098
  314POPC   GL2 4073   6.304   1.265   5.046  0.2240  0.1421 -0.0828
  314POPC   C1A 4074   6.555   0.720   5.087 -0.4508  0.0196 -0.2703
  314POPC   D2A 4075   6.677   0.275   5.311 -0.0035 -0.3621  0.1050
  314POPC   C3A 4076   6.974   0.294   5.734  0.2212 -0.1293 -0.1981
  314POPC   C4A 4077   6.828   0.411   6.188 -0.1540 -0.0464 -0.1749
  314POPC   C1B 4078   6.483   1.740   5.173  0.2058 -0.0346  0.0772
  314POPC   C2B 4079   6.739   2.114   5.252  0.0509  0.2289 -0.1603
  314POPC   C3B 4080   6.856   2.174   5.631  0.1613  0.0695  0.1563
  314POPC   C4B 4081   7.170   2.513   5.949  0.0869 -0.0374  0.0564
  315POPC   NC3 4082   3.647   1.276   4.222 -0.2657 -0.3239 -0.0445
  315POPC   PO4 4083   3.165   1.160   4.318 -0.0682 -0.3549 -0.0950
  315POPC   GL1 4084   3.316   1.276   4.715 -0.1693  0.0593 -0.1406
  315POPC   GL2 4085   3.262   1.019   4.797  0.1211 -0.1750 -0.0401
  315POPC   C1A 4086   3.352   1.408   5.133  0.0080 -0.2841 -0.2558
  315POPC   D2A 4087   3.464   1.236   5.557 -0.0183 -0.4340 -0.3007
  315POPC   C3A 4088   3.294   0.860   5.885  0.0804 -0.3437  0.1047
  315POPC   C4A 4089   3.068   0.485   6.057 -0.0071  0.0710  0.2785
  315POPC   C1B 4090   3.068   0.574   4.838  0.0662 -0.1176 -0.0319
  315POPC   C2B 4091   2.901   0.375   5.152 -0.1802  0.0179 -0.1990
  315POPC   C3B 4092   2.827   0.413   5.608  0.2731  0.0619  0.0763
  315POPC   C4B 4093   2.562   0.198   5.995  0.0277  0.0376 -0.1084
  316POPC   NC3 4094   0.535   9.715   3.524 -0.4680  0.0403  0.0461
  316POPC   PO4 4095   0.412   9.505   3.994  0.0576 -0.0311 -0.0229
  316POPC   GL1 4096   0.648   9.488   4.322 -0.0648  0.1055  0.0095
  316POPC   GL2 4097   0.709   9.801   4.388  0.1412  0.2391  0.3193
  316POPC   C1A 4098   0.808   9.383   4.768  0.2027  0.2625 -0.2207
  316POPC   D2A 4099   1.196   9.255   5.000  0.0233 -0.0614 -0.1179
  316POPC   C3A 4100   1.426   8.863   5.256  0.1551 -0.2427 -0.0950
  316POPC   C4A 4101   1.672   8.660   5.691  0.0543  0.1750 -0.3724
  316POPC   C1B 4102   0.524   9.918   4.817  0.4697 -0.0153  0.1866
  316POPC   C2B 4103   0.596  10.074   5.207 -0.1746 -0.2539  0.2371
  316POPC   C3B 4104   0.397  10.142   5.521  0.2207  0.1447 -0.0243
  316POPC   C4B 4105   0.240  10.147   5.931 -0.2641  0.0343  0.0054
  317POPC   NC3 4106   8.046   5.918   3.489  0.1258 -0.0978  0.1813
  317POPC   PO4 4107   8.395   5.688   3.327 -0.0827  0.0936 -0.1008
  317POPC   GL1 4108   8.580   5.725   3.691  0.0483 -0.2439  0.0001
  317POPC   GL2 4109   8.254   5.741   3.881  0.0113  0.1576 -0.2173
  317POPC   C1A 4110   8.702   5.737   4.172 -0.3396  0.0058 -0.0667
  317POPC   D2A 4111   8.598   5.702   4.562  0.0091  0.0907 -0.2689
  317POPC   C3A 4112   8.795   5.932   4.964  0.0040 -0.1748 -0.0753
  317POPC   C4A 4113   9.147   5.981   5.320 -0.0281  0.3785  0.1820
  317POPC   C1B 4114   8.333   5.379   4.180 -0.2059 -0.0099  0.1150
  317POPC   C2B 4115   8.624   5.247   4.530 -0.0402 -0.2253 -0.1487
  317POPC   C3B 4116   8.609   5.033   4.877  0.0236 -0.3942 -0.3217
  317POPC   C4B 4117   8.555   5.139   5.285  0.2381  0.0235 -0.0785
  318POPC   NC3 4118   7.564   3.693   3.682  0.2001  0.2102 -0.0412
  318POPC   PO4 4119   7.524   3.410   3.981  0.2711  0.3966 -0.0622
  318POPC   GL1 4120   7.464   3.361   4.389  0.1123 -0.1342 -0.0478
  318POPC   GL2 4121   7.429   3.031   4.335  0.0839  0.0255  0.0379
  318POPC   C1A 4122   7.182   3.365   4.643  0.0207 -0.0182 -0.1817
  318POPC   D2A 4123   7.105   3.337   5.119  0.0160  0.1890  0.1604
  318POPC   C3A 4124   7.272   3.670   5.361  0.0162 -0.2027 -0.1365
  318POPC   C4A 4125   7.272   4.002   5.749 -0.0241 -0.0605 -0.0699
  318POPC   C1B 4126   7.843   2.946   4.496  0.1345 -0.1698  0.0944
  318POPC   C2B 4127   7.978   2.973   4.986  0.0181 -0.2606  0.1673
  318POPC   C3B 4128   8.109   2.870   5.391 -0.0935 -0.2980 -0.3204
  318POPC   C4B 4129   8.288   2.519   5.596 -0.1783  0.0254 -0.3085
  319POPC   NC3 4130   8.690   1.131   3.319  0.1470 -0.1562  0.1592
  319POPC   PO4 4131   8.761   1.587   3.549 -0.0965  0.0348 -0.0672
  319POPC   GL1 4132   8.853   1.645   4.036  0.1121 -0.0718 -0.5342
  319POPC   GL2 4133   9.018   1.508   4.335 -0.4383  0.2695  0.4160
  319POPC   C1A 4134   8.582   1.601   4.361  0.2046  0.4288  0.1054
  319POPC   D2A 4135   8.608   1.806   4.759 -0.2378  0.0569  0.3047
  319POPC   C3A 4136   8.906   1.746   5.014 -0.1594  0.0745  0.1305
  319POPC   C4A 4137   9.097   1.337   5.198 -0.1592  0.1054 -0.1382
  319POPC   C1B 4138   8.935   1.309   4.702  0.0561  0.1542  0.3647
  319POPC   C2B 4139   8.757   0.973   4.866 -0.1054 -0.1808 -0.2365
  319POPC   C3B 4140   8.583   0.833   5.215 -0.2836 -0.1925 -0.1139
  319POPC   C4B 4141   8.627   0.813   5.673 -0.0057 -0.0711 -0.0984
  320POPC   NC3 4142   2.386   3.080   3.377 -0.0640 -0.0841  0.2118
  320POPC   PO4 4143   2.293   3.415   3.598 -0.0052 -0.1605 -0.1932
  320POPC   GL1 4144   2.265   3.444   4.010 -0.0657 -0.3022 -0.0203
  320POPC   GL2 4145   2.021   3.291   4.223  0.3534 -0.2063 -0.1622
  320POPC   C1A 4146   2.405   3.465   4.522 -0.2054  0.3736 -0.0415
  320POPC   D2A 4147   2.550   3.346   5.029 -0.0394 -0.0220 -0.3832
  320POPC   C3A 4148   2.191   3.265   5.262 -0.0023  0.0127  0.2412
  320POPC   C4A 4149   1.952   2.947   5.015 -0.1336  0.1222  0.1325
  320POPC   C1B 4150   1.867   3.235   4.654  0.4740  0.2616 -0.0399
  320POPC   C2B 4151   1.867   3.528   5.015  0.0582  0.0955 -0.2576
  320POPC   C3B 4152   1.736   3.651   5.439  0.0177 -0.3490 -0.0980
  320POPC   C4B 4153   1.902   3.376   5.802 -0.0099 -0.0252  0.2308
  321POPC   NC3 4154   2.004   4.263   3.276 -0.0003  0.2363 -0.0143
  321POPC   PO4 4155   1.941   4.760   3.571  0.3111  0.5169  0.1127
  321POPC   GL1 4156   1.709   4.343   3.798  0.0976 -0.0082  0.2989
  321POPC   GL2 4157   1.940   4.443   4.009  0.1244  0.1075  0.0641
  321POPC   C1A 4158   1.576   4.040   4.042 -0.0160  0.1046  0.1478
  321POPC   D2A 4159   1.362   3.959   4.406 -0.1240 -0.2240  0.0961
  321POPC   C3A 4160   1.432   4.005   4.752 -0.1074 -0.0358  0.1223
  321POPC   C4A 4161   1.592   3.972   5.102  0.1759 -0.1309  0.0239
  321POPC   C1B 4162   1.926   4.284   4.447 -0.0682 -0.3124 -0.1860
  321POPC   C2B 4163   1.976   4.259   4.888  0.3750  0.0468  0.0876
  321POPC   C3B 4164   1.976   4.149   5.376  0.2058 -0.0235  0.1772
  321POPC   C4B 4165   1.967   4.013   5.729 -0.2542 -0.0308 -0.1342
  322POPC   NC3 4166   2.137   6.018   3.719  0.0678  0.2349 -0.1892
  322POPC   PO4 4167   2.306   6.463   3.818 -0.0927  0.2472 -0.2507
  322POPC   GL1 4168   2.304   6.553   4.257  0.3170  0.1868  0.3814
  322POPC   GL2 4169   1.966   6.615   4.313  0.0395 -0.1770 -0.1590
  322POPC   C1A 4170   2.518   6.827   4.619  0.1162  0.3642 -0.0500
  322POPC   D2A 4171   2.316   7.101   4.706  0.1290  0.0983 -0.2775
  322POPC   C3A 4172   1.978   7.174   4.702  0.0191 -0.2735 -0.0592
  322POPC   C4A 4173   1.482   7.070   4.788 -0.2257  0.0296  0.2317
  322POPC   C1B 4174   2.078   6.654   4.769  0.0411 -0.0067  0.0967
  322POPC   C2B 4175   1.998   6.883   5.192 -0.2287 -0.1253 -0.0694
  322POPC   C3B 4176   1.764   7.149   5.357  0.0291  0.1690  0.0196
  322POPC   C4B 4177   1.538   7.544   5.488  0.0801 -0.0580 -0.1286
  323POPC   NC3 4178   8.742   1.172   3.823  0.1892  0.1555  0.0580
  323POPC   PO4 4179   8.666   0.803   3.670  0.0176 -0.1339  0.2007
  323POPC   GL1 4180   8.751   0.463   3.967 -0.1079  0.3988  0.3144
  323POPC   GL2 4181   9.093   0.441   3.897  0.1603  0.0685 -0.4423
  323POPC   C1A 4182   8.645   0.365   4.372  0.0898 -0.1426 -0.1948
  323POPC   D2A 4183   8.858   0.503   4.713  0.1616 -0.2877  0.0428
  323POPC   C3A 4184   8.631   0.393   5.068  0.0140 -0.3852  0.0446
  323POPC   C4A 4185   8.446   0.428   5.469  0.1198  0.0551  0.0743
  323POPC   C1B 4186   9.124   0.319   4.305  0.0957 -0.2411  0.1960
  323POPC   C2B 4187   9.309   0.325   4.724  0.0017 -0.0916 -0.0539
  323POPC   C3B 4188   9.195   0.254   5.094 -0.1585 -0.1997 -0.2134
  323POPC   C4B 4189   8.959   0.478   5.493  0.0584  0.0445  0.0561
  324POPC   NC3 4190   2.618   0.495   4.082  0.4205 -0.1948  0.0844
  324POPC   PO4 4191   2.210   0.660   4.169 -0.0605  0.1632 -0.3726
  324POPC   GL1 4192   2.419   0.574   4.556  0.0302 -0.1772  0.0013
  324POPC   GL2 4193   2.701   0.451   4.552  0.6049 -0.0938  0.0026
  324POPC   C1A 4194   2.495   0.607   4.944 -0.2320 -0.2844  0.0470
  324POPC   D2A 4195   2.606   0.777   5.353 -0.0650 -0.0759  0.0396
  324POPC   C3A 4196   2.437   1.089   5.561  0.1912  0.1552  0.2604
  324POPC   C4A 4197   2.202   1.330   5.864 -0.1654 -0.0240  0.2784
  324POPC   C1B 4198   2.563   0.066   4.740  0.1413 -0.4088 -0.0623
  324POPC   C2B 4199   2.346   0.105   5.209  0.1245  0.3591 -0.1587
  324POPC   C3B 4200   2.121   0.153   5.559  0.1971 -0.0743 -0.1202
  324POPC   C4B 4201   2.034   0.250   6.043 -0.0067 -0.1455  0.3772
  325POPC   NC3 4202   0.637   1.027   3.594 -0.2237 -0.0170  0.0247
  325POPC   PO4 4203   0.260   0.806   3.687  0.3867  0.0699 -0.4103
  325POPC   GL1 4204   0.386   1.072   4.083  0.2714 -0.1605 -0.0871
  325POPC   GL2 4205   0.230   1.033   4.464 -0.3671 -0.1270 -0.1649
  325POPC   C1A 4206   0.687   0.971   4.376  0.4133  0.3351 -0.3206
  325POPC   D2A 4207   0.859   0.680   4.754 -0.0005 -0.0131 -0.0441
  325POPC   C3A 4208   0.791   0.871   5.233 -0.2302  0.1602  0.2957
  325POPC   C4A 4209   0.926   1.110   5.631  0.2196  0.1953  0.2455
  325POPC   C1B 4210   0.424   0.851   4.859 -0.1955 -0.5206  0.3067
  325POPC   C2B 4211   0.282   0.621   5.215 -0.0660  0.0169 -0.1242
  325POPC   C3B 4212  -0.067   0.640   5.536  0.0521  0.1024  0.1948
  325POPC   C4B 4213  -0.341   0.380   5.522  0.0942  0.0210  0.1289
  326POPC   NC3 4214   6.385   1.676   4.085 -0.0188 -0.0668  0.1083
  326POPC   PO4 4215   6.152   2.067   4.045  0.3375  0.0618  0.3512
  326POPC   GL1 4216   6.142   2.176   4.450  0.0441  0.2477  0.2432
  326POPC   GL2 4217   6.113   2.357   4.596 -0.2638 -0.2245  0.1274
  326POPC   C1A 4218   5.971   1.755   4.806 -0.0186 -0.1008 -0.0709
  326POPC   D2A 4219   5.994   1.677   5.200  0.2672 -0.1848 -0.0301
  326POPC   C3A 4220   5.703   1.943   5.413 -0.1715  0.2690  0.1400
  326POPC   C4A 4221   5.707   2.387   5.469  0.2732 -0.0601 -0.2418
  326POPC   C1B 4222   6.221   2.147   5.016 -0.2684 -0.3427  0.1350
  326POPC   C2B 4223   6.161   2.024   5.525  0.1124  0.0095 -0.1490
  326POPC   C3B 4224   5.930   1.734   5.906 -0.0601 -0.0524  0.2693
  326POPC   C4B 4225   5.600   1.428   6.043  0.1170 -0.3609 -0.0740
  327POPC   NC3 4226   8.004   1.828   3.404  0.1296  0.3099  0.0060
  327POPC   PO4 4227   7.682   1.872   3.762  0.0901  0.3399 -0.4229
  327POPC   GL1 4228   7.818   1.701   4.256 -0.1462  0.3195  0.0778
  327POPC   GL2 4229   7.702   1.533   4.536  0.1490  0.2483 -0.3998
  327POPC   C1A 4230   8.100   1.667   4.626  0.0035 -0.0051 -0.1653
  327POPC   D2A 4231   8.164   1.788   5.055  0.0542  0.2420 -0.0971
  327POPC   C3A 4232   8.409   1.777   5.457 -0.2596 -0.0582 -0.1259
  327POPC   C4A 4233   8.956   1.750   5.635  0.0169  0.0425  0.2648
  327POPC   C1B 4234   7.685   1.642   4.944 -0.1082  0.0080  0.0436
  327POPC   C2B 4235   7.299   1.518   5.251 -0.1316  0.1004 -0.1234
  327POPC   C3B 4236   7.340   1.672   5.669  0.3674  0.0954 -0.1159
  327POPC   C4B 4237   7.395   1.459   6.116 -0.0368  0.0277 -0.2589
  328POPC   NC3 4238   5.248   9.882   3.666 -0.0441  0.0760 -0.0588
  328POPC   PO4 4239   5.546  10.118   3.775 -0.1224  0.3265  0.1723
  328POPC   GL1 4240   5.502   9.926   4.125 -0.0631 -0.1828  0.1855
  328POPC   GL2 4241   5.195   9.824   4.266 -0.2472  0.3599 -0.0553
  328POPC   C1A 4242   5.719  10.001   4.491 -0.0364  0.1343  0.3053
  328POPC   D2A 4243   5.698  10.177   4.857  0.1873  0.3968  0.3311
  328POPC   C3A 4244   5.306  10.137   5.084 -0.1083  0.1188  0.1796
  328POPC   C4A 4245   5.078  10.204   5.468 -0.1853 -0.0129 -0.2466
  328POPC   C1B 4246   5.198  10.145   4.585  0.2715 -0.2791  0.1720
  328POPC   C2B 4247   4.914  10.339   4.957 -0.4149 -0.1991 -0.1268
  328POPC   C3B 4248   4.761  10.609   5.393 -0.1455  0.0878  0.0736
  328POPC   C4B 4249   4.894  10.954   5.602  0.1949  0.1164  0.0336
  329POPC   NC3 4250  10.413   6.837   3.888  0.3115 -0.0394  0.0561
  329POPC   PO4 4251  10.793   6.631   3.934  0.1254 -0.0194 -0.1791
  329POPC   GL1 4252  10.643   6.454   4.220  0.0906  0.0471 -0.0158
  329POPC   GL2 4253  10.437   6.648   4.344 -0.0641  0.1676 -0.1497
  329POPC   C1A 4254  11.097   6.242   4.514 -0.2099  0.1034  0.0763
  329POPC   D2A 4255  11.255   6.027   4.874 -0.0109  0.0629  0.2856
  329POPC   C3A 4256  10.988   5.799   5.091 -0.0345 -0.0657 -0.1352
  329POPC   C4A 4257  10.578   6.017   5.187  0.1179  0.1834 -0.3248
  329POPC   C1B 4258  10.273   6.690   4.764 -0.3338  0.2797  0.0123
  329POPC   C2B 4259   9.963   6.738   5.121  0.0892  0.2985  0.1857
  329POPC   C3B 4260   9.615   6.471   5.373 -0.0646  0.1496  0.2758
  329POPC   C4B 4261   9.136   6.446   5.395 -0.0101  0.2885 -0.1151
  330POPC   NC3 4262   5.674   9.564   3.856  0.0874  0.0512  0.2170
  330POPC   PO4 4263   5.717   9.172   3.705  0.0385 -0.0335 -0.0227
  330POPC   GL1 4264   5.742   9.200   4.164  0.2560  0.2523 -0.0757
  330POPC   GL2 4265   5.511   9.363   4.301 -0.2524  0.2151  0.3394
  330POPC   C1A 4266   5.896   8.987   4.486 -0.0158  0.1101  0.0534
  330POPC   D2A 4267   5.870   8.558   4.687 -0.0269  0.1044  0.0248
  330POPC   C3A 4268   5.457   8.387   4.830  0.0246 -0.0742 -0.2399
  330POPC   C4A 4269   5.279   8.332   5.219  0.0455  0.3580 -0.2197
  330POPC   C1B 4270   5.428   9.432   4.619  0.1223  0.0577 -0.1167
  330POPC   C2B 4271   5.070   9.724   4.809  0.1542  0.1735 -0.0922
  330POPC   C3B 4272   4.930   9.763   5.247 -0.2874  0.0479  0.2204
  330POPC   C4B 4273   4.684   9.507   5.567  0.1179  0.0066 -0.1016
  331POPC   NC3 4274   7.687   6.162   3.244 -0.1349 -0.1729  0.2305
  331POPC   PO4 4275   7.510   6.410   3.528  0.3100  0.0610  0.0043
  331POPC   GL1 4276   7.410   6.657   3.823 -0.1661 -0.2271 -0.1146
  331POPC   GL2 4277   7.305   6.390   4.052  0.1966  0.1929  0.2810
  331POPC   C1A 4278   7.374   6.916   4.222  0.0313  0.2192  0.2529
  331POPC   D2A 4279   7.084   6.868   4.611 -0.1760 -0.1013 -0.0521
  331POPC   C3A 4280   7.291   7.049   5.082 -0.1204  0.2208 -0.0608
  331POPC   C4A 4281   7.562   7.285   5.429  0.1156  0.0890  0.2395
  331POPC   C1B 4282   7.235   6.390   4.461 -0.0743 -0.0015 -0.2625
  331POPC   C2B 4283   7.349   6.459   4.967  0.0912  0.2467  0.2423
  331POPC   C3B 4284   7.251   6.411   5.348 -0.1796 -0.2082 -0.1363
  331POPC   C4B 4285   7.358   6.527   5.878  0.2647 -0.1183  0.2190
  332POPC   NC3 4286   2.550   9.152   3.278 -0.1557 -0.0551 -0.3099
  332POPC   PO4 4287   2.249   9.332   3.680  0.3155 -0.0195  0.2720
  332POPC   GL1 4288   2.328   9.296   4.147  0.1363  0.0875  0.1845
  332POPC   GL2 4289   2.320   9.566   4.284 -0.1729  0.1248  0.0909
  332POPC   C1A 4290   2.730   9.288   4.418 -0.1243  0.1217  0.0906
  332POPC   D2A 4291   2.700   9.247   4.827 -0.0773 -0.1290  0.2842
  332POPC   C3A 4292   2.527   8.816   5.049  0.1230 -0.1544 -0.1844
  332POPC   C4A 4293   2.392   8.520   5.440  0.0433 -0.1353 -0.3704
  332POPC   C1B 4294   2.172   9.344   4.639  0.0064  0.1319  0.1245
  332POPC   C2B 4295   2.134   9.067   4.870  0.1632 -0.0665  0.0343
  332POPC   C3B 4296   2.240   9.223   5.216 -0.1644 -0.3529 -0.0919
  332POPC   C4B 4297   2.462   9.537   5.521  0.0809  0.3108 -0.1485
  333POPC   NC3 4298   2.587   3.907   2.914 -0.0605  0.2626 -0.2102
  333POPC   PO4 4299   2.324   3.900   3.253  0.2495 -0.2002  0.1626
  333POPC   GL1 4300   2.051   3.956   3.718 -0.0163 -0.0042 -0.0367
  333POPC   GL2 4301   1.797   3.638   3.819  0.1699 -0.1285 -0.1834
  333POPC   C1A 4302   2.070   3.864   4.184  0.0604  0.2378 -0.0922
  333POPC   D2A 4303   1.992   3.848   4.648 -0.1920  0.0012 -0.0623
  333POPC   C3A 4304   2.311   3.785   4.995  0.1466 -0.1670 -0.2475
  333POPC   C4A 4305   2.341   3.888   5.374 -0.0972  0.2534 -0.1095
  333POPC   C1B 4306   1.620   3.567   4.237  0.2595 -0.1584 -0.1598
  333POPC   C2B 4307   1.437   3.490   4.618 -0.2317 -0.0613  0.0694
  333POPC   C3B 4308   1.213   3.316   4.948 -0.0897  0.2607  0.0339
  333POPC   C4B 4309   1.350   3.575   5.145  0.3927 -0.4380 -0.0701
  334POPC   NC3 4310   8.011   3.990   3.541  0.1612  0.0031  0.2493
  334POPC   PO4 4311   8.228   3.668   3.638  0.0145  0.2697 -0.0517
  334POPC   GL1 4312   8.439   3.890   3.837 -0.0613  0.0612 -0.0638
  334POPC   GL2 4313   8.309   4.147   4.000 -0.0159 -0.0755  0.0677
  334POPC   C1A 4314   8.397   3.796   4.334 -0.0579  0.0455 -0.0310
  334POPC   D2A 4315   8.179   4.051   4.575 -0.4435  0.0123 -0.0050
  334POPC   C3A 4316   8.243   4.112   5.079 -0.3449 -0.1282  0.2457
  334POPC   C4A 4317   8.191   4.179   5.489  0.0422 -0.1577 -0.2253
  334POPC   C1B 4318   8.597   4.260   4.400 -0.0895 -0.0388  0.2794
  334POPC   C2B 4319   8.468   4.473   4.824  0.1001  0.1770  0.2308
  334POPC   C3B 4320   8.252   4.642   5.071 -0.0604 -0.1655 -0.2947
  334POPC   C4B 4321   8.343   4.658   5.462  0.1689 -0.1088  0.2536
  335POPC   NC3 4322   4.809  10.643   4.068  0.0233 -0.0842  0.0592
  335POPC   PO4 4323   4.449  10.883   4.089 -0.2305  0.1935  0.2097
  335POPC   GL1 4324   4.553  10.792   4.544  0.5032 -0.3492  0.1391
  335POPC   GL2 4325   4.920  10.819   4.531 -0.2642  0.2400  0.2120
  335POPC   C1A 4326   4.479  10.560   4.928  0.0820 -0.2945 -0.1301
  335POPC   D2A 4327   4.430  10.227   5.273  0.0721 -0.4458 -0.1938
  335POPC   C3A 4328   4.679  10.003   5.605  0.2150 -0.2254  0.0640
  335POPC   C4A 4329   4.900   9.904   5.867 -0.3536 -0.0724 -0.2095
  335POPC   C1B 4330   4.833  10.910   5.041 -0.0981  0.4973 -0.1131
  335POPC   C2B 4331   4.492  11.106   5.265 -0.0498  0.3676 -0.2108
  335POPC   C3B 4332   4.417  11.039   5.654 -0.2698 -0.1049  0.1292
  335POPC   C4B 4333   4.136  11.132   5.955 -0.2632  0.0963 -0.0351
  336POPC   NC3 4334   0.703   6.543   3.835  0.1741  0.1497 -0.0833
  336POPC   PO4 4335   0.666   6.960   3.914 -0.0487  0.0342 -0.3956
  336POPC   GL1 4336   0.447   6.747   4.162 -0.1471 -0.0701 -0.3138
  336POPC   GL2 4337   0.192   6.830   4.402 -0.0075 -0.2290 -0.0760
  336POPC   C1A 4338   0.584   6.689   4.607  0.1635  0.0504 -0.1313
  336POPC   D2A 4339   0.612   6.779   5.013  0.1907  0.1432  0.1516
  336POPC   C3A 4340   0.210   6.820   5.298 -0.0692  0.0915  0.0641
  336POPC   C4A 4341  -0.114   6.475   5.654  0.0460 -0.4038 -0.3387
  336POPC   C1B 4342   0.140   6.706   4.822  0.0061  0.2986 -0.0452
  336POPC   C2B 4343   0.287   6.383   5.013 -0.1665  0.1220 -0.1781
  336POPC   C3B 4344   0.241   6.267   5.338 -0.0506 -0.3811  0.0333
  336POPC   C4B 4345   0.022   5.982   5.661  0.2960  0.0329 -0.3955
  337POPC   NC3 4346   0.647   0.079   3.219  0.1245  0.0014  0.0861
  337POPC   PO4 4347   0.518  -0.065   3.613 -0.0694 -0.1790  0.2193
  337POPC   GL1 4348   0.585   0.014   4.086 -0.2367 -0.1200 -0.0514
  337POPC   GL2 4349   0.610   0.360   4.147 -0.3222 -0.1373 -0.0750
  337POPC   C1A 4350   0.630   0.221   4.639  0.0044 -0.2067 -0.1423
  337POPC   D2A 4351   0.606   0.329   5.041 -0.0713  0.2027 -0.2207
  337POPC   C3A 4352   0.364   0.130   5.249  0.1241  0.0247 -0.2196
  337POPC   C4A 4353  -0.024  -0.038   5.343 -0.0962  0.0256  0.1126
  337POPC   C1B 4354   0.273   0.525   4.545  0.3678  0.3458  0.0192
  337POPC   C2B 4355  -0.119   0.698   4.592 -0.1005 -0.0222  0.2670
  337POPC   C3B 4356  -0.584   0.628   4.715 -0.3791 -0.0485  0.0491
  337POPC   C4B 4357  -1.048   0.660   4.872 -0.2608  0.3681  0.0485
  338POPC   NC3 4358   2.678   6.022   3.952 -0.0994 -0.0656 -0.1361
  338POPC   PO4 4359   3.184   5.864   3.850 -0.0594  0.3699 -0.1565
  338POPC   GL1 4360   3.104   5.740   4.253 -0.0491  0.0739 -0.0877
  338POPC   GL2 4361   2.805   5.680   4.361  0.1763 -0.0476 -0.3024
  338POPC   C1A 4362   3.190   5.460   4.579  0.1890 -0.1027 -0.3089
  338POPC   D2A 4363   3.516   5.279   4.762  0.3872  0.2708 -0.0648
  338POPC   C3A 4364   3.902   5.472   5.010  0.0440 -0.1209  0.2016
  338POPC   C4A 4365   4.091   5.875   5.159 -0.2988 -0.1776 -0.1709
  338POPC   C1B 4366   2.723   5.842   4.695 -0.4253 -0.3221 -0.5580
  338POPC   C2B 4367   2.666   6.215   5.131 -0.2087 -0.2634  0.0103
  338POPC   C3B 4368   2.731   6.404   5.471 -0.0285 -0.0953 -0.0816
  338POPC   C4B 4369   2.896   6.908   5.658 -0.0367 -0.2529 -0.2617
  339POPC   NC3 4370   5.297   0.746   4.137  0.1418 -0.0255 -0.0498
  339POPC   PO4 4371   5.222   0.463   4.487 -0.3717 -0.1524 -0.1373
  339POPC   GL1 4372   5.550   0.340   4.816 -0.0783  0.1264  0.0725
  339POPC   GL2 4373   5.814   0.254   4.690  0.2582 -0.0213 -0.1476
  339POPC   C1A 4374   5.745   0.412   5.199  0.2308 -0.2018 -0.1107
  339POPC   D2A 4375   6.187   0.539   5.395  0.3386  0.0750 -0.2764
  339POPC   C3A 4376   6.250   1.003   5.689  0.2492 -0.1461 -0.0169
  339POPC   C4A 4377   6.313   1.422   5.530 -0.1379 -0.2915  0.0561
  339POPC   C1B 4378   5.801  -0.061   5.031  0.2197  0.2401 -0.1310
  339POPC   C2B 4379   5.597  -0.306   5.377 -0.0634 -0.1815 -0.0772
  339POPC   C3B 4380   5.693  -0.358   5.727  0.1368  0.1798 -0.2372
  339POPC   C4B 4381   5.334  -0.498   5.933  0.0176 -0.0024  0.2540
  340POPC   NC3 4382   5.348   3.328   3.814 -0.0676  0.0839  0.0050
  340POPC   PO4 4383   5.080   3.379   4.169 -0.0238 -0.1110  0.1312
  340POPC   GL1 4384   4.873   3.546   4.558 -0.0549  0.1866  0.0240
  340POPC   GL2 4385   4.628   3.833   4.314  0.0102  0.1668  0.0837
  340POPC   C1A 4386   4.684   3.686   4.905 -0.0590 -0.0173 -0.0885
  340POPC   D2A 4387   4.580   3.535   5.301 -0.0064 -0.2126  0.1974
  340POPC   C3A 4388   4.493   3.068   5.362  0.0923 -0.1220 -0.3477
  340POPC   C4A 4389   4.537   2.782   5.643 -0.0344 -0.0334 -0.1224
  340POPC   C1B 4390   4.361   4.064   4.654  0.3773 -0.0028  0.1574
  340POPC   C2B 4391   4.233   3.855   5.027  0.0083 -0.2311  0.2235
  340POPC   C3B 4392   4.343   3.972   5.421 -0.2051 -0.0297 -0.1482
  340POPC   C4B 4393   4.212   3.794   5.786 -0.0418  0.0659  0.0016
  341POPC   NC3 4394   6.348  10.417   4.048  0.0517 -0.4306  0.0872
  341POPC   PO4 4395   6.660  10.743   3.815  0.3097 -0.1299 -0.2135
  341POPC   GL1 4396   6.833  10.701   4.278 -0.0928  0.0119  0.1582
  341POPC   GL2 4397   6.585  10.708   4.396  0.2011 -0.1931 -0.0836
  341POPC   C1A 4398   7.176  10.463   4.556 -0.0221 -0.1146 -0.0007
  341POPC   D2A 4399   7.355  10.028   4.642 -0.1990 -0.2633 -0.0710
  341POPC   C3A 4400   7.445   9.666   4.942 -0.1556 -0.1890 -0.1885
  341POPC   C4A 4401   7.912   9.560   5.000 -0.1019  0.0714 -0.1781
  341POPC   C1B 4402   6.739  10.641   4.873 -0.0753 -0.0290 -0.0082
  341POPC   C2B 4403   6.891  10.559   5.303 -0.1980 -0.1016 -0.1703
  341POPC   C3B 4404   7.057  10.445   5.714  0.0255 -0.0350  0.1877
  341POPC   C4B 4405   6.986  10.192   6.103 -0.0898 -0.3638 -0.0812
  342W        W 4406   1.905  10.016   0.916 -0.1132 -0.1606  0.1557
  343W        W 4407   9.660   2.480   4.082 -0.1487 -0.0054 -0.1749
  344W        W 4408   2.840  10.713   9.084  0.3605 -0.0210  0.0783
  345W        W 4409   6.764   2.660   3.049  0.0930 -0.2392  0.1847
  346W        W 4410   0.495   9.102   0.233 -0.1199  0.2967 -0.0606
  347W        W 4411   6.870   4.932   7.488  0.0402 -0.4097 -0.0867
  348W        W 4412   6.762   9.967   0.955 -0.0064  0.0583 -0.4373
  349W        W 4413   6.539   3.098   3.100  0.1821 -0.2964 -0.1805
  350W        W 4414   6.129   3.974   1.673  0.0547 -0.3223 -0.0405
  351W        W 4415   3.007   7.080   0.995 -0.1160  0.1151 -0.0343
  352W        W 4416   7.970   8.985   3.638 -0.1062 -0.1255 -0.1398
  353W        W 4417   1.044   7.099   1.730 -0.0668  0.0372  0.1143
  354W        W 4418   0.458   1.996   2.399 -0.2065 -0.0359  0.0043
  355W        W 4419   9.686   0.948   8.090  0.0870  0.0206 -0.0192
  356W        W 4420   1.951   6.562  11.244  0.0019  0.0561  0.1890
  357W        W 4421   1.509   6.867  11.023 -0.0916  0.1031  0.0718
  358W        W 4422   2.603   7.070  10.984  0.0443  0.3372 -0.4253
  359W        W 4423  10.698   1.438   2.402  0.0671 -0.1357  0.6165
  360W        W 4424   4.756   4.449   2.210 -0.1310 -0.0934  0.0981
  361W        W 4425   7.497   7.219   9.907 -0.0725 -0.1036  0.1698
  362W        W 4426   5.145   0.387   1.297 -0.0570 -0.3125 -0.0712
  363W        W 4427   3.402   3.135   1.022 -0.3435 -0.1462 -0.3544
  364W        W 4428   5.606   8.444   1.177 -0.0197 -0.3052  0.0670
  365W        W 4429   0.578   7.749  10.390 -0.1409  0.0119  0.1135
  366W        W 4430   8.403   3.240   9.621 -0.3318 -0.1629 -0.1867
  367W        W 4431   3.445   3.423  10.588 -0.1381 -0.4467 -0.1470
  368W        W 4432   2.572   0.958   3.185 -0.0720  0.0462 -0.0673
  369W        W 4433   6.500   9.707   0.577 -0.0446  0.1825 -0.3898
  370W        W 4434   4.662   1.696  11.045  0.2860 -0.0688  0.4575
  371W        W 4435   5.602   2.082   9.031  0.0363 -0.0954  0.2367
  372W        W 4436   2.417   0.218   3.155 -0.0386  0.2519 -0.0541
  373W        W 4437   5.061   6.604   7.417 -0.0703 -0.0112  0.3446
  374W        W 4438   9.782  10.479   7.339 -0.2188 -0.3421 -0.1360
  375W        W 4439   3.403   1.394   8.734  0.3351  0.3376 -0.0278
  376W        W 4440  10.322   1.120   8.208 -0.1599  0.0635 -0.1039
  377W        W 4441   1.365   9.684   1.339 -0.0645 -0.0957  0.2966
  378W        W 4442   2.943   4.861   1.228 -0.1300 -0.1740  0.4696
  379W        W 4443   2.254   6.810   9.636 -0.0751 -0.0202  0.1402
  380W        W 4444   6.815   3.768  10.882 -0.1594 -0.0778 -0.3080
  381W        W 4445   6.788   7.950  11.358 -0.0408  0.0629  0.0213
  382W        W 4446   3.170   0.709   1.733 -0.0148 -0.3013 -0.3410
  383W        W 4447   1.891   1.326  11.307 -0.1199 -0.1170 -0.4044
  384W        W 4448   4.390   6.075   0.838  0.2989 -0.1560  0.1333
  385W        W 4449   2.988   8.847  10.435 -0.2307 -0.5756 -0.1054
  386W        W 4450   8.152   4.082  10.699 -0.0593 -0.0189 -0.1807
  387W        W 4451   8.159   4.393   8.910  0.1300  0.1105 -0.0636
  388W        W 4452   3.571   4.155   0.907 -0.0836  0.2756 -0.1180
  389W        W 4453   3.355   4.752   9.353  0.0939 -0.0419  0.0186
  390W        W 4454   0.829   9.697   9.474  0.2509 -0.1647  0.1954
  391W        W 4455   9.215   2.964   8.978 -0.1009  0.0049  0.0285
  392W        W 4456   4.975   5.394   7.690  0.1116 -0.3310 -0.1672
  393W        W 4457   4.163  10.149   2.793  0.3690  0.0882 -0.0749
  394W        W 4458   1.430   3.119  10.065  0.0936 -0.0962  0.0028
  395W        W 4459   3.542   0.666   8.960 -0.0692  0.0793  0.2629
  396W        W 4460  10.229   3.343   8.741 -0.2876  0.2577  0.0616
  397W        W 4461  10.119   2.410   9.485 -0.1094 -0.0175  0.1229
  398W        W 4462   3.529   8.365   9.536 -0.1761  0.1556  0.2372
  399W        W 4463   4.137   8.867   8.283  0.0980 -0.1094 -0.1944
  400W        W 4464   1.044   5.197   1.062 -0.1850  0.1604  0.1329
  401W        W 4465   3.851   4.361   9.597 -0.1382 -0.0678  0.1005
  402W        W 4466   8.346   5.586   2.708 -0.0370  0.0647 -0.0926
  403W        W 4467  10.035   9.051   8.207  0.0097  0.1379 -0.1085
  404W        W 4468   8.476   3.677   1.816 -0.0313 -0.1453 -0.2348
  405W        W 4469  10.128   3.197  10.230 -0.1406 -0.1888 -0.3187
  406W        W 4470   4.060   5.600   9.217 -0.1224 -0.0356  0.2118
  407W        W 4471  10.502   1.411   0.131 -0.0437 -0.2255  0.1712
  408W        W 4472   7.299   6.527  11.322  0.0607  0.0202  0.0373
  409W        W 4473   3.454   7.458   9.492  0.1378 -0.3344  0.0838
  410W        W 4474   4.370   2.211   1.605 -0.3864 -0.3523  0.1304
  411W        W 4475   5.322   5.631   2.328  0.1618 -0.1512  0.3556
  412W        W 4476   1.418   5.718   0.491  0.2765  0.1153  0.1675
  413W        W 4477   6.473   6.149   3.064  0.0247 -0.3730  0.1200
  414W        W 4478   3.048   3.818   2.447 -0.1958 -0.1276  0.1750
  415W        W 4479   0.173   8.197  10.298 -0.2507 -0.0462 -0.4965
  416W        W 4480   4.318   7.967   8.330 -0.2356  0.2851 -0.2213
  417W        W 4481   3.586   4.848   3.079 -0.3995  0.1429 -0.0338
  418W        W 4482   1.966   0.283   3.287  0.0563  0.2148 -0.2895
  419W        W 4483   7.601   7.578  10.836 -0.3245 -0.2382  0.1880
  420W        W 4484   0.822   8.003   8.717 -0.1833  0.0385 -0.2606
  421W        W 4485   5.720   4.594   3.531  0.0818 -0.0852 -0.3163
  422W        W 4486   3.905   5.247  11.128  0.2123 -0.0707 -0.2711
  423W        W 4487   6.658   8.712   9.477  0.1236 -0.2242  0.0541
  424W        W 4488   9.789   4.510   2.613  0.0418 -0.1088  0.1892
  425W        W 4489   6.582   4.234   0.213  0.2195 -0.0840 -0.1990
  426W        W 4490   1.717   1.647   0.405  0.2687  0.3515 -0.0196
  427W        W 4491   4.733   3.938  10.298 -0.0842 -0.0052  0.1785
  428W        W 4492   4.599   3.396   3.972 -0.0295  0.0507  0.2157
  429W        W 4493   5.448   4.067  10.332  0.0249  0.0239 -0.1510
  430W        W 4494   5.306   0.742   0.948 -0.0344  0.2262 -0.1304
  431W        W 4495   9.385   7.207   0.637 -0.1952 -0.1665 -0.0645
  432W        W 4496   5.412   6.562   0.831  0.1761 -0.1735  0.0596
  433W        W 4497   1.559   4.307   7.990 -0.2175 -0.1911  0.1608
  434W        W 4498   6.725   0.182   2.275 -0.1057  0.1384  0.2263
  435W        W 4499   3.355   1.492   1.009  0.1176 -0.1340  0.2700
  436W        W 4500   4.967   2.480   2.720 -0.0320  0.2905  0.0840
  437W        W 4501   4.264   4.584   9.279 -0.0389  0.0058  0.1402
  438W        W 4502   1.329   9.324   3.251 -0.2958  0.0043  0.0700
  439W        W 4503   2.752  10.277   9.316 -0.2844 -0.3042 -0.1085
  440W        W 4504   1.642   2.905   9.274  0.1661  0.2686 -0.3467
  441W        W 4505   9.917   0.871   2.707  0.1698  0.3098 -0.1515
  442W        W 4506   9.424   7.622   1.327 -0.1045 -0.3074  0.0641
  443W        W 4507   9.116   2.732   1.281 -0.0438  0.2846  0.0024
  444W        W 4508   1.449   8.970   9.273  0.3703 -0.0439 -0.1574
  445W        W 4509   8.964   7.803  10.774  0.5965 -0.2923 -0.0272
  446W        W 4510   8.090   7.585   2.280 -0.1571 -0.4197  0.0346
  447W        W 4511   9.265   1.019   9.991 -0.2866 -0.1637 -0.1879
  448W        W 4512   5.130   2.117   4.278 -0.2638 -0.1068 -0.0803
  449W        W 4513   3.237   0.766  11.220  0.3050  0.1108  0.1428
  450W        W 4514   2.783   5.327   1.707 -0.1486 -0.1254 -0.2678
  451W        W 4515   9.090   1.244   2.127 -0.1328 -0.1061  0.0983
  452W        W 4516   3.509   1.729   4.148  0.3273 -0.2567  0.0052
  453W        W 4517   6.639   8.740  10.524 -0.3091  0.0358 -0.2170
  454W        W 4518   8.243   9.156  10.135 -0.1435  0.2959 -0.1892
  455W        W 4519   3.764   9.225   0.545  0.2528 -0.1994  0.3054
  456W        W 4520   7.040   4.141  10.100 -0.1355 -0.0694 -0.2166
  457W        W 4521   8.053   8.478   8.912  0.0221 -0.3086  0.0484
  458W        W 4522   1.663   2.831   1.920 -0.0445 -0.0168  0.1529
  459W        W 4523   6.823   8.948  10.076 -0.0043 -0.1300  0.2156
  460W        W 4524   0.911   2.690   7.515  0.2846  0.0767 -0.1202
  461W        W 4525   6.040   9.864   2.300 -0.1549  0.1637 -0.2865
  462W        W 4526   3.119   0.637   9.269 -0.3417 -0.3550  0.0043
  463W        W 4527   0.107   4.943   1.464  0.1330  0.3948 -0.0814
  464W        W 4528   5.613   9.011   3.233 -0.0225  0.3542 -0.1381
  465W        W 4529   6.540   3.569   1.857  0.2119 -0.2531  0.0320
  466W        W 4530   6.213   2.869   9.940 -0.0481 -0.4428  0.0432
  467W        W 4531   2.204   3.045  10.984 -0.1946 -0.3717  0.0697
  468W        W 4532   6.062   0.207   8.462  0.1471 -0.0430  0.2881
  469W        W 4533   3.242   6.655   0.693 -0.3035  0.0745  0.0693
  470W        W 4534  10.583  10.154   0.710 -0.0928 -0.1651  0.3942
  471W        W 4535   7.052   1.802  10.550  0.0630  0.0452 -0.0140
  472W        W 4536  10.143   8.566   0.592 -0.4924 -0.0968  0.0138
  473W        W 4537   5.924   6.775   1.633 -0.2422  0.1132 -0.3466
  474W        W 4538   4.363   6.924   9.818  0.0682  0.1579 -0.0019
  475W        W 4539   9.357  10.335   2.227 -0.2151  0.1777 -0.2268
  476W        W 4540   3.477  10.398   3.873  0.2589 -0.2177 -0.0736
  477W        W 4541   8.995   2.734   2.762  0.1453 -0.1964 -0.1049
  478W        W 4542   7.338   1.319   1.743  0.2012  0.0206 -0.0665
  479W        W 4543   0.095   4.533   9.102  0.2561  0.3299  0.0179
  480W        W 4544   9.768   4.067   8.420 -0.0098 -0.0841  0.3635
  481W        W 4545   8.918   4.935   9.627  0.1900  0.2941  0.2540
  482W        W 4546   9.446   1.429  11.364 -0.0276  0.1122 -0.1862
  483W        W 4547   0.556   5.016   2.115 -0.1246 -0.0675  0.0486
  484W        W 4548  10.226   4.865   9.865 -0.1028  0.2909  0.2634
  485W        W 4549   9.873   2.899   1.239  0.1641 -0.1237  0.2807
  486W        W 4550   7.025   5.946   0.775 -0.2844 -0.2376  0.0117
  487W        W 4551   8.018   0.573  10.037 -0.0989 -0.2637 -0.0401
  488W        W 4552   7.184   8.214   2.678 -0.1319 -0.1370 -0.0770
  489W        W 4553   9.416   0.901   1.096  0.1829  0.1860 -0.1741
  490W        W 4554   3.909   3.086  10.173  0.0575  0.1763 -0.1175
  491W        W 4555   8.401   8.689   2.313 -0.0813 -0.0598  0.1292
  492W        W 4556   8.925   2.249   8.708  0.0763 -0.0254 -0.2831
  493W        W 4557   1.484   3.165   3.967  0.1185 -0.4972 -0.0659
  494W        W 4558   8.185   1.475   0.822 -0.0161 -0.0072 -0.1230
  495W        W 4559   3.958   7.736   1.657 -0.0077  0.0485  0.2685
  496W        W 4560   6.435  10.274   3.498 -0.3061  0.1178  0.2850
  497W        W 4561   2.383   2.568   4.237  0.0921 -0.0326  0.1327
  498W        W 4562   2.389   2.263   7.365  0.1003  0.1386 -0.2869
  499W        W 4563   2.934   5.531   8.688 -0.1575  0.4154  0.1525
  500W        W 4564   1.653   8.537   2.298  0.2203  0.1218 -0.3717
  501W        W 4565   6.263   9.572   8.379  0.0585  0.1013 -0.0339
  502W        W 4566   3.857   9.587   2.033 -0.0096  0.0595 -0.0150
  503W        W 4567   1.038   2.271  10.452  0.1142  0.0529 -0.0048
  504W        W 4568   8.605   8.612   0.808 -0.2533  0.2349  0.2694
  505W        W 4569   7.850   9.939   0.624 -0.0802  0.2172  0.1242
  506W        W 4570   9.450   0.483   8.899 -0.0517  0.0043 -0.2687
  507W        W 4571   2.646   0.751  11.372 -0.1692 -0.2595  0.0479
  508W        W 4572   8.203   5.832   0.017  0.0025  0.2497  0.0323
  509W        W 4573   1.997   6.990   8.615  0.0240  0.3179 -0.0992
  510W        W 4574   2.775   6.139   0.752 -0.0280 -0.1384 -0.2643
  511W        W 4575   1.343   7.074   1.275 -0.1180 -0.0073  0.0680
  512W        W 4576   4.468   4.034   3.067 -0.1670  0.1709 -0.1177
  513W        W 4577   8.961   5.665  11.202 -0.1165  0.1178  0.1238
  514W        W 4578  10.238   4.860   1.450 -0.3868 -0.1186  0.2016
  515W        W 4579   5.586   4.116   0.220 -0.0833 -0.1556  0.0228
  516W        W 4580   5.242   1.752   9.277  0.0281 -0.0079 -0.0568
  517W        W 4581   0.925   8.621   3.671 -0.3484 -0.2216  0.0642
  518W        W 4582   8.611   9.312   2.389  0.1542 -0.0773 -0.1880
  519W        W 4583   7.908   5.612   3.046 -0.3703  0.0908 -0.1948
  520W        W 4584  10.365  10.512   4.131  0.1468 -0.1101  0.0171
  521W        W 4585   1.324   7.128   3.724 -0.1227 -0.2597  0.0739
  522W        W 4586   9.844   6.679   2.913  0.5348 -0.1676  0.3212
  523W        W 4587   4.587   0.403   1.503 -0.0681 -0.3138  0.1175
  524W        W 4588   1.003   2.589   0.146 -0.1065 -0.3887  0.1618
  525W        W 4589   7.244   3.888  10.535 -0.0948  0.0673 -0.0241
  526W        W 4590   4.019   7.329   0.091  0.0256  0.0299  0.1703
  527W        W 4591   4.925  10.294  10.552  0.0997  0.0084  0.0555
  528W        W 4592   2.521   9.703  10.603 -0.0478  0.0757 -0.1278
  529W        W 4593   8.118   4.495  10.967 -0.2004  0.2129 -0.0854
  530W        W 4594   4.807   0.245   0.056 -0.2533 -0.1332  0.3246
  531W        W 4595  10.112   3.374  10.729  0.0645 -0.2194  0.6375
  532W        W 4596   0.279   1.683   1.980 -0.1335  0.1189 -0.0746
  533W        W 4597   5.654  10.632   0.645  0.0015 -0.1937 -0.1894
  534W        W 4598   4.442   4.463   2.571  0.1657  0.2559 -0.2237
  535W        W 4599   8.919   7.354   1.972 -0.1737 -0.2066 -0.2413
  536W        W 4600   5.664  10.545  10.422  0.0729 -0.2345  0.0256
  537W        W 4601   4.050   3.402   2.541  0.2299 -0.1166  0.1467
  538W        W 4602   0.655   0.310   9.142  0.0244 -0.2007  0.0627
  539W        W 4603   6.703   4.685   8.810 -0.0405 -0.4608 -0.5553
  540W        W 4604   6.487   1.672  10.843 -0.1671 -0.1804 -0.3243
  541W        W 4605   1.062   5.012   9.561 -0.0726 -0.0465  0.2132
  542W        W 4606   2.809   5.625   0.386 -0.0416 -0.2625  0.0511
  543W        W 4607   1.807   0.428  10.605  0.0259 -0.1401 -0.0162
  544W        W 4608   6.573   2.705   0.401  0.0574  0.0951  0.0007
  545W        W 4609   6.513   8.368   7.989  0.1486  0.0606  0.1458
  546W        W 4610   4.157   4.095  11.387  0.1950 -0.1300 -0.2776
  547W        W 4611   2.055   2.131   1.292  0.3111  0.2418 -0.0084
  548W        W 4612   6.132   1.846  10.090  0.2838 -0.0698  0.4224
  549W        W 4613   8.896   3.134  10.337  0.0218  0.2495 -0.1510
  550W        W 4614   8.387   1.745   8.745 -0.0582 -0.1428  0.0571
  551W        W 4615   7.206   6.356   1.096 -0.0055 -0.0914  0.2602
  552W        W 4616   4.723   3.120   4.424  0.0518 -0.2910  0.2731
  553W        W 4617   4.627   8.985   2.595  0.0854 -0.1628 -0.0017
  554W        W 4618   0.613   2.227  10.112  0.2031  0.1093 -0.2064
  555W        W 4619   7.625   5.583   8.398 -0.2701  0.2120  0.0446
  556W        W 4620   3.298   6.144   2.472  0.1251  0.2618 -0.0093
  557W        W 4621   6.588   7.785   2.313  0.1476  0.0047 -0.3578
  558W        W 4622   6.131   4.953  11.391 -0.0570 -0.0938 -0.2517
  559W        W 4623   8.191   6.060   3.028  0.1063  0.5577 -0.0390
  560W        W 4624   3.080   8.518  11.357  0.2156 -0.2533 -0.1984
  561W        W 4625   8.222   8.107   8.542 -0.1626 -0.0910 -0.2218
  562W        W 4626   8.825  10.091   1.809 -0.1693  0.1590  0.0745
  563W        W 4627   2.501   8.110   2.095 -0.2925 -0.0433 -0.0677
  564W        W 4628   1.270  10.038   0.325 -0.1186 -0.3026  0.0043
  565W        W 4629   6.664   6.288   9.550  0.1419 -0.0241 -0.0800
  566W        W 4630   0.513   6.190   9.433  0.4359 -0.0577 -0.0512
  567W        W 4631   6.054   7.006   8.920  0.0741 -0.0675 -0.0635
  568W        W 4632   4.795   3.355   9.082  0.3397 -0.1097 -0.0324
  569W        W 4633   7.964   9.161   4.164 -0.1908 -0.0369  0.3860
  570W        W 4634   2.308   3.919   8.076 -0.1721 -0.4111 -0.0107
  571W        W 4635   6.797   3.567   2.743 -0.0095 -0.1496 -0.2283
  572W        W 4636   9.259   2.735  10.751 -0.1878  0.0231  0.0314
  573W        W 4637   9.925   5.492  11.409 -0.1513  0.0074  0.0250
  574W        W 4638   3.937   4.796  10.630 -0.0666 -0.0076  0.0105
  575W        W 4639   4.044   7.464   7.085 -0.1461  0.3137  0.2325
  576W        W 4640   4.814   0.801   1.208  0.2181  0.0099 -0.0669
  577W        W 4641   9.604   1.027  10.583  0.1997 -0.1565  0.1012
  578W        W 4642   6.463  10.197  10.433 -0.0246  0.2655 -0.0510
  579W        W 4643   2.243   2.018   2.829 -0.0337 -0.2841 -0.0080
  580W        W 4644   1.262   8.556  10.054 -0.0926 -0.1155  0.1962
  581W        W 4645   2.479   2.392   1.406  0.1028  0.0845  0.3287
  582W        W 4646   3.242   6.730   0.142  0.3464 -0.1589 -0.4088
  583W        W 4647   6.958   5.260   0.011  0.1750  0.2928  0.0774
  584W        W 4648   3.329   1.526   1.969 -0.2258  0.0767  0.0337
  585W        W 4649   8.262   9.366   1.524 -0.0826  0.2323  0.0190
  586W        W 4650   0.673   1.731   2.849  0.1949 -0.1554  0.0630
  587W        W 4651   2.722   3.134   2.967  0.2479 -0.1390  0.1357
  588W        W 4652   1.904   8.511   9.647 -0.0991  0.3660 -0.0539
  589W        W 4653   0.769   8.274  10.170  0.0320  0.1380 -0.1431
  590W        W 4654   8.264   9.874   7.658  0.1175 -0.0988  0.2123
  591W        W 4655   8.849   1.221   9.020 -0.0545  0.1686 -0.0188
  592W        W 4656   3.204   8.189   3.920 -0.0602  0.2638  0.1722
  593W        W 4657   1.035   8.697   9.358  0.1876  0.1544  0.0708
  594W        W 4658   1.154   9.787   8.466 -0.1354 -0.4762  0.0575
  595W        W 4659   5.283   4.379   0.652 -0.4899  0.2298 -0.1145
  596W        W 4660   1.778   0.116   2.441  0.2127 -0.1545  0.1282
  597W        W 4661   0.079   4.926   0.947 -0.3425 -0.1058 -0.0304
  598W        W 4662   6.720   7.285  10.762 -0.0554 -0.0269  0.1953
  599W        W 4663   0.793   3.476   1.903 -0.2515  0.1538  0.0331
  600W        W 4664   6.400   3.575  10.725  0.0287 -0.1044  0.0761
  601W        W 4665   3.480   7.681   4.163  0.2303  0.1446  0.0779
  602W        W 4666  10.450   2.498   3.602  0.3552  0.4150  0.1805
  603W        W 4667   1.301   0.803   0.456 -0.0519  0.0431 -0.0379
  604W        W 4668   3.886   8.058   2.009 -0.0009 -0.0736 -0.0247
  605W        W 4669   9.557   2.563   1.472 -0.3138 -0.1128  0.1879
  606W        W 4670   5.563   2.791  11.041 -0.2226 -0.1127  0.0725
  607W        W 4671   0.633   3.609  10.579  0.0789  0.0254 -0.2855
  608W        W 4672   2.124   8.638   1.014 -0.1174 -0.1081  0.1804
  609W        W 4673   9.884   9.528   0.816  0.1640  0.4664 -0.0421
  610W        W 4674   4.934   5.948   1.559 -0.1677  0.0698  0.0054
  611W        W 4675   6.023   8.625   1.361  0.0708  0.1470  0.1762
  612W        W 4676   0.681   9.102  10.122 -0.0346 -0.1768  0.3306
  613W        W 4677   1.904   7.745  10.825  0.1136  0.2727  0.3290
  614W        W 4678   6.022   8.061   0.491  0.1818  0.0282 -0.2201
  615W        W 4679   0.421   8.464   1.230  0.0343 -0.0586 -0.1220
  616W        W 4680  10.612   2.280   0.705  0.2051 -0.0977 -0.0972
  617W        W 4681   8.587   0.030   8.019  0.0826 -0.0295  0.0476
  618W        W 4682   3.266  10.033   2.638 -0.0207 -0.2361 -0.0915
  619W        W 4683   2.157   2.814   9.535  0.0950 -0.1413  0.1011
  620W        W 4684   0.317   0.729   8.031  0.2620  0.1084  0.2759
  621W        W 4685   1.251   1.424   3.146 -0.2603 -0.0526  0.0962
  622W        W 4686   5.454   0.918  11.291 -0.4203 -0.2256 -0.1794
  623W        W 4687   1.338   8.467   1.695  0.1077  0.2914 -0.0227
  624W        W 4688   5.882   0.565   0.014 -0.0935 -0.4730 -0.0610
  625W        W 4689   1.154   2.170   3.762 -0.1347 -0.1282 -0.2924
  626W        W 4690   7.256  10.043   4.136  0.0561 -0.1803  0.0648
  627W        W 4691   0.845   8.769   8.389  0.1337 -0.0817  0.2183
  628W        W 4692   9.143   6.766  10.418  0.3135 -0.0335  0.2606
  629W        W 4693  10.576   9.578   2.819  0.0033 -0.1321 -0.0076
  630W        W 4694   5.324   4.527   8.364  0.2290  0.1864 -0.0871
  631W        W 4695   0.363   6.638   9.856 -0.1786 -0.0682 -0.1790
  632W        W 4696   8.630   8.684   9.115 -0.0937  0.1309 -0.0352
  633W        W 4697   7.927   9.572   1.856  0.0428  0.1311  0.1632
  634W        W 4698   9.475   4.730   2.077 -0.0193 -0.0491  0.3548
  635W        W 4699   3.533   3.211   8.394 -0.2317 -0.0779  0.2893
  636W        W 4700  10.615   4.369   1.416  0.1109  0.0603  0.1410
  637W        W 4701   0.562   6.782  11.386  0.1208 -0.0418 -0.0886
  638W        W 4702  10.177   4.030   1.940 -0.1418  0.2928  0.2727
  639W        W 4703   2.579   2.741   3.737 -0.2378  0.0469 -0.2994
  640W        W 4704  10.390   5.843  10.230 -0.1535  0.2218  0.0043
  641W        W 4705   8.075   7.076   2.243  0.0336 -0.2016 -0.1857
  642W        W 4706   0.224   1.271   3.439 -0.0956 -0.1412  0.3241
  643W        W 4707   3.911   4.314   7.362  0.1752 -0.0561 -0.0415
  644W        W 4708   8.869   0.825   2.451 -0.3934 -0.0019 -0.0108
  645W        W 4709   1.574   4.574   1.865 -0.0761  0.1337  0.0084
  646W        W 4710   6.741   6.241   2.206  0.0495  0.0319 -0.2394
  647W        W 4711   9.935   1.039   8.492  0.1901 -0.1801 -0.1131
  648W        W 4712   7.482   4.420   2.541  0.1048 -0.3167 -0.1389
  649W        W 4713   2.940   2.673   1.577 -0.1079  0.0274 -0.3377
  650W        W 4714   2.098   6.123  10.964 -0.0467 -0.0640 -0.3707
  651W        W 4715   6.245  10.528   1.629  0.0260  0.1073  0.0307
  652W        W 4716   7.209   0.606   0.149 -0.3024 -0.1127 -0.0757
  653W        W 4717   6.085   8.624   8.115 -0.0712 -0.3505  0.0605
  654W        W 4718   6.675   2.220   2.759  0.0822  0.1862  0.0029
  655W        W 4719   7.543  10.563   7.700 -0.1330 -0.1489  0.0948
  656W        W 4720   4.117   2.219   2.193 -0.1159  0.0544 -0.0514
  657W        W 4721   5.152   5.938   2.812  0.3484 -0.3830  0.5402
  658W        W 4722   3.562   4.095   8.774  0.2079  0.3211  0.0112
  659W        W 4723  10.649   4.060   1.793  0.0304  0.0863  0.1110
  660W        W 4724   6.486   3.351   2.390  0.1303  0.0435 -0.0559
  661W        W 4725   6.552   6.488   8.043  0.1737  0.1180  0.0691
  662W        W 4726   2.879   1.566   1.302 -0.1161 -0.0184  0.2451
  663W        W 4727  10.367   1.310  10.937 -0.2015 -0.1311  0.2410
  664W        W 4728   2.926   2.326  10.250 -0.0998 -0.1659  0.0756
  665W        W 4729   4.503   5.802   1.901  0.3139 -0.0481 -0.0580
  666W        W 4730   1.815   1.462   0.882 -0.2573 -0.1704  0.2097
  667W        W 4731   0.341   4.135   1.499  0.0981 -0.1304  0.0839
  668W        W 4732   4.046   0.006  10.353 -0.1916 -0.3409  0.1592
  669W        W 4733   2.367   6.796   3.439  0.0101 -0.0452  0.2941
  670W        W 4734   7.800   9.502   2.850 -0.0848 -0.0226  0.2933
  671W        W 4735   4.627   4.611   1.273  0.0803 -0.1663 -0.3624
  672W        W 4736   6.507   2.935   2.039  0.4089  0.0234 -0.1415
  673W        W 4737   0.626   4.880  10.230  0.1698 -0.0859 -0.0113
  674W        W 4738   3.476   5.449  11.113  0.0497 -0.1891 -0.0662
  675W        W 4739   3.910   7.509  10.507  0.2362 -0.2308  0.0013
  676W        W 4740   6.581   7.745  10.016  0.0272 -0.0252  0.1601
  677W        W 4741   1.950   2.674   3.488  0.2538  0.2430  0.2356
  678W        W 4742   2.442   4.157  10.101 -0.2004  0.1539  0.1660
  679W        W 4743   4.295   6.519  10.063  0.0376  0.0035 -0.2042
  680W        W 4744   1.953   2.141   8.656 -0.0797  0.1352 -0.0454
  681W        W 4745   8.506   2.791  11.345 -0.0508  0.2367  0.1159
  682W        W 4746   3.881   4.922   1.620 -0.1232 -0.0714  0.0409
  683W        W 4747   3.604   4.366   2.860 -0.3143 -0.0426 -0.1339
  684W        W 4748   8.691   0.562  11.399  0.0874 -0.0940 -0.0762
  685W        W 4749   1.100   5.469   8.223  0.1772 -0.0329 -0.1493
  686W        W 4750   6.535   2.619  10.849 -0.3858 -0.4863  0.0986
  687W        W 4751   1.201   8.303  10.976 -0.1333 -0.2149 -0.2465
  688W        W 4752   3.239   2.655  10.313  0.1654 -0.0641 -0.5143
  689W        W 4753   9.630   6.831   8.956  0.4603 -0.1161 -0.1825
  690W        W 4754   1.562   1.123   8.405  0.1789 -0.2861 -0.1940
  691W        W 4755   6.186   1.203  10.855 -0.0625 -0.6551  0.0510
  692W        W 4756   4.496   0.237  10.216  0.0324  0.0524 -0.0610
  693W        W 4757   5.379   8.887  10.492 -0.1998  0.5440 -0.0459
  694W        W 4758   4.901   0.994   0.749  0.1806 -0.0777 -0.1199
  695W        W 4759   4.888  10.383   8.860 -0.0173  0.3398 -0.2949
  696W        W 4760   9.025   9.685  11.194 -0.2567 -0.0702 -0.1134
  697W        W 4761  10.234   4.177   8.277  0.0159 -0.4395  0.0862
  698W        W 4762   1.944   5.222   9.756  0.1715  0.2797 -0.0185
  699W        W 4763   4.322   4.201   1.229 -0.0325  0.0944  0.1146
  700W        W 4764   4.289   1.026   2.472 -0.0047 -0.4015  0.0070
  701W        W 4765   6.342   6.497   2.364 -0.0487 -0.0293  0.1388
  702W        W 4766   1.310   3.676   8.611  0.0428  0.0162 -0.2385
  703W        W 4767   1.486   0.770   9.652  0.0451 -0.0517 -0.0709
  704W        W 4768   6.284   5.092   2.997 -0.1645 -0.2150  0.1188
  705W        W 4769   2.641   0.663  10.294 -0.0884 -0.1749 -0.0387
  706W        W 4770   8.213   6.074   1.890  0.0212  0.2934 -0.0979
  707W        W 4771   0.054   1.252   1.940  0.2250 -0.0874  0.0485
  708W        W 4772   0.307   3.073  10.756 -0.3119 -0.0591 -0.1396
  709W        W 4773   2.078  10.563  11.335 -0.0279  0.2566 -0.1342
  710W        W 4774   2.267   8.444   8.939  0.0357 -0.1535 -0.1730
  711W        W 4775   7.505   0.302   3.334  0.1750  0.1228  0.0534
  712W        W 4776   1.327   9.476   1.981 -0.4993  0.0615  0.1525
  713W        W 4777   0.862   7.601   9.052 -0.1680 -0.2217 -0.1788
  714W        W 4778   6.905   2.230  11.348  0.2921 -0.3073 -0.0110
  715W        W 4779   2.501   8.631   3.373  0.0917 -0.4005  0.3607
  716W        W 4780   3.096   9.945   9.489  0.0264  0.0080  0.0922
  717W        W 4781   2.768   8.098   7.883 -0.2168 -0.1073 -0.0598
  718W        W 4782   6.058   6.333   1.832  0.0385  0.0362 -0.2744
  719W        W 4783   4.360   2.333  10.292  0.3556 -0.1298 -0.0357
  720W        W 4784   6.324   8.345   9.348  0.0431 -0.0398 -0.3691
  721W        W 4785   9.447   6.280   0.602 -0.0086 -0.0669  0.2241
  722W        W 4786   9.081   7.342   3.276 -0.1148 -0.7945 -0.0270
  723W        W 4787   2.169   5.409   9.083 -0.0502  0.1460  0.1472
  724W        W 4788   7.757   5.495   0.248 -0.0637  0.3658  0.2668
  725W        W 4789   7.568   8.834   8.243 -0.0639 -0.1672  0.4953
  726W        W 4790   1.009   9.434   9.948 -0.1293 -0.0315  0.1216
  727W        W 4791   6.750   6.336   0.711 -0.1505 -0.1755 -0.1344
  728W        W 4792  10.704   2.692   1.449  0.0795 -0.1945 -0.0378
  729W        W 4793   9.479   1.484   2.965 -0.0154  0.1560  0.2550
  730W        W 4794   7.015   0.990  10.675  0.3598  0.0832  0.1372
  731W        W 4795   3.934   5.766   1.902 -0.1629  0.0259 -0.0717
  732W        W 4796   1.801   3.434   2.833  0.0324 -0.0761 -0.1591
  733W        W 4797   6.004   4.896  10.489  0.1496 -0.1510  0.2663
  734W        W 4798   3.753   4.929   9.560  0.0537  0.2089  0.4283
  735W        W 4799   7.053   2.896   8.458 -0.1674  0.0760 -0.2229
  736W        W 4800   4.067   2.531   9.874  0.3351  0.3582 -0.5591
  737W        W 4801   9.628   5.112   9.210  0.2162 -0.3341 -0.0982
  738W        W 4802   9.890   1.038   9.651  0.2693 -0.2824 -0.2719
  739W        W 4803   0.627   3.946   1.910  0.3784  0.2772  0.2627
  740W        W 4804   7.880   0.845   9.613 -0.2136  0.0166 -0.1144
  741W        W 4805   4.454   2.133   8.215  0.0189 -0.2954  0.0883
  742W        W 4806   6.343   4.796   1.864  0.0923 -0.0438 -0.3039
  743W        W 4807   7.633   6.468   8.163 -0.1087 -0.3619 -0.0900
  744W        W 4808   2.019   2.665   8.991  0.0347 -0.1698 -0.0687
  745W        W 4809   4.928   4.448  10.114  0.3743  0.4355  0.1582
  746W        W 4810   2.810   9.473   0.842  0.2732 -0.0987 -0.1669
  747W        W 4811  10.607   8.826   8.693  0.0921 -0.4670 -0.4330
  748W        W 4812   7.368   8.352   8.271 -0.0455 -0.0121 -0.1868
  749W        W 4813   2.488   3.432   8.307  0.2530  0.1380  0.0719
  750W        W 4814   1.823   5.616   8.710 -0.1416 -0.3482  0.1391
  751W        W 4815   5.039   0.560   1.833  0.1980 -0.1304 -0.0886
  752W        W 4816   9.538   7.525   0.066 -0.0663 -0.0509  0.2441
  753W        W 4817   6.458  10.339   1.262 -0.0216  0.0643  0.2763
  754W        W 4818   4.115   3.032   2.960 -0.1375 -0.0188  0.1458
  755W        W 4819   8.437   9.294   0.358  0.1730  0.0359  0.0683
  756W        W 4820   1.661   8.925  10.357 -0.0876 -0.0480 -0.0966
  757W        W 4821   1.312   7.894   8.945 -0.0152  0.1800  0.1543
  758W        W 4822   2.276   3.904   0.036 -0.0670 -0.0047  0.0390
  759W        W 4823   3.739   2.986   2.626 -0.1804 -0.1392  0.2008
  760W        W 4824   1.488   5.011   1.287  0.1231  0.1158 -0.0246
  761W        W 4825   8.001   8.876   1.196 -0.1822  0.2322  0.2394
  762W        W 4826   5.744   8.016  10.882  0.3731 -0.2135  0.0899
  763W        W 4827   9.290   6.172  10.379  0.2420  0.0865  0.4875
  764W        W 4828   0.193   6.621   8.017  0.0931  0.0770  0.0023
  765W        W 4829   2.726   3.498   3.334 -0.1253 -0.1298  0.6190
  766W        W 4830   4.410   9.316   2.201  0.0362 -0.1539 -0.2524
  767W        W 4831   6.030   9.161   2.356 -0.0580 -0.1817 -0.1867
  768W        W 4832   8.008   6.877   1.048 -0.2090  0.0371 -0.1345
  769W        W 4833   1.234   7.701   9.652  0.2022  0.3945  0.2754
  770W        W 4834   2.514   4.828   2.825 -0.3086 -0.0091 -0.3528
  771W        W 4835   5.672   7.038  11.308  0.0634 -0.1841 -0.1100
  772W        W 4836   2.290   4.392   3.677 -0.0418 -0.1774  0.1134
  773W        W 4837   5.616   7.457   0.271 -0.4214  0.0879 -0.0086
  774W        W 4838   5.070   9.883   1.771 -0.0055  0.2418 -0.0268
  775W        W 4839   4.008   3.924   2.835  0.1531  0.2097  0.0919
  776W        W 4840   3.719   9.238   3.040 -0.0410  0.0217  0.0571
  777W        W 4841   5.553   2.608   0.669  0.0068 -0.0685  0.1552
  778W        W 4842   4.938   5.371   4.243  0.0739  0.1977  0.0517
  779W        W 4843   3.877   4.409   0.640 -0.0842  0.4039  0.0774
  780W        W 4844   5.635   3.815   3.251  0.1755  0.1330 -0.4341
  781W        W 4845   0.833   0.416  10.139  0.0699  0.2630 -0.0272
  782W        W 4846   4.229   1.202   7.604 -0.2089 -0.0243  0.0394
  783W        W 4847   8.418   3.198   1.770 -0.1878  0.0936  0.0318
  784W        W 4848   9.357  10.446   8.238 -0.1334  0.1253 -0.1536
  785W        W 4849   2.334   9.354   9.185 -0.2083  0.0367 -0.0336
  786W        W 4850   9.406   6.258   2.457  0.2549  0.2971  0.1119
  787W        W 4851   2.884   8.887   3.070  0.0336  0.3359 -0.0506
  788W        W 4852   1.994  10.522   1.256 -0.0833 -0.0426 -0.2970
  789W        W 4853   6.046   4.680   2.582  0.3194  0.4844  0.1347
  790W        W 4854   0.610   2.138   8.315 -0.0038  0.0840  0.0434
  791W        W 4855   8.502   8.139   2.895  0.1603 -0.0696 -0.0097
  792W        W 4856   6.286   4.443  11.321 -0.1387  0.1435 -0.2063
  793W        W 4857   4.138   0.494   9.281  0.0041  0.3406 -0.0575
  794W        W 4858   7.245   1.364   9.287  0.1991  0.0102 -0.1608
  795W        W 4859   4.255  10.219  11.315 -0.0889  0.0825  0.0351
  796W        W 4860   8.157   0.883   1.264 -0.1545 -0.2796 -0.1119
  797W        W 4861   4.303  10.718   1.660  0.3547 -0.1176 -0.1318
  798W        W 4862   2.175   3.183   8.715  0.0705  0.0119  0.0680
  799W        W 4863   2.270   0.404   8.122  0.0026  0.0879 -0.2658
  800W        W 4864   1.206   6.133  10.649  0.1607 -0.0377 -0.1883
  801W        W 4865   5.104   1.267   1.145 -0.1252 -0.2826 -0.0333
  802W        W 4866   7.038   9.163  10.866  0.1085  0.0112 -0.2927
  803W        W 4867   2.346   4.395   0.061 -0.1475 -0.0952 -0.1267
  804W        W 4868  10.149   6.264  10.796  0.1973 -0.0484 -0.1134
  805W        W 4869   4.863   6.677   2.302  0.1903  0.1067 -0.0969
  806W        W 4870   9.552   7.262   9.177 -0.3084 -0.1299  0.2420
  807W        W 4871   8.624   2.229  10.507 -0.0784 -0.1402 -0.1396
  808W        W 4872   3.387   9.806  11.354 -0.3800 -0.3464  0.0269
  809W        W 4873   8.008   8.122   0.453  0.2268 -0.0986  0.4770
  810W        W 4874   8.782   9.132   0.775  0.0534 -0.0903 -0.0179
  811W        W 4875   4.027   3.955   0.847  0.2571  0.0650 -0.1771
  812W        W 4876   5.551   3.021   1.069 -0.1869  0.0108  0.1257
  813W        W 4877   0.250   4.427  10.529 -0.0777 -0.0226 -0.2719
  814W        W 4878   1.415   2.819   0.867 -0.0631  0.0899  0.1756
  815W        W 4879   8.562   1.468   1.161 -0.0279  0.0825 -0.1131
  816W        W 4880  10.318   0.634   2.218 -0.0156 -0.5384 -0.0076
  817W        W 4881   2.433   8.945   0.113 -0.0148 -0.1711  0.0551
  818W        W 4882   2.639   8.225   9.350  0.0668 -0.1556  0.2403
  819W        W 4883   9.968   9.796   2.721 -0.4332 -0.1520 -0.0746
  820W        W 4884   0.334   4.852   7.466  0.1671 -0.0743  0.0086
  821W        W 4885   8.009   6.039   1.206 -0.0195  0.0168  0.1124
  822W        W 4886   4.221   5.902   2.288 -0.1358  0.2072 -0.4012
  823W        W 4887   3.496   5.622   7.522  0.1488  0.2514  0.0575
  824W        W 4888   0.310   1.682  10.129  0.0817  0.0286 -0.2028
  825W        W 4889   8.559   6.445   0.388 -0.0591  0.3488 -0.0044
  826W        W 4890   7.183   1.445   0.893 -0.0389 -0.1482 -0.1193
  827W        W 4891   7.235   5.400   7.944  0.0565  0.0592 -0.0661
  828W        W 4892   1.178   5.953   8.306 -0.1095 -0.0470 -0.2172
  829W        W 4893   3.893   8.450  10.376 -0.0161 -0.1476  0.1124
  830W        W 4894   5.806   5.392   3.269 -0.1997 -0.2669  0.2334
  831W        W 4895   3.444   1.030   2.040 -0.1578  0.2373 -0.3649
  832W        W 4896   5.419   7.510   1.857  0.3294  0.1573  0.0913
  833W        W 4897   1.822  10.212   3.582 -0.0846  0.1075  0.1843
  834W        W 4898   9.155   1.333   3.336 -0.0472  0.0483  0.1063
  835W        W 4899   1.907   2.542   2.239 -0.0573 -0.0005 -0.1437
  836W        W 4900   9.938   0.584   0.322  0.0766 -0.1221 -0.0041
  837W        W 4901   7.520   0.407   1.984  0.3557 -0.0855  0.0713
  838W        W 4902   1.079   3.909   2.734 -0.2927 -0.0530  0.1025
  839W        W 4903   9.900   9.453   0.274  0.0265 -0.0555 -0.0668
  840W        W 4904   2.722   8.681   9.060  0.0659  0.2083 -0.0551
  841W        W 4905   2.816   9.201   8.299  0.1067 -0.0009  0.3422
  842W        W 4906   8.608   6.915  10.392  0.1542  0.0038  0.2344
  843W        W 4907   3.313   1.280   0.552 -0.2300 -0.0109  0.3061
  844W        W 4908   8.636   8.033   7.857  0.0674  0.1769  0.2053
  845W        W 4909   0.140   8.236   3.776 -0.0338 -0.1377  0.0175
  846W        W 4910   2.711   2.326  10.676  0.1641 -0.2334 -0.0619
  847W        W 4911   8.788   8.893   2.080 -0.0164  0.2966  0.0411
  848W        W 4912  10.681   6.214   0.520 -0.0246 -0.1563 -0.5264
  849W        W 4913   2.413   4.972   0.928  0.0154  0.3158 -0.2510
  850W        W 4914   0.496   0.506   8.419  0.1148  0.0303 -0.2206
  851W        W 4915   2.358   6.810  10.550  0.1016  0.0483  0.1553
  852W        W 4916   1.639   9.997  11.029 -0.2259  0.2716 -0.2383
  853W        W 4917   3.958   0.232   9.900 -0.0433 -0.0510  0.2199
  854W        W 4918   1.505   5.634   9.104  0.1973  0.0256  0.0381
  855W        W 4919   4.914  10.128   7.139  0.2077  0.0919 -0.1314
  856W        W 4920   5.591   2.227   0.252  0.1622  0.0626 -0.0044
  857W        W 4921   5.796   5.949   7.903 -0.0713  0.0247 -0.3442
  858W        W 4922   3.321   4.669  11.146  0.0814 -0.1440 -0.2566
  859W        W 4923   8.057   0.455   3.139 -0.1126  0.0892  0.1236
  860W        W 4924   6.195   9.324   4.258 -0.1291 -0.0871  0.1624
  861W        W 4925   1.986  10.494   9.074 -0.1069 -0.2638  0.0138
  862W        W 4926   7.241   1.522   3.060 -0.0103  0.0206  0.0013
  863W        W 4927   5.398   7.930  10.480 -0.1410  0.0574  0.0504
  864W        W 4928   3.502   7.258  10.396  0.0345  0.0877  0.1120
  865W        W 4929   6.714   7.265   0.057  0.1874 -0.2219 -0.3100
  866W        W 4930   3.552   9.799   8.363 -0.2431 -0.1009  0.3616
  867W        W 4931   5.968   2.942   0.075 -0.0359 -0.3141 -0.0604
  868W        W 4932   3.095   0.524   1.216 -0.0567  0.2394  0.0993
  869W        W 4933   0.724   3.519   0.952  0.2296  0.1457  0.1557
  870W        W 4934   3.734   2.189   4.006  0.0798  0.1639  0.0335
  871W        W 4935   2.377   8.052   3.144  0.2195  0.1344 -0.0458
  872W        W 4936   3.161   7.569   1.118 -0.0497 -0.1000  0.3220
  873W        W 4937   2.408   6.313   2.960  0.3715 -0.0413 -0.1200
  874W        W 4938   8.522   4.754  11.202  0.2002  0.0121  0.0473
  875W        W 4939   0.982   1.434   0.884  0.2275 -0.1930 -0.1098
  876W        W 4940   7.132   9.232   1.613 -0.0415  0.1935 -0.0059
  877W        W 4941   2.703   7.404   0.796  0.0151 -0.1744 -0.1306
  878W        W 4942   1.731   6.106  11.318 -0.1016 -0.0364 -0.1606
  879W        W 4943   4.274   3.818  10.372 -0.1873 -0.2072  0.0333
  880W        W 4944   1.397   2.983   1.505 -0.0887 -0.1739  0.0039
  881W        W 4945   5.585   8.524   8.087  0.4524  0.0972 -0.1667
  882W        W 4946   5.240   3.450   9.294  0.0776 -0.2479 -0.0671
  883W        W 4947   4.578   4.282  10.566  0.1094  0.0086 -0.3521
  884W        W 4948   0.402   9.058   1.071 -0.1588  0.2897  0.0440
  885W        W 4949   3.582   6.651  10.174  0.0355  0.0077  0.0711
  886W        W 4950   6.027  10.327  11.283 -0.0276 -0.1189  0.2910
  887W        W 4951   2.697   7.378   8.226 -0.1570  0.0549 -0.1655
  888W        W 4952   5.273   2.951   1.582 -0.1827  0.0039  0.0406
  889W        W 4953   0.778   4.497  10.526 -0.3315 -0.0805  0.2403
  890W        W 4954   0.412   7.624   1.192  0.2698  0.1345 -0.0817
  891W        W 4955   4.433   9.454   0.172  0.3458  0.0256  0.1698
  892W        W 4956   7.727   8.117   8.745  0.1275 -0.0478 -0.2147
  893W        W 4957   8.347   9.563   0.795 -0.0485 -0.0948 -0.1742
  894W        W 4958   5.372   1.186   3.823  0.3011 -0.1900  0.0153
  895W        W 4959   4.472   5.814   3.432  0.0778  0.1534  0.1470
  896W        W 4960   6.909   4.984   9.309 -0.0047  0.2422 -0.3127
  897W        W 4961   6.910   9.449   8.771  0.1076 -0.1619  0.0284
  898W        W 4962   3.500   7.033   0.435 -0.0672  0.0971 -0.0545
  899W        W 4963   0.776   5.879  10.920  0.0953  0.0713  0.1025
  900W        W 4964   1.641   3.420  10.528 -0.3289  0.0626  0.0801
  901W        W 4965   3.062   2.029  11.105  0.0344 -0.2399 -0.1007
  902W        W 4966   7.134   9.611  10.994 -0.0971 -0.0580 -0.0223
  903W        W 4967   5.711   3.501   0.774  0.2013  0.2083 -0.0591
  904W        W 4968   2.124  10.547   3.427  0.1045  0.1148  0.1799
  905W        W 4969   2.982   5.134   0.211  0.1569 -0.0145 -0.1956
  906W        W 4970   7.640  10.263   9.888  0.0091  0.0452 -0.0942
  907W        W 4971   9.376   6.952  10.883  0.0419  0.0586  0.1789
  908W        W 4972   8.874   1.388   1.590  0.0101  0.1363  0.1350
  909W        W 4973   9.716   4.098   1.162 -0.1334  0.1530  0.0118
  910W        W 4974   2.172   1.755   0.030  0.1983  0.3813  0.1980
  911W        W 4975  10.234   9.557   9.855  0.1032  0.2463  0.2324
  912W        W 4976   1.410   1.720   0.887 -0.0097  0.2205  0.0012
  913W        W 4977   0.364   9.907  10.432 -0.0186  0.2781 -0.2102
  914W        W 4978   6.324   7.617   1.903 -0.0566 -0.0591  0.0495
  915W        W 4979   1.687   1.987  11.322  0.0764  0.0457  0.1357
  916W        W 4980   2.058   0.738   9.771  0.1569 -0.3622 -0.3245
  917W        W 4981   7.591   7.390   8.432 -0.0453  0.1275  0.1459
  918W        W 4982  10.113   9.346   2.226 -0.0849  0.3523  0.0837
  919W        W 4983   3.860   1.541   0.795  0.2043  0.0297  0.1421
  920W        W 4984  10.430   3.317   8.245  0.3208  0.2329  0.1699
  921W        W 4985   9.672   2.791   0.051 -0.2170  0.0738  0.1683
  922W        W 4986   2.123   3.871  10.915  0.0291  0.0591  0.0524
  923W        W 4987   8.736   5.677   7.848  0.0558  0.2532 -0.1695
  924W        W 4988   2.852   0.586   8.534  0.1512  0.1716 -0.1084
  925W        W 4989   4.267   0.239   0.968 -0.0528 -0.0395 -0.2055
  926W        W 4990   6.720  10.414   2.551  0.0186 -0.0245 -0.0104
  927W        W 4991   2.205   3.673  10.085 -0.1356  0.1036 -0.0171
  928W        W 4992   2.507   0.908   8.806  0.2934  0.0487 -0.0541
  929W        W 4993   2.793   5.029   2.443 -0.2523  0.5421  0.2526
  930W        W 4994   5.663  10.253   0.265  0.0642 -0.1229  0.3624
  931W        W 4995   2.675  10.178  10.774 -0.0394 -0.0477 -0.2464
  932W        W 4996   5.213   7.158   9.353 -0.1172  0.2507 -0.2659
  933W        W 4997   2.422   1.774   1.983  0.1592  0.1819 -0.1691
  934W        W 4998   7.904   0.240   9.100  0.1796  0.3784  0.1964
  935W        W 4999   3.046   4.358   9.725  0.0221  0.3182  0.0976
  936W        W 5000   4.577   9.243   9.856  0.1847 -0.3989  0.0569
  937W        W 5001   8.246   2.365   0.338 -0.2272 -0.1112 -0.1637
  938W        W 5002   8.740   7.468   0.669  0.0278  0.1555  0.1703
  939W        W 5003   0.175   2.026   1.086 -0.0263 -0.0509  0.1322
  940W        W 5004   8.816   0.416   8.652  0.0306  0.1591  0.0869
  941W        W 5005   1.019   9.030   7.984  0.0424 -0.1125 -0.0287
  942W        W 5006   7.080   9.196   1.058 -0.0525  0.2310  0.0352
  943W        W 5007   7.706   0.599   1.530  0.0655  0.0670 -0.0483
  944W        W 5008   2.590   4.997   7.937 -0.1605 -0.0581  0.3017
  945W        W 5009  10.258   2.259   2.010  0.0708  0.0498  0.1904
  946W        W 5010   6.091   1.698   2.819  0.0796 -0.0004  0.1569
  947W        W 5011   2.542   4.745   2.096 -0.3905  0.1200 -0.0648
  948W        W 5012   0.112   9.284   8.525  0.0704  0.0182  0.2618
  949W        W 5013  10.560   4.176   8.702 -0.0138 -0.1602  0.5185
  950W        W 5014   1.672   8.901   9.848 -0.0580 -0.0932 -0.1714
  951W        W 5015   3.039   8.491   2.199  0.3517  0.1890  0.1227
  952W        W 5016   2.739   8.765  10.021  0.1015  0.1368  0.1474
  953W        W 5017   5.299   5.699  10.756 -0.0318 -0.1288  0.0131
  954W        W 5018   2.104   6.513   8.301 -0.0086 -0.0603  0.0118
  955W        W 5019   1.084   1.371   1.708 -0.1591  0.0268  0.0173
  956W        W 5020   4.321   8.139   1.651 -0.2058  0.0915 -0.1175
  957W        W 5021   8.985   6.625  11.417  0.2003  0.2054  0.0946
  958W        W 5022   1.748   9.102  10.820 -0.3209 -0.2764 -0.1517
  959W        W 5023   7.376   4.932  11.323 -0.1192 -0.2696  0.1127
  960W        W 5024   6.246   9.417   9.260  0.2621  0.0001  0.1108
  961W        W 5025   9.583   6.085  10.925  0.0569 -0.1252  0.1553
  962W        W 5026   4.940   3.883   3.901  0.1043 -0.0852 -0.0417
  963W        W 5027  10.561  10.545   2.859  0.0067 -0.2469 -0.1123
  964W        W 5028   4.914   6.962   9.690  0.2273 -0.2072  0.0661
  965W        W 5029   0.183   5.862   8.874  0.1705  0.0244 -0.0703
  966W        W 5030   6.910   9.140   2.696  0.2415  0.1447  0.1475
  967W        W 5031   5.071   0.265   3.256  0.2622 -0.1782  0.0623
  968W        W 5032   4.507   3.256   8.341  0.0885 -0.4344 -0.0805
  969W        W 5033   6.557   8.700   2.034  0.0402 -0.1693  0.0183
  970W        W 5034   6.376   0.828   8.403 -0.1106 -0.0013 -0.2280
  971W        W 5035   5.106  10.556   1.038 -0.2222  0.1136  0.0350
  972W        W 5036   7.519   9.393   8.812 -0.0335 -0.0512 -0.2980
  973W        W 5037   0.915   1.151   1.273  0.3794 -0.2731 -0.0044
  974W        W 5038   8.774   4.259   2.582  0.0249 -0.2562 -0.2261
  975W        W 5039   8.733   9.438  10.837 -0.0205  0.1362 -0.0944
  976W        W 5040   9.969   1.414  10.488 -0.0694 -0.0323  0.0715
  977W        W 5041   7.831   7.462   3.507 -0.1397 -0.0485  0.3196
  978W        W 5042   5.161   9.974   8.741  0.0190 -0.0283  0.2275
  979W        W 5043   9.283   2.977   9.672  0.0253  0.0618 -0.0594
  980W        W 5044   8.822   1.514   3.012 -0.2392 -0.0296 -0.0009
  981W        W 5045   9.575   9.738   9.196  0.0341  0.0817 -0.0825
  982W        W 5046   1.604   4.800   9.642  0.1775  0.3896  0.1601
  983W        W 5047   1.770   8.711   1.420 -0.3218 -0.1237 -0.1466
  984W        W 5048   7.189   4.611  10.274  0.4008  0.1324  0.0337
  985W        W 5049   3.765   3.131   7.913  0.0582  0.1405  0.0688
  986W        W 5050   5.024   5.213   3.779 -0.2255 -0.2375  0.0444
  987W        W 5051  10.372   1.645   2.830 -0.1041 -0.1458  0.3447
  988W        W 5052   0.864   7.077   9.046 -0.0797 -0.0851 -0.2377
  989W        W 5053  10.485   5.019   2.678 -0.1322 -0.3124  0.1448
  990W        W 5054   7.700   9.095   0.806 -0.1284  0.2765 -0.1997
  991W        W 5055   4.213   6.001   8.931 -0.1345 -0.0916  0.0527
  992W        W 5056   5.961  10.257   2.026  0.0012  0.0283 -0.3769
  993W        W 5057  10.276  10.027   9.882  0.0056 -0.0361  0.4461
  994W        W 5058   3.349   2.933   1.472 -0.1794  0.1774  0.2042
  995W        W 5059   1.874   7.161   1.108  0.0945 -0.0659  0.3032
  996W        W 5060   9.063   0.834   8.760 -0.1131  0.0065 -0.0593
  997W        W 5061   0.479   9.782   1.703  0.2926 -0.0287 -0.2431
  998W        W 5062   2.624   6.402  10.337  0.1526  0.1685 -0.2100
  999W        W 5063   0.929   7.273   2.204 -0.0748  0.1924  0.4775
 1000W        W 5064   1.052   3.974   9.598 -0.0223  0.0759 -0.0799
 1001W        W 5065   5.302   0.663   0.283  0.0020  0.1074  0.1919
 1002W        W 5066   4.360   6.116  10.309  0.0187 -0.1280  0.0796
 1003W        W 5067   8.790   0.819   9.495 -0.0979 -0.1255 -0.2697
 1004W        W 5068   2.938   1.187   0.162 -0.1645 -0.2535  0.1186
 1005W        W 5069  10.109   8.455   9.714  0.0347  0.1504 -0.2786
 1006W        W 5070   9.826   4.858   8.708 -0.1394  0.1506 -0.0800
 1007W        W 5071   4.771   0.234   0.911  0.0757 -0.0231 -0.1598
 1008W        W 5072   2.825   7.829   2.930  0.0334 -0.1898 -0.0805
 1009W        W 5073   2.899   2.558   3.019 -0.2168  0.0346  0.0618
 1010W        W 5074   3.443   2.238   0.364  0.0783 -0.2427  0.0796
 1011W        W 5075   6.000   6.507   8.794 -0.1631  0.1421 -0.0461
 1012W        W 5076   4.917   8.252   2.004  0.2673 -0.0196  0.0662
 1013W        W 5077   9.425   8.700   1.349 -0.1092  0.2852 -0.2703
 1014W        W 5078   0.541   3.026   3.743  0.2275 -0.1679 -0.1545
 1015W        W 5079   0.213   6.571   3.506 -0.2378  0.1425  0.1036
 1016W        W 5080  10.233   6.565   2.106 -0.1874  0.0295 -0.2052
 1017W        W 5081   2.222   1.011  11.158  0.1172  0.1522  0.1975
 1018W        W 5082   6.719   5.875   9.743  0.0541 -0.0817  0.0811
 1019W        W 5083   6.988   9.069   3.185 -0.2404 -0.2299  0.2289
 1020W        W 5084   8.960   4.555  10.280  0.0683  0.3357  0.1350
 1021W        W 5085   9.518   8.624   3.706  0.0435  0.0266  0.0066
 1022W        W 5086   2.254   8.665  10.034  0.0392 -0.0511  0.4068
 1023W        W 5087   4.018   1.058   0.114 -0.1248  0.0084 -0.0656
 1024W        W 5088   8.242   3.336   0.153 -0.3209  0.0678  0.0877
 1025W        W 5089   3.400   4.997   1.544  0.2945  0.0990 -0.1624
 1026W        W 5090   9.977   9.378   1.758 -0.1420  0.0737 -0.0573
 1027W        W 5091   9.848   3.310  11.151  0.3074 -0.1460 -0.0136
 1028W        W 5092   7.290   5.099   0.346  0.1833 -0.1824  0.0203
 1029W        W 5093   7.362  10.630   9.905 -0.0535 -0.1937  0.2257
 1030W        W 5094   4.744   9.159  10.537 -0.2853 -0.0563  0.0244
 1031W        W 5095   0.828   1.857  11.022 -0.4072  0.1021  0.1182
 1032W        W 5096   0.501  10.365  10.593 -0.1075  0.2269  0.1544
 1033W        W 5097   4.602   1.631   1.663  0.0820  0.2096  0.0557
 1034W        W 5098   1.835   0.549   2.759  0.1153 -0.0491 -0.1383
 1035W        W 5099   2.548   5.461   0.002  0.2725  0.0231 -0.1455
 1036W        W 5100   1.797   2.799   9.878 -0.0847 -0.0921  0.0399
 1037W        W 5101   4.739   6.670   8.349 -0.0348  0.2210  0.3792
 1038W        W 5102   4.903   7.439   8.713 -0.2645 -0.1459  0.0482
 1039W        W 5103   1.273   1.010   9.274 -0.1172 -0.0170  0.1957
 1040W        W 5104   0.598   4.467  11.308  0.2938  0.0959  0.1159
 1041W        W 5105   3.151   4.502   0.887  0.2268 -0.2836  0.1287
 1042W        W 5106   1.789   6.753   9.704  0.0210  0.3501 -0.0122
 1043W        W 5107   3.542   0.154   2.311  0.0257 -0.1934 -0.0368
 1044W        W 5108   2.465   0.204  11.298  0.0394  0.0770  0.3020
 1045W        W 5109   2.182   4.595   1.159 -0.0659 -0.2430  0.2333
 1046W        W 5110   0.708   8.432   7.989  0.1738  0.1644 -0.0729
 1047W        W 5111   1.300  10.006   4.209  0.0599  0.0717 -0.2618
 1048W        W 5112   1.692   4.853  10.989 -0.0480  0.0105 -0.0539
 1049W        W 5113   0.935   4.127   0.067 -0.2597  0.2399  0.3738
 1050W        W 5114   1.029   0.456   0.080 -0.3971 -0.2866 -0.4389
 1051W        W 5115   2.108   4.573   1.650  0.0182  0.2309  0.2890
 1052W        W 5116   5.096   3.948  11.371  0.0354 -0.0759 -0.0817
 1053W        W 5117   8.862   8.994   1.555 -0.1143 -0.0608 -0.1050
 1054W        W 5118   1.808   7.715   8.786 -0.0555 -0.1817 -0.0786
 1055W        W 5119   5.518   5.203   2.562  0.2046 -0.1002 -0.0635
 1056W        W 5120   1.281  10.670   9.659  0.1339 -0.1205 -0.1137
 1057W        W 5121   3.596   6.538   2.641  0.1726 -0.2856 -0.1597
 1058W        W 5122   8.670   0.955   1.320  0.0118  0.0554 -0.0606
 1059W        W 5123  10.032   3.742   1.054 -0.2457 -0.0192 -0.0710
 1060W        W 5124   7.885   6.940  10.059 -0.2910  0.0266  0.1137
 1061W        W 5125   7.723   8.506  10.617  0.4389 -0.0938  0.0164
 1062W        W 5126   4.764   2.381   9.396 -0.1184 -0.0413  0.0534
 1063W        W 5127   0.990   3.216   8.431 -0.0121 -0.1584 -0.1789
 1064W        W 5128   0.739   3.999   8.488  0.0295 -0.0816  0.0425
 1065W        W 5129   3.637   5.911   0.316 -0.1273  0.0892 -0.0643
 1066W        W 5130   9.040   6.307   2.775 -0.1015 -0.2007 -0.2266
 1067W        W 5131   0.267   4.573  10.052  0.2143  0.3031  0.1233
 1068W        W 5132   5.924   5.080   1.813  0.3628 -0.1007 -0.0055
 1069W        W 5133   1.591   8.859   1.869  0.1843 -0.2253 -0.0010
 1070W        W 5134   2.086  10.559  10.478  0.1233  0.2615  0.2152
 1071W        W 5135   3.884   3.974   3.798 -0.1117 -0.0335 -0.2351
 1072W        W 5136   2.395   9.901   0.178 -0.0321  0.1846  0.0343
 1073W        W 5137   5.460  10.522   1.921 -0.1865 -0.0359  0.1178
 1074W        W 5138   8.743   2.712   1.624  0.3025 -0.4118  0.0747
 1075W        W 5139   0.754   2.071   3.398 -0.1556  0.2517 -0.3696
 1076W        W 5140   7.576   5.066   9.102 -0.1652  0.2738 -0.3304
 1077W        W 5141   9.560   1.295   3.592 -0.4037 -0.0417  0.1128
 1078W        W 5142   4.890   0.744   8.326 -0.0262  0.0215  0.3265
 1079W        W 5143   8.583   9.099   3.178  0.0621  0.1845  0.2506
 1080W        W 5144   4.038   1.899   3.537  0.0124  0.2309 -0.0481
 1081W        W 5145   1.815   8.361   1.761  0.1013 -0.2359  0.0420
 1082W        W 5146   6.867   5.889   9.272 -0.0360  0.0234  0.1618
 1083W        W 5147   8.877   9.100   7.736 -0.1214 -0.1408  0.0887
 1084W        W 5148   3.884   3.185   8.756 -0.1607  0.1666  0.0705
 1085W        W 5149   7.993   9.083   8.124 -0.4150 -0.0105 -0.1440
 1086W        W 5150   6.686   7.541   3.078 -0.1782 -0.0970 -0.0612
 1087W        W 5151   3.530   8.305   3.550 -0.2130  0.4234 -0.1400
 1088W        W 5152   7.693   3.865  10.751 -0.0046 -0.2431 -0.1620
 1089W        W 5153   6.190   8.959   3.917 -0.0890  0.3290  0.1422
 1090W        W 5154   9.845   5.324   3.123 -0.1501  0.1979  0.0125
 1091W        W 5155   3.220   5.997   0.541  0.1919  0.2364  0.0827
 1092W        W 5156   3.840   2.664   2.251 -0.0984  0.0607  0.0414
 1093W        W 5157   8.086   3.382  10.498 -0.2468 -0.0272 -0.0795
 1094W        W 5158   8.376   1.086   2.418 -0.0725 -0.0119  0.0371
 1095W        W 5159   1.480   6.913   2.817 -0.0891 -0.0234  0.1099
 1096W        W 5160   1.568  10.208  10.472  0.0684  0.2329 -0.0985
 1097W        W 5161   8.736   0.844  10.994  0.3129 -0.0100 -0.2221
 1098W        W 5162   0.948   1.139   2.594 -0.0506  0.0097 -0.0589
 1099W        W 5163   9.009   2.090   3.680 -0.1197 -0.0785 -0.2162
 1100W        W 5164   9.552  10.379   8.793  0.0389  0.0622 -0.1496
 1101W        W 5165   9.742   1.909   8.972 -0.0443 -0.0133 -0.0033
 1102W        W 5166   7.192   7.437  10.567 -0.0212 -0.0694  0.3004
 1103W        W 5167   4.132   8.305   0.074  0.0251 -0.1026 -0.0068
 1104W        W 5168   0.006   1.000   9.621  0.0711 -0.0344  0.1459
 1105W        W 5169   3.071   8.547   2.738 -0.2553 -0.1152 -0.0684
 1106W        W 5170   1.845   5.371   2.068 -0.1728  0.5535 -0.2057
 1107W        W 5171   7.025   1.591   9.966 -0.1024 -0.0188 -0.2480
 1108W        W 5172   9.282   8.074   0.369 -0.0068  0.0681  0.1919
 1109W        W 5173  10.031   0.979   1.832 -0.3194  0.1909  0.1267
 1110W        W 5174   8.761   3.666   3.554 -0.0668 -0.1358  0.1410
 1111W        W 5175   2.951   4.595   0.323  0.2784 -0.1693 -0.1475
 1112W        W 5176   9.838   0.114  10.129  0.5041  0.1430 -0.2169
 1113W        W 5177   5.784   7.102   1.239  0.0062  0.1784  0.1160
 1114W        W 5178   1.185   2.876   8.686  0.0871 -0.0714 -0.0464
 1115W        W 5179   5.175   7.717   8.008 -0.2627 -0.3212 -0.3490
 1116W        W 5180   9.942   9.842  11.334  0.0691  0.4234 -0.3705
 1117W        W 5181   8.955   3.643   1.897  0.3378  0.0553  0.2132
 1118W        W 5182   3.658   8.793   1.607  0.2704  0.2959  0.3447
 1119W        W 5183   8.047   7.953   9.088  0.3815 -0.0554 -0.2710
 1120W        W 5184   7.446   1.486   3.537 -0.1533  0.0459 -0.1717
 1121W        W 5185  10.286   9.039   1.451 -0.0785  0.0540  0.2912
 1122W        W 5186   9.923   8.468   0.035  0.1344  0.0008  0.0845
 1123W        W 5187   2.574   0.348   1.107  0.0038  0.3806 -0.3028
 1124W        W 5188   9.520   9.154   7.999  0.0393 -0.3813 -0.3041
 1125W        W 5189   3.741   1.640  11.104 -0.0865  0.6558  0.1742
 1126W        W 5190   3.084   3.857  11.143  0.0253  0.1786 -0.0068
 1127W        W 5191   3.670   3.949  10.517 -0.1485 -0.2714  0.1328
 1128W        W 5192   3.537   6.399   0.376  0.1461 -0.0588  0.3499
 1129W        W 5193  10.088   1.036  11.253  0.0910  0.2189  0.3032
 1130W        W 5194   4.041   3.252   2.088 -0.1747 -0.1704  0.0313
 1131W        W 5195   4.621   1.136   8.787 -0.0550 -0.1842  0.1755
 1132W        W 5196   3.255  10.167   0.390  0.2002 -0.2449  0.0617
 1133W        W 5197   5.636   7.464  11.017  0.2184  0.0107  0.1309
 1134W        W 5198   6.121   7.734  11.036 -0.0946  0.1544 -0.2716
 1135W        W 5199   3.049   6.048  11.033  0.4123  0.1507  0.0729
 1136W        W 5200   6.738   2.560   3.660 -0.3401  0.1496  0.4028
 1137W        W 5201   0.752   2.266   9.427  0.0166 -0.2169 -0.0093
 1138W        W 5202   7.760  10.362   8.951 -0.0049  0.0699  0.0785
 1139W        W 5203   8.608   5.836   9.677 -0.0126 -0.0552 -0.4722
 1140W        W 5204   8.176   1.821  10.120  0.2084 -0.1475  0.0521
 1141W        W 5205   8.834   2.989   9.355 -0.0692 -0.0647 -0.2426
 1142W        W 5206   5.959   6.269  10.832 -0.0339 -0.0629 -0.3557
 1143W        W 5207   4.567   7.960   7.094 -0.0925 -0.0509 -0.3512
 1144W        W 5208   3.865   2.159  11.144 -0.3079  0.2321  0.1411
 1145W        W 5209   4.281   4.453   3.267  0.1511 -0.1545  0.2848
 1146W        W 5210   9.189   7.597   0.861 -0.0348 -0.2028  0.0160
 1147W        W 5211   4.344   5.158   2.002  0.3321  0.0896  0.1093
 1148W        W 5212   7.280   0.574   2.988  0.1506 -0.0823  0.1013
 1149W        W 5213   0.726   4.724  10.926 -0.1034 -0.0938 -0.1028
 1150W        W 5214   1.226   0.324   2.924 -0.1771 -0.1683 -0.1304
 1151W        W 5215   1.589   7.315   8.525  0.0807 -0.0103  0.3475
 1152W        W 5216  10.675   1.652   8.769  0.0558  0.2152  0.0967
 1153W        W 5217   9.001   6.024   9.423  0.2703  0.1674 -0.2825
 1154W        W 5218   0.895   0.006  10.550 -0.1730 -0.2678 -0.1276
 1155W        W 5219   1.317   1.998  10.905  0.0056  0.2254  0.3229
 1156W        W 5220   6.916   9.442   9.942  0.0623 -0.1093 -0.2119
 1157W        W 5221  10.346   3.784   0.384 -0.1666  0.1583  0.1498
 1158W        W 5222   6.381   5.556   1.275  0.1855 -0.1897 -0.0266
 1159W        W 5223   4.051   6.583   7.707 -0.3591 -0.3067  0.0867
 1160W        W 5224   8.844   2.632   0.366 -0.1100 -0.2104  0.0813
 1161W        W 5225   1.269   5.726   3.605  0.1302  0.0070 -0.2573
 1162W        W 5226   0.880   9.968  10.034  0.0649  0.1129 -0.1771
 1163W        W 5227   2.306   5.191   2.274  0.1337  0.1578  0.2855
 1164W        W 5228   8.198   8.110   8.065 -0.3296 -0.2334 -0.0734
 1165W        W 5229   3.649   9.181   1.065 -0.5715  0.2308 -0.0428
 1166W        W 5230   6.395   5.774   9.274 -0.0494  0.1263 -0.0447
 1167W        W 5231   3.927   8.436   9.861  0.1480 -0.0351 -0.2127
 1168W        W 5232   0.240  10.194   2.923  0.0126 -0.0693 -0.3055
 1169W        W 5233   8.290   2.133   9.744 -0.0281  0.3433 -0.1362
 1170W        W 5234   9.635   5.603   1.129  0.4238  0.1306 -0.1658
 1171W        W 5235   8.195   4.025   1.130  0.0181  0.3077  0.2942
 1172W        W 5236   8.048   4.495   1.371  0.0063 -0.0506 -0.3404
 1173W        W 5237   9.595  10.627   2.535 -0.2516 -0.1136 -0.0843
 1174W        W 5238   3.627  10.298   8.186 -0.5061  0.1757  0.0725
 1175W        W 5239   6.394   4.611  10.669  0.0454 -0.0748 -0.1911
 1176W        W 5240   6.776   1.490   9.493 -0.0720 -0.0774  0.1346
 1177W        W 5241   0.258   1.822   3.431  0.0191 -0.2717 -0.0976
 1178W        W 5242   2.119   9.798   3.422 -0.1408  0.1566  0.0372
 1179W        W 5243   3.506  10.616   7.830  0.0146  0.0343 -0.2030
 1180W        W 5244   0.742   6.697   1.655  0.3933  0.1167 -0.2412
 1181W        W 5245  10.424   1.779   0.819  0.2930 -0.0654  0.0766
 1182W        W 5246   2.819   4.653  11.295  0.5200  0.1320  0.1040
 1183W        W 5247   5.048   2.939   0.030 -0.0037  0.0453  0.0552
 1184W        W 5248   9.753   9.365   3.051 -0.0538 -0.0245 -0.1625
 1185W        W 5249   1.946   1.738   1.782 -0.0025  0.1934  0.1292
 1186W        W 5250   3.347   2.660   0.840  0.2887  0.3113  0.1635
 1187W        W 5251   8.392   6.799   8.375  0.3959  0.1284 -0.0898
 1188W        W 5252   1.017   5.537   9.249  0.0035  0.1317 -0.1720
 1189W        W 5253   0.932   9.469  10.916  0.1385  0.1304  0.2360
 1190W        W 5254   6.570  10.312   9.044  0.3666  0.2422 -0.0009
 1191W        W 5255   7.350   4.518   3.024  0.2231  0.0649  0.0050
 1192W        W 5256   7.744   0.676  10.882  0.1254  0.0558 -0.0907
 1193W        W 5257   1.299   5.895  11.111  0.2485 -0.0883  0.1561
 1194W        W 5258   9.293   9.020   3.998 -0.1160  0.0613  0.0205
 1195W        W 5259   4.021   8.407   7.387  0.1475 -0.0681 -0.2009
 1196W        W 5260   4.996   1.065   0.225  0.1156 -0.1339  0.0665
 1197W        W 5261   8.142   5.668   1.542  0.1410  0.0072 -0.0251
 1198W        W 5262  10.244   6.232   8.966 -0.1313  0.0801 -0.2028
 1199W        W 5263   7.867   1.654   1.828 -0.2160  0.0376  0.2771
 1200W        W 5264   1.076   8.346   8.460 -0.0820  0.1885 -0.0150
 1201W        W 5265   1.992  10.472   3.974 -0.1807 -0.0072 -0.0643
 1202W        W 5266   5.799   1.713   9.305 -0.0703 -0.0848  0.1087
 1203W        W 5267   3.665   1.365  10.630 -0.0584 -0.1929 -0.2000
 1204W        W 5268   5.308   1.659   0.887  0.1991  0.0920 -0.1260
 1205W        W 5269   5.303  10.472   2.447  0.0978 -0.1137  0.2513
 1206W        W 5270  10.048   2.710  10.419 -0.0940 -0.1885 -0.0821
 1207W        W 5271  10.491   2.697   9.279  0.3036  0.1490 -0.0823
 1208W        W 5272   8.659   1.879  10.077  0.0690  0.1361  0.1535
 1209W        W 5273   3.607   4.986   8.607  0.1177 -0.3060 -0.1083
 1210W        W 5274   7.003   8.786   8.116 -0.0122 -0.0673  0.0093
 1211W        W 5275   6.550   9.693  10.754 -0.2610 -0.4448 -0.2526
 1212W        W 5276   4.988   8.874   1.481 -0.1011 -0.1709  0.1967
 1213W        W 5277   5.119   6.055   0.803  0.1846  0.1646 -0.0053
 1214W        W 5278   2.385   0.356   1.699  0.0139 -0.0047  0.0909
 1215W        W 5279   4.328   7.510   8.545 -0.4113  0.0792  0.2796
 1216W        W 5280   4.074   9.318  11.078 -0.5184 -0.0551 -0.1325
 1217W        W 5281   9.583   1.885  10.024 -0.2314 -0.1023 -0.0589
 1218W        W 5282   4.169   3.913   1.675  0.1514 -0.0104 -0.1940
 1219W        W 5283   0.521   5.504   2.501  0.1999 -0.2085  0.1023
 1220W        W 5284   9.195   2.850   2.318 -0.0064  0.1082  0.0474
 1221W        W 5285   3.857   1.405   1.889 -0.1066  0.0890 -0.3468
 1222W        W 5286   6.764   6.541   1.205 -0.0762 -0.0845  0.4074
 1223W        W 5287   8.827   4.981   1.293  0.1435  0.0434 -0.1422
 1224W        W 5288   4.106   7.502   3.490 -0.0035 -0.0832 -0.0314
 1225W        W 5289   1.678   5.512  10.474 -0.0659 -0.0536  0.2112
 1226W        W 5290   1.574   7.866   1.747 -0.1286 -0.2912 -0.1744
 1227W        W 5291   8.281   0.392   1.479 -0.0429 -0.0039  0.0421
 1228W        W 5292   3.501   6.064  10.307 -0.2476 -0.0116 -0.1506
 1229W        W 5293   8.689   2.240   0.013 -0.2572 -0.0426  0.1280
 1230W        W 5294   4.434   0.037   7.598  0.2397  0.1144 -0.0819
 1231W        W 5295   6.528   2.129   0.291 -0.1781  0.0302  0.2222
 1232W        W 5296   7.009   9.083   2.187 -0.0576 -0.0787  0.1786
 1233W        W 5297   0.649   0.881   2.211  0.0389  0.0764  0.2068
 1234W        W 5298   3.083   5.237   2.955  0.0656 -0.2760 -0.0478
 1235W        W 5299   9.927   9.019   8.700  0.0611 -0.2317  0.0878
 1236W        W 5300   0.435   8.182   9.036 -0.4275 -0.3241  0.2124
 1237W        W 5301   2.044   3.057   0.116  0.0232  0.1509  0.0254
 1238W        W 5302   4.126   5.081   9.280 -0.1820 -0.0755 -0.0115
 1239W        W 5303   7.978   9.393   0.540 -0.1713 -0.1598 -0.0288
 1240W        W 5304   5.870   6.762   2.134 -0.0147  0.0426  0.2654
 1241W        W 5305   0.713  10.100   9.271 -0.1562 -0.1332  0.0850
 1242W        W 5306   0.554   5.096  11.193  0.0202  0.2368  0.0707
 1243W        W 5307   7.652   0.177   4.040  0.0868 -0.0777  0.0206
 1244W        W 5308   1.832   8.661   9.164 -0.1843 -0.0516  0.1984
 1245W        W 5309   1.499  10.071   1.878  0.2149  0.2477  0.0572
 1246W        W 5310   5.325  10.240   0.676 -0.0027 -0.1076 -0.1123
 1247W        W 5311   3.215   0.862   9.713 -0.2127 -0.1186  0.2018
 1248W        W 5312   6.320   8.159   1.733 -0.0442  0.3866 -0.1073
 1249W        W 5313   6.499   0.241  10.935 -0.1334 -0.0877  0.3669
 1250W        W 5314   5.753   9.260   0.595  0.0773 -0.1248  0.0300
 1251W        W 5315   7.639   1.036  10.583 -0.0897  0.1791  0.2050
 1252W        W 5316   1.066  10.422   8.837  0.0537  0.0109 -0.0704
 1253W        W 5317   8.644   9.605   3.302 -0.0154  0.0171 -0.0473
 1254W        W 5318   0.439   1.076   7.599 -0.0207  0.1396  0.3300
 1255W        W 5319   9.186   4.435  10.725 -0.1196 -0.3682 -0.1541
 1256W        W 5320   7.389   1.957   3.307  0.0091  0.0098 -0.2408
 1257W        W 5321  10.034   3.483   0.605  0.4316  0.0987 -0.1235
 1258W        W 5322   4.029   4.297   7.861  0.0692  0.3160  0.0164
 1259W        W 5323   9.412   1.687   1.154 -0.1001  0.1892 -0.0610
 1260W        W 5324   4.983   2.641  11.025  0.1942  0.0096 -0.0674
 1261W        W 5325   3.515   5.575   2.266 -0.2697  0.2254  0.1311
 1262W        W 5326   8.327   5.183   9.114 -0.1887 -0.1521  0.1013
 1263W        W 5327   3.061   9.708   3.739  0.0433  0.2299 -0.2639
 1264W        W 5328   2.711   5.998   8.850  0.1878 -0.0984 -0.2931
 1265W        W 5329   1.063   8.076   1.761  0.1460 -0.2302 -0.4385
 1266W        W 5330   7.908   3.686   3.149  0.0187 -0.3492 -0.2019
 1267W        W 5331   3.623   8.358   4.132  0.0549  0.2382 -0.0553
 1268W        W 5332   1.624   8.420   1.004  0.2233  0.0140 -0.1136
 1269W        W 5333   8.286   7.730   0.493 -0.1796  0.0696  0.2756
 1270W        W 5334   7.668   9.595   2.363 -0.0728 -0.3761  0.1380
 1271W        W 5335  10.380   0.530   1.249  0.0219  0.1917  0.2038
 1272W        W 5336   8.529   2.684  10.686 -0.1694  0.0255 -0.2891
 1273W        W 5337   5.813   7.382   8.711 -0.1218 -0.3988 -0.0201
 1274W        W 5338   7.371   3.155  10.626 -0.0237 -0.0988  0.1446
 1275W        W 5339   9.961   2.908   0.593 -0.2681 -0.1948 -0.1734
 1276W        W 5340   6.868   0.724   8.250 -0.0567  0.0939 -0.0309
 1277W        W 5341   7.795   2.113   2.915 -0.0613 -0.0855 -0.0960
 1278W        W 5342   2.435   2.351   0.228  0.1213  0.2026 -0.2379
 1279W        W 5343   7.582   0.127  10.837 -0.0676 -0.0398 -0.0424
 1280W        W 5344   2.619   4.440   1.217 -0.0551  0.0813  0.0363
 1281W        W 5345   2.084   9.072  11.176 -0.4431  0.2461 -0.0085
 1282W        W 5346   1.338   7.208  10.610  0.0212 -0.1195 -0.1879
 1283W        W 5347  10.388   5.198   8.507 -0.0058  0.0175  0.3387
 1284W        W 5348   0.320   6.779   0.820 -0.0718 -0.1277 -0.6099
 1285W        W 5349   5.161   6.323   9.641 -0.4164  0.0247 -0.1749
 1286W        W 5350   8.098   3.659   2.203 -0.5567  0.0396  0.0305
 1287W        W 5351   1.433   3.066   2.892  0.0486  0.0108  0.0793
 1288W        W 5352   8.287   1.717   9.355 -0.1042 -0.0838  0.0175
 1289W        W 5353   5.689   9.978  11.222 -0.1379 -0.0246  0.2603
 1290W        W 5354   6.787   5.243   8.866 -0.1576 -0.3054  0.1683
 1291W        W 5355   4.068   4.460   3.710  0.2913  0.0388 -0.0451
 1292W        W 5356   4.432   0.692   0.882  0.1102 -0.2580 -0.1142
 1293W        W 5357   2.009   1.576   2.256 -0.0326 -0.2694 -0.1877
 1294W        W 5358   4.320   2.143   9.723 -0.0519  0.1419 -0.0024
 1295W        W 5359   0.887   2.355   2.955  0.0978 -0.0876 -0.1995
 1296W        W 5360   0.787   7.849   9.461 -0.4226  0.1920  0.0992
 1297W        W 5361   1.225   9.891  10.687  0.1570  0.2178  0.2605
 1298W        W 5362   5.019   6.961  10.521  0.1149  0.1048  0.2835
 1299W        W 5363   8.044   0.807   9.074  0.3695  0.0241  0.1321
 1300W        W 5364   8.405   4.192  11.205 -0.0564 -0.1455 -0.0414
 1301W        W 5365   6.159   1.273   3.072 -0.0243  0.1517 -0.0816
 1302W        W 5366  10.303   4.703   8.469 -0.0836  0.4569 -0.1385
 1303W        W 5367   5.651   4.280   9.446  0.1060 -0.4199 -0.1727
 1304W        W 5368   3.979   5.851   9.669 -0.0763 -0.1642 -0.0020
 1305W        W 5369   6.191   7.218   8.429  0.1431  0.1999 -0.0761
 1306W        W 5370   7.844   2.968  10.562 -0.1536  0.1800  0.3718
 1307W        W 5371   7.401   6.436   0.630  0.6666  0.2206 -0.0729
 1308W        W 5372  10.299   4.149   9.187  0.0250 -0.0806 -0.0093
 1309W        W 5373   2.571   2.381   9.405  0.0353  0.0060  0.2447
 1310W        W 5374   4.991   6.546   7.917 -0.3244  0.1414  0.2448
 1311W        W 5375   1.273   5.825  10.220 -0.4851  0.0770 -0.0064
 1312W        W 5376   0.359   8.828   8.323  0.1785 -0.0907 -0.1485
 1313W        W 5377   9.208   3.607   2.760 -0.4890  0.1393  0.2099
 1314W        W 5378   6.743   5.528  10.087  0.0388  0.1494  0.0170
 1315W        W 5379   8.711   7.011   1.670 -0.4978  0.0607 -0.2084
 1316W        W 5380   4.635   5.535   1.434  0.0094  0.2497 -0.1533
 1317W        W 5381   4.006   3.984   3.322  0.2305 -0.0349 -0.2394
 1318W        W 5382   3.079   3.271   0.176 -0.0062 -0.2932 -0.3276
 1319W        W 5383  10.017   4.976   2.824 -0.1397  0.0056 -0.0732
 1320W        W 5384   4.741  10.209   1.606  0.2519  0.2284  0.1547
 1321W        W 5385   4.755   7.045   7.328  0.2466 -0.0898  0.0865
 1322W        W 5386   6.069   4.480   1.536 -0.1047 -0.1116  0.1137
 1323W        W 5387   9.420   5.300   0.106  0.2417  0.2012  0.3279
 1324W        W 5388   3.400   8.995   3.365  0.0335 -0.1572 -0.1387
 1325W        W 5389   3.688   9.547   1.446  0.0337 -0.2526  0.1738
 1326W        W 5390  10.347   4.075   0.863  0.2997  0.0569  0.3414
 1327W        W 5391   4.628   9.256   7.596  0.1558  0.1025 -0.1319
 1328W        W 5392   7.822   5.926   8.735 -0.0255 -0.0611 -0.0864
 1329W        W 5393   4.439   4.120   3.614  0.0170 -0.0818  0.0341
 1330W        W 5394   6.584   8.930   7.880 -0.1894  0.1976 -0.3233
 1331W        W 5395   1.214   8.702   4.159 -0.1679  0.1717 -0.1958
 1332W        W 5396   5.941   0.074   2.026  0.0427 -0.2030  0.0908
 1333W        W 5397   8.424   9.965   2.686  0.1441 -0.3121 -0.0344
 1334W        W 5398   3.488   2.468   3.030 -0.1701 -0.1272  0.2199
 1335W        W 5399   0.410   5.148   0.609  0.1013 -0.0749 -0.0495
 1336W        W 5400   8.103  10.470   1.744 -0.0481  0.1462 -0.0619
 1337W        W 5401   8.827   1.787   9.052  0.1746  0.0215 -0.1924
 1338W        W 5402   1.861   9.417   4.129  0.1391  0.2537  0.0466
 1339W        W 5403   4.043   8.753  11.328  0.0192 -0.3869  0.4673
 1340W        W 5404   6.605   1.863   0.718 -0.3198 -0.1478 -0.3276
 1341W        W 5405   4.161   9.360  10.159  0.1301 -0.3793  0.1305
 1342W        W 5406   7.188   2.222  10.901  0.0657  0.0432 -0.3495
 1343W        W 5407   4.991   1.379   9.625  0.2119 -0.1896  0.1550
 1344W        W 5408   9.652   9.848   8.651  0.1998 -0.3127  0.1631
 1345W        W 5409   2.413  10.086  10.278 -0.2015 -0.0547  0.0824
 1346W        W 5410   6.014   3.378   1.891  0.0843 -0.0389 -0.0777
 1347W        W 5411   7.452   9.337   9.489 -0.0816 -0.2069 -0.4519
 1348W        W 5412   9.259   9.236   1.746  0.0214  0.1786  0.1041
 1349W        W 5413   8.202   0.587   0.047 -0.2676  0.1451 -0.2583
 1350W        W 5414   4.359   9.775   9.159  0.1007 -0.1250 -0.1262
 1351W        W 5415   3.211   1.240  10.282  0.0196  0.0451  0.1425
 1352W        W 5416   9.820   6.125   2.089 -0.0477  0.0796  0.1060
 1353W        W 5417   3.841   4.755   2.499  0.1203  0.1579  0.0103
 1354W        W 5418   7.104   7.263   0.450  0.0472  0.2780 -0.1300
 1355W        W 5419   7.121   2.723   3.416  0.2523 -0.2377  0.0094
 1356W        W 5420   1.092  10.354   8.334 -0.1292  0.1534  0.0500
 1357W        W 5421   9.549   7.080   9.877 -0.1866 -0.3137 -0.2435
 1358W        W 5422   2.932   7.741   8.794 -0.0282  0.4081 -0.0404
 1359W        W 5423   1.357   2.538   7.693 -0.1416 -0.0291 -0.1795
 1360W        W 5424   4.603   4.129   8.502 -0.1858  0.1349 -0.0809
 1361W        W 5425   0.147   9.931   7.265  0.4780  0.0521 -0.0216
 1362W        W 5426  10.720   8.117   2.810 -0.1480  0.3113  0.0698
 1363W        W 5427   6.215   8.702   2.416  0.1079  0.0493  0.1033
 1364W        W 5428   4.244   6.563   0.601 -0.1255 -0.1921  0.0482
 1365W        W 5429   6.945   1.232   3.542 -0.1550 -0.2096  0.0393
 1366W        W 5430   2.367   6.383   9.240  0.0190 -0.0411 -0.0559
 1367W        W 5431   9.784   8.933   3.444  0.1122  0.1435  0.0847
 1368W        W 5432   9.154  10.658   7.854 -0.1167 -0.1681  0.1101
 1369W        W 5433   0.310   8.306  11.404  0.0836  0.0318 -0.0920
 1370W        W 5434   2.672   0.779   1.011 -0.3500  0.0396 -0.0930
 1371W        W 5435   4.989   6.583  10.876 -0.0289 -0.0521  0.0949
 1372W        W 5436   5.964   0.241   7.996  0.2199 -0.0971 -0.0386
 1373W        W 5437   6.505   5.308   0.143  0.0983 -0.0181 -0.1637
 1374W        W 5438   6.006   3.237  10.391 -0.0400 -0.2565 -0.2501
 1375W        W 5439   6.544   2.859   7.616 -0.1581  0.0632  0.0421
 1376W        W 5440   3.483   6.616   9.111 -0.1680  0.1384 -0.0972
 1377W        W 5441   9.628   9.629   7.876 -0.1557  0.3212 -0.0263
 1378W        W 5442   9.164   2.069  10.168 -0.2123  0.0696 -0.4329
 1379W        W 5443   9.002   7.750   1.717  0.0138  0.2321  0.1040
 1380W        W 5444   6.041   9.870  10.687 -0.2114  0.2226 -0.1614
 1381W        W 5445   4.549   7.452   4.448 -0.0437 -0.0113  0.2508
 1382W        W 5446   8.945  10.423   1.419 -0.0544 -0.1076  0.1724
 1383W        W 5447  10.320   0.980   9.918 -0.4018  0.0307  0.4301
 1384W        W 5448   9.032   1.302   1.138 -0.0758 -0.0252  0.0913
 1385W        W 5449   6.262   2.427   1.321  0.0447  0.1880 -0.0071
 1386W        W 5450   5.182   2.105   9.723 -0.0975 -0.0329 -0.2565
 1387W        W 5451   6.017   7.239   3.570 -0.0997 -0.1527 -0.0288
 1388W        W 5452   6.075   0.206   3.176 -0.0629  0.3182 -0.1683
 1389W        W 5453   3.661   3.740   0.508  0.1527 -0.1087 -0.0341
 1390W        W 5454   7.881   8.662   0.026 -0.1331  0.1072 -0.3859
 1391W        W 5455   2.970   3.983   3.294  0.0198  0.4952 -0.1673
 1392W        W 5456   5.051   9.217  10.134  0.1791 -0.2568 -0.0393
 1393W        W 5457   3.591   8.119  10.173  0.0000 -0.2662 -0.4564
 1394W        W 5458   7.750   9.932   0.062  0.1212 -0.2712  0.1029
 1395W        W 5459   5.699   7.746   8.123 -0.0806  0.3209 -0.1171
 1396W        W 5460   9.589   9.457  10.402 -0.2126  0.1602  0.0127
 1397W        W 5461   2.443   2.994   9.115  0.0549  0.3777 -0.2094
 1398W        W 5462   6.329   5.143   1.507  0.0881  0.2213 -0.1837
 1399W        W 5463   1.646   3.882   0.599 -0.1564 -0.1397  0.3915
 1400W        W 5464   2.043   6.260   1.127  0.2049  0.1744  0.2595
 1401W        W 5465   6.540   7.056   8.773  0.0975  0.1687 -0.0473
 1402W        W 5466   6.379   6.235   9.107  0.3392  0.1399 -0.1594
 1403W        W 5467   8.091   4.757  10.012  0.2038  0.1373  0.1060
 1404W        W 5468   5.799   3.885   1.347 -0.2248  0.0931 -0.1546
 1405W        W 5469   3.630   7.015  11.343  0.0002 -0.1229  0.1517
 1406W        W 5470   6.594   3.141   9.763 -0.0303  0.0881 -0.1219
 1407W        W 5471   1.193  10.448   1.783  0.0568 -0.0010  0.4107
 1408W        W 5472   6.950   0.595   9.147 -0.0441  0.4273  0.4332
 1409W        W 5473   1.952   6.241   9.531  0.0048 -0.3865 -0.3131
 1410W        W 5474   8.407   3.362   8.575  0.0631 -0.2748 -0.0177
 1411W        W 5475   2.263  10.191   2.098  0.0099  0.1842 -0.1452
 1412W        W 5476   3.771   0.390   2.695 -0.3994  0.3581  0.3002
 1413W        W 5477   5.955   7.465   9.197  0.1135 -0.0471 -0.1820
 1414W        W 5478   5.097   0.730   2.294 -0.1337  0.0563 -0.2061
 1415W        W 5479   3.358   1.266   2.503  0.0914 -0.1049 -0.1120
 1416W        W 5480   4.695   8.553   2.408  0.3140  0.2293 -0.1504
 1417W        W 5481   8.913   6.843   8.549 -0.3153  0.1381 -0.0424
 1418W        W 5482   6.862   5.725   7.758 -0.1554 -0.0475  0.0426
 1419W        W 5483   5.356   1.128   2.356  0.0559  0.0650  0.1465
 1420W        W 5484   3.738   7.004   9.371 -0.1999  0.1659 -0.0724
 1421W        W 5485   4.843   1.234   3.790  0.2397 -0.1969  0.1566
 1422W        W 5486   5.532   2.513   3.056 -0.2154 -0.0576 -0.0049
 1423W        W 5487   2.200   7.481   2.329 -0.0477 -0.0673 -0.1373
 1424W        W 5488   6.988   8.047   8.188  0.0863  0.0809 -0.1782
 1425W        W 5489   9.303   1.865   3.286 -0.0786  0.1180  0.0123
 1426W        W 5490   7.901   7.174   3.098  0.0139 -0.1830  0.0344
 1427W        W 5491  10.506   4.024   9.674 -0.0416 -0.0409  0.0443
 1428W        W 5492   8.646  10.531   9.870  0.0704 -0.2789  0.1966
 1429W        W 5493   6.390   6.960  11.218 -0.1423  0.2163 -0.0050
 1430W        W 5494  10.366   3.713  10.468 -0.0998  0.1911  0.1266
 1431W        W 5495   2.501   5.171   3.765 -0.1407 -0.2708 -0.0089
 1432W        W 5496   6.901   6.734   7.670 -0.1308  0.0354 -0.1446
 1433W        W 5497   8.815   9.624   2.781 -0.0197 -0.2322  0.2059
 1434W        W 5498   1.751   9.035   2.323  0.0773  0.1098 -0.0680
 1435W        W 5499   3.536   9.062   1.978 -0.0711  0.2324 -0.0683
 1436W        W 5500   5.284   6.118  10.989  0.2413 -0.1062 -0.1401
 1437W        W 5501   5.845   1.923   1.986  0.1256  0.1083 -0.0984
 1438W        W 5502   4.493   5.397   3.164 -0.5150  0.0002  0.0255
 1439W        W 5503   5.044   7.921   0.760 -0.3207  0.1229 -0.2547
 1440W        W 5504   4.263  10.525   9.904  0.0801  0.0132  0.1226
 1441W        W 5505   4.473   8.572   1.979  0.2954  0.0193 -0.3389
 1442W        W 5506   4.444   6.015   9.804 -0.0833  0.2467  0.3017
 1443W        W 5507   0.587   7.167   1.800  0.0869  0.1088  0.0092
 1444W        W 5508   4.397   5.177  10.100 -0.1761  0.3259 -0.0344
 1445W        W 5509   5.354  10.658   0.302 -0.0098 -0.2355 -0.0082
 1446W        W 5510   5.693   1.979   9.778  0.1329  0.0438  0.3103
 1447W        W 5511   4.958   2.641   3.208 -0.3462 -0.1893  0.0004
 1448W        W 5512   3.364   8.474   0.428  0.7005 -0.2312 -0.2345
 1449W        W 5513   9.612   6.131   4.209  0.6028 -0.0043 -0.2070
 1450W        W 5514   3.392   8.901   2.873 -0.0305 -0.0171  0.0504
 1451W        W 5515   9.204   2.140   2.402  0.0957 -0.1084 -0.0689
 1452W        W 5516   8.625   0.985   2.005 -0.0250  0.2177 -0.0021
 1453W        W 5517   3.250   9.344   0.640 -0.0413  0.1474 -0.1398
 1454W        W 5518   9.253   2.071   9.677  0.2642 -0.0129  0.0383
 1455W        W 5519   5.573   4.147   8.178 -0.0520 -0.1461  0.4151
 1456W        W 5520   6.667   6.461   2.737 -0.2217  0.0561 -0.1951
 1457W        W 5521   1.511   3.585   1.815  0.3461 -0.0582 -0.0900
 1458W        W 5522   8.303   0.204   9.960  0.1014 -0.0312 -0.1567
 1459W        W 5523   1.518   3.776   9.429  0.3168 -0.2305 -0.2988
 1460W        W 5524  10.688   7.242   1.004  0.3053 -0.1505  0.3409
 1461W        W 5525   6.434   8.380   1.196  0.1377  0.1758 -0.1235
 1462W        W 5526   6.583   4.069   1.933  0.1601 -0.4108  0.0051
 1463W        W 5527   6.653   5.713   2.282  0.0276  0.4815 -0.1737
 1464W        W 5528   0.589   2.730  11.118 -0.2308 -0.0366 -0.0039
 1465W        W 5529   1.002   8.158   0.031 -0.1750 -0.1831 -0.3180
 1466W        W 5530   7.176   9.326   7.167  0.0547  0.0435  0.0983
 1467W        W 5531   3.371   2.576   1.902 -0.2330 -0.2879  0.0214
 1468W        W 5532   0.661   0.967   8.617  0.2622 -0.3800  0.1115
 1469W        W 5533   2.577   9.781   3.906 -0.1124  0.5076 -0.0683
 1470W        W 5534   2.019   4.919   1.959  0.2076  0.2645  0.0382
 1471W        W 5535   5.885  10.294   4.103 -0.0334  0.2022 -0.2835
 1472W        W 5536   9.988   2.520   3.385  0.2591  0.0671 -0.0381
 1473W        W 5537   1.286   5.521   3.104  0.0873  0.0204  0.1043
 1474W        W 5538   6.565   0.874  10.931  0.0472 -0.0655  0.0187
 1475W        W 5539   5.213   3.000   9.061  0.1728  0.0071  0.0233
 1476W        W 5540   2.082   9.403  10.649  0.0096  0.0074  0.0399
 1477W        W 5541   9.629   8.285  10.567  0.0957  0.0918  0.1593
 1478W        W 5542   5.514   4.712   8.752  0.5298  0.0127  0.0669
 1479W        W 5543   0.130  10.223   8.094 -0.1438  0.1827  0.1110
 1480W        W 5544   2.893   5.020   0.755  0.2421 -0.0466 -0.0898
 1481W        W 5545   3.161   6.084   1.630 -0.2214  0.2325 -0.0992
 1482W        W 5546   1.007   3.431  10.272  0.0519 -0.0460 -0.1801
 1483W        W 5547   7.795   8.262   1.872  0.3244  0.0872  0.3094
 1484W        W 5548   7.875   2.679   0.590 -0.0636  0.0111  0.0261
 1485W        W 5549   9.240   8.510   2.942  0.0839  0.1911 -0.0266
 1486W        W 5550   5.154   9.266   7.617 -0.1427  0.1284  0.0227
 1487W        W 5551   7.094   5.647   8.716  0.1837 -0.3419  0.1692
 1488W        W 5552  10.004   1.499   9.928  0.0187  0.3372 -0.1571
 1489W        W 5553   6.457   1.655   4.649 -0.1561  0.0985  0.0403
 1490W        W 5554  10.449   6.474   3.555 -0.1896  0.2032  0.1403
 1491W        W 5555   7.191   0.209   7.801  0.0010 -0.0787 -0.2672
 1492W        W 5556   6.479   8.608   8.952 -0.0331 -0.0522 -0.0277
 1493W        W 5557   6.959   5.530   0.459 -0.1423 -0.2491  0.2966
 1494W        W 5558   9.188   4.898   1.688 -0.4525 -0.1502  0.1287
 1495W        W 5559   8.147   1.889   0.521  0.0746  0.0897  0.0820
 1496W        W 5560   4.371   8.589   2.796 -0.1266  0.1239  0.2703
 1497W        W 5561   0.945   4.734   2.528 -0.4034  0.0011  0.1086
 1498W        W 5562   1.626   4.550   1.260 -0.2355  0.0260  0.3000
 1499W        W 5563   7.695   7.492   7.415 -0.1208 -0.1851  0.1842
 1500W        W 5564   3.271   1.071  10.734  0.2663 -0.3491  0.0977
 1501W        W 5565   4.987   0.223   9.014  0.0325  0.0225  0.1998
 1502W        W 5566   2.011   5.649   2.494 -0.0291  0.2787  0.1686
 1503W        W 5567   9.138   9.485  10.182 -0.4274  0.0208 -0.2347
 1504W        W 5568   0.230   8.644   0.357 -0.0468  0.0062 -0.1428
 1505W        W 5569   6.809   0.622   9.935  0.1096  0.2759 -0.1686
 1506W        W 5570   4.709   0.702   2.648  0.2653 -0.1384 -0.1367
 1507W        W 5571   2.218  10.258   0.467  0.1138 -0.0640  0.2109
 1508W        W 5572   4.308   0.116   0.112  0.2254  0.1918  0.1189
 1509W        W 5573   8.422   7.919  10.626 -0.3301 -0.0797 -0.0879
 1510W        W 5574   3.587   8.847   8.043  0.0701  0.1354  0.0522
 1511W        W 5575  10.688   7.801  10.056 -0.0466  0.2420  0.4095
 1512W        W 5576   4.595   6.163   0.388 -0.1214  0.1675 -0.4657
 1513W        W 5577   6.582   4.489   1.479  0.0323 -0.0326  0.1826
 1514W        W 5578   4.662   2.285   0.071 -0.4221  0.1014  0.0386
 1515W        W 5579   8.176   5.491  10.631  0.2003  0.0324 -0.0376
 1516W        W 5580   3.392   7.669   8.366  0.3464 -0.0097  0.1602
 1517W        W 5581   2.051   2.099   7.670 -0.3569  0.2405 -0.0545
 1518W        W 5582   2.973   6.987   1.878  0.1065 -0.0143  0.2055
 1519W        W 5583   6.855   4.758   7.986  0.1969 -0.0278 -0.0222
 1520W        W 5584   9.228   8.136   2.561  0.1045 -0.0562  0.2398
 1521W        W 5585   4.906   1.062   1.684 -0.0611 -0.0615  0.2215
 1522W        W 5586   3.138  10.109   8.390 -0.1384 -0.0163  0.0814
 1523W        W 5587   3.992   6.281   0.182  0.1918 -0.1231  0.1709
 1524W        W 5588   3.693   9.699   7.899  0.1943 -0.1348 -0.1437
 1525W        W 5589   7.359   2.016  11.380  0.0100  0.0352  0.3377
 1526W        W 5590   0.584   8.693  10.900  0.1221  0.0364 -0.2805
 1527W        W 5591   5.316   0.667   2.729 -0.0124 -0.3056  0.2265
 1528W        W 5592   1.642   3.420   0.717  0.2553 -0.0682  0.3426
 1529W        W 5593   5.307   3.715   0.468 -0.0021  0.0802  0.1249
 1530W        W 5594   8.919   3.348   9.741 -0.2976 -0.0315 -0.0244
 1531W        W 5595   7.032   0.183   0.765 -0.1499 -0.3639 -0.1005
 1532W        W 5596   9.521   9.991  11.066 -0.0669 -0.0014 -0.2564
 1533W        W 5597   9.575   9.630   1.709 -0.0414  0.1109 -0.0031
 1534W        W 5598   5.230   0.637   9.170 -0.0315  0.3107  0.0176
 1535W        W 5599   0.327   1.840  10.875  0.1358 -0.2377  0.1054
 1536W        W 5600   9.057   0.878   0.715  0.0303  0.0963 -0.1087
 1537W        W 5601   9.727   7.463   0.994  0.2029  0.2066 -0.0712
 1538W        W 5602  10.629   2.821   0.514 -0.0100  0.4119  0.0794
 1539W        W 5603   1.384   0.570   1.914  0.0352 -0.3016 -0.1501
 1540W        W 5604   4.272   7.278   9.386  0.0162  0.3865 -0.0623
 1541W        W 5605   8.157   4.246   3.075  0.1047 -0.0817 -0.1541
 1542W        W 5606   9.770   7.637  11.058 -0.1173  0.1001 -0.2367
 1543W        W 5607   2.532   4.652  10.737 -0.0276 -0.0381  0.2649
 1544W        W 5608   3.850   4.656  11.127 -0.0988  0.0269  0.1900
 1545W        W 5609   6.799   6.003  10.270 -0.1177 -0.2341  0.1254
 1546W        W 5610   1.616   5.690   8.246 -0.0122  0.0262  0.2691
 1547W        W 5611   0.020   9.076   3.784  0.1387 -0.1711 -0.2904
 1548W        W 5612   3.776   7.159   3.300  0.1067 -0.3758  0.0793
 1549W        W 5613   3.187   8.903   8.412  0.4547 -0.1070  0.1256
 1550W        W 5614   5.826   8.991   0.170 -0.1396 -0.2267 -0.1569
 1551W        W 5615   4.940   2.197   2.323  0.1461 -0.2119 -0.1647
 1552W        W 5616  10.561   3.628   9.989  0.2867 -0.0864 -0.1506
 1553W        W 5617   8.924   0.407   0.443  0.0578  0.4301  0.2543
 1554W        W 5618   6.966   3.795   1.907  0.1480  0.1489  0.2494
 1555W        W 5619   9.706   3.143   3.417 -0.0972  0.2059  0.0357
 1556W        W 5620   9.717   4.684  10.839 -0.0455  0.0771 -0.2245
 1557W        W 5621   8.015   5.424  11.221  0.0261 -0.1018 -0.1307
 1558W        W 5622   6.205   4.479   3.558  0.5329  0.1912 -0.1706
 1559W        W 5623   9.314   3.795   8.294 -0.0130 -0.0364 -0.0931
 1560W        W 5624   5.531   7.886   3.920  0.0811  0.1171 -0.0474
 1561W        W 5625   6.683   5.926   0.386 -0.2949  0.0421 -0.2018
 1562W        W 5626  10.215   6.356   9.961  0.1335  0.1406 -0.0649
 1563W        W 5627   3.624   5.246   3.782 -0.4408  0.0774  0.1166
 1564W        W 5628   6.798   5.181   2.280  0.1134 -0.0737  0.1724
 1565W        W 5629  10.164   9.916  10.906 -0.2136  0.1469  0.1738
 1566W        W 5630   6.605   7.891   1.306 -0.3435 -0.1281 -0.4144
 1567W        W 5631   3.443   1.950  11.371  0.0270  0.2162 -0.2951
 1568W        W 5632   6.069   8.142   7.367 -0.0710 -0.2186 -0.0113
 1569W        W 5633   4.255   1.774   7.733 -0.1185 -0.0821  0.1199
 1570W        W 5634   0.303   0.012   2.731  0.0184  0.1952  0.2201
 1571W        W 5635  10.039  10.182   2.132 -0.0370 -0.1144 -0.2827
 1572W        W 5636   7.444   6.935   9.501 -0.0123 -0.0188 -0.3505
 1573W        W 5637   6.496   8.166   0.416  0.2753 -0.1264  0.0913
 1574W        W 5638   3.149   5.054   2.025  0.0832  0.0228 -0.0071
 1575W        W 5639  10.409   5.311   9.622 -0.2977  0.1836 -0.1757
 1576W        W 5640  10.193   9.820   8.572  0.2392  0.0342 -0.2877
 1577W        W 5641  10.279   6.243   3.915  0.3035 -0.1467 -0.1066
 1578W        W 5642   7.569   0.861   0.497  0.2158  0.1350 -0.0709
 1579W        W 5643   0.583   0.342   1.630  0.1700  0.0768 -0.2144
 1580W        W 5644   7.918   3.981   9.142  0.3082  0.1453  0.0073
 1581W        W 5645   8.847   3.381   8.337  0.0523  0.0091 -0.1613
 1582W        W 5646   2.512   5.811   7.283 -0.1488  0.2172 -0.1110
 1583W        W 5647   6.221   6.198   8.401  0.3059 -0.0069  0.0107
 1584W        W 5648   2.111   5.509   8.210 -0.0805  0.0484 -0.0441
 1585W        W 5649   2.174   8.048  10.039 -0.2346 -0.3270 -0.0661
 1586W        W 5650   7.380   3.028  11.184  0.0930 -0.1177 -0.1153
 1587W        W 5651   0.590   8.334   3.419  0.0937  0.2539 -0.4617
 1588W        W 5652   2.117   8.071   0.752  0.0128 -0.0910 -0.0822
 1589W        W 5653   3.661   0.349   9.469  0.1422 -0.0313 -0.0317
 1590W        W 5654   5.760   8.090   1.605  0.0921 -0.0760  0.1292
 1591W        W 5655   6.895   6.430  10.000 -0.2602 -0.1606 -0.3040
 1592W        W 5656   9.578   6.798   0.463  0.0331  0.1729  0.2017
 1593W        W 5657  10.369   9.326   0.567 -0.1209 -0.1306  0.1523
 1594W        W 5658   8.223   3.606   0.689  0.2383  0.2744 -0.1890
 1595W        W 5659   7.492   1.394   9.763 -0.2201 -0.0301 -0.1426
 1596W        W 5660   3.695   1.107   1.131 -0.0504  0.0640 -0.1375
 1597W        W 5661   9.802   4.360   1.948  0.0282 -0.0028  0.2071
 1598W        W 5662   2.827   2.827   2.586  0.2289  0.0588  0.1659
 1599W        W 5663   2.276   2.777   0.587 -0.0759 -0.1339 -0.1606
 1600W        W 5664   6.824   1.358  10.424  0.0286  0.3551 -0.1694
 1601W        W 5665   0.009   8.159   0.348  0.0018  0.1969 -0.1043
 1602W        W 5666   5.921   9.385  10.578 -0.1297 -0.0573  0.2799
 1603W        W 5667   9.352   7.180   1.133 -0.1269 -0.0575 -0.0049
 1604W        W 5668   0.646   1.379  10.931 -0.5907 -0.4284  0.0187
 1605W        W 5669   2.233   1.080   0.878 -0.2285  0.3767  0.1947
 1606W        W 5670   0.029   3.739   0.001 -0.0312 -0.3720  0.2906
 1607W        W 5671   5.469   9.104   2.400  0.1768 -0.1372  0.0333
 1608W        W 5672   5.746   5.865  11.010  0.1253  0.0361 -0.3708
 1609W        W 5673  10.689   8.039  11.208 -0.1031  0.1776 -0.0709
 1610W        W 5674   7.532   7.798   9.136 -0.1792  0.0892  0.4494
 1611W        W 5675  10.585   8.737   9.684 -0.1261  0.2900 -0.0290
 1612W        W 5676   9.654   0.151   0.484 -0.0961  0.0177 -0.0534
 1613W        W 5677   2.979   1.557  10.603  0.3323  0.0847 -0.0632
 1614W        W 5678   1.269   8.850  10.884 -0.0654 -0.1605 -0.0214
 1615W        W 5679   9.962   4.124  10.458  0.0944  0.0134  0.1071
 1616W        W 5680   5.527   3.210   0.007 -0.0044 -0.2554 -0.1030
 1617W        W 5681   5.644   0.455   8.348  0.2174  0.0834  0.2944
 1618W        W 5682   8.317   4.741   3.247 -0.1390 -0.1717  0.0873
 1619W        W 5683  10.492  10.190  10.481  0.0171 -0.0949  0.1621
 1620W        W 5684   8.198   4.824   8.175 -0.1138 -0.0109 -0.1213
 1621W        W 5685   2.514   8.311   9.800 -0.0467  0.1310 -0.1185
 1622W        W 5686   2.500   9.887   9.359  0.2495  0.0272  0.1878
 1623W        W 5687   1.305   2.391   2.241  0.2339  0.1555 -0.1598
 1624W        W 5688   4.947   8.105   3.241  0.0547 -0.0348  0.1675
 1625W        W 5689   6.927   7.532   1.404 -0.2316 -0.0003  0.0749
 1626W        W 5690   4.955  10.675  10.205  0.0479 -0.1519  0.1031
 1627W        W 5691   6.055   3.288   0.445 -0.0253  0.0360  0.2943
 1628W        W 5692   8.979   3.693  10.099 -0.0721 -0.2167  0.4239
 1629W        W 5693   7.376   8.620   2.389  0.3296 -0.0572 -0.0754
 1630W        W 5694   9.176   9.105  10.539 -0.0649  0.0360 -0.3563
 1631W        W 5695   5.480   8.880   1.407 -0.2336  0.0501  0.3960
 1632W        W 5696   3.562   2.262   2.353 -0.1815  0.1266  0.2428
 1633W        W 5697   8.246   6.109   8.841 -0.2133  0.0095  0.0096
 1634W        W 5698   7.294   6.821   8.123  0.2055  0.0633  0.0424
 1635W        W 5699   3.482   8.586   8.787 -0.2688 -0.3248 -0.2424
 1636W        W 5700   4.625   2.997   2.819  0.1100  0.3815  0.1216
 1637W        W 5701  10.612   1.970   9.393 -0.1075 -0.1842  0.0169
 1638W        W 5702   8.805   0.231   9.595  0.0505 -0.0867 -0.3075
 1639W        W 5703   5.767   1.400   7.380 -0.0439 -0.2525 -0.0576
 1640W        W 5704   7.319   5.919   1.423 -0.2899  0.0407  0.0031
 1641W        W 5705  10.333   7.679   1.945 -0.2937  0.0766  0.0001
 1642W        W 5706   7.894   4.985  10.449  0.0818 -0.3296  0.0232
 1643W        W 5707   6.344   0.993   0.851  0.0567 -0.0073  0.1727
 1644W        W 5708   4.389   8.679   0.675 -0.2622  0.0012  0.0270
 1645W        W 5709   0.389   9.367  10.385 -0.0017  0.1505 -0.0657
 1646W        W 5710   5.928  10.430   8.779 -0.1576 -0.4312 -0.0525
 1647W        W 5711   4.143   9.093   0.940 -0.1533  0.2161 -0.3840
 1648W        W 5712   4.604   1.776   0.088 -0.1942 -0.0224  0.0337
 1649W        W 5713   7.494   1.842   2.599 -0.0174 -0.0618  0.0023
 1650W        W 5714   9.312   7.706   9.011 -0.2074  0.0873 -0.1577
 1651W        W 5715   6.371   2.475  11.344  0.1597 -0.2259 -0.1992
 1652W        W 5716   7.669   9.404   8.315 -0.0382  0.0744 -0.0620
 1653W        W 5717   5.547   4.558   2.704  0.3867 -0.0911  0.1238
 1654W        W 5718   3.911   2.542   0.089 -0.0924 -0.0356  0.0659
 1655W        W 5719   5.449   1.386   8.465  0.2164 -0.0491 -0.0905
 1656W        W 5720   0.026   9.854   1.532 -0.2554  0.0423  0.1602
 1657W        W 5721   5.112   1.016   8.679 -0.2436  0.0498  0.0583
 1658W        W 5722   9.836   6.421   9.617 -0.0434 -0.0565  0.0166
 1659W        W 5723   1.994  10.049   2.980  0.4008 -0.1773 -0.2396
 1660W        W 5724   8.014   8.906   3.140  0.0045 -0.1042 -0.1006
 1661W        W 5725   8.067   2.839   0.125  0.3153 -0.2912 -0.3623
 1662W        W 5726   5.126   1.603   1.542 -0.0894  0.2813  0.1735
 1663W        W 5727   6.724  10.553   0.392 -0.5880 -0.2546  0.2955
 1664W        W 5728   0.596   0.770   1.276 -0.2007 -0.2886 -0.1076
 1665W        W 5729   4.045   7.828   2.592  0.0642  0.0035  0.0042
 1666W        W 5730   9.915   7.937   3.363  0.1133  0.1352  0.1185
 1667W        W 5731   7.683  10.593   9.493 -0.1559 -0.0546  0.1401
 1668W        W 5732   3.132   5.788   8.259  0.0765 -0.2624  0.0864
 1669W        W 5733   6.974   8.511   0.694  0.1051  0.0501  0.3903
 1670W        W 5734   2.822   9.445   9.633 -0.0276  0.2608  0.2861
 1671W        W 5735   5.897   0.403   1.507  0.2277 -0.0346  0.2918
 1672W        W 5736   5.849   8.130   3.094  0.0051 -0.0323  0.1180
 1673W        W 5737   2.762  10.113   8.031  0.0929 -0.0203 -0.2692
 1674W        W 5738   7.903   4.492  10.483  0.2624 -0.0091  0.2518
 1675W        W 5739   7.842   1.149  11.050 -0.1604  0.1798  0.2327
 1676W        W 5740   5.464   5.873   9.473  0.3220  0.0283 -0.2274
 1677W        W 5741   8.211   5.590   0.458  0.0269  0.1426  0.1871
 1678W        W 5742   8.393   4.570   2.714 -0.6042  0.0092  0.1655
 1679W        W 5743   4.381   7.460   1.745  0.1956  0.1600 -0.0479
 1680W        W 5744   0.029  10.012   0.259 -0.3031 -0.3495  0.0230
 1681W        W 5745   8.000   0.240  11.099  0.0926  0.0473  0.1230
 1682W        W 5746   1.482   6.705   8.858 -0.1222 -0.1824 -0.2631
 1683W        W 5747   2.458   9.371  10.967 -0.0678  0.0256 -0.2480
 1684W        W 5748   6.891   8.637   1.224  0.1684  0.5278  0.0654
 1685W        W 5749   7.464   7.744  10.272 -0.0789 -0.2281 -0.0187
 1686W        W 5750   0.349   3.871   1.046  0.2061  0.1558  0.0393
 1687W        W 5751   6.888   7.716   9.595  0.2700  0.1296  0.5426
 1688W        W 5752   4.152   9.567   0.664  0.1396  0.0298  0.2105
 1689W        W 5753  10.578   2.394   9.632  0.2017 -0.1501 -0.0349
 1690W        W 5754   7.462   3.999   0.240 -0.1372  0.2442 -0.0292
 1691W        W 5755   0.862   8.431   1.447  0.1268  0.1734  0.2272
 1692W        W 5756   0.539   8.062   0.891 -0.1403  0.1718  0.1692
 1693W        W 5757   1.493   9.083   4.082  0.0386  0.1023  0.2194
 1694W        W 5758   4.129   2.660   8.674  0.0507 -0.4031 -0.0705
 1695W        W 5759   3.198   7.987   3.222 -0.2284 -0.0445  0.0393
 1696W        W 5760  10.317  10.480  10.854  0.0752 -0.0538 -0.0549
 1697W        W 5761   4.981   9.588   1.324  0.0846 -0.2248  0.2103
 1698W        W 5762   1.904   7.825   2.799  0.0029  0.0263 -0.3483
 1699W        W 5763   3.141   1.929   9.638  0.2893  0.0519  0.1860
 1700W        W 5764  10.381   8.104   0.775  0.0968  0.0025 -0.1560
 1701W        W 5765   7.248  10.341   1.707 -0.4177 -0.1732  0.0045
 1702W        W 5766   2.120   5.405   1.107  0.0993  0.0559 -0.2363
 1703W        W 5767   3.483   8.709  10.474  0.0599  0.0814  0.0198
 1704W        W 5768   7.610   1.137   0.083 -0.1972  0.0535  0.0770
 1705W        W 5769   8.964   6.144   7.923  0.2604  0.0810  0.1207
 1706W        W 5770   1.386   0.599   8.443 -0.0017  0.0902 -0.0376
 1707W        W 5771   8.401   9.821   1.233 -0.0196  0.1616  0.1023
 1708W        W 5772   4.579   7.969   9.315 -0.0353  0.2334  0.4359
 1709W        W 5773   6.173   2.018   2.418 -0.0761  0.1115  0.0164
 1710W        W 5774   7.802   2.360   8.801  0.2087  0.1450 -0.2388
 1711W        W 5775   0.813   5.146   8.683  0.0287 -0.0182  0.3931
 1712W        W 5776   5.490   4.999   3.292  0.0145 -0.1313  0.1873
 1713W        W 5777   1.591   0.708   0.056  0.2905 -0.1711 -0.0644
 1714W        W 5778   9.832   1.700   9.498  0.0914 -0.1456 -0.1340
 1715W        W 5779   2.770  10.629   4.265  0.0423  0.0284 -0.1753
 1716W        W 5780   4.905   3.423   2.543  0.3694  0.1268  0.3664
 1717W        W 5781   4.365   1.330   1.933  0.1975 -0.0425  0.0146
 1718W        W 5782   1.238  10.508   2.684  0.2627  0.1682 -0.2063
 1719W        W 5783   3.772   0.162   1.123 -0.0084 -0.1116 -0.2599
 1720W        W 5784   7.250  10.561   0.546  0.4004  0.0263  0.0679
 1721W        W 5785  10.029   5.228   8.914  0.0280 -0.4729  0.1226
 1722W        W 5786   6.249   9.173   0.683  0.0752 -0.2325 -0.1759
 1723W        W 5787   5.464   2.535   1.171  0.0717  0.0836 -0.1266
 1724W        W 5788   9.010   1.521   9.965 -0.2302 -0.3517  0.0127
 1725W        W 5789   2.218   0.534   0.758 -0.2038 -0.0932  0.0923
 1726W        W 5790   1.064   2.295   9.899 -0.0537  0.2051  0.1534
 1727W        W 5791   2.550   1.341   9.037  0.0099  0.2433  0.4202
 1728W        W 5792   4.367   9.295   8.018 -0.1608 -0.0067 -0.1544
 1729W        W 5793   2.232   0.832   1.395 -0.0063  0.3144 -0.2582
 1730W        W 5794   1.464   0.334   0.917  0.1079  0.0440 -0.0256
 1731W        W 5795   1.937   6.530   3.451  0.0822  0.1549 -0.2799
 1732W        W 5796   9.803  10.031   9.666  0.0843  0.1651 -0.1545
 1733W        W 5797   7.099   2.921   0.320  0.3023 -0.1772  0.0989
 1734W        W 5798   1.684   6.010  10.425  0.1280  0.1166 -0.0229
 1735W        W 5799   1.696   7.467  10.182  0.0931  0.1203 -0.1227
 1736W        W 5800   2.598   4.838   7.118 -0.0850  0.1813  0.4973
 1737W        W 5801   6.500   9.178  10.701 -0.2195 -0.0568 -0.0450
 1738W        W 5802   0.982   2.486   8.901 -0.0583 -0.3222  0.0799
 1739W        W 5803   1.041   0.863  10.982 -0.1486 -0.4123  0.0322
 1740W        W 5804   1.130  10.647   1.113 -0.0541  0.2359  0.1503
 1741W        W 5805   0.949   7.836   2.228  0.0455  0.1567 -0.0123
 1742W        W 5806   7.226   5.143   3.228 -0.1071 -0.3521 -0.0697
 1743W        W 5807   9.412   4.439  11.164  0.0546 -0.0938 -0.1485
 1744W        W 5808   1.206   7.352   2.756  0.0907  0.0033  0.1204
 1745W        W 5809   4.309   0.362  10.652  0.1546  0.5016  0.0860
 1746W        W 5810   0.305   1.466   9.659 -0.0043 -0.1517 -0.0122
 1747W        W 5811   5.819   4.572  11.398  0.0604  0.0263 -0.1274
 1748W        W 5812   4.545   7.091   8.641 -0.1358  0.1923  0.0259
 1749W        W 5813   6.085   7.601  10.134 -0.1610  0.2279  0.1710
 1750W        W 5814   0.366   9.796   8.182  0.1249  0.0031  0.1134
 1751W        W 5815   6.557   8.746   8.370 -0.2215 -0.1863  0.1491
 1752W        W 5816   9.005   6.196  11.164 -0.0720 -0.3964 -0.1980
 1753W        W 5817   0.364   0.875   2.670 -0.2541  0.0325  0.0430
 1754W        W 5818   6.410   8.899   1.078  0.0311  0.1937  0.1669
 1755W        W 5819   3.384   6.060   9.829 -0.1600  0.1387 -0.0928
 1756W        W 5820   8.988  10.369  10.202 -0.2350 -0.1866  0.2887
 1757W        W 5821   0.888   9.832   3.899 -0.0077  0.0867 -0.1031
 1758W        W 5822   4.585   0.802   2.115  0.0396  0.2196 -0.0286
 1759W        W 5823   3.003   4.758   8.025 -0.1956 -0.0543  0.0809
 1760W        W 5824  10.693   6.987  10.743  0.0221 -0.2734  0.0094
 1761W        W 5825   4.929   1.527   2.040  0.1808 -0.2386  0.1871
 1762W        W 5826   9.640   9.189   2.082  0.1080  0.0740 -0.0827
 1763W        W 5827   1.381   9.243   0.531  0.1540  0.2606 -0.2946
 1764W        W 5828  10.459   3.864  10.930  0.1284  0.1773  0.0629
 1765W        W 5829   8.595   0.027   1.754  0.1384 -0.3493 -0.1400
 1766W        W 5830   2.709   8.199   2.573 -0.3547  0.1706 -0.3050
 1767W        W 5831   7.330   0.948  11.033 -0.1288 -0.3001 -0.0107
 1768W        W 5832   5.531   8.600   2.723  0.0429  0.1646  0.0180
 1769W        W 5833   1.029  10.459  11.417  0.0824 -0.1386  0.1485
 1770W        W 5834   3.393   8.774   7.538  0.0601  0.0549  0.1108
 1771W        W 5835   0.259  10.678   1.608  0.3875  0.2805  0.2768
 1772W        W 5836   8.423   8.585   8.565  0.0451 -0.2662 -0.2350
 1773W        W 5837   7.522   7.732   9.721 -0.1180  0.0735 -0.0421
 1774W        W 5838   6.038   8.321   8.965 -0.0312 -0.1845 -0.1945
 1775W        W 5839   8.179   9.364   3.319 -0.0868 -0.0770 -0.1496
 1776W        W 5840   3.486   1.807   0.609  0.0925 -0.1286  0.0215
 1777W        W 5841   1.143   6.923   4.170  0.1404 -0.0136 -0.1407
 1778W        W 5842   6.818   1.305  10.957  0.0365 -0.2583 -0.0409
 1779W        W 5843   1.353   7.881   0.254 -0.0796 -0.0432 -0.2744
 1780W        W 5844   6.981   9.086   9.529 -0.2984 -0.0193 -0.0332
 1781W        W 5845   4.419   0.315   8.001  0.2153  0.1595 -0.5223
 1782W        W 5846   6.954   6.140  11.256  0.2340 -0.0693  0.0619
 1783W        W 5847   9.576   8.481   8.854  0.1790 -0.0245 -0.0594
 1784W        W 5848   9.654   6.854   9.474 -0.0259  0.0131  0.3465
 1785W        W 5849   4.127   2.716  10.405  0.1933  0.0153 -0.1444
 1786W        W 5850   8.280   0.004   1.137 -0.3521  0.1540  0.1030
 1787W        W 5851   0.882   4.213   1.426  0.0290 -0.2237 -0.0701
 1788W        W 5852   5.373   2.648   2.558 -0.1149 -0.1664  0.2190
 1789W        W 5853   5.827   9.026   1.737  0.2402 -0.0892 -0.1269
 1790W        W 5854   5.683   2.333   1.809  0.1177 -0.0370 -0.0640
 1791W        W 5855   8.767   9.795   2.320  0.2353  0.1726 -0.1118
 1792W        W 5856   5.646   3.777   9.921 -0.1548 -0.6136 -0.0720
 1793W        W 5857   1.804   9.535   2.074 -0.0922  0.3409 -0.0595
 1794W        W 5858   7.525   4.040  10.123  0.0582 -0.0236 -0.1291
 1795W        W 5859   7.590   1.718  10.157 -0.0186 -0.0536  0.0272
 1796W        W 5860   6.348   1.572   3.531 -0.1693 -0.0485  0.1909
 1797W        W 5861   7.214   0.770  10.237 -0.0421 -0.0889 -0.0631
 1798W        W 5862   1.392   7.477   0.915  0.0212 -0.2717  0.1131
 1799W        W 5863   0.210   5.551   1.348  0.1764  0.2777 -0.6427
 1800W        W 5864   0.577   0.463   3.545 -0.0835  0.1444 -0.0350
 1801W        W 5865   5.493   5.539  10.336 -0.2749 -0.0986 -0.0411
 1802W        W 5866   8.416   1.843   1.606  0.1666  0.2968  0.0857
 1803W        W 5867   7.052   5.629   3.092  0.1888  0.4354 -0.2359
 1804W        W 5868   7.097   2.490   2.749 -0.3217 -0.1979 -0.0241
 1805W        W 5869   5.118   5.538   9.209  0.1968  0.2799 -0.0323
 1806W        W 5870   9.685   1.854   2.657  0.1586 -0.0433  0.0039
 1807W        W 5871  10.359   7.108   0.179  0.2128  0.1556  0.0463
 1808W        W 5872   2.109   8.218  11.341  0.0386 -0.2131  0.1627
 1809W        W 5873   9.243   8.320   8.461  0.0498  0.1889 -0.2727
 1810W        W 5874   6.758   0.394   0.348 -0.3270 -0.0328 -0.1063
 1811W        W 5875   1.051   5.383   0.579 -0.1357  0.0191 -0.0145
 1812W        W 5876   4.174   7.452   3.978 -0.0587  0.2736  0.0428
 1813W        W 5877   4.150   1.314  10.847 -0.0338  0.4562  0.0498
 1814W        W 5878   6.068   3.410  11.261 -0.0006  0.0826  0.1985
 1815W        W 5879   1.455   4.582   0.461 -0.1588 -0.2060 -0.0483
 1816W        W 5880   7.714  10.451   0.801  0.0026 -0.0013  0.1279
 1817W        W 5881   6.351   8.606  10.934 -0.0066  0.0229 -0.0121
 1818W        W 5882   7.878   7.230   1.799 -0.3827 -0.0214 -0.0979
 1819W        W 5883   5.018   1.518   0.000  0.1280  0.0056 -0.0959
 1820W        W 5884   8.402   6.110   0.941  0.1362 -0.2156 -0.4189
 1821W        W 5885   1.627   1.981   3.052  0.1741  0.0617 -0.0227
 1822W        W 5886  10.699   1.577  10.574 -0.1872  0.1342  0.0538
 1823W        W 5887   7.986   2.991   9.399  0.0832 -0.0055  0.2202
 1824W        W 5888   0.828   6.456  10.680  0.2243  0.1626 -0.1757
 1825W        W 5889   2.395   5.507   9.644 -0.0290  0.0783 -0.1267
 1826W        W 5890   5.301   8.590   3.198 -0.1421 -0.0429 -0.1214
 1827W        W 5891   8.401   6.972   0.450  0.1230 -0.0467  0.1390
 1828W        W 5892   7.149   9.810   9.625  0.3375 -0.1013 -0.0452
 1829W        W 5893   9.969   2.472   2.339 -0.2036  0.0784 -0.1400
 1830W        W 5894   9.732   3.176  10.522 -0.2521 -0.0295 -0.2222
 1831W        W 5895   2.134   7.194   4.224  0.1318 -0.0215  0.2192
 1832W        W 5896  10.236   0.748   3.050 -0.1038 -0.1599  0.0480
 1833W        W 5897   1.608   9.721   0.066  0.1021 -0.3224  0.1212
 1834W        W 5898   3.629   6.365   1.668 -0.3578  0.2509  0.3019
 1835W        W 5899   3.727   0.533   2.040 -0.1689  0.1466  0.3874
 1836W        W 5900   5.719   1.981   3.078  0.1837 -0.0426 -0.0063
 1837W        W 5901   1.543   5.317   2.488 -0.1089  0.1466  0.2446
 1838W        W 5902   2.393   7.030   1.835  0.5008  0.4091  0.1377
 1839W        W 5903   4.172   8.331   2.424  0.2015  0.0840 -0.0087
 1840W        W 5904   2.048   4.408   2.346 -0.1420  0.4062  0.0754
 1841W        W 5905   4.167  10.556  10.762 -0.2171  0.0176  0.2334
 1842W        W 5906   6.152  10.720   0.477  0.0563 -0.0738 -0.0232
 1843W        W 5907   1.165   8.313   2.195  0.0879  0.1099  0.0667
 1844W        W 5908   4.751   7.392   7.818  0.0739 -0.2197  0.3487
 1845W        W 5909   3.929   8.562   2.048 -0.1144  0.1700  0.1464
 1846W        W 5910   7.236   7.565   7.621 -0.2427  0.0583  0.1049
 1847W        W 5911   9.916   1.414   8.864  0.0953 -0.5157 -0.0655
 1848W        W 5912   8.745   0.875   7.610  0.1752  0.1117 -0.0375
 1849W        W 5913   5.055   4.462   2.637  0.3697 -0.0680 -0.0672
 1850W        W 5914   1.253  10.662   0.539  0.0428  0.5123  0.0525
 1851W        W 5915   8.378   2.379   1.303 -0.1428  0.2071 -0.0698
 1852W        W 5916  10.242   4.503   7.913 -0.0124  0.4579 -0.1448
 1853W        W 5917   5.356   5.770   7.839 -0.0865 -0.0477 -0.2229
 1854W        W 5918   2.327   6.055   2.564  0.2014 -0.0391  0.0639
 1855W        W 5919   6.902   7.176   7.908 -0.0545 -0.1535  0.1013
 1856W        W 5920   2.593   8.230   1.652 -0.0019 -0.2346 -0.0300
 1857W        W 5921   7.175   6.822   2.715  0.0625 -0.1500 -0.0429
 1858W        W 5922   8.903   9.169   8.705  0.2098 -0.3200  0.3250
 1859W        W 5923   1.014   4.316  11.046 -0.2313 -0.2533 -0.0630
 1860W        W 5924   4.106   5.729   1.125 -0.0970 -0.2286  0.1082
 1861W        W 5925   6.574   7.249   7.027  0.1617 -0.0447  0.3274
 1862W        W 5926   1.592   6.832   8.287 -0.1886 -0.1677 -0.4580
 1863W        W 5927   5.152   4.180   1.987  0.0964 -0.2787 -0.2459
 1864W        W 5928   2.474   8.572   2.873 -0.1547  0.1103 -0.0245
 1865W        W 5929   0.728   2.609   8.468 -0.1127 -0.0841  0.0296
 1866W        W 5930   2.732   9.798   8.494 -0.0005  0.0450 -0.2244
 1867W        W 5931   4.057   1.785   9.534  0.2570 -0.3095  0.1799
 1868W        W 5932   1.484   8.398  10.522  0.1258  0.3230 -0.1076
 1869W        W 5933   0.795   5.457   1.978 -0.0168 -0.1621 -0.2704
 1870W        W 5934   7.865   2.853   8.863  0.1550  0.1334  0.2174
 1871W        W 5935   7.314  10.529   1.236 -0.2412 -0.1718 -0.2722
 1872W        W 5936   9.247   2.062  11.337 -0.2169  0.3021 -0.2981
 1873W        W 5937   3.464   0.237   0.733 -0.0228  0.1986  0.2655
 1874W        W 5938   4.314   3.447   0.761 -0.1788  0.2395  0.4800
 1875W        W 5939   5.452  10.101   9.232  0.2839 -0.3251  0.0024
 1876W        W 5940   5.297   5.071   9.953 -0.1327 -0.1638 -0.0133
 1877W        W 5941   3.954   6.258   2.053 -0.0546  0.0079  0.1637
 1878W        W 5942   5.452   0.314  11.400  0.0574 -0.0475  0.0459
 1879W        W 5943   0.160  10.666   8.835  0.0229  0.0794  0.2081
 1880W        W 5944   8.675   5.477   8.282  0.1306  0.1307 -0.1747
 1881W        W 5945   6.109   5.755   8.304  0.0262  0.0831  0.0525
 1882W        W 5946   0.538   2.304  10.677  0.2610 -0.0629 -0.1233
 1883W        W 5947   9.640   2.806   9.300  0.0439 -0.6946 -0.1333
 1884W        W 5948   0.434   9.000   2.871 -0.1136 -0.2452 -0.2853
 1885W        W 5949   8.938   8.126   3.189 -0.2581  0.3118 -0.0145
 1886W        W 5950   0.406   7.256   0.788  0.5583  0.0055 -0.1803
 1887W        W 5951   6.059   4.201   8.038  0.2733 -0.1222 -0.0055
 1888W        W 5952   1.327   4.733   0.899  0.0079 -0.2599  0.0259
 1889W        W 5953   2.578   3.572   1.999 -0.2025 -0.0793  0.2279
 1890W        W 5954   2.482   4.795   0.304  0.4882  0.0832  0.3038
 1891W        W 5955   3.097   3.056  10.614 -0.0666  0.0105  0.5260
 1892W        W 5956   5.325  10.551   7.912  0.1554  0.0591 -0.0292
 1893W        W 5957  10.590   8.937   8.203 -0.2073 -0.0614 -0.2721
 1894W        W 5958   7.750   6.813  11.337  0.0682  0.0246 -0.0520
 1895W        W 5959   9.315   7.455  11.037  0.1097  0.3017 -0.1696
 1896W        W 5960   2.830   9.860   2.800  0.0199  0.2412  0.0717
 1897W        W 5961   0.515   0.425   2.908 -0.2035  0.0145 -0.0740
 1898W        W 5962   7.841   8.651   1.566 -0.0970  0.0526  0.1820
 1899W        W 5963   0.074   6.071   0.967  0.1520  0.1495  0.1258
 1900W        W 5964   5.076   2.825  10.524  0.0884 -0.4680 -0.3193
 1901W        W 5965   8.216   5.264   1.797  0.1441 -0.0422  0.2177
 1902W        W 5966   9.398   0.545   0.294  0.1428  0.1031 -0.0081
 1903W        W 5967   0.480   1.630   0.733 -0.0646  0.1453 -0.3100
 1904W        W 5968   0.385  10.195   2.023 -0.0127  0.1662 -0.1771
 1905W        W 5969   6.250   3.622   1.359 -0.2462 -0.0882  0.2067
 1906W        W 5970   9.990   4.036   9.557  0.0253  0.2497 -0.0655
 1907W        W 5971  10.609   6.509  10.727 -0.0542  0.0072  0.0989
 1908W        W 5972   5.817   5.732   3.656  0.1368  0.0225 -0.0788
 1909W        W 5973   8.605   7.185   8.886  0.1066  0.0780  0.1108
 1910W        W 5974   4.482   6.486  11.057  0.0187  0.0623  0.0697
 1911W        W 5975   3.071   2.048   7.862 -0.1370  0.0353  0.0581
 1912W        W 5976   3.904   3.317   9.234  0.1468  0.2614 -0.0873
 1913W        W 5977  10.519   1.829  10.108 -0.0518 -0.1543  0.0786
 1914W        W 5978   3.588   6.697   7.890  0.0661  0.1280  0.2065
 1915W        W 5979   8.478   5.683  10.136 -0.2310  0.3542 -0.0031
 1916W        W 5980   6.776   3.740  10.364  0.1797  0.0116 -0.1935
 1917W        W 5981   7.680   3.131   1.980 -0.2782 -0.2120  0.0101
 1918W        W 5982   3.217   8.123   2.557 -0.2485  0.3235  0.2323
 1919W        W 5983   1.477   0.464  10.225  0.0313 -0.1008  0.1863
 1920W        W 5984   1.556   8.518   8.386 -0.2621  0.0857  0.0245
 1921W        W 5985   7.491   2.358   2.579 -0.2851 -0.0787  0.0863
 1922W        W 5986   7.593   7.800   1.857 -0.0847  0.1025 -0.0370
 1923W        W 5987   7.595   6.036   9.284  0.1996  0.1636 -0.0004
 1924W        W 5988   0.692   1.844  10.501 -0.1610  0.0595  0.1273
 1925W        W 5989   5.557   0.423   2.339  0.1502 -0.0309 -0.1252
 1926W        W 5990   8.804   4.899   0.273  0.0536  0.2298  0.0290
 1927W        W 5991   4.653   7.893   9.937  0.2069  0.0096  0.1754
 1928W        W 5992   6.379   4.080   4.430 -0.0629 -0.0737  0.2467
 1929W        W 5993   9.934   4.520   0.731  0.2064 -0.0992  0.1934
 1930W        W 5994   6.562   4.121   9.709  0.2879 -0.0806 -0.0169
 1931W        W 5995   8.194   2.551   3.114  0.0475  0.0194 -0.1541
 1932W        W 5996   1.364   3.777  10.349  0.2062  0.2978  0.2042
 1933W        W 5997   6.914   6.458   3.204  0.2141  0.0525 -0.1447
 1934W        W 5998   4.059   5.746   2.981  0.2963 -0.1092 -0.1765
 1935W        W 5999   9.123   8.168   7.931  0.4261  0.0261  0.0701
 1936W        W 6000   8.734   7.517   7.383 -0.2847  0.2356  0.0861
 1937W        W 6001   1.213   3.046   2.457 -0.0160  0.1706 -0.2497
 1938W        W 6002   5.058   5.442   2.708  0.2200  0.3131  0.0497
 1939W        W 6003   2.460   2.990   1.292  0.1106  0.1457  0.0158
 1940W        W 6004   6.017   4.316   0.365 -0.2787  0.0407  0.0974
 1941W        W 6005   5.371   4.167   3.518  0.0785 -0.0544  0.1232
 1942W        W 6006   7.733   9.763   9.117 -0.0447  0.3826  0.1949
 1943W        W 6007   5.114   3.900   8.959  0.1399 -0.1422 -0.2939
 1944W        W 6008   9.794   9.982   8.173 -0.1255 -0.0672 -0.0163
 1945W        W 6009  10.430   6.323  11.160  0.0659 -0.0327 -0.0155
 1946W        W 6010   2.171   7.966   1.706  0.0255  0.2240  0.1415
 1947W        W 6011   3.133   2.347   9.223  0.0580  0.2201  0.0140
 1948W        W 6012   8.738   2.629   8.988  0.1409 -0.5104 -0.0654
 1949W        W 6013   3.012   8.960   0.804  0.2923 -0.4442  0.0229
 1950W        W 6014   0.426   1.327  10.496  0.2231  0.1138 -0.0190
 1951W        W 6015   8.170   0.169   2.671 -0.1231 -0.1070 -0.2587
 1952W        W 6016   8.906   8.342   9.328 -0.0003 -0.0513 -0.2096
 1953W        W 6017   1.901   4.548   8.424 -0.1085 -0.0713 -0.1229
 1954W        W 6018   2.034   8.902   0.594  0.0404 -0.2181 -0.0110
 1955W        W 6019   4.514   9.815   1.396 -0.3198  0.3942 -0.1542
 1956W        W 6020   7.834   1.493  10.625  0.0506 -0.3162  0.2310
 1957W        W 6021   6.549   1.470   9.929  0.3254 -0.1626  0.0281
 1958W        W 6022   4.238   9.009   0.399 -0.1689  0.2805  0.1252
 1959W        W 6023   8.393   1.071   9.353 -0.1379 -0.0981 -0.4173
 1960W        W 6024   9.423   7.968  10.885  0.2689 -0.1570 -0.3462
 1961W        W 6025   5.177   2.229   3.293  0.0383 -0.0896  0.0816
 1962W        W 6026   9.876   1.921   8.511  0.0556  0.2627  0.0774
 1963W        W 6027   9.360   1.433   1.648 -0.1454  0.1729 -0.0999
 1964W        W 6028   3.802   0.014   8.353  0.4946  0.0934 -0.2809
 1965W        W 6029   9.390   9.215   9.445 -0.1022 -0.2666  0.0444
 1966W        W 6030   7.894   4.154   2.129 -0.0232  0.2058 -0.0260
 1967W        W 6031   1.716   5.814  10.881 -0.2746 -0.0387  0.0270
 1968W        W 6032   8.540   3.643  11.239  0.0177 -0.4093 -0.0626
 1969W        W 6033   5.082   0.302  11.051 -0.0528 -0.0107  0.2461
 1970W        W 6034   5.992   2.284   9.285  0.1573 -0.0849 -0.1975
 1971W        W 6035   0.784   1.781   1.763 -0.0494  0.1944  0.1116
 1972W        W 6036   7.190   5.833  10.555 -0.1739  0.3691  0.0023
 1973W        W 6037   2.047   0.346   1.221 -0.0045 -0.2009 -0.3717
 1974W        W 6038   5.557   6.639  10.136 -0.2605  0.0480  0.1873
 1975W        W 6039   2.551   7.209   0.326  0.4196  0.1027 -0.0914
 1976W        W 6040   4.671   4.213   1.716 -0.3115 -0.1768  0.3038
 1977W        W 6041   8.078   8.209  11.375  0.2334 -0.1225 -0.2571
 1978W        W 6042   9.074   5.071   2.128  0.1085 -0.0309 -0.0240
 1979W        W 6043   4.802  10.569   2.576  0.1350  0.0052  0.2290
 1980W        W 6044   7.698   4.121   8.748 -0.1844  0.1252  0.1255
 1981W        W 6045   6.910   9.429  10.449  0.0858 -0.1273 -0.1751
 1982W        W 6046   4.938   9.877   3.230  0.0050  0.0405 -0.0578
 1983W        W 6047   5.658   8.377   0.199  0.0764  0.0805 -0.0002
 1984W        W 6048   4.613   3.737   0.070 -0.3412 -0.2033 -0.2426
 1985W        W 6049   2.172   0.201   2.704  0.1449  0.2181 -0.4055
 1986W        W 6050   6.740   4.342  11.070 -0.1442 -0.0603  0.2289
 1987W        W 6051   5.913   6.511   7.931 -0.3002 -0.1190  0.1891
 1988W        W 6052   0.058   0.855   2.268 -0.2868  0.1492 -0.0443
 1989W        W 6053   4.900   5.859   2.409 -0.1392 -0.1840  0.0034
 1990W        W 6054   7.296   1.370  10.821 -0.0238  0.2250  0.0509
 1991W        W 6055   1.964   3.001   3.042  0.0238 -0.0310 -0.0692
 1992W        W 6056   5.512   5.334   9.513 -0.0991 -0.0430 -0.2630
 1993W        W 6057   0.484   0.143   1.171  0.0040 -0.1309 -0.0853
 1994W        W 6058   0.340   5.925   2.774  0.0339 -0.0138  0.0229
 1995W        W 6059  10.581   8.271   8.926  0.1182 -0.4685 -0.0213
 1996W        W 6060   5.350   6.649  11.212 -0.2597 -0.0396  0.1927
 1997W        W 6061   2.368   3.971   9.107  0.2953  0.0325  0.1984
 1998W        W 6062   3.748   0.686   7.613  0.0113  0.2174  0.1069
 1999W        W 6063   9.283   4.890  10.498 -0.0911  0.0785 -0.0803
 2000W        W 6064   0.687   6.653   9.250  0.0061  0.1451  0.0803
 2001W        W 6065   2.271   7.600   0.456 -0.1683 -0.2252  0.0846
 2002W        W 6066   5.511   0.038   1.431 -0.0615 -0.1541  0.1528
 2003W        W 6067   8.091   3.090   0.640 -0.0029 -0.4016 -0.0452
 2004W        W 6068   9.875   0.480   0.899  0.2229 -0.0411  0.0014
 2005W        W 6069  10.651   3.845   1.363  0.0471  0.4085  0.3683
 2006W        W 6070   4.993   5.593   1.939  0.0152  0.2441  0.0066
 2007W        W 6071   8.771   5.232   8.847 -0.0731  0.0140  0.5004
 2008W        W 6072   4.185   3.425   1.644  0.1241 -0.1717  0.1049
 2009W        W 6073  10.244  10.264  11.413 -0.3445  0.0762  0.1632
 2010W        W 6074   5.773   4.182  11.097  0.1630  0.0566  0.0412
 2011W        W 6075   9.054   7.186   7.618  0.1258  0.0777  0.0954
 2012W        W 6076   0.787   8.386   0.463  0.0437 -0.1953  0.2300
 2013W        W 6077   1.997   4.239   0.321  0.2437  0.1181 -0.2412
 2014W        W 6078   1.748   8.945   3.378  0.0418 -0.1233  0.0119
 2015W        W 6079   9.971   8.067  10.170  0.0538 -0.1735 -0.2521
 2016W        W 6080  10.254   3.050   2.143 -0.0618  0.0085  0.2764
 2017W        W 6081   0.923   5.407  11.058  0.3072 -0.3874  0.0905
 2018W        W 6082   8.278   2.848   4.032  0.1195  0.0920  0.2188
 2019W        W 6083   7.564   1.408   8.762 -0.0177 -0.3192  0.1311
 2020W        W 6084  10.069   5.741   8.969  0.1533  0.0887  0.0472
 2021W        W 6085   5.560   6.376   2.045  0.1135 -0.0583 -0.1591
 2022W        W 6086   6.581   5.831   8.855  0.2669  0.0997 -0.2265
 2023W        W 6087   1.684   9.210   1.447  0.4242 -0.3903 -0.0488
 2024W        W 6088   2.932   0.926   2.286  0.0656  0.0698  0.2463
 2025W        W 6089   4.984   6.667   1.699 -0.4488  0.0257  0.0261
 2026W        W 6090   9.535   8.570   0.875 -0.2099  0.2405  0.3798
 2027W        W 6091   3.609   2.021   3.113  0.0762  0.1663 -0.0336
 2028W        W 6092   5.968   4.595  10.925 -0.1975 -0.0565 -0.1251
 2029W        W 6093   1.317   1.828   1.779 -0.0511  0.1210 -0.0519
 2030W        W 6094   7.245   6.331   9.522  0.1995 -0.0917  0.0874
 2031W        W 6095   3.283   1.368  11.208  0.2242 -0.2397 -0.2591
 2032W        W 6096   5.939   8.862   2.775  0.1224 -0.1529 -0.2220
 2033W        W 6097   9.906   6.401   2.491 -0.3088  0.2156  0.0730
 2034W        W 6098   9.389   3.840  10.373 -0.1919  0.0586  0.0310
 2035W        W 6099   2.604   3.058   0.318  0.0167 -0.2806 -0.0155
 2036W        W 6100   3.696   3.250  10.992 -0.0654  0.4674  0.0703
 2037W        W 6101   3.800   9.105   4.110 -0.1851  0.0094 -0.0410
 2038W        W 6102   2.501   9.654   9.977  0.3616  0.0782 -0.0871
 2039W        W 6103   4.303   4.987   3.300 -0.1531 -0.0242 -0.0673
 2040W        W 6104   1.656   9.562   2.610 -0.2031  0.2596 -0.3228
 2041W        W 6105   8.521   3.309   0.951  0.0247 -0.0887  0.0723
 2042W        W 6106  10.589   5.495  10.655  0.1758 -0.1118 -0.2154
 2043W        W 6107   4.828   2.738   2.286  0.1663  0.1847 -0.0058
 2044W        W 6108   3.978   2.833   9.167 -0.2441 -0.0439  0.2013
 2045W        W 6109   9.913   6.914   2.295 -0.1975  0.4635  0.0451
 2046W        W 6110   4.139   9.492   4.102  0.1251  0.1325  0.2508
 2047W        W 6111   3.537   3.414   2.852  0.0021  0.0347 -0.0178
 2048W        W 6112   6.740   4.974   1.136 -0.2009  0.1746 -0.2665
 2049W        W 6113   6.903   6.410   9.008  0.0134  0.2197 -0.2249
 2050W        W 6114   6.772   0.707   1.352 -0.0547  0.1985 -0.1658
 2051W        W 6115   7.235   5.865   9.622 -0.3184 -0.3105  0.0955
 2052W        W 6116   5.238   1.574  11.021  0.0694 -0.4386  0.1068
 2053W        W 6117   1.874   0.300   0.010  0.0296 -0.4673  0.0213
 2054W        W 6118   6.028  10.156   8.153 -0.0084  0.3653 -0.0056
 2055W        W 6119   5.264  10.307  10.184 -0.2999  0.3140 -0.1153
 2056W        W 6120   8.687   9.056   9.857 -0.1325 -0.1026  0.0309
 2057W        W 6121   3.915   0.895   8.560  0.3914 -0.0617  0.0467
 2058W        W 6122   3.888   8.638   0.395  0.2950  0.1970 -0.0109
 2059W        W 6123   8.398   0.523   0.539  0.2574 -0.1694 -0.0795
 2060W        W 6124   5.338   1.303   9.055 -0.3123 -0.3136 -0.1283
 2061W        W 6125   2.636   4.043   9.606 -0.0496  0.3192 -0.1099
 2062W        W 6126  10.269   0.261   0.694 -0.0974  0.2265  0.1584
 2063W        W 6127  10.273   7.641  10.278  0.0273 -0.0994  0.0438
 2064W        W 6128   2.792   0.447   1.962 -0.1283  0.1834 -0.1615
 2065W        W 6129   0.068   0.828   1.060  0.0990 -0.0730  0.2468
 2066W        W 6130   1.846   6.847   0.310  0.1732  0.0974 -0.2479
 2067W        W 6131   4.881   2.959   3.968  0.3006  0.1683  0.0515
 2068W        W 6132   6.355   3.863   8.304  0.0895  0.1076 -0.0392
 2069W        W 6133   5.282   4.308  11.113  0.0748  0.0736 -0.1126
 2070W        W 6134   7.726   0.654   0.013  0.1018  0.2409 -0.0315
 2071W        W 6135   4.916   9.350   1.774  0.2818  0.0724  0.0783
 2072W        W 6136  10.334   4.351   0.469 -0.2152  0.6755 -0.2884
 2073W        W 6137   7.183   7.510  11.146  0.0109 -0.0276 -0.2286
 2074W        W 6138   8.008   1.742  11.008  0.0850  0.0407 -0.1113
 2075W        W 6139   8.390   2.221   3.542  0.0935  0.0329 -0.1406
 2076W        W 6140   3.744   3.568   1.772  0.0756  0.0933  0.0859
 2077W        W 6141   4.808   7.495  11.382 -0.2452  0.1285  0.2238
 2078W        W 6142   2.716   0.752   1.560  0.1492  0.0716  0.2630
 2079W        W 6143   3.858   7.507   8.567  0.0064  0.0496 -0.0109
 2080W        W 6144   6.301   5.135   0.947 -0.0728  0.0008  0.1260
 2081W        W 6145   2.939   8.066   1.123  0.0630 -0.2862 -0.0523
 2082W        W 6146   2.098   4.874   8.075  0.3883  0.0141 -0.1354
 2083W        W 6147   9.584  10.393  10.255  0.1183 -0.0488 -0.2563
 2084W        W 6148   8.730   8.587   3.076  0.0001 -0.1491 -0.1520
 2085W        W 6149   1.388   3.505   2.569 -0.0130  0.3448  0.0966
 2086W        W 6150   3.378   8.728  10.003 -0.0201 -0.0757  0.0532
 2087W        W 6151   4.985   9.394   3.071 -0.3644 -0.0475 -0.0654
 2088W        W 6152   9.981   5.443   9.371 -0.2453 -0.0675  0.2535
 2089W        W 6153   9.522   7.817   8.577 -0.3095  0.2071 -0.0126
 2090W        W 6154   1.505   0.826  10.615  0.0475 -0.1576 -0.2186
 2091W        W 6155   7.793   2.122   2.255  0.0946  0.0675  0.2823
 2092W        W 6156   1.614  10.313   3.124  0.1190  0.0655  0.4390
 2093W        W 6157   6.971   6.895   3.527  0.0276  0.2146 -0.1777
 2094W        W 6158   8.433   4.851  10.516 -0.1223  0.0098  0.0079
 2095W        W 6159   9.371   5.144   9.718  0.0493 -0.1491 -0.0494
 2096W        W 6160   9.609   5.748   1.777 -0.0163 -0.2789  0.2895
 2097W        W 6161   8.822   9.436   4.041  0.1046  0.1050 -0.0318
 2098W        W 6162   1.341   2.592   2.790  0.2392  0.0597  0.2102
 2099W        W 6163   2.051   0.286  10.123 -0.2215  0.3428  0.5842
 2100W        W 6164   8.247   7.340  11.150 -0.0498 -0.2836 -0.2574
 2101W        W 6165   5.114   4.491   9.555  0.2239 -0.1417  0.0308
 2102W        W 6166   1.296   9.807   9.694  0.3141  0.2146  0.0753
 2103W        W 6167   3.058   3.383   8.362 -0.0701 -0.1781  0.0331
 2104W        W 6168   4.153   1.975   0.784 -0.0097 -0.0273  0.2994
 2105W        W 6169   4.072   7.738   0.503 -0.1092 -0.0233 -0.0665
 2106W        W 6170   6.367   5.101   4.229  0.1504 -0.4027 -0.0133
 2107W        W 6171   3.241   0.553   2.245  0.1130  0.0242  0.2207
 2108W        W 6172   3.253  10.676   8.523 -0.0817  0.3519  0.0050
 2109W        W 6173   4.923   8.601  11.410 -0.2775 -0.0342  0.0378
 2110W        W 6174   2.120   8.281  10.541 -0.1108  0.1950 -0.3376
 2111W        W 6175   7.818   8.972   9.878 -0.1096  0.2273 -0.2480
 2112W        W 6176   0.552   3.978   9.817 -0.2530  0.0529  0.2219
 2113W        W 6177   0.007   1.074  10.608 -0.1901  0.3487 -0.0385
 2114W        W 6178   9.394   7.919   3.130 -0.2695 -0.0304  0.1525
 2115W        W 6179   1.416   3.370   9.075  0.0677  0.0845  0.3205
 2116W        W 6180   2.087   5.959   8.401  0.4992  0.0849 -0.2072
 2117W        W 6181  10.541   3.562   0.924 -0.0999 -0.1127  0.1408
 2118W        W 6182   8.661   7.239   2.958  0.3024  0.0113  0.0697
 2119W        W 6183   2.352   6.645   1.490 -0.0076  0.2163 -0.1647
 2120W        W 6184   4.846   1.200   2.438  0.0160 -0.2945  0.1042
 2121W        W 6185   5.934   5.470   0.790 -0.0087 -0.1259  0.0827
 2122W        W 6186  10.545   8.881   0.668  0.0763 -0.0130 -0.2361
 2123W        W 6187   8.554   1.377  10.249 -0.1237  0.1059  0.0030
 2124W        W 6188   3.179   0.719  10.219 -0.0216  0.2313 -0.1582
 2125W        W 6189   1.943   2.633   1.526 -0.1247 -0.0498 -0.2231
 2126W        W 6190   2.325   0.548  10.976 -0.2212 -0.1497  0.1569
 2127W        W 6191   0.285   0.541   8.855  0.0093 -0.0979  0.0964
 2128W        W 6192   7.171   9.732   1.743  0.3344 -0.2021 -0.0451
 2129W        W 6193   7.116  10.663   2.134 -0.0557  0.0515 -0.1815
 2130W        W 6194   5.758   7.228   4.072  0.1236 -0.0158 -0.2712
 2131W        W 6195   6.400   8.035   3.405  0.0019  0.2333  0.0280
 2132W        W 6196   2.491  10.089   3.121 -0.1962 -0.1357 -0.2390
 2133W        W 6197   4.931   4.124   0.481  0.1124  0.0719  0.2101
 2134W        W 6198   7.491   1.806  10.828  0.0054  0.0450  0.2053
 2135W        W 6199   1.041   4.036  10.550 -0.0521  0.1158 -0.0809
 2136W        W 6200   0.942   6.497   0.153  0.1481 -0.2143 -0.1615
 2137W        W 6201   8.853   1.095   8.011 -0.0764  0.0652 -0.0046
 2138W        W 6202   5.108   3.957   9.949 -0.0985 -0.3286  0.1275
 2139W        W 6203   6.905   8.175   2.211 -0.0215  0.0190 -0.0703
 2140W        W 6204   7.425   2.249  10.470  0.0596 -0.0640 -0.1310
 2141W        W 6205   2.048   1.200   1.805 -0.0024 -0.2584 -0.2032
 2142W        W 6206  10.191   1.927  11.278 -0.2058 -0.1652  0.1516
 2143W        W 6207   2.952   7.003   0.511 -0.2831 -0.1393 -0.0876
 2144W        W 6208   4.939   8.774   0.700 -0.0492 -0.1297  0.1173
 2145W        W 6209   4.400   1.853   3.189  0.1367 -0.0837 -0.2423
 2146W        W 6210   7.830   0.079   9.990  0.2697  0.0058 -0.0629
 2147W        W 6211  10.630   5.897   2.989 -0.2902 -0.2468  0.2037
 2148W        W 6212   4.170   9.752   7.776  0.1939  0.0916  0.1002
 2149W        W 6213   3.117   8.347  10.434  0.1107  0.1541  0.1711
 2150W        W 6214   5.583   7.651   1.394  0.0528  0.1663 -0.0765
 2151W        W 6215   8.236   6.616   2.691  0.1433 -0.1179 -0.1961
 2152W        W 6216   2.211   8.518   1.582 -0.0838  0.2105  0.1604
 2153W        W 6217   1.591   4.301   9.579  0.1391 -0.1483 -0.3400
 2154W        W 6218   1.488   9.113  11.389 -0.1965 -0.0516  0.0244
 2155W        W 6219   8.768   8.873  10.851 -0.1166  0.1638  0.3767
 2156W        W 6220   3.569   0.162   9.032  0.2026 -0.0438  0.2475
 2157W        W 6221   5.929   0.143  11.049 -0.1017 -0.1280 -0.1347
 2158W        W 6222   0.733   9.430   1.323 -0.1537  0.3750 -0.3680
 2159W        W 6223  10.182   0.522  11.344 -0.0352  0.1431 -0.0020
 2160W        W 6224   5.396   1.207   1.673 -0.2255 -0.2562  0.2060
 2161W        W 6225   8.050   1.441   8.544 -0.1302 -0.1946 -0.4117
 2162W        W 6226  10.054   7.421   3.304  0.0391 -0.2672  0.0408
 2163W        W 6227   0.045   9.837   2.013  0.2465  0.1700  0.1556
 2164W        W 6228   6.371   2.070   8.583 -0.1273 -0.1081 -0.4926
 2165W        W 6229   5.950   9.998   9.051 -0.0742 -0.0632  0.0925
 2166W        W 6230   4.870   8.554   3.468 -0.0405 -0.2253 -0.2339
 2167W        W 6231   3.181   5.975   8.796 -0.1735 -0.0084 -0.0298
 2168W        W 6232   8.316   5.306   7.941  0.0138 -0.1028  0.1555
 2169W        W 6233   7.456   8.793   9.535 -0.3511 -0.0084 -0.0022
 2170W        W 6234   7.249   0.118   1.625  0.2649 -0.2183 -0.1338
 2171W        W 6235   8.003   9.977  10.067  0.0415  0.1739  0.1256
 2172W        W 6236   3.979   6.167   8.471 -0.2491 -0.0863  0.1337
 2173W        W 6237   6.184   7.104  10.365  0.0276  0.0000  0.1001
 2174W        W 6238   5.492   9.904   9.988 -0.3695  0.0368 -0.2079
 2175W        W 6239   0.474   4.316   0.447  0.1086 -0.1109 -0.1232
 2176W        W 6240   5.245   4.872  10.903 -0.0148  0.2274  0.2898
 2177W        W 6241   1.794   8.362   0.501 -0.0958 -0.0640  0.0361
 2178W        W 6242   3.319   5.072   1.017 -0.0705  0.3250  0.1220
 2179W        W 6243   9.500   5.837  10.075  0.1373  0.0042 -0.0199
 2180W        W 6244   8.779   5.523   3.034 -0.4250  0.1073 -0.5545
 2181W        W 6245   4.846   9.563   0.367 -0.1655  0.0690  0.2359
 2182W        W 6246   4.716   8.308   0.822 -0.0857 -0.1484  0.1984
 2183W        W 6247   9.748   4.580   9.194  0.2665  0.0009 -0.0967
 2184W        W 6248   8.848   4.032   9.160  0.1608 -0.3218 -0.3053
 2185W        W 6249   7.650   1.139   8.250 -0.0874 -0.2581  0.0929
 2186W        W 6250  10.238   8.592   8.363  0.0669  0.2787  0.0664
 2187W        W 6251   7.831   8.507  10.130  0.2308  0.2213  0.1276
 2188W        W 6252   9.736   5.931   2.619  0.1176 -0.1051  0.0181
 2189W        W 6253   2.476   2.814   7.510  0.1173 -0.1930  0.4104
 2190W        W 6254   1.614   2.949   7.859 -0.0676  0.0967  0.1195
 2191W        W 6255  10.695  10.199   7.641 -0.3325 -0.1541 -0.0627
 2192W        W 6256   0.020   9.351   9.835 -0.3722 -0.0755 -0.2488
 2193W        W 6257   7.776   6.877   3.463 -0.0455 -0.0552 -0.1275
 2194W        W 6258   3.375   3.638   9.210 -0.1633  0.0840  0.1661
 2195W        W 6259  10.388   7.742   3.522 -0.0974 -0.0421  0.0597
 2196W        W 6260   8.733   0.147   1.262 -0.3273  0.1149  0.3244
 2197W        W 6261   1.814   9.923   9.707 -0.0909 -0.0610 -0.1074
 2198W        W 6262   5.830   7.552   0.958 -0.1152 -0.0315 -0.0236
 2199W        W 6263   1.614   6.451   3.078 -0.0754  0.1987  0.0001
 2200W        W 6264   1.076  10.195   1.381 -0.1277 -0.1313 -0.2562
 2201W        W 6265   6.247   9.608   1.937 -0.0417  0.0919  0.0689
 2202W        W 6266   6.834   4.842  10.663  0.0404 -0.0043 -0.1115
 2203W        W 6267   7.296  10.652   3.074 -0.1232  0.2416  0.0216
 2204W        W 6268   4.380   0.740   8.364  0.1965  0.1606  0.3112
 2205W        W 6269   9.268   5.745   7.747  0.2765 -0.3214  0.0197
 2206W        W 6270   8.431   5.942   8.259 -0.1087  0.3301  0.0532
 2207W        W 6271  10.684   7.313   9.025  0.1321 -0.1562 -0.2276
 2208W        W 6272   0.875   4.961   8.190 -0.0375  0.1744  0.3009
 2209W        W 6273  10.398   5.558   2.092 -0.2644 -0.4157 -0.1495
 2210W        W 6274   0.051   9.013   9.196 -0.1174  0.2964  0.1194
 2211W        W 6275   9.293   8.218   9.686 -0.0413  0.1564 -0.0990
 2212W        W 6276   5.989   9.258   9.739  0.2709  0.2920  0.0439
 2213W        W 6277   4.333   2.528  11.197 -0.0219 -0.2574 -0.0050
 2214W        W 6278   9.462   5.716   2.951 -0.2348  0.1755 -0.0487
 2215W        W 6279   8.897  10.344   8.147 -0.0982 -0.1219 -0.0303
 2216W        W 6280   5.761   8.895   8.325  0.1717 -0.0401  0.0667
 2217W        W 6281   3.358   2.060  10.098  0.2725  0.0298  0.0367
 2218W        W 6282   5.048   6.765   2.756  0.0886 -0.2326 -0.1297
 2219W        W 6283   9.804   1.655   0.820  0.0497 -0.0902 -0.0169
 2220W        W 6284   7.535   6.716   1.019  0.0400  0.0938 -0.1273
 2221W        W 6285   6.225   8.982  11.193  0.2117 -0.1030 -0.1484
 2222W        W 6286   7.527   7.047  10.906 -0.0634 -0.2136  0.1573
 2223W        W 6287   4.693   5.187   0.390  0.1001  0.1454  0.0773
 2224W        W 6288   7.751   6.027   1.695 -0.1411 -0.0661  0.1132
 2225W        W 6289  10.237   8.531   1.539  0.2991 -0.1478  0.2432
 2226W        W 6290   8.268   0.629  10.876 -0.1505 -0.0256 -0.3882
 2227W        W 6291   8.803   9.514   1.690 -0.0742 -0.1738  0.2089
 2228W        W 6292   7.007   2.212   9.493 -0.1503 -0.0827 -0.3010
 2229W        W 6293   5.772   3.666   0.232  0.2484  0.1915  0.0739
 2230W        W 6294   3.891   2.753  11.037  0.0551 -0.0359 -0.1561
 2231W        W 6295   4.575   2.241   8.682 -0.0546  0.1496  0.1250
 2232W        W 6296   7.337   4.132   0.678 -0.1925 -0.1542  0.1712
 2233W        W 6297   2.430   6.178   2.102 -0.2405 -0.2087  0.1636
 2234W        W 6298  10.096   7.700   9.801 -0.0610 -0.3044  0.3316
 2235W        W 6299   3.076   5.989   7.444 -0.0556  0.1753  0.0591
 2236W        W 6300   6.526   0.075   0.799 -0.0448 -0.1234 -0.2733
 2237W        W 6301   8.509  10.104  10.190 -0.1363  0.1591 -0.0287
 2238W        W 6302   0.146   5.225  10.369 -0.5497  0.0962 -0.1223
 2239W        W 6303   4.209   3.838   0.420  0.1762  0.0924 -0.1873
 2240W        W 6304   8.727   5.990   0.122  0.3360  0.2005 -0.0019
 2241W        W 6305  10.039  10.264  10.245  0.1927  0.1586 -0.1856
 2242W        W 6306   0.313   4.379   8.489  0.4558 -0.3300  0.0532
 2243W        W 6307   9.174   2.453   0.884 -0.0606  0.1929  0.1038
 2244W        W 6308   8.091   1.421   9.028  0.0649  0.0600  0.1084
 2245W        W 6309   2.155   2.575   1.071 -0.0842 -0.2110  0.4421
 2246W        W 6310   9.527   4.414  10.339  0.0820  0.3029 -0.2607
 2247W        W 6311   5.358   7.037  10.894 -0.2309  0.0959 -0.1804
 2248W        W 6312  10.259  10.367   3.232  0.0792 -0.0723  0.4951
 2249W        W 6313   7.000   6.327   0.304  0.3216 -0.3184 -0.5212
 2250W        W 6314   8.028   1.221   2.847  0.1605 -0.0252 -0.0977
 2251W        W 6315  10.602   4.641  10.745  0.1785 -0.1017 -0.0329
 2252W        W 6316   9.416   3.677   1.111 -0.4658  0.1479 -0.1119
 2253W        W 6317   7.025   2.300   1.004 -0.2492 -0.1773 -0.2746
 2254W        W 6318   8.002   3.020   9.953 -0.2114 -0.0406 -0.2060
 2255W        W 6319  10.058   7.089   9.154 -0.2451 -0.3022 -0.0559
 2256W        W 6320   1.673   3.272   2.164  0.1551  0.1353  0.1917
 2257W        W 6321   4.543   6.344   1.278 -0.2714 -0.0393  0.1721
 2258W        W 6322   3.075   4.796  10.706 -0.0731  0.1465 -0.0438
 2259W        W 6323   5.890   1.587  10.503 -0.3953  0.3779 -0.2274
 2260W        W 6324   5.773   4.636   9.133 -0.0327 -0.2486 -0.2815
 2261W        W 6325   3.081   0.269   8.185  0.2159 -0.0550 -0.3197
 2262W        W 6326   7.535   9.036   1.303 -0.2607  0.0935  0.0085
 2263W        W 6327  10.618   4.842   9.496 -0.0972 -0.2763 -0.4480
 2264W        W 6328   1.797   3.654   8.916 -0.1097  0.2808  0.1156
 2265W        W 6329   8.902   0.566   8.091 -0.0312 -0.3575  0.3650
 2266W        W 6330   5.535   9.596   8.988 -0.0699  0.1964  0.5524
 2267W        W 6331   3.950   5.793  11.307 -0.0718 -0.3463  0.2892
 2268W        W 6332   5.324   8.063   8.303  0.0993  0.1423 -0.0800
 2269W        W 6333   8.564   5.387  11.118 -0.0671 -0.3125  0.0783
 2270W        W 6334   3.341   4.849   3.512 -0.2585 -0.1317 -0.0761
 2271W        W 6335   3.546  10.344  11.308  0.0877 -0.0739  0.1027
 2272W        W 6336   6.760   9.649   3.040 -0.2597 -0.1548  0.0048
 2273W        W 6337   1.569   2.280   9.797 -0.1523 -0.3279  0.3625
 2274W        W 6338   3.806   8.692   3.262  0.1668  0.2779 -0.0349
 2275W        W 6339   6.307   9.139   1.909  0.3498  0.0877  0.2372
 2276W        W 6340  10.258   0.417   2.700  0.1670 -0.0416  0.1688
 2277W        W 6341   1.240   9.252   1.040  0.1519 -0.0880  0.1707
 2278W        W 6342   3.286   7.194   3.464 -0.0268 -0.0129  0.0835
 2279W        W 6343   3.116   3.408  10.919 -0.1236 -0.2017 -0.1862
 2280W        W 6344   7.819   1.831   9.727 -0.0939  0.0047 -0.2630
 2281W        W 6345   1.182   9.185   1.536  0.0756  0.0318 -0.0674
 2282W        W 6346   2.994   9.079   2.612 -0.0864  0.2961 -0.0425
 2283W        W 6347   8.576   7.356   0.222 -0.3531  0.0336  0.2193
 2284W        W 6348  10.238   8.144   1.253 -0.0985 -0.0382 -0.3041
 2285W        W 6349   0.428   9.342   9.301  0.0866 -0.0462 -0.0775
 2286W        W 6350   6.495  10.088   2.283 -0.1994  0.1056 -0.3032
 2287W        W 6351   5.246   4.566   3.182  0.0082  0.0263  0.0967
 2288W        W 6352   6.682   7.272   9.208 -0.1011 -0.0664 -0.0266
 2289W        W 6353   3.362  10.399   1.767  0.2576  0.0580 -0.0134
 2290W        W 6354   4.296   1.455   2.780 -0.3048 -0.0349  0.0707
 2291W        W 6355   7.616  10.419   0.257 -0.0457  0.3973 -0.0087
 2292W        W 6356   6.419   7.116   7.472 -0.1202 -0.2246  0.1280
 2293W        W 6357   4.476  10.453  10.368  0.1550  0.2621 -0.0918
 2294W        W 6358  10.516   5.870   9.754  0.2456 -0.0542 -0.2470
 2295W        W 6359   1.674   0.264   9.760  0.0961  0.1811  0.4554
 2296W        W 6360   1.213   3.299  11.227 -0.2718  0.0979 -0.1928
 2297W        W 6361   3.798   1.148   8.980  0.1512 -0.1975  0.2064
 2298W        W 6362   4.029   5.240   2.957 -0.1826  0.3652 -0.1201
 2299W        W 6363   6.732   0.421   4.113  0.0656 -0.1965 -0.2629
 2300W        W 6364   9.211   7.397   8.574 -0.1637  0.2122 -0.1315
 2301W        W 6365   3.311   9.119  10.801 -0.1461 -0.0589 -0.3912
 2302W        W 6366   8.447   2.837   0.475 -0.1605  0.0412 -0.1890
 2303W        W 6367   2.588   4.336   3.244  0.1964 -0.0938 -0.0382
 2304W        W 6368   4.284   8.807   3.390  0.1562  0.0011  0.1276
 2305W        W 6369   3.648   8.307  10.898 -0.0933 -0.1867 -0.1474
 2306W        W 6370   8.285  10.236   0.909 -0.0612  0.0830 -0.1442
 2307W        W 6371   6.775   2.517   2.348  0.2528 -0.0484  0.2776
 2308W        W 6372   5.023   0.033   1.713  0.1444  0.2414  0.0029
 2309W        W 6373   6.271   6.269   1.332  0.3059  0.0968 -0.1914
 2310W        W 6374   9.225   9.900   1.971  0.4842 -0.0123  0.0401
 2311W        W 6375   6.728   5.464   0.879 -0.0529 -0.1471  0.0556
 2312W        W 6376   7.289  10.063   3.583 -0.1891  0.1990  0.0089
 2313W        W 6377   6.704  10.562  11.274  0.1085 -0.4274  0.0631
 2314W        W 6378   4.324   2.711   9.525  0.0001  0.0945  0.2735
 2315W        W 6379   7.901   6.316  11.193 -0.1512 -0.0442  0.0261
 2316W        W 6380   9.428   5.868  11.317  0.4925 -0.2473  0.0659
 2317W        W 6381   3.227   5.227   9.443 -0.2856 -0.0562 -0.3521
 2318W        W 6382   9.840   5.283   9.849 -0.1848 -0.0780  0.1145
 2319W        W 6383   3.904   2.000   0.314 -0.0380  0.1494  0.2870
 2320W        W 6384   1.160   3.000  10.498  0.1155 -0.1228  0.0947
 2321W        W 6385   6.005   2.762   9.450 -0.0296  0.1027 -0.2224
 2322W        W 6386   4.673   5.723   2.869  0.2085 -0.2251  0.1152
 2323W        W 6387   7.200   3.831   2.344 -0.1409 -0.1055  0.3104
 2324W        W 6388  10.250   6.239   0.222 -0.3247 -0.3866  0.3224
 2325W        W 6389   5.231   6.386   0.248  0.0152 -0.0718  0.1731
 2326W        W 6390   8.580   6.991   9.870 -0.1347  0.1792  0.4101
 2327W        W 6391   1.907   1.791  10.414  0.0797 -0.2861 -0.0975
 2328W        W 6392   8.848   0.157  10.146 -0.1657 -0.0432  0.0825
 2329W        W 6393   4.772   2.146  10.128  0.2084 -0.1469 -0.3584
 2330W        W 6394   8.176   7.131   7.962  0.0480 -0.1012 -0.3330
 2331W        W 6395   0.336  10.555   7.815  0.0244 -0.3043 -0.1709
 2332W        W 6396   6.658   9.222   1.445 -0.1088 -0.2855 -0.0425
 2333W        W 6397   7.713   7.821   7.817 -0.1016 -0.1598  0.3314
 2334W        W 6398   3.791   3.782   1.298  0.2933  0.1228  0.2218
 2335W        W 6399   0.680   0.016   0.762 -0.0105  0.0485 -0.1424
 2336W        W 6400   6.516   0.879   2.826 -0.0033  0.4801 -0.1826
 2337W        W 6401   5.917   1.532   8.307  0.3505  0.0106 -0.2943
 2338W        W 6402   2.791   1.891  10.303  0.4231 -0.1391  0.1687
 2339W        W 6403   6.769   1.067   1.862  0.1708 -0.2697 -0.0709
 2340W        W 6404   4.573   1.910   2.094 -0.3966  0.0317  0.1588
 2341W        W 6405   6.552   6.951   2.839 -0.0373  0.2499 -0.0133
 2342W        W 6406   3.785   0.196   1.698 -0.0180  0.2486  0.1925
 2343W        W 6407   2.246   1.241   8.149  0.0003  0.4812 -0.1989
 2344W        W 6408   9.894   9.213  11.229  0.1389 -0.3121  0.1908
 2345W        W 6409   3.393   9.943   4.079 -0.0050  0.0152  0.1509
 2346W        W 6410   5.699   6.324   9.672  0.2042 -0.4114 -0.1491
 2347W        W 6411   5.491   0.820   1.940 -0.0729  0.0812 -0.0218
 2348W        W 6412   4.891   2.383  10.598 -0.0363 -0.2432 -0.1059
 2349W        W 6413   3.074   8.723   1.775  0.2306  0.1217  0.1587
 2350W        W 6414   7.297   3.183   3.460 -0.2677 -0.3757 -0.0014
 2351W        W 6415   9.555   5.789   0.351 -0.3999  0.1883 -0.2529
 2352W        W 6416   1.644   1.180   8.936  0.2168 -0.0254  0.1060
 2353W        W 6417   6.559   9.585   7.953  0.1182 -0.0466 -0.1588
 2354W        W 6418   3.614   4.740   1.192 -0.1986  0.0970 -0.1177
 2355W        W 6419  10.210   5.075   0.043  0.0362 -0.0015  0.3189
 2356W        W 6420   1.201   7.962  10.188  0.1716 -0.1654  0.0903
 2357W        W 6421   5.623   1.587  10.125  0.0198 -0.0588 -0.3832
 2358W        W 6422   4.511   8.374   9.039  0.0685  0.2350 -0.3913
 2359W        W 6423   9.227   3.071   0.043  0.0717  0.0616 -0.0899
 2360W        W 6424   5.904   9.674   1.493 -0.1493 -0.0826  0.0318
 2361W        W 6425   7.678   5.593   1.307 -0.2049 -0.4163 -0.1434
 2362W        W 6426   1.235   6.467   9.527 -0.1757  0.0599  0.2367
 2363W        W 6427   3.550   6.423  10.725  0.0092  0.4436 -0.2414
 2364W        W 6428   5.933   8.177   8.310  0.0386 -0.0427  0.3930
 2365W        W 6429   7.267  10.410  10.763  0.0032 -0.1068 -0.1968
 2366W        W 6430   4.291   4.140   4.061 -0.0497 -0.0868  0.5795
 2367W        W 6431   2.304   9.567   3.002  0.2245  0.0252  0.2210
 2368W        W 6432   1.774   2.846  10.474  0.0705  0.0713 -0.0892
 2369W        W 6433   0.961   5.640   2.689 -0.1861  0.0275 -0.2845
 2370W        W 6434   1.250   7.291   3.225 -0.0106 -0.0350 -0.0913
 2371W        W 6435   3.759   9.809   2.453  0.0031 -0.1678 -0.1039
 2372W        W 6436   7.102   0.460   9.592 -0.2552  0.0281 -0.0893
 2373W        W 6437   4.234   1.578   0.415  0.2027  0.0040 -0.0788
 2374W        W 6438   4.780   9.820   2.771  0.1829 -0.1402  0.0878
 2375W        W 6439   8.812   8.826   0.306 -0.1023  0.2584  0.0403
 2376W        W 6440   2.860   0.236  10.453 -0.1296 -0.1649 -0.0018
 2377W        W 6441   3.968  10.601  11.213 -0.0895  0.1614  0.1498
 2378W        W 6442   6.788   7.714   7.811 -0.0544 -0.2152 -0.2477
 2379W        W 6443  10.623  10.278   1.780 -0.1579  0.0532  0.3818
 2380W        W 6444  10.046   2.107   0.757 -0.2265 -0.2900 -0.0659
 2381W        W 6445   1.898   2.432  10.206 -0.1534  0.1441 -0.1157
 2382W        W 6446   9.237   2.591  11.384  0.3024 -0.1378  0.0562
 2383W        W 6447  10.487   2.133   2.882  0.1828 -0.4806  0.0322
 2384W        W 6448   5.083   7.949  10.112  0.1004 -0.0625  0.0804
 2385W        W 6449   8.037   7.972   2.738  0.0435  0.3139  0.0485
 2386W        W 6450   9.422   9.865  10.226  0.0401  0.1502  0.0324
 2387W        W 6451   1.566   1.141   2.551  0.1828 -0.1712 -0.2818
 2388W        W 6452  10.043   7.600   0.139  0.3413  0.3088 -0.3200
 2389W        W 6453  10.593   2.247   1.551  0.1772  0.2114 -0.3951
 2390W        W 6454   9.641   2.395   8.934  0.0277 -0.1768 -0.1061
 2391W        W 6455   2.847   3.218   1.707 -0.1164  0.1131 -0.0386
 2392W        W 6456   4.716  10.452   9.718 -0.1418  0.2859  0.1573
 2393W        W 6457   2.699   5.636  10.036 -0.0415  0.2838  0.0504
 2394W        W 6458   4.744   4.508   3.085 -0.1438 -0.2329  0.1919
 2395W        W 6459   1.516   0.019   9.219  0.1390  0.0854 -0.2801
 2396W        W 6460   2.766   6.083   7.859 -0.1361  0.2599 -0.1308
 2397W        W 6461  10.159   5.808   1.723  0.2277 -0.1100 -0.1137
 2398W        W 6462  10.047   8.728  10.743  0.0967 -0.3399  0.1929
 2399W        W 6463   3.551   5.332   3.251 -0.0863  0.3799 -0.3298
 2400W        W 6464   2.079   1.287   7.602  0.0142 -0.0777 -0.1099
 2401W        W 6465   3.882   8.672   2.710  0.3285  0.0443  0.0578
 2402W        W 6466   7.328   7.385   2.725 -0.0238  0.0857 -0.3302
 2403W        W 6467   2.718  10.321   8.553  0.0358 -0.0811 -0.2346
 2404W        W 6468   1.281   8.371   0.452 -0.1310  0.2197  0.0471
 2405W        W 6469   2.025   9.200  10.023  0.1636 -0.1736 -0.0999
 2406W        W 6470   0.678   5.754   0.077 -0.2201 -0.2447  0.1716
 2407W        W 6471   6.088   6.639  10.403  0.1872  0.1552  0.3201
 2408W        W 6472   8.749   7.479   9.852 -0.2555 -0.0902 -0.0993
 2409W        W 6473   1.347   0.662   2.546  0.0292 -0.0596  0.0443
 2410W        W 6474   1.983   3.634   9.484  0.0167 -0.2238 -0.2294
 2411W        W 6475   8.047   7.300   0.655 -0.0340  0.2952  0.2358
 2412W        W 6476   3.008   4.992   3.880 -0.3579  0.1307  0.2992
 2413W        W 6477   3.574   9.566   3.401 -0.1565  0.1024 -0.1035
 2414W        W 6478   8.039   8.145   1.395  0.1082  0.3925 -0.1132
 2415W        W 6479   8.355   3.538   1.377  0.2343  0.1046  0.2166
 2416W        W 6480   1.928   7.246  10.561 -0.0983 -0.0724  0.2385
 2417W        W 6481  10.144   1.721   0.421  0.0007  0.0216  0.2894
 2418W        W 6482  10.437   1.745   2.031  0.1641  0.0457  0.1226
 2419W        W 6483   9.482   8.527   0.288  0.0173 -0.1358  0.0519
 2420W        W 6484   9.421   8.364  11.232 -0.1488  0.1387  0.1776
 2421W        W 6485   7.261   4.899   8.197  0.0309  0.2130  0.1924
 2422W        W 6486   6.285   3.083   1.558  0.2063 -0.1232  0.2852
 2423W        W 6487   5.805   2.397  10.823 -0.2218  0.1390 -0.0372
 2424W        W 6488   5.549   6.278   8.807 -0.1437  0.0037  0.1365
 2425W        W 6489   4.821   2.852   1.747 -0.1165  0.0693 -0.0938
 2426W        W 6490   3.886   4.490   4.199  0.1008 -0.1864  0.0972
 2427W        W 6491   0.116   8.461   0.857  0.0856  0.2154 -0.0494
 2428W        W 6492   1.501  10.668   1.444  0.0285 -0.0840  0.0428
 2429W        W 6493   6.037   3.814  10.306  0.3132 -0.1119 -0.1273
 2430W        W 6494   9.507   2.622   2.645 -0.1591 -0.2685 -0.0918
 2431W        W 6495   3.484   4.786   0.612 -0.0087  0.1266  0.1343
 2432W        W 6496   7.369   3.614   0.574 -0.2338 -0.0370  0.0101
 2433W        W 6497   3.195   7.349   9.936 -0.1585 -0.0357  0.1225
 2434W        W 6498   8.237   1.820   2.147  0.2827  0.1255 -0.0372
 2435W        W 6499   7.593   3.332   9.560 -0.1534  0.0643  0.0515
 2436W        W 6500   1.805   4.389   2.791  0.3568 -0.0038 -0.1129
 2437W        W 6501   2.621   9.477   0.015  0.1642  0.0175 -0.0718
 2438W        W 6502   4.102   1.853   1.783  0.1042  0.1494  0.0550
 2439W        W 6503   4.339   9.967   0.390 -0.0637 -0.0857 -0.0403
 2440W        W 6504   6.187   5.256   8.833  0.0454  0.0682  0.1159
 2441W        W 6505   2.171   6.628   2.033  0.3650 -0.1372  0.1008
 2442W        W 6506   1.138   9.984   9.070 -0.1108  0.0420  0.0639
 2443W        W 6507   1.479   1.109  11.145 -0.1903  0.1703  0.1525
 2444W        W 6508   2.782   3.263   8.827 -0.6291  0.2407 -0.6887
 2445W        W 6509   7.362   6.762   3.246 -0.2423 -0.0676  0.0520
 2446W        W 6510   4.539   6.971  10.287 -0.0985  0.2058 -0.2907
 2447W        W 6511   1.526   0.101   1.935 -0.0072  0.0679  0.0376
 2448W        W 6512   7.515   3.106   0.560  0.1461 -0.1292  0.0033
 2449W        W 6513  10.436   7.720  10.857  0.3551 -0.2330 -0.2688
 2450W        W 6514  10.427   6.245   1.253  0.1379  0.1714  0.1429
 2451W        W 6515   0.772   4.467   8.300  0.3318 -0.2776  0.0017
 2452W        W 6516   9.311   0.665   2.138  0.0353  0.1075  0.1439
 2453W        W 6517   2.113   8.413   2.137 -0.0513 -0.2053  0.1311
 2454W        W 6518   4.571   7.550   0.413  0.3707 -0.0767  0.1089
 2455W        W 6519   0.361   6.266  10.629  0.2123 -0.1546  0.1465
 2456W        W 6520   7.126   5.755   8.248 -0.2258 -0.1157  0.3287
 2457W        W 6521   0.312   9.958  11.297  0.1302  0.0220  0.0425
 2458W        W 6522   1.189   1.438  10.924  0.2884  0.3036 -0.1011
 2459W        W 6523   9.624   0.390   2.669 -0.1917 -0.3294  0.0018
 2460W        W 6524   7.254   8.168   1.826  0.0831 -0.2642  0.3744
 2461W        W 6525   8.108   4.776   9.245 -0.4986  0.0218 -0.2114
 2462W        W 6526   6.048   7.067   0.377  0.0026 -0.0184 -0.0579
 2463W        W 6527   6.396  10.144  10.985 -0.0492  0.0972 -0.1595
 2464W        W 6528   4.981   5.320   1.132 -0.0390  0.1067 -0.2818
 2465W        W 6529   4.970   6.662   3.598  0.1792  0.0669 -0.4463
 2466W        W 6530   5.038   8.429   8.726  0.1610 -0.0517 -0.0618
 2467W        W 6531   2.549   1.480   3.545  0.0780  0.1769 -0.2170
 2468W        W 6532   7.230   7.741   3.106  0.0711  0.2668  0.0486
 2469W        W 6533   4.255   0.492   2.914 -0.1308  0.0477 -0.0733
 2470W        W 6534   8.666   5.393   9.425  0.0958 -0.0033 -0.0545
 2471W        W 6535   4.907   1.947   8.933 -0.0424 -0.2000  0.0138
 2472W        W 6536   1.688   7.386   2.998 -0.2757  0.4825 -0.0317
 2473W        W 6537   2.293   6.040   7.943  0.0544  0.1169 -0.1192
 2474W        W 6538   9.632   3.568   2.466  0.1558 -0.1288 -0.0781
 2475W        W 6539   4.045   5.494   0.626 -0.0076 -0.0739  0.0106
 2476W        W 6540   3.979   3.833   2.152  0.0511  0.1833  0.0408
 2477W        W 6541   1.301   9.325  10.619  0.2323 -0.2868 -0.0043
 2478W        W 6542   8.410   4.469   9.799  0.0622 -0.1238  0.1882
 2479W        W 6543   6.832   5.920   1.272 -0.0041  0.2273 -0.0463
 2480W        W 6544   8.425   3.727   9.099 -0.1543 -0.2721 -0.1966
 2481W        W 6545   4.974   4.879  11.352 -0.0072  0.0512  0.2135
 2482W        W 6546   6.060   9.602   0.916 -0.2270 -0.1191  0.1355
 2483W        W 6547   6.803   6.046   3.991  0.1316 -0.0341 -0.0205
 2484W        W 6548   8.255   6.863   1.819  0.3863  0.0204  0.0136
 2485W        W 6549   7.934   5.654  10.196  0.0463  0.0307  0.3306
 2486W        W 6550   7.930   5.634   1.984  0.0753 -0.2157 -0.1378
 2487W        W 6551   6.635   8.828   3.395 -0.1096 -0.1750 -0.2138
 2488W        W 6552  10.257   9.887   9.367 -0.2747  0.0218  0.0000
 2489W        W 6553   1.371   7.467   1.963  0.3094 -0.1503  0.2294
 2490W        W 6554   6.550   5.606   2.847  0.1106  0.0832 -0.0282
 2491W        W 6555   9.138   0.311   1.693  0.1389 -0.2219 -0.3733
 2492W        W 6556   2.501   1.287   1.961 -0.1101  0.0314 -0.1061
 2493W        W 6557   8.574   1.084   2.883 -0.2617 -0.1028  0.2658
 2494W        W 6558   8.070   3.763   8.663 -0.0585  0.1587 -0.0282
 2495W        W 6559   9.533   1.418  10.265  0.0164 -0.0311  0.0016
 2496W        W 6560   2.719   3.900   8.342  0.1964 -0.0417  0.0415
 2497W        W 6561   8.952   5.591   1.974  0.0388 -0.1891  0.3503
 2498W        W 6562   7.546   0.213   0.988 -0.0143  0.1335  0.0667
 2499W        W 6563   3.353   1.681  10.831 -0.1200 -0.2329 -0.0163
 2500W        W 6564   1.344   3.540   3.114 -0.1613 -0.1166  0.0522
 2501W        W 6565   2.321   8.490   7.261  0.2104 -0.1949 -0.6828
 2502W        W 6566   4.718   2.119   3.976 -0.0655  0.0887 -0.1903
 2503W        W 6567   5.247   1.982  10.253  0.0211 -0.2455 -0.2842
 2504W        W 6568   8.456   4.295   3.524 -0.2615 -0.3829  0.4299
 2505W        W 6569   5.958   0.748   8.083  0.1896  0.0041 -0.2872
 2506W        W 6570   8.477   3.900   3.235  0.2172  0.1320  0.0945
 2507W        W 6571   2.463   8.915   3.789 -0.0089  0.1722 -0.1504
 2508W        W 6572   2.195   1.087   2.305 -0.0409  0.1752  0.2088
 2509W        W 6573   6.028   1.314   4.000 -0.0512 -0.2275 -0.1788
 2510W        W 6574   6.336   1.226   1.997  0.0470 -0.2580  0.0265
 2511W        W 6575   8.183   9.028   7.164  0.0708 -0.1794 -0.1299
 2512W        W 6576   6.805   6.747  11.154  0.0061 -0.0558 -0.0334
 2513W        W 6577   4.146   2.475   0.923 -0.0965 -0.0600  0.1149
 2514W        W 6578   2.372   6.552  10.989  0.0918  0.1271 -0.0685
 2515W        W 6579   3.666   2.428  10.818  0.2988  0.0083  0.0421
 2516W        W 6580   5.886   6.099   9.199  0.1367 -0.2666 -0.0513
 2517W        W 6581   1.972   2.157   0.357  0.1005  0.0577  0.2036
 2518W        W 6582   6.542   4.897   2.582 -0.2870  0.2608  0.0908
 2519W        W 6583   1.827   8.995   8.325 -0.3310  0.1904 -0.2010
 2520W        W 6584   9.786   6.079   9.233  0.1748 -0.1099  0.1661
 2521W        W 6585  10.458   3.295   0.513  0.1289  0.2437 -0.2346
 2522W        W 6586   3.423   9.229  10.126  0.0401 -0.4463  0.0447
 2523W        W 6587   9.304   9.888   2.438 -0.1659 -0.2439 -0.0109
 2524W        W 6588   0.875   3.435   2.396 -0.2359 -0.0416 -0.0698
 2525W        W 6589   8.633  10.016   0.082 -0.3785  0.1487  0.3938
 2526W        W 6590   5.597   7.662   2.880 -0.3598 -0.0238  0.0863
 2527W        W 6591   4.694   0.558   3.181 -0.2582  0.0956 -0.1997
 2528W        W 6592   9.051   6.448   3.333  0.1414  0.0497  0.0292
 2529W        W 6593   4.924   2.586   8.888 -0.0288  0.1946 -0.1761
 2530W        W 6594   0.658   8.368   9.523  0.1472 -0.3066 -0.1664
 2531W        W 6595   0.262   4.137   2.296  0.1494 -0.0496 -0.0290
 2532W        W 6596  10.224   5.468   3.525 -0.1169  0.2927  0.1051
 2533W        W 6597   6.969   6.726   9.403  0.1249  0.0387  0.0541
 2534W        W 6598   3.903   6.750   0.283 -0.1918 -0.3053  0.1231
 2535W        W 6599   5.413   3.930  10.800 -0.1910  0.2415 -0.1584
 2536W        W 6600   7.715   2.610   9.235  0.2763  0.0127 -0.0627
 2537W        W 6601   7.069   7.524  10.027  0.0517 -0.2625  0.1513
 2538W        W 6602   5.392   9.485   3.406  0.0095  0.1568  0.2982
 2539W        W 6603   6.422   6.658   0.904 -0.0617  0.1214 -0.1163
 2540W        W 6604   3.678   1.373   8.320 -0.0056 -0.1047 -0.1173
 2541W        W 6605   0.581   7.608   7.900 -0.1791  0.3072  0.2380
 2542W        W 6606   5.250   9.521   8.050  0.1242 -0.0725  0.0185
 2543W        W 6607   0.320   3.059   0.370  0.0378  0.0224 -0.0207
 2544W        W 6608   6.765   0.141   9.791  0.0052 -0.0162 -0.0838
 2545W        W 6609   3.235   7.266   1.511  0.2848  0.0432 -0.2543
 2546W        W 6610  10.351  10.676   2.007  0.0641 -0.0443  0.0184
 2547W        W 6611   4.518   9.289   3.382 -0.0791 -0.0214 -0.1681
 2548W        W 6612  10.084   3.192   0.183 -0.0090  0.0821  0.1535
 2549W        W 6613   3.977   6.294  11.075 -0.1027  0.1647  0.1572
 2550W        W 6614   6.391   1.717   2.026 -0.1148  0.0206  0.0190
 2551W        W 6615  10.004   6.778   0.198 -0.2629 -0.0521  0.1929
 2552W        W 6616   9.754   2.646   9.819  0.1403  0.0916  0.0682
 2553W        W 6617   0.984   8.914   0.246  0.0355  0.0908 -0.1027
 2554W        W 6618   9.211  10.008   0.105 -0.0725 -0.0855  0.1126
 2555W        W 6619   3.091   5.101   8.962  0.0491  0.3188  0.0161
 2556W        W 6620   5.337   7.581   8.520  0.1863 -0.2679  0.1494
 2557W        W 6621   6.390   9.576  10.312  0.0274  0.0579  0.0487
 2558W        W 6622   3.193   1.358   9.569  0.1763  0.1458 -0.3047
 2559W        W 6623   6.614   5.372   3.324  0.2637  0.3542 -0.2612
 2560W        W 6624   2.938   7.466   9.551 -0.0226 -0.1266  0.2622
 2561W        W 6625   6.747   5.033  10.040 -0.4151  0.4072 -0.1997
 2562W        W 6626   7.582   1.558   1.423 -0.0967  0.1119  0.0463
 2563W        W 6627   0.657   7.873   3.528  0.0631  0.1235  0.0471
 2564W        W 6628   2.415  10.076   1.340  0.0123 -0.0044 -0.0017
 2565W        W 6629   4.678   6.481   9.661 -0.0920  0.2238  0.0024
 2566W        W 6630   8.099   5.586   8.287 -0.2349 -0.1669  0.3199
 2567W        W 6631  10.275   7.208  10.580 -0.1903 -0.0334  0.1347
 2568W        W 6632   5.764  10.637   2.463  0.0373  0.1455  0.1555
 2569W        W 6633   2.168   3.467  10.621  0.1191  0.2576 -0.1669
 2570W        W 6634   4.066  10.308   8.544 -0.0551 -0.0464  0.1173
 2571W        W 6635   1.955  10.572   2.079 -0.2529 -0.1568  0.3714
 2572W        W 6636   8.685   2.842   0.934  0.0516 -0.0233  0.1361
 2573W        W 6637  10.209   4.560   2.215 -0.1957 -0.1441 -0.0827
 2574W        W 6638   4.353   5.740   8.515 -0.4635 -0.0357 -0.3148
 2575W        W 6639   7.304   8.087   7.805  0.3285 -0.0648  0.1446
 2576W        W 6640   9.892   0.862   3.427 -0.2798  0.2523  0.0561
 2577W        W 6641   0.198   4.714  11.146  0.2312  0.0898 -0.2455
 2578W        W 6642   1.093   1.675   1.329 -0.1804  0.1730  0.0384
 2579W        W 6643  10.434   5.705   9.268  0.1888  0.1397 -0.1125
 2580W        W 6644   6.758   5.911  10.841 -0.4563  0.2116  0.2851
 2581W        W 6645   4.015   6.614   9.106  0.2982  0.1188  0.1094
 2582W        W 6646   9.797   3.950   1.654  0.0994  0.2250  0.1478
 2583W        W 6647   0.421  10.194   1.445  0.0424  0.1020 -0.0331
 2584W        W 6648   0.340   2.055   1.642  0.4217 -0.2281  0.4048
 2585W        W 6649   2.472   5.089   9.948 -0.0337 -0.3096  0.0621
 2586W        W 6650   2.229   3.553   1.305  0.2860  0.0696  0.1244
 2587W        W 6651   6.104   0.036  10.200  0.1973  0.1864  0.4958
 2588W        W 6652   7.235   0.518   1.337  0.0765  0.2136  0.0025
 2589W        W 6653   6.641   0.576   0.877 -0.0213 -0.1852 -0.1273
 2590W        W 6654   1.994   1.323   1.284  0.1335 -0.2389  0.3429
 2591W        W 6655   8.417   4.994   0.989  0.0416  0.2095  0.2033
 2592W        W 6656   4.098   3.815   8.567 -0.0413 -0.2706 -0.2011
 2593W        W 6657   7.368   8.836   0.428  0.0690 -0.1609  0.3265
 2594W        W 6658   4.741   8.676  10.673 -0.3102  0.3538 -0.1892
 2595W        W 6659   3.569   5.621   0.765  0.3296  0.1327 -0.4562
 2596W        W 6660   9.999  10.143   0.989 -0.1162  0.0554 -0.0849
 2597W        W 6661   5.083   3.026   1.137  0.3197 -0.1948 -0.0289
 2598W        W 6662   2.050   6.728   3.025 -0.1924 -0.0218  0.2748
 2599W        W 6663   2.728   6.411   2.538 -0.0013 -0.1994  0.2062
 2600W        W 6664  10.533   9.330  10.309 -0.1969  0.0989 -0.1756
 2601W        W 6665   8.586   4.030   1.412 -0.0534  0.0165 -0.0807
 2602W        W 6666   4.024   5.428   3.550  0.0507 -0.3165 -0.2787
 2603W        W 6667   4.077   4.682   2.041  0.1431  0.2555 -0.1547
 2604W        W 6668   9.100   8.355   8.908 -0.0238 -0.3787 -0.0451
 2605W        W 6669   7.773   7.391  11.217 -0.3657  0.0974  0.1173
 2606W        W 6670  10.405  10.393   9.463  0.1235 -0.2954  0.1665
 2607W        W 6671   9.167   0.155   0.065  0.1024 -0.3189 -0.1281
 2608W        W 6672   9.696   4.900  10.230  0.1218  0.4124 -0.0492
 2609W        W 6673   3.463   8.409   1.937 -0.0063 -0.0989 -0.0392
 2610W        W 6674  10.491   5.777   1.307  0.2482  0.0791  0.0026
 2611W        W 6675   4.376   8.921  10.843  0.0592  0.0715 -0.2405
 2612W        W 6676   3.198   9.848   0.815 -0.3093  0.1419  0.4163
 2613W        W 6677   0.382   3.684  11.050 -0.0414 -0.6093  0.1420
 2614W        W 6678   2.171   8.744   2.513  0.0323  0.0975  0.2523
 2615W        W 6679   3.766   0.659  11.231  0.2541 -0.1707 -0.0975
 2616W        W 6680   5.292   6.591   8.427  0.0401 -0.1975  0.3258
 2617W        W 6681   1.248   9.043   3.643  0.2584 -0.2001  0.1577
 2618W        W 6682   1.745   0.040   7.354  0.0174 -0.1255  0.0836
 2619W        W 6683   8.394   2.438   7.981 -0.0921  0.2278 -0.0658
 2620W        W 6684   5.325   2.533   3.975  0.0643 -0.1723 -0.0883
 2621W        W 6685   6.830   5.463   1.491  0.1155  0.1695  0.2078
 2622W        W 6686   3.533   0.396   7.947  0.0180  0.0834  0.0160
 2623W        W 6687   7.735   2.205  11.081  0.1968 -0.0406  0.1322
 2624W        W 6688   6.944   4.165   1.595 -0.1383 -0.0035  0.1869
 2625W        W 6689   1.841   2.662  10.984 -0.1763 -0.0986  0.0053
 2626W        W 6690   5.842   8.583   3.185  0.1049 -0.0190  0.1375
 2627W        W 6691   9.207   2.091   9.166  0.0715 -0.1461  0.2744
 2628W        W 6692   4.254   4.854   0.651 -0.1227  0.1683 -0.1241
 2629W        W 6693  10.230   2.540   0.354  0.4349  0.2537  0.0125
 2630W        W 6694   0.528   9.142   8.832 -0.1774 -0.0736 -0.3847
 2631W        W 6695   3.434   3.180   0.527  0.2755 -0.3525  0.0746
 2632W        W 6696   0.703  10.243   1.022  0.0691  0.0802 -0.2794
 2633W        W 6697   8.386   6.643   9.389  0.3990  0.0708  0.3996
 2634W        W 6698   0.781   4.813   3.113 -0.1747 -0.2882  0.1058
 2635W        W 6699   9.431   1.742   2.111 -0.0555  0.0343 -0.1500
 2636W        W 6700   1.526   8.096   9.348  0.2582 -0.0054 -0.1930
 2637W        W 6701   4.174   4.745   1.178 -0.0182  0.0169 -0.0180
 2638W        W 6702   9.068   5.918  10.763 -0.2469  0.1593  0.0778
 2639W        W 6703   9.236   8.940   2.318  0.2518 -0.1865  0.0826
 2640W        W 6704   8.039   3.537   9.431 -0.1545 -0.0600  0.2292
 2641W        W 6705  10.545   3.293   2.552  0.2226  0.0465 -0.0015
 2642W        W 6706   9.579   3.546  10.776  0.1109 -0.2087  0.2437
 2643W        W 6707   1.282   3.852  11.223 -0.0880 -0.1294  0.2842
 2644W        W 6708   3.939   0.504   8.182 -0.0896  0.1420  0.4294
 2645W        W 6709   7.145   1.036   2.242 -0.0730  0.2460  0.1539
 2646W        W 6710   6.193   0.729   1.228  0.0197 -0.1723 -0.0105
 2647W        W 6711   0.113   1.209  10.086  0.1729 -0.0417 -0.1336
 2648W        W 6712   4.533  10.507   2.054 -0.0407  0.1164  0.3132
 2649W        W 6713   1.165   8.770   0.731  0.4928 -0.1262  0.0316
 2650W        W 6714   6.654   9.388   0.240 -0.1103  0.2340  0.0705
 2651W        W 6715   1.662   3.813   8.166 -0.3037  0.2152  0.0889
 2652W        W 6716   1.218   1.797   9.598  0.2761  0.0642  0.1840
 2653W        W 6717   4.741   7.102   9.072 -0.1677 -0.1237  0.1041
 2654W        W 6718   4.851   2.090   1.462  0.1501  0.0724 -0.3110
 2655W        W 6719   2.421   8.521   7.800  0.1876  0.0503  0.0668
 2656W        W 6720   6.003   5.873   1.085 -0.0930 -0.0675  0.0251
 2657W        W 6721   2.108   4.428   8.874  0.1297  0.2342 -0.1325
 2658W        W 6722   5.088   3.653  10.554 -0.3670  0.4444  0.3917
 2659W        W 6723   2.508   6.229   3.470  0.1138  0.2229  0.2883
 2660W        W 6724   7.011   6.913   9.916  0.1610 -0.0467 -0.1305
 2661W        W 6725   9.328   8.624   9.414  0.1040 -0.2699 -0.1245
 2662W        W 6726  10.117   0.406   9.073  0.2152 -0.0993  0.1778
 2663W        W 6727   8.350   5.206   8.550  0.4959  0.2098  0.2339
 2664W        W 6728   6.411   9.904   2.782 -0.0496  0.1468  0.1896
 2665W        W 6729   8.152   0.391   8.115  0.2092 -0.1000 -0.0746
 2666W        W 6730   6.798   3.605   9.912 -0.5650  0.1598  0.0968
 2667W        W 6731  10.474   0.339   0.253 -0.0732  0.2577  0.0842
 2668W        W 6732   0.604  10.285   4.466 -0.1787 -0.1391 -0.2429
 2669W        W 6733   5.176   6.437  10.341 -0.2045 -0.2707 -0.3548
 2670W        W 6734   5.397   1.894  11.400 -0.1998  0.2066 -0.1306
 2671W        W 6735   0.837   2.801   1.700 -0.0117 -0.1664  0.1764
 2672W        W 6736   6.899   0.933  11.378  0.3116  0.0541 -0.0506
 2673W        W 6737   8.675   0.604   1.694 -0.2184 -0.3250  0.1910
 2674W        W 6738   7.462  10.196  10.369 -0.3221 -0.2007 -0.4532
 2675W        W 6739   5.798   1.694   1.075 -0.3379 -0.0363 -0.0502
 2676W        W 6740   5.353   2.294   8.697  0.2360  0.1679 -0.2338
 2677W        W 6741   4.156   6.543   1.722 -0.1454  0.0745  0.0466
 2678W        W 6742   5.319   5.124   4.480  0.0047 -0.0372  0.1121
 2679W        W 6743   3.364   3.009   9.599 -0.0582 -0.1097  0.0309
 2680W        W 6744   4.752   7.417   0.878 -0.0429 -0.1399  0.2210
 2681W        W 6745   6.377   7.946   2.899 -0.1113  0.4210  0.1982
 2682W        W 6746   0.901   1.348   8.890  0.1516 -0.2477  0.0959
 2683W        W 6747   0.236   8.483   2.163  0.3980  0.0056  0.1127
 2684W        W 6748   0.747   4.447   9.992 -0.1223  0.0330  0.1667
 2685W        W 6749   2.946   7.164  10.356  0.0042 -0.5099  0.1219
 2686W        W 6750   1.543   3.953   2.943  0.2233 -0.0534 -0.1662
 2687W        W 6751   4.054   5.390   4.086  0.0157  0.0511 -0.1195
 2688W        W 6752   5.571   1.298   1.243 -0.2323  0.2152  0.2143
 2689W        W 6753   8.331   2.975   2.678  0.0287 -0.5267 -0.0078
 2690W        W 6754   1.093   1.900   2.196 -0.2387  0.0426  0.1889
 2691W        W 6755   3.402   3.969   1.511 -0.2258 -0.2752  0.1884
 2692W        W 6756   3.197   0.866   2.717 -0.1736 -0.1028  0.1942
 2693W        W 6757   2.137   4.077   8.549  0.0524  0.2200 -0.0014
 2694W        W 6758   1.343   3.494   3.605 -0.1964 -0.0835 -0.0608
 2695W        W 6759  10.135   7.975  11.208 -0.4752 -0.0545  0.1617
 2696W        W 6760   1.570   7.241   9.726 -0.1462 -0.0648 -0.1763
 2697W        W 6761  10.165   9.131   0.959 -0.1624  0.3671 -0.3294
 2698W        W 6762   5.578   4.855   0.869  0.3224  0.0141  0.1136
 2699W        W 6763   0.998  10.274   9.661 -0.0047 -0.4030 -0.0723
 2700W        W 6764   1.439   9.504  11.061 -0.3213 -0.0381  0.2586
 2701W        W 6765   0.132   3.938  10.646 -0.1757 -0.1645  0.1613
 2702W        W 6766   5.792   4.117   3.776 -0.1215  0.2763 -0.0107
 2703W        W 6767   8.550   1.055   0.859  0.1820  0.1506  0.3608
 2704W        W 6768   2.627   2.263   1.856  0.2807  0.2178 -0.4634
 2705W        W 6769   0.328   7.572   9.144  0.1222  0.0102  0.0363
 2706W        W 6770   3.024   9.631   4.223 -0.1690  0.2786  0.0645
 2707W        W 6771   3.491   4.240   7.876 -0.1171  0.2806  0.2289
 2708W        W 6772   9.645   1.836   0.126 -0.0351 -0.2223 -0.0287
 2709W        W 6773   1.938   3.886   1.632  0.1994 -0.0135 -0.1656
 2710W        W 6774   4.907   4.844   8.996 -0.0826  0.0174 -0.0620
 2711W        W 6775  10.015   0.119  11.040 -0.2458 -0.1725  0.1798
 2712W        W 6776   7.865  10.311   1.321  0.2645 -0.0970 -0.0965
 2713W        W 6777   6.232   4.823  10.038  0.1877  0.0302 -0.2762
 2714W        W 6778   6.152   6.053   0.421  0.1710  0.1621  0.0401
 2715W        W 6779   4.146  10.168   9.568  0.1907  0.0464 -0.2003
 2716W        W 6780   7.157   4.836   8.858 -0.1146 -0.5577 -0.2206
 2717W        W 6781   2.234   1.699   8.769 -0.0534  0.2001 -0.0378
 2718W        W 6782   0.004   5.933   0.107 -0.1901 -0.1577  0.1029
 2719W        W 6783   2.843   1.115   9.916  0.0575 -0.2632  0.3739
 2720W        W 6784   2.476   9.686   8.051 -0.0977 -0.1207 -0.0656
 2721W        W 6785   3.006   2.414   2.304 -0.0498  0.2593 -0.0959
 2722W        W 6786   2.454   1.346   0.020  0.2287  0.1773  0.1471
 2723W        W 6787   8.674   2.236   1.694  0.0448  0.1920  0.1466
 2724W        W 6788   6.890   2.048   1.917 -0.0306 -0.1669 -0.0831
 2725W        W 6789   6.894   3.356  10.751 -0.1824  0.0319  0.0720
 2726W        W 6790   5.429   7.537   2.431  0.3369 -0.1157 -0.3623
 2727W        W 6791   0.096   3.355   2.179  0.2310 -0.0271  0.2897
 2728W        W 6792   8.124   3.603   8.189 -0.0658  0.0737  0.1112
 2729W        W 6793   9.411   2.821   0.616  0.3371 -0.0383  0.0480
 2730W        W 6794   8.673   5.643  10.669  0.1938  0.1698  0.2241
 2731W        W 6795   9.812   0.071   1.582  0.1461 -0.0358 -0.1558
 2732W        W 6796   3.274   4.451   1.376  0.0819 -0.2089  0.1327
 2733W        W 6797   2.269   9.695   2.028 -0.2631 -0.2241 -0.0656
 2734W        W 6798   7.811   2.400   0.068 -0.2952  0.1047  0.1383
 2735W        W 6799   1.492  10.025   2.673  0.2922 -0.0302 -0.1778
 2736W        W 6800  10.442  10.075   2.805  0.1320 -0.2173  0.3465
 2737W        W 6801   5.081   2.340   0.858  0.0355  0.0009 -0.2452
 2738W        W 6802   3.428   9.873   9.045  0.1093  0.2011 -0.3754
 2739W        W 6803   2.256  10.504   2.950  0.5123  0.0441 -0.0215
 2740W        W 6804   9.485   2.749   3.169 -0.5362 -0.0392  0.1138
 2741W        W 6805   9.764   1.144   3.067 -0.3778  0.1358 -0.0967
 2742W        W 6806   5.056   6.989   0.805 -0.0096 -0.0913 -0.0262
 2743W        W 6807   2.981   4.303   9.223  0.3014  0.0524  0.1488
 2744W        W 6808   8.483   8.592  11.270  0.0752 -0.0578 -0.0956
 2745W        W 6809   7.248   0.973   8.500  0.1139 -0.3276 -0.1236
 2746W        W 6810   7.969   1.596   2.527 -0.1528 -0.1322  0.1178
 2747W        W 6811   2.869   7.789   1.527 -0.0398 -0.0231 -0.1203
 2748W        W 6812   2.857   9.623   9.134  0.2433  0.2112  0.0839
 2749W        W 6813  10.399   1.313  10.260  0.1331  0.0197  0.1714
 2750W        W 6814   0.340   8.605   1.686 -0.2112 -0.0630  0.1348
 2751W        W 6815   4.141  10.417   0.439 -0.0677  0.2145  0.4959
 2752W        W 6816  10.703   0.549   2.727 -0.3327 -0.1640  0.0618
 2753W        W 6817   7.700   9.756  11.017  0.0297 -0.1047  0.0891
 2754W        W 6818   6.981   7.855  10.860  0.1631 -0.0434  0.1861
 2755W        W 6819   3.125   2.457   9.770 -0.1768  0.1757  0.3143
 2756W        W 6820   9.457   6.510  11.254 -0.1058  0.0541  0.3038
 2757W        W 6821   2.250   4.238  10.573  0.2088 -0.0605 -0.0547
 2758W        W 6822   8.173   5.234   2.331  0.1064  0.2390 -0.0767
 2759W        W 6823   0.982   5.149   1.603  0.1644 -0.3180 -0.3172
 2760W        W 6824   6.288   4.095  10.815  0.0705  0.0249  0.0015
 2761W        W 6825   6.850   1.066   0.916  0.2188 -0.1772 -0.3522
 2762W        W 6826   4.033  10.501   0.952 -0.0299 -0.3199  0.1037
 2763W        W 6827   6.374   0.298   1.931 -0.0890 -0.0536  0.0320
 2764W        W 6828  10.396   7.351   1.551  0.2292 -0.0485 -0.0989
 2765W        W 6829   1.242   2.060   2.724 -0.1486  0.2426  0.0747
 2766W        W 6830   1.202   7.822  11.050  0.0986 -0.0158 -0.0776
 2767W        W 6831   7.170   8.223   0.274  0.2404  0.2643  0.0427
 2768W        W 6832   2.795   3.569   0.512  0.2602 -0.0539 -0.3837
 2769W        W 6833   0.472   7.620   2.118 -0.0331  0.1035  0.1066
 2770W        W 6834   4.587   5.517   2.410  0.0268 -0.3253 -0.1441
 2771W        W 6835   0.131   2.589   2.835  0.2145  0.0214  0.1580
 2772W        W 6836   2.235   1.502  10.942 -0.2922 -0.1392  0.0040
 2773W        W 6837   4.077   0.521   3.880 -0.1612 -0.2152  0.2529
 2774W        W 6838   7.775   9.770  10.529 -0.0034  0.1888 -0.0387
 2775W        W 6839   8.689   8.234   8.335  0.0866 -0.0573 -0.1048
 2776W        W 6840   7.663   0.940   1.961 -0.0565 -0.0095 -0.0439
 2777W        W 6841  10.003   6.362   3.351 -0.3694  0.1605  0.1804
 2778W        W 6842   8.833   3.063   2.018  0.0717  0.2627 -0.1938
 2779W        W 6843  10.604   0.165   2.436  0.1779  0.2877  0.0260
 2780W        W 6844   6.462   3.693   0.854 -0.2209 -0.0783 -0.1143
 2781W        W 6845   4.415   6.835   9.263  0.1537 -0.0802 -0.4641
 2782W        W 6846   5.640   9.515   0.085 -0.1160 -0.0502  0.0015
 2783W        W 6847   1.160   6.325   3.120 -0.0857 -0.0814  0.0630
 2784W        W 6848   6.418   0.620   8.873  0.3477  0.2364  0.5538
 2785W        W 6849   9.876   4.935   2.301 -0.2644  0.0734 -0.0984
 2786W        W 6850   3.126   5.125  11.121 -0.0202  0.3032  0.1322
 2787W        W 6851   8.888   1.728   0.061  0.0908  0.0738 -0.0038
 2788W        W 6852   2.399   8.033   0.270  0.0657 -0.3595 -0.3738
 2789W        W 6853   2.719  10.480   1.917  0.0731  0.1731 -0.2681
 2790W        W 6854   8.109   3.688  11.047 -0.0612 -0.1288 -0.0745
 2791W        W 6855   9.069   8.494   3.991 -0.0114  0.0638 -0.0358
 2792W        W 6856   2.886   9.332  10.639 -0.1557 -0.2627 -0.0967
 2793W        W 6857  10.356   1.021   1.223  0.2766 -0.0279 -0.0069
 2794W        W 6858   2.922   6.363   9.089  0.0344  0.0018  0.0327
 2795W        W 6859   9.950   3.881   2.831 -0.1791 -0.2799 -0.1964
 2796W        W 6860   5.152  10.221   2.834 -0.1248 -0.0189 -0.0266
 2797W        W 6861   5.657  10.439   2.895  0.2566  0.4211 -0.0594
 2798W        W 6862   6.493   1.847   3.063 -0.3904 -0.1390 -0.1430
 2799W        W 6863   0.217   4.219   9.558  0.1140 -0.3739  0.0764
 2800W        W 6864   0.679   9.934  10.781 -0.1068 -0.1948 -0.2322
 2801W        W 6865   8.223   7.564   3.079 -0.0278  0.0082 -0.0720
 2802W        W 6866   3.051   6.202   3.550  0.0473 -0.0155 -0.0031
 2803W        W 6867   1.895   7.577   1.995  0.1265  0.1646 -0.3507
 2804W        W 6868   5.971   0.052   4.249  0.1960 -0.1113  0.1102
 2805W        W 6869   8.912   5.962   7.436  0.2053  0.2577  0.1489
 2806W        W 6870   8.388   5.607   1.003 -0.0805 -0.0079  0.1251
 2807W        W 6871   8.900   8.889   9.454 -0.1171 -0.0979  0.0093
 2808W        W 6872   6.073   5.227   0.354 -0.1375 -0.0086  0.2170
 2809W        W 6873   8.826   1.957   3.272  0.0990  0.3152  0.1697
 2810W        W 6874   6.953   7.652   9.124  0.0458 -0.2554 -0.1449
 2811W        W 6875   0.004   1.453   1.135 -0.1395 -0.2849 -0.1993
 2812W        W 6876   0.548   5.325   8.313 -0.3012 -0.0312 -0.1309
 2813W        W 6877  10.351   0.199   3.158  0.2799  0.2212  0.0808
 2814W        W 6878   3.559   5.480   1.748  0.2355  0.3587 -0.1958
 2815W        W 6879   1.689   8.758   2.834 -0.2173 -0.1213 -0.0312
 2816W        W 6880  10.419   8.110  10.469  0.1546 -0.0806  0.1398
 2817W        W 6881   7.003   6.935   8.945  0.1738  0.0802 -0.0379
 2818W        W 6882   4.391   3.471  11.128  0.0217 -0.0234  0.0541
 2819W        W 6883   9.300   4.801   8.760  0.2224  0.3878 -0.0536
 2820W        W 6884   7.282   4.067   8.540  0.0986  0.0202 -0.2116
 2821W        W 6885   7.714   6.394   1.333 -0.0086 -0.1901 -0.0430
 2822W        W 6886   4.771   1.491   0.562 -0.2648 -0.0095 -0.0042
 2823W        W 6887  10.293   9.530   1.343 -0.4292 -0.3406 -0.1378
 2824W        W 6888   9.130   9.560   7.926  0.2196  0.1095 -0.1457
 2825W        W 6889  10.459   1.066   3.422 -0.3548  0.2513 -0.3535
 2826W        W 6890   3.427   7.824   2.224 -0.1464 -0.2965  0.0232
 2827W        W 6891   8.975   9.270   3.578 -0.1884  0.1903  0.1293
 2828W        W 6892   7.546   8.782   1.938 -0.0169  0.0832  0.0559
 2829W        W 6893   8.431   7.104   0.928 -0.3438 -0.0268  0.1493
 2830W        W 6894   5.080   4.645   1.704 -0.2164 -0.1061 -0.0409
 2831W        W 6895   2.069   7.599   9.227  0.3318  0.1802  0.2737
 2832W        W 6896   3.024   3.299   9.361  0.0516 -0.0125  0.0210
 2833W        W 6897   1.589   8.436   3.316 -0.1098 -0.0216 -0.1336
 2834W        W 6898   2.781   8.635   1.287 -0.1683  0.1100 -0.1046
 2835W        W 6899   1.503   9.932   7.456 -0.1641 -0.3715 -0.1915
 2836W        W 6900   3.968   0.061   3.952  0.0882 -0.0738  0.0832
 2837W        W 6901  10.269   4.738   8.970 -0.0279  0.0352 -0.1792
 2838W        W 6902   4.173   8.584   1.537  0.3328 -0.3793 -0.0498
 2839W        W 6903   5.404   7.962   1.107 -0.0692  0.1815  0.2674
 2840W        W 6904   8.515   8.235   8.932  0.1515 -0.0214  0.0799
 2841W        W 6905   3.337   9.517   2.017 -0.2780  0.1103 -0.0520
 2842W        W 6906   3.215  10.293   4.404 -0.1866  0.0381  0.1737
 2843W        W 6907   1.551   1.422  10.385  0.2196 -0.3301 -0.2730
 2844W        W 6908   4.416   9.905   3.239  0.0567 -0.3612 -0.2793
 2845W        W 6909   8.252   9.112  11.313 -0.0733  0.1132 -0.3148
 2846W        W 6910  10.675   9.793   8.447 -0.0512 -0.0878 -0.1992
 2847W        W 6911   6.198   8.514  10.276 -0.1736  0.2657 -0.1817
 2848W        W 6912   7.360   5.271   9.643  0.0893 -0.0721  0.0927
 2849W        W 6913   1.203   9.030   9.758  0.1362  0.1227  0.1813
 2850W        W 6914   3.643   7.786   0.801 -0.2058  0.1415  0.1080
 2851W        W 6915   3.182   8.012   0.691  0.0366 -0.0789 -0.0859
 2852W        W 6916   6.219   7.587   9.637 -0.2054 -0.0475 -0.1720
 2853W        W 6917   7.763   1.735   0.847 -0.1495  0.0125 -0.0047
 2854W        W 6918   5.553   3.668  11.189  0.0241 -0.2487 -0.4048
 2855W        W 6919   7.283  10.109   0.841  0.1799 -0.0880 -0.0035
 2856W        W 6920   4.909   3.024   8.638 -0.2753 -0.3501  0.0768
 2857W        W 6921   3.072   6.660  10.046  0.1524 -0.0717  0.1164
 2858W        W 6922   9.077   9.785   8.912 -0.1455  0.5163  0.1738
 2859W        W 6923   8.940   7.179  11.020 -0.0163  0.2183  0.0355
 2860W        W 6924   9.187   7.162   9.527 -0.0350  0.1066  0.0525
 2861W        W 6925  10.174   9.600   8.060  0.2450 -0.1582 -0.0323
 2862W        W 6926   2.083   9.338   1.721  0.1501 -0.0924  0.0587
 2863W        W 6927   3.048   3.431   9.845 -0.0136  0.0240 -0.2074
 2864W        W 6928   4.296   1.864   1.261 -0.2709  0.1272 -0.0651
 2865W        W 6929   9.562   8.343   3.313  0.1515 -0.0199 -0.4465
 2866W        W 6930   7.958   6.928   9.476 -0.1608 -0.1092 -0.0022
 2867W        W 6931   8.331   9.175  10.750 -0.2010  0.0496  0.2733
 2868W        W 6932   5.910   1.015   1.617  0.0314 -0.0118  0.1950
 2869W        W 6933   3.918   6.152  10.553  0.0404 -0.0699  0.3365
 2870W        W 6934   0.997   5.243   2.410 -0.2211  0.0552  0.1557
 2871W        W 6935  10.315   7.275  11.085 -0.0733  0.1718 -0.2286
 2872W        W 6936   9.447   8.135   9.214  0.1600  0.0650 -0.0637
 2873W        W 6937   1.066   5.617   9.819 -0.2401  0.0954 -0.1514
 2874W        W 6938   9.645   1.271   9.244 -0.0414 -0.1578 -0.0167
 2875W        W 6939   4.714   5.589  10.078  0.2412  0.0390 -0.1761
 2876W        W 6940   0.374   2.496   2.371 -0.3028 -0.2133 -0.0595
 2877W        W 6941   8.076   7.175   0.145  0.2127  0.1385 -0.3250
 2878W        W 6942   9.372   5.206   3.084 -0.1317 -0.0198 -0.0830
 2879W        W 6943   5.907   9.105   8.922 -0.2167  0.3792  0.0603
 2880W        W 6944   0.870   6.446   4.333  0.1665 -0.1306 -0.1823
 2881W        W 6945   8.986   0.861   4.179 -0.1300  0.3158  0.0274
 2882W        W 6946   1.104   7.585   8.562 -0.2044  0.3057 -0.3259
 2883W        W 6947   0.982   7.989  10.633  0.0647  0.1814  0.0152
 2884W        W 6948   6.012   4.363  10.369 -0.3402  0.0401  0.0564
 2885W        W 6949   4.343   8.414  10.171  0.2634 -0.2108  0.1732
 2886W        W 6950   5.591   0.943   8.903  0.1393  0.1276  0.0530
 2887W        W 6951   8.100   8.386   0.920 -0.4966  0.1953  0.4273
 2888W        W 6952   0.670   3.881   0.588 -0.4765 -0.1699 -0.0370
 2889W        W 6953   2.572   5.172   8.655 -0.0975 -0.2082 -0.0961
 2890W        W 6954   8.118   8.782  10.475 -0.1210  0.3240  0.0586
 2891W        W 6955   2.480   4.471   9.167  0.3182 -0.0715 -0.3802
 2892W        W 6956   9.575   3.244   0.348  0.0453  0.0513  0.0678
 2893W        W 6957   2.947   4.631  10.205  0.0412 -0.0174 -0.2635
 2894W        W 6958   2.318   1.130   9.511 -0.3769  0.1312  0.4740
 2895W        W 6959   4.437   3.970   8.970 -0.0988 -0.1736 -0.1097
 2896W        W 6960   2.134   7.562   3.223  0.0335 -0.2222 -0.1033
 2897W        W 6961   9.477   9.506   0.492 -0.1489  0.2437  0.1631
 2898W        W 6962   6.354   7.647  10.550 -0.1529 -0.1728  0.3500
 2899W        W 6963   2.277   4.933   8.959  0.1006  0.1643  0.0102
 2900W        W 6964   2.338   4.663  10.300  0.1786 -0.0081  0.1288
 2901W        W 6965   9.988   5.871   9.782 -0.0897  0.0026  0.2005
 2902W        W 6966   3.590   2.304   8.876 -0.0596  0.0684  0.0639
 2903W        W 6967   2.165   9.082   8.799  0.1014  0.2091 -0.0963
 2904W        W 6968   8.220   9.371   9.683 -0.1323 -0.1788  0.1579
 2905W        W 6969   6.754  10.415   8.542  0.1846 -0.0327  0.1941
 2906W        W 6970   2.102   3.731   0.794  0.0154 -0.2044 -0.3158
 2907W        W 6971  10.409   7.203   8.209  0.1854 -0.3031 -0.2057
 2908W        W 6972   2.782   5.224   9.591  0.0096 -0.4051  0.1164
 2909W        W 6973   6.169   3.577   9.038  0.1614  0.1862 -0.0940
 2910W        W 6974   2.267   1.814   9.437 -0.0738 -0.3026  0.2592
 2911W        W 6975   0.077   5.348   8.148 -0.1885  0.0257 -0.2336
 2912W        W 6976   2.832   2.624   0.478 -0.2914  0.0976  0.0639
 2913W        W 6977   8.547   6.912  11.381  0.1284  0.1129 -0.0835
 2914W        W 6978   2.696   6.548   9.719 -0.1225  0.0384  0.0182
 2915W        W 6979   9.737   4.922  11.293 -0.1415  0.3545  0.3327
 2916W        W 6980   0.163   5.022   9.902  0.0826 -0.3909  0.0641
 2917W        W 6981   1.978   0.139   1.661 -0.2516 -0.0518  0.0131
 2918W        W 6982   5.660   0.994   3.034 -0.1241 -0.1548 -0.0728
 2919W        W 6983   7.460   3.181   8.645  0.1588  0.3847  0.1257
 2920W        W 6984   6.052   1.051   7.656 -0.3899  0.1319  0.1576
 2921W        W 6985   7.304   3.780   9.784  0.1958 -0.0250  0.3184
 2922W        W 6986   3.059  10.271  11.059 -0.1798 -0.1866 -0.1670
 2923W        W 6987   4.264   6.981   3.181  0.0800  0.1250  0.0186
 2924W        W 6988   1.171   9.000  10.286 -0.0298 -0.1496 -0.1227
 2925W        W 6989   9.695  10.340   0.643  0.1130 -0.3160  0.2686
 2926W        W 6990   2.661   5.697   2.190 -0.0503  0.2105  0.1902
 2927W        W 6991   5.398  10.214   8.308 -0.1862  0.1670  0.2750
 2928W        W 6992   1.298   9.846  10.193 -0.3660 -0.2509  0.3460
 2929W        W 6993   4.239   3.358   7.916  0.1205  0.0745 -0.0225
 2930W        W 6994   4.374   1.654   8.197  0.1881  0.2539  0.0537
 2931W        W 6995   8.263  10.511   8.822  0.2296  0.4583 -0.0758
 2932W        W 6996  10.695   8.960   1.818 -0.1559  0.0590 -0.3946
 2933W        W 6997   7.241  10.632   8.539  0.1076 -0.0490  0.2307
 2934W        W 6998   2.875   3.757   9.208  0.1594 -0.3185  0.0661
 2935W        W 6999   9.962   1.664   3.081 -0.1235 -0.1149 -0.1612
 2936W        W 7000   4.276   8.413   8.031 -0.0993 -0.2366 -0.1516
 2937W        W 7001   2.700   3.630  11.401 -0.0082 -0.0263 -0.0102
 2938W        W 7002   9.481   9.834   2.929 -0.1489 -0.1546  0.0365
 2939W        W 7003   4.066   4.744   2.952 -0.1418 -0.1254 -0.1461
 2940W        W 7004   3.581   7.047   8.733  0.1679  0.0097 -0.2067
 2941W        W 7005   4.480  10.098   8.110  0.0201 -0.5649  0.0408
 2942W        W 7006   7.163   8.554   9.140 -0.5992 -0.1053  0.1269
 2943W        W 7007   3.915   8.682   3.761  0.3414 -0.1913  0.3780
 2944W        W 7008   8.103   2.494   8.411 -0.1255 -0.1948 -0.1337
 2945W        W 7009   1.077   3.140   9.611 -0.0437  0.1971  0.2066
 2946W        W 7010   5.324   5.228   8.921 -0.0397  0.2931 -0.2040
 2947W        W 7011   2.467   3.954   0.544  0.0140  0.1771 -0.0071
 2948W        W 7012   7.842   9.143   1.685 -0.0080  0.3496  0.2154
 2949W        W 7013   1.644   7.082   4.275 -0.0486  0.3349 -0.0087
 2950W        W 7014   0.532   8.652  10.335  0.0241 -0.0119  0.1861
 2951W        W 7015   4.112   1.137   8.162  0.2981  0.0672  0.0079
 2952W        W 7016   2.736   7.268   2.712 -0.1944  0.0329 -0.1105
 2953W        W 7017  10.012   0.598   4.123  0.0040 -0.1907  0.0115
 2954W        W 7018   2.981   5.184  10.126  0.1684 -0.1377 -0.1514
 2955W        W 7019   3.542   5.292   9.068  0.1472 -0.2271 -0.0493
 2956W        W 7020   2.405   2.353  10.251  0.1209 -0.0504  0.1932
 2957W        W 7021   9.330   4.768   0.644  0.1772 -0.2630  0.0836
 2958W        W 7022   7.232   6.645  10.816  0.0022  0.1450 -0.1461
 2959W        W 7023   7.381   8.717  11.343  0.0929  0.1165  0.2009
 2960W        W 7024   0.362   2.559   8.081 -0.3388 -0.0720  0.1028
 2961W        W 7025   9.990  10.514   8.110  0.1497  0.1900 -0.0188
 2962W        W 7026   6.985   1.877   0.266 -0.0361 -0.1560  0.2160
 2963W        W 7027   2.915   2.549   4.169 -0.0109  0.0273  0.2905
 2964W        W 7028   7.809   2.613   1.971 -0.0461  0.2873 -0.0349
 2965W        W 7029   2.340   7.295   3.682 -0.2190 -0.0332 -0.0408
 2966W        W 7030   9.729   5.232  10.655 -0.1013  0.1214 -0.0223
 2967W        W 7031   0.292   6.777   2.622 -0.0641 -0.1828 -0.1113
 2968W        W 7032   9.928   2.955   3.010 -0.0756  0.1275  0.2204
 2969W        W 7033   3.391   0.843   0.892 -0.1583 -0.1649  0.1239
 2970W        W 7034   7.332   4.186   2.015  0.3673  0.1536  0.0466
 2971W        W 7035   0.778   3.533  11.412  0.0052 -0.0877 -0.1651
 2972W        W 7036   4.341   2.668   1.345 -0.2075  0.1058  0.0392
 2973W        W 7037   5.980   1.490   0.261  0.1804 -0.1223  0.1120
 2974W        W 7038   3.109   9.235   1.670  0.0906 -0.0806  0.0801
 2975W        W 7039   1.178   0.426   9.797  0.0798 -0.2170  0.0768
 2976W        W 7040   9.929  10.509   9.244  0.0072 -0.0607  0.0026
 2977W        W 7041   7.216   1.333   8.129 -0.0794 -0.1468 -0.0820
 2978W        W 7042   9.769   6.945  10.429 -0.3608 -0.0386 -0.0797
 2979W        W 7043   1.319   6.142   1.502  0.1228  0.3116  0.1123
 2980W        W 7044  10.259   7.116   0.886  0.0815 -0.2904  0.4192
 2981W        W 7045   8.413   0.271   9.026  0.0350 -0.1696 -0.2317
 2982W        W 7046   6.116   0.326   2.422  0.2473  0.1056 -0.0357
 2983W        W 7047   5.013   3.422   1.537 -0.0250 -0.3968  0.1393
 2984W        W 7048   8.414   5.269   3.673 -0.3735 -0.1417 -0.0499
 2985W        W 7049   3.042   9.086   7.790  0.0716  0.0511  0.0985
 2986W        W 7050   2.736   6.833   8.323  0.0279  0.0115 -0.2729
 2987W        W 7051   0.198   8.967  10.637  0.1027 -0.3379  0.0117
 2988W        W 7052  10.098   8.449   8.841  0.2244  0.1887 -0.0274
 2989W        W 7053   3.218  10.354   9.155  0.2634 -0.0724  0.0183
 2990W        W 7054   9.986   6.117   8.412  0.0005  0.0995  0.1581
 2991W        W 7055   5.525   0.784   1.428  0.3171 -0.3027  0.5223
 2992W        W 7056   0.863   0.537   2.519  0.3523 -0.1952 -0.1593
 2993W        W 7057   3.319   5.183   7.663  0.2514 -0.2743 -0.0112
 2994W        W 7058   7.291   1.805   9.566  0.0027 -0.2312 -0.0417
 2995W        W 7059   9.032   5.621  10.282 -0.0114  0.0474 -0.1790
 2996W        W 7060   2.079   0.111  10.928  0.0336 -0.2076  0.0219
 2997W        W 7061   8.841   5.368   0.970 -0.6532 -0.1379  0.0676
 2998W        W 7062   8.283   0.977  11.198  0.3127  0.0026  0.0459
 2999W        W 7063   4.002   1.683   9.031  0.0757  0.3747  0.0626
 3000W        W 7064   6.651   5.964   8.182  0.0051 -0.1137  0.1137
 3001W        W 7065   6.672   4.524  10.160 -0.1526  0.0169 -0.0043
 3002W        W 7066   8.308   0.585   2.212 -0.1188 -0.1694 -0.0235
 3003W        W 7067   3.725   5.915   1.412 -0.1568  0.2542  0.4292
 3004W        W 7068   4.510   8.355   3.247  0.0994  0.1989  0.0091
 3005W        W 7069   7.770   0.781   2.891 -0.0414 -0.0908  0.3203
 3006W        W 7070   9.378   2.148   1.278 -0.2067 -0.4214 -0.2268
 3007W        W 7071   1.007   1.226   8.268 -0.1802 -0.2951 -0.0316
 3008W        W 7072  10.287   8.594   1.051  0.0484  0.3688  0.2447
 3009W        W 7073   0.879   2.571   3.535  0.1544  0.2353  0.3744
 3010W        W 7074   1.531   0.712   8.907 -0.1749  0.0601 -0.0439
 3011W        W 7075   6.179   2.182   2.875  0.0826  0.0608  0.1796
 3012W        W 7076   0.811   0.913   9.117 -0.2530  0.1619  0.0572
 3013W        W 7077   8.456  10.585  10.407  0.1388 -0.2281  0.0437
 3014W        W 7078   4.055   9.913   8.239  0.1348 -0.1631 -0.4035
 3015W        W 7079   8.832  10.359  10.652 -0.0095  0.1679 -0.1515
 3016W        W 7080   7.796   6.439  10.228 -0.1967  0.1297 -0.2271
 3017W        W 7081   8.036   2.616   2.455  0.0145 -0.3234  0.3289
 3018W        W 7082   4.365   1.433   0.874  0.1883  0.1386 -0.2512
 3019W        W 7083   9.300   0.610   8.364 -0.2150  0.3773  0.0836
 3020W        W 7084   8.257   8.155   2.358  0.1843  0.0452 -0.1880
 3021W        W 7085   6.697   9.541   9.527  0.2198  0.4121  0.4668
 3022W        W 7086   3.316   2.982  11.075  0.0518  0.0607  0.3182
 3023W        W 7087   2.363   9.803   8.870 -0.0616  0.0397 -0.0519
 3024W        W 7088   0.578   9.505   2.672  0.2218 -0.3407  0.0426
 3025W        W 7089   0.220   5.812   8.395 -0.1688  0.0590  0.0895
 3026W        W 7090  10.582   4.825  10.279  0.0162  0.3568  0.1771
 3027W        W 7091   9.843   8.026   8.924 -0.0887 -0.1984 -0.0544
 3028W        W 7092   6.446   1.620   0.319 -0.1007 -0.1103  0.0197
 3029W        W 7093   6.513   7.831   8.241 -0.2194  0.0399  0.0242
 3030W        W 7094   6.391   0.308   0.008  0.1107  0.0818 -0.1529
 3031W        W 7095   8.607   1.457   2.080 -0.0464  0.0367  0.5726
 3032W        W 7096   5.397   4.869   0.149  0.2197 -0.2015  0.0009
 3033W        W 7097   3.954   8.013  10.567  0.1474 -0.3990  0.0633
 3034W        W 7098   3.426   8.722   2.376 -0.2140 -0.0893 -0.3325
 3035W        W 7099   9.685   8.721   9.749  0.1135 -0.0402  0.4353
 3036W        W 7100   7.693   1.152   9.236  0.0159  0.2254 -0.2071
 3037W        W 7101   6.122   8.227  10.704  0.0200  0.4794  0.0544
 3038W        W 7102   6.795   4.186  10.592  0.0196  0.1087  0.3001
 3039W        W 7103   2.348   5.610   3.468  0.1858 -0.0807  0.2195
 3040W        W 7104   1.232   2.404   1.753  0.3039 -0.2409  0.0956
 3041W        W 7105   1.130   2.613   1.306  0.4421 -0.0725  0.0682
 3042W        W 7106   2.955   9.517  11.090  0.0055  0.1789 -0.1860
 3043W        W 7107  10.267   0.615   9.542  0.2031  0.2135  0.1640
 3044W        W 7108   2.513   4.454   8.063  0.1950 -0.2009  0.2607
 3045W        W 7109   8.853  10.023   4.175 -0.2436  0.0643  0.1766
 3046W        W 7110   0.319   9.570  10.918  0.0397  0.0089  0.1185
 3047W        W 7111   0.510   2.152   8.973  0.1031 -0.1102  0.4952
 3048W        W 7112   8.427   8.946   3.761  0.2888 -0.1350 -0.1685
 3049W        W 7113   1.139  10.084   3.050 -0.2205  0.0624 -0.0236
 3050W        W 7114  10.081   0.131   1.176  0.3540 -0.1513  0.0209
 3051W        W 7115   4.309  10.281   1.364 -0.0064 -0.2468  0.0603
 3052W        W 7116   3.006   5.671   9.178  0.1175 -0.1928 -0.0491
 3053W        W 7117   4.868   5.720   8.412 -0.1315  0.4001 -0.1203
 3054W        W 7118   8.723   5.415   2.372 -0.1969  0.2066 -0.1092
 3055W        W 7119   2.561   9.442   2.494  0.0208  0.2062 -0.1660
 3056W        W 7120   5.708   7.529   9.622 -0.0350 -0.3922  0.1344
 3057W        W 7121   9.507   3.795   1.984 -0.1054 -0.0413  0.1087
 3058W        W 7122   5.614   0.848   3.512  0.0688 -0.1347 -0.2915
 3059W        W 7123   1.692  10.494  10.957  0.1800  0.0974 -0.3098
 3060W        W 7124   5.473   4.329   9.938  0.0522  0.0297  0.1229
 3061W        W 7125   8.485  10.708   3.123  0.1686 -0.1607 -0.2262
 3062W        W 7126   5.282   1.243   3.344 -0.1150  0.0850 -0.0612
 3063W        W 7127  10.486   3.309   9.574 -0.1434  0.2026 -0.2888
 3064W        W 7128   1.021   9.719   1.724  0.1021  0.2340  0.0124
 3065W        W 7129  10.188   0.842   0.748 -0.2154  0.3382 -0.2443
 3066W        W 7130   4.403   2.007   9.162 -0.1003  0.2361  0.0012
 3067W        W 7131   9.024   6.458   2.216  0.0057  0.2063  0.0532
 3068W        W 7132   0.199   2.964   9.392 -0.3129 -0.1687 -0.0882
 3069W        W 7133   7.306   4.133   1.271  0.4710  0.0396 -0.1405
 3070W        W 7134   0.538   8.053   2.961  0.1147  0.1905 -0.0183
 3071W        W 7135   5.026   0.433   9.597  0.1042  0.0867 -0.1378
 3072W        W 7136   8.739   4.734   3.517 -0.1807  0.0278  0.1147
 3073W        W 7137   9.834   8.352  10.971 -0.1665  0.0130 -0.2134
 3074W        W 7138   6.694   4.969  11.148  0.1776  0.1490 -0.1330
 3075W        W 7139  10.616  10.335   2.338  0.0301 -0.1313 -0.2886
 3076W        W 7140  10.034   3.322   2.563 -0.2504  0.4777  0.1862
 3077W        W 7141   4.492   5.724   3.922 -0.1255 -0.3325  0.0572
 3078W        W 7142   3.172   9.001   8.863 -0.0967  0.2481 -0.0180
 3079W        W 7143   5.936  10.213   0.640  0.0407  0.0190 -0.1943
 3080W        W 7144   4.748   1.888   9.562  0.1725 -0.5173 -0.2202
 3081W        W 7145   1.861   4.579  10.647 -0.0112  0.0893 -0.0794
 3082W        W 7146   6.945  10.604   8.981 -0.2096 -0.1602 -0.3438
 3083W        W 7147   3.120   6.461   2.783 -0.0140 -0.0419 -0.4573
 3084W        W 7148   9.500   5.475  11.049 -0.3380  0.2812 -0.0407
 3085W        W 7149   6.603   7.072   0.597 -0.0486 -0.0716  0.0898
 3086W        W 7150   3.040   6.364   1.233  0.3893 -0.1045 -0.0798
 3087W        W 7151   9.288   1.136   8.294  0.1135 -0.1123 -0.2021
 3088W        W 7152   5.378   9.912   1.285  0.2902  0.0572  0.2003
 3089W        W 7153   5.229   8.089   1.555  0.2408  0.2271  0.3137
 3090W        W 7154   9.626   8.780  11.178  0.0265  0.0862 -0.1610
 3091W        W 7155   2.184   7.479   1.516 -0.0211  0.3935 -0.2843
 3092W        W 7156   9.710   8.169   2.834  0.0664  0.2033  0.0911
 3093W        W 7157   9.690   2.134   1.675  0.2577 -0.2296 -0.2253
 3094W        W 7158   5.823   2.816   2.655  0.0468 -0.0730  0.0275
 3095W        W 7159   5.913   1.682   3.685  0.1810 -0.0611 -0.0355
 3096W        W 7160  10.538   6.026  10.669 -0.0536  0.1270 -0.3550
 3097W        W 7161   2.558   3.289   0.867 -0.0697 -0.1055 -0.0244
 3098W        W 7162   3.880   0.783  10.766 -0.0052  0.4534 -0.1879
 3099W        W 7163   3.641   0.940  10.308  0.2604 -0.0744 -0.0626
 3100W        W 7164   7.366   9.746  10.169 -0.0735 -0.2552 -0.0085
 3101W        W 7165   2.726   2.048   0.509  0.1988 -0.0970 -0.1247
 3102W        W 7166   3.083   1.793   3.052  0.1723 -0.0777 -0.2503
 3103W        W 7167   3.436   7.329   2.984  0.0762  0.2543  0.0889
 3104W        W 7168   0.602   6.286  11.127  0.1363 -0.3693 -0.2552
 3105W        W 7169   0.451   4.803   0.277 -0.1571 -0.1971  0.1645
 3106W        W 7170   0.428   7.988   9.936 -0.0098 -0.2791 -0.2526
 3107W        W 7171   8.619   3.897  10.802 -0.0912  0.0615 -0.2072
 3108W        W 7172   1.415   8.070   1.344  0.1750  0.1442  0.1856
 3109W        W 7173   7.523   7.871   4.043 -0.0375  0.0466 -0.2347
 3110W        W 7174   6.467  10.313   0.739 -0.0563  0.1400  0.1171
 3111W        W 7175   7.258   5.007   1.907  0.0714  0.2336  0.1715
 3112W        W 7176   5.985   6.665   1.160  0.1218  0.0247  0.2327
 3113W        W 7177   7.729   6.597   8.643  0.1749  0.1434 -0.0378
 3114W        W 7178  10.692   9.068   0.171  0.0433  0.0587  0.2601
 3115W        W 7179   1.211  10.184   0.853  0.1423 -0.1004  0.2212
 3116W        W 7180   5.449   7.554   9.105  0.3341  0.0623  0.1791
 3117W        W 7181   4.489   1.767   8.699 -0.0129  0.1465 -0.1371
 3118W        W 7182   3.936   0.390   4.342 -0.0636 -0.2714 -0.0175
 3119W        W 7183   8.429   0.104   0.011 -0.2519 -0.3119  0.1917
 3120W        W 7184   0.864   0.855  10.471  0.4904  0.0382 -0.2038
 3121W        W 7185   9.230   4.407   2.368  0.0558  0.2943  0.2156
 3122W        W 7186   5.766   8.423  10.016  0.0830 -0.1093 -0.0190
 3123W        W 7187   8.555   7.573   1.546 -0.0020  0.0825 -0.2919
 3124W        W 7188   2.393   5.946  10.323 -0.2463  0.1329  0.1694
 3125W        W 7189   8.532   2.216   9.246  0.4212  0.0433  0.0338
 3126W        W 7190   7.873   4.116  11.206  0.0078 -0.0562 -0.0042
 3127W        W 7191   2.139   7.170   2.845  0.2894  0.1503 -0.1488
 3128W        W 7192   4.205   6.423   9.557  0.2619  0.0065 -0.0412
 3129W        W 7193   2.261   0.103   0.379 -0.0515 -0.2355 -0.2335
 3130W        W 7194   7.574   9.137   3.168 -0.0018 -0.1219  0.2107
 3131W        W 7195   2.115   5.548  10.061  0.0415 -0.0761  0.0658
 3132W        W 7196   3.025   2.926   9.953 -0.0940 -0.1652  0.3810
 3133W        W 7197   9.034   7.742   8.147  0.2989 -0.1976 -0.0596
 3134W        W 7198   5.511   2.110   0.855 -0.0461 -0.0060 -0.1266
 3135W        W 7199   7.131   1.724   1.543  0.1670  0.1074 -0.0995
 3136W        W 7200   7.181   9.614   2.294  0.0236  0.1746 -0.1704
 3137W        W 7201  10.227   6.136   9.475  0.2805  0.3572 -0.1200
 3138W        W 7202   5.397   8.534   1.880 -0.2603 -0.1897  0.1066
 3139W        W 7203   7.945   9.239   9.257  0.1893  0.1896 -0.0738
 3140W        W 7204   7.396   2.376   0.286  0.2140  0.0394 -0.0235
 3141W        W 7205   3.365   3.710  10.156 -0.1633 -0.3909 -0.1112
 3142W        W 7206   8.074   1.380  10.204 -0.0870  0.0083  0.4117
 3143W        W 7207   7.673   0.309   2.819  0.0322  0.0120  0.1164
 3144W        W 7208   7.349   3.409   0.144  0.3515 -0.0568  0.2498
 3145W        W 7209   7.570   4.903   2.708  0.1838  0.0545 -0.0272
 3146W        W 7210   1.415   1.212   0.750 -0.1069  0.0466 -0.1291
 3147W        W 7211   2.488   7.075   8.639  0.5841 -0.0157 -0.0945
 3148W        W 7212   2.915   0.402   0.733  0.1187  0.1572 -0.3310
 3149W        W 7213   7.320   6.355   2.888 -0.0529  0.0697  0.2784
 3150W        W 7214   8.156   6.593   0.110 -0.0990 -0.0197  0.0416
 3151W        W 7215   8.682   5.096   1.836  0.0568  0.0700  0.2328
 3152W        W 7216   3.258   1.951   1.189  0.1017 -0.0305  0.2292
 3153W        W 7217   5.144   2.429   0.338  0.0917  0.0872 -0.2555
 3154W        W 7218   3.354   0.027   1.407 -0.0555 -0.0696 -0.0445
 3155W        W 7219   7.675  10.441   2.746  0.0972 -0.1071  0.0560
 3156W        W 7220   9.036  10.286   8.982  0.0802  0.1917 -0.1843
 3157W        W 7221   0.991   6.760   2.134  0.1078 -0.1711  0.1786
 3158W        W 7222   1.575   5.768   2.341 -0.0497  0.3783  0.1694
 3159W        W 7223   8.174   8.524   2.819 -0.0546 -0.2125 -0.3965
 3160W        W 7224   1.521   5.245   0.515  0.0001  0.2074 -0.1292
 3161W        W 7225   3.404   9.551  10.539 -0.0239  0.0107 -0.0801
 3162W        W 7226   5.724   2.171   3.649 -0.1937  0.2557 -0.3111
 3163W        W 7227   1.142  10.326  10.934 -0.2165  0.0783 -0.2735
 3164W        W 7228   5.564   7.202   0.756 -0.3274  0.4880  0.5078
 3165W        W 7229   4.896   2.961   8.087  0.0940  0.2731  0.0248
 3166W        W 7230   3.200   8.532   3.342  0.1000 -0.1751  0.0670
 3167W        W 7231   3.346   5.902   1.126 -0.3697 -0.1360  0.3482
 3168W        W 7232   9.594   5.670   9.567 -0.0142  0.1356 -0.0276
 3169W        W 7233   9.044   9.108   8.184 -0.0771 -0.0882 -0.0041
 3170W        W 7234   2.765   4.343   2.652 -0.0084  0.0730 -0.1706
 3171W        W 7235   2.021   5.047  10.270 -0.0270  0.1469  0.0023
 3172W        W 7236   2.466   9.211  10.312  0.2107 -0.3286  0.1892
 3173W        W 7237   6.939   2.345   0.528 -0.3926  0.2010  0.0322
 3174W        W 7238   5.312   2.669   2.092  0.0601  0.1210 -0.2621
 3175W        W 7239   4.347   0.912  10.631  0.0763  0.3471 -0.2052
 3176W        W 7240   3.871   6.869   2.882 -0.1647  0.0415 -0.0384
 3177W        W 7241   2.901   4.842   3.125  0.0012  0.2137  0.5349
 3178W        W 7242   2.431   1.537   0.937  0.2146  0.2772 -0.1493
 3179W        W 7243   1.804   4.874   8.863 -0.0531  0.0442  0.4370
 3180W        W 7244   6.327  10.563   2.265 -0.0459 -0.3058  0.0248
 3181W        W 7245   8.677   4.424  10.727 -0.1286  0.2976 -0.2491
 3182W        W 7246   5.758   0.860   2.516  0.1080  0.3071 -0.2072
 3183W        W 7247   4.609  10.705   9.334 -0.1512 -0.3538  0.0276
 3184W        W 7248   9.074   8.692  10.352 -0.0071  0.0160 -0.0306
 3185W        W 7249   2.278   6.062   4.237 -0.1159 -0.1752  0.0436
 3186W        W 7250   8.266   8.620   8.103 -0.3056 -0.1669 -0.0646
 3187W        W 7251   0.346   3.221  11.240  0.0261 -0.1124  0.1849
 3188W        W 7252   4.981   2.030  11.175  0.0343  0.3320  0.0540
 3189W        W 7253   4.733   8.916   3.078 -0.2589 -0.3162  0.0497
 3190W        W 7254   9.496   2.265   3.575  0.2379 -0.0201  0.0546
 3191W        W 7255   7.966  10.197   9.474 -0.1869 -0.3906 -0.1036
 3192W        W 7256   6.448   9.795   1.300 -0.2078 -0.0028 -0.1388
 3193W        W 7257   8.981   3.894   0.544  0.2671 -0.2546  0.2901
 3194W        W 7258   2.280   6.977   9.137 -0.2503 -0.1127  0.0570
 3195W        W 7259   9.645  10.350   3.876  0.2698 -0.1451 -0.0674
 3196W        W 7260   7.602   6.893   2.093  0.0461 -0.1438  0.0512
 3197W        W 7261   3.723   5.272  10.247  0.1139 -0.2771 -0.0817
 3198W        W 7262   3.910   2.662   1.598  0.4167  0.1567  0.0964
 3199W        W 7263   7.063   0.306  10.192  0.0024  0.3091 -0.1300
 3200W        W 7264   4.844   6.782   1.202  0.1074  0.2342  0.0065
 3201W        W 7265   4.054   0.567   1.332 -0.0493 -0.1887 -0.2173
 3202W        W 7266   3.435   8.013   1.134  0.1856  0.0385 -0.1547
 3203W        W 7267   0.111   2.271   3.285  0.3314  0.1357  0.1873
 3204W        W 7268  10.282   8.926   3.544 -0.2026  0.1170 -0.0929
 3205W        W 7269   7.238   4.082   2.819  0.1937  0.0558  0.0626
 3206W        W 7270   2.768   9.241   3.909 -0.2241  0.0061  0.0539
 3207W        W 7271   6.224   2.597   8.468  0.4872  0.0585  0.1000
 3208W        W 7272   2.696   1.870   2.708  0.2271 -0.0100  0.1253
 3209W        W 7273   8.243   1.254  10.702 -0.2011  0.3571 -0.0428
 3210W        W 7274  10.379   7.639   1.093 -0.1591  0.0540 -0.0001
 3211W        W 7275   5.800   0.139   9.795  0.1245 -0.2558 -0.0440
 3212W        W 7276   5.774   3.542   9.473  0.3944  0.0754  0.1544
 3213W        W 7277   9.475  10.240   9.290  0.0453  0.1705  0.1323
 3214W        W 7278   8.658   3.766   2.321  0.2267  0.0382  0.1977
 3215W        W 7279   2.171   7.374   8.236  0.1076  0.0198  0.0600
 3216W        W 7280   2.082   3.217   0.799  0.0351 -0.1704 -0.0979
 3217W        W 7281   5.270   2.914   3.628  0.1522  0.1621  0.3069
 3218W        W 7282   2.411   6.953   2.321  0.0041 -0.4162 -0.0736
 3219W        W 7283   4.836   2.005   2.855  0.2574  0.0158  0.0025
 3220W        W 7284   8.034   2.051  10.552  0.4659  0.0443 -0.2214
 3221W        W 7285   8.508   7.751   8.302  0.1454 -0.0319  0.1563
 3222W        W 7286   0.347   5.823   0.542 -0.1112  0.0515 -0.2908
 3223W        W 7287  10.649   8.164   4.348  0.2292 -0.2302  0.0759
 3224W        W 7288   6.252   0.850   2.361 -0.0241 -0.0492  0.0471
 3225W        W 7289   5.165   9.820  11.308 -0.2927  0.1006 -0.1400
 3226W        W 7290   0.406  10.020   0.684 -0.0328  0.1806 -0.0539
 3227W        W 7291   5.499   8.863   8.756 -0.0940  0.0713  0.2299
 3228W        W 7292   8.735   5.441   0.174  0.1503  0.0677  0.1514
 3229W        W 7293   2.516   5.656   0.848  0.0634 -0.1417 -0.2280
 3230W        W 7294   7.615   0.703   0.971 -0.3641  0.0074 -0.2039
 3231W        W 7295   8.638   0.956   0.365  0.0497 -0.3575 -0.2335
 3232W        W 7296   1.182   3.061   1.943  0.3848 -0.0509  0.0853
 3233W        W 7297   6.249   5.741   3.432 -0.1240  0.1760 -0.2466
 3234W        W 7298   0.324   6.915   3.117  0.1604  0.1597 -0.0242
 3235W        W 7299   7.544   6.444   1.908 -0.0193 -0.0916 -0.1292
 3236W        W 7300   9.550   5.273   1.962  0.1130 -0.0583 -0.0428
 3237W        W 7301   9.739   6.199   0.144 -0.0447 -0.0587  0.0817
 3238W        W 7302   0.637   3.880   7.612 -0.1303  0.0216  0.1443
 3239W        W 7303   1.699   2.199   3.567 -0.2054  0.0420 -0.0102
 3240W        W 7304   8.829   3.500   9.252  0.1837  0.0759  0.1441
 3241W        W 7305   7.877   3.566   9.950  0.1535 -0.0277  0.3208
 3242W        W 7306   8.823   1.474   0.686  0.0701  0.0616 -0.0691
 3243W        W 7307   4.550   4.640   3.747 -0.0229 -0.2022  0.0748
 3244W        W 7308   7.084   3.216   0.797 -0.2692 -0.0327  0.2835
 3245W        W 7309   1.079   0.256   1.605  0.0789 -0.0964 -0.0374
 3246W        W 7310   6.005   3.328   4.040  0.0609  0.1489  0.0679
 3247W        W 7311   9.049   3.562  10.612 -0.3473 -0.2353  0.0433
 3248W        W 7312   0.278   2.429   9.345 -0.0536  0.2389 -0.0530
 3249W        W 7313   9.612   3.402   2.996 -0.2875  0.0778  0.2104
 3250W        W 7314   3.049   4.836   9.726  0.0345 -0.0083  0.1285
 3251W        W 7315   5.562  10.499  11.199 -0.0105  0.1566  0.2013
 3252W        W 7316  10.578   3.655   8.731 -0.2254 -0.1520 -0.0816
 3253W        W 7317   2.210   1.732   0.557  0.0525 -0.1949 -0.1889
 3254W        W 7318   1.573   9.761   9.247 -0.2116 -0.0848 -0.0890
 3255W        W 7319   7.756   3.371  10.871  0.0422  0.2230  0.1245
 3256W        W 7320   1.845   2.482   0.735 -0.0672 -0.0344 -0.1202
 3257W        W 7321   8.616   4.835  10.036  0.1071  0.0002 -0.0139
 3258W        W 7322   4.743   0.661   8.809 -0.0933  0.3441  0.2231
 3259W        W 7323   3.491   2.378   1.394  0.3304 -0.2269 -0.2478
 3260W        W 7324   6.832   2.771   0.835  0.2894 -0.0610 -0.2995
 3261W        W 7325   3.560   2.680   9.924  0.0559 -0.0421  0.0129
 3262W        W 7326   6.240   5.862   1.682 -0.0660  0.1358  0.1257
 3263W        W 7327   4.785   1.416   3.002  0.2329  0.1321  0.1335
 3264W        W 7328   5.194   6.096   8.382 -0.0420  0.0340  0.0613
 3265W        W 7329   7.663  10.631   1.895 -0.2619 -0.1157  0.4413
 3266W        W 7330   8.529   3.396   3.150  0.1697  0.0250 -0.0453
 3267W        W 7331   1.072   6.832   3.089  0.1404 -0.0109  0.0875
 3268W        W 7332   3.805   6.742   1.429 -0.0665  0.1891  0.2087
 3269W        W 7333   5.363   4.346   1.260  0.0391 -0.2331 -0.1556
 3270W        W 7334   5.203  10.305   4.103  0.1957 -0.0700  0.2461
 3271W        W 7335   8.103   4.481   0.103 -0.0561  0.0433 -0.0318
 3272W        W 7336   4.491   8.534  11.150 -0.1967 -0.0007  0.3370
 3273W        W 7337   8.906   4.447   1.528 -0.0106  0.1307 -0.0182
 3274W        W 7338   5.375   8.915   0.900 -0.0704  0.2740 -0.1576
 3275W        W 7339   2.541   1.246   1.476  0.0902 -0.1577 -0.0360
 3276W        W 7340   2.803   1.042   9.330  0.1114  0.3424 -0.1218
 3277W        W 7341   3.180   1.465   3.722  0.0425  0.1794 -0.0951
 3278W        W 7342   1.638  10.163   8.976  0.0317  0.1765 -0.0277
 3279W        W 7343   6.022   5.873   8.784  0.1128 -0.1637  0.0012
 3280W        W 7344   3.163   5.427   1.353 -0.2824 -0.1249 -0.0345
 3281W        W 7345   5.083   4.515   4.524 -0.3793  0.1500  0.1495
 3282W        W 7346   9.046   0.265  10.631 -0.0870  0.0795  0.1758
 3283W        W 7347   6.201   4.334   8.940  0.0090  0.1788  0.0774
 3284W        W 7348   5.289   7.086  10.143 -0.0593  0.0187  0.1804
 3285W        W 7349   1.268   0.922  10.089  0.2530  0.3135  0.0210
 3286W        W 7350   7.176   5.088   1.386 -0.1226  0.0404 -0.0803
 3287W        W 7351   3.383   8.555   1.105  0.0845  0.1654 -0.0510
 3288W        W 7352  10.686   8.845   1.173 -0.2500 -0.1583  0.2022
 3289W        W 7353   0.760  10.063   0.102 -0.2192 -0.1282 -0.1689
 3290W        W 7354   3.386   6.226   3.115  0.1000 -0.0586 -0.1162
 3291W        W 7355   3.774   6.251   7.899  0.2534  0.2073 -0.1333
 3292W        W 7356   8.211   3.473   2.760  0.1791 -0.0397 -0.0923
 3293W        W 7357   1.991   9.581  11.123 -0.2694  0.0607  0.0798
 3294W        W 7358   8.293   9.883   8.346  0.0623  0.1332 -0.0099
 3295W        W 7359   3.587   6.389   1.105  0.0689  0.3493  0.1587
 3296W        W 7360   5.449   1.754   3.502  0.2052  0.2355 -0.0538
 3297W        W 7361   3.276  10.054   9.986 -0.5375  0.1585 -0.1251
 3298W        W 7362   8.342   4.873   1.456 -0.1725 -0.0167  0.0712
 3299W        W 7363   6.173   8.521   0.262  0.0654 -0.1755 -0.1577
 3300W        W 7364   6.161  10.328   2.619 -0.2658  0.3295 -0.0128
 3301W        W 7365   1.661   9.406   7.499 -0.0539  0.1148  0.1451
 3302W        W 7366   5.712   3.860   2.053  0.2158 -0.0126  0.2578
 3303W        W 7367   4.424   1.022   2.982 -0.2617  0.0494  0.0835
 3304W        W 7368   8.671   5.468   1.442  0.0166  0.2276  0.0753
 3305W        W 7369   1.387   8.534   9.022  0.3425  0.2031  0.0292
 3306W        W 7370   8.842   7.900   9.177 -0.2302  0.3457  0.1380
 3307W        W 7371   8.838   8.323   1.173  0.0231  0.2892 -0.3342
 3308W        W 7372   4.390   9.389   1.731 -0.0080  0.1092 -0.0415
 3309W        W 7373   9.830   9.711  10.047  0.2549 -0.2088 -0.2933
 3310W        W 7374   5.135   9.216   9.113 -0.1289 -0.2214  0.2553
 3311W        W 7375  10.375   6.852   1.666 -0.3926 -0.1300 -0.2354
 3312W        W 7376   5.688   0.244  10.619 -0.2475  0.1733 -0.2551
 3313W        W 7377   4.941   2.979   9.926 -0.3409 -0.0246  0.1604
 3314W        W 7378   8.932   1.789   1.320  0.1025  0.2222  0.1694
 3315W        W 7379   8.899   4.403   8.808 -0.0821  0.0602 -0.2791
 3316W        W 7380   5.255   5.773   1.185  0.1162 -0.3078  0.0644
 3317W        W 7381   6.228  10.042   1.641 -0.4825  0.0116  0.0498
 3318W        W 7382   8.079  10.622  10.735  0.1840 -0.2492 -0.2963
 3319W        W 7383   0.035   8.400   8.478  0.0399  0.1235 -0.1147
 3320W        W 7384   6.481   8.850   2.835  0.2692 -0.1510  0.2199
 3321W        W 7385   0.109   7.010   1.853  0.0639  0.0905  0.3600
 3322W        W 7386   0.183   8.522   7.969  0.0039 -0.1633 -0.0611
 3323W        W 7387   0.153   8.948   2.389 -0.3116 -0.0391 -0.0274
 3324W        W 7388   5.014   5.315   3.170 -0.0748  0.0864  0.1792
 3325W        W 7389   9.306   8.592  10.814 -0.0710 -0.1757  0.1628
 3326W        W 7390   8.965   5.146  11.304  0.0889  0.0329 -0.2123
 3327W        W 7391   1.828   3.365  11.107 -0.3227 -0.0621 -0.2031
 3328W        W 7392   3.969   3.474  10.609 -0.1962 -0.0745  0.2851
 3329W        W 7393   5.969   0.637   2.000  0.2621  0.4758  0.0919
 3330W        W 7394   7.343   9.486   0.078 -0.1877  0.2420  0.0203
 3331W        W 7395  10.403   8.872   2.561 -0.0736  0.1888 -0.1283
 3332W        W 7396   9.941   0.239   2.235  0.1058 -0.1741 -0.1496
 3333W        W 7397   8.465   8.220   0.515 -0.2223 -0.0663 -0.2444
 3334W        W 7398   2.865   5.769  10.507  0.3120  0.2144  0.2404
 3335W        W 7399   6.458   6.296   7.174  0.0376  0.1279  0.0554
 3336W        W 7400   3.984   2.330   9.386 -0.2956  0.0262  0.0844
 3337W        W 7401  10.618   4.532   2.506 -0.2383 -0.3987 -0.0391
 3338W        W 7402   6.147   2.079   0.640  0.3388 -0.0075 -0.0713
 3339W        W 7403   2.594   3.893   1.051  0.0029  0.1800 -0.0067
 3340W        W 7404  10.716   5.481   2.490 -0.1184 -0.0432  0.2186
 3341W        W 7405   6.202   0.818   9.291 -0.3435  0.1191 -0.0011
 3342W        W 7406  10.516   2.430   2.473  0.1162  0.0511 -0.0726
 3343W        W 7407   4.890   5.893   9.571  0.1653  0.0261  0.0271
 3344W        W 7408   7.607   7.437   2.247 -0.0858 -0.0153 -0.0425
 3345W        W 7409   1.491   9.221   7.934 -0.0869 -0.2882  0.0723
 3346W        W 7410   1.025   8.360   0.943  0.0317 -0.2121  0.0645
 3347W        W 7411   3.951   4.264   9.096  0.0140  0.0370  0.2339
 3348W        W 7412   0.710   0.063   8.606 -0.0851  0.0995 -0.0263
 3349W        W 7413   4.551   6.801   2.707  0.1247 -0.5233 -0.4307
 3350W        W 7414   2.032   1.153   8.666 -0.1927  0.1496 -0.0070
 3351W        W 7415   0.246   7.626   3.656  0.4315  0.1749 -0.0012
 3352W        W 7416   1.152   4.142   0.582 -0.1297 -0.1222  0.0708
 3353W        W 7417   3.058   4.539   2.321  0.1176  0.0421 -0.0257
 3354W        W 7418  10.558   0.741   9.115 -0.2761  0.0039  0.1045
 3355W        W 7419   7.536  10.528   8.165  0.1499 -0.0703  0.0814
 3356W        W 7420   5.340   2.140   2.758  0.0859 -0.1967 -0.0970
 3357W        W 7421   8.768   7.349   2.473 -0.0784 -0.0321  0.2335
 3358W        W 7422   4.863   5.169   8.138 -0.0047 -0.1829 -0.2003
 3359W        W 7423   0.100   7.512   8.540 -0.1990 -0.0521  0.1790
 3360W        W 7424   9.170   3.530   0.257  0.0746  0.0716 -0.0175
 3361W        W 7425   5.471   6.033  10.024  0.1229 -0.3419 -0.1180
 3362W        W 7426   2.508   3.661   8.761 -0.0940 -0.2108  0.0272
 3363W        W 7427   6.516   6.752   9.680  0.0175  0.0462 -0.1478
 3364W        W 7428   3.489   9.164   7.221  0.0034  0.1580 -0.0176
 3365W        W 7429   2.157   1.868   9.965  0.0424 -0.1221 -0.3653
 3366W        W 7430   8.330  10.473   3.963 -0.2763 -0.2978 -0.0481
 3367W        W 7431   7.382   8.694   0.947 -0.1161  0.0516 -0.2174
 3368W        W 7432   9.316  10.584  10.607 -0.3653  0.3694 -0.0531
 3369W        W 7433   9.406   1.295   0.810 -0.1110  0.1834  0.0217
 3370W        W 7434   8.376   9.448   3.780  0.0461 -0.1183  0.1677
 3371W        W 7435   3.532   2.527   9.451  0.0511  0.1247 -0.0099
 3372W        W 7436   0.712   7.301   8.273  0.1912  0.0123 -0.0837
 3373W        W 7437   4.886   6.283  11.234  0.0966  0.2055 -0.1979
 3374W        W 7438   9.290   8.616   8.026 -0.0099 -0.1509 -0.2913
 3375W        W 7439   3.976   2.020  10.079 -0.0884  0.1144 -0.0601
 3376W        W 7440   8.055   5.898  10.962  0.1427  0.2101  0.1075
 3377W        W 7441   7.637   8.294   0.177 -0.0451  0.1699 -0.2048
 3378W        W 7442   0.888   0.445   1.043 -0.0551  0.0670  0.3730
 3379W        W 7443   4.050   0.018   9.468  0.2140 -0.1758  0.1721
 3380W        W 7444  10.594   3.172   0.070 -0.2193 -0.0854 -0.0226
 3381W        W 7445   8.331   6.021  10.533  0.0992  0.2723 -0.1317
 3382W        W 7446   2.502   4.921   1.464 -0.0075 -0.2478 -0.0753
 3383W        W 7447   7.799   6.466   9.705 -0.1447  0.0795 -0.3966
 3384W        W 7448   6.540   0.969  10.174 -0.3096  0.0773 -0.4376
 3385W        W 7449   4.423   2.621   3.053 -0.0566  0.3041  0.0482
 3386W        W 7450   3.391   7.887   1.657 -0.1749 -0.1522  0.0249
 3387W        W 7451   8.724   6.965   8.003  0.4550 -0.1175 -0.0731
 3388W        W 7452  10.291   8.992   9.976  0.1695  0.2810  0.1789
 3389W        W 7453   3.835   3.859   9.579 -0.3149  0.0096 -0.0607
 3390W        W 7454   8.985   4.202   1.068 -0.2056  0.0373 -0.2389
 3391W        W 7455   3.917   1.123   0.586 -0.2515 -0.2237 -0.0277
 3392W        W 7456   1.353   6.608   7.893  0.1302  0.0208 -0.1366
 3393W        W 7457   3.131   8.368   9.176 -0.6583  0.2158  0.2034
 3394W        W 7458   0.214   5.503   0.169  0.0034 -0.0707  0.0650
 3395W        W 7459   2.121   2.175   9.085  0.2755  0.1769 -0.1726
 3396W        W 7460   2.873   1.699   1.796 -0.2057  0.1975  0.1954
 3397W        W 7461   5.719   3.331   8.635 -0.0582  0.1728  0.1219
 3398W        W 7462   6.568   5.533   8.466  0.0617  0.0601 -0.1187
 3399W        W 7463   0.762   7.583   0.749  0.0844  0.0541 -0.1851
 3400W        W 7464   5.931   1.708   4.276  0.2557  0.2608 -0.1609
 3401W        W 7465   7.422   4.318  10.577 -0.0337 -0.0448  0.0829
 3402W        W 7466   2.018   0.055   0.818 -0.0314  0.0395  0.2633
 3403W        W 7467   2.195   4.744   7.629 -0.2419 -0.1927 -0.0093
 3404W        W 7468   5.979  10.240  10.242 -0.1964 -0.1834 -0.1453
 3405W        W 7469   9.495   5.731  10.547 -0.1356 -0.1917  0.3491
 3406W        W 7470   7.574   4.464   0.103  0.0640 -0.4757  0.1073
 3407W        W 7471   7.952  10.390  10.342 -0.1039 -0.3150  0.1668
 3408W        W 7472   0.491   9.153  11.165  0.1652  0.2655  0.3383
 3409W        W 7473   5.636   5.036   8.392  0.1712 -0.0046 -0.0426
 3410W        W 7474   6.504   9.270   3.052  0.1812  0.2025 -0.1179
 3411W        W 7475   0.686   6.197   7.452 -0.1607  0.0297 -0.2036
 3412W        W 7476   6.547   1.443   1.061  0.0344  0.3347  0.0839
 3413W        W 7477   4.161   9.667   9.665  0.2277  0.2877  0.2213
 3414W        W 7478   7.702   9.875   4.211 -0.1376 -0.1458  0.2408
 3415W        W 7479   0.473   6.381   8.903 -0.2474  0.0612  0.0692
 3416W        W 7480   8.538   9.197   9.342 -0.0353  0.0879  0.1999
 3417W        W 7481   8.180  10.022   8.897 -0.1022 -0.1071 -0.2920
 3418W        W 7482   4.994   9.176   1.027  0.0055  0.0068 -0.0104
 3419W        W 7483   7.026   7.916  10.372 -0.0298  0.2164  0.1216
 3420W        W 7484   5.217   2.293   9.198 -0.0120 -0.1171 -0.0968
 3421W        W 7485   6.392   6.204  10.499 -0.0431 -0.3153  0.5200
 3422W        W 7486   5.910   4.200   9.865 -0.0195  0.2362 -0.0246
 3423W        W 7487   3.667   9.699   0.960 -0.1173 -0.3763  0.1804
 3424W        W 7488   5.202   8.669   2.328  0.1539  0.0669  0.0948
 3425W        W 7489   9.511   6.594   2.113  0.0091  0.0787 -0.3919
 3426W        W 7490   6.829   6.830   0.254  0.1373 -0.0870  0.2069
 3427W        W 7491   2.147   7.757   3.726 -0.2181 -0.1757 -0.0926
 3428W        W 7492   5.098   9.915   2.400 -0.0102  0.0165 -0.1133
 3429W        W 7493   4.586   3.654  10.712 -0.1299  0.0537  0.0167
 3430W        W 7494   9.495   3.647  11.318 -0.0604 -0.2652 -0.0318
 3431W        W 7495   5.175   7.746  10.993 -0.0613  0.0038 -0.2645
 3432W        W 7496   2.098   3.408   2.442  0.0416  0.3538 -0.1398
 3433W        W 7497   2.387   9.531   1.086 -0.1008  0.2115 -0.0179
 3434W        W 7498   3.185   3.754   7.697  0.1276 -0.0021 -0.1014
 3435W        W 7499   3.011   1.301   3.184 -0.1152  0.0187  0.0672
 3436W        W 7500   7.917   4.629   2.922 -0.1431  0.2313 -0.2857
 3437W        W 7501   0.756  10.567   1.513  0.0933  0.1203  0.1899
 3438W        W 7502   6.794   6.461  10.550  0.0536 -0.0098 -0.1655
 3439W        W 7503   1.379   9.170   2.753  0.1958  0.3682  0.0429
 3440W        W 7504   3.565   3.083   1.900  0.1124 -0.1163 -0.2831
 3441W        W 7505   1.904   7.671   9.705 -0.1118  0.0158  0.1062
 3442W        W 7506   2.644   4.248   4.047 -0.0994 -0.0936 -0.1487
 3443W        W 7507   9.863   0.685  10.944 -0.0540  0.5022  0.0276
 3444W        W 7508   7.876   0.101   1.407 -0.1724 -0.3655  0.2637
 3445W        W 7509   2.122   2.960   3.833 -0.1373  0.2844 -0.2513
 3446W        W 7510   7.061   5.504   2.023 -0.2656 -0.0875  0.1702
 3447W        W 7511   2.091   6.918   7.972  0.1953  0.1096  0.2248
 3448W        W 7512   7.101   5.703  11.090  0.0146  0.2414 -0.1054
 3449W        W 7513   6.311   5.535   7.882 -0.1316 -0.1972  0.1705
 3450W        W 7514   6.043   6.912   3.126 -0.0004  0.2243  0.0830
 3451W        W 7515   6.747   2.199   8.150  0.0793 -0.2019 -0.2456
 3452W        W 7516   4.803   3.238   3.543 -0.3181  0.2146  0.2250
 3453W        W 7517  10.472   8.597   0.084 -0.1945 -0.1882 -0.1193
 3454W        W 7518   6.203   7.244  10.854  0.1003 -0.1280  0.1638
 3455W        W 7519   7.486   3.111  10.107 -0.0308  0.0904 -0.0619
 3456W        W 7520   2.291   3.431   0.376  0.2280 -0.2508  0.1093
 3457W        W 7521   9.587   5.293   0.674  0.0188  0.2358 -0.1906
 3458W        W 7522   1.916   3.252  10.177 -0.2696  0.0669 -0.3489
 3459W        W 7523   4.502   9.119   9.285  0.1572 -0.2180  0.0207
 3460W        W 7524   5.714   7.110   9.915 -0.0315  0.0558  0.0494
 3461W        W 7525   2.263   3.488  11.211  0.0290 -0.2269  0.1312
 3462W        W 7526   2.033   4.345  11.031 -0.0693  0.0779 -0.0727
 3463W        W 7527   4.349  10.420   3.955 -0.1832 -0.2541 -0.0320
 3464W        W 7528   1.763   7.384   2.507 -0.0899 -0.1137  0.4670
 3465W        W 7529   7.798   5.168  10.000  0.1403  0.0633  0.0250
 3466W        W 7530   9.031   1.201  10.401  0.3060  0.1340  0.0862
 3467W        W 7531   8.768   6.654  10.892 -0.3578 -0.1052  0.0025
 3468W        W 7532   6.122   4.623   3.103 -0.0647 -0.0380 -0.0208
 3469W        W 7533   7.222   2.405   2.068  0.2176  0.0588  0.0381
 3470W        W 7534   8.197   6.391   1.511  0.0979 -0.1044 -0.1820
 3471W        W 7535   3.549   7.487  11.138  0.1286  0.2541 -0.0216
 3472W        W 7536   6.351   0.247   1.362 -0.2033  0.0049 -0.0103
 3473W        W 7537   8.897   7.959   0.649  0.0813 -0.3333 -0.0823
 3474W        W 7538   2.791   9.397   2.950  0.1785  0.0562 -0.1069
 3475W        W 7539   8.253   1.734   3.859 -0.2314 -0.0480  0.1887
 3476W        W 7540   4.154   5.232  10.613  0.1305  0.1051  0.1272
 3477W        W 7541   7.886   8.476   8.372 -0.0978  0.4335 -0.1650
 3478W        W 7542   0.491   8.060   7.727 -0.0140 -0.0987 -0.0753
 3479W        W 7543  10.024   2.344   2.875  0.1664 -0.0764  0.3961
 3480W        W 7544   0.829   9.549   8.963 -0.0725  0.3967 -0.2061
 3481W        W 7545   4.195   7.047   2.460  0.2254  0.1591  0.0325
 3482W        W 7546   4.290   4.243   2.071 -0.3149 -0.1757  0.0479
 3483W        W 7547   0.587   5.368  10.717  0.0259  0.1058 -0.0074
 3484W        W 7548   2.234   2.946  10.475 -0.0013 -0.1175  0.1680
 3485W        W 7549   4.094   7.888   8.815  0.1566  0.2815 -0.2146
 3486W        W 7550   2.207   0.712   3.546  0.1582 -0.1044 -0.1832
 3487W        W 7551   0.753   5.116   9.171 -0.0814  0.2303 -0.0932
 3488W        W 7552   5.101   2.549  10.081 -0.0202  0.2072 -0.1242
 3489W        W 7553   0.485   2.661   3.161  0.0762  0.2118  0.0733
 3490W        W 7554   2.885   0.122   1.540 -0.1970  0.0057  0.0656
 3491W        W 7555   4.376   7.842   3.073 -0.2175 -0.2233 -0.1228
 3492W        W 7556   6.985   0.189  10.728 -0.1214 -0.0399  0.1720
 3493W        W 7557   2.330   9.367   8.362  0.5950  0.1769 -0.1618
 3494W        W 7558   2.500   3.826   1.596  0.7152 -0.2875 -0.3026
 3495W        W 7559   7.905   4.311  10.022 -0.1781 -0.1392 -0.3145
 3496W        W 7560   1.116   0.598   4.297  0.0946  0.0850 -0.1248
 3497W        W 7561   7.110   7.676   0.182  0.0094 -0.0569 -0.1600
 3498W        W 7562   8.709   9.903   7.984  0.0329  0.1148 -0.0040
 3499W        W 7563   7.789   6.591  10.795 -0.3700  0.0798 -0.0311
 3500W        W 7564   4.709   8.773   9.592  0.2026  0.0830  0.0827
 3501W        W 7565   5.837   8.262   2.109 -0.0331  0.0231  0.1397
 3502W        W 7566   3.839   8.466   8.277 -0.1668  0.0616  0.1830
 3503W        W 7567   0.949   0.858   9.684 -0.3871  0.1014 -0.1646
 3504W        W 7568   4.579   8.063   2.631 -0.0094 -0.3858  0.2487
 3505W        W 7569   0.199   2.426   8.534 -0.0205  0.2599 -0.3606
 3506W        W 7570   1.137   5.537   8.779 -0.3467  0.1322 -0.2182
 3507W        W 7571   5.407   2.464  10.598 -0.1677  0.0844 -0.1863
 3508W        W 7572   0.624   1.040   0.000  0.0523 -0.2204 -0.3224
 3509W        W 7573   9.114   2.221  10.666 -0.2123  0.5142  0.1265
 3510W        W 7574   8.383   1.490   9.786 -0.1510  0.4221  0.0370
 3511W        W 7575   5.233   7.281  11.329 -0.3802 -0.1934 -0.0832
 3512W        W 7576   6.623  10.033   9.696 -0.0533 -0.0345 -0.0843
 3513W        W 7577   7.568   4.597   2.122 -0.0495  0.0875  0.1500
 3514W        W 7578   7.583   3.531  10.363  0.4121 -0.3117 -0.0599
 3515W        W 7579   0.464  10.378  11.066 -0.2859  0.1089 -0.1157
 3516W        W 7580   8.223   7.721   0.024  0.0657  0.2192  0.0997
 3517W        W 7581  10.550   8.594  10.490 -0.0918  0.0212 -0.2470
 3518W        W 7582   8.189   2.416  10.231  0.5818 -0.1386 -0.0795
 3519W        W 7583   4.543   9.375   2.788  0.1459 -0.2199  0.1208
 3520W        W 7584   4.512  10.400   0.843 -0.2595 -0.1117 -0.0397
 3521W        W 7585   6.440   2.462   4.165  0.0927  0.0623  0.1753
 3522W        W 7586   4.025   7.550   2.124  0.1631  0.1649 -0.2029
 3523W        W 7587   1.979   7.089   3.351 -0.0657 -0.1059  0.0546
 3524W        W 7588   2.352   0.594   9.363  0.0432 -0.1338  0.0617
 3525W        W 7589   5.099   8.570   8.264 -0.1679 -0.1913 -0.0502
 3526W        W 7590   2.052   9.668  10.173 -0.0589 -0.0852 -0.0049
 3527W        W 7591   6.001   1.467   9.724  0.2880  0.1979  0.0700
 3528W        W 7592   8.975   8.278  10.994  0.2887  0.1029  0.0911
 3529W        W 7593   4.334   3.269  10.328 -0.0722 -0.0954 -0.0708
 3530W        W 7594   2.946   6.369   8.577 -0.1223  0.2051  0.0682
 3531W        W 7595   8.016   3.314   1.133  0.2607  0.1143  0.0760
 3532W        W 7596   9.928   3.658   0.161  0.0074  0.0190  0.1003
 3533W        W 7597   9.694  10.335   0.137 -0.2369 -0.1530  0.1856
 3534W        W 7598   9.149   5.366   1.561  0.2512 -0.1794 -0.0333
 3535W        W 7599   0.242   7.988   9.474  0.0208  0.1296  0.3057
 3536W        W 7600   9.046   3.902   9.609 -0.2178 -0.1126 -0.0092
 3537W        W 7601   6.659   9.893   1.798  0.3236 -0.0469  0.2941
 3538W        W 7602   3.200   1.926   8.727 -0.1595 -0.0530 -0.3068
 3539W        W 7603   4.047  10.223   2.324  0.2042  0.2516  0.0260
 3540W        W 7604   9.635   2.245   9.439  0.0718  0.0786  0.3159
 3541W        W 7605   6.294   7.798   0.103 -0.1228  0.1492 -0.1670
 3542W        W 7606   2.000   1.012   2.833  0.0660  0.0766 -0.0169
 3543W        W 7607   7.764   7.797   3.153  0.1748 -0.1967 -0.1049
 3544W        W 7608   3.857   8.723  10.812  0.0270  0.1728  0.2915
 3545W        W 7609   2.293   8.622  11.007 -0.0379  0.1200 -0.0834
 3546W        W 7610   3.931   8.041   7.916  0.0177 -0.1079  0.0978
 3547W        W 7611   9.087   5.882   1.493 -0.2579 -0.1244 -0.1664
 3548W        W 7612   2.692  10.706   2.812 -0.1909  0.0305 -0.0342
 3549W        W 7613   3.870   6.240   2.990 -0.0073  0.2048  0.2341
 3550W        W 7614   2.491   7.831   9.674  0.1280 -0.0670 -0.0088
 3551W        W 7615   4.865   1.042   9.169 -0.0562  0.0404 -0.0510
 3552W        W 7616   0.188   1.210  11.088 -0.4916  0.1355 -0.1249
 3553W        W 7617   7.119   1.839   8.231 -0.1993 -0.2235 -0.0923
 3554W        W 7618   7.794   1.137   1.542 -0.5036  0.0429  0.1706
 3555W        W 7619   5.425   2.334  11.132 -0.1688 -0.0308  0.3092
 3556W        W 7620   3.576  10.282   2.272 -0.0981 -0.2522 -0.1970
 3557W        W 7621   8.565   5.220   0.570  0.2920 -0.1047  0.0350
 3558W        W 7622   0.809   3.165   2.807 -0.2129 -0.1029  0.0002
 3559W        W 7623   0.507   6.221   0.222  0.1809 -0.2999  0.1417
 3560W        W 7624   8.608   0.713   9.006  0.2867 -0.1593 -0.3843
 3561W        W 7625  10.669   3.118   1.751  0.2139  0.1558 -0.3060
 3562W        W 7626   8.401   9.755   1.937 -0.0956 -0.1634 -0.2164
 3563W        W 7627   3.560   1.544   9.224 -0.3506 -0.0717 -0.1749
 3564W        W 7628   7.453   5.508   0.625  0.1460  0.0140 -0.0861
 3565W        W 7629  10.630   2.871  11.063  0.0210 -0.1447 -0.0661
 3566W        W 7630   1.776   2.948   0.541  0.1721 -0.0444  0.2355
 3567W        W 7631   8.681   7.474   7.911 -0.0493 -0.1067 -0.2165
 3568W        W 7632   0.918   1.888   8.719 -0.0969 -0.0047 -0.0366
 3569W        W 7633   9.898   0.198   9.496 -0.2301 -0.2565 -0.1299
 3570W        W 7634   3.920   0.556  10.319  0.1939 -0.0212 -0.3115
 3571W        W 7635   2.536   5.245   7.446 -0.4260 -0.0111  0.2761
 3572W        W 7636   7.694   7.330  10.382 -0.0128  0.2000 -0.0581
 3573W        W 7637  10.270   2.917   1.560 -0.0936 -0.0759 -0.1291
 3574W        W 7638   1.136   1.013   2.122 -0.3262 -0.2471  0.0801
 3575W        W 7639   1.778   7.683   7.682 -0.0653  0.3229  0.0987
 3576W        W 7640   9.734  10.138   2.526 -0.1412  0.1501  0.2576
 3577W        W 7641   7.333   5.189   2.405  0.0632 -0.1867  0.0695
 3578W        W 7642   2.371   0.689   2.497  0.3154  0.1385 -0.2662
 3579W        W 7643   0.497   4.192   8.905  0.2635  0.0391  0.1194
 3580W        W 7644  10.319   9.759   0.905  0.2694  0.2715  0.2688
 3581W        W 7645   0.428   8.000   1.532 -0.2445  0.0663  0.0214
 3582W        W 7646   0.743   2.748   2.655  0.1470 -0.1506  0.1624
 3583W        W 7647   2.823   4.117   7.903  0.0208  0.0739  0.3076
 3584W        W 7648   4.572   5.529   7.951  0.1853  0.1207  0.2828
 3585W        W 7649   9.548   2.457  10.238  0.0899 -0.0420  0.0959
 3586W        W 7650   6.943   9.714   3.845 -0.1125 -0.4103 -0.0576
 3587W        W 7651   5.782   1.476   8.855 -0.2362 -0.1066 -0.1317
 3588W        W 7652   2.750   7.296   2.223 -0.1031  0.1741  0.0129
 3589W        W 7653   5.873   3.279   9.890  0.0911  0.1362  0.2773
 3590W        W 7654   7.477   3.442   1.056 -0.0367 -0.0248  0.0437
 3591W        W 7655   5.997   3.843   0.625  0.0542  0.1841 -0.0673
 3592W        W 7656   4.068  10.668   4.429 -0.2285  0.1593  0.3226
 3593W        W 7657   0.291   8.636   3.196  0.2560  0.0067 -0.1624
 3594W        W 7658   2.984   1.733   0.826 -0.1744  0.2993  0.3827
 3595W        W 7659   3.169   9.883   3.236 -0.2943  0.1215  0.2354
 3596W        W 7660   8.216   2.420  11.203  0.1858  0.2874 -0.0060
 3597W        W 7661   0.981   6.889  10.900 -0.2463  0.0426  0.2040
 3598W        W 7662  10.684   9.376   1.091  0.0185 -0.0740 -0.1101
 3599W        W 7663   0.554   3.772   2.520 -0.0412  0.1724  0.2093
 3600W        W 7664   0.494   6.836  10.420 -0.2252  0.4227 -0.3193
 3601W        W 7665   0.276   3.466   0.754 -0.1385 -0.1098 -0.2897
 3602W        W 7666   3.485   2.859   9.100 -0.1562  0.1275 -0.0054
 3603W        W 7667   1.137   1.845  10.139  0.1040  0.2619 -0.1463
 3604W        W 7668   4.939   9.662   9.861  0.0676 -0.0089  0.1947
 3605W        W 7669   2.489   9.835   0.690  0.0151 -0.0186  0.2538
 3606W        W 7670   2.811  10.356   2.481  0.2925 -0.1609  0.1359
 3607W        W 7671   5.804   8.822   7.735  0.0504 -0.0421  0.1195
 3608W        W 7672   5.301   0.024   2.852 -0.2920 -0.0644  0.1368
 3609W        W 7673   2.621  10.652   8.113  0.0534  0.0059  0.1720
 3610W        W 7674   8.448   4.794   2.244 -0.3846 -0.0647 -0.0473
 3611W        W 7675   2.894  10.256   0.909 -0.1686  0.0906  0.0731
 3612W        W 7676   3.062   5.651   9.690  0.0102  0.1221 -0.0986
 3613W        W 7677   6.454   5.686  10.482 -0.0259  0.2345  0.0015
 3614W        W 7678   0.928   9.756   0.536 -0.2603  0.5214  0.1852
 3615W        W 7679   0.434   0.877  10.839  0.0491  0.1168  0.1759
 3616W        W 7680   2.278   9.035   1.313 -0.2063 -0.3241  0.1829
 3617W        W 7681  10.063   7.692   0.674  0.0971 -0.5210 -0.0060
 3618W        W 7682   6.058   8.167  11.237  0.2112 -0.2119  0.2139
 3619W        W 7683   5.415   5.749  11.399  0.0346  0.0199 -0.3330
 3620W        W 7684   3.156   6.528   9.523 -0.1657 -0.0265 -0.3134
 3621W        W 7685   9.107   0.174   8.309 -0.1111  0.0844 -0.1081
 3622W        W 7686   8.879   3.662   1.406 -0.4535  0.3907 -0.0164
 3623W        W 7687   6.417   3.114   9.054 -0.2890 -0.1720 -0.0723
 3624W        W 7688   3.286   8.089   8.783 -0.0226 -0.0005  0.1371
 3625W        W 7689   7.185   6.413   1.593  0.4512 -0.0875  0.1785
 3626W        W 7690   0.711   2.786   9.437  0.2760 -0.0771 -0.0259
 3627W        W 7691   6.659   0.924   0.447 -0.2174 -0.1584 -0.0479
 3628W        W 7692   4.304   9.706   2.512  0.0114 -0.0940  0.3506
 3629W        W 7693   4.537   6.792   7.726 -0.1029 -0.0862  0.2029
 3630W        W 7694   4.761   4.687  10.887  0.0533  0.0429  0.0943
 3631W        W 7695   7.975   3.865  10.313 -0.2454  0.1466 -0.2558
 3632W        W 7696   4.588   9.962   9.606  0.0715 -0.3058 -0.1215
 3633W        W 7697   9.237   9.219  11.098 -0.1489 -0.0350 -0.2556
 3634W        W 7698   5.901   2.912   3.138 -0.1818  0.0769 -0.0598
 3635W        W 7699   3.875   6.808   9.790 -0.0126  0.0968  0.1789
 3636W        W 7700  10.490   0.046   1.433 -0.1276  0.0277 -0.0368
 3637W        W 7701   2.876   6.665   7.546  0.1497  0.1559  0.3196
 3638W        W 7702   6.189   0.341  10.609  0.0561 -0.2287 -0.0468
 3639W        W 7703   6.399   7.442   2.666  0.0551  0.0199 -0.0390
 3640W        W 7704   5.366  10.450   8.843  0.2609 -0.0820 -0.0916
 3641W        W 7705   2.623  10.534  10.420  0.2251 -0.2637  0.2029
 3642W        W 7706   6.189   8.711   9.805  0.1246 -0.4458  0.0074
 3643W        W 7707   1.805   6.283   4.050 -0.0953 -0.0289  0.0062
 3644W        W 7708   1.584   7.410  10.971  0.1841  0.2404 -0.0334
 3645W        W 7709   2.663   0.506   8.995 -0.0009 -0.0367 -0.0221
 3646W        W 7710   5.169   1.232  10.057  0.0885 -0.2276 -0.1001
 3647W        W 7711   4.697   2.510   0.559 -0.4757 -0.1730  0.0475
 3648W        W 7712   4.756   9.474   8.301 -0.2561 -0.1025  0.0647
 3649W        W 7713   7.701   0.987  10.051  0.0722  0.4370  0.2027
 3650W        W 7714   2.749   4.039   2.110  0.2309  0.1234 -0.2124
 3651W        W 7715   6.560   6.489   8.663 -0.0527 -0.1404  0.1883
 3652W        W 7716   1.941  10.165  10.105  0.1995 -0.3625 -0.0769
 3653W        W 7717   5.748   3.232   9.090  0.0412  0.2776 -0.0344
 3654W        W 7718   2.037   0.441   7.679 -0.0228 -0.0594  0.0190
 3655W        W 7719   7.473   5.884   2.856 -0.0577 -0.0692 -0.1763
 3656W        W 7720   4.507   7.399  10.613  0.2430  0.0369 -0.1758
 3657W        W 7721   1.541   1.190   0.223  0.2061  0.1278 -0.0312
 3658W        W 7722   2.146   0.354   2.154 -0.1187  0.2004 -0.1952
 3659W        W 7723   3.620   7.603   1.313 -0.2650  0.0595  0.0864
 3660W        W 7724   5.859   5.734   0.286  0.0264  0.1454  0.1970
 3661W        W 7725   2.858   1.233   0.829  0.3192  0.0302  0.0263
 3662W        W 7726   7.161   7.429   1.882  0.0244 -0.1532  0.0825
 3663W        W 7727   7.001   2.912   2.109 -0.3218  0.1321 -0.0034
 3664W        W 7728   0.750   3.177  11.007  0.0077 -0.3114  0.1185
 3665W        W 7729   2.634   3.509   2.626 -0.2273  0.1050  0.1888
 3666W        W 7730   8.000   7.632   1.471 -0.0431 -0.1189 -0.1174
 3667W        W 7731   0.645   0.475  10.653  0.0426 -0.1682  0.1390
 3668W        W 7732   1.507  10.404   2.246  0.1123 -0.0390  0.1342
 3669W        W 7733   1.540   6.813   3.365 -0.2059 -0.3736 -0.1495
 3670W        W 7734   4.373   5.005   1.490 -0.4200  0.1643  0.0149
 3671W        W 7735   2.586   1.117   2.704  0.2706 -0.0653 -0.2923
 3672W        W 7736   6.971  10.467  10.347  0.0946  0.0392 -0.2017
 3673W        W 7737   3.679   8.319   0.785  0.2035  0.1330  0.2599
 3674W        W 7738   1.160  10.615   3.161 -0.0276  0.0885 -0.1996
 3675W        W 7739   9.619   1.881   8.013 -0.2922 -0.0490 -0.1618
 3676W        W 7740   6.147   7.772   1.429  0.2679 -0.0787  0.1111
 3677W        W 7741   2.390   1.786   1.433  0.3364 -0.1186  0.1036
 3678W        W 7742   1.082   4.722  10.164 -0.3395 -0.0119  0.0476
 3679W        W 7743   6.133  10.291   9.651  0.1105  0.1402  0.1515
 3680W        W 7744   0.025   0.236   0.961  0.2736 -0.0901  0.3040
 3681W        W 7745   9.802   4.092   9.070 -0.1926  0.0231 -0.0735
 3682W        W 7746   5.629   6.818   2.776 -0.1196 -0.1378 -0.2054
 3683W        W 7747   9.088   0.907   1.709  0.0580 -0.2410  0.1498
 3684W        W 7748   4.252   7.073   0.470  0.1145 -0.1262  0.1263
 3685W        W 7749   0.206   6.382   3.004 -0.1782 -0.2419  0.3983
 3686W        W 7750   0.152   2.102   9.847  0.1495  0.2305 -0.1044
 3687W        W 7751   5.718   8.474  10.507 -0.1686  0.1076 -0.3716
 3688W        W 7752   1.159   0.109   8.320  0.3738  0.4125 -0.0493
 3689W        W 7753   2.420   7.312  10.409  0.2924  0.2423 -0.1900
 3690W        W 7754   3.841   8.854   9.573  0.0547  0.0747  0.1111
 3691W        W 7755   1.776   2.177  10.669 -0.1241 -0.0742 -0.2045
 3692W        W 7756   3.189   7.146   9.238 -0.0291 -0.3213  0.0639
 3693W        W 7757   0.415   6.351   2.486  0.0159 -0.1042 -0.1220
 3694W        W 7758   5.582   5.331   0.532  0.0797  0.0827  0.0859
 3695W        W 7759   3.500   0.071   9.909 -0.1522  0.3615  0.2768
 3696W        W 7760   5.370   6.741   2.313 -0.0263 -0.1844 -0.0016
 3697W        W 7761   0.461   7.096   9.352  0.0121  0.5649 -0.0531
 3698W        W 7762   8.058  10.681   7.790 -0.0284  0.2216 -0.2026
 3699W        W 7763   4.899   8.349   9.850  0.1092 -0.0065  0.1220
 3700W        W 7764   2.607   5.446   2.688  0.2675  0.0026 -0.2423
 3701W        W 7765   3.773   0.145  10.734 -0.0506 -0.4388 -0.0184
 3702W        W 7766   3.429   6.911   9.732 -0.0237  0.0625  0.1806
 3703W        W 7767   0.458   8.927   2.011  0.2507  0.0102 -0.0978
 3704W        W 7768   2.125   1.576   2.765  0.1617 -0.0381 -0.2202
 3705W        W 7769   4.779   8.937   8.030  0.0583  0.0966  0.3774
 3706W        W 7770   1.668   1.605   7.616 -0.2478 -0.2102 -0.2757
 3707W        W 7771   1.767   0.266   8.855  0.0895  0.1960 -0.0358
 3708W        W 7772   8.498   1.525   0.328  0.0599  0.1134  0.1258
 3709W        W 7773   2.972  10.251   1.471  0.2613 -0.2302  0.1873
 3710W        W 7774   9.079   4.405   0.331 -0.0480 -0.1534  0.0403
 3711W        W 7775   0.688   8.225  11.094  0.2065  0.4016 -0.1078
 3712W        W 7776   2.793   0.268   0.260  0.3092 -0.0428 -0.0140
 3713W        W 7777   1.659   1.650  10.888 -0.0420  0.0171 -0.0505
 3714W        W 7778   4.710  10.657   1.345 -0.1102  0.1688  0.1043
 3715W        W 7779   5.411   3.277   3.272  0.1063  0.1822  0.3832
 3716W        W 7780   8.560   2.355   0.777 -0.0412  0.0039 -0.0317
 3717W        W 7781   6.113   2.059  11.057 -0.1931 -0.5261  0.5124
 3718W        W 7782   0.660   6.384  10.228  0.1214  0.2151 -0.2321
 3719W        W 7783   8.875   7.808   1.168  0.0212 -0.0859 -0.1650
 3720W        W 7784   1.910   9.622   1.283 -0.0339  0.0307  0.1138
 3721W        W 7785   9.695   0.906   0.644  0.2521 -0.1444  0.0269
 3722W        W 7786   3.566  10.487  10.337  0.0145  0.1685 -0.1651
 3723W        W 7787   6.487   8.723   1.533 -0.0228 -0.1233  0.1460
 3724W        W 7788   0.104  10.343   9.724  0.0183 -0.2473  0.0690
 3725W        W 7789   1.778   5.418   1.576  0.2102  0.1388 -0.3903
 3726W        W 7790   7.732   5.612   9.718  0.0404  0.0469  0.2209
 3727W        W 7791   7.368   6.137  10.887 -0.1862 -0.0264  0.1165
 3728W        W 7792   8.734   2.057   2.138 -0.1746  0.1742  0.0049
 3729W        W 7793   2.263   0.651   3.010  0.0422  0.1643 -0.0661
 3730W        W 7794   8.780   4.157   1.967 -0.1267  0.0451 -0.0292
 3731W        W 7795   6.543   3.574   9.413 -0.1327  0.2150  0.0521
 3732W        W 7796   6.651   3.969   9.131  0.0798 -0.3070  0.0805
 3733W        W 7797  10.662   7.562   9.598 -0.0934 -0.2397  0.3921
 3734W        W 7798   1.419   2.554  10.724  0.0231  0.0665  0.0076
 3735W        W 7799   1.644   8.268   2.762  0.0376 -0.1124  0.0492
 3736W        W 7800   6.559   9.387   0.953 -0.2370 -0.0610  0.3790
 3737W        W 7801  10.413   9.034  10.688  0.2147 -0.1181  0.1620
 3738W        W 7802   9.339   1.991   8.632 -0.0162 -0.0439  0.1351
 3739W        W 7803   3.408   3.123  10.158  0.1574 -0.1709 -0.1163
 3740W        W 7804   7.746   7.742   0.182 -0.3297  0.2305 -0.3560
 3741W        W 7805   6.490   5.973   0.949 -0.0945  0.4295 -0.0233
 3742W        W 7806  10.383   2.164   1.122  0.0379  0.0502  0.3266
 3743W        W 7807   5.567   3.681   9.006 -0.0958  0.1960  0.0443
 3744W        W 7808   7.461   5.202   8.624  0.0515 -0.4521  0.3610
 3745W        W 7809   7.411  10.135  11.155 -0.1325 -0.0023 -0.2539
 3746W        W 7810   4.813   6.763   3.148 -0.0441 -0.2132  0.1186
 3747W        W 7811   1.101   5.759   2.230  0.1292  0.2137 -0.5627
 3748W        W 7812   2.675   3.166  11.198  0.4240 -0.3393 -0.0256
 3749W        W 7813   7.740   3.811   1.294 -0.0632  0.4280 -0.0932
 3750W        W 7814   0.286   7.849  10.822 -0.2913  0.1809  0.2174
 3751W        W 7815   4.413   7.902  10.548 -0.1124  0.0357  0.5758
 3752W        W 7816   6.459   9.148   9.684  0.1969  0.2647 -0.0896
 3753W        W 7817   8.057   4.704   1.878  0.2047  0.1486  0.0080
 3754W        W 7818   2.942   1.190   1.799 -0.2948  0.0358  0.1403
 3755W        W 7819   1.299   1.383   3.684  0.0377 -0.0630  0.3575
 3756W        W 7820   4.980   7.233   2.356 -0.0117  0.2012 -0.1561
 3757W        W 7821   1.966   4.287  10.120  0.0438  0.1014 -0.1396
 3758W        W 7822   5.360   8.370   9.531  0.1836  0.1749 -0.0251
 3759W        W 7823   8.212   6.872  11.043  0.0698  0.2335  0.1966
 3760W        W 7824   5.057   4.366  10.632 -0.1911 -0.1022  0.1912
 3761W        W 7825   8.335   4.782   0.482 -0.2323 -0.0494 -0.2379
 3762W        W 7826  10.182   6.742   9.512  0.0152  0.0329 -0.2630
 3763W        W 7827   9.787   3.127   9.789 -0.2564 -0.1706 -0.1465
 3764W        W 7828   3.075   9.606   7.198  0.1555 -0.4052  0.2872
 3765W        W 7829   4.855   0.229   8.546  0.4294 -0.1352  0.2128
 3766W        W 7830   9.868   9.451   9.487 -0.0808 -0.0114  0.0839
 3767W        W 7831   9.640   5.326   2.632 -0.2592  0.0078 -0.0845
 3768W        W 7832   7.069   3.244   1.327  0.1033  0.3856 -0.1081
 3769W        W 7833   6.209   2.584   1.812 -0.1761 -0.0528 -0.5021
 3770W        W 7834   1.242   1.842   3.388 -0.2058  0.1049 -0.0623
 3771W        W 7835   7.653   5.914  11.328  0.0629 -0.1767 -0.0107
 3772W        W 7836  10.581   2.127  10.893  0.2078 -0.1515 -0.3357
 3773W        W 7837   1.099   3.823   1.196 -0.1050 -0.2496 -0.1530
 3774W        W 7838   6.032   0.668  10.957  0.3270  0.0334  0.1212
 3775W        W 7839   3.105  10.700   0.518  0.1644 -0.0734 -0.1509
 3776W        W 7840   5.297   3.623   2.860  0.2552 -0.1914 -0.1008
 3777W        W 7841   2.855  10.158   4.107 -0.0042  0.1418  0.2017
 3778W        W 7842   0.661   5.967   2.294  0.1058  0.0705 -0.0346
 3779W        W 7843   2.049   4.125   9.657 -0.1536 -0.0407 -0.2589
 3780W        W 7844   1.256   9.388   9.385  0.2491  0.3425  0.0232
 3781W        W 7845   6.712   2.186   1.373 -0.2922 -0.1596  0.0631
 3782W        W 7846   5.640  10.092   2.523  0.1705 -0.2752  0.2086
 3783W        W 7847   5.105   9.464   2.637  0.1286 -0.2606  0.0099
 3784W        W 7848   0.882   0.654   3.858  0.0022 -0.2573  0.2644
 3785W        W 7849   2.651   7.964   0.697  0.0441 -0.2775 -0.0415
 3786W        W 7850   7.019   6.284   8.079  0.2825 -0.0025  0.1320
 3787W        W 7851   7.585  10.199   2.330  0.1980  0.0303 -0.0936
 3788W        W 7852  10.677   1.716  11.177 -0.0900  0.2477  0.2315
 3789W        W 7853   9.894   7.530   8.881 -0.0864 -0.2224  0.3323
 3790W        W 7854   6.797   1.736   4.321 -0.0840 -0.1521 -0.1109
 3791W        W 7855   2.444   1.585  10.491 -0.0856 -0.0002  0.1212
 3792W        W 7856   6.297   8.205   2.266 -0.1426  0.0798 -0.0187
 3793W        W 7857   5.372   8.166   2.890  0.0193  0.2751 -0.1922
 3794W        W 7858  10.050  10.531   9.775  0.2308 -0.0150 -0.0088
 3795W        W 7859   1.725   7.220   8.005  0.2087 -0.2470  0.1273
 3796W        W 7860   3.869   9.877   8.723 -0.2464 -0.0871 -0.2079
 3797W        W 7861   8.730   8.185   2.063  0.3073 -0.3858  0.0798
 3798W        W 7862   8.223   2.586   8.991 -0.1480 -0.1421  0.0049
 3799W        W 7863   1.524   0.453   1.439  0.1681 -0.1033 -0.0206
 3800W        W 7864   9.095   8.225  10.488 -0.2318  0.0120 -0.0991
 3801W        W 7865   9.656   7.144   2.644 -0.0207 -0.1064  0.2268
 3802W        W 7866   7.895   7.978   9.534 -0.1843  0.1755  0.1115
 3803W        W 7867  10.427   0.963   2.638  0.5177 -0.0006  0.0411
 3804W        W 7868   0.079   6.116   3.420 -0.0283 -0.1224  0.2180
 3805W        W 7869   8.452   7.729   8.802  0.0378 -0.1298 -0.0531
 3806W        W 7870   1.652   9.677  10.512 -0.1348 -0.0883  0.2250
 3807W        W 7871   2.813   6.962  11.406  0.0773  0.1391 -0.2923
 3808W        W 7872  10.322   9.322   8.554 -0.1585  0.0799 -0.1611
 3809W        W 7873   1.310   0.811   1.001 -0.1942  0.2502  0.2223
 3810W        W 7874   7.879   1.401   3.810 -0.0327 -0.2315 -0.2304
 3811W        W 7875   5.225  10.638  10.692  0.1389 -0.0806 -0.0968
 3812W        W 7876   0.494   7.255  10.729  0.0002 -0.0446  0.1402
 3813W        W 7877   2.966   6.175  10.047  0.0876 -0.2664 -0.0643
 3814W        W 7878   0.508   5.091   1.095 -0.1474 -0.2030 -0.0213
 3815W        W 7879   9.824   9.737   2.170 -0.0597 -0.2817  0.0889
 3816W        W 7880   6.247   0.091   9.589 -0.3332 -0.1779 -0.1821
 3817W        W 7881   2.078   4.709   9.857  0.0734 -0.0310 -0.0236
 3818W        W 7882   1.648   1.148   3.420 -0.0440 -0.3217 -0.3949
 3819W        W 7883   6.876   1.618   3.872 -0.2530 -0.0889  0.3079
 3820W        W 7884   1.645   8.943   0.909  0.1599 -0.1370 -0.1370
 3821W        W 7885   6.904   9.797   0.071 -0.0524  0.0453  0.2390
 3822W        W 7886  10.192   4.498   9.481 -0.0558 -0.0987  0.0782
 3823W        W 7887   3.099   8.317   9.833 -0.1133 -0.1530  0.3892
 3824W        W 7888   3.680   8.435   7.791 -0.1891 -0.2175 -0.0150
 3825W        W 7889   4.993  10.245   2.039  0.2176 -0.4125  0.3069
 3826W        W 7890   9.191   2.231   1.764 -0.2611  0.1087 -0.1432
 3827W        W 7891   2.503   3.217  10.167  0.1774 -0.0077  0.4173
 3828W        W 7892   9.862   7.170  11.310  0.0788 -0.0317 -0.0488
 3829W        W 7893   9.836   9.009   2.507 -0.3366  0.2277 -0.1740
 3830W        W 7894   7.091  10.306   0.105  0.0718  0.1336  0.0758
 3831W        W 7895   5.876   3.727   2.792 -0.0129 -0.0360  0.0355
 3832W        W 7896   8.072   1.281   2.116 -0.1705  0.1861  0.0071
 3833W        W 7897   6.490   5.441   1.903  0.0834  0.0368 -0.0727
 3834W        W 7898   2.006   5.267   3.317  0.1551 -0.1046 -0.1490
 3835W        W 7899   2.999   5.622   0.802 -0.2274  0.0549 -0.3699
 3836W        W 7900   1.256   7.562   1.466  0.0544  0.0183 -0.2577
 3837W        W 7901   3.584  10.273   2.958 -0.2580 -0.0511  0.2332
 3838W        W 7902   6.898   4.557   0.863 -0.2992 -0.0758 -0.2316
 3839W        W 7903   5.562   4.558  10.576  0.0070  0.1367 -0.0358
 3840W        W 7904   6.088   0.341   0.937 -0.0179 -0.2267 -0.1390
 3841W        W 7905   8.452   4.436   1.712 -0.0112 -0.0540  0.0212
 3842W        W 7906   0.781   3.326   0.508  0.1108  0.0555  0.1621
 3843W        W 7907   6.329   1.393  10.414 -0.2207  0.2375 -0.3394
 3844W        W 7908   9.984   8.481   3.188 -0.2748  0.0532  0.2220
 3845W        W 7909   8.065   0.914   0.764 -0.1448  0.1170  0.2414
 3846W        W 7910   5.105   8.221   2.446  0.1990 -0.0862 -0.3191
 3847W        W 7911   7.797   8.044  10.022 -0.1304  0.0419  0.0988
 3848W        W 7912   5.333   1.759   8.774  0.3210  0.1545  0.4364
 3849W        W 7913   3.097  10.519   8.070  0.0954  0.1216 -0.0403
 3850W        W 7914   5.592   2.653   9.117  0.3741 -0.1810  0.2399
 3851W        W 7915  10.427   7.682   8.214 -0.2817  0.2350 -0.0028
 3852W        W 7916   0.073  10.510   3.300 -0.0631 -0.2833 -0.0442
 3853W        W 7917   5.426   3.545   1.184  0.0241  0.1566 -0.0588
 3854W        W 7918   4.590   0.302   2.027 -0.2441 -0.2130 -0.1532
 3855W        W 7919   0.529   8.307   8.468  0.0702 -0.3255 -0.2650
 3856W        W 7920   5.338   9.583   8.508 -0.2940 -0.0000 -0.0554
 3857W        W 7921   9.760   1.853  11.046 -0.5481 -0.1883 -0.1160
 3858W        W 7922   4.445   4.287   0.409 -0.2264 -0.2094 -0.1204
 3859W        W 7923   8.771   6.570   7.593  0.2806 -0.0641  0.0136
 3860W        W 7924   8.180   4.389   0.825 -0.2536  0.1031  0.0116
 3861W        W 7925   3.060   2.861   3.812  0.4127 -0.1863  0.2248
 3862W        W 7926   6.483   1.094   3.402 -0.1581 -0.0773  0.0540
 3863W        W 7927   2.925   9.767  10.296 -0.2002 -0.2804 -0.2124
 3864W        W 7928  10.296   9.188   7.772  0.2518 -0.0981 -0.0725
 3865W        W 7929   1.239   3.872   7.735 -0.2026 -0.4328 -0.1963
 3866W        W 7930   9.774  10.567   2.023  0.0398  0.0159  0.0842
 3867W        W 7931   8.120   9.501   8.854  0.0630  0.5528  0.0678
 3868W        W 7932   2.978   7.662   7.931 -0.2571 -0.0063 -0.5427
 3869W        W 7933   6.168   3.751   9.840  0.1315 -0.2449 -0.2629
 3870W        W 7934   7.664   7.059   2.536 -0.2620 -0.0364 -0.1623
 3871W        W 7935   6.166   1.899   9.593  0.2336  0.1661  0.2972
 3872W        W 7936  10.057   5.805   0.441 -0.1601 -0.0957 -0.3049
 3873W        W 7937   3.509   8.362   2.955  0.2482  0.0780  0.1093
 3874W        W 7938   7.683   2.927   1.028  0.0345  0.1558  0.0451
 3875W        W 7939   2.376  10.660   2.293  0.0611  0.1808 -0.1500
 3876W        W 7940   8.651   8.402  10.605 -0.2792 -0.0155 -0.1054
 3877W        W 7941   8.327   3.984   2.674  0.1017 -0.1873 -0.0048
 3878W        W 7942   5.729   5.665   9.131  0.1386 -0.0674  0.1240
 3879W        W 7943   2.247   4.345   2.857 -0.4923 -0.0147  0.0706
 3880W        W 7944  10.320   7.094   8.680 -0.0504 -0.3597  0.0382
 3881W        W 7945   7.646   9.016  10.396 -0.0951  0.1745 -0.1220
 3882W        W 7946   8.397   4.322  10.304 -0.1380  0.2082  0.1016
 3883W        W 7947   2.670   7.489  10.056 -0.2237  0.4461  0.1080
 3884W        W 7948   8.776   7.994   2.513  0.1589 -0.3149  0.0419
 3885W        W 7949  10.129   4.987   9.348 -0.1512 -0.0129 -0.1027
 3886W        W 7950   0.902   6.718   1.221  0.2633 -0.1466  0.1830
 3887W        W 7951   7.178   7.607   8.133 -0.2035  0.2094  0.2051
 3888W        W 7952   4.829   5.178  10.842  0.1684  0.0830 -0.0230
 3889W        W 7953   9.544   3.644   0.607 -0.0739 -0.3308  0.1043
 3890W        W 7954   3.832   1.333   2.425  0.0637 -0.0093  0.0625
 3891W        W 7955   1.173   4.340   2.051 -0.3764 -0.0289 -0.2217
 3892W        W 7956   5.675   5.339  11.403  0.0496  0.1589  0.0147
 3893W        W 7957   5.854   7.740   1.932 -0.1582 -0.1432 -0.1357
 3894W        W 7958   9.996   7.667   2.287  0.1491 -0.1144  0.0950
 3895W        W 7959   4.970   0.766  11.252  0.0072  0.1214 -0.2094
 3896W        W 7960   3.340   6.122   9.307  0.0573 -0.2149  0.1692
 3897W        W 7961   9.343   1.006  11.075 -0.0676  0.2070  0.2966
 3898W        W 7962   9.880   1.215   1.026 -0.1551 -0.1058 -0.0865
 3899W        W 7963   8.902   4.949   3.095 -0.0950  0.0412 -0.1525
 3900W        W 7964   2.710   7.517  10.753  0.2484  0.1030 -0.1937
 3901W        W 7965   9.251   8.919   0.538  0.0485  0.0581 -0.0422
 3902W        W 7966   2.775   0.121   8.607  0.0843  0.1378 -0.2787
 3903W        W 7967   4.617   5.018   2.905  0.0249 -0.0555  0.0417
 3904W        W 7968   3.595  10.603   0.308  0.1130  0.2298  0.0642
 3905W        W 7969   9.391   6.721   2.639 -0.1564 -0.2051  0.2318
 3906W        W 7970   2.630   5.154  10.609 -0.0431 -0.3132 -0.2033
 3907W        W 7971   6.139   7.105   0.891  0.0821 -0.0063  0.2519
 3908W        W 7972  10.497  10.526  10.062  0.0197 -0.0946 -0.2844
 3909W        W 7973   4.217   4.454   1.618  0.3595  0.1244 -0.2194
 3910W        W 7974   4.635   3.817   1.463  0.2158 -0.0023 -0.0034
 3911W        W 7975   5.325   3.323  10.891 -0.0467 -0.0228  0.2993
 3912W        W 7976   5.358   9.046   1.935  0.2724  0.2704 -0.0201
 3913W        W 7977   4.447   7.229   8.149  0.2027  0.0570  0.0027
 3914W        W 7978   0.822   9.296   0.686 -0.0042  0.0267  0.0019
 3915W        W 7979   2.570   2.348   2.745  0.0162 -0.1853  0.1564
 3916W        W 7980   8.270   0.894   3.247  0.0728 -0.0081 -0.0514
 3917W        W 7981   7.313   5.984   1.943  0.0346 -0.0839  0.2281
 3918W        W 7982   0.158   2.076  10.398 -0.0314  0.2359  0.0142
 3919W        W 7983   9.936   6.487   1.613 -0.1874  0.1013  0.0240
 3920W        W 7984   1.475   6.528  11.380  0.3609 -0.1480  0.1277
 3921W        W 7985   8.802   6.834   9.368 -0.2249  0.2491 -0.1579
 3922W        W 7986   6.464   2.211   2.097 -0.2312  0.0215  0.2969
 3923W        W 7987   3.699   1.545   0.161  0.1371 -0.1921 -0.2571
 3924W        W 7988   9.875   7.911   1.052  0.1364 -0.3993 -0.0892
 3925W        W 7989   0.172   5.386   1.961 -0.2619  0.0891 -0.1168
 3926W        W 7990   3.326   8.427   8.295  0.0143 -0.1248 -0.0950
 3927W        W 7991   4.427   7.763   1.341 -0.0369  0.4622 -0.1724
 3928W        W 7992   7.163   1.979   3.722 -0.0081 -0.0338 -0.0422
 3929W        W 7993   4.180   1.035   1.133 -0.0536  0.2552 -0.1996
 3930W        W 7994   6.005   1.582   2.276  0.1138  0.2454  0.1119
 3931W        W 7995   0.819   7.629   9.958  0.3052 -0.1914  0.3067
 3932W        W 7996   7.206   3.310   1.863  0.0680  0.3561  0.0743
 3933W        W 7997   7.900   5.649   0.859  0.3311  0.0915 -0.1973
 3934W        W 7998   9.960   7.695   2.863  0.1865 -0.0770  0.1686
 3935W        W 7999   4.267   7.321   0.961  0.1097  0.0242  0.0998
 3936W        W 8000   1.129   6.013   0.151 -0.1589 -0.3145  0.1105
 3937W        W 8001   6.109  10.571  10.684 -0.4409 -0.2259 -0.1143
 3938W        W 8002   4.579   4.235   8.017  0.0204 -0.3557 -0.0042
 3939W        W 8003   9.109   3.891   2.303 -0.0690 -0.1096  0.0768
 3940W        W 8004   4.743   0.607  10.599 -0.2685 -0.0307 -0.0999
 3941W        W 8005   7.544   5.546   3.374  0.2097 -0.3355  0.2141
 3942W        W 8006   4.790   3.661   0.586 -0.3033  0.1035  0.1172
 3943W        W 8007   8.590   0.631  10.012 -0.1035  0.2223 -0.3015
 3944W        W 8008   2.791   7.987  10.061  0.2584  0.0068  0.0036
 3945W        W 8009   8.595   6.170   3.445 -0.3075  0.0196 -0.0515
 3946W        W 8010   3.054   0.378   9.873  0.0790  0.1945 -0.0596
 3947W        W 8011   4.829   9.631   8.978  0.0225  0.1846  0.2205
 3948W        W 8012   0.929   6.296   2.104 -0.0652 -0.1093 -0.3459
 3949W        W 8013   4.991   7.820   2.733 -0.3492  0.0951  0.1940
 3950W        W 8014  10.611   4.856   8.135 -0.2574  0.1280  0.0306
 3951W        W 8015  10.073   4.335   3.188  0.0349  0.1942  0.0321
 3952W        W 8016   4.779   7.599   8.270  0.0703  0.1669  0.0803
 3953W        W 8017   3.429   6.179   8.377  0.0719 -0.3479 -0.1032
 3954W        W 8018   3.136   8.134  10.987  0.1563 -0.1035 -0.4393
 3955W        W 8019   1.855   3.187   1.651  0.0850  0.0107  0.0738
 3956W        W 8020   7.690   4.816   9.574  0.0899  0.0603  0.2036
 3957W        W 8021   8.811  10.611   8.688  0.1430 -0.0652 -0.2296
 3958W        W 8022   1.245   6.888   9.781 -0.0759  0.1342 -0.2700
 3959W        W 8023   6.122   2.411   9.820 -0.1991 -0.1337  0.2024
 3960W        W 8024   3.267   5.630   0.134  0.0362  0.2734  0.3073
 3961W        W 8025   5.937   8.947  10.750 -0.1087  0.1569 -0.1754
 3962W        W 8026   7.106   2.738  10.326 -0.0274  0.0809 -0.1314
 3963W        W 8027   8.724   5.305   9.880  0.4469 -0.1479  0.1563
 3964W        W 8028   7.301   0.934   9.012  0.3253 -0.3239 -0.0734
 3965W        W 8029   8.196   6.794   8.901 -0.0256 -0.1473  0.2445
 3966W        W 8030   6.839   5.937   1.841 -0.3065  0.0327 -0.2069
 3967W        W 8031   6.043   1.235   1.132  0.1169 -0.1629 -0.1433
 3968W        W 8032   8.713   6.079   1.966 -0.2494 -0.0338 -0.2288
 3969W        W 8033   0.083   8.032   1.119  0.1449  0.4122 -0.2405
 3970W        W 8034   1.179   7.565   3.606  0.2718 -0.3590  0.3725
 3971W        W 8035   5.116   3.897   1.445 -0.0563 -0.2602 -0.3807
 3972W        W 8036   1.182   2.863   9.182  0.1309 -0.1398  0.1951
 3973W        W 8037   8.136   3.041   2.139 -0.0154 -0.1411  0.3573
 3974W        W 8038   5.085  10.498   9.300  0.2620  0.3531  0.0641
 3975W        W 8039   9.750   4.890   0.398  0.1824  0.0635 -0.0698
 3976W        W 8040   6.713   0.037   1.668  0.2814  0.0353  0.3491
 3977W        W 8041   6.682   9.211   9.155  0.2116 -0.0824 -0.0802
 3978W        W 8042   7.069   3.621   9.344 -0.2311 -0.2378 -0.0504
 3979W        W 8043   4.386   5.275   8.384  0.0198  0.1808 -0.1116
 3980W        W 8044   1.734   3.803   9.936  0.0171 -0.1083  0.0297
 3981W        W 8045  10.244   8.119   9.224  0.0445 -0.0226 -0.2804
 3982W        W 8046   5.663   6.919   8.599  0.0059  0.0576  0.2037
 3983W        W 8047   9.967   2.795   3.781 -0.1109 -0.1459 -0.1186
 3984W        W 8048   6.198   3.944   9.379  0.2425  0.3565 -0.1494
 3985W        W 8049   6.206   9.328   7.680  0.2485  0.0709 -0.0890
 3986W        W 8050   2.663   1.520   9.555 -0.1393 -0.2035 -0.1280
 3987W        W 8051   3.866   4.304   1.302  0.1459  0.1906  0.3705
 3988W        W 8052   8.468   2.869   8.624  0.0049 -0.1474  0.0516
 3989W        W 8053   0.252   5.955  11.116 -0.0099  0.0613  0.2875
 3990W        W 8054   3.951   3.450   8.319 -0.1213  0.0600 -0.0584
 3991W        W 8055   6.782   8.194   9.152  0.0687 -0.0174 -0.1968
 3992W        W 8056   1.390   4.337   2.503  0.2938  0.0374 -0.2915
 3993W        W 8057   5.495   1.488   9.628  0.1738 -0.2242  0.0499
 3994W        W 8058   7.524   3.234   1.482 -0.1558  0.0015  0.1518
 3995W        W 8059   2.970   3.116   0.713 -0.1167  0.1361  0.2984
 3996W        W 8060   5.444   6.897   1.779 -0.1495 -0.0543  0.0865
 3997W        W 8061   9.302   5.545   2.318  0.4149 -0.1188 -0.0841
 3998W        W 8062  10.076   3.585   9.781 -0.0807 -0.2523 -0.2478
 3999W        W 8063   1.362   7.290   8.986  0.0554  0.2484 -0.1022
 4000W        W 8064  10.695   9.264  11.042 -0.1100 -0.1355  0.2137
 4001W        W 8065   2.808   9.805   1.222  0.1129  0.0595  0.4019
 4002W        W 8066   0.055   6.961  11.276  0.0321  0.1640 -0.2874
 4003W        W 8067   3.043   2.926   2.074 -0.2700 -0.4190 -0.0898
 4004W        W 8068   5.097   2.641   8.430 -0.0491  0.0880 -0.0124
 4005W        W 8069   0.190   7.466   1.641  0.1723 -0.0233  0.2011
 4006W        W 8070   8.561   8.718  10.219 -0.0992  0.2619  0.0287
 4007W        W 8071   1.177   0.427  10.621 -0.0110 -0.0635 -0.2039
 4008W        W 8072   4.943   3.486   8.270 -0.0527  0.3837  0.2582
 4009W        W 8073   0.007   1.097   7.970  0.2296 -0.0097 -0.1425
 4010W        W 8074   4.792   3.418  10.172 -0.0032  0.1306  0.0410
 4011W        W 8075   8.858   6.417   0.998 -0.2979 -0.1796 -0.0908
 4012W        W 8076   3.995   7.499   8.101  0.0539  0.1752 -0.2340
 4013W        W 8077  10.504   6.709   3.109  0.4561  0.2484 -0.3647
 4014W        W 8078   1.066   7.264   9.488 -0.1765 -0.1432 -0.1939
 4015W        W 8079   1.719  10.381   7.666 -0.1402  0.1465  0.0060
 4016W        W 8080   7.911   8.541   9.568 -0.1624 -0.2739  0.0038
 4017W        W 8081  10.447   3.648   9.204  0.1691 -0.0591 -0.2296
 4018W        W 8082   7.856   2.873  11.090  0.0612  0.1513  0.1098
 4019W        W 8083   3.964  10.634   8.991 -0.1053 -0.1988 -0.3035
 4020W        W 8084   8.503   9.451   7.941  0.0409  0.1034  0.3076
 4021W        W 8085   0.816   9.185   9.542 -0.0937  0.2694  0.0378
 4022W        W 8086   3.462   6.028   2.022  0.1114 -0.0666 -0.3995
 4023W        W 8087   7.499   5.545   8.996  0.3946 -0.0827  0.1265
 4024W        W 8088   4.733   4.960   0.939  0.2617 -0.1234  0.0977
 4025W        W 8089   9.260   4.334   9.094  0.0390  0.1587  0.1570
 4026W        W 8090   2.990   6.811   8.826  0.3450 -0.0366 -0.1702
 4027W        W 8091  10.259   4.080  11.402  0.0462  0.0328 -0.2226
 4028W        W 8092   9.542   1.983  10.536 -0.0110 -0.1975 -0.0261
 4029W        W 8093   3.971  10.578   3.459 -0.1332 -0.1566  0.1101
 4030W        W 8094   5.491   6.675   1.297  0.1412 -0.3642 -0.2294
 4031W        W 8095   2.110   8.954   3.057 -0.5465 -0.0866  0.1345
 4032W        W 8096   4.320   7.439  10.198  0.3214 -0.2555  0.0728
 4033W        W 8097   3.683   2.210   9.781  0.0219  0.0048  0.0488
 4034W        W 8098   3.476   4.714   3.923  0.1070  0.1193 -0.4196
 4035W        W 8099   5.210   5.640   9.916 -0.0763 -0.0634 -0.3739
 4036W        W 8100   2.492   9.030   2.738  0.1511  0.0314 -0.3069
 4037W        W 8101   3.699   4.436   3.381 -0.3614 -0.1792 -0.0777
 4038W        W 8102   9.999   9.355   3.522 -0.0103  0.3012  0.3397
 4039W        W 8103   9.072   5.016  10.088 -0.3667  0.0306 -0.1684
 4040W        W 8104   1.620   1.385   9.474  0.0626 -0.3147  0.0185
 4041W        W 8105   9.659   9.076  10.773  0.4751  0.2225 -0.1033
 4042W        W 8106   2.879   2.977   3.387 -0.3019 -0.0748 -0.1019
 4043W        W 8107   2.339  10.315   0.925  0.2201  0.2048  0.0180
 4044W        W 8108   1.324   6.710   0.896  0.1121 -0.1397  0.0671
 4045W        W 8109   9.607   5.152   1.472  0.2957 -0.0244  0.1159
 4046W        W 8110  10.078   0.027   0.140 -0.0749 -0.1921 -0.0573
 4047W        W 8111   0.068   8.916  10.130 -0.3386 -0.3078 -0.0637
 4048W        W 8112   0.838   2.763  10.083  0.0167  0.3362 -0.1056
 4049W        W 8113   0.817  10.136   1.799  0.0233 -0.2050 -0.1435
 4050W        W 8114   6.621   4.594   2.214  0.0088 -0.2625 -0.0755
 4051W        W 8115   6.260   2.522   2.467 -0.1828 -0.0702 -0.1816
 4052W        W 8116   6.246   2.134  10.591 -0.0559  0.0337 -0.0045
 4053W        W 8117   6.971   1.103   9.928  0.2478  0.1463 -0.0403
 4054W        W 8118   5.544   5.776   0.709 -0.0607  0.4091 -0.0637
 4055W        W 8119   6.044   2.944   8.738 -0.1862 -0.2123  0.0761
 4056W        W 8120   7.533   0.044   2.395 -0.3445 -0.0168 -0.0608
 4057W        W 8121   4.968   7.332   1.842  0.0632 -0.1876  0.2366
 4058W        W 8122   5.085   5.879   0.330  0.1213  0.0801  0.0620
 4059W        W 8123   2.223   6.176   0.648  0.0666 -0.0284 -0.2214
 4060W        W 8124   5.321   6.929   0.388  0.1406 -0.0935 -0.1347
 4061W        W 8125   0.179   7.040   8.377  0.1081  0.1021 -0.3140
 4062W        W 8126   5.836   6.345   2.447 -0.0722  0.0014 -0.0511
 4063W        W 8127  10.314   9.465   0.038 -0.2021  0.2184  0.1382
 4064W        W 8128   6.647  10.535  10.764 -0.0695 -0.1559 -0.2408
 4065W        W 8129   7.020   3.520   4.250  0.0289 -0.0347  0.0754
 4066W        W 8130   1.272   0.227   8.804  0.1701  0.2377  0.1618
 4067W        W 8131   2.738   1.228  10.986  0.2379  0.2216  0.2153
 4068W        W 8132   9.410   3.982   0.232 -0.0693  0.1756  0.3106
 4069W        W 8133   9.472   6.247   1.635 -0.2497 -0.1648  0.3884
 4070W        W 8134   4.199   6.087   1.561  0.0203  0.1161 -0.1204
 4071W        W 8135   3.238   8.973   1.282 -0.0452  0.1756  0.1576
 4072W        W 8136   3.895   3.700  10.082 -0.2171  0.0599  0.4564
 4073W        W 8137  10.362   7.645   8.767  0.2713 -0.0534  0.2452
 4074W        W 8138  10.590   6.666   8.544  0.3259 -0.2330  0.2617
 4075W        W 8139   3.360   8.941   9.320  0.1614  0.2487 -0.1472
 4076W        W 8140   5.478   2.184   2.234 -0.1916  0.0683 -0.1870
 4077W        W 8141   8.309   2.040   3.078 -0.0431  0.0348 -0.1976
 4078W        W 8142   8.262  10.152  10.670 -0.3154 -0.0324 -0.2621
 4079W        W 8143  10.279   9.808   2.330 -0.0098  0.2260 -0.2512
 4080W        W 8144   0.995   9.306   8.575  0.0263  0.0155  0.0126
 4081W        W 8145   1.160   2.398   8.410 -0.1068  0.1749  0.0733
 4082W        W 8146   5.069   6.236   2.013  0.0338 -0.3394  0.0763
 4083W        W 8147   6.457   3.157   0.117  0.3085  0.0765 -0.0391
 4084W        W 8148   7.205   9.670   9.098  0.1634 -0.0346  0.1077
 4085W        W 8149   5.262   9.013   8.172 -0.1153 -0.0091 -0.1988
 4086W        W 8150   9.562   7.024   3.168  0.3826 -0.0215 -0.1068
 4087W        W 8151   3.340   6.810   1.330 -0.0296  0.0463  0.3480
 4088W        W 8152   2.273  10.185   8.172 -0.0442 -0.3997  0.2734
 4089W        W 8153   4.992   4.039   3.113  0.1235  0.0025 -0.2118
 4090W        W 8154   4.732   8.215   8.264 -0.0548 -0.2260  0.2551
 4091W        W 8155  10.486  10.048   8.927 -0.2494  0.0825  0.1209
 4092W        W 8156   7.739   0.629   8.320  0.0569  0.1706 -0.1336
 4093W        W 8157   7.999   4.378   9.514  0.0564  0.0353 -0.1592
 4094W        W 8158  10.617   5.200   0.504 -0.0030 -0.0069 -0.0749
 4095W        W 8159   2.713   7.984  11.234  0.1397 -0.0561  0.0512
 4096W        W 8160   8.825   0.448   2.113  0.1287 -0.1525  0.0600
 4097W        W 8161   1.465   9.750   0.647  0.1511  0.1114  0.1823
 4098W        W 8162   8.070   5.185   0.672  0.2589  0.0911 -0.0770
 4099W        W 8163   4.925   7.565   9.273 -0.0424 -0.4953 -0.1265
 4100W        W 8164   5.276   2.021   1.234 -0.2208  0.1161 -0.1683
 4101W        W 8165   2.583   8.624   1.919  0.1423  0.0143 -0.2274
 4102W        W 8166   8.758   1.280   8.543 -0.0975 -0.0395  0.3763
 4103W        W 8167   7.502   0.531   8.756  0.0972  0.1296 -0.0726
 4104W        W 8168   5.893  10.324   3.433 -0.0143 -0.1456 -0.0215
 4105W        W 8169  10.052  10.294   8.606 -0.1560 -0.5218  0.0158
 4106W        W 8170   3.464   2.419  11.289 -0.2122  0.1790 -0.1628
 4107W        W 8171   3.727   1.982  10.608 -0.1504  0.1527 -0.1164
 4108W        W 8172   5.125  10.121   9.704  0.0968  0.1255  0.4258
 4109W        W 8173   2.925   9.940   7.607  0.4866 -0.1362  0.1049
 4110W        W 8174   5.961   9.840   0.338  0.0317  0.3525  0.1013
 4111W        W 8175   9.466   0.485   1.400  0.0779  0.0269 -0.1426
 4112W        W 8176   3.186   7.005  11.121 -0.1512 -0.0049  0.2677
 4113W        W 8177   7.857   0.443   2.347  0.1728  0.3560 -0.2782
 4114W        W 8178   2.567   4.378   1.699  0.0037 -0.0657 -0.2296
 4115W        W 8179   9.894   5.860   3.159  0.2381 -0.1683  0.0092
 4116W        W 8180   8.455   4.054   0.464 -0.0042 -0.1834 -0.1328
 4117W        W 8181   2.884   8.224   0.333 -0.0873 -0.2943  0.1776
 4118W        W 8182   4.647   4.322   9.730 -0.0907 -0.2174 -0.2108
 4119W        W 8183   2.185   2.398   3.807  0.1050  0.0061  0.3078
 4120W        W 8184   3.730   5.354   1.232  0.2427 -0.2463 -0.2505
 4121W        W 8185   0.389   2.669   1.896  0.0754  0.4646 -0.0038
 4122W        W 8186   5.592   9.955  10.432 -0.1612 -0.0783 -0.1376
 4123W        W 8187   3.765   2.261   1.834 -0.1949  0.1854  0.2407
 4124W        W 8188   2.870   8.277   3.088 -0.2228  0.2311  0.3063
 4125W        W 8189   3.466   4.292   2.285 -0.2062  0.0275  0.0261
 4126W        W 8190   5.235   9.230   0.579  0.1919  0.1351  0.1115
 4127W        W 8191   3.679   7.957  11.240  0.0253 -0.2711 -0.0718
 4128W        W 8192   5.690   1.880  10.958  0.2522  0.0599  0.1321
 4129W        W 8193   7.032   2.292   8.947  0.1703 -0.0523 -0.0373
 4130W        W 8194   6.109   5.454  11.241  0.0336  0.1712 -0.2191
 4131W        W 8195   9.341   4.940  10.985  0.3427  0.1672  0.0328
 4132W        W 8196   7.692   8.862   9.075  0.2407  0.1536 -0.0513
 4133W        W 8197   9.695   7.986   0.042  0.0827  0.0767  0.3262
 4134W        W 8198   0.797   1.479   2.168 -0.0944  0.0076 -0.1479
 4135W        W 8199   6.595  10.162   8.145 -0.1179  0.3160 -0.2278
 4136W        W 8200   3.684   3.981   0.018 -0.0672  0.1695 -0.2605
 4137W        W 8201   6.288   1.354   8.092 -0.1509  0.0674 -0.0805
 4138W        W 8202   8.141   2.673   1.011 -0.0398  0.5627 -0.1732
 4139W        W 8203   6.018   6.698   9.864  0.2542  0.1018 -0.1499
 4140W        W 8204   9.306  10.326   1.010  0.0282 -0.2122 -0.2002
 4141W        W 8205   8.388   9.007   8.801 -0.2958 -0.2816 -0.1667
 4142W        W 8206   2.697   5.306   1.184 -0.0536 -0.3033 -0.4749
 4143W        W 8207   4.884   3.434   3.095 -0.1481  0.5498  0.0277
 4144W        W 8208   2.060   7.938   2.277  0.0437  0.3236  0.0301
 4145W        W 8209   7.999  10.056   2.044 -0.0616  0.2647 -0.2319
 4146W        W 8210   5.173   9.359  10.919 -0.1684 -0.2558 -0.2437
 4147W        W 8211  10.493   5.300   1.687  0.1147  0.0179 -0.0380
 4148W        W 8212   3.972  10.088   3.269  0.0391  0.2394 -0.2056
 4149W        W 8213   3.406   5.403   8.529  0.2299 -0.0141 -0.0415
 4150W        W 8214   7.568   2.827   9.681 -0.0066  0.4059  0.2669
 4151W        W 8215   4.332   0.193   3.378 -0.2502 -0.0901 -0.4615
 4152W        W 8216   4.536   8.600   0.246  0.4228 -0.3496 -0.0856
 4153W        W 8217   6.782   0.914   4.275 -0.0251  0.0796 -0.4161
 4154W        W 8218   2.886  10.122   3.587  0.0678  0.0770 -0.1046
 4155W        W 8219   5.658   7.066  10.458 -0.2972  0.0386  0.0627
 4156W        W 8220   7.971   5.652   9.270 -0.3605 -0.0257  0.0033
 4157W        W 8221   9.424   8.378  10.106  0.3013 -0.0614  0.0262
 4158W        W 8222   6.062   8.328   2.683  0.1244 -0.0062 -0.0938
 4159W        W 8223   7.770   3.800   0.827 -0.0447  0.1898  0.0324
 4160W        W 8224  10.403   2.635   3.086 -0.1033  0.0054  0.1150
 4161W        W 8225   7.798   3.260  11.339  0.1229  0.2307  0.0644
 4162W        W 8226   1.388   1.616  11.385  0.1626 -0.0438 -0.0325
 4163W        W 8227   5.710   8.846   9.692 -0.3189 -0.3862  0.0927
 4164W        W 8228   0.212   3.598   1.775 -0.2174  0.0119 -0.0242
 4165W        W 8229   5.924   6.246  10.092 -0.1216  0.0308  0.1828
 4166W        W 8230   7.514   5.386   2.864 -0.3093  0.0551 -0.1904
 4167W        W 8231   0.900   4.922   0.685 -0.0832 -0.0949  0.0506
 4168W        W 8232  10.548   2.945  10.458 -0.0961 -0.1853 -0.2085
 4169W        W 8233   8.734   5.228  10.361 -0.1376  0.2509  0.1580
 4170W        W 8234   2.567   6.911   0.816 -0.0679  0.1875  0.1262
 4171W        W 8235   5.560   6.695   9.107 -0.3395  0.2009  0.0305
 4172W        W 8236   5.553   5.314   1.073  0.0275  0.2614 -0.3020
 4173W        W 8237   6.344   3.417   8.004  0.0580 -0.1646 -0.0342
 4174W        W 8238   4.723   3.662   8.697  0.2095 -0.2421  0.2209
 4175W        W 8239   6.356   4.966   7.571  0.0218  0.0934  0.0683
 4176W        W 8240   8.520   2.772   2.300 -0.0325  0.3008 -0.2394
 4177W        W 8241   1.254   6.651   1.560  0.0164  0.1888  0.1293
 4178W        W 8242   4.865   4.232   1.178  0.1042  0.4082 -0.2287
 4179W        W 8243   3.172   8.411   7.822  0.2827 -0.3812  0.2593
 4180W        W 8244   1.389   0.005  10.609 -0.0286  0.1068  0.1628
 4181W        W 8245   5.708   6.660   0.196 -0.0128 -0.2859 -0.2568
 4182W        W 8246  10.433   0.163   9.726 -0.1888  0.1873 -0.0871
 4183W        W 8247   9.268   4.825   0.115 -0.0148  0.2225  0.1769
 4184W        W 8248   7.051   1.073   2.737  0.2297  0.0593 -0.0921
 4185W        W 8249   6.528   9.071   2.379  0.1478  0.1758 -0.0833
 4186W        W 8250   5.781   2.318   2.661 -0.2650 -0.0084  0.1935
 4187W        W 8251   5.755   2.470  10.239  0.1178 -0.0214  0.2228
 4188W        W 8252   9.246  10.057  10.627 -0.1375  0.2933 -0.1934
 4189W        W 8253   7.318   6.821   0.304  0.1472  0.1165  0.1752
 4190W        W 8254   9.879   3.585   9.200 -0.1520 -0.0791 -0.2206
 4191W        W 8255   5.047  10.572  11.177  0.1701  0.3658  0.0845
 4192W        W 8256   9.796   6.935   0.910 -0.3043  0.2227  0.1361
 4193W        W 8257   7.376   8.533   1.510 -0.1264 -0.1155 -0.2637
 4194W        W 8258   6.561   2.999   8.554 -0.4829 -0.1528  0.2079
 4195W        W 8259   3.591   2.217   0.897 -0.2940  0.2909  0.1642
 4196W        W 8260   6.048   2.846   0.670  0.0983 -0.0805 -0.0556
 4197W        W 8261   9.170   7.978  10.087  0.1588  0.0394 -0.1469
 4198W        W 8262   3.496   8.813   0.711 -0.0090 -0.5188  0.0362
 4199W        W 8263   2.324   0.127   4.253 -0.1004 -0.1430 -0.2702
 4200W        W 8264   9.012   3.480  11.156 -0.0185 -0.0955  0.3348
 4201W        W 8265   4.507   6.273   2.368  0.0529 -0.1472 -0.2941
 4202W        W 8266   8.746   1.297  10.819  0.1078  0.1272  0.1972
 4203W        W 8267   7.790   1.201   1.009  0.0741 -0.0337 -0.0815
 4204W        W 8268   5.774   3.210  10.846  0.3263 -0.1848  0.1670
 4205W        W 8269   2.819   9.202   0.366  0.1075 -0.2252  0.2771
 4206W        W 8270   5.789   7.923   9.249 -0.0192  0.3638 -0.0552
 4207W        W 8271   0.892   0.462   2.022 -0.2557  0.0005  0.0140
 4208W        W 8272   0.193   0.289   3.261  0.2156  0.0591 -0.0907
 4209W        W 8273   6.814   4.143   1.093  0.0931 -0.1344 -0.3119
 4210W        W 8274   8.496   0.160  10.892 -0.0814 -0.0060  0.0229
 4211W        W 8275   9.157   6.416   8.845  0.2416  0.0323 -0.0531
 4212W        W 8276   4.502   2.328   2.475 -0.0040 -0.2630  0.0331
 4213W        W 8277  10.657   0.912   4.055  0.0232  0.0132  0.1705
 4214W        W 8278   3.810   6.811   2.232 -0.1178 -0.0563  0.1017
 4215W        W 8279   6.054   6.642   9.338  0.0392 -0.1086 -0.1641
 4216W        W 8280   0.717   6.577   2.841  0.1727 -0.3606 -0.2634
 4217W        W 8281   9.432   9.615   9.777 -0.0548 -0.1704 -0.1346
 4218W        W 8282   8.580   3.385   3.991  0.1368  0.2508 -0.0910
 4219W        W 8283   1.916   4.856   2.480 -0.1260 -0.0337 -0.2826
 4220W        W 8284   3.170   7.530   2.548 -0.1980  0.0976 -0.0294
 4221W        W 8285   3.790   3.457   0.887  0.2222 -0.1567 -0.2038
 4222W        W 8286   6.647   7.677   0.408  0.0661  0.1979 -0.1997
 4223W        W 8287  10.066   6.820   8.180 -0.2875  0.0663 -0.3392
 4224W        W 8288   7.740  10.229  10.759 -0.1687  0.1391 -0.0990
 4225W        W 8289   2.000   8.464   8.147 -0.1810  0.0595 -0.0028
 4226W        W 8290   2.902   3.922  10.039 -0.2012 -0.4351 -0.0733
 4227W        W 8291   3.360   4.864   2.417  0.2034  0.0032 -0.0997
 4228W        W 8292   7.586   2.060   1.668 -0.0167  0.1866 -0.1636
 4229W        W 8293   3.848   7.531   9.176  0.0337  0.0917 -0.0317
 4230W        W 8294   6.823   9.957   3.436 -0.2387  0.1123  0.0595
 4231W        W 8295   8.685  10.061   0.595  0.2224 -0.1671  0.2514
 4232W        W 8296   0.470   1.157   8.204  0.2547 -0.1977 -0.1053
 4233W        W 8297   8.382   6.609   0.825  0.1568 -0.2393 -0.0259
 4234W        W 8298   3.505   0.418   8.485 -0.1509  0.0892  0.3531
 4235W        W 8299   4.726   9.966   0.094  0.2499 -0.2011 -0.1230
 4236W        W 8300   5.869   5.734   9.896  0.1305 -0.0117  0.0191
 4237W        W 8301   4.369   6.065  10.819  0.1804  0.2391  0.0309
 4238W        W 8302   9.901   0.538  10.445 -0.1207 -0.1619  0.2008
 4239W        W 8303   0.477   4.682   0.777 -0.0718 -0.2142 -0.0277
 4240W        W 8304   2.062   1.133   4.229 -0.0034 -0.0077  0.2019
 4241W        W 8305   1.808   2.909   2.544  0.0192  0.1138 -0.0581
 4242W        W 8306  10.024   2.350  11.306  0.0128 -0.5488 -0.1000
 4243W        W 8307   4.041   1.529   9.930 -0.1328 -0.2324  0.0798
 4244W        W 8308   2.094   6.737   0.989 -0.0104  0.3118  0.0713
 4245W        W 8309   8.707   9.216  10.393  0.0245  0.2623  0.0475
 4246W        W 8310   1.681   1.085   9.993  0.4025  0.1118 -0.1124
 4247W        W 8311   6.714   2.719   1.326 -0.1135 -0.1779 -0.0800
 4248W        W 8312  10.218   5.567   0.932  0.1209 -0.1801 -0.0244
 4249W        W 8313   9.580   7.452   8.128  0.1443  0.3551  0.1286
 4250W        W 8314   6.213   2.466   3.716  0.1591 -0.2356  0.0670
 4251W        W 8315  10.012   5.933   1.244  0.0243 -0.1830  0.0123
 4252W        W 8316   1.308   8.944   8.367 -0.0807  0.0572 -0.2213
 4253W        W 8317   9.438   0.094   3.095 -0.4452 -0.1389 -0.3645
 4254W        W 8318  10.331   1.330   1.615 -0.0933 -0.1426  0.0829
 4255W        W 8319   6.647   3.946   3.570 -0.3575  0.2169 -0.1031
 4256W        W 8320  10.143  10.530   2.485  0.0274  0.2434  0.0560
 4257W        W 8321   7.522   8.326   9.708 -0.0802 -0.2251  0.0812
 4258W        W 8322   3.222   6.509  11.078  0.0249  0.0815  0.0744
 4259W        W 8323   8.464   8.663   9.624  0.0711 -0.1105 -0.2550
 4260W        W 8324   1.105   7.003   8.149  0.3300  0.0723  0.3045
 4261W        W 8325   9.889   2.634   1.824  0.0311 -0.0933  0.0829
 4262W        W 8326   3.448   4.555   8.238  0.1695  0.2932  0.3439
 4263W        W 8327   1.840   9.988   2.240 -0.1175  0.5543 -0.1667
 4264W        W 8328   2.418   1.668   8.317  0.0511 -0.3044 -0.0482
 4265W        W 8329   5.884   4.337   8.481 -0.1444  0.1542  0.1535
 4266W        W 8330   5.858   2.583   7.892  0.1177  0.3721 -0.0878
 4267W        W 8331   7.184   4.634  10.949  0.1812  0.0106 -0.2436
 4268W        W 8332   5.021   4.043   8.190  0.0377  0.1342  0.2879
 4269W        W 8333   1.364   1.458   2.210  0.0585  0.4471  0.0411
 4270W        W 8334   0.345   2.671  10.327 -0.2899 -0.4438  0.2724
 4271W        W 8335   6.488   3.723   0.337  0.0666  0.0187  0.3907
 4272W        W 8336   6.862   4.006   4.171 -0.0675  0.1941  0.1141
 4273W        W 8337   7.943   2.991   1.587 -0.0104 -0.2597 -0.0561
 4274W        W 8338   0.022   1.429   0.561  0.0216 -0.0760  0.0134
 4275W        W 8339   0.923   5.871   3.211  0.0211  0.1404  0.0853
 4276W        W 8340   3.802   4.435   0.129 -0.0484 -0.0981  0.1717
 4277W        W 8341   1.784   1.252   7.992  0.2533 -0.1556 -0.2392
 4278W        W 8342   0.297   6.271   8.382 -0.0593 -0.1520  0.4015
 4279W        W 8343   0.600   1.706   1.262  0.3033  0.4480  0.0124
 4280W        W 8344   0.230   9.396   1.494 -0.0673  0.4722 -0.1806
 4281W        W 8345   3.517   0.122  11.192 -0.1034 -0.0963 -0.0506
 4282W        W 8346   4.446  10.552   8.668 -0.0858  0.2538  0.2478
 4283W        W 8347   1.251   4.078   8.356 -0.2027 -0.0552 -0.1016
 4284W        W 8348   0.592   4.735   1.671  0.2684 -0.0325 -0.1165
 4285W        W 8349   0.397   2.132   2.900  0.2068 -0.1143  0.0247
 4286W        W 8350   7.148   9.011  10.430  0.1750  0.2701 -0.2175
 4287W        W 8351   8.300   0.709   2.741  0.0656  0.0068 -0.2139
 4288W        W 8352   8.312   8.345   9.341 -0.2022  0.2658 -0.3760
 4289W        W 8353   6.966   3.775   0.093  0.1303 -0.2981  0.0488
 4290W        W 8354   6.096   2.817  11.007  0.1131 -0.2504  0.1526
 4291W        W 8355   1.198   5.879   7.269  0.1841 -0.2399 -0.0735
 4292W        W 8356   5.965   7.284   1.706 -0.0651 -0.3856 -0.0043
 4293W        W 8357   7.608   3.680   2.071 -0.1678  0.0464  0.0011
 4294W        W 8358   0.857   7.315  10.378  0.2777 -0.2667 -0.1384
 4295W        W 8359   4.820   5.323   8.768 -0.0078 -0.1494  0.2904
 4296W        W 8360   9.038   0.575   1.243  0.4504 -0.0710 -0.0007
 4297W        W 8361  10.481   0.148  11.212  0.3660  0.2721  0.0286
 4298W        W 8362   8.525   1.546   2.629 -0.0887 -0.0073  0.0062
 4299W        W 8363   3.188   5.373  10.633 -0.1857 -0.2476  0.0036
 4300W        W 8364   3.668   0.857   9.471  0.0828  0.2953  0.2323
 4301W        W 8365   7.360   1.836   2.067 -0.2910 -0.0044  0.5617
 4302W        W 8366   4.528   1.412  10.487 -0.1047 -0.0924  0.0191
 4303W        W 8367  10.324   5.786   2.575  0.1226  0.2731 -0.0962
 4304W        W 8368   9.339  10.294   2.828  0.3138  0.0223 -0.1429
 4305W        W 8369  10.720   7.505  10.480 -0.2236  0.0366  0.0657
 4306W        W 8370   9.775   5.997   0.807 -0.0745 -0.4045 -0.1381
 4307W        W 8371  10.548   8.512   3.440 -0.3232 -0.2480  0.1544
 4308W        W 8372   9.532   3.593   9.705  0.2703  0.1964 -0.1556
 4309W        W 8373   9.187   1.781   2.741 -0.0317 -0.1246  0.1297
 4310W        W 8374   0.193   2.744   0.034 -0.3378 -0.2574  0.0886
 4311W        W 8375   4.653   5.778   7.500  0.1847  0.1584 -0.1196
 4312W        W 8376   2.228   9.762   2.541  0.0282 -0.3343 -0.1171
 4313W        W 8377   2.532   3.111   2.233 -0.2966  0.1146  0.3124
 4314W        W 8378   7.456  10.167   9.394  0.1712 -0.1851  0.1363
 4315W        W 8379   6.700   8.117   0.879 -0.0296 -0.1109  0.0714
 4316W        W 8380   3.506   4.529  10.712 -0.3097 -0.1029 -0.0025
 4317W        W 8381   2.068   6.990  10.130 -0.1187  0.1905 -0.1154
 4318W        W 8382   4.428   7.515   2.465 -0.1226  0.2628  0.1098
 4319W        W 8383   6.314   1.543   8.565  0.0923  0.0332 -0.1283
 4320W        W 8384   5.625   9.178  11.122  0.0067  0.0600  0.0101
 4321W        W 8385   7.220   2.014   4.280  0.1868  0.0860 -0.0248
 4322W        W 8386   6.117   6.832   2.614 -0.3447  0.1972 -0.3243
 4323W        W 8387   0.210   8.350  10.904 -0.0247 -0.0467 -0.0976
 4324W        W 8388   0.814   8.738   9.822  0.0371  0.0662 -0.1024
 4325W        W 8389   1.797   3.813  11.405  0.3377  0.1512  0.4079
 4326W        W 8390   0.947   2.348   0.539  0.0893  0.0781 -0.0985
 4327W        W 8391   8.203   6.086   0.471  0.0462  0.0306 -0.2136
 4328W        W 8392   6.463   5.253   9.286  0.1851 -0.0276 -0.1337
 4329W        W 8393   6.350  10.054   8.657  0.0715  0.3262 -0.0836
 4330W        W 8394   7.222   9.081   9.082  0.2371 -0.2028  0.0235
 4331W        W 8395   5.005   2.105   8.440  0.3476 -0.1432  0.2535
 4332W        W 8396   9.273   1.710   0.539  0.1731 -0.1416 -0.1723
 4333W        W 8397   2.634   9.916   2.255 -0.1802 -0.2311  0.1070
 4334W        W 8398   5.677   5.857   2.603 -0.2731  0.0217  0.0634
 4335W        W 8399   0.241   0.232   0.470  0.3464  0.0126 -0.2836
 4336W        W 8400   2.837   6.044   9.521 -0.1209  0.3472 -0.1700
 4337W        W 8401   2.736   1.158  10.409 -0.0928 -0.1161 -0.1526
 4338W        W 8402   8.263   3.144  10.995 -0.1555  0.4440 -0.2239
 4339W        W 8403   1.660   6.591   2.162  0.2395  0.2484  0.2472
 4340W        W 8404   8.518   9.603  11.283 -0.4032  0.1021 -0.1036
 4341W        W 8405   4.129   9.544   1.204  0.2530  0.2125 -0.0419
 4342W        W 8406   7.272   5.887   0.289  0.3492 -0.3550 -0.1856
 4343W        W 8407   6.195   3.336   8.493 -0.2101 -0.1640  0.1031
 4344W        W 8408   3.337   6.984   2.637  0.1981  0.1984 -0.0422
 4345W        W 8409   1.104   3.430   1.472 -0.0406 -0.1218  0.0925
 4346W        W 8410   0.486   6.292   0.715 -0.3120  0.1565 -0.2032
 4347W        W 8411   8.149   7.223   8.617  0.0410  0.1023  0.1652
 4348W        W 8412   1.902   0.658   1.708 -0.0030  0.3374  0.1366
 4349W        W 8413   1.341   9.469   8.887  0.1274  0.2428 -0.1801
 4350W        W 8414   0.587   6.297   3.293 -0.1408 -0.0936  0.3185
 4351W        W 8415   8.126   7.483  10.639 -0.0236  0.1654  0.2523
 4352W        W 8416   2.020   8.643   0.162  0.0600  0.4828  0.1411
 4353W        W 8417   0.314   8.539   9.897 -0.1092 -0.0929  0.0381
 4354W        W 8418   4.652   7.231   1.325  0.2839 -0.1605 -0.0667
 4355W        W 8419   2.743   7.258   9.045  0.3256  0.1282  0.0125
 4356W        W 8420   0.149   5.911   2.227  0.1542  0.2601  0.3063
 4357W        W 8421   6.714   8.861  11.152  0.1081  0.0796  0.1145
 4358W        W 8422   3.809   7.992   9.706  0.1164  0.0131 -0.3663
 4359W        W 8423   9.910   1.038  10.143  0.0703 -0.2303 -0.5133
 4360W        W 8424   5.166   7.527   9.736 -0.0422  0.0151  0.0161
 4361W        W 8425   7.705   2.760   3.904  0.2522 -0.1493  0.0971
 4362W        W 8426   0.132   2.298   0.246 -0.1244  0.1387 -0.0605
 4363W        W 8427   9.039   6.881   3.098  0.1439 -0.1159  0.0417
 4364W        W 8428   6.814   2.123   4.069  0.0295 -0.2482 -0.1374
 4365W        W 8429   6.729   5.891   7.169 -0.0146  0.3166  0.3576
 4366W        W 8430   5.330   3.161   8.303  0.1920  0.2262  0.3302
 4367W        W 8431   3.264   4.265   0.027 -0.2270  0.1139  0.0336
 4368W        W 8432   6.123   0.881  10.522 -0.4149 -0.0462 -0.0447
 4369W        W 8433   2.775   4.239  10.487  0.1740  0.1777 -0.1433
 4370W        W 8434   9.132   8.438   2.171 -0.4330  0.0016 -0.1002
 4371W        W 8435  10.055   9.312  10.495  0.0214 -0.0775  0.1373
 4372W        W 8436   5.748   9.793   3.399 -0.0032 -0.0961 -0.3393
 4373W        W 8437   6.116   8.599   1.871 -0.2801 -0.0499 -0.1914
 4374W        W 8438   2.012   8.645   8.603  0.0938  0.0334  0.0851
 4375W        W 8439   7.155   3.024   2.933 -0.0980  0.2241  0.0528
 4376W        W 8440   0.278   6.616   0.355 -0.1771 -0.2157  0.0972
 4377W        W 8441   1.062   4.663   9.165  0.4112 -0.0715  0.0115
 4378W        W 8442   7.080   8.499   9.685 -0.0503  0.0586  0.2102
 4379W        W 8443   9.842  10.591  10.627 -0.0152 -0.1353 -0.1002
 4380W        W 8444   0.787   0.781   3.130  0.0908 -0.0582 -0.1367
 4381W        W 8445  10.108   3.009   9.405 -0.3127 -0.1369 -0.0527
 4382W        W 8446   7.114   1.415   8.606  0.0393 -0.0330  0.3266
 4383W        W 8447   0.908   0.508   8.750  0.0493 -0.0623 -0.0283
 4384W        W 8448   6.301   1.878   1.260  0.0580 -0.2875  0.1393
 4385W        W 8449   7.809   1.319   0.503  0.0811 -0.3176 -0.1252
 4386W        W 8450  10.441   6.730   9.037  0.3082 -0.2046 -0.1853
 4387W        W 8451  10.050   8.589  10.222 -0.1725 -0.3481  0.0323
 4388W        W 8452   1.436   8.022   3.595 -0.2225  0.3516  0.1268
 4389W        W 8453   0.191   2.751   8.936 -0.0652  0.0526  0.0752
 4390W        W 8454   6.226  10.442   3.068  0.0842 -0.0988 -0.0152
 4391W        W 8455   7.545   8.139   2.268  0.0092 -0.1176 -0.1324
 4392W        W 8456   3.444   7.486   7.356 -0.0592  0.2457  0.2294
 4393W        W 8457   0.888   1.808   9.232 -0.1303 -0.1400  0.3048
 4394W        W 8458  10.591   9.405   2.278  0.0646  0.0677  0.1078
 4395W        W 8459   1.954   9.987   1.656  0.0622  0.3617 -0.1111
 4396W        W 8460   5.182   3.487   7.820 -0.1543  0.1584  0.1240
 4397W        W 8461   3.623   0.236   7.447 -0.2254  0.7432  0.0735
 4398W        W 8462   4.360   0.986   3.867 -0.0145 -0.0234 -0.0353
 4399W        W 8463   2.776   2.480   8.405 -0.3678 -0.1231  0.2986
 4400W        W 8464   8.040   1.496   1.287 -0.1019  0.0167 -0.2685
 4401W        W 8465   7.458   9.353   1.967 -0.3030  0.2050 -0.3657
 4402W        W 8466   2.997   8.033   8.339  0.2137 -0.1051 -0.2282
 4403W        W 8467   4.128   4.472   4.657 -0.0795 -0.3202  0.0750
 4404W        W 8468  10.158   7.615   9.312  0.0590 -0.0536 -0.3571
 4405W        W 8469   4.986   0.309   2.653 -0.3292 -0.1889 -0.2699
 4406W        W 8470   1.351   5.531   1.927  0.0005  0.0037  0.0838
 4407W        W 8471  10.139   0.476  10.024 -0.3382 -0.0418 -0.4216
 4408W        W 8472   0.373   3.635  10.098 -0.0674 -0.1133  0.1998
 4409W        W 8473   7.259   0.756   3.488  0.0809  0.0912  0.0615
 4410W        W 8474   9.239   4.268   1.907 -0.1790 -0.0052  0.1039
 4411W        W 8475   0.846   8.607   8.871  0.1895 -0.3356  0.1024
 4412W        W 8476   8.347   8.954   2.753 -0.1678 -0.1018 -0.0504
 4413W        W 8477   2.582   6.882  10.118 -0.1393  0.1590  0.1883
 4414W        W 8478   1.547   4.528   9.108 -0.1975 -0.0553  0.2606
 4415W        W 8479   6.764   4.988   1.696 -0.0762  0.0162 -0.0977
 4416W        W 8480   2.176   7.559   0.947  0.1323 -0.0632  0.3599
 4417W        W 8481   7.151   2.276   1.491  0.0545  0.1247  0.0004
 4418W        W 8482   7.752   5.117   2.123 -0.2301  0.2468  0.0790
 4419W        W 8483   4.555   9.259   1.237 -0.3470 -0.3434  0.0408
 4420W        W 8484   9.791   8.130   0.585 -0.1417 -0.0594 -0.0729
 4421W        W 8485   7.014   2.820  10.838 -0.1234  0.4254 -0.0690
 4422W        W 8486   4.540   1.916  10.534 -0.0775  0.0620 -0.1131
 4423W        W 8487   6.863   2.830   8.964 -0.1393  0.0942  0.1056
 4424W        W 8488  10.631   0.651   0.571  0.2703 -0.0553 -0.1676
 4425W        W 8489   2.299   2.078  10.616  0.1090  0.1156 -0.0721
 4426W        W 8490   6.226   3.866   2.178 -0.1172  0.1055 -0.1752
 4427W        W 8491   3.943   4.281   2.388 -0.2591  0.0397  0.3048
 4428W        W 8492   8.376   5.682   8.671  0.1720  0.1335 -0.0279
 4429W        W 8493   0.575  10.385   2.473  0.1522  0.1722  0.0817
 4430W        W 8494   3.424   5.125   9.928 -0.4027  0.2817  0.0473
 4431W        W 8495   3.875   4.700   8.104  0.0287 -0.1262  0.0819
 4432W        W 8496   5.400   0.203  10.219  0.1281 -0.2276  0.1116
 4433W        W 8497   2.754   4.106   0.128  0.0017 -0.1657  0.2861
 4434W        W 8498   2.209   6.182   0.033 -0.2986 -0.2977  0.2005
 4435W        W 8499   7.447   9.111   2.411  0.2031 -0.2408 -0.1040
 4436W        W 8500   0.202   0.065   9.856 -0.1555 -0.0006 -0.1399
 4437W        W 8501   8.535   0.441  10.480 -0.1544  0.1466  0.1654
 4438W        W 8502   5.939   3.432   3.204 -0.0275 -0.1016  0.4504
 4439W        W 8503  10.328   9.686   3.659  0.1166 -0.1276  0.2436
 4440W        W 8504  10.665   0.944   0.137  0.5177  0.0318  0.3444
 4441W        W 8505   5.582   1.654   1.555  0.2129 -0.2092  0.2111
 4442W        W 8506   5.398   0.199   9.340 -0.1776  0.0825 -0.2087
 4443W        W 8507   5.556   9.422   1.128 -0.0172  0.0250  0.0532
 4444W        W 8508   8.247   8.419   1.867 -0.0645 -0.1856 -0.0768
 4445W        W 8509   0.699   9.607  11.312 -0.1631  0.2239  0.4283
 4446W        W 8510   9.902   0.023   8.721  0.0218 -0.2584 -0.0359
 4447W        W 8511   5.536   5.067  10.566  0.3629  0.1426 -0.2399
 4448W        W 8512   3.452   5.040   8.140 -0.1208  0.1777  0.0175
 4449W        W 8513   7.618   5.182   0.989 -0.1213 -0.1692  0.0781
 4450W        W 8514   1.566   8.067   9.862 -0.2395 -0.2515  0.0153
 4451W        W 8515   1.394   0.951   2.945  0.2762  0.1468  0.2348
 4452W        W 8516   3.583   6.850   3.723 -0.1275  0.1964  0.2361
 4453W        W 8517   0.841   5.353   7.846  0.0919 -0.2832  0.0637
 4454W        W 8518   1.396   7.777   3.098 -0.0242 -0.1545 -0.0439
 4455W        W 8519   2.830   9.508   2.049  0.0276  0.0986  0.1637
 4456W        W 8520   0.181   5.343   9.504 -0.0571 -0.2297 -0.0185
 4457W        W 8521   2.399   5.628   8.645  0.1567  0.0246  0.0507
 4458W        W 8522   7.136   3.279   9.736 -0.4790  0.0060 -0.3262
 4459W        W 8523   4.892   6.878  11.243  0.0117 -0.2549  0.1827
 4460W        W 8524   5.921   3.805   8.603  0.0523  0.1424  0.0583
 4461W        W 8525   7.305   2.005   0.677 -0.0344 -0.1730 -0.0627
 4462W        W 8526   6.564   1.238   3.873  0.4682 -0.1480 -0.0323
 4463W        W 8527   5.054   6.684   9.241 -0.1039  0.2581 -0.3045
 4464W        W 8528   1.473   5.344   9.541 -0.2208 -0.1662 -0.0739
 4465W        W 8529   7.323   6.350  10.355  0.0687  0.1658 -0.1491
 4466W        W 8530   8.525   8.070  11.219  0.1568  0.0346 -0.0324
 4467W        W 8531  10.251   1.567   8.508 -0.1027  0.2720  0.2622
 4468W        W 8532   2.240   7.435  10.872  0.1232 -0.1661 -0.1335
 4469W        W 8533   4.605   7.587   3.598 -0.1727 -0.3932  0.1082
 4470W        W 8534  10.265   4.822   0.466 -0.0613 -0.1011 -0.1031
 4471W        W 8535   0.403   2.133   0.663 -0.5592  0.0625 -0.0056
 4472W        W 8536   7.775   9.865   1.085  0.0655  0.0568 -0.2428
 4473W        W 8537   5.877   7.280   2.685 -0.0770  0.1214 -0.2775
 4474W        W 8538   3.183   7.858  10.338  0.1551  0.0029 -0.0772
 4475W        W 8539   0.147   5.826   9.416  0.1971  0.1059  0.1304
 4476W        W 8540   2.509   9.548   1.592 -0.2008 -0.2288  0.0248
 4477W        W 8541   3.128   2.185   0.744  0.1155  0.2676 -0.2922
 4478W        W 8542  10.246   1.251   3.083  0.2564 -0.2604 -0.1387
 4479W        W 8543  10.039   9.504   8.945  0.3933  0.1373 -0.1151
 4480W        W 8544   2.394   2.735  11.332  0.0522  0.0995  0.2013
 4481W        W 8545   0.773   3.536   9.787  0.0245  0.3209 -0.0077
 4482W        W 8546   8.583   0.549   1.032 -0.1684 -0.1156  0.1627
 4483W        W 8547   8.281   6.337  10.886  0.2068 -0.0470 -0.0137
 4484W        W 8548   3.613   1.782   1.656 -0.2105 -0.0661  0.0496
 4485W        W 8549   5.887   4.968   1.269  0.0513  0.0210 -0.2765
 4486W        W 8550   4.334   5.582  11.062  0.1847 -0.3269  0.1452
 4487W        W 8551   4.861   5.013   2.288 -0.0434  0.1219  0.1745
 4488W        W 8552   7.643   5.174  10.896  0.2839  0.1651  0.0752
 4489W        W 8553   9.991   1.482  11.404 -0.1789 -0.1398  0.0719
 4490W        W 8554   2.359   6.558   8.749 -0.2695 -0.0597  0.3012
 4491W        W 8555   4.413   4.767   0.095 -0.1003 -0.1902  0.0852
 4492W        W 8556   3.523   7.839  10.702  0.1550  0.1704 -0.3181
 4493W        W 8557   3.592   0.581   9.952  0.0063  0.0988  0.1095
 4494W        W 8558   8.265   8.632   0.278 -0.3250 -0.0319  0.0129
 4495W        W 8559   6.505   8.132  10.419  0.0294  0.1017  0.1090
 4496W        W 8560   4.031   2.769   3.391  0.3327  0.1212  0.0677
 4497W        W 8561   2.478   1.501  10.022 -0.1179 -0.0255  0.3763
 4498W        W 8562   2.237   9.249   2.214 -0.0900 -0.0413 -0.0533
 4499W        W 8563   4.384   6.725   0.110  0.1785  0.1399 -0.2036
 4500W        W 8564   6.294   4.830   9.058 -0.0718 -0.1016 -0.1691
 4501W        W 8565   8.654   6.415   8.179 -0.0965  0.1124 -0.0637
 4502W        W 8566   7.379   2.984   2.454 -0.2918  0.4480 -0.0273
 4503W        W 8567   0.580   5.050   2.651 -0.1905 -0.0819 -0.0706
 4504W        W 8568   1.174   7.976   2.722 -0.0687 -0.1959  0.0333
 4505W        W 8569   8.309   1.270   3.615  0.0999 -0.1453  0.0366
 4506W        W 8570   4.201   2.326   0.451 -0.0209 -0.3289 -0.1966
 4507W        W 8571   8.633   2.357  10.041 -0.2023 -0.3597  0.2265
 4508W        W 8572   9.549   1.056   2.012 -0.0932  0.0167  0.1416
 4509W        W 8573   5.306   3.964   7.709 -0.0258 -0.2128  0.1623
 4510W        W 8574   4.200  10.684   2.928 -0.0088 -0.0207 -0.1336
 4511W        W 8575  10.031   6.509   0.639  0.1309 -0.0916  0.0712
 4512W        W 8576   0.378   6.134   7.876  0.3207 -0.2119  0.1642
 4513W        W 8577   4.705   4.348   9.148 -0.1223 -0.2543  0.0729
 4514W        W 8578   3.220   9.454   1.170  0.4173  0.3376 -0.2001
 4515W        W 8579   3.343   1.507   7.824 -0.1399  0.2871  0.1676
 4516W        W 8580   7.015   8.724   1.807  0.2127 -0.0856  0.0341
 4517W        W 8581   9.425   3.135   1.318 -0.0620 -0.2010 -0.0312
 4518W        W 8582   5.801   4.515   1.124  0.2690  0.2055 -0.2285
 4519W        W 8583   3.832   5.086   0.820  0.2441  0.1904  0.2370
 4520W        W 8584   7.415   0.097   9.057  0.2489  0.1027  0.0226
 4521W        W 8585   4.439   3.553   2.923 -0.1655  0.0453 -0.0103
 4522W        W 8586   3.638   6.436   9.589 -0.0012 -0.0067 -0.1543
 4523W        W 8587   8.752   1.090   9.903  0.0673  0.2498 -0.0684
 4524W        W 8588   3.582   7.086   8.213  0.2210  0.0366 -0.1265
 4525W        W 8589   4.092   1.662  10.448  0.1636 -0.3196 -0.0812
 4526W        W 8590   3.712   8.078   8.574 -0.0763  0.0478  0.2481
 4527W        W 8591   6.295   7.837   9.188  0.0556 -0.1777 -0.1227
 4528W        W 8592   6.663   5.388   7.452  0.1170 -0.0199  0.1499
 4529W        W 8593   3.293   0.973   3.895  0.0510 -0.0534  0.3206
 4530W        W 8594   0.741  10.704   2.073  0.0393 -0.1947  0.0984
 4531W        W 8595   3.578   9.911   1.819 -0.0154 -0.1389  0.0859
 4532W        W 8596   6.208   3.156   2.730 -0.3186 -0.2534  0.2298
 4533W        W 8597   8.751   8.011   9.720 -0.1043  0.2147  0.2100
 4534W        W 8598   9.030  10.228  11.136 -0.1383 -0.2738 -0.1707
 4535W        W 8599   6.770   3.125   1.672 -0.2391 -0.2584 -0.2082
 4536W        W 8600   1.220   4.502   2.924  0.2218 -0.1491  0.0468
 4537W        W 8601   9.198   2.169   0.397 -0.0731 -0.0548  0.2515
 4538W        W 8602   1.960   1.069   0.452  0.0568 -0.0938 -0.2168
 4539W        W 8603  10.037   7.689   1.461 -0.0093 -0.1171  0.1412
 4540W        W 8604   2.118   2.318  11.213 -0.0509  0.2230 -0.1145
 4541W        W 8605   0.879   5.939   0.615  0.2606 -0.2758  0.0886
 4542W        W 8606   3.813  10.455   1.387  0.2077 -0.1993 -0.0517
 4543W        W 8607   2.847   8.704   8.064 -0.2675  0.0581  0.0231
 4544W        W 8608   9.909   6.925  10.881  0.1083  0.0406  0.0703
 4545W        W 8609   5.294   8.773   9.259  0.2728 -0.2285 -0.0737
 4546W        W 8610   8.069   0.429   1.030  0.0534 -0.1087  0.1432
 4547W        W 8611   5.096   1.935   0.506 -0.3928 -0.1845  0.2281
 4548W        W 8612   3.698   1.798   2.140 -0.0783  0.1892  0.1123
 4549W        W 8613  10.141   5.331   2.493  0.3095  0.2953 -0.3191
 4550W        W 8614   4.242   9.527   8.476  0.0417  0.1217 -0.0451
 4551W        W 8615   7.425   6.021   7.912  0.2485  0.2990 -0.0826
 4552W        W 8616   6.378   2.838   1.019 -0.2136  0.0886 -0.1941
 4553W        W 8617   7.839   6.433   9.118 -0.1815  0.0380  0.1688
 4554W        W 8618   1.594  10.525   0.927  0.0016  0.0692  0.3499
 4555W        W 8619   5.185   4.435   0.174 -0.0304  0.1366 -0.2430
 4556W        W 8620   9.966   6.091  10.331  0.2980 -0.2398 -0.0250
 4557W        W 8621   2.367   4.940   9.473 -0.2010 -0.3717  0.1347
 4558W        W 8622   0.273   6.595   1.671  0.3184  0.1118 -0.1175
 4559W        W 8623   9.124   3.560   3.278 -0.0915 -0.2281  0.2237
 4560W        W 8624   1.165   3.326   0.779  0.0598 -0.1186  0.0300
 4561W        W 8625   4.283   2.864   0.558 -0.0229 -0.2411 -0.0794
 4562W        W 8626   4.524   5.502   0.786 -0.0078  0.0611  0.1550
 4563W        W 8627   8.195  10.002  11.296  0.2425  0.1846  0.2751
 4564W        W 8628   4.320   6.702   2.135 -0.0555 -0.4851  0.2164
 4565W        W 8629   6.486   8.601   0.655  0.2777  0.0628 -0.2413
 4566W        W 8630   0.925   7.900   1.313  0.0504 -0.1027 -0.0123
 4567W        W 8631   2.324   4.399   7.118  0.0633 -0.2421  0.0891
 4568W        W 8632   5.098   9.821  10.355 -0.1998 -0.0330 -0.0439
 4569W        W 8633   8.540   8.988   1.160  0.0169  0.2049 -0.0896
 4570W        W 8634   9.027   1.990   0.861 -0.1019  0.0946  0.1259
 4571W        W 8635   4.106   1.155  10.275 -0.3592  0.2473 -0.0245
 4572W        W 8636  10.464   1.605   3.383 -0.4044 -0.0291 -0.1532
 4573W        W 8637   7.238   9.121   8.492 -0.2516  0.0364 -0.0374
 4574W        W 8638   3.024   9.069   2.120  0.1306  0.0292 -0.0548
 4575W        W 8639   7.128   5.612   2.588 -0.1370 -0.4086  0.3891
 4576W        W 8640   4.632   4.761   1.823  0.4002 -0.1069 -0.1712
 4577W        W 8641   1.971   4.902   0.415 -0.3080  0.0661 -0.0731
 4578W        W 8642   4.600   6.478  10.510  0.1877 -0.0008 -0.1605
 4579W        W 8643   5.994   5.403  10.367  0.0955 -0.0236  0.3195
 4580W        W 8644   2.442   2.642   3.213  0.2013  0.6358 -0.0822
 4581W        W 8645   4.143   5.424   1.610  0.1657  0.3039  0.1692
 4582W        W 8646   4.768   8.440   1.583  0.1145 -0.0273  0.2608
 4583W        W 8647   3.309   8.919   0.274  0.3399  0.0413  0.0662
 4584W        W 8648   4.743   1.782   1.032  0.0881  0.0714 -0.1115
 4585W        W 8649   8.969   6.810   1.335 -0.0582 -0.1649 -0.1654
 4586W        W 8650   7.923   0.343   9.587  0.3418  0.2201  0.0218
 4587W        W 8651   2.992   0.164   7.697 -0.3390 -0.3321 -0.1603
 4588W        W 8652   5.696  10.261   1.543  0.0123 -0.2657 -0.0745
 4589W        W 8653   1.101   5.008   0.186 -0.0836  0.1097 -0.3884
 4590W        W 8654   7.065   6.785   0.759  0.2857  0.3411 -0.0306
 4591W        W 8655   4.772   9.020   3.798  0.2685 -0.1559 -0.0443
 4592W        W 8656  10.676   3.183   3.005 -0.2179  0.5683  0.1269
 4593W        W 8657   0.010   9.905   3.278  0.0621  0.0631 -0.0172
 4594W        W 8658   9.301   0.177   2.158 -0.1740 -0.3193 -0.0811
 4595W        W 8659  10.115   7.898   7.685  0.1290  0.2840  0.0322
 4596W        W 8660   3.101   9.561   2.462  0.1972 -0.0173 -0.3110
 4597W        W 8661   7.511   0.489   9.874 -0.0509  0.0974 -0.0919
 4598W        W 8662   0.806   0.884   0.732 -0.1806  0.0793  0.0605
 4599W        W 8663   2.038  10.712   7.902 -0.0709  0.1971 -0.0450
 4600W        W 8664   6.301  10.271   0.270  0.0167  0.0644  0.0530
 4601W        W 8665   4.054   6.829  11.138  0.3208 -0.0594 -0.1315
 4602W        W 8666   3.186   9.628   9.870  0.2373 -0.0491  0.2269
 4603W        W 8667   7.201   2.069   9.951 -0.0210  0.1387 -0.2153
 4604W        W 8668   8.367   7.316  10.184  0.0026 -0.1137  0.1259
 4605W        W 8669   9.129   3.951  10.932  0.0071 -0.2115 -0.0572
 4606W        W 8670   2.166   0.208   9.621  0.1438  0.1234  0.2576
 4607W        W 8671   5.278   7.434  10.559 -0.0743  0.0800  0.1655
 4608W        W 8672   9.963   3.804  10.984 -0.3381  0.0840 -0.2124
 4609W        W 8673   3.886   6.194  10.031 -0.1094 -0.1133 -0.0946
 4610W        W 8674   7.718   9.588   3.341  0.0766 -0.0963 -0.0596
 4611W        W 8675   1.039   7.320   0.392 -0.0053  0.0227  0.1303
 4612W        W 8676   1.294   6.003   2.682 -0.0607  0.4207  0.1753
 4613W        W 8677   9.262  10.467   0.377 -0.3065  0.0548 -0.2245
 4614W        W 8678   0.441   4.849   9.489 -0.3117 -0.1024  0.0724
 4615W        W 8679   9.901   3.675  10.334  0.1439  0.1013 -0.1125
 4616W        W 8680   0.865   7.615   1.762  0.0367 -0.0192 -0.2407
 4617W        W 8681   2.685   8.768   2.388 -0.0006 -0.1228 -0.1275
 4618W        W 8682   0.225   8.533   2.686 -0.1512  0.1389  0.0431
 4619W        W 8683   5.928   9.605  10.149  0.0282 -0.0613 -0.3347
 4620W        W 8684   6.852   7.045   1.170 -0.3789 -0.2433 -0.0876
 4621W        W 8685   0.694   0.525  11.147 -0.1683  0.2739 -0.2304
 4622W        W 8686   6.157   6.080   9.602  0.0228 -0.3436 -0.0797
 4623W        W 8687   3.988   9.293   2.544 -0.1661 -0.1130  0.1508
 4624W        W 8688   0.137   7.998   8.682 -0.0724  0.4944 -0.2280
 4625W        W 8689   9.856   1.368  10.922 -0.1206 -0.2874  0.0616
 4626W        W 8690   2.598   3.032   4.186 -0.2421  0.0924 -0.0558
 4627W        W 8691   1.732   7.711   1.253  0.0330 -0.0028  0.5006
 4628W        W 8692   7.409   0.636   2.521 -0.0734 -0.3807  0.0540
 4629W        W 8693  10.222   2.215   9.076  0.0756  0.1496  0.0617
 4630W        W 8694   6.305  10.496   8.399  0.0271 -0.0277 -0.2730
 4631W        W 8695   0.354   7.772  11.312  0.0425 -0.2039 -0.0036
 4632W        W 8696   5.820   8.977  10.258 -0.1526 -0.1427  0.4030
 4633W        W 8697   9.137   0.900   3.483 -0.1893 -0.3729 -0.0064
 4634W        W 8698   7.197   0.728   7.412  0.2837  0.2168 -0.1230
 4635W        W 8699   3.817   6.050   9.266  0.0601  0.1017 -0.2081
 4636W        W 8700   6.286   2.688   2.911 -0.2067 -0.0240  0.0024
 4637W        W 8701   0.745   2.495   0.955 -0.1242 -0.0298  0.0102
 4638W        W 8702   1.515   4.402   3.274  0.0313 -0.0314  0.3862
 4639W        W 8703   8.357   8.264   9.931 -0.3445  0.2423  0.2129
 4640W        W 8704  10.230   5.384  11.019  0.2844 -0.2309  0.1927
 4641W        W 8705   0.602  10.258   8.309  0.2560  0.3042 -0.2237
 4642W        W 8706   6.568   3.560   8.702  0.1354  0.2664  0.1188
 4643W        W 8707   4.639  10.280   2.945 -0.0798 -0.2337 -0.1849
 4644W        W 8708   3.405   0.481  10.766  0.2043  0.2916  0.0145
 4645W        W 8709   3.911   3.344   0.405 -0.2449  0.0096  0.3097
 4646W        W 8710   3.784   9.183  10.583 -0.3347  0.3260  0.1841
 4647W        W 8711   9.151  10.046   8.437  0.0984 -0.7064 -0.2492
 4648W        W 8712   6.315   9.826   3.287  0.1513 -0.1437  0.0905
 4649W        W 8713   9.406   6.693   8.521  0.3379 -0.2176  0.1276
 4650W        W 8714   7.708   6.648   2.897  0.1183 -0.0158  0.0021
 4651W        W 8715   7.889   2.511   1.467  0.1028 -0.1480  0.0967
 4652W        W 8716   1.502   5.947   3.237 -0.3244  0.3458 -0.0562
 4653W        W 8717   7.139   2.598   9.846 -0.2776  0.3226  0.2122
 4654W        W 8718   0.849   6.547   9.802  0.1529 -0.2369  0.0457
 4655W        W 8719   3.091   5.691   1.913  0.1080  0.2640 -0.1983
 4656W        W 8720  10.167   5.044   0.859  0.0591 -0.0132  0.4588
 4657W        W 8721  10.213   0.969  10.645 -0.0638  0.0284 -0.1483
 4658W        W 8722   4.122   3.061  11.355 -0.4003  0.1605 -0.1734
 4659W        W 8723   6.065   7.783   2.437 -0.2094  0.3102 -0.0046
 4660W        W 8724   3.534   3.851   3.105 -0.1356 -0.0912  0.0456
 4661W        W 8725   1.820   5.143   9.249  0.0314  0.0950 -0.2347
 4662W        W 8726   3.265   8.007   0.098 -0.1248  0.0809  0.2785
 4663W        W 8727   4.538   2.845   0.146  0.0875  0.0276 -0.1772
 4664W        W 8728   8.082   3.801   0.128  0.1308  0.0904  0.2643
 4665W        W 8729   8.899   5.940   2.430  0.1672  0.0145  0.0241
 4666W        W 8730   4.951   0.490  10.124  0.2178  0.0191  0.1598
 4667W        W 8731  10.565   0.584   3.438  0.1623  0.0445 -0.2407
 4668W        W 8732   2.389   0.789   1.954 -0.2618 -0.4133  0.2626
 4669W        W 8733   0.341   9.405   2.191 -0.2622 -0.2148  0.2712
 4670W        W 8734   4.660  10.456   0.228  0.0796  0.0641 -0.1190
 4671W        W 8735   8.875   8.270   0.090  0.1022 -0.2417 -0.0367
 4672W        W 8736   4.248   5.401   0.174  0.1303  0.2539 -0.2472
 4673W        W 8737   8.970   1.772   1.849 -0.0881 -0.0966  0.4686
 4674W        W 8738   1.646   9.386   9.675  0.1854 -0.1995 -0.1391
 4675W        W 8739   5.100   6.356   3.174  0.2564  0.2039  0.0824
 4676W        W 8740   2.883   9.102   9.264  0.1191 -0.3399  0.0884
 4677W        W 8741   6.157   7.975   7.908 -0.0102 -0.1099  0.2587
 4678W        W 8742   4.226   1.616   2.294 -0.3789  0.2239 -0.2627
 4679W        W 8743   4.805   2.979   9.389 -0.2910 -0.0594 -0.1159
 4680W        W 8744   7.571   1.563  11.262 -0.0015 -0.0083 -0.0497
 4681W        W 8745   5.769   2.792   1.774 -0.0483  0.1362 -0.0106
 4682W        W 8746   4.224   0.697   3.418 -0.3000  0.2232  0.0441
 4683W        W 8747   5.312   4.360   9.087  0.0619  0.4050  0.0074
 4684W        W 8748   7.790   8.848   2.685  0.2046 -0.0369  0.2016
 4685W        W 8749   6.313   9.110  10.161  0.2013  0.1300 -0.0907
 4686W        W 8750   5.619   6.245  11.368 -0.1081 -0.1049  0.5345
 4687W        W 8751   8.565   4.547   9.262  0.2168 -0.4433  0.0318
 4688W        W 8752   0.610   9.252   8.293 -0.2959  0.2766  0.0837
 4689W        W 8753   8.335   7.547   1.074  0.2112 -0.1559  0.0021
 4690W        W 8754   8.222   9.651  10.897 -0.2150  0.0910  0.2741
 4691W        W 8755   9.755   9.948  10.613  0.1232 -0.0254 -0.0494
 4692W        W 8756  10.182   8.094   0.290  0.3323 -0.2699  0.0905
 4693W        W 8757   2.732   1.752   8.714  0.0214  0.0719 -0.0098
 4694W        W 8758   3.072  10.281  10.495  0.1823  0.0602  0.3151
 4695W        W 8759   4.071   1.381   1.463  0.2520 -0.3773  0.0407
 4696W        W 8760   7.710   7.303   7.919  0.1672 -0.3780 -0.1357
 4697W        W 8761   7.977   9.072   2.187 -0.1616  0.3938 -0.1880
 4698W        W 8762   6.880  10.066   0.510  0.2496  0.0889  0.0553
 4699W        W 8763   5.251   8.780   9.971 -0.3141  0.0734  0.0735
 4700W        W 8764   9.413   3.829   9.208  0.1610  0.2811  0.0659
 4701W        W 8765   6.733   4.020   2.858  0.0281  0.0858  0.0059
 4702W        W 8766   7.117   7.031   1.576  0.1477  0.1362 -0.1312
 4703W        W 8767   3.104   6.333  10.481 -0.2328 -0.0412  0.0438
 4704W        W 8768   2.779   0.534   2.746 -0.0262  0.2487  0.1113
 4705W        W 8769   8.445   9.254   1.955  0.1804 -0.3285  0.2087
 4706W        W 8770   9.021   0.500   9.173 -0.0017 -0.1978 -0.0354
 4707W        W 8771   9.906   9.858   1.476 -0.2085 -0.1365  0.0809
 4708W        W 8772   5.614   0.442   3.212 -0.0809  0.1261 -0.1791
 4709W        W 8773   7.432   9.407   0.544  0.0937 -0.3040 -0.1759
 4710W        W 8774   4.536   1.196  10.009 -0.1609  0.2878 -0.5500
 4711W        W 8775   0.933   1.351   9.503  0.2738 -0.3106  0.3808
 4712W        W 8776   8.181  10.389   2.910  0.0712  0.1142 -0.0854
 4713W        W 8777  10.609  10.540   0.368 -0.1923  0.0753 -0.0449
 4714W        W 8778   4.534   8.466   7.132  0.2380 -0.1177  0.2397
 4715W        W 8779   9.550   1.363   9.733  0.2105 -0.2214 -0.1440
 4716W        W 8780   4.875   9.002  11.097 -0.2674 -0.0223  0.2641
 4717W        W 8781   5.636   3.550  10.440  0.1276  0.0574  0.0264
 4718W        W 8782   6.347   1.115   8.872  0.1020 -0.1472 -0.0988
 4719W        W 8783   2.283   8.432   4.062  0.2233  0.4526 -0.0827
 4720W        W 8784   0.811   9.267   1.939  0.1622  0.1395 -0.2014
 4721W        W 8785   2.786   6.568   0.472  0.1384  0.1586 -0.4581
 4722W        W 8786   6.303   5.130  10.911 -0.1015 -0.1245  0.2815
 4723W        W 8787   9.387   4.170   0.696 -0.0399 -0.1313 -0.1921
 4724W        W 8788   0.081   0.520  10.701  0.3385 -0.2265 -0.1212
 4725W        W 8789  10.613   5.714   0.614  0.1942 -0.3066 -0.1866
 4726W        W 8790   8.906   9.781  10.485  0.2519  0.0160  0.0248
 4727W        W 8791   5.753  10.593   8.247 -0.0456  0.1979  0.2485
 4728W        W 8792  10.476   5.231   1.168 -0.3396  0.1020 -0.1176
 4729W        W 8793   1.532   8.771   0.332 -0.0581 -0.0801  0.1506
 4730W        W 8794   7.386   0.726   7.945 -0.2282  0.2186 -0.2646
 4731W        W 8795   9.140   7.406  10.546 -0.1854  0.3314 -0.0519
 4732W        W 8796   9.049   9.930   9.415  0.0215 -0.6861  0.1002
 4733W        W 8797   6.621   8.290   2.626 -0.1610  0.0756  0.2542
 4734W        W 8798   2.569   8.472  11.400 -0.0922 -0.2908  0.0805
 4735W        W 8799   4.334   6.086   2.756 -0.0186 -0.0600  0.3050
 4736W        W 8800  10.385   2.682   1.011  0.0655  0.1350  0.2163
 4737W        W 8801   2.639   1.278   8.492 -0.0112  0.0607 -0.0420
 4738W        W 8802   2.652   3.052   9.609  0.1304  0.5092 -0.0616
 4739W        W 8803   4.193   5.273   1.109 -0.4553  0.1260 -0.2961
 4740W        W 8804   8.259   7.190   2.659  0.2146 -0.2167  0.1609
 4741W        W 8805   7.785   6.799   7.842  0.0754 -0.0497 -0.1699
 4742W        W 8806   1.319  10.268   3.598  0.2549 -0.1301  0.2692
 4743W        W 8807   1.052   4.857   2.092  0.3050  0.0922  0.1807
 4744W        W 8808   6.154   4.097   3.080 -0.2523  0.0164  0.3314
 4745W        W 8809  10.565   9.881  11.191 -0.0078  0.5367  0.0829
 4746W        W 8810   5.964  10.009   2.946 -0.0316  0.1186  0.0798
 4747W        W 8811   3.036   1.513   9.118  0.0083 -0.1458  0.1412
 4748W        W 8812   1.515   3.072  10.849 -0.1492 -0.1422  0.0870
 4749W        W 8813   3.472  10.463   0.927 -0.4533 -0.2233 -0.2034
 4750W        W 8814   1.899   9.391   0.865 -0.1016 -0.2586  0.0400
 4751W        W 8815   3.223   0.140   9.476 -0.1691 -0.0178  0.0453
 4752W        W 8816   1.804   3.787   2.467  0.2493  0.2003 -0.1958
 4753W        W 8817   5.926   2.801   1.287 -0.0770  0.2747 -0.4324
 4754W        W 8818   1.834   4.889   0.902 -0.0782  0.0107 -0.3218
 4755W        W 8819   9.857   0.531   8.632  0.1335 -0.0759  0.4222
 4756W        W 8820   5.563   0.200   8.844  0.1288  0.0400 -0.1118
 4757W        W 8821   6.648   7.284  10.241  0.1443 -0.3212 -0.0512
 4758W        W 8822   6.149   9.234   1.379 -0.1525 -0.1313 -0.2302
 4759W        W 8823   1.569  10.686   3.545 -0.2024  0.0665  0.1968
 4760W        W 8824   9.130   3.046   3.150  0.0037  0.0201 -0.3557
 4761W        W 8825   9.766   9.917   0.451 -0.1212 -0.0293 -0.1610
 4762W        W 8826   0.598   1.227   2.954 -0.0642 -0.5474  0.0977
 4763W        W 8827   0.735   6.875   3.429  0.1374 -0.0309 -0.0459
 4764W        W 8828   8.066   6.037   9.818  0.0481  0.0562 -0.2088
 4765W        W 8829   0.430   1.346   2.491  0.1559  0.1216  0.1100
 4766W        W 8830   3.155   7.882   7.592  0.0083 -0.0618  0.1033
 4767W        W 8831   4.758   5.796   1.036 -0.0012  0.2011 -0.0353
 4768W        W 8832   2.522   8.797   8.615 -0.2287 -0.0096 -0.3895
 4769W        W 8833   6.247   6.100   7.898  0.2180  0.1100 -0.1503
 4770W        W 8834   5.249   5.316  11.095  0.0351  0.2387  0.0251
 4771W        W 8835   3.180   3.799   0.254 -0.1599  0.0904  0.2867
 4772W        W 8836   2.658   9.305   8.752 -0.4084 -0.0763 -0.0235
 4773W        W 8837   8.546   4.490   1.203 -0.0044 -0.0518 -0.0380
 4774W        W 8838   0.294  10.645   8.343 -0.2783  0.0394 -0.0105
 4775W        W 8839   8.106   5.266   1.247  0.0680 -0.1758 -0.0520
 4776W        W 8840   3.911   9.331   8.149  0.1453  0.4595 -0.1052
 4777W        W 8841   2.524   1.018   0.402  0.0609  0.1730 -0.1606
 4778W        W 8842   3.772   9.647   3.875  0.0301 -0.0239 -0.1692
 4779W        W 8843  10.637   9.776   7.910 -0.0881 -0.3449  0.1681
 4780W        W 8844   3.398   4.256   9.381  0.3164  0.2921 -0.0599
 4781W        W 8845   8.763   4.116   9.934  0.2346  0.1960  0.2948
 4782W        W 8846   7.903   7.583  10.021 -0.1300 -0.1653 -0.1524
 4783W        W 8847   9.395   9.214   1.026  0.0635  0.6893  0.0589
 4784W        W 8848   2.509   6.167   8.416 -0.1138 -0.3277 -0.5152
 4785W        W 8849   3.763   2.739   1.145 -0.1070  0.1347 -0.0742
 4786W        W 8850   9.846   6.854   7.726  0.1323  0.0688 -0.1530
 4787W        W 8851   2.905   9.726   0.398 -0.2883  0.6072 -0.2188
 4788W        W 8852   9.047   5.314   2.710 -0.3975 -0.0750 -0.2385
 4789W        W 8853  10.112   8.344   2.160  0.1639 -0.1450  0.1595
 4790W        W 8854   7.930   3.509   1.671 -0.0503  0.0655 -0.0002
 4791W        W 8855   1.653   3.354   0.210  0.5668  0.1003  0.1979
 4792W        W 8856  10.490   0.877   1.781  0.0403  0.1593 -0.1656
 4793W        W 8857   7.977   9.491  11.346  0.0372 -0.0755 -0.1393
 4794W        W 8858   4.226   2.014   2.732  0.1770  0.5060 -0.2723
 4795W        W 8859   3.907   3.767   9.023  0.1268 -0.0030 -0.0720
 4796W        W 8860   7.524   7.821   2.682  0.2543 -0.2688  0.0871
 4797W        W 8861   0.896   9.073   2.667  0.0375  0.0339  0.4519
 4798W        W 8862   3.964   7.900   1.154  0.2124  0.3265  0.3260
 4799W        W 8863  10.034   6.630   8.666 -0.0792 -0.1500  0.2313
 4800W        W 8864   8.811   8.565   2.571 -0.2565 -0.0011  0.0021
 4801W        W 8865  10.175   6.643  10.491  0.1513 -0.3385 -0.1112
 4802W        W 8866   9.392   3.152  10.977 -0.1207  0.1994  0.0121
 4803W        W 8867   0.459  10.027   9.684 -0.3236  0.2201 -0.0769
 4804W        W 8868   9.895   0.748   1.388  0.1679 -0.0199 -0.0730
 4805W        W 8869   1.096   9.609   2.931 -0.1890 -0.1614  0.0618
 4806W        W 8870   7.991   2.573   9.689 -0.0676  0.0849 -0.1596
 4807W        W 8871   1.096   9.459   2.439  0.0823 -0.1772  0.2082
 4808W        W 8872   9.256   1.572   9.321  0.1050  0.0077  0.4908
 4809W        W 8873   6.997   6.637   2.035 -0.1512 -0.0313  0.1834
 4810W        W 8874   7.303   9.434   2.791  0.2031 -0.0567  0.2548
 4811W        W 8875   6.991   3.784   8.848  0.2047 -0.0321  0.0328
 4812W        W 8876   9.798   0.691   2.263 -0.3445  0.1469 -0.2156
 4813W        W 8877   9.543   7.478   2.997  0.2128  0.1614  0.1183
 4814W        W 8878   5.917   3.722  10.862 -0.1263  0.2114  0.1023
 4815W        W 8879   1.529   9.750   7.945 -0.0399  0.2015 -0.0652
 4816W        W 8880   6.577   7.228   1.710 -0.4933 -0.3915  0.3654
 4817W        W 8881   8.883   4.806   2.520  0.1286 -0.0143  0.0155
 4818W        W 8882   5.876   2.450  11.295  0.2862 -0.2250  0.2946
 4819W        W 8883   2.846   4.795   9.277 -0.1982 -0.2202 -0.2797
 4820W        W 8884   1.518   5.138  10.080  0.2145 -0.1284  0.1541
 4821W        W 8885   6.489   3.586  11.235  0.0391  0.0959  0.2797
 4822W        W 8886   7.467  10.604  11.263  0.0509 -0.3382 -0.0930
 4823W        W 8887  10.042   1.345   3.511 -0.1182  0.1142 -0.1698
 4824W        W 8888   8.576   3.863  10.320  0.2433 -0.0517  0.1194
 4825W        W 8889   0.471   9.598   0.355  0.2202  0.4298 -0.1091
 4826W        W 8890   4.124   0.369  11.103 -0.1879  0.1376  0.1409
 4827W        W 8891   0.826   4.148   2.365 -0.3745  0.0829 -0.2585
 4828W        W 8892  10.050   5.468   1.390 -0.0110  0.0072 -0.0659
 4829W        W 8893   4.104   3.869   8.045 -0.0798 -0.0582  0.2068
 4830W        W 8894   9.127   8.751  11.295 -0.1149 -0.1630  0.4323
 4831W        W 8895   7.561   2.431   1.041 -0.0561  0.2679  0.1901
 4832W        W 8896   1.294   5.102   9.081 -0.3053  0.1277  0.1341
 4833W        W 8897   7.720   1.874   0.236  0.2486 -0.0542 -0.0773
 4834W        W 8898   3.605   6.511  11.324  0.1824 -0.0379 -0.0272
 4835W        W 8899   3.919   2.472   2.693  0.1484  0.3425  0.0953
 4836W        W 8900   4.431   2.917   7.975  0.2237 -0.1927 -0.0654
 4837W        W 8901   7.093   1.511   2.490  0.3381 -0.4129 -0.0477
 4838W        W 8902   0.198   3.558   9.622 -0.0372  0.3051 -0.2174
 4839W        W 8903   7.162   6.541   8.597  0.3378 -0.1524  0.0430
 4840W        W 8904   5.608   8.426   8.570 -0.1199 -0.0266  0.3378
 4841W        W 8905   1.530   7.919   2.314 -0.1228 -0.1892 -0.0068
 4842W        W 8906  10.637   7.120   2.820  0.1546 -0.3013 -0.1426
 4843W        W 8907   6.585   4.368   3.219  0.0495  0.0981 -0.0506
 4844W        W 8908   3.590  10.358   8.749 -0.0781 -0.1023  0.0666
 4845W        W 8909   2.091   8.877   1.897 -0.1554 -0.1735  0.0562
 4846W        W 8910   0.923   2.856   0.618  0.3457 -0.1801  0.1495
 4847W        W 8911   3.345   4.550   8.867  0.1782 -0.0226  0.0092
 4848W        W 8912   5.465   6.592  10.683  0.2180  0.1169  0.0195
 4849W        W 8913   4.244   9.992  10.026 -0.3128  0.3778  0.0120
 4850W        W 8914   8.795   6.570   3.733  0.0368 -0.2384  0.2200
 4851W        W 8915   9.140   1.195   2.716 -0.2271  0.2378  0.3507
 4852W        W 8916   6.065   7.389  11.339  0.0156  0.4115 -0.4188
 4853W        W 8917   5.736   7.069   9.360 -0.3027 -0.1727  0.0536
 4854W        W 8918   5.269   9.524   2.140  0.1255  0.4601 -0.2013
 4855W        W 8919   0.961   6.942   2.607  0.3202 -0.0148  0.0427
 4856W        W 8920  10.218   2.813   2.625  0.1474 -0.0089  0.0532
 4857W        W 8921   2.437   5.830   9.254  0.0715 -0.1909 -0.0312
 4858W        W 8922   5.271   7.520   0.956 -0.3794  0.2389  0.3027
 4859W        W 8923   2.966   1.410   2.709  0.2136 -0.0600 -0.1426
 4860W        W 8924  10.198   9.791  10.348  0.2757  0.1669  0.0160
 4861W        W 8925   6.489   6.830  10.761 -0.1982  0.0861  0.0535
 4862W        W 8926   0.466   6.250   1.976  0.2809 -0.1701 -0.1483
 4863W        W 8927   2.674   7.366   1.562  0.1196  0.1174 -0.1953
 4864W        W 8928   6.773   6.870   2.411 -0.1121  0.0290 -0.0956
 4865W        W 8929   1.563   8.282   0.043  0.2401  0.0711 -0.0089
 4866W        W 8930   1.666   7.307   1.566  0.0063 -0.0490  0.0677
 4867W        W 8931   0.314   4.550   1.237  0.0733  0.3216 -0.0046
 4868W        W 8932   5.678  10.347   9.837 -0.0279  0.1631  0.3223
 4869W        W 8933   9.563   6.265   3.016  0.1642  0.2480 -0.1426
 4870W        W 8934   6.525   8.409  11.359 -0.0712 -0.0469 -0.0152
 4871W        W 8935   0.189   4.243   2.809 -0.0756 -0.1129 -0.1621
 4872W        W 8936   9.433   2.941  10.264  0.1657  0.0629  0.2073
 4873W        W 8937   0.966  10.212  10.432  0.2341  0.1057  0.1231
 4874W        W 8938  10.615   5.109  11.017 -0.1076  0.0647 -0.1568
 4875W        W 8939   2.138   2.221   3.273 -0.0135  0.2282 -0.5151
 4876W        W 8940   1.658   0.023   2.909  0.2523  0.1341  0.4518
 4877W        W 8941   7.724   4.533   9.102 -0.0367  0.1370 -0.5267
 4878W        W 8942   0.639   4.819   3.690 -0.0625 -0.3342 -0.2547
 4879W        W 8943   0.008   2.156   3.776 -0.0711  0.4588  0.0341
 4880W        W 8944  10.531   8.446  10.058  0.0067  0.2713 -0.1530
 4881W        W 8945  10.142   7.058   2.902 -0.1416  0.1264  0.0986
 4882W        W 8946   6.947   7.330   8.651  0.2605 -0.0495 -0.1294
 4883W        W 8947   6.828   1.876   8.592 -0.0954  0.1592  0.0427
 4884W        W 8948   2.239   0.208   9.038 -0.1162 -0.1133 -0.0216
 4885W        W 8949   5.315   1.372   0.424 -0.3285  0.1534  0.5385
 4886W        W 8950   3.481   3.383   7.497  0.0344  0.0932  0.2225
 4887W        W 8951   4.715   0.566   9.267  0.0418 -0.0451 -0.3203
 4888W        W 8952   0.956   3.270   8.950  0.0116  0.0399 -0.1984
 4889W        W 8953   7.273   3.534  11.058  0.1099 -0.0390  0.1383
 4890W        W 8954   9.595   4.088  10.846 -0.2644 -0.1487  0.1157
 4891W        W 8955   7.835   8.645   0.571  0.4427 -0.1341  0.1473
 4892W        W 8956   6.835   1.478   0.544  0.2432  0.0275  0.1607
 4893W        W 8957   0.619   7.267  11.303  0.0230 -0.0915  0.0170
 4894W        W 8958   2.472   1.532   2.406  0.0246 -0.0665 -0.4486
 4895W        W 8959   8.377   1.101   8.751  0.0651 -0.1972  0.2053
 4896W        W 8960   8.127   0.819   1.816  0.0872 -0.0652 -0.1505
 4897W        W 8961   1.060   5.288  10.185  0.0860 -0.3687 -0.0789
 4898W        W 8962   5.739   9.498   2.017 -0.3462  0.3305  0.1748
 4899W        W 8963   4.752   1.152  10.953  0.0141  0.1551  0.1566
 4900W        W 8964   3.878   8.612   1.133  0.0725 -0.0500  0.1688
 4901W        W 8965   5.247   7.039   8.834 -0.1547 -0.0471 -0.0398
 4902W        W 8966   0.306   5.793  10.653 -0.0649  0.1930  0.0210
 4903W        W 8967   6.913   8.327  10.663  0.0848 -0.0030  0.2141
 4904W        W 8968   5.028   8.240   0.334  0.1778 -0.0228 -0.1999
 4905W        W 8969   6.496   2.404  10.178 -0.1597  0.2156 -0.0399
 4906W        W 8970   6.454   2.333   3.290 -0.0877  0.1598 -0.1077
 4907W        W 8971   2.339   1.078   3.834  0.0498 -0.0731  0.2506
 4908W        W 8972   0.456   5.812   1.790  0.0687  0.1865  0.0874
 4909W        W 8973   5.530   5.986   3.355  0.1854 -0.1172 -0.3574
 4910W        W 8974   5.660   4.751   9.674 -0.0288 -0.2785 -0.0461
 4911W        W 8975   2.834   7.773   2.343 -0.0198 -0.0652  0.1847
 4912W        W 8976   2.209   6.495  10.016 -0.0134 -0.4033  0.0524
 4913W        W 8977   4.263   6.850   1.241  0.2613  0.0451 -0.0860
 4914W        W 8978   5.271   4.309   3.958  0.1979 -0.3120 -0.1870
 4915W        W 8979   3.423   6.789   3.136  0.1135 -0.2497  0.0158
 4916W        W 8980   5.967   4.119   2.532 -0.0635 -0.0350  0.2118
 4917W        W 8981   3.123   7.896   9.344 -0.2609  0.2317  0.0906
 4918W        W 8982   1.626   6.306   8.288 -0.2354  0.0610 -0.1112
 4919W        W 8983   2.645   2.621   0.977  0.0776  0.0485  0.0015
 4920W        W 8984   9.249   4.654   1.092 -0.0943  0.2758  0.1276
 4921W        W 8985   8.153   7.880   1.858  0.0797 -0.1207  0.1933
 4922W        W 8986   0.181   7.118   9.792 -0.0916  0.1827 -0.1295
 4923W        W 8987   0.266   5.043   9.080 -0.1280 -0.5775  0.0265
 4924W        W 8988   5.281   5.424   8.239  0.1339  0.2580  0.1105
 4925W        W 8989   0.170   4.961   2.361  0.1889  0.0814 -0.1375
 4926W        W 8990   3.973   5.290   8.810  0.0406  0.0277  0.0483
 4927W        W 8991   1.467   5.264   8.558 -0.1601 -0.1190  0.1614
 4928W        W 8992   7.144   7.810   0.795 -0.1730 -0.0411 -0.0151
 4929W        W 8993  10.224   4.116   1.377  0.2426  0.0405  0.1664
 4930W        W 8994   2.689   2.048   1.068 -0.0593  0.3077  0.1275
 4931W        W 8995   1.439   1.244   1.213 -0.3453  0.0423  0.0147
 4932W        W 8996   0.719   7.619  10.942 -0.1633 -0.1175  0.0022
 4933W        W 8997   1.254   8.830   3.146  0.0788 -0.2109  0.0977
 4934W        W 8998  10.496   5.235   9.118 -0.0034  0.1352  0.0530
 4935W        W 8999   7.452   9.930   2.741  0.0326 -0.0034  0.0643
 4936W        W 9000   0.027   6.292   9.717  0.0230  0.1162 -0.4984
 4937W        W 9001   8.892   1.275  11.306 -0.4735 -0.4801 -0.1866
 4938W        W 9002   4.226   7.724   9.577  0.1379 -0.5272 -0.0943
 4939W        W 9003  10.490   8.099   7.990 -0.1428 -0.2969 -0.2208
 4940W        W 9004   4.709   9.733   2.139 -0.0390  0.2218  0.2137
 4941W        W 9005   4.306   3.639   9.349 -0.0520  0.2403 -0.2943
 4942W        W 9006   0.904   3.427   3.350  0.1244 -0.1600 -0.0307
 4943W        W 9007   0.378   1.698   8.095 -0.1590 -0.1222 -0.0793
 4944W        W 9008   7.356   8.684   3.112 -0.0395  0.0257 -0.1479
 4945W        W 9009   4.273   8.861  10.374 -0.2223  0.3282 -0.0870
 4946W        W 9010   6.885   3.262  11.254  0.2073  0.3124 -0.2268
 4947W        W 9011   9.937   3.420   2.076 -0.0621 -0.0551 -0.0731
 4948W        W 9012   3.574   3.410   9.737  0.0170  0.3110  0.2663
 4949W        W 9013   3.987   2.257   1.312  0.2894 -0.2627  0.3090
 4950W        W 9014   7.665   3.677   2.719  0.0244 -0.1709  0.5486
 4951W        W 9015   2.632  10.021   1.790  0.2607 -0.0583  0.1195
 4952W        W 9016   1.589   7.080   0.691 -0.1994  0.1552 -0.0334
 4953W        W 9017   6.289   5.848  10.908  0.1063  0.0463 -0.0228
 4954W        W 9018   1.763   7.732   8.217  0.0196 -0.1344 -0.1327
 4955W        W 9019   6.820   2.594   1.812 -0.0773  0.0719  0.0277
 4956W        W 9020   6.743   1.395   8.968 -0.0029  0.3489 -0.1289
 4957W        W 9021   6.455   3.140  11.034  0.4241  0.2957  0.3021
 4958W        W 9022   3.956   3.563   7.225 -0.1070  0.1968  0.0097
 4959W        W 9023   6.820   3.002   2.578 -0.2391 -0.1420 -0.1861
 4960W        W 9024   3.558   9.676   0.442  0.0485  0.2297 -0.0079
 4961W        W 9025   6.533   9.665   8.944  0.0365  0.2880 -0.3359
 4962W        W 9026   7.355   6.983   8.591  0.3864 -0.2808 -0.0210
 4963W        W 9027   6.415   0.022   2.735 -0.0746 -0.2212  0.0898
 4964W        W 9028   9.837   7.085   8.605  0.3105  0.0913  0.0477
 4965W        W 9029   4.278   8.803   9.866 -0.0648 -0.0495  0.2275
 4966W        W 9030   4.041   2.955   8.316  0.0545  0.1210 -0.2247
 4967W        W 9031   9.665   7.558   9.549  0.5104 -0.2735 -0.2947
 4968W        W 9032  10.293   5.510   2.981  0.0594 -0.2606  0.2868
 4969W        W 9033   5.677   7.219   3.121  0.1572 -0.2773 -0.3570
 4970W        W 9034   0.678   1.546   8.449  0.2360  0.1052  0.0337
 4971W        W 9035   8.354   7.828   9.446 -0.1911 -0.1180 -0.1549
 4972W        W 9036   4.770  10.099  10.068  0.2649  0.1692 -0.4073
 4973W        W 9037   1.937   6.903   1.521 -0.3375  0.1144 -0.0681
 4974W        W 9038   0.515   6.712   2.178  0.1739 -0.2939 -0.3979
 4975W        W 9039   0.245   7.056   3.650  0.0270  0.1748  0.1088
 4976W        W 9040   3.743   3.424   3.891  0.1557 -0.0133  0.1774
 4977W        W 9041   7.818   3.452   0.396  0.1015  0.3222  0.1186
 4978W        W 9042   0.280   9.870   9.153  0.2813  0.0920  0.2478
 4979W        W 9043   1.673   6.433  10.146 -0.0493 -0.2748 -0.0096
 4980W        W 9044   9.884   7.344  10.137 -0.1126  0.2601 -0.2199
 4981W        W 9045   8.653   5.760   0.618  0.1880  0.2389  0.2635
 4982W        W 9046   0.124   0.920   8.457  0.0165  0.2872 -0.0437
 4983W        W 9047   6.863   1.623   2.047 -0.1010 -0.1359  0.1055
 4984W        W 9048   4.897   5.112   1.605 -0.0053 -0.0127  0.1482
 4985W        W 9049   4.550   7.716  11.000 -0.1501  0.0963  0.4367
 4986W        W 9050   4.649   9.704   7.890 -0.2949  0.0632  0.2504
 4987W        W 9051   4.531  10.610  11.090  0.0639 -0.3566  0.1222
 4988W        W 9052   5.165   3.339   0.720  0.1292  0.1628  0.2948
 4989W        W 9053  10.699  10.355  11.218  0.1132 -0.1411  0.0583
 4990W        W 9054   3.387  10.074   1.353  0.0283  0.0506 -0.0440
 4991W        W 9055   7.965   1.121   7.846 -0.0558  0.2399 -0.0705
 4992W        W 9056   3.167   0.320   8.834 -0.2197 -0.2580  0.0831
 4993W        W 9057   6.942   7.075   3.080 -0.1996 -0.0664  0.2847
 4994W        W 9058   3.601   6.221   3.645  0.7038 -0.0139  0.2833
 4995W        W 9059   5.408   5.862   1.856 -0.1401  0.2253 -0.0582
 4996W        W 9060   0.302   8.979   9.646  0.1078 -0.2130  0.3552
 4997W        W 9061   0.959  10.654   9.276  0.1115  0.1096 -0.1150
 4998W        W 9062   3.514   2.992   3.656  0.1836 -0.1296 -0.1100
 4999W        W 9063   7.096   4.756   2.338 -0.2760  0.3689 -0.3009
 5000W        W 9064   7.403   4.031   9.236  0.1393  0.0698 -0.1097
 5001W        W 9065   1.781   7.914  10.339 -0.1588  0.1323  0.3098
 5002W        W 9066   9.141   0.508  11.071 -0.0204 -0.1241  0.2425
 5003W        W 9067   7.753   6.897   1.468  0.4811 -0.0456  0.0040
 5004W        W 9068   9.154   7.718   9.557 -0.0494  0.0059 -0.0271
 5005W        W 9069   6.878   6.035   2.822 -0.0130 -0.0914 -0.0032
 5006W        W 9070   1.159   5.542   0.058 -0.0401  0.0504  0.0105
 5007W        W 9071   6.899   8.643   0.195 -0.2266 -0.0082 -0.3679
 5008W        W 9072   9.846   3.430   1.359 -0.3082  0.1301  0.2222
 5009W        W 9073   1.728   0.446   0.463  0.0724 -0.1912  0.0325
 5010W        W 9074   7.341   8.746  10.044  0.4170  0.4231 -0.1405
 5011W        W 9075   9.453   3.306   9.338 -0.0929  0.0208 -0.0340
 5012W        W 9076   6.098   6.368   2.849 -0.4542 -0.2117 -0.2684
 5013W        W 9077   7.857  10.699   3.157  0.1266  0.3793  0.1913
 5014W        W 9078  10.396   4.130   2.837 -0.0133  0.1748 -0.3133
 5015W        W 9079   2.030   0.777   8.962 -0.1775  0.0750 -0.1353
 5016W        W 9080   2.457   7.823   1.260  0.0560 -0.4110  0.1588
 5017W        W 9081   6.992   2.235   3.291  0.1384  0.3334  0.0708
 5018W        W 9082   7.365   9.966   0.372 -0.1011  0.3085 -0.2806
 5019W        W 9083   4.786  10.428   7.843  0.1270  0.0383 -0.0689
 5020W        W 9084   5.280   0.529   8.667  0.1050 -0.3960 -0.4319
 5021W        W 9085   2.797   5.832   1.197  0.1893 -0.2402  0.0424
 5022W        W 9086   3.907   7.342   9.732 -0.1024 -0.1367 -0.0352
 5023W        W 9087   6.049   8.466   0.881  0.1139 -0.0838  0.0318
 5024W        W 9088   7.927   0.520   0.500  0.4086 -0.0779  0.3326
 5025W        W 9089   6.888   8.121   3.083  0.3243 -0.0488 -0.2446
 5026W        W 9090   8.438   0.068   2.210 -0.0339 -0.1934 -0.0962
 5027W        W 9091   8.603   3.711   9.612  0.0515 -0.3738  0.0342
 5028W        W 9092  10.067   0.388   3.618  0.0701 -0.0382 -0.0958
 5029W        W 9093   9.235   6.055   2.027 -0.1092  0.0804  0.1547
 5030W        W 9094   2.652   1.553   0.446 -0.1213  0.3413 -0.0851
 5031W        W 9095   5.205  10.172  10.897  0.2315  0.2098  0.1740
 5032W        W 9096  10.486   1.204   8.852 -0.0194 -0.3580  0.3074
 5033W        W 9097   4.552   8.913   1.635 -0.0892  0.4645 -0.3536
 5034W        W 9098   4.369   8.239   9.697  0.0947 -0.0059 -0.3389
 5035W        W 9099   4.591   0.549   3.761 -0.2951 -0.1673  0.1878
 5036W        W 9100   2.302   8.678   9.448  0.0184 -0.0011  0.2456
 5037W        W 9101   8.447   0.670   8.385 -0.1433  0.0312  0.1220
 5038W        W 9102   7.216   8.060   9.413  0.1323 -0.2117  0.0825
 5039W        W 9103   5.361   5.086   2.031 -0.0658  0.1068  0.3195
 5040W        W 9104   0.877   8.889   1.103 -0.1437 -0.1778  0.1030
 5041W        W 9105   1.079   7.962   0.662 -0.0904 -0.2134 -0.3457
 5042W        W 9106   5.606   6.566   3.397 -0.1443 -0.0575 -0.0353
 5043W        W 9107   2.532   6.406   1.096  0.2785  0.2085  0.2517
 5044W        W 9108   9.915   4.520   1.277 -0.0120 -0.0377 -0.2232
 5045W        W 9109   7.162   3.063   3.892  0.1461  0.0168 -0.1105
 5046W        W 9110   9.007   3.478   0.866  0.2064  0.0137 -0.0479
 5047W        W 9111   8.616   2.918   3.087 -0.1363  0.1025 -0.1030
 5048W        W 9112   5.774   4.935   2.886  0.2419 -0.2296 -0.0274
 5049W        W 9113   5.439   3.693   8.350 -0.0228  0.2160  0.1150
 5050W        W 9114   0.070   3.939   9.185 -0.0050  0.0355  0.1718
 5051W        W 9115   5.656   9.246   9.332 -0.0935 -0.1254  0.0415
 5052W        W 9116   4.560   7.132   2.099 -0.0604  0.0979  0.5447
 5053W        W 9117   6.498   6.287   0.086 -0.4045 -0.1393  0.0495
 5054W        W 9118   7.789   6.992   8.986  0.0036 -0.0539  0.4237
 5055W        W 9119   4.412   3.036   9.879  0.1949 -0.1806  0.0348
 5056W        W 9120   1.505   4.212  10.483 -0.0184  0.1245 -0.0663
 5057W        W 9121   3.455   0.081   3.148 -0.0906  0.0020  0.1531
 5058W        W 9122   9.042   7.061  10.036 -0.0824  0.0276  0.0613
 5059W        W 9123   2.935   2.827   9.338 -0.1099  0.2021  0.1633
 5060W        W 9124   2.283   3.421   3.010 -0.0955  0.0033  0.1094
 5061W        W 9125   0.446   7.490   9.637  0.0532 -0.2508  0.0033
 5062W        W 9126   3.831   1.419   7.836 -0.0778 -0.2539 -0.2787
 5063W        W 9127   1.629   5.668   9.958 -0.5414  0.0856  0.3404
 5064W        W 9128   4.014   9.072   1.468  0.1181  0.0576 -0.0223
 5065W        W 9129   3.538   0.068   4.243 -0.1015 -0.1859  0.1116
 5066W        W 9130   3.588   2.727   8.158 -0.0050  0.3304  0.1535
 5067W        W 9131   0.896  10.328   0.517  0.1104 -0.0370  0.2844
 5068W        W 9132   8.388   3.010  10.315  0.1197  0.1526  0.1793
 5069W        W 9133   7.961   8.853  10.964  0.1110  0.0520 -0.0329
 5070W        W 9134   8.527   3.395  10.082 -0.0830  0.2103  0.1091
 5071W        W 9135   1.529   2.120  10.304 -0.1792  0.2609  0.2436
 5072W        W 9136   4.657   6.351   9.139 -0.2533  0.0028  0.0491
 5073W        W 9137   4.141   4.817   8.500 -0.0855 -0.0309 -0.2821
 5074W        W 9138   8.564   9.069   8.306 -0.1384  0.0628  0.0772
 5075W        W 9139   4.185   1.830  10.902  0.2321 -0.1673  0.0238
 5076W        W 9140  10.487   4.148   2.257  0.1711 -0.0255 -0.1058
 5077W        W 9141   2.644   2.538   9.865 -0.0877 -0.0503 -0.1997
 5078W        W 9142   0.203   0.581   9.385  0.0370  0.3823  0.0480
 5079W        W 9143   3.261  10.524   2.593 -0.0306  0.2484  0.1750
 5080W        W 9144   6.895   7.844   2.701 -0.0214 -0.0908  0.0289
 5081W        W 9145   8.954   6.130   0.612 -0.3618 -0.1809  0.2100
 5082W        W 9146   5.947   5.393   2.795  0.1773  0.2007 -0.3212
 5083W        W 9147   3.965   1.524   3.191  0.0826  0.1799 -0.1324
 5084W        W 9148   8.333   9.457   2.825  0.0153  0.1796  0.0001
 5085W        W 9149   9.968   5.588  10.253  0.0813  0.1645  0.0945
 5086W        W 9150   3.484   4.923   0.087 -0.1564 -0.2026  0.0595
 5087W        W 9151   8.278   0.988   9.897  0.2748  0.3233 -0.4502
 5088W        W 9152   7.021   4.550   1.853  0.0173  0.1064  0.1236
 5089W        W 9153   3.077   2.507  10.898 -0.1204  0.0255  0.1756
 5090W        W 9154   6.171   2.077   1.684  0.0163 -0.2850 -0.0870
 5091W        W 9155   9.177   5.364   9.293 -0.0646  0.0732  0.1704
 5092W        W 9156   4.692   8.173  10.837 -0.1172  0.1335  0.1237
 5093W        W 9157   5.913   7.374   7.578 -0.1802 -0.1007  0.2325
 5094W        W 9158  10.331   6.606   2.647 -0.2249  0.0465 -0.1232
 5095W        W 9159   4.046   4.327  10.601 -0.0015  0.3251 -0.2331
 5096W        W 9160  10.329   8.092   8.507  0.1174  0.0581 -0.0149
 5097W        W 9161   8.789   7.064   3.983 -0.0665  0.3505  0.0358
 5098W        W 9162   2.005   5.338  11.068  0.0594  0.0254  0.2726
 5099W        W 9163   5.639   1.230   4.273 -0.0965 -0.0663 -0.1531
 5100W        W 9164   3.207   3.024   2.982  0.0847 -0.0193 -0.0150
 5101W        W 9165   9.496   9.582  11.416  0.2056 -0.1403  0.2807
 5102W        W 9166   9.596   9.872   1.063  0.1767 -0.0884  0.0640
 5103W        W 9167   1.543   5.046   1.809 -0.1172  0.0537 -0.1969
 5104W        W 9168  10.530   1.486   9.673  0.0670  0.1954 -0.4246
 5105W        W 9169   0.500   2.628   0.504  0.5021  0.2437  0.3493
 5106W        W 9170   1.804   3.208   3.477 -0.1918 -0.0221 -0.3933
 5107W        W 9171   3.711   2.416  10.317  0.2046  0.4035 -0.2493
 5108W        W 9172   0.107   8.811  11.168 -0.1552 -0.0796  0.1532
 5109W        W 9173   7.881   9.462  10.044 -0.3248 -0.0968 -0.0998
 5110W        W 9174   7.856   0.112   0.158 -0.0760 -0.3466 -0.5398
 5111W        W 9175   2.038   6.095   3.216  0.0853  0.5179 -0.2484
 5112W        W 9176   7.748   5.981  10.533  0.0136  0.1678  0.0547
 5113W        W 9177   3.653   7.589  10.107 -0.0643  0.0330  0.5127
 5114W        W 9178   6.049   6.311   0.833 -0.0405 -0.1551 -0.2542
 5115W        W 9179   8.678  10.089   8.602  0.2987 -0.0738  0.3130
 5116W        W 9180   5.585   8.665   3.615 -0.0683 -0.3026 -0.2381
 5117W        W 9181   3.903   3.479   3.296 -0.0661  0.0001  0.0439
 5118W        W 9182   9.680  10.223   7.782 -0.0470  0.0463  0.1477
 5119W        W 9183   4.809  10.131   0.579 -0.1537  0.1979  0.1287
 5120W        W 9184   3.756   5.742   8.417 -0.0228  0.2467 -0.1841
 5121W        W 9185   2.042   0.786  10.333 -0.2028 -0.1066 -0.1230
 5122W        W 9186   3.012   9.771   1.662  0.1092  0.2221 -0.0675
 5123W        W 9187   7.191   7.087   2.306 -0.0618  0.1293  0.1773
 5124W        W 9188   3.640   2.946   3.133  0.0662 -0.1759  0.1278
 5125W        W 9189   0.889   7.783   3.122 -0.1538 -0.2112  0.2248
 5126W        W 9190   5.236   1.713   3.064  0.0667 -0.0592 -0.4168
 5127W        W 9191   7.856   5.641   2.526 -0.0395  0.2444  0.0198
 5128W        W 9192   3.277   7.478   0.638  0.0168  0.0735 -0.1062
 5129W        W 9193   6.667  10.501   9.473  0.1817 -0.0536  0.0402
 5130W        W 9194   8.001  10.467  11.248 -0.1590 -0.0025  0.2395
 5131W        W 9195   8.375   7.841  10.146  0.0775 -0.3621 -0.1721
 5132W        W 9196   1.046   6.461   8.920 -0.1266 -0.1173  0.1478
 5133W        W 9197   6.171   1.765   8.972  0.2368  0.3035  0.1885
 5134W        W 9198   0.822   1.885   0.380 -0.2910 -0.5158 -0.0553
 5135W        W 9199   3.254   0.350   2.679 -0.0931 -0.0785 -0.0115
 5136W        W 9200   8.682   2.000   0.461 -0.3200  0.4295 -0.2006
 5137W        W 9201   4.496   3.219   2.366  0.2430 -0.0985 -0.2371
 5138W        W 9202  10.009   0.004   2.891  0.1774 -0.2341  0.2749
 5139W        W 9203   0.996   4.304   8.756  0.3340 -0.1922 -0.2451
 5140W        W 9204   7.750   2.198   0.568  0.0502 -0.0171  0.4242
 5141W        W 9205   0.743   3.731   3.037 -0.3604 -0.1162  0.0274
 5142W        W 9206   6.522   6.738   9.184  0.1506  0.1477 -0.1497
 5143W        W 9207   5.727   0.265   2.763  0.4046  0.0987 -0.4381
 5144W        W 9208   6.998   0.298   3.375 -0.0969 -0.1978  0.1890
 5145W        W 9209   5.761   5.227   9.948  0.0265 -0.1128 -0.1196
 5146W        W 9210   5.217   0.306   0.747 -0.0783  0.1537  0.0911
 5147W        W 9211   4.720   8.054  11.330  0.0918 -0.2834 -0.4290
 5148W        W 9212   6.487   3.171   0.665 -0.3479  0.3708 -0.3727
 5149W        W 9213   6.472   8.909   0.272  0.3503 -0.2500 -0.2407
 5150W        W 9214   1.661   5.617   0.028  0.2858  0.2084 -0.0890
 5151W        W 9215   4.857  10.083   1.094 -0.0313  0.2988 -0.1529
 5152W        W 9216   1.438  10.280   9.399 -0.2411  0.2317  0.3143
 5153W        W 9217   3.705   4.068   8.307 -0.0002 -0.1667 -0.0134
 5154W        W 9218   1.758   2.183   2.590  0.1636  0.0416 -0.0940
 5155W        W 9219   8.573   3.424  10.642 -0.0945  0.0798  0.0943
 5156W        W 9220   2.677   5.795   1.672  0.0713  0.0845  0.1310
 5157W        W 9221   7.582   7.267   0.194 -0.0656  0.1452  0.2693
 5158W        W 9222   6.276   7.802   0.863  0.0016 -0.2236  0.0506
 5159W        W 9223   1.755   1.935   9.451 -0.2151  0.0767  0.1527
 5160W        W 9224   8.248   9.739   0.316  0.1728  0.1162 -0.2128
 5161W        W 9225   3.656   3.003   0.034  0.2577  0.1483 -0.0473
 5162W        W 9226   2.615   2.960   8.525 -0.0737 -0.1173  0.1016
 5163W        W 9227   6.672   5.073   0.599 -0.0114 -0.1975 -0.1826
 5164W        W 9228   8.140   1.049   0.290 -0.0816 -0.2725 -0.4524
 5165W        W 9229  10.270   0.063  10.440 -0.0008  0.3394 -0.0940
 5166W        W 9230   2.464   9.203   7.906 -0.0282 -0.0638  0.0708
 5167W        W 9231   8.769   9.131  11.247  0.0501 -0.0973  0.0080
 5168W        W 9232   2.111   8.830  10.541 -0.1547 -0.4883 -0.0989
 5169W        W 9233   3.875   0.346   3.205  0.2982  0.0464  0.0467
 5170W        W 9234   5.847   2.411   8.807  0.0657  0.0757 -0.1439
 5171W        W 9235   0.725  10.372   2.963 -0.3678 -0.0400  0.0197
 5172W        W 9236   7.537   2.642  10.740  0.2414 -0.4510  0.1002
 5173W        W 9237   6.388   4.392   8.424  0.4058  0.0420  0.1429
 5174W        W 9238   2.191   6.027   8.892  0.1627  0.2264 -0.3658
 5175W        W 9239   1.012  10.314   2.243 -0.1006 -0.3142  0.1874
 5176W        W 9240   2.305  10.423   1.659  0.1358 -0.1575  0.0574
 5177W        W 9241   5.845   0.813   0.828  0.0519  0.0902  0.1320
 5178W        W 9242   2.033   3.202   9.254  0.2565 -0.1846  0.4347
 5179W        W 9243  10.174   8.068   1.763  0.3192 -0.2347 -0.0760
 5180W        W 9244  10.684   6.223   9.178  0.0369  0.1397 -0.1769
 5181W        W 9245   4.449   3.053   8.830 -0.1055  0.3310 -0.1039
 5182W        W 9246   8.941   4.431  11.171  0.0991 -0.1742 -0.1109
 5183W        W 9247   0.185   0.321   7.779 -0.2272 -0.0141 -0.0772
 5184W        W 9248   6.194   7.514   7.995 -0.1287 -0.3034 -0.0859
 5185W        W 9249   5.786   7.822  11.403  0.3234 -0.1146 -0.1569
 5186W        W 9250   0.695   5.317   0.214  0.1663  0.0702  0.0959
 5187W        W 9251   8.677   9.935  10.906  0.0828 -0.0642 -0.0612
 5188W        W 9252   9.598   5.593   9.072 -0.2183 -0.1738 -0.1879
 5189W        W 9253   1.610   1.399   1.719  0.1158 -0.1000  0.0814
 5190W        W 9254  10.085   7.204   9.669  0.1333  0.3411  0.0407
 5191W        W 9255   3.107  10.631  11.417 -0.0051  0.0238 -0.2494
 5192W        W 9256   4.617   6.331   1.827 -0.0523  0.2990  0.2185
 5193W        W 9257   2.772   6.565   3.226  0.2480 -0.0460  0.0336
 5194W        W 9258   3.725   1.771   8.594 -0.0330  0.4207 -0.1898
 5195W        W 9259   9.672   9.814   3.412  0.5017  0.1468 -0.2203
 5196W        W 9260   9.368   0.456   0.812 -0.0565 -0.2906 -0.0347
 5197W        W 9261   7.734   5.583   7.920  0.1217 -0.3474  0.0017
 5198W        W 9262   6.382   7.389   1.246  0.4965  0.2643  0.1635
 5199W        W 9263   6.754   9.751   8.386 -0.1413 -0.0727  0.0814
 5200W        W 9264   7.028   9.076   7.641 -0.1584  0.2170  0.0523
 5201W        W 9265   5.230   3.369   9.816 -0.0634 -0.1163  0.1994
 5202W        W 9266   7.116   7.999   9.916  0.0094 -0.0676 -0.1756
 5203W        W 9267   2.247   7.969   8.926 -0.1057  0.1089 -0.1759
 5204W        W 9268   5.015   5.788   3.325  0.1130 -0.1324 -0.1798
 5205W        W 9269   6.247   1.296   2.571  0.0922 -0.2868 -0.0218
 5206W        W 9270   3.757   9.117   0.085  0.0105 -0.2237  0.1018
 5207W        W 9271   3.709   6.972  10.743 -0.3333  0.0382 -0.1794
 5208W        W 9272   0.984   3.069   1.147  0.1385  0.2667  0.1607
 5209W        W 9273   8.257   6.593   9.878 -0.0087  0.1064  0.0862
 5210W        W 9274   5.595   8.178   7.272  0.1162 -0.1088 -0.0110
 5211W        W 9275   5.148   1.139   2.837 -0.2232 -0.1799 -0.0833
 5212W        W 9276   7.124   8.219   1.136  0.0586 -0.0034 -0.1172
 5213W        W 9277  10.012   5.303   1.854 -0.2350  0.1417  0.0255
 5214W        W 9278   1.738   8.726  11.185 -0.0542  0.0131  0.1256
 5215W        W 9279   0.859   8.444   2.896  0.5704  0.1004  0.1742
 5216W        W 9280   3.588   3.704  11.002  0.0320 -0.2723 -0.1337
 5217W        W 9281   2.259   2.124   2.338  0.2929 -0.3627 -0.5494
 5218W        W 9282   5.707   4.739  10.130 -0.2263  0.0596  0.1164
 5219W        W 9283   7.777   4.850   0.354 -0.2248  0.1217 -0.0456
 5220W        W 9284   8.703   6.967   3.459 -0.2147  0.1488  0.2341
 5221W        W 9285   0.364   3.546   0.257  0.1488  0.0193  0.3778
 5222W        W 9286   6.484  10.452  10.000  0.1119  0.0319  0.2008
 5223W        W 9287   7.046   1.173   7.617  0.2675  0.2210  0.3271
 5224W        W 9288   7.712   5.938   0.522  0.1758 -0.1559  0.1202
 5225W        W 9289   4.287   3.494   8.883 -0.1896 -0.0236 -0.1661
 5226W        W 9290   1.407   7.084   2.352 -0.4142  0.0567 -0.1705
 5227W        W 9291   4.352   3.764   7.652 -0.0159 -0.2422  0.2766
 5228W        W 9292   9.141   9.295   0.160  0.1125  0.1292  0.1931
 5229W        W 9293   5.866   8.307   9.514 -0.1316 -0.1170 -0.0170
 5230W        W 9294   5.250   4.638   2.197  0.0993  0.0062  0.0370
 5231W        W 9295   4.583   2.266   3.351 -0.2905  0.1409  0.2529
 5232W        W 9296   1.915   6.170   2.234 -0.2430  0.5244  0.0156
 5233W        W 9297   0.058   5.045   0.075 -0.1073  0.0877 -0.1808
 5234W        W 9298  10.108   9.785   3.205 -0.0824  0.1036 -0.0745
 5235W        W 9299   4.313   4.581  10.255 -0.0744  0.2044 -0.1099
 5236W        W 9300   2.287   2.797  10.001 -0.0738  0.0321  0.3889
 5237W        W 9301   4.344   1.268   9.134 -0.0767 -0.4453 -0.0454
 5238W        W 9302   8.500   6.139  10.116 -0.1092  0.0098  0.1354
 5239W        W 9303   4.698   8.793  10.124  0.1997 -0.0433 -0.1175
 5240W        W 9304   5.993   9.444   3.114  0.1007  0.3164 -0.1778
 5241W        W 9305   9.237   2.557   9.885  0.0512  0.0900 -0.1325
 5242W        W 9306   0.171   7.813   0.669  0.0359 -0.0045 -0.1576
 5243W        W 9307   8.573   4.421   0.162 -0.1418  0.1033  0.2223
 5244W        W 9308   5.339   6.307   1.583 -0.0322  0.2523 -0.0765
 5245W        W 9309   3.821   0.301   0.144  0.1536 -0.3205 -0.1058
 5246W        W 9310   5.545   9.936   1.952  0.3727 -0.1846 -0.0598
 5247W        W 9311  10.331  10.561   0.918 -0.1161  0.3162 -0.1958
 5248W        W 9312   1.288   4.617  10.745 -0.0689 -0.1054 -0.2559
 5249W        W 9313   2.324   3.890   2.410  0.2171  0.3172 -0.0754
 5250W        W 9314  10.475   8.653   3.948  0.2506 -0.2996  0.2731
 5251W        W 9315   4.906   2.464   3.688 -0.1102  0.0310  0.1396
 5252W        W 9316   8.186   8.270  10.385 -0.2227 -0.1593 -0.2680
 5253W        W 9317   2.133   3.050   8.198 -0.0137 -0.2094 -0.1137
 5254W        W 9318   1.253   5.831   0.965  0.1139  0.0462  0.2966
 5255W        W 9319   0.102   2.513  10.721 -0.1886 -0.4053  0.1307
 5256W        W 9320   2.622   0.692   9.732  0.1385 -0.1055  0.0309
 5257W        W 9321   1.984   9.053   9.521 -0.0566 -0.0037 -0.0695
 5258W        W 9322   1.581   6.135   9.233  0.1910 -0.0337  0.1977
 5259W        W 9323   7.113  10.192   9.954  0.0041 -0.0910 -0.1335
 5260W        W 9324   2.058  10.162   8.670 -0.4066  0.0717  0.2590
 5261W        W 9325   4.446   0.058   0.558 -0.1578 -0.2361  0.0147
 5262W        W 9326   3.514   0.995   0.149  0.0609  0.0388 -0.1529
 5263W        W 9327   0.629   3.736   1.451  0.1840  0.1534  0.4886
 5264W        W 9328   4.812   5.543   7.050 -0.1674 -0.3444 -0.0616
 5265W        W 9329   6.889   1.260   1.386 -0.1214 -0.0542  0.2213
 5266W        W 9330   6.792   9.875  10.161  0.0501 -0.0224 -0.0619
 5267W        W 9331   8.944   5.320   3.500  0.1410  0.0206 -0.2866
 5268W        W 9332   9.204   9.029   9.896  0.0677 -0.0724  0.0390
 5269W        W 9333   3.430   0.899   8.469 -0.1766 -0.1230 -0.0488
 5270W        W 9334  10.304   1.078   9.386  0.0080 -0.3324 -0.0967
 5271W        W 9335   7.152   1.120   0.423  0.1442  0.1566 -0.1138
 5272W        W 9336   1.653   4.210   8.707  0.0642 -0.0914  0.0730
 5273W        W 9337   5.531   9.360   9.886 -0.0709  0.0583 -0.0963
 5274W        W 9338  10.635   6.190   2.607 -0.1590 -0.0827 -0.0133
 5275W        W 9339   9.063  10.667   2.623 -0.1823  0.0021 -0.0293
 5276W        W 9340   3.841   8.920  10.103 -0.0681  0.0952  0.0099
 5277W        W 9341   4.195   4.291   8.320  0.0239  0.0421  0.0950
 5278W        W 9342   2.732   0.295   9.465  0.0681  0.0074 -0.1224
 5279W        W 9343   0.451   0.593   9.838  0.0154 -0.0931 -0.0605
 5280W        W 9344   1.524   6.192   1.034  0.4186  0.0321 -0.3755
 5281W        W 9345   8.003   4.670   2.445  0.0071  0.2175 -0.0748
 5282W        W 9346   4.434   1.459   9.605 -0.1589  0.0808 -0.0188
 5283W        W 9347   7.623   5.654  10.872 -0.3269 -0.1360 -0.0580
 5284W        W 9348   3.283   3.313   8.837  0.2940 -0.1361  0.1875
 5285W        W 9349   2.535   5.190   3.240 -0.1164 -0.0271  0.0186
 5286W        W 9350   7.593   9.976   1.795 -0.2431  0.2012 -0.0332
 5287W        W 9351   3.947   0.144   0.598  0.1990  0.1016  0.3231
 5288W        W 9352  10.314   7.405   2.538 -0.2538  0.1784 -0.0830
 5289W        W 9353   4.957   6.455   8.732  0.1916  0.2480 -0.2108
 5290W        W 9354   2.810   6.641  10.762 -0.1367 -0.1271  0.0520
 5291W        W 9355   5.048   7.633   1.404 -0.1325  0.2639  0.1096
 5292W        W 9356   0.188   6.687   9.337  0.2964 -0.0306 -0.0120
 5293W        W 9357   2.427   6.081   9.793  0.1400 -0.2000 -0.1118
 5294W        W 9358   8.464   4.785   8.746  0.2179  0.1678 -0.4105
 5295W        W 9359   0.395   6.709  10.888  0.2079 -0.2427  0.1797
 5296W        W 9360  10.561   0.741  10.282  0.1798  0.0360 -0.2434
 5297W        W 9361   2.184   5.232   2.836 -0.2148 -0.2082 -0.0442
 5298W        W 9362   0.113   0.473   1.431 -0.2802 -0.0046 -0.3517
 5299W        W 9363   3.534   0.549   1.424 -0.2862  0.2363  0.1161
 5300W        W 9364   9.137   7.827  11.335  0.0524 -0.1989  0.0943
 5301W        W 9365   9.929   2.263  10.639  0.1943  0.0723 -0.3285
 5302W        W 9366   4.746   7.821   1.744 -0.1506 -0.2311 -0.3057
 5303W        W 9367   3.101   0.789   3.206  0.2542 -0.0497 -0.0190
 5304W        W 9368   1.981   7.237  11.305  0.0312  0.0589  0.2318
 5305W        W 9369   0.300   7.559   3.137 -0.0773 -0.0356 -0.1960
 5306W        W 9370   7.834   6.215   2.699 -0.1919  0.0503  0.1692
 5307W        W 9371   1.570  10.141   1.321  0.0999  0.2149  0.1116
 5308W        W 9372   9.077   5.639   8.834 -0.1878  0.4374 -0.2758
 5309W        W 9373  10.712   7.949   2.184  0.1818 -0.0167  0.0352
 5310W        W 9374   9.648   6.417  10.087  0.2097  0.0876  0.0630
 5311W        W 9375   0.790   3.656   8.127  0.3674  0.1164 -0.1283
 5312W        W 9376   0.489   8.012   0.315 -0.0945  0.2162  0.0686
 5313W        W 9377   4.281   9.857   1.841 -0.1335  0.3067 -0.0574
 5314W        W 9378   8.154  10.395   9.890 -0.2589 -0.1874  0.1612
 5315W        W 9379   0.854   5.957   8.992 -0.0524 -0.2582 -0.0667
 5316W        W 9380   9.016   3.134   0.530  0.0207  0.0528  0.3288
 5317W        W 9381   2.332   6.868   0.078 -0.0797  0.0144 -0.1519
 5318W        W 9382  10.246   0.312   8.334 -0.2077 -0.0934 -0.5996
 5319W        W 9383   4.393   6.468   8.742  0.3832  0.0763 -0.2490
 5320W        W 9384   1.694   4.767   7.803 -0.2077 -0.2406  0.2269
 5321W        W 9385   0.330   6.546   7.542 -0.0048 -0.2683  0.0319
 5322W        W 9386   3.489   5.281   2.695 -0.2547 -0.4229  0.2939
 5323W        W 9387  10.554   0.340   8.748 -0.0979  0.0217 -0.0907
 5324W        W 9388   5.652  10.185   7.797 -0.0353  0.2433 -0.1052
 5325W        W 9389   5.688   4.945  11.097 -0.4632  0.2095  0.2431
 5326W        W 9390   5.130   9.615   0.855  0.1011  0.1519  0.1593
 5327W        W 9391   0.472   7.506   0.310 -0.0606  0.0602 -0.4809
 5328W        W 9392   5.161   4.930   2.825 -0.0749  0.1274  0.0324
 5329W        W 9393   8.702   7.607  11.163  0.0748 -0.0104 -0.1269
 5330W        W 9394   9.833   8.219   8.460 -0.3143 -0.2696 -0.0558
 5331W        W 9395   7.168   7.703   2.322  0.4427 -0.0094  0.0477
 5332W        W 9396   9.448   4.868   8.265  0.1331  0.0808  0.3953
 5333W        W 9397   6.709   7.339   2.135 -0.1481 -0.1602 -0.4710
 5334W        W 9398   4.329   4.410  11.048  0.1014  0.1979 -0.1956
 5335W        W 9399   2.053   1.419   3.709 -0.1732 -0.3748  0.1456
 5336W        W 9400   5.122   2.835   0.636  0.0720  0.3999 -0.2495
 5337W        W 9401   0.289   9.509   3.072 -0.1342  0.0217  0.2135
 5338W        W 9402   7.912   4.898  11.332  0.0086  0.0706  0.4110
 5339W        W 9403   5.543   3.108   0.488 -0.2526 -0.1014 -0.0819
 5340W        W 9404   7.800   7.330   1.140 -0.1314 -0.0445  0.0612
 5341W        W 9405   6.024   5.488   9.498  0.2170  0.0543 -0.2636
 5342W        W 9406   9.616   7.987   8.076  0.2268 -0.0976 -0.1345
 5343W        W 9407   8.905  10.590   2.135  0.0869  0.1216  0.3977
 5344W        W 9408   1.215   8.616  11.366  0.1686 -0.1182  0.0269
 5345W        W 9409   1.140   4.973  11.122  0.0051  0.4485  0.2108
 5346W        W 9410   0.910   2.677   2.181 -0.0583 -0.0046 -0.1548
 5347W        W 9411   6.225  10.159   7.724  0.0936 -0.0831  0.0507
 5348W        W 9412   8.366   8.894   1.656  0.1189  0.2387  0.0742
 5349W        W 9413   3.228   9.518   7.669  0.0726 -0.2461 -0.2628
 5350W        W 9414   0.748   8.479   2.404  0.0239  0.2534  0.0687
 5351W        W 9415   8.482   1.928   1.082  0.3809 -0.2373 -0.0568
 5352W        W 9416   1.108   3.872   1.810  0.0521 -0.2394  0.0721
 5353W        W 9417   5.121   5.336   0.157  0.0309  0.0745  0.1070
 5354W        W 9418   4.616   5.374   9.220 -0.0571 -0.0422 -0.1685
 5355W        W 9419  10.410   3.576   1.905  0.1869 -0.1537  0.0713
 5356W        W 9420   6.050   1.969   8.173 -0.0904 -0.2877  0.2140
 5357W        W 9421   4.585   2.272   1.078 -0.0434  0.1697  0.2119
 5358W        W 9422   9.641   1.405   0.406 -0.0763  0.0217 -0.2693
 5359W        W 9423   3.191   8.747   7.068  0.0843 -0.2096 -0.1291
 5360W        W 9424   5.481   5.593   4.040 -0.0304 -0.2591  0.1116
 5361W        W 9425   7.976   1.992   1.347 -0.0242 -0.0846 -0.1818
 5362W        W 9426   8.087   9.871   3.183 -0.1564  0.0270 -0.1238
 5363W        W 9427  10.536   8.400   2.424 -0.0236  0.3362 -0.0563
 5364W        W 9428   0.635   5.683   9.591 -0.0644 -0.3399 -0.0803
 5365W        W 9429   0.812   4.704   1.196  0.2994 -0.1433 -0.0728
 5366W        W 9430   6.423   3.681   3.133 -0.1321 -0.1498  0.5120
 5367W        W 9431   3.686   8.980   8.550  0.3653 -0.1914  0.0539
 5368W        W 9432   6.192   3.211   9.483 -0.0043 -0.1260 -0.1730
 5369W        W 9433   2.175  10.330  10.929  0.0537  0.0797  0.0321
 5370W        W 9434   4.633   7.262   2.941  0.1953 -0.5887 -0.0825
 5371W        W 9435   5.320   0.045   8.419 -0.2408 -0.2378 -0.0195
 5372W        W 9436   0.578   5.974   1.079 -0.1494  0.3597 -0.0195
 5373W        W 9437   2.972   2.730   0.011 -0.2186 -0.1295  0.1821
 5374W        W 9438   6.007   4.881   0.655  0.1038 -0.2936 -0.1898
 5375W        W 9439   7.856   9.329  10.828 -0.0817  0.2237 -0.0548
 5376W        W 9440   6.052  10.064   1.176 -0.1108 -0.0423  0.0879
 5377W        W 9441  10.097   5.335   0.431 -0.1955  0.1335 -0.2643
 5378W        W 9442   7.582   6.077   9.971 -0.0276 -0.0758 -0.0013
 5379W        W 9443   6.054   5.019   9.576  0.1809  0.2147  0.0587
 5380W        W 9444   7.772   8.040   3.635  0.1551 -0.1855 -0.1321
 5381W        W 9445   9.328   8.078   0.905  0.0335 -0.1016 -0.0476
 5382W        W 9446   7.376   9.518   7.574  0.1506 -0.2671  0.1060
 5383W        W 9447  10.247   5.087  10.578  0.1550  0.2802 -0.0400
 5384W        W 9448   2.586   7.056   7.787  0.0212  0.1400  0.0439
 5385W        W 9449   4.215   8.062  11.000  0.2810 -0.1503  0.1049
 5386W        W 9450   7.513   1.266   2.664 -0.0664  0.0163  0.0217
 5387W        W 9451   8.811   8.488   1.649  0.0026 -0.0674 -0.1345
 5388W        W 9452   0.547   7.751   8.429 -0.0702  0.1589  0.4235
 5389W        W 9453   4.280   2.300   3.758  0.4777  0.1386  0.0027
 5390W        W 9454   8.593  10.453   2.565 -0.1304  0.1375 -0.0282
 5391W        W 9455   3.782   8.629   9.174  0.1628  0.2650 -0.0649
 5392W        W 9456   4.439   9.958  10.519  0.1850 -0.0238 -0.2832
 5393W        W 9457   5.183  10.536   3.666 -0.0243  0.1091  0.2993
 5394W        W 9458   1.156   9.471   0.134 -0.2641 -0.0699 -0.2126
 5395W        W 9459   6.644   9.545   2.513  0.0768 -0.0936  0.1381
 5396W        W 9460   5.375   4.084   2.682  0.0990 -0.1946 -0.4181
 5397W        W 9461   9.515   0.349  10.781  0.0598  0.2507 -0.0864
 5398W        W 9462   9.494   7.399   2.090  0.0558  0.3102 -0.0501
 5399W        W 9463  10.031   8.549   2.567 -0.2521 -0.1381 -0.2576
 5400W        W 9464   7.392   2.638   8.820  0.0582 -0.1161 -0.0623
 5401W        W 9465   1.552   9.820   3.416  0.3086  0.0889 -0.2546
 5402W        W 9466   7.032   4.642   1.344  0.0861  0.0054  0.3216
 5403W        W 9467   2.125   4.894  11.305 -0.2698  0.1190 -0.2521
 5404W        W 9468   4.373   0.691  10.105 -0.0913  0.1891 -0.0368
 5405W        W 9469   3.059   1.028   1.316  0.1253  0.0341  0.1733
 5406W        W 9470   2.764  10.659  10.856 -0.1020 -0.3542  0.1181
 5407W        W 9471   8.627   5.985   1.485  0.2694  0.2391 -0.2221
 5408W        W 9472   4.214   8.766   8.923 -0.0012 -0.1565 -0.0359
 5409W        W 9473   0.342   4.941  10.692 -0.3049  0.0441 -0.0681
 5410W        W 9474   9.273   7.490   9.954 -0.2329  0.0756  0.0115
 5411W        W 9475   5.274   8.720   0.337  0.0652 -0.1861 -0.1157
 5412W        W 9476   3.677   9.802  10.885 -0.1249  0.2306 -0.4127
 5413W        W 9477   2.228   6.521   2.547  0.0866 -0.0937  0.2271
 5414W        W 9478   1.825   4.061   9.194 -0.0112  0.0760  0.0982
 5415W        W 9479   6.032   0.622   9.794  0.1628 -0.1527  0.0074
 5416W        W 9480   4.715   0.820   9.665  0.1467 -0.0341 -0.0152
 5417W        W 9481   4.028   8.262   2.922 -0.0612  0.0130  0.1738
 5418W        W 9482   9.683   0.306  11.357  0.1265 -0.3033 -0.1950
 5419W        W 9483  10.706   6.710   1.202 -0.1224  0.1523  0.0932
 5420W        W 9484   5.371   6.536   3.860 -0.3325 -0.0157  0.1101
 5421W        W 9485   3.917   0.655   0.905 -0.4091 -0.2530 -0.1858
 5422W        W 9486   8.989   7.068   0.305  0.1067  0.0475  0.3151
 5423W        W 9487  10.437   9.342   3.271  0.0048  0.0359 -0.2425
 5424W        W 9488   5.616   9.593   2.447 -0.1130 -0.0774 -0.1863
 5425W        W 9489   3.292   5.292   4.182 -0.0828  0.2117  0.1272
 5426W        W 9490   2.791   5.816   3.537 -0.0691  0.1611 -0.1346
 5427W        W 9491   6.159   3.968  11.399 -0.1092  0.2562  0.0047
 5428W        W 9492   7.924   1.871   8.875  0.0338 -0.1233  0.0201
 5429W        W 9493  10.098   8.960   0.246  0.0238 -0.0095 -0.0284
 5430W        W 9494   3.430   5.815  10.775  0.0242  0.0213  0.1561
 5431W        W 9495  10.392   2.238  10.430  0.0995 -0.1186 -0.0199
 5432W        W 9496   1.086   9.879  11.162  0.4340 -0.0310 -0.2579
 5433W        W 9497   3.001   8.477   0.824  0.0872  0.1407 -0.2053
 5434W        W 9498   7.491   3.635   8.917  0.2798 -0.1234  0.2900
 5435W        W 9499   4.624   1.195   8.305  0.0356 -0.5295  0.0478
 5436W        W 9500   6.900   0.901   3.191  0.1609 -0.4242 -0.0308
 5437W        W 9501   0.874   3.833   8.913 -0.0124 -0.4044  0.1580
 5438W        W 9502   5.862   7.997  10.249  0.1811  0.0071  0.2089
 5439W        W 9503   1.423   2.619   0.432 -0.0246  0.0239 -0.2224
 5440W        W 9504   1.806   0.722  10.983 -0.2901 -0.1113  0.0659
 5441W        W 9505   3.705   2.419   3.597  0.1258  0.1218  0.1470
 5442W        W 9506   8.626   3.624   0.391 -0.0861  0.1417 -0.2599
 5443W        W 9507   5.305   8.201   7.756  0.2786 -0.0394  0.1421
 5444W        W 9508  10.165   4.787  11.043 -0.1414  0.0292 -0.1764
 5445W        W 9509   1.971   9.379   8.010 -0.0355 -0.1792  0.5011
 5446W        W 9510   8.349   3.223   9.079  0.0048  0.3518  0.0346
 5447W        W 9511   4.896   7.480  10.186 -0.2265 -0.3281 -0.1887
 5448W        W 9512   7.080   4.331   0.056 -0.0383  0.0889 -0.0199
 5449W        W 9513  10.332   8.604   9.266  0.1948 -0.3012 -0.1762
 5450W        W 9514   3.844   9.584   9.278  0.0843 -0.1239  0.0016
 5451W        W 9515   5.980   1.267   4.622  0.0302  0.2546  0.0270
 5452W        W 9516   8.944   0.043  11.027 -0.2259 -0.1490 -0.1109
 5453W        W 9517   9.007   0.408   3.356 -0.0644 -0.0963 -0.4145
 5454W        W 9518   9.909   5.879   3.797  0.0208  0.2439 -0.0405
 5455W        W 9519   7.522   9.050   6.881  0.0123  0.0493  0.2721
 5456W        W 9520   7.926   9.976   2.680  0.2921  0.2734  0.1391
 5457W        W 9521   6.481   2.308   9.493  0.4004  0.2522  0.0491
 5458W        W 9522   1.226   7.367  10.098 -0.4230 -0.1889 -0.1287
 5459W        W 9523  10.532   6.670   0.737  0.0370  0.2058  0.1632
 5460W        W 9524   5.535   1.873   8.276  0.2209 -0.0655 -0.1618
 5461W        W 9525   6.868  10.165   1.464  0.0540 -0.2536  0.1190
 5462W        W 9526   3.634   0.676   0.501  0.3606 -0.4609 -0.0723
 5463W        W 9527   2.734   8.418  10.902 -0.1946 -0.0326 -0.0731
 5464W        W 9528   2.736   3.621   7.895  0.0082 -0.0575  0.2026
 5465W        W 9529   0.095   9.536   3.577 -0.2704  0.1669  0.2895
 5466W        W 9530   3.089   7.070   7.973 -0.1508 -0.0638 -0.0358
 5467W        W 9531   9.972   5.076   8.329  0.2450 -0.0286 -0.0919
 5468W        W 9532   6.233   7.149   9.871 -0.1273  0.0697  0.2173
 5469W        W 9533   1.542   9.406   8.370 -0.1972 -0.3478 -0.2316
 5470W        W 9534  10.343   1.294   0.787 -0.1372 -0.2053  0.1875
 5471W        W 9535   4.939   8.795   1.948 -0.2193 -0.1735  0.1089
 5472W        W 9536   3.730   5.791   3.396 -0.0459  0.1730  0.2645
 5473W        W 9537   9.351  10.569   1.751 -0.1272  0.0551  0.0118
 5474W        W 9538   7.747   4.978   1.585 -0.2125 -0.0820 -0.1293
 5475W        W 9539   4.482   6.598   3.503  0.1873 -0.1605  0.1616
 5476W        W 9540   9.516   4.114   2.710  0.0027 -0.1662  0.2840
 5477W        W 9541   4.526   2.715  10.732 -0.0415  0.1653 -0.2936
 5478W        W 9542   0.771   3.064   0.064  0.1214 -0.0679  0.1045
 5479W        W 9543   2.642   4.447   0.715 -0.0151  0.3756  0.2279
 5480W        W 9544   5.729   5.526   8.081 -0.1101  0.0508  0.0908
 5481W        W 9545   1.847   2.593   0.170 -0.2055  0.3050 -0.1879
 5482W        W 9546   8.372   2.932   1.326  0.4472 -0.0435  0.2133
 5483W        W 9547   0.183   3.493   8.321 -0.0847  0.2187 -0.1532
 5484W        W 9548   7.684   4.650  10.872 -0.0320 -0.0802 -0.0948
 5485W        W 9549   5.616   3.250   2.781  0.1027  0.1450 -0.1047
 5486W        W 9550   6.830   0.497   1.821 -0.2735 -0.2096 -0.1817
 5487W        W 9551   7.764   9.391   7.162  0.1523 -0.0461  0.5612
 5488W        W 9552   7.214   0.828   1.727  0.3058  0.0840 -0.1721
 5489W        W 9553   9.772   1.651   1.597  0.1471  0.0884  0.1339
 5490W        W 9554  10.509   7.456   0.587 -0.1224  0.1352 -0.2674
 5491W        W 9555   3.469   4.253   3.845  0.1754  0.0603 -0.3231
 5492W        W 9556   1.550   5.142  11.407 -0.0347 -0.2142 -0.3192
 5493W        W 9557   3.375   9.282   3.932  0.0993 -0.1355 -0.0101
 5494W        W 9558   3.079   3.830  10.644 -0.0322  0.0555  0.1527
 5495W        W 9559   7.323   1.290  10.245 -0.5108 -0.0682  0.3960
 5496W        W 9560   5.938   1.104   8.547  0.2502  0.3012  0.3298
 5497W        W 9561   8.895   4.663   1.973  0.1304  0.3850 -0.0784
 5498W        W 9562   1.182   0.006  10.164  0.3256 -0.1873  0.0192
 5499W        W 9563   8.911   9.920   1.131  0.1233  0.1406  0.0891
 5500W        W 9564   9.669   6.873   3.769 -0.2592  0.1006  0.0449
 5501W        W 9565   4.627   4.917  10.462 -0.0131  0.1387 -0.0985
 5502W        W 9566   7.805   0.919   2.433  0.0433  0.0133 -0.1184
 5503W        W 9567   8.343   2.333   2.191 -0.2422 -0.2491  0.1494
 5504W        W 9568   3.651  10.333  10.816 -0.0222 -0.0390  0.2463
 5505W        W 9569   0.076   9.891   1.046  0.2093  0.3060 -0.0568
 5506W        W 9570   6.389   0.415   8.143 -0.2330 -0.2834  0.0806
 5507W        W 9571   2.191   4.542   0.659 -0.0888 -0.0698  0.0400
 5508W        W 9572   6.802   7.825   1.836  0.0981  0.1087 -0.0202
 5509W        W 9573   9.129   1.246   0.376  0.0389  0.2847  0.1644
 5510W        W 9574   1.489   4.177   1.545  0.0458 -0.0376 -0.0534
 5511W        W 9575   7.435   4.732   1.081  0.1019  0.0245  0.1398
 5512W        W 9576   7.320   8.312  10.335  0.3380 -0.1748  0.1606
 5513W        W 9577   2.577  10.351  11.252 -0.1969 -0.1118  0.2004
 5514W        W 9578   9.432   5.357  10.151 -0.0973 -0.0947 -0.1141
 5515W        W 9579   6.912   2.342  10.486  0.0931  0.0664 -0.3344
 5516W        W 9580   4.071  10.091  10.876  0.1269  0.0852 -0.1285
 5517W        W 9581   1.674   2.139   1.624 -0.1824 -0.4485  0.3125
 5518W        W 9582   0.025   7.459   2.254 -0.0311  0.1569  0.2112
 5519W        W 9583   2.935   9.011  11.284 -0.0919  0.3648  0.0891
 5520W        W 9584   3.763   4.189   1.843  0.1080  0.2838  0.0956
 5521W        W 9585   9.276   4.617   9.919  0.0990  0.1018  0.0826
 5522W        W 9586   2.103   2.216   1.832  0.2349 -0.2171 -0.1840
 5523W        W 9587   1.058   7.410   4.065 -0.1178 -0.0236  0.2168
 5524W        W 9588   9.708   0.335   8.159 -0.1756  0.0306 -0.1737
 5525W        W 9589   4.647   9.690   0.930  0.1021  0.4353  0.1398
 5526W        W 9590   4.274   7.774   0.064  0.3288 -0.1987  0.0108
 5527W        W 9591   3.597   2.886  10.610 -0.0906  0.0525 -0.1174
 5528W        W 9592   2.770   1.931   2.239 -0.2859 -0.2962  0.2312
 5529W        W 9593   6.792   3.717   1.423 -0.1268  0.0854  0.1833
 5530W        W 9594   6.862   8.444  10.153  0.0747 -0.2142  0.4834
 5531W        W 9595   2.844   6.814   1.423  0.1206 -0.0071 -0.0178
 5532W        W 9596   5.625   0.285   1.050 -0.1934  0.0619  0.1213
 5533W        W 9597   9.343   8.768   1.846  0.0693  0.0133 -0.1452
 5534W        W 9598   2.674   6.439  11.351  0.1272 -0.2759 -0.1553
 5535W        W 9599   8.925   3.169   1.446 -0.0631  0.4320  0.0956
 5536W        W 9600   4.926   3.362   0.213  0.0267 -0.2523 -0.1151
 5537W        W 9601   6.397   4.691   0.404 -0.1095  0.0013  0.2736
 5538W        W 9602   7.008   0.450   8.673  0.1854 -0.0108 -0.0104
 5539W        W 9603   5.630   5.911   8.415  0.0903  0.0794  0.3344
 5540W        W 9604   7.356  10.175   8.717  0.0053 -0.0812  0.1612
 5541W        W 9605   8.455  10.301   1.390  0.1564 -0.6194 -0.1536
 5542W        W 9606   5.729   2.639   3.651  0.1307 -0.1148 -0.0707
 5543W        W 9607   7.605   2.859   0.152  0.0796 -0.0334 -0.1491
 5544W        W 9608   3.681   0.662   3.543 -0.1080 -0.0869  0.0653
 5545W        W 9609   9.190   7.817   2.151  0.0678  0.4848 -0.4275
 5546W        W 9610   6.354   0.712   1.694  0.0815  0.1421 -0.2369
 5547W        W 9611   3.074   1.557   9.993 -0.0963 -0.3255  0.1062
 5548W        W 9612   3.230   5.579  10.193  0.0103  0.1626 -0.1005
 5549W        W 9613   5.206   9.252   0.061 -0.2738 -0.1624  0.0532
 5550W        W 9614   2.928   3.433   1.184  0.1993 -0.2273 -0.3205
 5551W        W 9615   3.171   7.280   0.129  0.0377 -0.0765  0.3733
 5552W        W 9616   5.558   1.422  11.403 -0.0901 -0.1153  0.0720
 5553W        W 9617   1.625   4.679  10.195  0.2020  0.0468 -0.0450
 5554W        W 9618  10.245   0.830   3.767  0.0043  0.5653 -0.1405
 5555W        W 9619   3.322   5.248   0.558  0.0006 -0.2059  0.1153
 5556W        W 9620   1.282   6.728   0.417 -0.1953 -0.5624  0.4514
 5557W        W 9621   0.182   8.492   9.367 -0.1885 -0.0449  0.1880
 5558W        W 9622   6.900   3.130   9.377 -0.1555 -0.1603  0.0032
 5559W        W 9623   9.112   7.657   2.751 -0.3108  0.0766 -0.0603
 5560W        W 9624   7.522   2.633  10.150 -0.0890  0.2268  0.2665
 5561W        W 9625   3.069   7.549   1.902  0.3085 -0.0014 -0.0044
 5562W        W 9626   3.246   2.620   3.487 -0.0150  0.3543 -0.1188
 5563W        W 9627   9.823  10.211   3.052 -0.4196 -0.2364  0.0844
 5564W        W 9628   1.537   6.171   3.654 -0.0545  0.0380  0.0029
 5565W        W 9629   7.218   6.019   3.288 -0.0402 -0.1029 -0.0874
 5566W        W 9630   1.533   4.283  11.037 -0.2165 -0.2217  0.1056
 5567W        W 9631  10.318   3.519  11.269 -0.0931 -0.1033 -0.4210
 5568W        W 9632   5.732   6.419   8.348 -0.0326  0.1542 -0.0955
 5569W        W 9633   3.418   1.328   1.498 -0.0890  0.1245 -0.2117
 5570W        W 9634   2.577   3.745  10.433  0.3139 -0.0671 -0.1332
 5571W        W 9635   6.725   9.395   1.927  0.0097 -0.0323 -0.3103
 5572W        W 9636   0.130  10.048  10.841  0.0369 -0.0998  0.1062
 5573W        W 9637   8.420   2.244   8.757  0.2828 -0.0778 -0.4812
 5574W        W 9638   5.256   5.446   1.560  0.2516  0.2380  0.3611
 5575W        W 9639  10.488   4.207  10.489 -0.3477  0.2823 -0.0899
 5576W        W 9640   7.340   3.730   1.583 -0.1996 -0.2577 -0.1319
 5577W        W 9641  10.715   4.199   0.169 -0.0940  0.5372 -0.1592
 5578W        W 9642   0.026   4.359   8.039 -0.0144 -0.2530  0.1540
 5579W        W 9643   6.930   9.882   7.826 -0.0669 -0.0143  0.2590
 5580W        W 9644   4.898   5.271   9.687  0.0154 -0.0701 -0.0633
 5581W        W 9645   0.211   3.499   9.072  0.0187 -0.3330 -0.0518
 5582W        W 9646  10.048   8.921   9.560  0.0397 -0.0267 -0.0592
 5583W        W 9647   0.183   0.537  11.255 -0.0518  0.0826  0.2071
 5584W        W 9648   8.832   9.667   0.333  0.1400  0.2022 -0.0156
 5585W        W 9649   8.661   5.788   9.054 -0.2021  0.2011  0.0746
 5586W        W 9650   4.334   3.150   9.301  0.1926  0.0686 -0.0006
 5587W        W 9651   2.394   4.695   8.497  0.1670 -0.0850  0.4252
 5588W        W 9652   4.209   3.077  10.819  0.1300  0.0184  0.0301
 5589W        W 9653   2.470   3.449   9.248 -0.3471  0.2677  0.0566
 5590W        W 9654   7.146  10.158   8.268 -0.0356  0.3425  0.0420
 5591W        W 9655   4.541   3.827   2.060 -0.2189 -0.1171 -0.3404
 5592W        W 9656   6.192   6.729   8.324 -0.0426 -0.1250  0.0615
 5593W        W 9657   8.869   2.401   9.592  0.1675 -0.1583  0.2550
 5594W        W 9658  10.276   2.991   3.401 -0.1755  0.3863  0.0262
 5595W        W 9659   1.143   6.340   7.501 -0.1136  0.2209 -0.2160
 5596W        W 9660   2.206   5.754   1.933 -0.1860 -0.0173 -0.4852
 5597W        W 9661   3.540   9.383  11.155 -0.0260  0.2968 -0.1205
 5598W        W 9662   4.374   4.980   8.900 -0.0634 -0.1492 -0.1400
 5599W        W 9663   3.739   5.522   4.437 -0.0479 -0.0791  0.1205
 5600W        W 9664  10.408   4.588   1.013 -0.0872  0.1441 -0.1690
 5601W        W 9665   5.587  10.374   1.081  0.1609 -0.0613 -0.2501
 5602W        W 9666   6.165   4.451   9.431  0.1967  0.0053  0.0346
 5603W        W 9667   4.582   2.800   0.923  0.0869 -0.3490 -0.0395
 5604W        W 9668   7.312   2.781   1.741  0.2459 -0.2200 -0.1399
 5605W        W 9669   7.240   4.557   9.328  0.2723  0.0672 -0.3829
 5606W        W 9670   1.508   5.344  10.964 -0.0270  0.0445  0.0712
 5607W        W 9671   4.389   1.332   3.448  0.0630  0.1108 -0.0550
 5608W        W 9672   1.620   3.787  10.876 -0.1223 -0.0074 -0.1950
 5609W        W 9673   5.578   7.473   3.611 -0.0534 -0.2835  0.0642
 5610W        W 9674   3.635   9.921   9.584  0.0125 -0.0713  0.2288
 5611W        W 9675   2.121   4.087   1.156  0.0160 -0.0840 -0.3052
 5612W        W 9676   4.618   3.387   1.859  0.1105 -0.1047  0.0719
 5613W        W 9677   9.701   7.374  10.646  0.1179 -0.2133 -0.1545
 5614W        W 9678   8.636   1.597   8.127 -0.0118 -0.0185 -0.2628
 5615W        W 9679   0.985   5.018  10.627 -0.4865  0.1370  0.3490
 5616W        W 9680  10.134  10.289   0.485 -0.2531  0.1361 -0.2017
 5617W        W 9681   1.880   3.977   7.761  0.1902  0.1555  0.0423
 5618W        W 9682   8.245   7.164   1.408 -0.1039  0.0503 -0.1759
 5619W        W 9683   6.739   6.218   7.619  0.0402  0.2129 -0.1976
 5620W        W 9684   5.193  10.308   1.527  0.0160 -0.1065 -0.2529
 5621W        W 9685   8.617   6.522   1.860 -0.0908 -0.1488  0.1193
 5622W        W 9686   0.432  10.039   7.692  0.1355 -0.0147  0.1956
 5623W        W 9687   0.651   8.965   1.564  0.0321 -0.1124  0.2291
 5624W        W 9688   3.526   6.044  11.192  0.0157 -0.2471 -0.0986
 5625W        W 9689   8.952   1.619   2.383  0.0146 -0.0945  0.1846
 5626W        W 9690   7.486   4.563   1.613  0.1924 -0.0192 -0.1060
 5627W        W 9691   9.702   0.607   9.865 -0.0808 -0.0446 -0.0249
 5628W        W 9692   8.630   6.446   2.987 -0.0076 -0.1009  0.1259
 5629W        W 9693   8.677   9.438   1.153  0.1024 -0.2948 -0.0853
 5630W        W 9694   4.945   9.718   7.501  0.0482  0.2701  0.0885
 5631W        W 9695   3.316  10.061   7.839 -0.1150 -0.1968  0.0241
 5632W        W 9696   7.971   9.648   8.004 -0.2138 -0.1077 -0.1514
 5633W        W 9697   7.812   6.985   8.287  0.4212  0.1076 -0.1102
 5634W        W 9698   0.105   3.456  10.494 -0.3108  0.1243 -0.0004
 5635W        W 9699   4.127   2.340  10.745 -0.0097  0.0176 -0.3333
 5636W        W 9700   5.417   5.010   1.500 -0.0742  0.2596 -0.0118
 5637W        W 9701   4.458   5.529   9.653  0.3276  0.0740 -0.0039
 5638W        W 9702   2.311   2.251   0.724 -0.1392  0.2583  0.0783
 5639W        W 9703   6.349   9.238   8.758  0.0769 -0.2631 -0.0415
 5640W        W 9704   6.743   1.194   8.345 -0.0062  0.1009  0.1695
 5641W        W 9705   5.935   5.853   3.064 -0.2552 -0.1180 -0.0146
 5642W        W 9706   0.414   1.922   9.493  0.1897  0.0441 -0.2424
 5643W        W 9707   0.822   6.627   0.686  0.2062 -0.0628  0.0226
 5644W        W 9708   1.279   9.874   2.263  0.1413  0.3971  0.0565
 5645W        W 9709   2.592   5.044  11.095 -0.0450  0.1578 -0.0165
 5646W        W 9710   9.680   6.295   8.785  0.0072 -0.0069  0.2212
 5647W        W 9711   5.851   6.733   0.684 -0.1318  0.1565  0.3399
 5648W        W 9712   6.378   0.795  11.414  0.3072  0.1252 -0.1020
 5649W        W 9713   6.686   1.272   2.377  0.1945  0.1571 -0.1065
 5650W        W 9714   2.709   6.791   9.285  0.1097  0.2910  0.0927
 5651W        W 9715   8.189  10.698   9.443  0.0791 -0.1496  0.1909
 5652W        W 9716   2.880   6.084   3.123 -0.2402  0.0520  0.0147
 5653W        W 9717   7.672   2.225   8.267  0.0525  0.1683  0.0385
 5654W        W 9718   3.243   5.748   2.782  0.0931  0.2509  0.0260
 5655W        W 9719   2.032   7.201   9.561 -0.0638 -0.1795 -0.0012
 5656W        W 9720   1.719   5.227   8.108  0.0646 -0.5075 -0.0424
 5657W        W 9721   5.466   5.598   2.963 -0.1893  0.0080 -0.2978
 5658W        W 9722   7.729   3.965   9.647  0.2034 -0.0397 -0.3540
 5659W        W 9723   4.792   4.868   9.937  0.2538  0.0504 -0.1494
 5660W        W 9724   7.609   0.597   9.260 -0.2462  0.1291  0.0882
 5661W        W 9725   6.084   0.273   9.152  0.0430 -0.0067 -0.0338
 5662W        W 9726  10.541   3.128   9.101  0.0332 -0.0884 -0.3085
 5663W        W 9727   9.570   9.061   0.213  0.3541  0.0905  0.1532
 5664W        W 9728   9.474   7.771  10.417  0.0842  0.5190 -0.0476
 5665W        W 9729   2.950  10.331   2.999 -0.3309  0.0482 -0.0163
 5666W        W 9730   9.665   3.634   8.748 -0.0382  0.0413 -0.1736
 5667W        W 9731   1.218   0.477   9.288 -0.1571  0.2399  0.0373
 5668W        W 9732  10.001   4.504   0.060  0.1094 -0.1848  0.0000
 5669W        W 9733   4.816   3.992  10.967 -0.0347 -0.1214  0.0982
 5670W        W 9734   5.019   7.988   9.491 -0.3285  0.0060 -0.4121
 5671W        W 9735   7.643   6.358   0.232 -0.3363 -0.1774  0.1952
 5672W        W 9736   2.176   8.048   7.946  0.3335 -0.0727  0.2271
 5673W        W 9737   7.754   1.612   3.029 -0.0955  0.1885  0.0720
 5674W        W 9738   7.072   5.474   9.242 -0.3530 -0.0763  0.0676
 5675W        W 9739   9.178   7.155   2.752  0.2031 -0.1127 -0.0735
 5676W        W 9740  10.090   4.982   7.826  0.1171 -0.2482  0.0338
 5677W        W 9741   1.093   1.620   2.594  0.0608 -0.0402  0.2020
 5678W        W 9742   8.227   0.253   4.044  0.0830  0.1956 -0.0276
 5679W        W 9743   3.738   3.214   1.397  0.1474  0.1425  0.1741
 5680W        W 9744   7.363   1.066   1.270 -0.0793  0.2323 -0.0545
 5681W        W 9745   8.709   1.948   2.809 -0.2036 -0.1353 -0.2130
 5682W        W 9746   9.574   7.687   0.541  0.2037  0.0010  0.2256
 5683W        W 9747   8.075   1.451   0.054  0.4493 -0.0740  0.1858
 5684W        W 9748   1.129   7.299  11.103  0.3131 -0.0404  0.2412
 5685W        W 9749   9.094   0.060   0.757 -0.1008 -0.1786 -0.0260
 5686W        W 9750   0.969   6.796  10.266  0.1373 -0.1388 -0.1906
 5687W        W 9751   9.144   0.461   2.630 -0.0679 -0.2895 -0.0709
 5688W        W 9752   0.186   1.657   2.821 -0.1174  0.1288  0.4383
 5689W        W 9753   0.320   1.013   0.521  0.0437  0.0154  0.1398
 5690W        W 9754   9.681   3.986  10.003 -0.2687 -0.0563  0.1495
 5691W        W 9755   2.955   4.072   0.589 -0.0943  0.6326 -0.1105
 5692W        W 9756   2.159   3.267   9.758 -0.0204 -0.3723  0.0640
 5693W        W 9757   6.887  10.125  11.000 -0.2738 -0.3201 -0.1736
 5694W        W 9758  10.284   9.824   0.410  0.0441  0.0172 -0.0054
 5695W        W 9759   5.382   0.786  10.169  0.1570 -0.1849  0.3249
 5696W        W 9760   1.243   0.188   2.335  0.1681 -0.1600  0.0556
 5697W        W 9761   1.267   4.578  11.413  0.0560 -0.0051 -0.1387
 5698W        W 9762   0.301   3.894   8.571  0.3082 -0.4075 -0.2786
 5699W        W 9763   0.099   7.074  10.256  0.0914  0.1981  0.0638
 5700W        W 9764   4.189   4.199   9.958 -0.0017 -0.1154  0.1341
 5701W        W 9765   0.697  10.538  10.142 -0.3309  0.1824 -0.1004
 5702W        W 9766   6.495   1.850  11.303  0.1869 -0.1442  0.1239
 5703W        W 9767   0.760   5.924  10.417  0.1147  0.0646 -0.1335
 5704W        W 9768   2.373   7.564   7.803  0.1008 -0.3467  0.2486
 5705W        W 9769  10.359  10.104   8.128  0.2012  0.2002 -0.3400
 5706W        W 9770   8.280   3.967   9.917 -0.0711  0.2488 -0.1613
 5707W        W 9771   0.319   7.443  10.131 -0.1369 -0.1497 -0.3562
 5708W        W 9772   8.580   0.931  10.459 -0.1739  0.1261  0.0158
 5709W        W 9773   2.611  10.719   0.742 -0.4178 -0.2438  0.1004
 5710W        W 9774   5.541   0.537  10.988  0.2034 -0.1313 -0.0789
 5711W        W 9775   3.148   7.221   8.439 -0.1115  0.2401  0.2587
 5712W        W 9776   1.356   2.692   9.651 -0.1136  0.0775 -0.1897
 5713W        W 9777   2.009   8.181   1.293 -0.1776 -0.0395 -0.0662
 5714W        W 9778   3.895   6.090   0.666 -0.1144 -0.0871 -0.0755
 5715W        W 9779   9.440   0.680   3.108  0.0214 -0.0478  0.1227
 5716W        W 9780   2.883   2.276   8.819 -0.1127 -0.0318 -0.0084
 5717W        W 9781   0.229   3.426   1.316 -0.1834  0.1618 -0.3542
 5718W        W 9782   7.146   1.813   9.129  0.2469  0.3729 -0.0009
 5719W        W 9783   0.460   3.170   1.690  0.0990 -0.0186 -0.1438
 5720W        W 9784   5.068   5.540   0.734 -0.0219  0.0835 -0.2674
 5721W        W 9785   2.392   2.751   1.799  0.0018  0.3994 -0.0191
 5722W        W 9786   8.403   1.311   7.754 -0.3113  0.0766  0.1256
 5723W        W 9787   6.269   1.608   7.385  0.0636 -0.3777 -0.0798
 5724W        W 9788   5.903   8.065   1.120 -0.2727 -0.1896 -0.2467
 5725W        W 9789   1.122   1.010   3.429 -0.0231  0.0780 -0.0899
 5726W        W 9790   8.009   0.295   1.900 -0.0692 -0.2341  0.0435
 5727W        W 9791   6.990   4.274   2.397 -0.0137 -0.0060  0.0678
 5728W        W 9792   9.336   5.995   9.055  0.2708 -0.1373 -0.1524
 5729W        W 9793   5.373   8.028   2.047  0.0369  0.0601 -0.1367
 5730W        W 9794   9.634   4.439   0.340 -0.1773  0.4287  0.0170
 5731W        W 9795   0.649   7.153   4.365  0.1815  0.2264  0.0747
 5732W        W 9796   7.062   9.090   0.016 -0.2716  0.1276  0.0447
 5733W        W 9797   7.384   0.916   9.649 -0.0524 -0.0513  0.0498
 5734W        W 9798   3.279   0.224   1.877  0.4449  0.1312 -0.1456
 5735W        W 9799   8.915   8.693   8.527 -0.0696  0.2541  0.2293
 5736W        W 9800   8.440   7.654   2.621  0.0962 -0.0423  0.1941
 5737W        W 9801   8.993   1.722  10.497  0.2100  0.1701 -0.0966
 5738W        W 9802   7.692   8.329   2.824  0.2575  0.0103 -0.1012
 5739W        W 9803   0.676   0.101   0.294 -0.0247  0.2265  0.0534
 5740W        W 9804   0.572   8.151   1.974 -0.1667 -0.1345  0.2133
 5741W        W 9805   5.365  10.212   3.312 -0.1973  0.0009 -0.2386
 5742W        W 9806  10.581   5.783   7.760  0.0182  0.0651 -0.0512
 5743W        W 9807   3.453   4.616   1.879  0.0974  0.6429 -0.0629
 5744W        W 9808   5.215   3.432   8.744  0.1961  0.0471 -0.0724
 5745W        W 9809   7.515   6.604   6.875 -0.5008 -0.1431 -0.1447
 5746W        W 9810   2.119   5.679  10.619 -0.2438 -0.0038 -0.0882
 5747W        W 9811   6.349   3.747   2.638  0.0228  0.1901 -0.1459
 5748W        W 9812   2.932   8.501   8.634 -0.2104  0.0837 -0.2581
 5749W        W 9813  10.468   8.515   2.951  0.3632 -0.0234  0.3989
 5750W        W 9814   9.636   7.852   9.946  0.0995  0.0634  0.0488
 5751W        W 9815   0.978   1.385  10.418 -0.2035  0.0381 -0.1556
 5752W        W 9816   3.085   4.244   7.497  0.1487  0.1261 -0.2633
 5753W        W 9817   4.377   0.908   1.616 -0.0251 -0.2783  0.1546
 5754W        W 9818   8.774   6.054   8.605 -0.3335  0.1932  0.1150
 5755W        W 9819   6.343   0.511  10.170  0.0543 -0.4912 -0.0077
 5756W        W 9820   4.650   2.585   9.889 -0.0099  0.1194  0.0292
 5757W        W 9821   2.527   8.309   8.332 -0.0165 -0.1532  0.2684
 5758W        W 9822   3.891   4.900   3.518  0.2051  0.1706  0.0115
 5759W        W 9823   6.589   6.808  10.211  0.0311 -0.2507  0.0606
 5760W        W 9824   3.937   0.876   2.918 -0.2371  0.2089  0.0385
 5761W        W 9825   8.564   0.519   3.096 -0.1400 -0.0666  0.0589
 5762W        W 9826   9.247   6.418  10.791  0.1802  0.0019  0.0871
 5763W        W 9827   9.826   3.087   1.717  0.0703 -0.2745 -0.1770
 5764W        W 9828   3.596   1.652  10.242 -0.0436  0.3274 -0.0992
 5765W        W 9829   0.341  10.206   3.526  0.1179  0.1668  0.2621
 5766W        W 9830   3.048   2.427   1.163 -0.0079 -0.2863  0.3370
 5767W        W 9831   6.481   6.939   7.928 -0.1943 -0.1738  0.1271
 5768W        W 9832   6.631   2.937  10.390 -0.0053 -0.2588  0.3157
 5769W        W 9833   2.685   4.156   8.792  0.1299  0.1003  0.0245
 5770W        W 9834   9.676  10.153   1.802  0.0420 -0.0691  0.2763
 5771W        W 9835   5.684   2.015  10.483  0.1074 -0.1520  0.3001
 5772W        W 9836   6.448   4.068  10.216 -0.3266 -0.0229  0.0660
 5773W        W 9837  10.267   8.037   2.619 -0.0576  0.0608 -0.0046
 5774W        W 9838  10.254   0.202   7.856  0.2525 -0.0849 -0.0218
 5775W        W 9839  10.472   7.205   3.338  0.2267 -0.0834  0.2752
 5776W        W 9840   1.903   0.361   3.868  0.0573 -0.2351  0.2295
 5777W        W 9841   6.881   8.475   8.593 -0.1466  0.1801 -0.0685
 5778W        W 9842   1.153   2.043  11.382  0.3749  0.1046  0.1842
 5779W        W 9843   7.198  10.424   2.652 -0.0408  0.1576 -0.1622
 5780W        W 9844  10.514   7.508   7.697  0.0810  0.0972  0.0331
 5781W        W 9845   1.956   7.084   2.046 -0.1684 -0.0888  0.1295
 5782W        W 9846   1.192   6.973   0.018 -0.0305  0.0929  0.1372
 5783W        W 9847   1.588   8.021   0.757 -0.3286 -0.1645  0.0459
 5784W        W 9848   1.519   2.031   8.390 -0.3379  0.1087 -0.2477
 5785W        W 9849   4.309   7.710   7.791  0.0597  0.1063 -0.1590
 5786W        W 9850   9.899   5.654   2.237 -0.1920 -0.0214  0.0104
 5787W        W 9851   4.598   3.023  11.117  0.0035 -0.1900 -0.2688
 5788W        W 9852   5.316   9.785   0.386  0.0350 -0.1978  0.0262
 5789W        W 9853   7.454  10.668  10.368 -0.0524 -0.0054 -0.2132
 5790W        W 9854   9.589   8.819  10.339 -0.0757  0.1883  0.0525
 5791W        W 9855   4.293   6.673   8.158  0.0272 -0.1383  0.0788
 5792W        W 9856   8.461  10.248   9.285  0.0014 -0.0204 -0.1062
 5793W        W 9857   2.156   9.555   9.598  0.0432  0.2769  0.0228
 5794W        W 9858   2.420   9.868  11.117 -0.1859 -0.1735  0.0471
 5795W        W 9859   9.252   6.219   8.386 -0.0970  0.0383  0.0618
 5796W        W 9860   9.481   6.724   1.454  0.2989  0.1708  0.0515
 5797W        W 9861   4.057   2.242   3.147 -0.1789  0.0808 -0.1905
 5798W        W 9862   7.442   2.406   3.075  0.2850 -0.0985  0.1904
 5799W        W 9863   1.733   0.590   2.249 -0.1067 -0.0840 -0.1159
 5800W        W 9864   1.047   5.384   7.425  0.1022  0.0176  0.1371
 5801W        W 9865   5.603   4.680   1.853  0.0459 -0.1005 -0.0232
 5802W        W 9866   3.184   3.421   1.991 -0.0909 -0.2376  0.1031
 5803W        W 9867   2.340   0.286  10.578  0.1574 -0.1535  0.0679
 5804W        W 9868   0.990   9.118  11.244  0.0167 -0.0640  0.2552
 5805W        W 9869   0.566   5.459  10.193 -0.0166  0.0240 -0.0442
 5806W        W 9870  10.588   7.590   0.023 -0.1223 -0.1469 -0.0925
 5807W        W 9871   0.442   3.020   0.918  0.2102 -0.1296 -0.0877
 5808W        W 9872   1.801   0.871   1.152  0.0619  0.1732 -0.0153
 5809W        W 9873   0.988   9.062   9.040 -0.1168 -0.3565  0.0005
 5810W        W 9874   7.435   1.965   1.190 -0.1140 -0.2914 -0.3641
 5811W        W 9875   5.038   5.334  10.329 -0.1679 -0.2864  0.2066
 5812W        W 9876   5.694   5.549   7.065 -0.1009 -0.0904 -0.0781
 5813W        W 9877   2.062   1.336  10.332 -0.2221  0.1608  0.1312
 5814W        W 9878   0.988   2.325  10.931 -0.0205  0.0563  0.1183
 5815W        W 9879   7.436   5.432  11.309 -0.1890  0.2386 -0.2575
 5816W        W 9880  10.370  10.540   8.973 -0.0493  0.0079 -0.0601
 5817W        W 9881  10.016   1.864  10.270 -0.1765 -0.0039  0.1498
 5818W        W 9882   1.044   9.721   3.455  0.1306 -0.1264 -0.0742
 5819W        W 9883   1.422   1.962   8.872  0.1646 -0.2249  0.0227
 5820W        W 9884   8.999   9.333   9.158  0.1805 -0.0661 -0.3528
 5821W        W 9885   3.262   5.769   3.321 -0.1042 -0.0085  0.0723
 5822W        W 9886   5.757   4.889   2.282 -0.2360  0.0525 -0.0992
 5823W        W 9887   1.113   5.647  10.663 -0.1784 -0.0317  0.4954
 5824W        W 9888   2.329   3.222   1.725  0.0333  0.3550 -0.2417
 5825W        W 9889   1.452   8.561   9.558  0.3937  0.1358  0.2124
 5826W        W 9890   0.473   9.500   9.819 -0.1155 -0.0594  0.1993
 5827W        W 9891   6.236   9.139   8.127  0.0171  0.1524  0.0909
 5828W        W 9892   9.005   6.067   9.956 -0.0402  0.0507  0.2701
 5829W        W 9893   4.159   5.588  10.141  0.1615 -0.3260  0.2741
 5830W        W 9894   1.146   8.234   3.220 -0.2419  0.1450 -0.1882
 5831W        W 9895   7.740   5.069   3.240  0.2432  0.0984 -0.4844
 5832W        W 9896   4.982   4.434   8.696 -0.0599  0.0610  0.0779
 5833W        W 9897   7.099   3.484   8.495  0.1994 -0.2432  0.0453
 5834W        W 9898   3.492   2.723   8.647  0.0502 -0.3381 -0.0417
 5835W        W 9899   7.264  10.567   4.042  0.1670  0.3071  0.2138
 5836W        W 9900   5.657   3.153   2.110  0.1564  0.0307  0.0370
 5837W        W 9901   1.863   6.416   7.795 -0.0024  0.0906 -0.2434
 5838W        W 9902   4.120   7.116   8.932 -0.1278  0.1246 -0.0446
 5839W        W 9903   3.037   0.020   1.051 -0.2200 -0.0453 -0.1608
 5840W        W 9904   2.987   6.994   3.144  0.1114  0.3177 -0.0046
 5841W        W 9905   4.645   5.280  11.281  0.0461 -0.2162  0.1485
 5842W        W 9906   1.368   0.481  11.082  0.0412 -0.0617  0.0775
 5843W        W 9907   5.095   2.968   2.879 -0.1301  0.0690  0.1453
 5844W        W 9908   1.679   1.724   1.323  0.1561 -0.2285  0.0803
 5845W        W 9909   2.373   8.537   0.538  0.3642  0.1387  0.3956
 5846W        W 9910   1.811   1.731   8.981  0.0139  0.1040 -0.1291
 5847W        W 9911   0.576  10.447   8.918  0.1525  0.0729  0.3589
 5848W        W 9912   3.983   5.479   2.516  0.1237  0.0046  0.0096
 5849W        W 9913   9.182   8.413   7.375 -0.0013  0.2329  0.1373
 5850W        W 9914   2.956   7.503   3.253 -0.2425  0.0038  0.1582
 5851W        W 9915   3.184   9.342   0.098 -0.1696 -0.0246 -0.2063
 5852W        W 9916   0.602   7.099   7.373 -0.0079  0.1644  0.1209
 5853W        W 9917   3.736   1.446   3.715 -0.0565 -0.1589 -0.3323
 5854W        W 9918   2.441   9.108   9.731 -0.0274  0.3031 -0.0775
 5855W        W 9919   1.793   8.258  10.912  0.1408  0.4041  0.2910
 5856W        W 9920  10.526   7.079   9.447 -0.2889  0.1859  0.0645
 5857W        W 9921   5.947   3.821   4.166 -0.0534  0.0005  0.0496
 5858W        W 9922   2.613   2.775  10.847  0.0868  0.0911  0.0197
 5859W        W 9923   2.650   3.253  10.692 -0.1262  0.1015 -0.0321
 5860W        W 9924  10.331   0.769   8.554 -0.1446  0.0694  0.0175
 5861W        W 9925   9.593   8.176   2.182 -0.5379 -0.0502 -0.0152
 5862W        W 9926   4.639   8.754   8.470  0.4045 -0.0287 -0.1726
 5863W        W 9927   0.552   4.075  10.331 -0.0150  0.2961 -0.1383
 5864W        W 9928   7.546   5.890   3.696  0.1071 -0.0436  0.2104
 5865W        W 9929   0.665   6.670   8.171  0.0849  0.2121 -0.0024
 5866W        W 9930   7.703   7.944   8.288  0.1600 -0.1493 -0.1124
 5867W        W 9931   9.442   5.486   3.507  0.0319  0.1019 -0.0936
 5868W        W 9932   2.602   7.456  11.326  0.0573 -0.0445 -0.4789
 5869W        W 9933   9.705   0.057   7.775 -0.0850  0.0652 -0.2572
 5870W        W 9934   1.322   0.545   3.362  0.0859 -0.1008 -0.2892
 5871W        W 9935   9.276   6.458   3.945  0.2115 -0.0461 -0.0274
 5872W        W 9936   9.483   2.409   2.136 -0.2623 -0.1750 -0.0992
 5873W        W 9937   6.935   5.349  10.502  0.1378 -0.0626 -0.0540
 5874W        W 9938   3.578   5.097  10.751 -0.3053  0.0989  0.1768
 5875W        W 9939   8.637   5.965   2.906 -0.0231  0.1476  0.2143
 5876W        W 9940  10.320   0.412  10.832 -0.1912  0.1355  0.1514
 5877W        W 9941  10.699   9.753   9.583  0.0153 -0.0351  0.3948
 5878W        W 9942   7.839   7.884  10.505 -0.1896  0.0660 -0.0033
 5879W        W 9943   5.358   8.192  11.254 -0.2176 -0.0449  0.0258
 5880W        W 9944   9.330   4.715   9.462 -0.0168 -0.2890  0.1121
 5881W        W 9945   5.929   7.082   8.011  0.2491  0.0142 -0.1029
 5882W        W 9946   6.066   8.710   8.676  0.2822 -0.1491  0.0967
 5883W        W 9947  10.469   7.332   9.976  0.4155 -0.0452  0.0617
 5884W        W 9948   4.455   1.780  10.039 -0.3470  0.0701  0.0752
 5885W        W 9949   5.364   8.355   0.705 -0.2556 -0.2230  0.0052
 5886W        W 9950   0.459   1.793  11.383  0.3496  0.0392 -0.1355
 5887W        W 9951   7.411   6.684   9.999 -0.2934 -0.0940  0.1677
 5888W        W 9952   9.859   7.245   0.416  0.1364  0.2577 -0.2007
 5889W        W 9953   2.926   9.262  10.116  0.4725 -0.1529 -0.0098
 5890W        W 9954   6.866   8.012   6.875  0.1465  0.3225 -0.1163
 5891W        W 9955   6.629   9.437   3.480  0.1195 -0.0943  0.1898
 5892W        W 9956   9.639   0.066   1.017  0.1799 -0.0273  0.3235
 5893W        W 9957   8.792   6.326  10.490 -0.1004 -0.0003 -0.0414
 5894W        W 9958   8.332   5.117   0.128  0.3027  0.0029  0.1535
 5895W        W 9959   9.220   9.446   2.183 -0.0015  0.0965  0.0347
 5896W        W 9960   9.943   1.481   2.022  0.0794 -0.1686  0.0288
 5897W        W 9961   3.809   0.894   1.648 -0.1035  0.0130  0.0285
 5898W        W 9962   1.149   5.097   2.896  0.2200  0.1122 -0.3083
 5899W        W 9963   0.480   3.260   3.215  0.3337  0.2382  0.1751
 5900W        W 9964   7.985   2.191   9.377  0.2264 -0.3841  0.0405
 5901W        W 9965   8.713  10.642   9.180  0.1865 -0.1783  0.0801
 5902W        W 9966   5.115   1.152   7.961  0.1044 -0.3388 -0.0976
 5903W        W 9967   9.113   0.783  10.662  0.1305 -0.3821  0.0252
 5904W        W 9968   6.749   8.311   1.667  0.1937 -0.1140  0.0797
 5905W        W 9969   1.768   5.633   2.920  0.4060  0.1053 -0.0205
 5906W        W 9970  10.187   3.231   0.958  0.0306 -0.1073 -0.2009
 5907W        W 9971   3.765   4.171  11.009  0.0603 -0.0045  0.0958
 5908W        W 9972   3.757   1.149  11.142 -0.0779  0.2149 -0.2391
 5909W        W 9973   5.284   3.211  10.319 -0.2811 -0.2096  0.0340
 5910W        W 9974   7.567   9.538   1.517  0.0505  0.0892  0.1353
 5911W        W 9975   1.597   1.956   2.178 -0.1052  0.0146  0.0840
 5912W        W 9976  10.041   5.982  11.184  0.4484  0.1146 -0.0475
 5913W        W 9977   5.534   2.728   0.157  0.1829  0.1613 -0.1521
 5914W        W 9978   0.339   0.724  10.294 -0.0399 -0.1076  0.1295
 5915W        W 9979   1.998  10.034  11.347 -0.2776 -0.1974 -0.2498
 5916W        W 9980   7.374   6.644   9.079  0.0988  0.0402 -0.1106
 5917W        W 9981   9.003   4.099  10.489  0.0139 -0.1170 -0.0208
 5918W        W 9982   3.097   9.358   3.385 -0.0822 -0.2260  0.1472
 5919W        W 9983   7.505   5.467   1.756  0.2597 -0.0355 -0.0682
 5920W        W 9984   7.629   1.649   9.248 -0.2197  0.2829 -0.0583
 5921W        W 9985   6.620   1.705   1.587  0.1708  0.0018  0.0568
 5922W        W 9986   5.989   2.423   3.237 -0.1263 -0.0346 -0.0851
 5923W        W 9987   8.706   7.818   0.245  0.2793 -0.4267 -0.0920
 5924W        W 9988   8.733   8.215  10.173  0.1713  0.2357  0.3194
 5925W        W 9989   7.259   6.106   8.899 -0.0549 -0.0437  0.0976
 5926W        W 9990   8.564   9.537  10.057 -0.2635 -0.1978  0.0012
 5927W        W 9991   5.483   7.575  10.123 -0.0405  0.2232  0.1195
 5928W        W 9992   2.700   2.788  10.310 -0.0893  0.1066 -0.1856
 5929W        W 9993   6.869   1.819   1.143  0.0960 -0.0306 -0.1453
 5930W        W 9994   8.940   7.843   8.638 -0.0555 -0.1320 -0.3252
 5931W        W 9995   4.942   8.389   9.279 -0.1100 -0.2287  0.0005
 5932W        W 9996   0.896   6.079   9.869  0.2687  0.0987 -0.3872
 5933W        W 9997   8.363   8.545   1.315  0.3189 -0.0678 -0.0990
 5934W        W 9998   0.756   9.360   3.153  0.0452 -0.2419 -0.2052
 5935W        W 9999   2.127   2.517   2.750  0.1940  0.2779  0.0207
 5936W        W10000   1.816   6.084   2.804 -0.0591 -0.0386 -0.1013
 5937W        W10001   2.845   8.611   9.548 -0.0806  0.0505 -0.0426
 5938W        W10002   0.084  10.441   1.203 -0.0099 -0.0862  0.1816
 5939W        W10003   4.907   4.355   3.529 -0.1167 -0.1465  0.0721
 5940W        W10004   9.242   1.033   9.388  0.1327 -0.1199 -0.1116
 5941W        W10005   5.217   7.242   2.813  0.0446  0.0514 -0.1821
 5942W        W10006   5.673   5.458   8.644  0.0613 -0.1220 -0.0185
 5943W        W10007   1.739   4.518  11.408 -0.1617  0.0965 -0.5368
 5944W        W10008   8.516  10.117   3.185  0.0760 -0.0206  0.0305
 5945W        W10009   3.053   5.402   2.472  0.0116 -0.0002 -0.1726
 5946W        W10010   5.774   5.942   1.574 -0.0260 -0.0229 -0.1874
 5947W        W10011  10.382   3.425   1.406 -0.2044 -0.1600 -0.1123
 5948W        W10012   6.169   1.048   0.402 -0.0688 -0.0326  0.1914
 5949W        W10013   0.394   6.965   1.315 -0.1126 -0.1153 -0.2080
 5950W        W10014   6.022   1.565  11.145 -0.1243  0.0325  0.1434
 5951W        W10015   8.723   4.406   0.704  0.1270  0.3273 -0.0794
 5952W        W10016  10.020   2.343  10.086 -0.0657  0.0322 -0.2292
 5953W        W10017   8.587   9.544   8.770  0.1540 -0.2618 -0.1043
 5954W        W10018   1.582   7.598   9.328 -0.2545 -0.0035  0.0535
 5955W        W10019   1.574   1.686   2.583  0.1915 -0.0101 -0.3288
 5956W        W10020   9.224   0.608   9.693  0.1365  0.0267  0.4112
 5957W        W10021   6.062   6.493  11.316  0.1945 -0.0725 -0.2268
 5958W        W10022   3.659   8.289   2.455 -0.0302  0.0120  0.1602
 5959W        W10023   5.193   1.722   2.550 -0.2775 -0.0101 -0.2739
 5960W        W10024   1.270   2.837   8.184 -0.0732 -0.1676 -0.3401
 5961W        W10025   6.323   6.011   2.129  0.1186 -0.1135  0.1207
 5962W        W10026   0.149   4.293   0.828  0.0147  0.0164  0.1820
 5963W        W10027  10.394  10.121   1.329  0.0425  0.2438  0.1384
 5964W        W10028   7.827   3.152   2.511  0.0558  0.0015 -0.0134
 5965W        W10029   0.224   9.191   0.648  0.0108  0.1841  0.2148
 5966W        W10030   9.308   6.583   9.742  0.0554  0.3584  0.0684
 5967W        W10031   2.082   2.142   8.190  0.2254 -0.0461 -0.0955
 5968W        W10032   2.750  10.174   9.910  0.1619  0.2208 -0.0688
 5969W        W10033   2.580   8.867  10.702  0.1695 -0.0335  0.2248
 5970W        W10034   7.744   4.261   1.068 -0.3383 -0.4761  0.1204
 5971W        W10035   8.253   9.400   8.386 -0.0719 -0.2153  0.2075
 5972W        W10036   6.029   3.791   3.510  0.0305  0.3543  0.2679
 5973W        W10037   4.632   7.965   8.753 -0.0265 -0.1705 -0.1187
 5974W        W10038   4.511   2.791   3.584 -0.1452 -0.1784 -0.0630
 5975W        W10039   8.714   7.316   8.390 -0.0969 -0.0680 -0.2775
 5976W        W10040   1.775   2.433   9.339 -0.1427  0.0298 -0.0687
 5977W        W10041   2.537   4.549   9.719 -0.0480 -0.1332  0.1811
 5978W        W10042   5.871   1.942   8.637  0.0786  0.2959  0.0948
 5979W        W10043   0.127  10.331   9.175 -0.0863  0.1491 -0.3332
 5980W        W10044   1.975   0.349   4.579  0.2007  0.0291 -0.3527
 5981W        W10045   9.893   3.161   8.369 -0.0881 -0.1507 -0.4464
 5982W        W10046   8.736   3.214   0.092 -0.0068 -0.0836  0.0060
 5983W        W10047   1.701   8.231   8.832  0.0693  0.1572  0.0951
 5984W        W10048   0.106   3.842   0.559 -0.1833 -0.0428 -0.0153
 5985W        W10049   4.935   9.177   2.280  0.0219 -0.0405 -0.1035
 5986W        W10050   5.804  10.490   9.302  0.1039  0.2439  0.2330
 5987W        W10051   5.884   1.219   3.522 -0.2229  0.2480  0.1760
 5988W        W10052  10.273   8.861   2.096 -0.1893  0.2302 -0.1934
 5989W        W10053   2.958   2.946   1.157 -0.0880 -0.0931 -0.0996
 5990W        W10054   2.340   0.228   3.706 -0.0377  0.0813 -0.1346
 5991W        W10055   3.685   5.074   2.119  0.0503 -0.4521  0.0252
 5992W        W10056   5.775   5.369  10.878  0.0269 -0.3331 -0.0756
 5993W        W10057   1.652   1.044   2.097 -0.4370 -0.0715  0.1384
 5994W        W10058   7.291   2.640   0.706  0.0452 -0.0905 -0.0946
 5995W        W10059   3.645   0.775   2.451 -0.2611  0.3959  0.1226
 5996W        W10060   8.571   0.025   0.600  0.1531  0.1848  0.0783
 5997W        W10061   2.110   5.007  10.724 -0.4288  0.0067 -0.1187
 5998W        W10062   9.092   7.554   0.352  0.2544  0.1495  0.1578
 5999W        W10063   6.698   1.925   9.751  0.1545  0.0694  0.1603
 6000W        W10064   5.986  10.628   1.184 -0.2102 -0.1965  0.0091
 6001W        W10065   5.038   6.312   1.201 -0.0659 -0.3821  0.0532
 6002W        W10066   6.051   1.553   1.667 -0.1010  0.2101 -0.1012
 6003W        W10067   7.890   9.394   1.148  0.2096  0.0546  0.2251
 6004W        W10068   1.756  10.657   0.311 -0.1894 -0.1873 -0.3166
 6005W        W10069   2.264   5.352   1.592 -0.2931 -0.1099 -0.4625
 6006W        W10070   7.337   1.551   0.341  0.0549 -0.0726  0.0818
 6007W        W10071   6.678   2.123  10.850 -0.2628 -0.1303 -0.1122
 6008W        W10072   5.293   9.643   9.443  0.1048 -0.3003  0.2645
 6009W        W10073   8.545   9.268   7.370 -0.1955  0.0434  0.0342
 6010W        W10074   1.132   5.983   9.443  0.0986 -0.0612  0.0035
 6011W        W10075   6.863   0.434  11.156 -0.1086  0.0502  0.1311
 6012W        W10076   4.416   9.731  11.093 -0.0757 -0.2177 -0.1474
 6013W        W10077   7.039   1.924   2.856  0.1432 -0.2493  0.0365
 6014W        W10078   9.594   9.531   2.543 -0.3702  0.0163 -0.0729
 6015W        W10079   6.192   8.167   9.893 -0.0080 -0.0376 -0.2949
 6016W        W10080   1.864   0.985   9.388  0.1460  0.4029 -0.0501
 6017W        W10081   9.245   4.133  10.010 -0.0901  0.1635 -0.2465
 6018W        W10082   8.478   7.180   9.402 -0.0035  0.0658 -0.2111
 6019W        W10083   8.063   7.432   9.600  0.2711  0.1238 -0.2801
 6020W        W10084  10.309   1.713   9.060  0.1173  0.1809  0.3460
 6021W        W10085   0.826   9.117  10.599  0.0092 -0.1290  0.0820
 6022W        W10086   8.172  10.419   3.454 -0.1556 -0.1757  0.1988
 6023W        W10087   3.758   4.409  10.226  0.1314  0.0935 -0.1000
 6024W        W10088   6.511   9.894   7.405  0.0680 -0.0261  0.1099
 6025W        W10089   8.152   9.580   2.331 -0.4823 -0.0767  0.1723
 6026W        W10090   8.189   6.081   9.355  0.1808  0.1897  0.5109
 6027W        W10091   3.219   2.139  10.582 -0.0734 -0.1701  0.0777
 6028W        W10092   4.718   3.122   0.595 -0.0663  0.0261 -0.1349
 6029W        W10093   4.910   6.680  10.054  0.3332  0.1908  0.3270
 6030W        W10094   0.150   5.438   0.894 -0.0970 -0.1053 -0.2238
 6031W        W10095   6.908   6.126   8.569 -0.0368  0.3962 -0.0570
 6032W        W10096   9.838   8.504   9.283  0.2289 -0.0338  0.0278
 6033W        W10097   5.403   6.760   9.631  0.2919  0.0002  0.1729
 6034W        W10098   9.336   7.205   1.638 -0.0861  0.3038 -0.1150
 6035W        W10099   4.936   1.665  10.022  0.1007  0.1096 -0.0469
 6036W        W10100   9.247   9.576  10.758 -0.0797 -0.1198 -0.0042
 6037W        W10101   6.464   3.376  10.247 -0.0705 -0.0635  0.3510
 6038W        W10102   4.346   3.214   3.328  0.5350  0.1108  0.1460
 6039W        W10103   8.953   0.773   2.974  0.3540  0.2317  0.0495
 6040W        W10104   8.988   4.440   9.554  0.3366 -0.0325 -0.0802
 6041W        W10105   9.774   9.202   9.989 -0.0522 -0.0109  0.1144
 6042W        W10106   7.716   9.776   9.684 -0.0421  0.0828 -0.3129
 6043W        W10107   4.306   8.434  10.678  0.2111 -0.0295 -0.0295
 6044W        W10108   4.403   3.349   0.223  0.1421 -0.1061 -0.2343
 6045W        W10109  10.196   3.959  10.053  0.2022 -0.0907 -0.2810
 6046W        W10110   3.359   0.254  10.357 -0.2939 -0.1861 -0.0228
 6047W        W10111   3.331   9.486   9.422 -0.0575 -0.0066 -0.2524
 6048W        W10112   9.903   7.871  10.657  0.1419 -0.0297  0.0923
 6049W        W10113   4.770   0.083   3.600  0.1334  0.1346  0.0803
 6050W        W10114   8.731   6.370   9.652 -0.1315 -0.0337 -0.2396
 6051W        W10115   1.137   3.483  10.757  0.2785  0.0698 -0.1575
 6052W        W10116   7.523   9.139   3.660 -0.0979 -0.1097 -0.0074
 6053W        W10117   0.613   2.963   8.800 -0.1508  0.0074 -0.5251
 6054W        W10118   8.082   0.862  10.421 -0.0504 -0.1006 -0.2432
 6055W        W10119  10.581   0.208   9.243  0.0792 -0.2038  0.0923
 6056W        W10120   3.271  10.640  10.767 -0.0631 -0.2931  0.1596
 6057W        W10121   7.206   2.751   1.266  0.4315  0.0834 -0.0713
 6058W        W10122   5.233   7.110   1.283  0.0361  0.0322 -0.1478
 6059W        W10123   6.711   0.774   2.218 -0.1108 -0.1084  0.1024
 6060W        W10124   0.981   3.889  10.066  0.0364 -0.1500 -0.2824
 6061W        W10125   3.513   3.476   0.007  0.2483  0.1160 -0.0404
 6062W        W10126   5.377   0.327   3.669 -0.2254 -0.1539 -0.0902
 6063W        W10127   5.203   0.734   3.230 -0.1729  0.0487  0.2048
 6064W        W10128   5.744   0.427   0.544  0.2367  0.0981  0.2465
 6065W        W10129   6.103   3.047   2.267  0.2845  0.3109 -0.1587
 6066W        W10130   2.735   3.290   3.794 -0.0596 -0.5156  0.1715
 6067W        W10131   3.522   3.780   4.188 -0.1411  0.1391 -0.1423
 6068W        W10132  10.369   2.085   0.306  0.0500 -0.2463 -0.0835
 6069W        W10133  10.099  10.394   1.640 -0.0132  0.1694 -0.1670
 6070W        W10134   7.617   3.634   8.471  0.1612  0.0106  0.0149
 6071W        W10135   1.900   3.854  10.453  0.0798  0.1333  0.0086
 6072W        W10136   4.092   7.395   2.872  0.0381  0.2146 -0.2622
 6073W        W10137   0.928   7.912   8.144  0.2087 -0.0324  0.0236
 6074W        W10138   4.112   6.706  10.623  0.0868  0.2509  0.2376
 6075W        W10139  10.252   9.836   1.844 -0.0870 -0.0025 -0.2541
 6076W        W10140  10.602   6.138   8.660  0.0836  0.0353  0.0932
 6077W        W10141   1.566  10.291   0.027  0.1740  0.2133  0.2788
 6078W        W10142   3.098   8.994   9.740 -0.0490  0.0695 -0.2132
 6079W        W10143  10.002   0.897   9.010  0.0093 -0.1399 -0.2764
 6080W        W10144   1.687   4.029   2.038 -0.3257 -0.2770 -0.1731
 6081W        W10145   5.626   9.800   8.118 -0.1906 -0.0614  0.1690
 6082W        W10146   1.074   2.828  10.973  0.0285 -0.1936 -0.2935
 6083W        W10147   4.313   0.796   8.925  0.2035 -0.0997  0.2180
 6084W        W10148   0.492   4.455   7.821  0.0091 -0.0814  0.0049
 6085W        W10149   3.852  10.061   0.193  0.0572  0.2458  0.3744
 6086W        W10150   5.855   3.143   3.586  0.0224 -0.0230 -0.0866
 6087W        W10151   4.834   3.218  10.699 -0.1136  0.2761 -0.2124
 6088W        W10152   2.304   6.637   0.515  0.2638  0.1548  0.1241
 6089W        W10153   9.976   1.531   2.574 -0.1608  0.5551  0.2912
 6090W        W10154   1.856   8.134   3.965 -0.2175  0.0408 -0.2982
 6091W        W10155   4.709   2.368   1.914  0.1224  0.0987  0.0260
 6092W        W10156   4.765   9.436  11.231 -0.3457  0.3303 -0.3460
 6093W        W10157   6.847   4.000   0.609 -0.0528 -0.1450  0.1177
 6094W        W10158   9.083   5.704   0.300  0.0624 -0.0749  0.2060
 6095W        W10159   3.105   8.281   1.531  0.0763 -0.0345  0.1384
 6096W        W10160   8.744   3.183   3.530  0.1170  0.2364 -0.0353
 6097W        W10161   1.798  10.379   8.176 -0.0081  0.1565 -0.2560
 6098W        W10162   0.989   8.250   9.169 -0.2561  0.2333  0.0185
 6099W        W10163   5.306   8.370  10.276 -0.0560  0.0082 -0.1291
 6100W        W10164   8.851   9.104   2.753 -0.2452  0.0044 -0.1620
 6101W        W10165   4.280   3.632   1.189 -0.1417 -0.3107 -0.1008
 6102W        W10166   5.825   9.732   9.591  0.0183 -0.2117 -0.3548
 6103W        W10167   6.994   8.416  11.140 -0.1037 -0.0441 -0.3225
 6104W        W10168   4.590   2.036   0.595  0.4464 -0.0234 -0.3501
 6105W        W10169   4.979   4.798   4.123 -0.3859 -0.1084 -0.2135
 6106W        W10170   7.202   9.498   3.376  0.0541  0.2601 -0.1242
 6107W        W10171   1.981   9.767   0.439  0.0898 -0.1218 -0.4818
 6108W        W10172   0.639   7.010   0.422  0.0255  0.1701  0.0930
 6109W        W10173   5.432   9.419  10.399 -0.0388 -0.0664  0.0200
 6110W        W10174   3.585   7.825   2.744 -0.3437  0.0978 -0.2805
 6111W        W10175   0.856   2.245   2.462  0.0040 -0.3417 -0.1553
 6112W        W10176   5.056   9.001   8.616 -0.1828 -0.0432  0.1052
 6113W        W10177   2.117   5.748  11.277 -0.2994 -0.2278 -0.5638
 6114W        W10178   5.673   2.344   8.310 -0.3234  0.2825  0.1008
 6115W        W10179   1.828   6.368   8.810 -0.1476  0.0377 -0.2797
 6116W        W10180   4.351   3.994   2.511 -0.2062 -0.0745  0.1217
 6117W        W10181   9.705  10.380   1.341 -0.1652 -0.0235  0.1278
 6118W        W10182   1.419   6.092   7.859 -0.3823 -0.6706  0.1607
 6119W        W10183   7.410   8.084  10.769 -0.1555 -0.0611 -0.1118
 6120W        W10184   2.950   8.024   1.913 -0.3982 -0.0321 -0.0778
 6121W        W10185   6.862   0.057   8.216  0.1524  0.1103 -0.0144
 6122W        W10186   4.748   1.560   9.147  0.0947 -0.1378  0.0240
 6123W        W10187   7.177   5.088   0.830  0.1639  0.1650 -0.2482
 6124W        W10188   2.993   6.485   7.984  0.0769 -0.0184 -0.1200
 6125W        W10189   3.689   1.690   2.696 -0.0396 -0.1453  0.3625
 6126W        W10190   9.806   8.918   1.668  0.0600  0.1584 -0.0963
 6127W        W10191   7.780   2.216  10.082 -0.0769  0.1264 -0.2283
 6128W        W10192   4.625   6.211   8.381 -0.1820 -0.1517  0.1308
 6129W        W10193   7.588   8.183   0.725  0.3684  0.4147  0.3113
 6130W        W10194   9.508   9.314   8.897 -0.4467 -0.0803 -0.1262
 6131W        W10195   6.269   6.642   0.375 -0.3171 -0.1250 -0.2480
 6132W        W10196   6.901   3.456   3.232  0.0194  0.0589 -0.1935
 6133W        W10197   8.934   2.095   4.217  0.0439 -0.0185 -0.2032
 6134W        W10198   3.209   3.633   0.758 -0.0186 -0.1526 -0.0514
 6135W        W10199   6.273   1.341   9.299  0.2772 -0.2444  0.1593
 6136W        W10200   6.710   2.523   8.541  0.0843  0.2262  0.2056
 6137W        W10201   2.384  10.212   2.592 -0.0551 -0.0076  0.1745
 6138W        W10202   5.496   9.308   2.852  0.1728  0.1341  0.0877
 6139W        W10203   7.210   2.628   9.289  0.0936 -0.3778 -0.0643
 6140W        W10204   2.994   5.307   3.459 -0.2479 -0.0827 -0.0222
 6141W        W10205   0.778   1.518   3.334 -0.0612  0.0250 -0.1969
 6142W        W10206   7.642   3.703  11.323  0.0590 -0.1913  0.0220
 6143W        W10207   3.035   2.739   8.859  0.1156 -0.1384  0.1809
 6144W        W10208   7.297   7.712   8.631  0.2009 -0.0152 -0.0992
 6145W        W10209   0.189   9.856   2.556 -0.1508  0.3544  0.1145
 6146W        W10210   4.200  10.017   0.960  0.1116 -0.1783 -0.0788
 6147W        W10211   9.301   3.988   1.529 -0.0642  0.1536 -0.0262
 6148W        W10212   7.385   0.390  11.165 -0.0152  0.0937  0.0140
 6149W        W10213   0.182   5.410   2.958  0.0424  0.1887 -0.0646
 6150W        W10214   4.780   3.828   9.388 -0.2821  0.0185  0.5337
 6151W        W10215   4.004   5.318   9.773  0.0694  0.3490  0.1616
 6152W        W10216   1.575   2.960  11.317  0.0821  0.3104 -0.1841
 6153W        W10217   2.453   2.148   8.565 -0.1051  0.2766 -0.0394
 6154W        W10218   3.929  10.106   9.163 -0.1881 -0.0128 -0.0915
 6155W        W10219   3.460   1.574   3.289  0.1921 -0.0270  0.1606
 6156W        W10220   7.403   8.730   8.728 -0.0309  0.0597  0.1905
 6157W        W10221   7.877   3.336   8.975  0.0796  0.2408 -0.0774
 6158W        W10222   9.207   6.223   0.197 -0.1630  0.1332  0.1575
 6159W        W10223   0.436   8.077   2.441  0.0539  0.1464  0.1366
 6160W        W10224   4.810   9.744  10.730 -0.0302  0.4815  0.3050
 6161W        W10225   0.092   3.184   8.703  0.0864  0.1868 -0.0172
 6162W        W10226   2.517   0.822   8.303  0.3198 -0.2523  0.4609
 6163W        W10227   3.509   9.252   2.471 -0.1792  0.2121 -0.1740
 6164W        W10228   8.062   6.544   2.142 -0.1168  0.0683 -0.1162
 6165W        W10229   8.125   3.950   1.627  0.0164 -0.1269  0.0668
 6166W        W10230   9.510   4.255   9.566  0.2445  0.2278 -0.1174
 6167W        W10231   7.368   6.508   7.718 -0.5411 -0.1788 -0.0370
 6168W        W10232   6.164   9.352   0.211  0.0490 -0.1223  0.0128
 6169W        W10233   9.225   0.088   1.274 -0.0202  0.1776  0.0847
 6170W        W10234   3.500  10.019  10.428 -0.1291 -0.1621  0.1609
 6171W        W10235   1.843   9.441   3.125 -0.0531 -0.0679  0.2945
 6172W        W10236   8.490   1.735  10.569 -0.0433  0.0702 -0.0261
 6173W        W10237   6.366   2.825   3.472  0.1938  0.1332 -0.2265
 6174W        W10238   8.416   2.088  10.970 -0.1864 -0.0985  0.0560
 6175W        W10239   3.957   3.571  11.334 -0.0188 -0.0589 -0.2060
 6176W        W10240   9.920   4.447   9.954 -0.0820  0.0067 -0.1182
 6177W        W10241  10.208   0.356   1.746  0.0570 -0.3187  0.4056
 6178W        W10242   6.608   3.302   1.130  0.0303 -0.1535  0.2043
 6179W        W10243   5.756   1.516   3.161 -0.1810  0.0697 -0.0721
 6180W        W10244   5.308   8.927   3.965 -0.1405 -0.1632  0.2387
 6181W        W10245   0.909   1.333   4.010 -0.1953 -0.1552  0.1341
 6182W        W10246  10.669   4.907   8.752 -0.1365  0.0428 -0.1526
 6183W        W10247   9.581   7.777   1.801 -0.0379  0.0339  0.3297
 6184W        W10248   4.177   3.879  10.904  0.0470  0.0854 -0.1675
 6185W        W10249   1.794   3.057   1.154 -0.2228  0.3444 -0.2416
 6186W        W10250   1.366   0.930   7.989  0.2878 -0.2582 -0.4525
 6187W        W10251   6.850  10.710   2.917  0.0505 -0.4875  0.1520
 6188W        W10252   7.244   3.455   2.677  0.1058  0.0805 -0.0206
 6189W        W10253   8.144   4.304   8.435 -0.0438  0.1710 -0.0665
 6190W        W10254  10.049   6.334   7.801  0.1978 -0.0445 -0.0592
 6191W        W10255   9.604   2.343   8.351 -0.3038  0.0343 -0.0946
 6192W        W10256   4.512   3.969   0.833 -0.0994 -0.0951 -0.0818
 6193W        W10257  10.293   8.909  11.136  0.1866  0.1160  0.0319
 6194W        W10258   8.903   6.371   1.482  0.0380  0.1259  0.1069
 6195W        W10259   3.779   2.913   0.675 -0.0563 -0.0847  0.3483
 6196W        W10260   9.308  10.000   0.629 -0.1775  0.1925 -0.0655
 6197W        W10261   3.195   0.592   3.645  0.0702  0.1104 -0.1636
 6198W        W10262   6.998   9.568   0.655 -0.0503 -0.0593  0.3146
 6199W        W10263   8.927   7.424   9.187 -0.1777  0.0768  0.1315
 6200W        W10264   6.911   4.537   2.821 -0.0823  0.2172  0.1262
 6201W        W10265   9.453   0.013   9.368 -0.0989 -0.3681 -0.2380
 6202W        W10266   5.031   0.758   3.691 -0.2819 -0.0439  0.2452
 6203W        W10267   1.738   7.495   0.498 -0.0173 -0.2529  0.0517
 6204W        W10268   3.724   9.710  10.021  0.0126  0.0625 -0.2127
 6205W        W10269   4.729   3.388   9.647  0.0590 -0.1190 -0.1561
 6206W        W10270   9.600   6.968   8.165  0.3594 -0.0871 -0.2252
 6207W        W10271   8.165   8.826   9.203  0.1967  0.1800  0.2222
 6208W        W10272   7.885   8.563   2.238 -0.1800  0.2538  0.1353
 6209W        W10273  10.614   7.814   9.152  0.0295  0.2058  0.0961
 6210W        W10274   4.225   8.826   2.364 -0.1252  0.0208  0.0610
 6211W        W10275   2.918   3.449  10.355 -0.1928  0.1807 -0.1326
 6212W        W10276   0.282   0.820   3.158  0.3556 -0.2256 -0.0380
 6213W        W10277   9.783   6.422   1.109 -0.3505  0.2012  0.1127
 6214W        W10278   6.506   1.307  11.327 -0.1246  0.0996 -0.2150
 6215W        W10279   1.430   7.708  10.639  0.2350  0.0888  0.0988
 6216W        W10280   3.536   7.614   0.180 -0.2597  0.2893  0.1223
 6217W        W10281   2.621   1.935  11.418 -0.0875 -0.2820  0.2476
 6218W        W10282  10.446   5.529   0.109  0.0391  0.0063 -0.0711
 6219W        W10283   0.278   9.068   4.281 -0.0597  0.1622  0.1693
 6220W        W10284   2.628   1.843  10.946  0.1279  0.0951 -0.1884
 6221W        W10285   9.488   3.428  10.145 -0.2123 -0.0727  0.5514
 6222W        W10286   7.959   6.287   7.779  0.2233  0.0803  0.0148
 6223W        W10287   4.434   6.062  11.325  0.1288  0.1243  0.0486
 6224W        W10288   5.813   0.534  10.193  0.1177 -0.1379  0.0382
 6225W        W10289   8.079   0.053   0.638  0.1160  0.1458  0.1976
 6226W        W10290   7.564   7.620   0.662 -0.0916 -0.1888  0.0373
 6227W        W10291   3.893   1.311   9.517  0.0379  0.2540 -0.1218
 6228W        W10292  10.314   6.081   2.135  0.1031  0.0096 -0.2606
 6229W        W10293   2.035   9.982   9.194 -0.0175 -0.0905 -0.3598
 6230W        W10294   4.079   8.187   9.333  0.2436  0.0525  0.1485
 6231W        W10295   3.105   3.857   8.797 -0.2536  0.1892 -0.0360
 6232W        W10296   3.062   9.877  10.791 -0.0444  0.2482 -0.0495
 6233W        W10297   0.423   2.611   9.802 -0.0971 -0.1529  0.2751
 6234W        W10298   0.502   1.018   9.556  0.1665  0.0348 -0.1645
 6235W        W10299   6.582   0.472   9.467  0.0786 -0.2348 -0.0203
 6236W        W10300   8.621   6.504   8.693 -0.1232  0.0653 -0.5621
 6237W        W10301  10.185   1.978   1.579 -0.1853 -0.0101  0.3564
 6238W        W10302   6.887   9.993   9.277 -0.1809  0.0725 -0.1072
 6239W        W10303   1.279   1.581   9.134 -0.0572 -0.0924  0.0972
 6240W        W10304   7.483   3.020   9.164  0.2548 -0.2569 -0.0796
 6241W        W10305   1.186   6.322  10.179  0.1229 -0.0186 -0.2534
 6242W        W10306   5.253   1.063  10.800  0.0577  0.0258  0.0980
 6243W        W10307   3.798  10.560   2.624 -0.1897 -0.1144 -0.0930
 6244W        W10308   6.970   1.796  11.129  0.4113 -0.3733 -0.0287
 6245W        W10309   9.936   5.703  10.754 -0.0661  0.1632  0.0158
 6246W        W10310   2.539   4.181  11.007  0.0600  0.2625  0.0083
 6247W        W10311   7.795   6.069   2.201 -0.0014  0.0973 -0.0812
 6248W        W10312   5.821   7.636  10.580 -0.1348  0.0813  0.0195
 6249W        W10313   0.966   0.101  11.033  0.0373 -0.0997 -0.1945
 6250W        W10314   8.559   5.972  11.035 -0.3095 -0.0679  0.3433
 6251W        W10315   9.171   7.008   2.271 -0.1624  0.1643  0.2310
 6252W        W10316  10.289   8.106   3.127 -0.0443 -0.1321  0.1650
 6253W        W10317   4.283   4.137   9.461  0.2721  0.2270  0.1203
 6254W        W10318   5.313   1.491  10.527  0.3489  0.0636 -0.1512
 6255W        W10319   6.854   4.755   0.182 -0.0015  0.1854  0.1916
 6256W        W10320   7.528   6.563   2.467  0.1983  0.2726  0.0240
 6257W        W10321   7.679   4.070   1.698 -0.1912 -0.2882 -0.0307
 6258W        W10322   7.590   4.181   3.705 -0.1435 -0.3014  0.2694
 6259W        W10323   5.782   4.158   9.014  0.1887  0.1026 -0.0514
 6260W        W10324   3.785   1.743   1.188 -0.0794 -0.2225  0.2550
 6261W        W10325   1.528   5.365   4.028  0.2866 -0.2131  0.0895
 6262W        W10326   6.371   9.857   0.028 -0.1805 -0.0304  0.1200
 6263W        W10327   8.676   0.312   2.613  0.0753 -0.2108 -0.3813
 6264W        W10328   8.434   0.167   8.472 -0.0576 -0.1057  0.1293
 6265W        W10329   9.973   6.811   9.983 -0.1185  0.1410  0.1360
 6266W        W10330   7.923   4.878   8.797  0.2948  0.4006  0.0045
 6267W        W10331   1.303   1.477   8.659  0.2530 -0.1785  0.0438
 6268W        W10332   0.341   6.031  10.076 -0.0245  0.0317  0.1230
 6269W        W10333   1.674   6.425   1.699  0.2306 -0.0614  0.1471
 6270W        W10334   9.397   3.096   2.693 -0.0831 -0.1182  0.0322
 6271W        W10335   8.737  10.448   0.983  0.1184  0.0334 -0.3169
 6272W        W10336   7.527   9.185   7.895  0.0127 -0.3644  0.0486
 6273W        W10337   6.880   5.358   9.680 -0.2582 -0.0220 -0.3688
 6274W        W10338   7.198   7.000  11.281 -0.1849 -0.0068 -0.0201
 6275W        W10339   4.364   0.055   2.477  0.2391  0.1195  0.1233
 6276W        W10340   3.261   2.057   1.953  0.1518 -0.0551  0.0024
 6277W        W10341   6.867   3.376   0.377 -0.1301 -0.1233  0.1542
 6278W        W10342   2.592   6.113   0.334 -0.1315 -0.0495  0.3809
 6279W        W10343   0.186   5.391   8.707 -0.5147 -0.3860  0.1440
 6280W        W10344   8.797   9.578   8.342  0.0000  0.3646  0.1620
 6281W        W10345   2.582  10.536   1.253 -0.1945 -0.0188 -0.1197
 6282W        W10346   4.951  10.635   0.573 -0.0163  0.1542 -0.0251
 6283W        W10347   1.873  10.438   9.675 -0.3367 -0.1168  0.2977
 6284W        W10348   4.901   7.794  10.601  0.0492  0.1592  0.0586
 6285W        W10349  10.170   4.625  10.423 -0.2695 -0.0958 -0.1278
 6286W        W10350   8.334   0.546   9.489 -0.2987  0.0513 -0.0085
 6287W        W10351   4.586   8.054   0.399  0.2880 -0.1219  0.0824
 6288W        W10352   6.590   0.123  10.400 -0.0930  0.1595 -0.3780
 6289W        W10353   0.209  10.393  10.194 -0.0867  0.3111 -0.1035
 6290W        W10354   1.859   6.833   2.488 -0.0244 -0.2634 -0.1162
 6291W        W10355   0.598   3.276   9.318 -0.0596  0.1994  0.1636
 6292W        W10356   3.171   4.406   3.273  0.0367  0.1476  0.0651
 6293W        W10357   4.815   6.606   0.303  0.1050 -0.3412  0.1643
 6294W        W10358   2.444   5.234   0.521 -0.2078 -0.0436  0.0478
 6295W        W10359   9.740   2.942   2.215  0.3983  0.2280  0.0045
 6296W        W10360   8.072   7.886  10.978  0.1370 -0.2922  0.2186
 6297W        W10361  10.681   1.923   2.449  0.0004 -0.3574 -0.0394
 6298W        W10362   5.748   8.759   0.592 -0.4127  0.1969  0.3118
 6299W        W10363  10.255   2.854   9.856  0.1036 -0.1069  0.2496
 6300W        W10364   0.411  10.374   0.248 -0.0395 -0.2715  0.0555
 6301W        W10365   4.481  10.252   9.147 -0.0705  0.2285 -0.1360
 6302W        W10366   8.882  10.130   2.762 -0.2333 -0.4937  0.1507
 6303W        W10367   0.916   9.996   2.627  0.0995 -0.4066 -0.0170
 6304W        W10368   4.012   0.031   2.155 -0.0557 -0.1043 -0.0698
 6305W        W10369   4.922   2.623   1.362  0.1878 -0.1359  0.3332
 6306W        W10370   1.223   1.526   0.439  0.2122  0.1185  0.0437
 6307W        W10371   2.552   7.260   3.185  0.2673  0.0128  0.2196
 6308W        W10372   1.682   7.554   3.452  0.0613  0.1162  0.0293
 6309W        W10373   1.187   4.687   1.522  0.1929 -0.0589  0.0409
 6310W        W10374   9.616   0.994   0.136 -0.0139 -0.2069 -0.2469
 6311W        W10375   4.201   0.487   1.789  0.1786 -0.1812  0.0349
 6312W        W10376   6.527   4.771   9.645  0.3178 -0.2481  0.1661
 6313W        W10377   9.016   2.545  10.304 -0.1921 -0.1046 -0.1964
 6314W        W10378   0.484   7.078   7.871 -0.0790 -0.3134 -0.2250
 6315W        W10379   3.793   9.152   3.605  0.1363 -0.0260  0.2293
 6316W        W10380   9.785   4.108  11.299  0.0031 -0.0260 -0.2026
 6317W        W10381   6.582   0.460   3.118 -0.0145 -0.0553  0.1973
 6318W        W10382   5.941   3.487   2.351 -0.0564 -0.1016  0.0728
 6319W        W10383   4.568   9.972   8.639  0.0841  0.2011  0.3272
 6320W        W10384   2.512   7.599   1.918 -0.0447 -0.0545 -0.0562
 6321W        W10385   8.341   1.240   1.678  0.0383 -0.2099  0.0459
 6322W        W10386   9.347   3.479   1.634  0.0738  0.3161  0.0063
 6323W        W10387   6.023   1.106  10.105  0.0413 -0.0030  0.1997
 6324W        W10388   9.359   6.614   0.964  0.3196 -0.1592 -0.0249
 6325W        W10389   6.635   2.033   3.591  0.0418  0.2684 -0.1157
 6326W        W10390   3.822   7.764   3.226  0.2809  0.1470  0.4075
 6327W        W10391   7.928   4.777   0.997 -0.2489 -0.1882  0.0570
 6328W        W10392   5.118   3.055   4.742 -0.1343  0.0248  0.2531
 6329W        W10393  10.289   9.039   9.036  0.2010  0.2066 -0.1455
 6330W        W10394   5.128   5.029   8.497  0.1058  0.1665 -0.2421
 6331W        W10395   4.253   2.793   2.537  0.0581  0.0963  0.2764
 6332W        W10396   1.881   9.241   0.230  0.1650 -0.1866  0.0143
 6333W        W10397   8.525   3.297   2.312  0.0185  0.1973  0.0636
 6334W        W10398   2.898   1.987   8.323 -0.0890 -0.1936  0.0059
 6335W        W10399   2.766   8.541   4.088 -0.2028 -0.0105 -0.2030
 6336W        W10400   4.255   8.667   9.372 -0.3166 -0.0225  0.1778
 6337W        W10401   0.370   4.899   8.490 -0.0343 -0.2751  0.1485
 6338W        W10402   1.478   4.123   0.202  0.2606  0.0124  0.2282
 6339W        W10403   5.717  10.258  10.792 -0.2606 -0.1094  0.1538
 6340W        W10404   3.158   6.539   1.758  0.0420  0.2117 -0.0984
 6341W        W10405   5.776   2.151   1.336 -0.0040  0.1039  0.1998
 6342W        W10406   4.062   6.481   2.550 -0.2513  0.2086 -0.0322
 6343W        W10407   7.994   7.875   0.958  0.0190  0.1771  0.0144
 6344W        W10408   7.094  10.094   2.123 -0.1254 -0.1516 -0.0777
 6345W        W10409   9.361   9.142   2.752  0.0207  0.1659 -0.1486
 6346W        W10410  10.244   2.115   3.295  0.1535  0.3214 -0.0782
 6347W        W10411   8.991  10.519   3.178  0.1883  0.2116 -0.3754
 6348W        W10412   7.672   1.621   8.260  0.0765 -0.3002  0.2226
 6349W        W10413   4.712   4.232  11.391  0.4370 -0.3010 -0.1554
 6350W        W10414   2.978   6.148   2.117  0.2175  0.0427 -0.2582
 6351W        W10415   0.819   9.163   7.519 -0.0483 -0.0102  0.2436
 6352W        W10416   6.537   6.332  10.993  0.3367 -0.4107 -0.2945
 6353W        W10417   7.334   3.685   3.193  0.1689 -0.1515 -0.1891
 6354W        W10418   7.763   0.975   8.712 -0.0433  0.0007 -0.1295
 6355W        W10419   2.714   7.718   7.378 -0.1460  0.1914 -0.0778
 6356W        W10420   4.648   8.751   1.135  0.1290 -0.1571 -0.1169
 6357W        W10421   0.610   1.172   1.819 -0.1235 -0.2878 -0.0455
 6358W        W10422   8.932   4.838   9.131  0.1258  0.0108 -0.2706
 6359W        W10423   7.702  10.200   3.182  0.1076  0.1127 -0.1528
 6360W        W10424   2.250   5.685   0.354 -0.0619 -0.1839  0.1019
 6361W        W10425   8.069   3.070   3.123  0.5690  0.1576 -0.1717
 6362W        W10426   9.268  10.058   1.492 -0.2146 -0.0446 -0.0153
 6363W        W10427   7.051   3.575   3.741 -0.0557 -0.0573  0.0323
 6364W        W10428   2.818   4.619   8.754 -0.1779  0.2825 -0.0193
 6365W        W10429   4.129   7.923  10.072  0.1011 -0.3787  0.0091
 6366W        W10430   0.484   0.581   0.224 -0.1355  0.1460 -0.1465
 6367W        W10431   6.398   4.159   0.670  0.0629 -0.1528  0.0200
 6368W        W10432   8.786   7.315   1.242 -0.3469  0.1255  0.0776
 6369W        W10433   9.877   1.977   2.098 -0.1146  0.1160  0.0582
 6370W        W10434   4.448   7.812   0.857  0.2925  0.0364 -0.0806
 6371W        W10435   0.748   6.148   8.506  0.0163  0.2084 -0.2220
 6372W        W10436   9.894  10.289  11.026 -0.0314 -0.2145 -0.4160
 6373W        W10437   5.783   4.070   7.644 -0.0233 -0.0921 -0.0262
 6374W        W10438   9.553   5.819   8.614  0.3162  0.1275 -0.0491
 6375W        W10439   8.256   9.604  10.396 -0.0467  0.1219  0.1673
 6376W        W10440   3.571   1.193   9.880  0.3493  0.2299  0.0775
 6377W        W10441   8.565   6.361   2.354  0.1687  0.0733  0.3828
 6378W        W10442   6.860   8.604   2.983 -0.0853 -0.1379  0.3617
 6379W        W10443   4.910   1.067  10.410 -0.0946  0.1482 -0.0888
 6380W        W10444   1.732   2.452   3.050  0.0152  0.0180  0.0076
 6381W        W10445   5.554   4.189   1.698 -0.2147 -0.3214 -0.2444
 6382W        W10446   0.080   1.825   0.266  0.0632 -0.2978 -0.0368
 6383W        W10447   5.821   8.602  11.150 -0.2402  0.0860 -0.1522
 6384W        W10448   5.252   0.001   9.790 -0.0269 -0.0586  0.1563
 6385W        W10449   9.724   3.247   0.870  0.1413  0.0276  0.3324
 6386W        W10450   2.301   9.357   0.439  0.0009 -0.2616  0.0258
 6387W        W10451   2.424   2.585   2.252 -0.0109  0.0516 -0.2676
 6388W        W10452   2.937   0.324  11.083  0.0110 -0.0086 -0.2606
 6389W        W10453   9.396   6.960   0.004 -0.2385  0.0166  0.0984
 6390W        W10454   5.121  10.259   0.144  0.1003  0.1012  0.0959
 6391W        W10455   1.568   6.964  10.209  0.1377 -0.3581  0.0815
 6392W        W10456   2.985   2.278   0.145 -0.0968  0.3970  0.1586
 6393W        W10457   3.720   9.309   9.726  0.1447  0.1823 -0.2223
 6394W        W10458   9.096   0.847   0.044 -0.4918  0.2358 -0.1898
 6395W        W10459   6.617   1.854  10.328 -0.2122  0.2867  0.0729
 6396W        W10460   8.483   5.067   2.724 -0.1858 -0.0296 -0.0190
 6397W        W10461   4.540   3.758   8.197 -0.3867  0.0554 -0.1301
 6398W        W10462   8.410   1.513  11.103  0.1619 -0.0569 -0.0499
 6399W        W10463   0.440   6.476   1.233  0.2195  0.0952  0.3149
 6400W        W10464   3.143  10.048   2.063 -0.1828  0.0717  0.1788
 6401W        W10465   9.034   3.368   2.335 -0.0058 -0.0942 -0.1712
 6402W        W10466   9.403   0.670  10.302 -0.1569 -0.0815 -0.1215
 6403W        W10467  10.472   6.789   9.955 -0.0317  0.2666  0.0549
 6404W        W10468  10.719   5.554   3.400 -0.2456  0.0057  0.0554
 6405W        W10469   4.559   6.265   7.774 -0.0913 -0.2487 -0.0238
 6406W        W10470   2.168   0.669   0.260 -0.0145 -0.1705  0.1177
 6407W        W10471   0.497   3.165  10.277  0.4231 -0.3489 -0.0631
 6408W        W10472   6.537   0.109   8.672  0.0357 -0.4137  0.2677
 6409W        W10473   3.164   8.671  10.871 -0.1323 -0.2020 -0.1283
 6410W        W10474   1.640   3.303   9.648  0.3021 -0.2879 -0.0625
 6411W        W10475   4.602   1.318   1.320 -0.0227  0.0714 -0.0861
 6412W        W10476   8.574   7.727   2.124 -0.2191 -0.2098  0.2510
 6413W        W10477   7.527   5.396  10.458 -0.1725 -0.0273  0.2632
 6414W        W10478   4.160   8.355   8.650  0.2901 -0.2034  0.0806
 6415W        W10479   0.324   3.186   2.657  0.1984 -0.3148 -0.0440
 6416W        W10480  10.707   9.811  10.096  0.0865 -0.0956 -0.0969
 6417W        W10481   8.495   5.603   1.948  0.4362 -0.2557 -0.1280
 6418W        W10482   8.139   7.407   9.082 -0.0357  0.0526 -0.1809
 6419W        W10483   0.465   2.774   1.363  0.3753 -0.1198  0.0850
 6420W        W10484  10.060   1.171   0.355  0.0514 -0.0443 -0.2990
 6421W        W10485  10.660   5.817   1.750  0.2737  0.2757 -0.2875
 6422W        W10486   2.104   2.962   2.150  0.2560  0.0256 -0.1234
 6423W        W10487   4.324   6.497   3.035 -0.0719 -0.3206  0.1721
 6424W        W10488   3.391   3.891   2.018 -0.1267 -0.2856  0.0291
 6425W        W10489   9.896   7.137   1.370  0.2305 -0.0662  0.0579
 6426W        W10490   8.154   6.988  10.490 -0.1925  0.0713 -0.0494
 6427W        W10491   2.613   6.098  10.798 -0.0452  0.1947  0.1529
 6428W        W10492   2.610   8.384  10.336 -0.0361  0.1811 -0.2542
 6429W        W10493   7.757   2.744   2.847  0.0180  0.1211 -0.0155
 6430W        W10494   9.061   5.341  10.751  0.2359  0.0131  0.1219
 6431W        W10495   6.814   0.937   8.794  0.1468  0.0387  0.1309
 6432W        W10496   3.256   1.780   2.423  0.1125  0.2135  0.2038
 6433W        W10497   2.600   9.631   3.430 -0.1364  0.2789 -0.1527
 6434W        W10498   3.456   4.232   0.455  0.2643  0.1597 -0.1349
 6435W        W10499   4.783   8.255  10.342  0.4598  0.1886 -0.1845
 6436W        W10500   5.520   0.345   1.849  0.2485  0.1010  0.1129
 6437W        W10501   3.474   7.207   1.045 -0.1344 -0.0572  0.0038
 6438W        W10502   0.738   9.277   3.641  0.0483 -0.3345 -0.2551
 6439W        W10503   9.455   6.490   9.228 -0.0094  0.1555 -0.0184
 6440W        W10504   0.322  10.695   9.393 -0.3828 -0.1571 -0.1753
 6441W        W10505   5.862   0.063   0.100 -0.2582  0.1760 -0.1530
 6442W        W10506   2.049   3.847   2.881 -0.1207 -0.1084 -0.0465
 6443W        W10507   4.950   1.529   8.544 -0.0500 -0.1417  0.0066
 6444W        W10508   9.746   1.750   3.502 -0.0569 -0.1818 -0.2845
 6445W        W10509   5.836   8.302   7.769  0.0534  0.1953 -0.0157
 6446W        W10510   5.137   3.913   0.899  0.0498 -0.0267  0.1029
 6447W        W10511   4.239   4.790   9.728 -0.1469 -0.0442  0.1921
 6448W        W10512   1.773   8.475  10.102  0.1101  0.1333 -0.2748
 6449W        W10513   2.046   9.300   2.624  0.0669  0.1608 -0.0005
 6450W        W10514   2.759   1.908   9.175 -0.1325 -0.1881 -0.0636
 6451W        W10515   0.848  10.285   3.430  0.0599  0.3122  0.0918
 6452W        W10516   2.409   0.935  10.690  0.1479  0.0821  0.1402
 6453W        W10517   8.239   5.529   9.704  0.0142 -0.0652 -0.0198
 6454W        W10518   5.983   2.441   0.363 -0.2307  0.2160  0.2345
 6455W        W10519   3.638   3.826   2.527  0.2343 -0.2909 -0.0447
 6456W        W10520   5.129   3.874   4.389 -0.1001 -0.0743  0.0008
 6457W        W10521   5.472   6.746   7.954  0.2615 -0.0655 -0.2009
 6458W        W10522   2.059   6.853   3.792  0.0458 -0.2675 -0.2564
 6459W        W10523   5.158   8.233  10.785 -0.2526 -0.2670  0.4100
 6460W        W10524   5.165   9.008   3.412 -0.2819 -0.3281 -0.1631
 6461W        W10525   4.394   2.542   9.094 -0.1120 -0.2087  0.1619
 6462W        W10526   1.742   4.334   0.794 -0.0375 -0.1786  0.1581
 6463W        W10527   1.075   0.988   0.013 -0.0554 -0.4082  0.1542
 6464W        W10528   7.482   4.585   8.585  0.1180  0.2472  0.0847
 6465W        W10529   6.895   7.530   6.768  0.0494  0.3986 -0.1566
 6466W        W10530   6.868   7.325   2.595 -0.0267  0.2747 -0.0994
 6467W        W10531   7.464   7.433   1.492 -0.2790  0.1895 -0.4359
 6468W        W10532   6.319   1.059   9.693 -0.2221 -0.1764 -0.2242
 6469W        W10533   0.172   7.702   2.647  0.0716 -0.1009  0.0175
 6470W        W10534   6.196   7.896   8.666 -0.1930  0.0049 -0.0022
 6471W        W10535   3.691   6.248   8.835 -0.0978 -0.2448  0.3067
 6472W        W10536   8.271   5.215  10.195 -0.1017 -0.2890 -0.2161
 6473W        W10537   6.876   8.689   2.455 -0.5151  0.3309 -0.0814
 6474W        W10538  10.475   4.604   3.022 -0.0479 -0.0247  0.0173
 6475W        W10539   9.682   4.903   0.990 -0.1459 -0.2216 -0.1306
 6476W        W10540   1.590   5.406   1.012 -0.5059  0.0226 -0.0015
 6477W        W10541   2.828   8.734   0.419 -0.2841  0.2706 -0.1237
 6478W        W10542   6.144   0.607   2.821  0.4120 -0.3353  0.0330
 6479W        W10543   9.221  10.705   9.854  0.0465  0.1476 -0.2388
 6480W        W10544   1.391   4.143   9.976 -0.1405  0.0637 -0.1431
 6481W        W10545   0.907   7.239   1.287 -0.0470  0.1923  0.0445
 6482W        W10546   1.260   8.665   2.662  0.2037 -0.1869 -0.0994
 6483W        W10547   2.313   3.027   2.710 -0.1966  0.2319 -0.0837
 6484W        W10548   2.527   2.693   7.998  0.1051 -0.0149  0.0236
 6485W        W10549   2.350   7.067   1.273  0.0509  0.3390 -0.2134
 6486W        W10550   7.283   0.553  10.693 -0.2269 -0.0650 -0.0392
 6487W        W10551   0.688   7.656   2.674  0.1353  0.3732  0.0149
 6488W        W10552   7.476   9.154  11.095  0.0274  0.1958 -0.1263
 6489W        W10553   0.439   1.192   1.004  0.1503  0.1648 -0.1508
 6490W        W10554   7.506   1.107   3.146 -0.1059 -0.1889 -0.0199
 6491W        W10555   5.831   2.606   2.206 -0.0383 -0.2164  0.1203
 6492W        W10556   9.340   6.113   1.078  0.0750  0.1811 -0.1020
 6493W        W10557   8.449   3.087   8.173  0.0028 -0.1205  0.0466
 6494W        W10558   3.960   4.912   0.214 -0.0310 -0.1998  0.0145
 6495W        W10559   0.758   1.574   9.925  0.0059  0.2808  0.0895
 6496W        W10560   3.044   4.341  10.908 -0.3056 -0.2217 -0.2354
 6497W        W10561  10.480   4.628   0.017  0.0482 -0.0920  0.1362
 6498W        W10562   3.932   9.586   0.097  0.2171  0.1241  0.1733
 6499W        W10563   1.672   6.624   1.225 -0.1677 -0.1043  0.1616
 6500W        W10564   2.195   4.058   1.996 -0.0996 -0.0120 -0.1880
 6501W        W10565   3.657   9.761   2.939 -0.1955 -0.1828 -0.0048
 6502W        W10566   9.789   8.963   3.929  0.0861  0.0484  0.0355
 6503W        W10567   6.075   5.013   3.418 -0.2022  0.0683  0.0170
 6504W        W10568   0.017   0.321   1.886  0.0863  0.2078  0.1919
 6505W        W10569   8.714   1.894   9.587  0.2255  0.2568  0.1191
 6506W        W10570   9.249   3.253   3.610  0.1531  0.1842 -0.1626
 6507W        W10571   8.069   2.523  10.748  0.1837 -0.3852 -0.1340
 6508W        W10572   7.575   4.735  10.059  0.0247  0.0012 -0.0656
 6509W        W10573   6.926   8.490   7.644 -0.0584  0.1533 -0.0841
 6510W        W10574   6.859   0.203   1.204 -0.0446 -0.4228 -0.0541
 6511W        W10575   4.562   6.890  10.782 -0.1728 -0.1625  0.0662
 6512W        W10576   1.428   4.233   7.456  0.0092  0.4196 -0.1049
 6513W        W10577   2.629  10.546   3.330 -0.1397 -0.0015 -0.0778
 6514W        W10578   2.951  10.017   8.891  0.1274  0.0933  0.1421
 6515W        W10579   0.658   1.020  10.064 -0.1216 -0.0967 -0.2650
 6516W        W10580   1.664   2.649   8.413 -0.0547 -0.0306 -0.0488
 6517W        W10581   2.824   5.931   2.683 -0.1212  0.1496 -0.0029
 6518W        W10582   3.502   0.625   3.045 -0.0804 -0.2006  0.1593
 6519W        W10583   6.476   4.934   3.777 -0.1564  0.3115  0.0306
 6520W        W10584   4.162   4.916   3.901 -0.0311  0.2632 -0.1123
 6521W        W10585  10.000   5.608   8.476  0.0393  0.2928 -0.1064
 6522W        W10586   7.252   2.581  11.236 -0.0240 -0.2238 -0.3375
 6523W        W10587   7.131   0.707   0.732 -0.1968  0.1768  0.4452
 6524W        W10588   3.193   2.177   3.312 -0.3179 -0.2576  0.3910
 6525W        W10589   9.525   1.390   2.426  0.2140 -0.4062 -0.4561
 6526W        W10590   4.637   2.896  10.282 -0.1455  0.0161 -0.3128
 6527W        W10591   5.622   6.236   0.523 -0.2196 -0.1097 -0.2070
 6528W        W10592   1.885   9.601   8.719 -0.1852 -0.4702 -0.1674
 6529W        W10593   9.920  10.075   9.020  0.3044 -0.0406  0.0420
 6530W        W10594   7.341   4.921  10.567  0.1746  0.1894  0.1152
 6531W        W10595   7.773   4.387   0.569 -0.0589 -0.1938 -0.1749
 6532W        W10596   7.860   2.692   7.952  0.2475 -0.3949  0.2289
 6533W        W10597   7.484   7.907   1.218  0.0824 -0.0472  0.0756
 6534W        W10598   5.582   9.829   0.786 -0.0778  0.0451  0.0071
 6535W        W10599   0.251   2.320  11.120  0.0534 -0.2533 -0.0590
 6536W        W10600   0.992   9.785   1.038 -0.1797  0.2377  0.1521
 6537W        W10601   9.175   2.598   9.276  0.0431 -0.1546 -0.0700
 6538W        W10602   1.533   3.955   3.481 -0.2660  0.2989 -0.1060
 6539W        W10603  10.514   6.369   1.744 -0.2375 -0.1287  0.3203
 6540W        W10604   5.148   1.993   1.852  0.1931 -0.0465 -0.1104
 6541W        W10605   4.258   3.175   7.434  0.0876 -0.0434 -0.0400
 6542W        W10606   6.983   4.141   3.296 -0.2159 -0.0517  0.1643
 6543W        W10607   2.815   5.587   3.107  0.1784 -0.3522  0.0938
 6544W        W10608   5.686   1.339  10.895  0.0031 -0.1686  0.3735
 6545W        W10609   4.877   5.884  10.489  0.0604 -0.0399 -0.0800
 6546W        W10610   5.115   9.103   9.614  0.4280  0.2350 -0.1286
 6547W        W10611   5.636   7.175   2.194  0.0510  0.2945 -0.1248
 6548W        W10612   7.874   4.178   2.685 -0.0170  0.0539  0.0659
 6549W        W10613   4.864   7.274  10.925  0.0854 -0.1626  0.0724
 6550W        W10614   1.161   4.524   9.709 -0.1766 -0.1033  0.0195
 6551W        W10615   2.686   3.991   7.268 -0.2979 -0.0675 -0.0487
 6552W        W10616   3.509   6.932   1.752 -0.0730  0.1657 -0.0791
 6553W        W10617   2.339   8.798   8.172  0.1058 -0.4241 -0.2014
 6554W        W10618   7.642   8.319   9.195 -0.2984  0.2272 -0.2447
 6555W        W10619  10.504   5.791  11.078  0.0401  0.0002 -0.2436
 6556W        W10620   2.498   8.313   1.064  0.2663  0.1038  0.0401
 6557W        W10621   4.329   5.053   2.543  0.1234 -0.3302  0.5466
 6558W        W10622   4.637   5.175   7.346  0.0705 -0.0556  0.2108
 6559W        W10623   4.871   3.942   2.637 -0.2554  0.2120 -0.1482
 6560W        W10624   0.951   8.630   7.580  0.0832 -0.4798  0.0090
 6561W        W10625   7.995  10.655   8.248 -0.0728 -0.0090 -0.1623
 6562W        W10626   1.979   5.342   0.671  0.0241  0.1208  0.1563
 6563W        W10627  10.008   8.282   7.993  0.2045 -0.1281  0.2854
 6564W        W10628   2.133   6.330  10.494  0.0855 -0.1163 -0.2268
 6565W        W10629   5.700   4.233   3.057  0.2777  0.2013 -0.3150
 6566W        W10630   1.460   0.956   1.609 -0.2060 -0.0384 -0.1241
 6567W        W10631   9.456   6.118   9.655 -0.2872 -0.0700  0.0008
 6568W        W10632   2.664   5.310   9.120  0.2936 -0.0131 -0.0185
 6569W        W10633   5.874   5.914   2.166  0.2188 -0.0513  0.0564
 6570W        W10634   2.312  10.451   9.445  0.1066 -0.3549  0.1599
 6571W        W10635   9.554   5.268   8.726  0.1316 -0.5327  0.1447
 6572W        W10636   5.152   4.991   0.644 -0.1078  0.0918  0.0157
 6573W        W10637   5.101   4.748   1.154 -0.0181 -0.1460 -0.3799
 6574W        W10638   8.875   6.963   0.798  0.0149 -0.2296  0.0478
 6575W        W10639   3.738   6.827   0.852 -0.4723 -0.2724  0.3492
 6576W        W10640   2.066   4.823   3.100  0.0891  0.1514  0.2552
 6577W        W10641   0.045   1.425   9.242 -0.0096  0.2140 -0.1658
 6578W        W10642   2.176   7.437   8.739 -0.0543  0.1191  0.0267
 6579W        W10643   7.621   2.722   8.381  0.1698 -0.1491 -0.1662
 6580W        W10644   6.962   9.643   1.288  0.2093  0.0267 -0.2403
 6581W        W10645   0.643   5.222   9.746 -0.1378 -0.0469 -0.0511
 6582W        W10646   0.678   7.042   9.871 -0.0955 -0.3098 -0.0695
 6583W        W10647   6.138   5.978  11.368  0.1605  0.0519  0.0036
 6584W        W10648   0.371   9.621   8.783  0.0583 -0.2256  0.1891
 6585W        W10649   4.114   0.617   0.500 -0.1345 -0.0608 -0.1076
 6586W        W10650   6.312   5.345   9.888 -0.1675  0.2253 -0.0414
 6587W        W10651   7.926   0.272   3.586  0.0491 -0.0658  0.0454
 6588W        W10652   7.289   7.334   0.989  0.4338 -0.0345 -0.0214
 6589W        W10653   0.536   1.452   9.190 -0.1559 -0.1386  0.0677
 6590W        W10654   5.019   7.105   8.323 -0.0868 -0.4173  0.2467
 6591W        W10655   9.030  10.422   9.498  0.2399  0.1387 -0.3658
 6592W        W10656   1.152   6.968   8.644 -0.0328  0.1267  0.0542
 6593W        W10657   0.036   6.532  10.218  0.2437 -0.1819 -0.0031
 6594W        W10658   4.263   2.074  11.377  0.2809  0.1995 -0.1784
 6595W        W10659   0.649   2.261  11.417 -0.2304  0.1682  0.2478
 6596W        W10660   6.266   0.538   0.474  0.0494  0.3541 -0.0277
 6597W        W10661   9.395   8.839   7.570  0.1597 -0.2793  0.2229
 6598W        W10662   4.791   6.325   2.765 -0.1014  0.1548  0.1091
 6599W        W10663   3.404   8.002   7.996  0.0907 -0.3598 -0.0746
 6600W        W10664   0.351   8.688   8.815 -0.3464  0.0721  0.1405
 6601W        W10665   1.867   6.733  10.554  0.2415  0.1463 -0.0445
 6602W        W10666   4.136   9.341   9.012 -0.1786  0.2604  0.0382
 6603W        W10667   0.063   2.867   2.339 -0.0290 -0.0073 -0.3691
 6604W        W10668   8.477   6.753   1.297  0.0068 -0.1776 -0.2224
 6605W        W10669   0.803   2.550   4.018 -0.0702  0.0465  0.0113
 6606W        W10670   3.761   5.438   0.203  0.0004 -0.0672 -0.0642
 6607W        W10671   0.895   4.557   0.338  0.0340 -0.0672  0.1499
 6608W        W10672   8.158   1.981   0.021 -0.2309  0.2169  0.4954
 6609W        W10673  10.558   9.544   7.453  0.2242  0.0874 -0.0155
 6610W        W10674   4.598   0.473  11.048  0.1256  0.0710  0.0237
 6611W        W10675   4.714   4.833   9.401 -0.0790 -0.1529 -0.3289
 6612W        W10676   8.084   9.945   1.567  0.1984 -0.2167 -0.1787
 6613W        W10677   0.437   0.548   0.811 -0.0668  0.0749 -0.1236
 6614W        W10678   1.260   4.067   9.127  0.2979  0.2237 -0.1354
 6615W        W10679   8.863   2.264   1.235  0.1522 -0.2713  0.2838
 6616W        W10680   4.580   4.458   0.816  0.1392 -0.0444  0.0734
 6617W        W10681   4.793   8.039   1.219  0.0960 -0.0573 -0.0218
 6618W        W10682   9.681   2.107   3.104  0.1861  0.0836  0.1311
 6619W        W10683   0.083   2.932   8.272  0.0721 -0.0284 -0.2258
 6620W        W10684   6.343   3.393   3.585 -0.2049  0.0537  0.2230
 6621W        W10685   7.054   4.319   8.930 -0.0088  0.0473  0.0173
 6622W        W10686   1.995   1.393   9.773  0.0958 -0.1467  0.4784
 6623W        W10687   4.129   0.545   2.412 -0.1615 -0.1207 -0.0995
 6624W        W10688   3.107   4.257   1.796 -0.1447 -0.1653 -0.1168
 6625W        W10689   3.258   6.460   4.034 -0.1685 -0.1844  0.1040
 6626W        W10690   7.827   8.424   7.859  0.1021  0.0344 -0.1470
 6627W        W10691   6.206   5.639   2.462 -0.0829 -0.1167  0.2970
 6628W        W10692   5.223   0.541  10.596 -0.1766  0.2396  0.1382
 6629W        W10693   2.667   2.059   9.841 -0.1122  0.1157 -0.0006
 6630W        W10694   6.383   6.769   1.987  0.4262 -0.0983 -0.1687
 6631W        W10695   0.771   7.345   3.512 -0.0832 -0.0850  0.0227
 6632W        W10696   1.891  10.347   2.591 -0.1179 -0.1354 -0.0012
 6633W        W10697   0.040   4.555   2.012 -0.0952  0.0769 -0.1873
 6634W        W10698  10.448   4.428   9.978  0.4162 -0.1377 -0.2096
 6635W        W10699   0.955   0.800   1.626 -0.1495 -0.0380  0.0031
 6636W        W10700   3.051  10.655  10.122  0.0058  0.1040 -0.0645
 6637W        W10701   7.324   5.614  10.014 -0.4329 -0.2262  0.0385
 6638W        W10702   2.909   4.751   1.724 -0.1012  0.2763 -0.1910
 6639W        W10703   5.876   5.487   1.397 -0.1502 -0.1975 -0.0001
 6640W        W10704   2.021   8.524   3.629  0.1063 -0.4196  0.4150
 6641W        W10705   1.995   4.591   9.367 -0.1379 -0.0732  0.1337
 6642W        W10706   2.029   3.579   8.481  0.1217  0.1480  0.1264
 6643W        W10707   8.605   3.879   0.932  0.1426 -0.1001  0.2915
 6644W        W10708   0.762   8.912   3.267 -0.0857  0.0400 -0.0010
 6645W        W10709   0.125   7.104   0.332 -0.0131  0.1319  0.1728
 6646W        W10710   3.328   2.746   2.535  0.3973 -0.0475 -0.4061
 6647W        W10711   8.904   2.499   2.104  0.1382  0.0904  0.3371
 6648W        W10712   1.856   1.653   8.464  0.1772 -0.2018  0.0752
 6649W        W10713   8.327   1.515   3.149 -0.1485 -0.0529 -0.0146
 6650W        W10714   8.216   5.045  10.924 -0.2784 -0.1212 -0.0666
 6651W        W10715   7.750   9.786   8.599  0.1477  0.0919  0.1478
 6652W        W10716   1.188   8.919   2.202 -0.2920 -0.3979  0.0445
 6653W        W10717   1.831   7.219   9.046  0.0296 -0.1531  0.0840
 6654W        W10718   3.096   7.659  11.166 -0.1409 -0.0400 -0.0448
 6655W        W10719   4.966  10.513   3.229  0.0284  0.3234  0.2130
 6656W        W10720   5.724   0.619   9.277 -0.0089 -0.0544  0.1926
 6657W        W10721   5.159   7.455   0.470  0.1813  0.1300  0.0345
 6658W        W10722   4.436   0.571   4.291  0.0761  0.1513  0.1305
 6659W        W10723   2.864   9.923  11.376 -0.0424 -0.2713  0.0686
 6660W        W10724   5.622   1.056   9.848 -0.2959 -0.0697  0.3056
 6661W        W10725   2.466   0.141   7.692  0.1124 -0.0548  0.1011
 6662W        W10726   5.541  10.660   3.298  0.0237  0.2657  0.1950
 6663W        W10727   5.394   3.587   2.344 -0.1466  0.2190  0.0822
 6664W        W10728   7.154   5.216  10.930  0.1331  0.1650  0.0524
 6665W        W10729   9.855   8.006   9.516  0.0843 -0.3414  0.1329
 6666W        W10730  10.019   4.409   8.750  0.1176  0.1458 -0.0493
 6667W        W10731   0.785   6.063   2.766  0.0932 -0.1283  0.3843
 6668W        W10732   3.212   7.405  10.735 -0.0483  0.0639 -0.0571
 6669W        W10733   3.336   3.456   1.525  0.2303 -0.0274  0.0014
 6670W        W10734   8.424   8.991   7.792  0.2010 -0.1274  0.1526
 6671W        W10735   5.577   6.243   2.935  0.2826  0.0971 -0.1448
 6672W        W10736   9.730   0.634   9.324 -0.0605 -0.0727  0.2220
 6673W        W10737   4.556  10.163   2.466 -0.0314  0.0683  0.2035
 6674W        W10738   4.641   9.278   8.708  0.1343 -0.0365 -0.0643
 6675W        W10739   6.776   6.887   8.302 -0.4167  0.1317 -0.4041
 6676W        W10740   0.770   4.381   9.452 -0.0118 -0.2046 -0.0883
 6677W        W10741   5.797   5.411   2.169 -0.1241 -0.0246 -0.0765
 6678W        W10742   5.168   2.685   9.521 -0.2067 -0.0145 -0.1095
 6679W        W10743   8.420   2.731   9.450 -0.4800 -0.1490  0.0124
 6680W        W10744   6.944   7.450   3.486 -0.2747  0.2457 -0.2288
 6681W        W10745   1.302   3.891   2.311 -0.3868 -0.0186  0.1614
 6682W        W10746   3.937   0.914   9.857  0.2032  0.2251  0.2103
 6683W        W10747   1.733   5.863   1.339  0.0910 -0.3075  0.0173
 6684W        W10748   6.534   4.987   8.430  0.0050 -0.1378 -0.0766
 6685W        W10749   6.130   0.781   3.310  0.0110  0.3168  0.1074
 6686W        W10750   3.075   2.514   7.996 -0.1597 -0.1252 -0.0076
 6687W        W10751   1.473   9.362  10.149 -0.1152 -0.0646 -0.1882
 6688W        W10752   1.684   0.177   8.314 -0.1314 -0.0659 -0.0846
 6689W        W10753   7.235   5.143  10.104 -0.0005 -0.4437 -0.0405
 6690W        W10754   7.773   0.571   4.432 -0.2073  0.1677  0.0526
 6691W        W10755   3.156   0.690   4.285  0.0836  0.0196  0.2094
 6692W        W10756   1.009   6.264   0.999  0.2203 -0.1666  0.0397
 6693W        W10757   1.565   2.416   8.845 -0.0236 -0.0876 -0.2036
 6694W        W10758   5.554   6.196   1.119 -0.0251 -0.1169 -0.2332
 6695W        W10759   3.459   5.535   8.020 -0.3062  0.2900  0.0652
 6696W        W10760   4.556   1.233   0.053 -0.2045  0.1214  0.1968
 6697W        W10761   4.820   7.398   3.991 -0.3541 -0.0596  0.0854
 6698W        W10762   0.609   8.683  11.416  0.0299  0.1550 -0.2858
 6699W        W10763   8.345   4.328   2.248  0.2322 -0.0638 -0.1356
 6700W        W10764   5.798   9.941   8.587 -0.0437  0.0963  0.0182
 6701W        W10765   1.249   1.382   9.917  0.0380  0.1669  0.1830
 6702W        W10766   4.169   9.026   2.905  0.1779 -0.1724  0.0651
 6703W        W10767   2.833   7.687   0.333 -0.0866  0.3232  0.0227
 6704W        W10768   6.112   7.534   0.492  0.0834  0.0382 -0.1944
 6705W        W10769   1.842   7.931   0.301  0.2046  0.0448 -0.1722
 6706W        W10770   9.780   8.363   1.242  0.2194 -0.0565  0.2571
 6707W        W10771  10.614   7.847   1.546 -0.1861 -0.2657  0.5388
 6708W        W10772   3.963   9.760  10.454  0.3768  0.1428  0.0549
 6709W        W10773  10.650   3.405  10.943  0.0586  0.2597 -0.1948
 6710W        W10774   5.241   7.193   3.806 -0.3168  0.1859  0.3441
 6711W        W10775   2.641   5.921  11.311  0.1686  0.1670  0.2377
 6712W        W10776   8.517  10.408  11.056  0.3108 -0.0940 -0.1311
 6713W        W10777   5.209   0.919   9.601 -0.0365  0.0814  0.0774
 6714W        W10778   3.668   5.675  10.002  0.0249  0.1720 -0.0457
 6715W        W10779  10.614   2.511  10.107 -0.1609  0.6167  0.2252
 6716W        W10780   2.522   7.229   9.648 -0.1953 -0.0412 -0.1600
 6717W        W10781   7.045   3.275  10.246 -0.0797  0.2419  0.0007
 6718W        W10782   3.095   2.199   2.749  0.0526  0.5685 -0.6618
 6719W        W10783   2.601   9.108   1.843  0.2763 -0.2498 -0.0383
 6720W        W10784  10.540   6.645   0.225  0.4211  0.1553  0.0336
 6721W        W10785   8.851   1.858  11.019 -0.1463  0.2318  0.0988
 6722W        W10786   9.208   2.448   3.959  0.1668  0.0132 -0.0101
 6723W        W10787   0.727   0.101   9.739 -0.1445 -0.2335 -0.2634
 6724W        W10788   7.348   4.554   3.541  0.1598 -0.2478  0.2773
 6725W        W10789   0.807   5.609   1.360  0.1972 -0.1011 -0.2985
 6726W        W10790   7.162   5.520   1.106  0.0090  0.0006  0.2233
 6727W        W10791   6.722   5.243   7.923  0.3539  0.0480 -0.0215
 6728W        W10792   2.532   6.799   7.145  0.1086  0.1781  0.1329
 6729W        W10793   3.572   9.305   8.929  0.0991 -0.1118  0.1566
 6730W        W10794   4.786   5.882   8.896  0.0169  0.2039  0.3579
 6731W        W10795   3.659   0.978   8.000  0.0262 -0.4539  0.1241
 6732W        W10796   4.587   9.623  10.171  0.0245 -0.2393 -0.0817
 6733W        W10797   7.335   9.981   1.351 -0.1136 -0.0656  0.2235
 6734W        W10798   4.546   6.872   1.649 -0.3261 -0.2281 -0.1036
 6735W        W10799  10.675   1.341   4.294  0.1390 -0.2762 -0.0643
 6736W        W10800   0.038   2.991   9.997 -0.3430 -0.0888  0.0439
 6737W        W10801   6.265   2.939   8.093 -0.2374  0.1178  0.0094
 6738W        W10802   8.230   8.988   0.678 -0.3255 -0.0382 -0.1442
 6739W        W10803   5.512   2.931   9.945  0.0595 -0.0600  0.0760
 6740W        W10804   3.682   8.061   0.337 -0.1497  0.1107 -0.1078
 6741W        W10805   5.936   6.775  10.904  0.1487  0.1244 -0.0850
 6742W        W10806   7.912   8.973   8.612  0.0460 -0.1846 -0.1922
 6743W        W10807   9.772   2.515   0.905 -0.0189 -0.0626  0.2774
 6744W        W10808   6.178   9.019   3.365  0.2681 -0.0642  0.0547
 6745W        W10809   0.462   9.548   0.892 -0.0598  0.1015 -0.0196
 6746W        W10810   0.773   0.090   2.661 -0.0451 -0.0566  0.1668
 6747W        W10811   4.162   5.865   0.317  0.1340 -0.4179  0.1264
 6748W        W10812   0.508   5.547   9.118  0.2042  0.3027  0.3265
 6749W        W10813   7.009   6.944  10.419  0.1858 -0.0241  0.3822
 6750W        W10814   3.411   4.820  10.331 -0.0376  0.0547 -0.0245
 6751W        W10815   5.872   9.014   1.043 -0.4001  0.0425 -0.0156
 6752W        W10816   7.673   8.375   1.163 -0.0049 -0.1050 -0.1339
 6753W        W10817   5.052   3.707   1.951  0.1907  0.1940  0.1751
 6754W        W10818   4.139   6.212   3.410  0.2294  0.0395  0.4293
 6755W        W10819   5.363   4.856   9.315  0.0395  0.2562 -0.0603
 6756W        W10820   0.566   8.817   9.240  0.2800  0.1049 -0.2637
 6757W        W10821   0.273  10.508   0.698 -0.0422 -0.0643  0.0960
 6758W        W10822   2.354   8.018  10.911  0.1238 -0.0311  0.0530
 6759W        W10823   9.757   8.977   0.679  0.4685 -0.3910  0.1098
 6760W        W10824   4.253   0.892   9.471  0.4527 -0.1166 -0.4991
 6761W        W10825   5.248   6.310   2.538  0.3073 -0.1844  0.2416
 6762W        W10826   0.661   9.764   2.195  0.2895  0.0190 -0.0706
 6763W        W10827   3.593   7.461   1.902 -0.2956  0.1949  0.2707
 6764W        W10828   6.350   5.616   0.519  0.2327 -0.2350  0.0949
 6765W        W10829   3.594   3.659   8.597  0.2919  0.0734  0.0243
 6766W        W10830  10.276   2.535  10.876 -0.0829 -0.2674 -0.0601
 6767W        W10831   6.794   7.490   0.894  0.4307 -0.1184  0.0511
 6768W        W10832   1.959   6.036   9.977 -0.0942 -0.0669  0.0103
 6769W        W10833   5.817   3.330   1.425  0.2988  0.0027 -0.1034
 6770W        W10834   2.565   5.581  10.945 -0.2975 -0.1040  0.1063
 6771W        W10835   6.125   6.272   3.391 -0.1740 -0.1338 -0.0664
 6772W        W10836   6.200   4.363   2.082  0.1649  0.0346 -0.0101
 6773W        W10837   4.428   5.606  10.590 -0.1542 -0.0371  0.1568
 6774W        W10838   4.235   0.865  11.127  0.0927 -0.0088  0.1137
 6775W        W10839   0.081   2.244   2.087  0.1298  0.1574 -0.0323
 6776W        W10840   0.746   2.298   1.410  0.0953  0.4779 -0.0391
 6777W        W10841   0.875   8.655   1.909 -0.0804  0.0178  0.0780
 6778W        W10842   0.977   2.817   3.113  0.1577 -0.0811  0.0329
 6779W        W10843   1.179   3.655   0.318 -0.3348  0.1398 -0.2445
 6780W        W10844   0.462   7.208   2.510  0.3728 -0.1671  0.0905
 6781W        W10845   9.131   7.432   3.881 -0.4598 -0.2912 -0.0760
 6782W        W10846   0.518   7.957   7.250  0.0292  0.1854  0.0733
 6783W        W10847   6.328   9.634   9.815  0.3360  0.0715 -0.0052
 6784W        W10848   7.422   6.111   8.438 -0.0179  0.1457  0.1997
 6785W        W10849   7.851   6.010   8.166 -0.1301  0.1045  0.0361
 6786W        W10850   1.331   8.985   7.535 -0.0957  0.4514  0.1803
 6787W        W10851   0.041   6.481   2.127 -0.1778 -0.2157  0.1405
 6788W        W10852   5.203   7.907   8.902 -0.1837 -0.1477  0.2418
 6789W        W10853   3.963   9.938   1.454 -0.1218 -0.2319  0.1371
 6790W        W10854   5.275   7.769   0.073 -0.2547  0.4142 -0.3305
 6791W        W10855   3.609   1.255   2.947  0.0972 -0.0315  0.3145
 6792W        W10856   9.772   9.545  10.911 -0.0992  0.2084  0.4307
 6793W        W10857   6.139   0.011   3.734  0.0063  0.1193  0.1109
 6794W        W10858   0.004   1.637   1.588  0.0371  0.1182 -0.1042
 6795W        W10859   4.070   2.117   8.797 -0.0892 -0.2195  0.1393
 6796W        W10860  10.277   9.446  10.970  0.0851 -0.1202  0.0584
 6797W        W10861   4.064   7.059   1.849  0.3287  0.0938 -0.2744
 6798W        W10862   8.273   5.922   2.358 -0.2270  0.0441  0.0413
 6799W        W10863   6.390   6.349  10.020 -0.0030  0.0954  0.0750
 6800W        W10864   6.780   1.626   3.366  0.1459  0.1727 -0.2481
 6801W        W10865   3.438   1.055   3.423  0.1022 -0.0261 -0.1486
 6802W        W10866   4.445   5.540   4.343 -0.2746 -0.0940  0.2659
 6803W        W10867   4.291   5.078   7.777  0.0741  0.0079  0.4130
 6804W        W10868   8.592   2.427   2.617  0.0325  0.0301  0.0827
 6805W        W10869   6.429   1.127   1.477 -0.1016  0.2203  0.3239
 6806W        W10870   1.512   5.017  10.557  0.0651  0.0812  0.0399
 6807W        W10871   3.575   5.623   9.472  0.1104  0.0550  0.0033
 6808W        W10872   1.439  10.255   9.900 -0.1302 -0.0634 -0.0052
 6809W        W10873   1.669   3.897   1.146 -0.0052 -0.1601  0.1382
 6810W        W10874   4.605   9.187   0.738 -0.0896  0.0866  0.0039
 6811W        W10875   9.859   4.046   0.487  0.2099 -0.0128 -0.2445
 6812W        W10876   0.887   1.493   0.003 -0.1090 -0.0031  0.0791
 6813W        W10877   5.801   1.132   9.308 -0.4502 -0.0434  0.1069
 6814W        W10878   9.452  10.308   3.362 -0.1351 -0.3136  0.0747
 6815W        W10879  10.452   5.044   2.128 -0.0467  0.4477 -0.0901
 6816W        W10880   1.338   6.231   0.555 -0.0645  0.0348  0.0838
 6817W        W10881   4.838   9.056   0.308 -0.0879  0.2770 -0.0043
 6818W        W10882   0.661   4.266   0.937 -0.2770 -0.0119 -0.3968
 6819W        W10883   5.562   9.703  10.827 -0.2819  0.3887 -0.0407
 6820W        W10884   1.272   2.275   9.314 -0.1018  0.0009 -0.0287
 6821W        W10885   2.372   1.038  10.023 -0.0809  0.1841 -0.1071
 6822W        W10886   5.619   2.445   9.612  0.0177  0.1490 -0.2094
 6823W        W10887   6.633   6.349   1.693  0.0909  0.0804  0.1787
 6824W        W10888  10.502   2.438  11.296 -0.2902  0.0586 -0.2257
 6825W        W10889   1.856   1.196  10.801  0.0597  0.0532 -0.1354
 6826W        W10890   6.446   5.105  10.457 -0.1679  0.0961 -0.0064
 6827W        W10891   1.610   2.500   1.224  0.0847  0.0127 -0.2340
 6828W        W10892   9.172   5.608   9.797 -0.1290 -0.2038 -0.1202
 6829W        W10893   4.545   3.816   9.854  0.3360 -0.0820  0.0021
 6830W        W10894   3.304   7.172   2.192  0.1479  0.1563 -0.3369
 6831W        W10895   4.016   8.243   3.412 -0.0808  0.1855 -0.0196
 6832W        W10896   6.702  10.217   3.010  0.0329 -0.2844  0.1297
 6833W        W10897   1.404   2.598  10.213  0.0633  0.0454 -0.0162
 6834W        W10898   5.487   1.563   2.113  0.2624 -0.0276  0.2032
 6835W        W10899   8.349   4.983   9.635 -0.0259  0.0902  0.0145
 6836W        W10900   5.446   4.093   8.646 -0.0423 -0.0856 -0.3084
 6837W        W10901   6.484   4.372   2.652  0.0915  0.0092 -0.0283
 6838W        W10902   3.893   5.667  10.699 -0.1029  0.2392 -0.0585
 6839W        W10903   2.040   4.355   7.992 -0.0895  0.2216 -0.0758
 6840W        W10904   7.711   0.041   8.611 -0.3400 -0.3290 -0.0380
 6841W        W10905   6.076   9.743   7.900  0.5116  0.2013  0.0267
 6842W        W10906   0.232   6.893   8.868  0.0642  0.2309 -0.3738
 6843W        W10907   9.272   1.537  10.866 -0.0711  0.1498 -0.1345
 6844W        W10908   7.110   4.775   9.750 -0.0502  0.0162 -0.1162
 6845W        W10909   7.455   1.814   7.849  0.1309  0.0411 -0.0431
 6846W        W10910   9.054   8.787   0.993  0.0854  0.3523 -0.4463
 6847W        W10911   8.071   2.203   0.915  0.0670  0.3260  0.1058
 6848W        W10912   1.110   6.527   8.378 -0.2460 -0.2681 -0.0885
 6849W        W10913  10.289   4.470   1.747 -0.1485 -0.0488  0.3880
 6850W        W10914   1.768   0.483   9.299 -0.1542  0.1852 -0.5011
 6851W        W10915   2.289  10.019   9.759  0.0738  0.0594  0.3906
 6852W        W10916   0.257  10.671   2.175  0.0884 -0.1855 -0.1039
 6853W        W10917   8.823  10.525   0.073 -0.0287 -0.0471 -0.0784
 6854W        W10918   5.415   9.473   1.622 -0.1191  0.0652  0.0785
 6855W        W10919   9.240   2.310   3.076  0.1743 -0.2459  0.1538
 6856W        W10920   3.377   7.495   8.871  0.0190 -0.0578  0.0300
 6857W        W10921   4.752   0.079  10.653 -0.0955  0.1783 -0.1072
 6858W        W10922   3.702   5.735   8.925 -0.1669  0.0293 -0.2107
 6859W        W10923   4.718   9.503   9.467  0.2464  0.0649 -0.0443
 6860W        W10924   5.269   5.782   8.756 -0.0786  0.0518 -0.2677
 6861W        W10925   4.365   4.417   8.812  0.3182 -0.1940 -0.1511
 6862W        W10926   9.351   1.575   8.852  0.8440  0.1294  0.0060
 6863W        W10927   7.457   1.895   8.648 -0.0652 -0.1253  0.1741
 6864W        W10928   9.679   0.461   1.858 -0.1780  0.1968 -0.0791
 6865W        W10929   9.528   2.121   0.797 -0.4047  0.3566 -0.0839
 6866W        W10930   6.141   7.216   2.219 -0.1764 -0.2013  0.1515
 6867W        W10931   8.152   1.348   4.215 -0.0763  0.0213 -0.2240
 6868W        W10932   2.604   7.724   9.179 -0.0353 -0.0504 -0.2791
 6869W        W10933   8.785   1.396   9.474 -0.0626 -0.1773 -0.0063
 6870W        W10934   9.401   3.266   8.355  0.1871  0.2466 -0.3052
 6871W        W10935   5.405   5.511   3.515 -0.2144 -0.0485  0.1168
 6872W        W10936   2.958   0.228   3.177 -0.1406  0.2862 -0.0202
 6873W        W10937   4.571   2.187  10.926 -0.0132  0.0650  0.0372
 6874W        W10938   9.524   7.282   7.667  0.4327 -0.1377 -0.1702
 6875W        W10939   6.032   9.578   8.844 -0.0085 -0.0186 -0.1581
 6876W        W10940   8.419   7.300   2.009 -0.1762 -0.0262 -0.1253
 6877W        W10941   4.418   7.577   9.048  0.2088 -0.2754  0.2584
 6878W        W10942   5.659   1.140  10.423 -0.0286 -0.3486  0.0990
 6879W        W10943   5.842   1.128   2.109  0.1531  0.0049 -0.1211
 6880W        W10944   1.343   7.696   7.939 -0.2377  0.1511  0.0628
 6881W        W10945   6.338   4.622   1.008  0.1527  0.2716 -0.2065
 6882W        W10946   0.229   9.291   8.007  0.0410  0.2779  0.0492
 6883W        W10947   4.624   4.803   8.535  0.0786 -0.2558 -0.0994
 6884W        W10948   2.156   7.755  11.369 -0.0040  0.2201 -0.2745
 6885W        W10949   0.086   7.402  11.030  0.0501  0.0080  0.0526
 6886W        W10950   3.713   6.577   7.399 -0.0342 -0.1558 -0.1408
 6887W        W10951   1.139   6.663   3.561  0.1233  0.1170 -0.3187
 6888W        W10952   6.658   1.340   2.932 -0.0076  0.1169  0.1389
 6889W        W10953   5.644   4.016   0.903 -0.1717 -0.0729 -0.0159
 6890W        W10954   7.090   8.011   7.387  0.1018  0.0983  0.0768
 6891W        W10955   6.558   8.070  10.924  0.2367  0.2510 -0.1254
 6892W        W10956   3.934   1.096   3.441 -0.3922  0.2967 -0.2293
 6893W        W10957   0.214   0.009  11.384 -0.2279 -0.0135  0.0025
 6894W        W10958   5.033   3.181   2.052 -0.4144 -0.2538 -0.2490
 6895W        W10959   5.811   5.137   9.145 -0.0053  0.0660 -0.2479
 6896W        W10960   7.257   9.651   8.540 -0.1541 -0.0535 -0.2316
 6897W        W10961  10.243   1.963   9.705  0.0688  0.2170  0.2111
 6898W        W10962   6.127   1.943   3.351 -0.1044  0.0146  0.3000
 6899W        W10963   4.118   9.567   3.058  0.0601  0.0382  0.0671
 6900W        W10964   6.147   9.600  11.114 -0.1977 -0.4439 -0.2291
 6901W        W10965   8.837   1.807   8.563 -0.1357  0.0905 -0.0179
 6902W        W10966   7.951  10.564   2.294 -0.0342  0.1803 -0.1467
 6903W        W10967   0.977   1.980   0.876  0.2288 -0.0488 -0.0235
 6904W        W10968   5.599   8.031   2.466 -0.0833 -0.3384 -0.1668
 6905W        W10969   7.387   9.443  10.582 -0.1595  0.0993 -0.1166
 6906W        W10970   3.628  10.440   9.434 -0.1733 -0.1214 -0.0712
 6907W        W10971   1.439   7.408   0.084  0.0318  0.0804 -0.0815
 6908W        W10972   6.828   8.409   7.145 -0.0244  0.2046 -0.1445
 6909W        W10973   1.791   0.730   3.224 -0.1280  0.0336 -0.1582
 6910W        W10974   3.736   7.328   2.527  0.0769  0.0566 -0.1384
 6911W        W10975   5.563   5.112   3.809 -0.0853  0.0555 -0.0368
 6912W        W10976   2.080   8.132   9.401 -0.0865 -0.0142  0.0297
 6913W        W10977   9.205   9.415   3.152 -0.3514 -0.2224 -0.0161
 6914W        W10978   0.084   7.991   3.314  0.1510 -0.1284 -0.0453
 6915W        W10979   5.148   6.136   9.152  0.0227  0.2651 -0.0948
 6916W        W10980   7.992   3.171   7.945 -0.0051 -0.2597  0.0946
 6917W        W10981   9.277   0.048   8.852 -0.1450  0.0130 -0.3957
 6918W        W10982   3.111   3.594   2.916  0.3907 -0.0122  0.2418
 6919W        W10983   2.924   6.980   9.701 -0.0134  0.3145  0.0086
 6920W        W10984   4.493   0.999   0.470  0.1726 -0.3861  0.0816
 6921W        W10985   7.670   4.137   3.159  0.2057  0.1825 -0.2472
 6922W        W10986  10.198   1.977   2.462  0.1841  0.0846  0.2772
 6923W        W10987   1.422   2.515  11.269  0.1270  0.1828  0.2475
 6924W        W10988   4.235   0.227   8.470 -0.1806 -0.0772 -0.1221
 6925W        W10989   3.677  10.123   0.663  0.0597  0.0445 -0.3180
 6926W        W10990   4.556   6.920   0.816 -0.2158 -0.0053 -0.2402
 6927W        W10991   6.242   1.509   0.737  0.0473 -0.0967  0.4012
 6928W        W10992   5.558   6.079  10.532 -0.0569 -0.2888  0.2163
 6929W        W10993   0.907   5.910   1.823 -0.3999  0.0260 -0.2061
 6930W        W10994   9.509   1.035   8.731 -0.2490 -0.0729 -0.0621
 6931W        W10995   7.968   5.215   2.767 -0.1301 -0.3265 -0.2038
 6932W        W10996   3.815  10.164   7.750 -0.0235 -0.2591 -0.0370
 6933W        W10997   3.530   0.147   3.687  0.0036 -0.1371 -0.1202
 6934W        W10998   2.928   1.407   2.223 -0.0602  0.0843  0.1025
 6935W        W10999   9.247   5.666   0.798  0.1595 -0.0983  0.1731
 6936W        W11000   5.784  10.633   7.710 -0.4193  0.0640  0.1740
 6937W        W11001   8.327   6.526  10.424  0.0211  0.1010  0.0442
 6938W        W11002   3.131   3.273   2.530  0.2851 -0.1355 -0.0323
 6939W        W11003   7.183   2.339   8.448  0.0062  0.0317  0.0673
 6940W        W11004   9.820   9.376   1.269  0.2095  0.3207 -0.1187
 6941W        W11005   0.024   2.213   8.980  0.2127 -0.1268 -0.1914
 6942W        W11006   7.321   7.305   9.020  0.1195 -0.1473  0.1255
 6943W        W11007   7.694   8.381  11.084  0.0737 -0.3400 -0.3282
 6944W        W11008   4.068   6.300   1.157 -0.2183 -0.1692  0.0703
 6945W        W11009   8.106   6.368   8.434  0.3284  0.2667  0.1468
 6946W        W11010   0.733   9.982   8.684  0.0426 -0.1577  0.4228
 6947W        W11011   0.133   9.504   0.016 -0.1621 -0.3213  0.0623
 6948W        W11012   9.038   6.579   0.473 -0.1015  0.1332 -0.1864
 6949W        W11013   2.516   8.913   0.891  0.1291 -0.1638  0.3091
 6950W        W11014   9.461   4.509   1.492  0.1937  0.2172 -0.2566
 6951W        W11015   2.040   5.133   8.474 -0.5560  0.0569  0.1325
 6952W        W11016   6.557   2.772   9.456 -0.3531  0.0555  0.0531
 6953W        W11017   1.478   6.960   9.346 -0.2572  0.0240 -0.0980
 6954W        W11018  10.551   0.825  11.053  0.1776 -0.2239 -0.0859
 6955W        W11019   0.919   0.740   8.308 -0.0858  0.0630  0.2007
 6956W        W11020   9.242   1.963   7.739  0.3044 -0.1616 -0.1236
 6957W        W11021   9.483   2.779   3.702  0.1621 -0.0916 -0.2239
 6958W        W11022   6.358   6.905   1.392 -0.0995  0.0900  0.1637
 6959W        W11023   6.787   0.798   3.761 -0.0506  0.2616 -0.1254
 6960W        W11024   1.091   8.228   9.709 -0.0795  0.4037  0.1984
 6961W        W11025   9.707   6.463  10.588  0.1904 -0.0391  0.0428
 6962W        W11026  10.389   8.376  10.934 -0.1241  0.4353  0.0863
 6963W        W11027   9.555   2.303  11.047  0.1577  0.0437  0.5805
 6964W        W11028   7.933   5.418   8.782 -0.0117  0.0746  0.1935
 6965W        W11029   5.756   1.337   2.663  0.1783  0.2225 -0.0448
 6966W        W11030  10.621   6.935   2.347  0.0513 -0.2454 -0.0216
 6967W        W11031   5.679   1.865   2.556  0.3112  0.4013 -0.1929
 6968W        W11032  10.080   2.892  11.218  0.1034  0.0588  0.1462
 6969W        W11033   3.628   1.993   9.303  0.1556  0.1404 -0.1217
 6970W        W11034   3.742   4.779   9.108 -0.2016  0.0440  0.2506
 6971W        W11035   0.227  10.137   8.690  0.2070 -0.2200  0.5390
 6972W        W11036   3.929   0.351   8.782 -0.1293 -0.2655 -0.0119
 6973W        W11037   3.340   6.585   2.197  0.0802 -0.1480 -0.0518
 6974W        W11038   4.150   3.412   9.735  0.0100 -0.0495 -0.0082
 6975W        W11039   0.872   9.618  10.420  0.1758 -0.2181  0.3178
 6976W        W11040   9.749   4.803   9.674 -0.1292  0.2234  0.1863
 6977W        W11041   0.671   9.868   3.067 -0.1313 -0.3141  0.0545
 6978W        W11042   9.511  10.611  11.081 -0.0303  0.1769 -0.2932
 6979W        W11043   7.577   1.360   2.195 -0.0877  0.0602 -0.0472
 6980W        W11044   3.961   7.081  10.214 -0.1164  0.0123  0.4470
 6981W        W11045   6.185   9.485   3.733  0.2826  0.0178 -0.0998
 6982W        W11046   7.139  10.710   9.434 -0.1494 -0.4164 -0.4103
 6983W        W11047  10.686   8.375   1.406 -0.0552 -0.0756  0.1225
 6984W        W11048   4.071   9.070   1.956 -0.0669 -0.0348 -0.0048
 6985W        W11049   0.303   1.873   8.570  0.3430  0.2251  0.1713
 6986W        W11050   5.034   1.876  10.693 -0.1820 -0.2538 -0.1425
 6987W        W11051   9.196   9.567   1.307 -0.2099 -0.2108 -0.0618
 6988W        W11052   3.082   2.869   8.386 -0.1486 -0.0146  0.0410
 6989W        W11053   1.881   6.677   9.228  0.0314 -0.0386  0.1372
 6990W        W11054   2.526   6.828   2.802  0.3177  0.1115 -0.3878
 6991W        W11055   6.728   0.574  10.560 -0.0873 -0.1411  0.4596
 6992W        W11056   5.977   1.091  11.339  0.0383 -0.0544  0.1698
 6993W        W11057   1.399   7.979   8.446 -0.0349 -0.3496  0.2274
 6994W        W11058   8.130  10.309   0.310 -0.0788  0.0700 -0.0253
 6995W        W11059  10.388   5.309  10.148  0.0591 -0.1385 -0.0342
 6996W        W11060   4.846   6.501   0.777 -0.2050 -0.4212  0.2540
 6997W        W11061   4.696  10.196  11.024 -0.0479  0.0296  0.1517
 6998W        W11062   8.361   4.114   9.425 -0.0375 -0.1319 -0.3470
 6999W        W11063   0.503   3.067   2.207  0.2434  0.1781  0.1574
 7000W        W11064   6.852   0.536   2.733 -0.0600 -0.0164  0.1385
 7001W        W11065   1.603   6.699   3.851  0.1121  0.3278 -0.0333
 7002W        W11066   3.238   6.819  10.656 -0.4325 -0.1523 -0.1010
 7003W        W11067   3.916   4.849  10.081 -0.1994 -0.3227 -0.1629
 7004W        W11068   4.515   0.662   0.058 -0.4194 -0.1340 -0.1583
 7005W        W11069   3.286   9.441   2.904  0.2757  0.0082  0.0060
 7006W        W11070   4.388   7.979   2.129  0.0797  0.0652 -0.0893
 7007W        W11071   3.308   0.387   0.141  0.4258 -0.3191 -0.0615
 7008W        W11072   7.363   9.604   0.994 -0.2973 -0.1591  0.0063
 7009W        W11073   4.916   3.491  11.122 -0.0044  0.0285 -0.2006
 7010W        W11074   1.687  10.608  10.140 -0.0762 -0.2789 -0.2486
 7011W        W11075   6.928   5.177   2.805 -0.2831 -0.2264  0.1731
 7012W        W11076   7.977   1.319   9.619  0.4770  0.0394  0.0772
 7013W        W11077   7.272   0.344   8.238  0.2960 -0.2546  0.0107
 7014W        W11078   6.679   8.206   9.698  0.0376 -0.1234 -0.3450
 7015W        W11079   6.125   4.782   8.575  0.1973 -0.2685 -0.3249
 7016W        W11080   4.901   1.854   3.454 -0.2142  0.0374 -0.1272
 7017W        W11081   1.465   0.060  11.348 -0.1035  0.0733  0.2016
 7018W        W11082   6.384   8.319   8.480 -0.1427 -0.1577 -0.2838
 7019W        W11083   0.115   4.131  11.124 -0.4206 -0.2592 -0.0868
 7020W        W11084   8.544   8.104   1.537 -0.1241  0.0973  0.3899
 7021W        W11085   4.003  10.224  10.355  0.3357 -0.4307 -0.1645
 7022W        W11086   9.917   7.385   1.856 -0.0210 -0.0157  0.3349
 7023W        W11087   9.820   9.436   8.447  0.2244  0.3933  0.4115
 7024W        W11088   0.173   7.999   8.217 -0.0572 -0.1488 -0.2685
 7025W        W11089   6.768   5.930   3.439  0.1332  0.4614 -0.3682
 7026W        W11090   1.592   8.191   7.952 -0.4362  0.1418  0.0962
 7027W        W11091   2.160   7.549  10.068 -0.0787  0.1626 -0.1553
 7028W        W11092   3.608   3.375   2.307 -0.4782 -0.1620 -0.2657
 7029W        W11093  10.331   8.647   7.841 -0.0829  0.5960 -0.1313
 7030W        W11094   2.321  10.512  10.001  0.1743  0.2732 -0.3811
 7031W        W11095   2.696   2.376  11.185  0.0183 -0.0399 -0.0092
 7032W        W11096   1.736   5.839   1.862  0.0381  0.0920 -0.0231
 7033W        W11097   9.713   2.289   0.321 -0.3248 -0.1098 -0.1414
 7034W        W11098   3.863   2.995   9.686 -0.1943  0.1382 -0.2065
 7035W        W11099   8.769   6.815   2.606 -0.0655 -0.2089 -0.2589
 7036W        W11100   6.572   1.699   2.563  0.0778 -0.2352  0.0167
 7037W        W11101   6.620   1.922   9.159  0.0096 -0.1115  0.1315
 7038W        W11102   0.100  10.521   3.932  0.2105 -0.2171  0.0120
 7039W        W11103   2.622   3.696  10.937 -0.1746  0.3320 -0.0300
 7040W        W11104   0.905   6.287   7.940 -0.3565 -0.1610  0.4883
 7041W        W11105   7.398   7.981  11.230  0.0421 -0.1433 -0.3471
 7042W        W11106   9.364   0.210  10.274 -0.0321  0.4798  0.0338
 7043W        W11107   4.038   7.632  11.042 -0.1483  0.0817  0.0690
 7044W        W11108   2.582   3.544   9.743  0.1167  0.0885 -0.2171
 7045W        W11109   4.397   0.251   8.959 -0.0550 -0.3618 -0.0314
 7046W        W11110   9.884   2.007   1.202 -0.1389  0.0519 -0.1150
 7047W        W11111   2.099   9.925  10.685 -0.1151  0.3765 -0.1274
 7048W        W11112   0.677   5.514   0.848 -0.1090  0.0981 -0.3353
 7049W        W11113   6.311   4.113   1.161 -0.0213  0.1136 -0.3572
 7050W        W11114   0.702   7.263   3.009 -0.2134 -0.1617 -0.1451
 7051W        W11115   6.349   6.585   7.599  0.2695  0.1273  0.0221
 7052W        W11116   0.175   4.825   2.891  0.0012  0.0122 -0.0138
 7053W        W11117   6.647   9.369  11.135  0.1189 -0.0238  0.2760
 7054W        W11118   1.131   0.949   8.753 -0.1591  0.0077 -0.1281
 7055W        W11119   2.954   3.788   1.707 -0.0898  0.1904  0.0681
 7056W        W11120  10.304   7.144   2.034 -0.0696 -0.3410  0.1360
 7057W        W11121   8.187   2.101   2.602 -0.1506 -0.0966  0.1094
 7058W        W11122   3.093   1.691   0.276 -0.1391 -0.1374  0.3341
 7059W        W11123   4.045   7.308   1.373  0.1362  0.1783 -0.3675
 7060W        W11124   9.646   8.320   1.700  0.0122  0.2668 -0.0179
 7061W        W11125   3.381   3.316   3.336 -0.1944 -0.0338  0.0092
 7062W        W11126   4.007   7.058   8.410  0.0128  0.0177 -0.1008
 7063W        W11127   0.880   7.666   0.086  0.0956  0.0616  0.0144
 7064W        W11128   5.238   3.972   9.429  0.0353  0.2247 -0.1941
 7065W        W11129   4.278   9.418  10.657  0.0764  0.2014  0.0289
 7066W        W11130   4.697   1.650   2.537 -0.0074  0.0500  0.1898
 7067W        W11131   9.776   2.776  10.835 -0.2754 -0.2244 -0.2018
 7068W        W11132   2.003   3.575   2.000 -0.0758  0.2242  0.0459
 7069W        W11133   9.044   8.471   0.609 -0.0652 -0.2165 -0.2429
 7070W        W11134  10.178   9.316   2.721 -0.1411 -0.2219 -0.1280
 7071W        W11135   2.684   0.561   3.493  0.2120  0.0247  0.1006
 7072W        W11136   4.326   4.981  11.038 -0.1780  0.2010  0.2298
 7073W        W11137   9.136   7.007   8.953 -0.1637 -0.0412 -0.2021
 7074W        W11138   5.428   9.800   3.001 -0.1232  0.2139  0.1153
 7075W        W11139   4.288   8.295   1.119  0.2168  0.0473  0.1645
 7076W        W11140   8.825   2.528  11.056  0.0986  0.0083 -0.4083
 7077W        W11141   2.215   2.533  10.698 -0.0737  0.1879 -0.1988
 7078W        W11142   2.179  10.684   8.554 -0.1415 -0.3039  0.0924
 7079W        W11143   0.517   5.261   1.579 -0.0477  0.0944 -0.0897
 7080W        W11144   0.695   6.820   8.699 -0.1602 -0.0840  0.0852
 7081W        W11145   9.147   6.753   1.805  0.1269 -0.1355 -0.0134
 7082W        W11146   5.527   2.788   8.650  0.3695 -0.2101  0.0574
 7083W        W11147   3.770   8.298   1.546  0.0744 -0.1395  0.0719
 7084W        W11148   9.948   6.563   9.145 -0.0789 -0.2555 -0.2393
 7085W        W11149   9.520   8.341   7.701 -0.0961 -0.1169  0.0849
 7086W        W11150   9.293   8.074   1.402 -0.0932  0.1648 -0.0946
 7087W        W11151   5.462   7.968   9.815 -0.0690  0.2881  0.1181
 7088W        W11152   7.068   2.050   2.374 -0.4862 -0.2790 -0.1364
 7089W        W11153  10.494   2.662   1.928 -0.1315  0.0126 -0.2373
 7090W        W11154   9.375  10.221   9.840 -0.0945  0.0161  0.1914
 7091W        W11155   5.104   8.530   1.125  0.0616  0.1672  0.0510
 7092W        W11156   1.955   4.982   1.398  0.1739 -0.1864  0.1885
 7093W        W11157   8.496  10.323   2.065  0.1644 -0.2174 -0.0151
 7094W        W11158   7.572   3.240   3.013 -0.4299  0.0474  0.0186
 7095W        W11159   2.781   9.148   1.291 -0.1150 -0.0352  0.1504
 7096W        W11160   4.195   1.520  11.321 -0.2112  0.1843 -0.1319
 7097W        W11161   5.704   1.793   0.540 -0.2615  0.2308 -0.0334
 7098W        W11162   3.593   8.031   9.155 -0.2795  0.0513 -0.3823
 7099W        W11163   9.212  10.043   7.884 -0.0259  0.0624  0.2160
 7100W        W11164   4.456   0.328   9.642  0.2565  0.1294  0.0802
 7101W        W11165   5.453   3.494   1.753 -0.1050 -0.3405  0.0663
 7102W        W11166   0.410   0.452   2.295 -0.1284 -0.1251 -0.0531
 7103W        W11167   0.511   7.295   8.782 -0.0185  0.0976 -0.2611
 7104W        W11168   5.569   7.758   0.605 -0.1285 -0.7048 -0.0860
 7105W        W11169   4.663   7.432   9.685  0.0799 -0.3375  0.1490
 7106W        W11170   0.314   1.372   0.135 -0.0177 -0.4286  0.0153
 7107W        W11171   6.610   5.839  11.330  0.2799 -0.0010  0.2490
 7108W        W11172   8.031   5.467   7.520 -0.0642  0.2758 -0.1188
 7109W        W11173   8.988  10.006   3.278  0.3367  0.0906 -0.1284
 7110W        W11174   5.950   2.415   0.897  0.0950 -0.1893 -0.0681
 7111W        W11175   7.137   7.309   9.520  0.3534 -0.0300  0.2469
 7112W        W11176   1.815   6.007   0.364  0.1716  0.1554  0.1536
 7113W        W11177   3.236   6.729   8.383 -0.0794 -0.1387  0.0716
 7114W        W11178   3.494   7.515   7.876  0.0638 -0.2782  0.0851
 7115W        W11179   2.116   7.128   0.651  0.1162  0.1718 -0.0178
 7116W        W11180   6.721   3.843   2.326  0.2056  0.0811 -0.2435
 7117W        W11181   7.114   1.376  11.358 -0.0856 -0.0519  0.0982
 7118W        W11182   8.713   6.286   9.142 -0.1715 -0.0418 -0.2636
 7119W        W11183   1.564   3.461   1.344  0.0087  0.0233  0.0816
 7120W        W11184   3.160  10.520   3.448  0.0508 -0.1479 -0.0248
 7121W        W11185   9.847   4.819   1.741 -0.0569 -0.2845 -0.2689
 7122W        W11186   0.305   0.969   9.092  0.1786  0.2487 -0.0253
 7123W        W11187   5.289   6.920   3.190 -0.0580  0.1069  0.0902
 7124W        W11188   5.713   1.255   7.965  0.2035 -0.2962  0.1340
 7125W        W11189   4.636   7.835   4.102  0.1270  0.2648 -0.0350
 7126W        W11190   0.034  10.617  10.706 -0.2856  0.3655  0.1150
 7127W        W11191   4.153   8.201   0.599  0.0204 -0.2295  0.1045
 7128W        W11192   6.542   0.008   3.334 -0.0749  0.1177  0.0345
 7129W        W11193   7.544   7.088   0.676 -0.0138  0.0014  0.1129
 7130W        W11194   3.125   4.918   8.485  0.1786  0.2193  0.1649
 7131W        W11195   7.708   3.606   7.943 -0.0977  0.1798 -0.0424
 7132W        W11196   7.884   7.489   2.710  0.1965 -0.1227  0.0066
 7133W        W11197   5.245   2.430   1.631  0.0978  0.2057 -0.0911
 7134W        W11198   2.444  10.361   8.923 -0.0749  0.1904  0.0007
 7135W        W11199   3.199   4.643   2.810  0.1161  0.2918  0.0326
 7136W        W11200   6.646   9.373   3.992 -0.2443  0.1331 -0.0416
 7137W        W11201   9.938   6.471  11.229 -0.2725  0.1465 -0.0274
 7138W        W11202   8.266   2.647   1.781 -0.1505 -0.1181  0.0092
 7139W        W11203   3.075   6.194   0.127  0.1355 -0.0096 -0.2660
 7140W        W11204   3.345   2.726   0.341 -0.0091 -0.3172  0.0556
 7141W        W11205   3.510   8.817  11.171 -0.0581 -0.3179 -0.1487
 7142W        W11206   4.941  10.013   9.234 -0.0777  0.1576 -0.0976
 7143W        W11207   7.979   3.156   8.452 -0.2760  0.0233 -0.0083
 7144W        W11208   3.758   4.535   8.640 -0.0270 -0.1447  0.0684
 7145W        W11209   3.191  10.402   9.672  0.3091  0.1229  0.1939
 7146W        W11210   0.715   2.274   1.970  0.1719  0.2227  0.2124
 7147W        W11211   9.998  10.129   3.580 -0.0773  0.3948 -0.1730
 7148W        W11212   7.296   6.080   2.462 -0.2076 -0.1827 -0.3753
 7149W        W11213   2.064   5.314   0.143 -0.3150 -0.1440 -0.2500
 7150W        W11214   7.882   6.302   0.798  0.2407 -0.1763 -0.0093
 7151W        W11215   4.847   4.679   0.463  0.3475 -0.0298  0.0940
 7152W        W11216   2.772   8.013  10.650 -0.2353 -0.2639 -0.0380
 7153W        W11217   8.925   3.979   0.020 -0.3327  0.1115 -0.0126
 7154W        W11218   1.514   6.451   2.600 -0.1170 -0.0341  0.2905
 7155W        W11219   0.215   2.563   0.967 -0.0951 -0.0560 -0.0705
 7156W        W11220   6.284   7.129   9.381 -0.0549  0.5022 -0.0562
 7157W        W11221   2.063   2.287   9.714 -0.3328  0.3582  0.1836
 7158W        W11222   0.586   8.819   0.698 -0.2531 -0.2158 -0.0892
 7159W        W11223  10.517   8.134   9.683 -0.1520  0.0000  0.2167
 7160W        W11224   8.480   8.039   1.007  0.1863 -0.2262  0.2682
 7161W        W11225   4.961   0.149   8.034  0.3209 -0.0480 -0.0604
 7162W        W11226   1.749   1.422   3.040  0.0780  0.1903  0.0374
 7163W        W11227   6.515   2.337   0.854  0.2091 -0.0589 -0.0680
 7164W        W11228   8.106   0.473   8.659  0.1976 -0.0481  0.1071
 7165W        W11229   0.676   4.320   3.497  0.0026 -0.1679  0.1112
 7166W        W11230   7.926   6.755   0.531  0.0359  0.0327  0.2364
 7167W        W11231   6.058   1.968   0.117 -0.0737 -0.1026  0.0362
 7168W        W11232   2.705   2.096   3.162  0.3083  0.1261 -0.0630
 7169W        W11233   6.821   8.985   0.648 -0.3913  0.2811  0.5123
 7170W        W11234   4.942   7.748   2.219 -0.1821 -0.0183  0.1508
 7171W        W11235   9.450   0.871   2.564  0.2101 -0.0145  0.2583
 7172W        W11236   2.475   2.556   8.893 -0.4794 -0.0493 -0.0353
 7173W        W11237   4.615   5.697   0.248  0.0158 -0.2377  0.1075
 7174W        W11238   3.171   3.882   8.199  0.1389 -0.0376  0.4254
 7175W        W11239   8.006   2.098   7.955 -0.0013  0.0342  0.1312
 7176W        W11240   1.097   6.351  11.113 -0.1769  0.2581  0.0148
 7177W        W11241   8.531   9.982   9.713 -0.1064  0.2063  0.0318
 7178W        W11242  10.631   9.567   9.072  0.0281 -0.3282 -0.1387
 7179W        W11243   0.653   5.671   8.644 -0.0115 -0.2483 -0.3827
 7180W        W11244   2.582   0.266   9.968  0.0540 -0.0592  0.1468
 7181W        W11245   2.577   2.132   4.030  0.1456 -0.2429 -0.1374
 7182W        W11246   3.095   4.270   8.523 -0.2729  0.2421  0.1944
 7183W        W11247   2.728  10.592   9.700  0.0752 -0.1718 -0.4923
 7184W        W11248   5.756   8.771   2.205  0.0174  0.2536  0.0198
 7185W        W11249   1.951   5.714   9.438  0.1098  0.0449  0.1263
 7186W        W11250   6.902   9.988   8.795 -0.0032 -0.1283 -0.0826
 7187W        W11251  10.339   1.190   2.174  0.0348 -0.0049 -0.0603
 7188W        W11252   6.625   7.366   8.280  0.3848  0.0946  0.1565
 7189W        W11253   0.580   8.216  10.624 -0.0411  0.1407  0.5075
 7190W        W11254   1.846   2.003   0.878  0.0405  0.0710  0.1213
 7191W        W11255   6.977   3.413   2.262  0.0417  0.0928  0.0967
 7192W        W11256   6.673   5.449  10.929  0.1230 -0.2205  0.0250
 7193W        W11257   5.919   0.592   8.718  0.1528 -0.2306 -0.1198
 7194W        W11258   5.431   6.281   7.943  0.0344  0.0735  0.1880
 7195W        W11259   2.384   0.383   8.618 -0.0252  0.2836 -0.0012
 7196W        W11260   7.074   3.263   8.918  0.0590  0.0978  0.3579
 7197W        W11261   0.845   6.222   1.444  0.3825 -0.0445 -0.2943
 7198W        W11262   4.931   8.484   2.872  0.2128  0.2107 -0.2585
 7199W        W11263  10.407   9.335   9.438 -0.2810 -0.3755 -0.2153
 7200W        W11264   4.927   0.385   4.134 -0.0364 -0.3442 -0.1731
 7201W        W11265   8.843   4.863  10.846  0.3297 -0.1295  0.1756
 7202W        W11266   0.178   6.115   1.463 -0.2205 -0.0615 -0.1981
 7203W        W11267   6.016   5.870  10.443 -0.2005  0.1583 -0.6793
 7204W        W11268   3.008   0.104   2.292 -0.4800  0.1157 -0.0782
 7205W        W11269   5.300   3.112   2.425 -0.0862 -0.0050 -0.3643
 7206W        W11270   3.590   8.440   0.005 -0.0131 -0.0015  0.1589
 7207W        W11271   8.793   2.802   9.917  0.2851  0.0399  0.0991
 7208W        W11272   0.362   0.724   1.836  0.1682 -0.1380 -0.2312
 7209W        W11273   4.163   1.365   8.680 -0.2072  0.0274 -0.0606
 7210W        W11274   8.698   7.708   3.123  0.0487 -0.0973  0.0453
 7211W        W11275   1.291   8.687   1.264  0.2768  0.1097  0.3188
 7212W        W11276   4.824   8.804   9.038  0.1681 -0.2930  0.1357
 7213W        W11277   4.737   0.997   3.366 -0.0187  0.3807  0.1773
 7214W        W11278   2.261   5.697   2.966 -0.1329  0.1700 -0.0491
 7215W        W11279   4.946   5.794  11.232  0.1827  0.4286 -0.0842
 7216W        W11280   1.280   4.273   1.056  0.0228 -0.1405  0.1368
 7217W        W11281   0.705   2.776  10.626  0.2863 -0.1775  0.2316
 7218W        W11282  10.173   1.607   1.252 -0.1486  0.1723 -0.2394
 7219W        W11283   7.426   4.361   9.789  0.2835 -0.0993  0.0639
 7220W        W11284   6.453   6.053   2.595  0.0855 -0.1262  0.5262
 7221W        W11285   6.374   2.542   8.997  0.1339  0.2840 -0.1948
 7222W        W11286   6.319   9.927   9.320  0.1228 -0.2796  0.0033
 7223W        W11287   7.103   0.182   2.583 -0.1096 -0.1260  0.3107
 7224W        W11288   0.081   4.069  10.110 -0.1626  0.2092 -0.0484
 7225W        W11289   8.200   8.401  10.911  0.1412 -0.0888 -0.0959
 7226W        W11290   1.019   0.017   3.658 -0.1685  0.0445 -0.1606
 7227W        W11291   0.033   1.225   2.901  0.0110  0.0343 -0.2503
 7228W        W11292   5.523   3.032   9.483 -0.1503 -0.0785 -0.0436
 7229W        W11293   1.691  10.221   0.495 -0.0069  0.1933 -0.0528
 7230W        W11294   9.540   7.727   2.478 -0.4161 -0.4448  0.0411
 7231W        W11295  10.610   9.687  10.612  0.0501  0.0663  0.3455
 7232W        W11296   5.316   4.916   8.023  0.0996  0.0409 -0.0579
 7233W        W11297  10.684   3.083   0.977 -0.0392  0.0605  0.0707
 7234W        W11298   7.676   9.126   0.219 -0.0424  0.0986  0.0554
 7235W        W11299   9.745   8.684   2.103  0.0346 -0.0838 -0.0006
 7236W        W11300   0.275   1.120   1.464 -0.0170 -0.1260 -0.0278
 7237W        W11301   1.407   6.125   2.026 -0.0616  0.3168 -0.1122
 7238W        W11302   2.912   2.107   1.502 -0.0148 -0.0536  0.0812
 7239W        W11303  10.430   7.620   2.978  0.2366  0.1074  0.1692
 7240W        W11304   2.508   7.802   8.492  0.1403 -0.0076 -0.0129
 7241W        W11305   0.599   8.315   3.919 -0.1029  0.0574  0.2337
 7242W        W11306   1.223   3.069   0.308 -0.1405 -0.1127 -0.0237
 7243W        W11307   7.447   0.249   0.418 -0.0848  0.1793 -0.4509
 7244W        W11308   0.620   4.747   8.907  0.0180 -0.2171 -0.1644
 7245W        W11309   5.647   1.028   0.320  0.0263 -0.0384  0.2205
 7246W        W11310   6.247   5.154   2.349 -0.3316  0.0761  0.1084
 7247W        W11311   3.063   9.712   8.143 -0.1396 -0.4088  0.2175
 7248W        W11312   2.079   6.922  10.948  0.2381 -0.0994 -0.1333
 7249W        W11313   5.149   4.811  10.371  0.1587 -0.2259 -0.1359
 7250W        W11314   1.039   3.565   9.333  0.1025  0.0771 -0.1052
 7251W        W11315  10.175   1.836  10.758 -0.3237  0.3364 -0.0383
 7252W        W11316   0.282   1.327   8.704  0.1365 -0.0441 -0.0585
 7253W        W11317   2.746  10.210   0.411 -0.0239  0.3264  0.0288
 7254W        W11318   5.285   8.712  10.963  0.0575 -0.0050  0.0642
 7255W        W11319  10.346   6.798  11.125 -0.3710 -0.1236  0.0304
 7256W        W11320   5.128   0.198   2.205 -0.2406 -0.0459 -0.0330
 7257W        W11321   4.471   9.026  11.381  0.1660  0.2129 -0.1931
 7258W        W11322   6.305   5.866  10.055  0.0410  0.0446  0.0375
 7259W        W11323   3.821   7.353   0.685  0.0317  0.1602 -0.0236
 7260W        W11324   7.080   0.102   0.068  0.3184 -0.2050  0.0759
 7261W        W11325   5.715   1.341   0.737  0.1561 -0.1172 -0.2184
 7262W        W11326   0.974   8.563  10.601  0.2512 -0.3139  0.1472
 7263W        W11327   9.666   4.706   3.088  0.0903 -0.1307 -0.2076
 7264W        W11328   7.492   5.975   0.957  0.2523 -0.1257 -0.0411
 7265W        W11329  10.192   4.293  10.917  0.0149  0.2437 -0.2201
 7266W        W11330   6.790   2.781  11.408  0.0454 -0.1109  0.1965
 7267W        W11331   7.278   4.672   0.536  0.0337  0.0142  0.0413
 7268W        W11332   0.236   5.454  11.029  0.2370 -0.0851 -0.3837
 7269W        W11333   1.103   9.472   8.105  0.2027 -0.1779  0.1378
 7270W        W11334   0.094   5.546   9.971  0.1166 -0.1250 -0.3663
 7271W        W11335  10.151   6.204   2.879 -0.2935  0.0961 -0.0998
 7272W        W11336   2.887   0.691  10.734  0.2314 -0.0040 -0.0994
 7273W        W11337   3.161   9.541   8.642  0.2808  0.2186  0.0300
 7274W        W11338   6.764   3.086   3.566  0.1055 -0.0658 -0.0239
 7275W        W11339   7.654   7.387   9.369 -0.0713 -0.2238 -0.4170
 7276W        W11340   1.668   7.832  11.241 -0.0353  0.2093 -0.1306
 7277W        W11341   7.476   5.618   2.225  0.0762  0.1373 -0.1443
 7278W        W11342   6.756  10.363   1.970  0.0534 -0.2474 -0.1334
 7279W        W11343   0.550   4.430   2.021 -0.2064  0.1845 -0.2340
 7280W        W11344   6.085   3.266   1.005  0.1818  0.1655  0.3609
 7281W        W11345   2.686   8.163   8.837  0.0142  0.2098  0.0111
 7282W        W11346   3.146   3.854   9.612  0.1083 -0.0132  0.0309
 7283W        W11347   4.787   3.566   1.078 -0.2327  0.0467 -0.1365
 7284W        W11348   3.090   3.929   1.142  0.2847 -0.0351 -0.1390
 7285W        W11349   8.663   6.898   2.174 -0.0933 -0.3717  0.1465
 7286W        W11350   6.692   7.245   9.688 -0.0527  0.2236 -0.0884
 7287W        W11351   8.736   2.418   3.101  0.2327  0.3761 -0.0464
 7288W        W11352   8.608   7.351  10.695 -0.1008  0.3702 -0.0275
 7289W        W11353   2.146   1.161   3.285 -0.3112 -0.2455  0.0841
 7290W        W11354  10.547   8.350   1.909 -0.2191 -0.0924  0.1510
 7291W        W11355   7.089   9.899  10.590  0.1836  0.1407 -0.2765
 7292W        W11356   1.654   6.352  10.840  0.3258 -0.2341 -0.3850
 7293W        W11357   3.987  10.308   1.816 -0.1610  0.3309  0.0251
 7294W        W11358   0.453   4.599   2.524 -0.3500  0.0537 -0.1522
 7295W        W11359   2.090   1.388   9.138 -0.1322  0.0472 -0.0927
 7296W        W11360   1.273   3.592   9.867  0.2050 -0.0200 -0.2370
 7297W        W11361   1.170   4.756   8.652 -0.1098  0.1067  0.5379
 7298W        W11362   8.997   8.591   9.827  0.0210 -0.1651 -0.2052
 7299W        W11363   1.325   5.598   1.388  0.0052 -0.2254 -0.2012
 7300W        W11364  10.090   6.837   3.387  0.1394  0.1352  0.2937
 7301W        W11365   0.987   7.089   0.795 -0.2774 -0.0251  0.3136
 7302W        W11366   5.861   0.370   3.657 -0.0266  0.2296 -0.0614
 7303W        W11367   8.844   5.925   1.061 -0.1690  0.3120  0.0524
 7304W        W11368   2.055   8.113   8.479 -0.2721 -0.0677 -0.2738
 7305W        W11369   7.917   1.191   3.343 -0.1859  0.1624  0.0532
 7306W        W11370   1.484   6.961   1.873  0.2026  0.1393 -0.0592
 7307W        W11371   8.059   2.158   1.791 -0.0133 -0.3726 -0.1620
 7308W        W11372   8.837   6.561  10.064  0.1036  0.0747 -0.0286
 7309W        W11373   0.523  10.201   3.952 -0.2921  0.0954  0.1002
 7310W        W11374   3.740  10.265   9.894 -0.2570  0.3564 -0.4161
 7311W        W11375   3.062   0.803   0.411 -0.3853 -0.0895 -0.1751
 7312W        W11376   7.317   4.100  11.065 -0.0610 -0.1748 -0.3446
 7313ION    NA+11377   3.776   5.981   2.514  0.3112 -0.0230 -0.2145
 7314ION    NA+11378   0.210   0.279   3.844  0.0341  0.1717  0.3639
 7315ION    NA+11379   8.524   4.116   8.718 -0.2197  0.0312  0.2845
 7316ION    NA+11380   6.445   7.527   8.788  0.1499 -0.0488  0.0446
 7317ION    NA+11381   7.215   8.133   8.917 -0.0392  0.1619  0.0758
 7318ION    NA+11382   1.471   6.029   8.701  0.1620 -0.0396  0.0216
 7319ION    NA+11383   1.644   1.747  10.000  0.3006  0.2834 -0.2022
 7320ION    NA+11384   7.433  10.576   3.545  0.0758 -0.1535 -0.2047
 7321ION    NA+11385   1.124   3.017   3.640 -0.2319 -0.2002  0.0738
 7322ION    NA+11386   9.737   6.916   1.843 -0.2635 -0.0178  0.0253
 7323ION    NA+11387   9.238   8.881   9.016 -0.1758  0.3621 -0.0386
 7324ION    NA+11388   1.483   6.097   9.756 -0.0111  0.0855 -0.0781
 7325ION    NA+11389   6.888  10.490   0.961  0.0362  0.0658 -0.2279
 7326ION    NA+11390   7.686   0.461  10.430 -0.0841  0.1279  0.0356
 7327ION    NA+11391   7.286   8.686  10.835 -0.2429  0.1863 -0.1061
 7328ION    NA+11392   4.777   0.518   0.476  0.2079 -0.0686  0.0200
 7329ION    NA+11393   5.840   8.251   3.736 -0.3606  0.0334 -0.0874
 7330ION    NA+11394   1.877   5.830   0.869 -0.1632  0.0565 -0.3690
 7331ION    NA+11395   6.246   8.896   9.279  0.0138  0.1119  0.2194
 7332ION    NA+11396   2.609   1.219   7.757 -0.0834 -0.3305  0.1070
 7333ION    NA+11397   6.948   9.939   2.636  0.1107 -0.0487 -0.2391
 7334ION    NA+11398  10.674   0.568   9.830  0.0459  0.0328 -0.1744
 7335ION    NA+11399   2.217   8.230   2.668 -0.0285  0.0471  0.1020
 7336ION    NA+11400   1.629   1.271   3.990 -0.0085 -0.0855 -0.0313
 7337ION    NA+11401   0.972   0.442   0.571 -0.0782  0.2266 -0.1800
 7338ION    NA+11402   9.423   4.854   2.672 -0.0417  0.1556 -0.0176
 7339ION    NA+11403   4.080   0.926   2.073 -0.1681 -0.1314  0.2341
 7340ION    NA+11404   2.854   5.475   3.918 -0.3122 -0.2450  0.0178
 7341ION    NA+11405   6.455   7.573   3.611  0.0681  0.1200 -0.1063
 7342ION    NA+11406   5.630   4.342   2.240 -0.0335  0.3727  0.0553
 7343ION    NA+11407   6.106   5.241   8.250 -0.1110 -0.0026 -0.0865
 7344ION    NA+11408   6.669   9.253   8.362  0.1853 -0.0088  0.1068
 7345ION    NA+11409   2.116   6.197   1.686  0.0414  0.1080  0.0348
 7346ION    NA+11410   1.831   9.330   9.152 -0.2100  0.1560  0.0460
 7347ION    NA+11411   5.346   1.197   7.540  0.1044  0.0064 -0.0302
 7348ION    NA+11412   5.139   8.960   2.736 -0.1238 -0.1382  0.0732
 7349ION    NA+11413   6.256   0.613   7.688 -0.0627  0.0708  0.0106
 7350ION    NA+11414   2.352   7.825  10.433 -0.2333  0.1022 -0.1075
 7351ION    NA+11415   5.463   8.316   9.045  0.1067  0.0445 -0.0908
 7352ION    NA+11416   9.857   0.444   3.130  0.2083  0.1504  0.0503
 7353ION    NA+11417  10.691   1.478   8.300  0.1457 -0.0215 -0.1988
 7354ION    NA+11418   1.420   2.277   0.848 -0.1103  0.1364  0.2020
 7355ION    NA+11419   8.719   2.453   8.345 -0.1024 -0.3546  0.0536
 7356ION    NA+11420   4.555   3.163   1.341  0.1951  0.0140  0.0519
 7357ION    NA+11421   0.014   9.661   0.592 -0.2609  0.2084  0.1235
 7358ION    NA+11422   1.909   3.643   3.325  0.0290 -0.0489  0.0035
 7359ION    NA+11423   7.009   4.094   9.530  0.4833 -0.0289  0.1863
 7360ION    NA+11424   9.273   5.193   1.028 -0.0024  0.0623 -0.1990
 7361ION    NA+11425  10.290   6.101   0.820  0.0846  0.0429  0.0373
 7362ION    NA+11426   7.528   2.165   9.154  0.0269  0.3794 -0.0716
 7363ION    NA+11427   1.888   8.015   3.264  0.1761 -0.0339 -0.2925
 7364ION    NA+11428   5.639   2.898  10.448 -0.0350 -0.1776 -0.1120
 7365ION    NA+11429   9.245   2.849   1.775 -0.0566  0.1501  0.1471
 7366ION    NA+11430   4.416   7.208  11.219 -0.3386 -0.2202 -0.1142
 7367ION    NA+11431   2.912   6.860   2.395 -0.1132  0.1094 -0.0437
 7368ION    NA+11432   9.645   6.427   8.163 -0.0973 -0.0891  0.1471
 7369ION    NA+11433   0.162   6.426  11.262 -0.2176  0.3421 -0.4622
 7370ION    NA+11434   6.548   0.102   9.160 -0.2653  0.3308  0.1951
 7371ION    NA+11435   1.358   6.625  10.576  0.1872 -0.0343 -0.2166
 7372ION    NA+11436   8.828   9.534   9.640  0.0541 -0.0426  0.0481
 7373ION    NA+11437   0.420   0.123  10.414  0.0222 -0.0712  0.1801
 7374ION    NA+11438   7.651   2.814   3.352 -0.1741  0.1106 -0.3406
 7375ION    NA+11439   0.092   6.109   3.925  0.1609  0.1794  0.3183
 7376ION    NA+11440   3.494   4.133   9.876  0.3342  0.1201  0.0466
 7377ION    NA+11441   0.457   3.133   9.788  0.0471  0.1386 -0.0111
 7378ION    NA+11442   8.144   9.743   9.338 -0.1459 -0.2645  0.0207
 7379ION    NA+11443   9.326   9.461   8.456 -0.1162  0.1197 -0.2075
 7380ION    NA+11444   4.418   5.935   9.340  0.0810  0.0898  0.2450
 7381ION    NA+11445  10.548   9.449   1.754 -0.2335 -0.0105 -0.2546
 7382ION    NA+11446   0.831   3.842  11.030 -0.0769  0.1315 -0.3750
 7383ION    NA+11447   0.877   4.102   7.982  0.0257  0.0115 -0.0355
 7384ION    NA+11448   5.662   0.406   4.080  0.0420  0.2514 -0.1086
 7385ION    NA+11449   4.375   6.286   3.845  0.2283  0.0033 -0.2391
 7386ION    NA+11450   1.560  10.532   8.642 -0.0191 -0.2393 -0.1555
 7387ION    NA+11451   0.113   7.466   8.034  0.3327  0.0240  0.3818
 7388ION    NA+11452  10.665   9.050   2.943 -0.3300  0.0706  0.4096
 7389ION    NA+11453   2.719   6.312   1.599 -0.0423 -0.0368 -0.0314
 7390ION    CL-11454   2.582   1.578   3.063  0.2931  0.0007 -0.1884
 7391ION    CL-11455   9.856   8.847   1.167  0.5306 -0.1422 -0.1902
 7392ION    CL-11456   7.945   7.692   8.647 -0.1384  0.2387 -0.1612
 7393ION    CL-11457   8.652   9.767   9.216  0.1190  0.1430  0.4084
 7394ION    CL-11458   5.789   8.680   9.174 -0.0827 -0.4544  0.0219
 7395ION    CL-11459   3.379   9.329   8.126 -0.2427 -0.2416  0.0399
 7396ION    CL-11460   2.416   7.768   2.674  0.2295  0.0816  0.2990
 7397ION    CL-11461   2.068   8.440   3.135  0.1443 -0.2671  0.1450
 7398ION    CL-11462   9.383   8.916   8.523 -0.0051 -0.2082 -0.1527
 7399ION    CL-11463   7.934  10.217   8.494  0.0770  0.0821 -0.0183
 7400ION    CL-11464   5.511   0.570   9.745 -0.1997 -0.0301 -0.0344
 7401ION    CL-11465   9.824  10.628   3.319 -0.0539 -0.0505  0.1271
 7402ION    CL-11466   4.790   7.107   0.286 -0.3063  0.1378  0.0483
 7403ION    CL-11467   5.187   7.429   3.301 -0.0312 -0.2783  0.2289
 7404ION    CL-11468   4.372   2.766   1.998 -0.0217 -0.0267 -0.3143
 7405ION    CL-11469   4.911   6.163  10.063  0.3593  0.2036  0.0210
 7406ION    CL-11470   8.874   4.878   0.788 -0.1287 -0.3789 -0.1167
 7407ION    CL-11471   1.595  10.069   8.484  0.0259 -0.1940  0.1631
 7408ION    CL-11472   4.825   4.930   3.417 -0.0038  0.1130 -0.0619
 7409ION    CL-11473   8.514   6.387  11.303  0.3018  0.1919 -0.0739
 7410ION    CL-11474   9.747   8.972   9.119  0.0488 -0.0515  0.2059
 7411ION    CL-11475   1.407   4.805   2.506 -0.2970 -0.0532  0.0525
 7412ION    CL-11476   1.610   8.994   8.777 -0.0954 -0.3169  0.1388
 7413ION    CL-11477   6.794   7.970   8.655 -0.0881 -0.0968  0.3368
 7414ION    CL-11478   9.534   8.598   2.519  0.1305  0.1434 -0.0844
 7415ION    CL-11479   6.851   8.928   8.797  0.2234 -0.0161  0.0621
 7416ION    CL-11480   7.201  10.122   3.088  0.2317  0.0555 -0.0433
 7417ION    CL-11481   0.764   1.268   0.479 -0.1098 -0.1975 -0.0711
 7418ION    CL-11482   8.134   0.255  10.404  0.1723 -0.1419 -0.1646
 7419ION    CL-11483   6.772   0.992   9.388 -0.1182  0.2049  0.1837
 7420ION    CL-11484   3.766   6.636   8.374 -0.3365  0.4375  0.0791
 7421ION    CL-11485   4.651   0.125   2.938  0.0129  0.0560 -0.1591
 7422ION    CL-11486   7.402   9.272  10.005  0.1556 -0.1065 -0.3137
 7423ION    CL-11487   3.266   1.101   9.090 -0.2750  0.0335  0.4000
 7424ION    CL-11488   6.639   4.419   9.316 -0.0395 -0.0273  0.0473
 7425ION    CL-11489   7.496   2.322   9.632 -0.0371  0.0552 -0.1744
 7426ION    CL-11490   9.029   9.583   0.778  0.2198  0.1113 -0.1915
 7427ION    CL-11491   9.088   5.234   0.517 -0.2300 -0.2015 -0.1690
 7428ION    CL-11492   9.363   3.241   2.043 -0.1248 -0.0664  0.2025
 7429ION    CL-11493   7.018   9.322   8.037  0.2005  0.1064  0.0114
 7430ION    CL-11494  10.126   2.468   1.412  0.3301 -0.2031  0.4290
 7431ION    CL-11495   0.246   9.118   3.336  0.1484  0.0759  0.0063
 7432ION    CL-11496   2.620   5.651   8.206  0.0744 -0.1567 -0.0189
 7433ION    CL-11497   8.774   3.676   8.733  0.0622  0.1136  0.3445
 7434ION    CL-11498   8.765   3.051  10.962 -0.0004  0.0268  0.1031
 7435ION    CL-11499   7.053   3.703   0.972  0.0547 -0.1839 -0.0734
 7436ION    CL-11500   0.437   5.803   3.278 -0.2221  0.2853 -0.1772
 7437ION    CL-11501   6.119   2.726  10.455  0.3018  0.0705 -0.3001
 7438ION    CL-11502   6.988   5.297   8.386  0.0883  0.0228  0.0719
 7439ION    CL-11503   8.961   9.915   9.932 -0.1657  0.2630 -0.3488
 7440ION    CL-11504   9.203   6.936   3.610 -0.0715 -0.3275  0.1623
 7441ION    CL-11505   8.837   7.669  10.293  0.2766 -0.4052 -0.2798
 7442ION    CL-11506   0.567   3.839   9.318 -0.3049 -0.1579  0.0024
 7443ION    CL-11507   2.237   5.822   1.386 -0.1622 -0.1966  0.1752
 7444ION    CL-11508   4.889  10.403   8.371 -0.2363 -0.0833  0.3294
 7445ION    CL-11509  10.192   6.693   1.176 -0.0158 -0.4372 -0.0804
 7446ION    CL-11510   5.208   3.681   3.538 -0.0544  0.0700 -0.2142
 7447ION    CL-11511   5.657   7.912   8.711  0.1563  0.1842  0.1647
 7448ION    CL-11512   0.011   4.678   0.482 -0.2683 -0.0680 -0.3211
 7449ION    CL-11513   1.272   2.113   1.345  0.1097  0.0467  0.1219
 7450ION    CL-11514   1.453   2.152   0.344  0.0570  0.1134  0.2612
 7451ION    CL-11515   1.654   3.010   8.759 -0.3581 -0.1634 -0.1076
 7452ION    CL-11516   0.486   3.997   0.007  0.0317 -0.0358 -0.0205
 7453ION    CL-11517   4.141   7.184  10.839 -0.1389  0.0920  0.0922
 7454ION    CL-11518   0.580   4.177  10.835  0.0959  0.3575 -0.0118
 7455ION    CL-11519   0.395   0.174  10.944  0.1468  0.2416  0.1665
 7456ION    CL-11520  10.120   8.971   3.035  0.2432 -0.2017 -0.3173
 7457ION    CL-11521   2.654   6.618   1.986  0.3407  0.4600  0.1569
 7458ION    CL-11522   3.474   4.632   9.865 -0.0471  0.1159  0.1504
 7459ION    CL-11523   3.270   4.244  10.337 -0.1405 -0.1351 -0.2761
 7460ION    CL-11524   1.753   6.503   0.693 -0.2050 -0.0021 -0.2925
 7461ION    CL-11525   4.101   3.112   1.024 -0.2117  0.0482 -0.0631
 7462ION    CL-11526  10.683   0.237  10.280  0.0650 -0.0451  0.3677
 7463ION    CL-11527   3.562   1.691   9.750  0.1051  0.2571  0.0196
 7464ION    CL-11528   6.565   7.590  11.143 -0.0761  0.0922 -0.0597
 7465ION    CL-11529   9.813   3.155   8.996 -0.3044  0.0921 -0.0819
 7466ION    CL-11530   3.199   4.118   2.829 -0.2541 -0.0604 -0.4727
  10.72079  10.72079  11.41964
