Protein in INSANE! Membrane UpperLeaflet>POPC=1.0 LowerLeaflet>POPC=1.0
11530
    1AU     AUC    1   7.767   9.227   5.876  0.0692  0.0391 -0.0083
    1AU     AUC    2   7.551   9.052   5.975 -0.0281 -0.0732 -0.0802
    1AU     AUC    3   7.775   9.186   6.182 -0.0689 -0.0414 -0.0338
    1AU     AUC    4   7.809   9.333   5.536 -0.0470  0.0935 -0.0351
    1AU     AUC    5   8.034   9.422   5.806  0.0195  0.0276  0.0541
    1AU     AUC    6   8.007   9.132   5.726  0.0494  0.0490  0.0645
    1AU     AUC    7   7.835   8.966   5.963 -0.0060  0.0130 -0.0635
    1AU     AUC    8   7.701   9.559   5.774  0.0075  0.0239  0.0541
    1AU     AUC    9   7.539   9.394   6.062  0.0593  0.0690  0.0311
    1AU     AUC   10   7.872   9.475   6.077  0.0417 -0.0232 -0.0121
    1AU     AUC   11   8.060   9.228   6.046  0.0570 -0.0603 -0.0445
    1AU     AUC   12   7.525   9.278   5.708  0.0071  0.0176 -0.0250
    1AU     AUC   13   7.683   8.985   5.680 -0.0451  0.0000 -0.0357
    1AU     AUC   14   7.288   8.839   6.105  0.0015  0.0769 -0.0264
    1AU     AUC   15   7.480   8.948   6.342 -0.0484 -0.0037 -0.0248
    1AU     AUC   16   7.716   9.132   6.545 -0.0639  0.0580  0.0268
    1AU     AUC   17   7.853   9.415   5.186 -0.0559  0.0616 -0.0290
    1AU     AUC   18   8.091   9.555   5.414  0.0824  0.0086 -0.0444
    1AU     AUC   19   8.288   9.626   5.720  0.0132 -0.0852 -0.0043
    1AU     AUC   20   8.279   8.935   5.559  0.0099  0.0471 -0.0091
    1AU     AUC   21   8.093   8.735   5.801  0.0330 -0.0227 -0.0409
    1AU     AUC   22   7.931   8.619   6.079 -0.0287  0.0278 -0.0973
    1AU     AUC   23   7.614   9.859   5.670  0.0591 -0.0646 -0.0372
    1AU     AUC   24   7.420   9.739   5.880 -0.0504  0.0080  0.0159
    1AU     AUC   25   7.245   9.530   6.183  0.0333  0.0769  0.0180
    1AU     AUC   26   7.908   9.721   6.298  0.1264 -0.0054  0.0708
    1AU     AUC   27   8.174   9.495   6.281 -0.0028  0.0653 -0.0169
    1AU     AUC   28   8.330   9.207   6.203  0.0539  0.0981  0.0542
    1AU     AUC   29   7.224   9.317   5.508 -0.0548 -0.0979  0.0321
    1AU     AUC   30   7.369   9.025   5.479 -0.0508 -0.0697  0.0842
    1AU     AUC   31   7.572   8.745   5.495  0.0459 -0.0238  0.0357
    1AU     AUC   32   7.825   9.436   6.446 -0.0335  0.0057  0.0480
    1AU     AUC   33   8.061   9.207   6.449  0.1258 -0.0671 -0.0062
    1AU     AUC   34   7.209   9.064   5.779 -0.0211 -0.0151 -0.0055
    1AU     AUC   35   7.402   8.755   5.785  0.0481 -0.0222  0.0150
    1AU     AUC   36   8.142   9.714   6.024 -0.0577 -0.0111  0.0130
    1AU     AUC   37   8.367   9.417   5.966  0.0760 -0.0147  0.0673
    1AU     AUC   38   7.566   9.394   5.323  0.0047 -0.0377 -0.0778
    1AU     AUC   39   7.737   9.083   5.303 -0.0591  0.1243  0.0083
    1AU     AUC   40   7.602   8.727   6.153 -0.0554 -0.0310 -0.0458
    1AU     AUC   41   7.837   8.871   6.341  0.0404 -0.0513  0.0423
    1AU     AUC   42   8.064   9.164   5.353  0.2055 -0.0268  0.0415
    1AU     AUC   43   8.313   9.259   5.638  0.0808 -0.0473  0.0356
    1AU     AUC   44   7.254   9.201   6.146 -0.0370  0.0662  0.0178
    1AU     AUC   45   7.460   9.301   6.370  0.0043  0.0889 -0.0410
    1AU     AUC   46   7.802   9.662   5.426  0.0828 -0.1249  0.1311
    1AU     AUC   47   7.987   9.785   5.696 -0.0331  0.0269  0.0400
    1AU     AUC   48   8.349   9.015   5.896  0.0445 -0.0189 -0.0288
    1AU     AUC   49   8.150   8.908   6.131  0.0372  0.0157 -0.0094
    1AU     AUC   50   7.769   9.806   5.982  0.0141  0.0599  0.0645
    1AU     AUC   51   7.554   9.654   6.267  0.0011 -0.0218  0.0088
    1AU     AUC   52   7.922   8.873   5.497  0.0234 -0.0302 -0.0740
    1AU     AUC   53   7.743   8.645   5.794 -0.0063  0.0224 -0.0013
    1AU     AUC   54   7.422   9.659   5.508  0.0558 -0.0065  0.0536
    1AU     AUC   55   7.216   9.434   5.806 -0.0365 -0.1263 -0.0767
    1AU    AUSL   56   7.902   9.348   6.796 -0.0436 -0.0631 -0.0172
    1AU    AUSL   57   7.682   9.722   6.675 -0.0321  0.0999 -0.0092
    1AU     AUL   58   7.672   9.507   7.005 -0.0856  0.0158  0.0069
    1AU       S   59   7.382   9.910   6.981  0.4214  0.1807  0.3689
    1AU     LIG   60   7.654  10.132   7.085 -0.1689 -0.3747 -0.1712
    1AU     LIG   61   7.829  10.586   7.057 -0.1683 -0.2861 -0.4387
    1AU       S   62   8.099   9.666   7.010  0.4460 -0.0653  0.0276
    1AU     LIG   63   8.403   9.505   7.395 -0.1356 -0.0929 -0.0276
    1AU     LIG   64   8.821   9.601   7.601 -0.0663 -0.4289  0.3532
    1AU    AUSL   65   8.087   9.684   6.512  0.0295  0.0525  0.0509
    1AU    AUSL   66   8.429   9.469   6.273  0.1742 -0.0967  0.0051
    1AU     AUL   67   8.558   9.720   6.586  0.0359  0.0113  0.0133
    1AU       S   68   8.139   9.804   6.742  0.0254  0.2583  0.3958
    1AU     LIG   69   7.988  10.215   6.649 -0.2063 -0.0623  0.2471
    1AU     LIG   70   7.652  10.536   6.510  0.1311  0.2153 -0.2659
    1AU       S   71   8.741  10.287   6.208  0.2637 -0.1372 -0.0466
    1AU     LIG   72   9.126  10.306   6.061 -0.0913 -0.4215 -0.2417
    1AU     LIG   73   9.535  10.151   6.213 -0.0650  0.2154  0.0195
    1AU    AUSL   74   8.311   9.333   6.677 -0.0112 -0.0083 -0.0611
    1AU    AUSL   75   8.094   8.964   6.681 -0.0410 -0.0305 -0.0209
    1AU     AUL   76   8.080   9.127   6.967 -0.0049 -0.0599  0.0027
    1AU       S   77   8.491   9.386   6.910  0.1552  0.1115  0.0009
    1AU     LIG   78   8.896   9.406   6.681 -0.0729  0.3476  0.0419
    1AU     LIG   79   9.110   9.220   6.408  0.0696  0.0307  0.0999
    1AU       S   80   8.429   8.859   6.821  0.1480  0.1232 -0.5000
    1AU     LIG   81   8.165   8.421   7.075 -0.2651  0.0719  0.0638
    1AU     LIG   82   8.274   8.104   7.419  0.2853 -0.1325 -0.4884
    1AU    AUSL   83   7.025   8.665   5.779 -0.0792  0.0117  0.0273
    1AU    AUSL   84   7.390   8.334   5.718 -0.0170  0.0348 -0.0569
    1AU     AUL   85   6.979   8.323   5.655  0.0473  0.0312  0.0713
    1AU       S   86   6.709   8.660   5.406 -0.2018  0.0725 -0.2893
    1AU     LIG   87   6.463   8.395   5.725  0.2149 -0.0452  0.0403
    1AU     LIG   88   6.526   8.000   5.908 -0.2441 -0.0289  0.0922
    1AU       S   89   7.275   8.084   5.880  0.1586  0.2035 -0.0051
    1AU     LIG   90   7.519   7.731   5.945  0.0801  0.0541  0.2388
    1AU     LIG   91   7.711   7.498   6.292  0.2211 -0.2480  0.0645
    1AU    AUSL   92   7.047   8.990   5.505 -0.0632 -0.0407 -0.0653
    1AU    AUSL   93   7.091   9.044   5.980 -0.0250 -0.0045  0.0585
    1AU     AUL   94   6.799   8.863   5.814 -0.0111  0.0003 -0.0013
    1AU       S   95   6.421   9.210   5.946  0.0743 -0.0837 -0.0846
    1AU     LIG   96   6.363   9.189   6.396  0.0071 -0.1346 -0.0249
    1AU     LIG   97   6.454   9.417   6.800  0.0314 -0.0798  0.0956
    1AU       S   98   6.702   9.017   5.346 -0.1220 -0.0787 -0.1720
    1AU     LIG   99   6.587   9.071   4.866  0.2360  0.1520 -0.6314
    1AU     LIG  100   6.589   9.316   4.514  0.0051  0.3397 -0.0710
    1AU    AUSL  101   7.299   8.649   5.435  0.0567  0.0360 -0.0925
    1AU    AUSL  102   7.151   9.216   5.181 -0.1410  0.0366 -0.0115
    1AU     AUL  103   7.097   8.797   5.134 -0.0739 -0.0142 -0.1306
    1AU       S  104   7.103   9.151   4.779  0.0851  0.1325 -0.5185
    1AU     LIG  105   6.733   9.458   5.128 -0.1886  0.1515  0.2512
    1AU     LIG  106   6.436   9.721   5.400  0.0456  0.2195 -0.0534
    1AU       S  107   6.554   8.834   5.418  0.2949 -0.2829  0.0471
    1AU     LIG  108   6.128   8.883   5.653 -0.0580  0.1666  0.2883
    1AU     LIG  109   5.850   8.951   5.995  0.2196  0.1340  0.0993
    1AU    AUSL  110   8.582   9.732   5.959  0.0590  0.0003 -0.0374
    1AU    AUSL  111   8.662   9.196   6.057  0.0944  0.0815  0.0272
    1AU     AUL  112   8.791   9.482   6.222  0.0413 -0.0416 -0.1222
    1AU       S  113   8.825   9.925   6.200 -0.2307 -0.0300 -0.0077
    1AU     LIG  114   9.088   9.879   6.530 -0.2763 -0.1150 -0.3130
    1AU     LIG  115   9.524   9.895   6.673 -0.2607  0.1496 -0.3299
    1AU       S  116   9.012   9.211   5.835  0.0092 -0.1148  0.1081
    1AU     LIG  117   9.365   9.106   5.966  0.4214  0.0442  0.1990
    1AU     LIG  118   9.599   8.694   5.894 -0.1783 -0.3452 -0.1603
    1AU    AUSL  119   8.339   9.896   6.251 -0.0163 -0.1072 -0.0406
    1AU    AUSL  120   8.179   9.880   5.851 -0.1665  0.0416 -0.0488
    1AU     AUL  121   8.496  10.010   5.875 -0.1070 -0.0860 -0.0113
    1AU       S  122   8.252  10.412   5.987  0.0483  0.0758  0.1061
    1AU     LIG  123   8.443  10.818   5.777 -0.0881 -0.5585  0.2004
    1AU     LIG  124   8.547  10.840   5.358  0.1113  0.1879  0.1495
    1AU       S  125   8.465  10.102   6.320 -0.0692 -0.2447 -0.6782
    1AU     LIG  126   8.721  10.265   6.701  0.3413  0.0648  0.1645
    1AU     LIG  127   8.959  10.360   7.049  0.1628  0.0735 -0.1502
    1AU    AUSL  128   7.538   9.299   4.994  0.0182  0.0743 -0.0334
    1AU    AUSL  129   7.388   9.512   5.358  0.1332 -0.0560 -0.0366
    1AU     AUL  130   7.211   9.559   5.004  0.0722  0.0144  0.0223
    1AU       S  131   7.381   9.293   4.667 -0.1177 -0.0239 -0.0738
    1AU     LIG  132   7.674   9.407   4.421 -0.2698 -0.0369 -0.1868
    1AU     LIG  133   7.798   9.238   4.060  0.0123  0.0929  0.1504
    1AU       S  134   7.426   9.819   4.692 -0.2036 -0.5071  0.2237
    1AU     LIG  135   7.509   9.858   4.322 -0.2298 -0.1012  0.1330
    1AU     LIG  136   7.477  10.259   4.129 -0.1867 -0.2278 -0.3782
    1AU    AUSL  137   7.521   8.961   5.278 -0.0493  0.0350 -0.0373
    1AU    AUSL  138   7.921   9.079   5.057 -0.0207 -0.0013 -0.0107
    1AU     AUL  139   7.534   8.959   4.921 -0.0095 -0.1518 -0.0749
    1AU       S  140   7.948   9.036   4.736 -0.1672  0.1825  0.0282
    1AU     LIG  141   8.212   9.122   4.503 -0.0323  0.0751  0.2599
    1AU     LIG  142   8.525   8.773   4.243 -0.1751  0.2218 -0.2368
    1AU       S  143   7.063   9.206   4.614 -0.2418  0.3415 -0.2765
    1AU     LIG  144   6.912   9.705   4.595  0.1822 -0.0134  0.0902
    1AU     LIG  145   7.089  10.122   4.351  0.1786 -0.0826 -0.0795
    1AU    AUSL  146   7.808   8.462   6.402  0.1034  0.0580  0.0085
    1AU    AUSL  147   7.324   8.597   6.064 -0.0860 -0.0028  0.0574
    1AU     AUL  148   7.530   8.231   6.274  0.0104 -0.0848 -0.0105
    1AU       S  149   7.115   8.343   6.107  0.3960 -0.0382  0.2200
    1AU     LIG  150   6.734   8.521   6.164 -0.0241 -0.3110 -0.2617
    1AU     LIG  151   6.396   8.754   6.093  0.1424  0.4700  0.0087
    1AU       S  152   7.689   8.494   6.930  0.1222  0.1641  0.1824
    1AU     LIG  153   7.756   8.119   7.044 -0.0179  0.1153 -0.1644
    1AU     LIG  154   8.049   7.846   7.088 -0.0480 -0.0765 -0.2463
    1AU    AUSL  155   7.402   8.625   6.480 -0.0512 -0.0859  0.0196
    1AU    AUSL  156   7.316   9.024   6.683  0.0017 -0.0147  0.0024
    1AU     AUL  157   7.213   8.732   6.794 -0.0090 -0.0136 -0.0918
    1AU       S  158   7.510   8.391   6.723 -0.1448  0.0254 -0.2718
    1AU     LIG  159   7.291   8.124   6.815  0.3749 -0.0858 -0.2998
    1AU     LIG  160   7.269   7.726   7.070 -0.0933  0.1587  0.1835
    1AU       S  161   6.857   9.078   6.830 -0.0381 -0.2649 -0.0529
    1AU     LIG  162   6.664   9.024   7.176 -0.1121  0.0165 -0.2429
    1AU     LIG  163   6.603   8.901   7.639 -0.0090 -0.0807 -0.1506
    1AU    AUSL  164   7.713   8.874   6.620  0.1219  0.1512  0.0040
    1AU    AUSL  165   8.051   8.802   6.302 -0.0743  0.0785 -0.0114
    1AU     AUL  166   8.042   8.612   6.655  0.0721 -0.0019  0.0660
    1AU       S  167   8.733   8.832   6.816 -0.4837 -0.0050 -0.1659
    1AU     LIG  168   9.094   8.957   6.913  0.0789 -0.1510  0.1010
    1AU     LIG  169   9.470   9.111   6.876  0.1094  0.0318  0.0511
    1AU       S  170   7.688   8.777   6.909 -0.0564 -0.0855  0.1091
    1AU     LIG  171   7.591   9.088   7.236  0.3428  0.1787 -0.3815
    1AU     LIG  172   7.904   9.311   7.449 -0.2044  0.2516  0.0668
    1AU    AUSL  173   8.394   9.145   5.360 -0.0115 -0.0833  0.0307
    1AU    AUSL  174   8.624   9.398   5.676  0.0831 -0.0412  0.0833
    1AU     AUL  175   8.722   9.319   5.339 -0.0196  0.0538  0.0284
    1AU       S  176   8.967   9.450   5.776 -0.1175 -0.0569  0.2085
    1AU     LIG  177   9.280   9.576   6.069 -0.3299  0.3513 -0.1598
    1AU     LIG  178   9.557   9.412   6.394 -0.0649 -0.0896 -0.2930
    1AU       S  179   8.695   8.859   5.248 -0.1281  0.1755  0.1748
    1AU     LIG  180   8.678   8.510   5.255  0.0108 -0.1425 -0.0759
    1AU     LIG  181   9.044   8.197   5.131  0.3772 -0.2305 -0.2957
    1AU    AUSL  182   8.184   9.406   5.064  0.0552 -0.0794 -0.0070
    1AU    AUSL  183   8.224   8.807   5.176  0.0122 -0.0154  0.0254
    1AU     AUL  184   8.370   9.117   4.979  0.0896  0.0011 -0.1197
    1AU       S  185   8.071   9.518   4.768 -0.3061 -0.2293  0.5067
    1AU     LIG  186   8.132   9.588   4.357  0.1447  0.1512 -0.0788
    1AU     LIG  187   7.965  10.019   4.180  0.0903  0.2645  0.1153
    1AU       S  188   8.236   8.637   4.897  0.1012  0.0456  0.3977
    1AU     LIG  189   8.698   8.790   4.728  0.1244  0.0319  0.1511
    1AU     LIG  190   8.891   9.157   4.417  0.1158  0.1766  0.0718
    1AU    AUSL  191   8.311   9.560   5.456 -0.0330 -0.0431 -0.0739
    1AU    AUSL  192   8.094   9.807   5.128  0.1557 -0.0479  0.0254
    1AU     AUL  193   8.447   9.604   5.121 -0.0320  0.1007 -0.0020
    1AU       S  194   8.334  10.049   4.994 -0.1210 -0.2596  0.0160
    1AU     LIG  195   8.495   9.822   4.601 -0.4534 -0.0701 -0.2553
    1AU     LIG  196   8.544   9.435   4.613  0.1198 -0.2990  0.0003
    1AU       S  197   8.717   9.776   5.458 -0.0005 -0.1654 -0.1711
    1AU     LIG  198   9.072   9.930   5.660  0.1342  0.2598 -0.3128
    1AU     LIG  199   9.339   9.715   5.566  0.1566 -0.2010  0.1808
    1AU    AUSL  200   7.155   9.284   6.394 -0.0059 -0.0339 -0.0004
    1AU    AUSL  201   7.572   9.335   6.549 -0.0992 -0.0697  0.0535
    1AU     AUL  202   7.341   9.263   6.803 -0.0037 -0.0478  0.0685
    1AU       S  203   6.932   9.325   6.659 -0.1870 -0.0794  0.1470
    1AU     LIG  204   6.799   9.745   6.525  0.2881  0.2581  0.0378
    1AU     LIG  205   6.679   9.989   6.302 -0.7160 -0.1301 -0.3092
    1AU       S  206   7.236   9.675   7.050  0.4289 -0.1260  0.1556
    1AU     LIG  207   7.381   9.541   7.449  0.0674 -0.0578 -0.5100
    1AU     LIG  208   7.640   9.670   7.829 -0.1024 -0.0299 -0.1188
    1AU    AUSL  209   7.068   8.867   6.347  0.1274 -0.0771 -0.1085
    1AU    AUSL  210   6.885   9.486   6.124 -0.0516  0.0006 -0.1262
    1AU     AUL  211   6.818   9.120   6.237  0.0361  0.1011 -0.0663
    1AU       S  212   6.838   9.027   6.682 -0.0202  0.5369 -0.0880
    1AU     LIG  213   6.749   8.615   6.706  0.0002  0.0350  0.1821
    1AU     LIG  214   6.911   8.308   6.546  0.1241 -0.0242  0.2958
    1AU       S  215   6.526   9.496   6.106  0.2944  0.1384 -0.0182
    1AU     LIG  216   6.312   9.709   6.386  0.1810  0.1529 -0.1953
    1AU     LIG  217   6.185  10.187   6.523  0.1442  0.0001  0.3368
    1AU    AUSL  218   7.823   9.910   5.493  0.0551 -0.0663  0.0704
    1AU    AUSL  219   7.716   9.662   5.122 -0.0601 -0.0364 -0.0473
    1AU     AUL  220   7.862  10.038   5.145  0.0704 -0.0608 -0.0671
    1AU       S  221   7.632   9.749   4.857 -0.2467  0.0897 -0.2104
    1AU     LIG  222   7.931   9.973   4.672  0.2387  0.1702 -0.0919
    1AU     LIG  223   8.063  10.441   4.730 -0.2574  0.1549  0.0337
    1AU       S  224   8.375  10.245   5.029  0.2213  0.1865 -0.1961
    1AU     LIG  225   8.120  10.556   5.225 -0.0222  0.3593 -0.2004
    1AU     LIG  226   8.014  10.974   5.433 -0.2905 -0.0872  0.3720
    1AU    AUSL  227   8.292   9.974   5.466  0.0279  0.1260  0.0405
    1AU    AUSL  228   7.886  10.192   5.797  0.0637 -0.0229  0.0548
    1AU     AUL  229   8.095  10.171   5.523  0.0125 -0.0406 -0.0088
    1AU       S  230   8.022  10.454   5.902  0.2279  0.1259  0.1472
    1AU     LIG  231   7.852  10.863   5.976 -0.1191  0.0136 -0.0688
    1AU     LIG  232   8.086  11.314   5.957 -0.2062 -0.2172 -0.1238
    1AU       S  233   8.406  10.111   5.182  0.1665  0.0123 -0.0989
    1AU     LIG  234   8.670  10.288   5.420  0.0160  0.2197  0.4325
    1AU     LIG  235   8.778  10.480   5.749 -0.0265  0.0135  0.0847
    1AU    AUSL  236   8.470   8.804   6.072  0.0359 -0.0207 -0.0224
    1AU    AUSL  237   8.617   8.972   5.693 -0.0542  0.0178 -0.0025
    1AU     AUL  238   8.803   8.900   6.138  0.0835  0.0606  0.0155
    1AU       S  239   8.884   8.985   5.674  0.2654  0.0932  0.1477
    1AU     LIG  240   9.239   8.767   5.519  0.1239  0.0616  0.5269
    1AU     LIG  241   9.470   8.400   5.352 -0.1619  0.3416 -0.0917
    1AU       S  242   8.667   8.405   6.049 -0.3769  0.1041 -0.0216
    1AU     LIG  243   8.969   8.427   5.788 -0.2340  0.2283 -0.1090
    1AU     LIG  244   9.361   8.118   5.725  0.3404 -0.0077 -0.0790
    1AU    AUSL  245   8.440   8.591   5.689  0.0664  0.1131 -0.0900
    1AU    AUSL  246   8.050   8.331   5.748  0.0447  0.0491  0.0236
    1AU     AUL  247   8.411   8.216   5.607  0.0462  0.0125  0.0323
    1AU       S  248   8.602   8.202   6.119 -0.0488  0.0896 -0.0063
    1AU     LIG  249   8.507   7.807   5.880 -0.3397 -0.0959 -0.0490
    1AU     LIG  250   8.137   7.560   5.981 -0.2792 -0.0170  0.0317
    1AU       S  251   7.932   8.058   5.420  0.2277 -0.0584 -0.1725
    1AU     LIG  252   8.206   7.744   5.349 -0.1489 -0.1814 -0.1412
    1AU     LIG  253   8.522   7.497   5.508  0.0902  0.3611 -0.1239
    1AU    AUSL  254   8.203   8.480   6.094  0.0053  0.0300 -0.0423
    1AU    AUSL  255   8.416   9.057   6.401  0.0680 -0.0285 -0.0566
    1AU     AUL  256   8.397   8.646   6.399  0.1396  0.0623  0.0185
    1AU       S  257   8.667   8.978   6.593  0.3216  0.0562 -0.2063
    1AU     LIG  258   9.013   8.580   6.472  0.1927  0.0351 -0.1894
    1AU     LIG  259   9.292   8.426   6.182 -0.0182 -0.0781 -0.0982
    1AU       S  260   8.382   8.315   6.079  0.0479  0.0475 -0.1183
    1AU     LIG  261   7.945   8.011   6.215 -0.3203 -0.0770 -0.1172
    1AU     LIG  262   7.704   7.901   6.588  0.1768 -0.3420 -0.1253
    1AU    AUSL  263   7.608   9.833   6.268  0.0118 -0.0766 -0.0329
    1AU    AUSL  264   7.285   9.649   6.523 -0.1142  0.0179 -0.0023
    1AU     AUL  265   7.461  10.007   6.543  0.0353 -0.0218 -0.0411
    1AU       S  266   7.664  10.603   5.567  0.2571  0.3786 -0.0044
    1AU     LIG  267   7.527  11.062   5.624 -0.1536  0.0939 -0.2396
    1AU     LIG  268   7.505  11.195   6.055 -0.0358 -0.1590 -0.0503
    1AU       S  269   7.167   9.733   6.792 -0.2821 -0.1035 -0.1942
    1AU     LIG  270   6.885  10.071   6.936 -0.1578 -0.0795  0.1805
    1AU     LIG  271   6.515  10.003   6.930  0.3174  0.3937  0.0029
    1AU    AUSL  272   7.538   9.980   5.873 -0.0011  0.0755  0.0363
    1AU    AUSL  273   7.959  10.049   6.209 -0.0604  0.1197 -0.0192
    1AU     AUL  274   7.651  10.236   6.140 -0.0201 -0.0122 -0.0463
    1AU       S  275   7.459  10.387   5.666 -0.2143 -0.0922 -0.0388
    1AU     LIG  276   7.290  10.660   6.009 -0.1903  0.1755  0.0491
    1AU     LIG  277   7.028  10.828   6.260 -0.0129  0.1173 -0.1547
    1AU       S  278   8.093  10.535   6.220  0.1060  0.1180 -0.0571
    1AU     LIG  279   8.288  10.847   6.338 -0.2132  0.0412  0.1006
    1AU     LIG  280   8.458  11.265   6.406  0.0866  0.0865 -0.0847
    1AU    AUSL  281   7.188   9.895   6.175 -0.0173  0.0547  0.0145
    1AU    AUSL  282   7.195   9.989   5.660 -0.0276 -0.0855  0.0020
    1AU     AUL  283   7.207  10.153   5.972  0.0355  0.0244 -0.1271
    1AU       S  284   7.014  10.324   5.525 -0.1225  0.1011  0.1305
    1AU     LIG  285   6.631  10.126   5.724 -0.1776 -0.0373  0.2537
    1AU     LIG  286   6.299   9.915   5.925 -0.3999  0.1185 -0.1429
    1AU       S  287   7.534  10.382   5.455  0.3106  0.0595  0.2624
    1AU     LIG  288   7.604  10.477   5.030  0.0291  0.2749  0.0744
    1AU     LIG  289   7.566  10.328   4.632  0.1439 -0.1053 -0.0306
    1AU    AUSL  290   7.718   8.528   5.532  0.0193 -0.0602  0.0311
    1AU    AUSL  291   7.737   8.528   5.984 -0.0276  0.0123  0.0304
    1AU     AUL  292   7.729   8.205   5.841  0.0599 -0.0457 -0.0382
    1AU       S  293   7.686   8.243   5.356 -0.3154  0.2884 -0.0232
    1AU     LIG  294   7.419   8.365   4.987 -0.0377  0.0204 -0.0606
    1AU     LIG  295   7.192   8.099   4.643 -0.0524 -0.1930 -0.1484
    1AU       S  296   7.007   8.078   6.085  0.0737  0.0874 -0.0072
    1AU     LIG  297   6.953   7.656   6.006 -0.0154 -0.0201  0.3566
    1AU     LIG  298   6.611   7.441   6.010 -0.1256  0.1766  0.0033
    1AU    AUSL  299   8.091   8.749   5.570  0.0147 -0.0101  0.0659
    1AU    AUSL  300   7.791   8.662   5.141 -0.1043  0.0079  0.0727
    1AU     AUL  301   8.083   8.495   5.303  0.0173 -0.0812  0.0255
    1AU       S  302   7.726   7.988   5.302 -0.0801  0.1131  0.0305
    1AU     LIG  303   7.771   7.614   5.566 -0.1776  0.0257  0.2465
    1AU     LIG  304   7.769   7.244   5.792  0.1092 -0.3755 -0.4420
    1AU       S  305   7.865   8.604   4.865 -0.2402  0.0271 -0.4913
    1AU     LIG  306   7.945   8.238   4.845 -0.2889 -0.2686 -0.0375
    1AU     LIG  307   8.121   7.914   4.852 -0.1058  0.2919  0.1612
    1AU    AUSL  308   7.014   9.640   5.480  0.0721  0.0954  0.0408
    1AU    AUSL  309   7.443   9.945   5.310 -0.0541  0.0488 -0.0466
    1AU     AUL  310   7.068   9.914   5.314  0.0284 -0.0402  0.0086
    1AU       S  311   7.394  10.025   4.986 -0.1310  0.5743  0.3294
    1AU     LIG  312   7.002  10.128   4.829  0.0572  0.0777 -0.1279
    1AU     LIG  313   6.618  10.131   5.161 -0.2745 -0.2844 -0.2968
    1AU       S  314   6.864  10.531   5.460  0.1235  0.2624 -0.1355
    1AU     LIG  315   6.989  10.953   5.728  0.4513  0.1682  0.0412
    1AU     LIG  316   7.052  11.362   5.700  0.0272  0.2199  0.2429
    1AU    AUSL  317   7.215   9.601   5.883  0.0198  0.0127  0.0138
    1AU    AUSL  318   6.884   9.329   5.729 -0.0967  0.0367  0.0393
    1AU     AUL  319   6.835   9.711   5.791  0.0272 -0.0728  0.0531
    1AU       S  320   7.063  10.452   5.230  0.3127  0.0075 -0.2722
    1AU     LIG  321   7.260  10.777   5.276  0.1898 -0.3259  0.2834
    1AU     LIG  322   7.111  11.128   5.286 -0.1061 -0.0491  0.3216
    1AU       S  323   6.586   9.320   5.764  0.0349  0.3696 -0.1116
    1AU     LIG  324   6.244   9.326   5.459 -0.0204  0.3581 -0.0793
    1AU     LIG  325   5.927   9.406   5.157 -0.3165 -0.1426  0.2120
    2POPC   NC3  326   4.503   9.264   8.474 -0.0157 -0.1758 -0.2782
    2POPC   PO4  327   4.132   9.272   8.080  0.0197 -0.3427  0.0501
    2POPC   GL1  328   3.985   9.071   7.785 -0.0047  0.1782 -0.1940
    2POPC   GL2  329   3.707   9.277   7.697  0.0502  0.0347 -0.2549
    2POPC   C1A  330   4.108   8.788   7.418 -0.0199 -0.0382 -0.0441
    2POPC   D2A  331   4.049   8.594   7.062 -0.5432  0.0881  0.1559
    2POPC   C3A  332   4.198   8.213   7.041 -0.1179 -0.1424 -0.1117
    2POPC   C4A  333   4.692   8.091   6.964  0.0985  0.0556  0.3092
    2POPC   C1B  334   3.609   9.417   7.239 -0.0051  0.0002  0.2121
    2POPC   C2B  335   3.671   9.423   6.749  0.0774  0.1712  0.1662
    2POPC   C3B  336   3.812   9.227   6.373 -0.2895 -0.1635  0.3718
    2POPC   C4B  337   3.551   9.073   6.183 -0.0177  0.0297  0.4754
    3POPC   NC3  338   4.971   4.109   7.314 -0.0943  0.0870  0.1870
    3POPC   PO4  339   5.323   4.477   7.356 -0.0334  0.1025  0.1288
    3POPC   GL1  340   5.319   4.384   6.979  0.1183  0.1140 -0.2377
    3POPC   GL2  341   5.326   4.043   6.963 -0.0960 -0.0710  0.1877
    3POPC   C1A  342   5.306   4.392   6.606  0.2411  0.4543  0.0853
    3POPC   D2A  343   5.236   4.406   6.225 -0.0889  0.3065 -0.0316
    3POPC   C3A  344   5.338   4.107   5.968  0.2557  0.0471  0.2736
    3POPC   C4A  345   5.075   4.016   5.723 -0.0483 -0.1752  0.1180
    3POPC   C1B  346   5.030   3.783   6.744  0.4538 -0.2430  0.1179
    3POPC   C2B  347   4.717   3.457   6.632  0.3473 -0.0424  0.2686
    3POPC   C3B  348   4.618   3.144   6.300  0.1190 -0.1297 -0.2377
    3POPC   C4B  349   4.310   2.883   6.443 -0.0129  0.2180  0.1769
    4POPC   NC3  350   1.847   8.503   8.112 -0.3097 -0.2379  0.3299
    4POPC   PO4  351   1.488   8.461   7.980  0.1024  0.1153  0.1362
    4POPC   GL1  352   1.613   8.556   7.615  0.0845  0.0665 -0.1872
    4POPC   GL2  353   1.827   8.415   7.476 -0.0314  0.0743 -0.4405
    4POPC   C1A  354   1.656   8.747   7.196  0.2021 -0.5518  0.2553
    4POPC   D2A  355   1.486   8.931   6.730 -0.1447  0.0558 -0.0870
    4POPC   C3A  356   1.772   9.368   6.629  0.1720  0.3397 -0.4458
    4POPC   C4A  357   2.099   9.685   6.554  0.0740  0.0261  0.0806
    4POPC   C1B  358   1.933   8.353   7.088 -0.0283  0.0812  0.1815
    4POPC   C2B  359   1.769   8.436   6.657  0.0165  0.1445  0.1960
    4POPC   C3B  360   1.536   8.652   6.343  0.2449 -0.1009 -0.0506
    4POPC   C4B  361   1.314   8.634   5.991  0.1933 -0.1200 -0.0961
    5POPC   NC3  362   6.958   2.168   7.610  0.0303 -0.3272  0.0637
    5POPC   PO4  363   7.163   2.467   7.410  0.0062 -0.1845 -0.1164
    5POPC   GL1  364   7.080   2.138   7.079 -0.1981  0.1064 -0.1861
    5POPC   GL2  365   7.290   1.891   7.123 -0.2224 -0.2675  0.0478
    5POPC   C1A  366   6.680   2.010   6.777 -0.2419  0.0382 -0.0501
    5POPC   D2A  367   6.369   1.968   6.817  0.0364  0.1062  0.2969
    5POPC   C3A  368   6.307   1.984   6.382 -0.0005  0.0099  0.0066
    5POPC   C4A  369   6.110   1.944   5.920 -0.2301  0.0829  0.0025
    5POPC   C1B  370   7.173   1.912   6.659 -0.1733 -0.0588 -0.0342
    5POPC   C2B  371   7.222   1.602   6.434  0.0271 -0.6472  0.0923
    5POPC   C3B  372   7.327   1.313   6.114  0.2268  0.0478 -0.1159
    5POPC   C4B  373   7.478   0.968   5.769  0.0750  0.3625 -0.1911
    6POPC   NC3  374   3.998   6.665   7.820 -0.2749 -0.0548 -0.0287
    6POPC   PO4  375   4.344   6.283   7.755  0.0739  0.0234  0.2236
    6POPC   GL1  376   4.119   6.217   7.402 -0.1890  0.1964  0.3735
    6POPC   GL2  377   3.848   6.339   7.461  0.2326 -0.1410  0.0854
    6POPC   C1A  378   4.112   6.097   6.955 -0.0960  0.1229 -0.1946
    6POPC   D2A  379   4.201   6.166   6.485  0.3415  0.0046 -0.1655
    6POPC   C3A  380   4.114   6.580   6.303  0.3401  0.2432 -0.0270
    6POPC   C4A  381   3.803   6.512   6.096  0.0331  0.1396  0.2121
    6POPC   C1B  382   3.736   6.436   7.033 -0.0945  0.0535  0.0782
    6POPC   C2B  383   3.715   6.224   6.637  0.0625  0.0893  0.1123
    6POPC   C3B  384   3.576   6.101   6.339  0.0327  0.1098  0.3324
    6POPC   C4B  385   3.452   5.712   6.014  0.0666 -0.2853  0.0246
    7POPC   NC3  386   5.036   4.131   7.823 -0.0622  0.0625 -0.1509
    7POPC   PO4  387   5.014   4.519   7.826  0.0116 -0.1518  0.0152
    7POPC   GL1  388   4.847   4.762   7.479  0.0646 -0.2371 -0.1209
    7POPC   GL2  389   4.873   4.550   7.231  0.2981 -0.1195  0.0936
    7POPC   C1A  390   4.707   5.042   7.074 -0.2365 -0.2342  0.0631
    7POPC   D2A  391   4.662   5.126   6.549  0.1319 -0.0305 -0.3186
    7POPC   C3A  392   4.252   5.280   6.306 -0.1624 -0.1046 -0.1004
    7POPC   C4A  393   3.776   5.311   6.225  0.3781  0.0498 -0.2521
    7POPC   C1B  394   4.952   4.745   6.764  0.0399  0.1447  0.0496
    7POPC   C2B  395   5.082   4.907   6.371  0.2243 -0.1050  0.3189
    7POPC   C3B  396   5.203   4.828   6.015  0.1890  0.3868 -0.2283
    7POPC   C4B  397   5.018   4.586   5.714  0.2742 -0.5305  0.1846
    8POPC   NC3  398  10.576   6.789   8.095 -0.0751 -0.1419  0.2099
    8POPC   PO4  399  10.569   6.340   7.904  0.1342 -0.0713  0.0418
    8POPC   GL1  400  10.713   6.261   7.413 -0.4239  0.1022  0.0892
    8POPC   GL2  401  10.734   5.957   7.225  0.3863 -0.2090 -0.1629
    8POPC   C1A  402  10.804   6.398   6.919 -0.1196  0.1077 -0.0035
    8POPC   D2A  403  10.671   6.601   6.520 -0.1637 -0.1679  0.0927
    8POPC   C3A  404  10.811   6.553   6.108  0.0581 -0.1801 -0.2074
    8POPC   C4A  405  11.232   6.708   5.873  0.0812 -0.2397 -0.0962
    8POPC   C1B  406  10.611   5.971   6.775  0.0851 -0.2730 -0.3785
    8POPC   C2B  407  10.968   6.217   6.451  0.0848  0.3141 -0.0278
    8POPC   C3B  408  11.386   6.263   6.200  0.1446 -0.1204 -0.0218
    8POPC   C4B  409  11.571   6.328   5.807  0.2186 -0.3203 -0.3232
    9POPC   NC3  410   4.346   5.593   8.528  0.0756  0.0136 -0.2558
    9POPC   PO4  411   4.224   5.446   8.144  0.1110 -0.4564 -0.0430
    9POPC   GL1  412   4.372   5.337   7.813  0.0696  0.0088  0.0997
    9POPC   GL2  413   4.394   4.988   7.722  0.0149 -0.3271  0.2702
    9POPC   C1A  414   4.420   5.578   7.417  0.2311 -0.0762 -0.0988
    9POPC   D2A  415   4.649   5.702   7.083 -0.1497  0.2653 -0.0927
    9POPC   C3A  416   4.525   5.649   6.714 -0.3979  0.1038 -0.2837
    9POPC   C4A  417   4.581   5.788   6.306  0.2634 -0.1722  0.1072
    9POPC   C1B  418   4.768   5.285   7.530  0.0989 -0.0572 -0.4525
    9POPC   C2B  419   4.992   5.390   7.213  0.3767  0.0877 -0.3805
    9POPC   C3B  420   5.067   5.698   6.868 -0.1351  0.1000  0.1498
    9POPC   C4B  421   5.048   6.040   7.092 -0.3135 -0.0512  0.2345
   10POPC   NC3  422   3.293   0.302   8.124  0.0326 -0.1689  0.0994
   10POPC   PO4  423   3.452  -0.080   7.924  0.0730 -0.0623 -0.0780
   10POPC   GL1  424   3.709  -0.046   7.617 -0.3859 -0.0675 -0.2734
   10POPC   GL2  425   3.635   0.284   7.507  0.0934 -0.1189  0.2058
   10POPC   C1A  426   3.872  -0.127   7.290 -0.0791 -0.0361  0.4205
   10POPC   D2A  427   3.612  -0.030   7.040  0.0405  0.1955 -0.3863
   10POPC   C3A  428   3.772   0.103   6.687  0.0446  0.4885  0.0072
   10POPC   C4A  429   3.985   0.346   6.617  0.4009  0.0614  0.0918
   10POPC   C1B  430   3.587   0.430   7.060  0.0564  0.0189  0.0773
   10POPC   C2B  431   3.561   0.639   6.692  0.3051  0.1306  0.1418
   10POPC   C3B  432   3.447   0.719   6.325  0.1535  0.3634 -0.0099
   10POPC   C4B  433   3.159   0.865   5.933 -0.3048  0.1320  0.1542
   11POPC   NC3  434   1.610  10.416   8.116 -0.2062  0.0752  0.2522
   11POPC   PO4  435   1.928  10.739   7.945  0.2600 -0.0619 -0.4648
   11POPC   GL1  436   1.942  10.789   7.503 -0.3296 -0.1460 -0.0122
   11POPC   GL2  437   2.202  10.956   7.233  0.1040 -0.1786 -0.0283
   11POPC   C1A  438   1.852  10.627   7.085 -0.0282  0.2411  0.0712
   11POPC   D2A  439   1.754  10.313   6.658 -0.3490 -0.0550 -0.3483
   11POPC   C3A  440   1.940  10.558   6.389 -0.2568  0.2937 -0.3139
   11POPC   C4A  441   1.993  10.730   5.992 -0.0651  0.0910  0.0129
   11POPC   C1B  442   2.183  10.883   6.851  0.1076  0.0562  0.0542
   11POPC   C2B  443   2.423  10.566   6.615  0.2095  0.1975 -0.4045
   11POPC   C3B  444   2.840  10.363   6.574 -0.1345  0.0121 -0.2110
   11POPC   C4B  445   2.829  10.261   6.076  0.0193  0.2323  0.0540
   12POPC   NC3  446   0.611   5.793   7.767 -0.1148 -0.2090 -0.0565
   12POPC   PO4  447   1.002   6.070   7.832 -0.3324 -0.0095  0.0252
   12POPC   GL1  448   1.116   5.939   7.461  0.0546  0.1013  0.1009
   12POPC   GL2  449   0.998   6.260   7.338  0.0477  0.0129  0.0770
   12POPC   C1A  450   0.886   5.717   7.087  0.0394  0.0506  0.2684
   12POPC   D2A  451   0.575   5.505   6.780  0.1474  0.1708 -0.0105
   12POPC   C3A  452   0.369   5.671   6.406  0.1677  0.2331  0.0053
   12POPC   C4A  453   0.615   5.446   6.060 -0.1337 -0.1254  0.1445
   12POPC   C1B  454   1.213   6.139   6.970 -0.0406 -0.0763 -0.0092
   12POPC   C2B  455   1.317   5.748   6.642  0.0219 -0.0209 -0.4033
   12POPC   C3B  456   1.444   5.713   6.257 -0.0580  0.4268  0.0386
   12POPC   C4B  457   1.493   5.846   5.924  0.1541 -0.1136 -0.3114
   13POPC   NC3  458   4.725   6.263   8.117 -0.0375  0.1639 -0.2578
   13POPC   PO4  459   5.072   6.164   7.829  0.0156 -0.1208  0.1963
   13POPC   GL1  460   4.840   6.307   7.416 -0.2576  0.2118 -0.0349
   13POPC   GL2  461   5.008   6.545   7.276 -0.1157  0.0497  0.2014
   13POPC   C1A  462   4.618   6.334   7.052  0.1461 -0.0151 -0.0052
   13POPC   D2A  463   4.631   6.159   6.707  0.0445  0.2842 -0.1412
   13POPC   C3A  464   5.024   6.077   6.537  0.1140 -0.0985 -0.1134
   13POPC   C4A  465   5.345   6.105   6.629 -0.2215 -0.1068  0.3739
   13POPC   C1B  466   4.980   6.504   6.781 -0.1120 -0.0331  0.1735
   13POPC   C2B  467   4.962   6.780   6.428 -0.0871  0.1920  0.5637
   13POPC   C3B  468   5.078   6.402   6.086  0.2306 -0.2076 -0.0817
   13POPC   C4B  469   4.783   6.204   5.776 -0.1639  0.0892 -0.2484
   14POPC   NC3  470   7.437   1.236   8.161  0.0973 -0.0225 -0.0351
   14POPC   PO4  471   7.220   0.707   8.137  0.1741  0.3027  0.3062
   14POPC   GL1  472   7.278   0.692   7.775  0.0161 -0.4333  0.1307
   14POPC   GL2  473   7.660   0.942   7.788  0.1480 -0.1393  0.1533
   14POPC   C1A  474   7.538   0.637   7.367  0.1484  0.0766  0.0490
   14POPC   D2A  475   7.495   0.487   7.008  0.0562 -0.0894 -0.1850
   14POPC   C3A  476   7.794   0.346   6.753  0.3007 -0.2496 -0.2795
   14POPC   C4A  477   7.927   0.450   6.449  0.3041 -0.0895  0.1401
   14POPC   C1B  478   7.752   1.097   7.341 -0.1304  0.2494  0.1265
   14POPC   C2B  479   7.651   0.992   6.899 -0.1520  0.4854  0.1141
   14POPC   C3B  480   7.650   0.880   6.418  0.0384 -0.1018  0.1615
   14POPC   C4B  481   7.872   1.088   6.107 -0.1306  0.2137 -0.1048
   15POPC   NC3  482   9.600   5.966   7.735  0.0744 -0.4331 -0.3267
   15POPC   PO4  483  10.123   6.149   7.791 -0.1021  0.1290  0.3691
   15POPC   GL1  484  10.254   6.137   7.280 -0.1048  0.1321  0.1143
   15POPC   GL2  485  10.217   5.890   7.107 -0.1413 -0.2958  0.0479
   15POPC   C1A  486  10.292   6.340   6.879 -0.0618  0.1014 -0.2093
   15POPC   D2A  487  10.214   6.333   6.482 -0.1405 -0.0840  0.2430
   15POPC   C3A  488  10.525   5.967   6.196 -0.2247 -0.0826 -0.3021
   15POPC   C4A  489  10.963   5.959   6.007 -0.1780  0.1238 -0.1624
   15POPC   C1B  490  10.011   5.821   6.683 -0.5307 -0.2207 -0.1797
   15POPC   C2B  491  10.068   5.871   6.244 -0.0591 -0.1639  0.1351
   15POPC   C3B  492   9.800   5.667   5.886 -0.0954 -0.1571  0.0663
   15POPC   C4B  493   9.449   5.487   5.643  0.2028 -0.1215  0.1507
   16POPC   NC3  494  10.370   3.715   8.014  0.2622  0.1228  0.1629
   16POPC   PO4  495  10.718   3.920   7.787 -0.2838 -0.1330  0.3140
   16POPC   GL1  496  10.736   3.973   7.366 -0.0086 -0.0297 -0.5012
   16POPC   GL2  497  10.799   3.533   7.343  0.1009 -0.1896 -0.0000
   16POPC   C1A  498  10.806   3.990   6.919 -0.1000 -0.1032  0.3722
   16POPC   D2A  499  10.726   4.064   6.404 -0.0222 -0.0172 -0.0569
   16POPC   C3A  500  11.155   4.027   6.142 -0.1399  0.1301 -0.0621
   16POPC   C4A  501  11.510   3.774   6.283  0.0791 -0.0540  0.0952
   16POPC   C1B  502  10.993   3.536   7.017 -0.2659 -0.3117  0.0912
   16POPC   C2B  503  11.202   3.254   6.794  0.4412  0.0220  0.0348
   16POPC   C3B  504  11.529   3.068   6.631  0.1928  0.0974 -0.1408
   16POPC   C4B  505  11.647   2.723   6.510  0.1442 -0.2221 -0.0420
   17POPC   NC3  506   8.979   3.288   7.620  0.0908 -0.2390 -0.0749
   17POPC   PO4  507   9.090   3.683   7.426  0.0476 -0.1610  0.0981
   17POPC   GL1  508   8.941   3.493   7.111 -0.1358  0.3653  0.1037
   17POPC   GL2  509   8.773   3.749   6.876 -0.2381 -0.1582  0.0081
   17POPC   C1A  510   9.205   3.315   6.750  0.1473  0.1775 -0.1982
   17POPC   D2A  511   9.653   3.431   6.622  0.2860  0.1878 -0.0149
   17POPC   C3A  512   9.780   3.517   6.227  0.1256  0.1198  0.2037
   17POPC   C4A  513   9.739   3.559   5.764  0.0110 -0.0078 -0.4464
   17POPC   C1B  514   8.893   3.666   6.492 -0.0566 -0.0027 -0.2849
   17POPC   C2B  515   9.203   3.478   6.207 -0.0358 -0.3030 -0.0573
   17POPC   C3B  516   9.290   3.316   5.861 -0.2281  0.0716  0.0669
   17POPC   C4B  517   9.290   3.510   5.458  0.0445 -0.1648 -0.1693
   18POPC   NC3  518   2.309   0.909   8.249 -0.0363  0.0608 -0.0484
   18POPC   PO4  519   2.230   1.015   7.800 -0.1749 -0.0154 -0.2225
   18POPC   GL1  520   2.060   0.958   7.488  0.3046  0.1227  0.0100
   18POPC   GL2  521   1.792   0.734   7.424 -0.2657  0.2451  0.0359
   18POPC   C1A  522   1.927   1.216   7.016 -0.1571  0.1522  0.1113
   18POPC   D2A  523   1.680   1.159   6.588  0.0167  0.1295  0.1235
   18POPC   C3A  524   1.872   1.139   6.227 -0.1698 -0.2674  0.1390
   18POPC   C4A  525   1.901   1.345   5.728 -0.0608  0.0741  0.0226
   18POPC   C1B  526   2.013   0.696   7.053  0.0742  0.0472 -0.1347
   18POPC   C2B  527   2.078   0.829   6.630 -0.3021 -0.2656  0.1544
   18POPC   C3B  528   2.467   0.837   6.279 -0.0292  0.0683 -0.2443
   18POPC   C4B  529   2.712   1.013   5.954 -0.0839 -0.1832  0.0840
   19POPC   NC3  530   8.095   2.699   8.348 -0.1844 -0.2332 -0.1048
   19POPC   PO4  531   8.367   2.528   7.895 -0.0468  0.0279 -0.0729
   19POPC   GL1  532   8.584   2.420   7.558  0.0409  0.1699  0.0769
   19POPC   GL2  533   8.465   2.622   7.418 -0.0644  0.0245  0.1579
   19POPC   C1A  534   8.866   2.448   7.114 -0.2003  0.0044 -0.1851
   19POPC   D2A  535   8.805   2.359   6.759  0.0275 -0.1394  0.0664
   19POPC   C3A  536   8.384   2.302   6.580 -0.1205  0.0967 -0.1310
   19POPC   C4A  537   8.193   2.084   6.243 -0.0234  0.0713 -0.0700
   19POPC   C1B  538   8.741   2.924   7.221  0.2333 -0.0336  0.2597
   19POPC   C2B  539   8.943   2.931   6.903  0.1393  0.0080  0.1878
   19POPC   C3B  540   9.152   2.776   6.628 -0.0976  0.0470  0.2666
   19POPC   C4B  541   9.386   2.988   6.297 -0.0683  0.0954  0.3685
   20POPC   NC3  542   2.341   3.306   7.737  0.3436 -0.0995  0.2020
   20POPC   PO4  543   2.022   3.153   7.535 -0.3269  0.0543 -0.5147
   20POPC   GL1  544   1.757   3.092   7.098 -0.2106 -0.0852  0.0294
   20POPC   GL2  545   1.970   2.868   7.065  0.1526 -0.0797  0.0293
   20POPC   C1A  546   1.758   3.316   6.750  0.0211  0.2420  0.1042
   20POPC   D2A  547   1.616   3.492   6.320  0.3149 -0.3522  0.3232
   20POPC   C3A  548   1.958   3.521   6.076  0.2399 -0.2514  0.1314
   20POPC   C4A  549   2.443   3.664   6.012 -0.2110  0.3568 -0.0130
   20POPC   C1B  550   2.093   2.991   6.605  0.0203  0.1842  0.2975
   20POPC   C2B  551   2.336   3.246   6.215  0.0792 -0.0467  0.3204
   20POPC   C3B  552   2.357   3.178   5.790  0.2997 -0.2709 -0.1180
   20POPC   C4B  553   2.099   3.402   5.525  0.0760  0.0843 -0.0985
   21POPC   NC3  554   4.929   0.323   8.131 -0.1591 -0.0414 -0.1382
   21POPC   PO4  555   5.346   0.581   8.085 -0.1127 -0.0227  0.0972
   21POPC   GL1  556   5.397   0.741   7.718 -0.2421  0.0370 -0.0730
   21POPC   GL2  557   5.635   0.537   7.654 -0.2460  0.1281  0.0109
   21POPC   C1A  558   5.310   0.820   7.234  0.1546  0.0696 -0.1033
   21POPC   D2A  559   5.052   0.795   6.832  0.0237 -0.2523 -0.0307
   21POPC   C3A  560   5.345   0.665   6.488 -0.0225  0.3548 -0.0642
   21POPC   C4A  561   5.767   0.673   6.114  0.4480 -0.1582 -0.0864
   21POPC   C1B  562   5.575   0.343   7.267 -0.2556 -0.1453  0.0715
   21POPC   C2B  563   5.348   0.323   6.873  0.0010  0.3134 -0.1937
   21POPC   C3B  564   5.215   0.031   6.691 -0.0207  0.0581 -0.2841
   21POPC   C4B  565   5.136  -0.363   6.712 -0.1721  0.3548  0.0900
   22POPC   NC3  566   8.777   9.292   9.140 -0.0820  0.0173  0.3548
   22POPC   PO4  567   8.539   9.543   8.766 -0.1380  0.2478 -0.0166
   22POPC   GL1  568   8.316   9.638   8.411  0.0968  0.0075  0.1383
   22POPC   GL2  569   8.448   9.536   8.091  0.0868 -0.0155  0.1571
   22POPC   C1A  570   8.088   9.971   8.236  0.1761 -0.3659  0.2915
   22POPC   D2A  571   7.994  10.408   8.175  0.2629  0.2283 -0.0334
   22POPC   C3A  572   7.785  10.612   7.927  0.0527  0.0467  0.1870
   22POPC   C4A  573   7.596  10.548   7.596 -0.1576 -0.0827  0.2699
   22POPC   C1B  574   8.142   9.695   7.773  0.1472  0.0374 -0.1779
   22POPC   C2B  575   7.876   9.803   7.451  0.0931 -0.1268 -0.0962
   22POPC   C3B  576   7.435  10.017   7.555  0.0072 -0.1947  0.0981
   22POPC   C4B  577   7.170  10.207   7.361 -0.3883 -0.0110  0.0384
   23POPC   NC3  578   2.399   0.258   7.694  0.0796 -0.1649 -0.2388
   23POPC   PO4  579   2.580   0.622   7.828  0.1863  0.0743 -0.0349
   23POPC   GL1  580   2.587   0.868   7.409 -0.1844  0.2661  0.2144
   23POPC   GL2  581   2.659   1.212   7.497 -0.0172  0.0064 -0.1191
   23POPC   C1A  582   2.418   1.174   7.015  0.1129  0.2695 -0.2284
   23POPC   D2A  583   2.298   1.268   6.600  0.0663 -0.3679  0.1458
   23POPC   C3A  584   1.973   1.534   6.514  0.2229  0.2001  0.0480
   23POPC   C4A  585   1.827   1.942   6.521  0.0253  0.0190  0.1470
   23POPC   C1B  586   2.940   0.958   7.073  0.0037 -0.1019 -0.1534
   23POPC   C2B  587   3.105   0.580   6.823  0.2351  0.0402 -0.1282
   23POPC   C3B  588   3.235   0.262   6.513 -0.1246 -0.0718  0.0711
   23POPC   C4B  589   3.264  -0.152   6.245 -0.0969 -0.2163 -0.0847
   24POPC   NC3  590   5.585   5.633   7.422 -0.1514  0.0532 -0.0352
   24POPC   PO4  591   6.034   5.784   7.565  0.1522  0.1227 -0.0859
   24POPC   GL1  592   5.884   5.993   7.150 -0.5821 -0.0879 -0.4024
   24POPC   GL2  593   5.545   5.928   7.020 -0.2853  0.2132  0.1324
   24POPC   C1A  594   5.923   6.072   6.700  0.4396 -0.1890 -0.2016
   24POPC   D2A  595   6.298   6.235   6.517  0.1862  0.0189  0.0961
   24POPC   C3A  596   6.583   6.413   6.272 -0.1543  0.2389  0.4024
   24POPC   C4A  597   6.603   6.671   5.859 -0.0707  0.5380  0.4228
   24POPC   C1B  598   5.527   6.376   6.974 -0.0149 -0.0938  0.0693
   24POPC   C2B  599   5.512   6.644   6.624 -0.0736 -0.2936 -0.0166
   24POPC   C3B  600   5.450   6.775   6.210  0.1216  0.0790 -0.0735
   24POPC   C4B  601   5.442   6.805   5.839  0.2678  0.2726 -0.2759
   25POPC   NC3  602   8.195   7.032   8.215 -0.0051  0.1491 -0.2693
   25POPC   PO4  603   8.434   6.750   7.842 -0.0000 -0.0856 -0.0527
   25POPC   GL1  604   8.138   6.986   7.660 -0.0029  0.0049 -0.3172
   25POPC   GL2  605   7.826   7.002   7.731  0.1613  0.1291 -0.1196
   25POPC   C1A  606   8.198   7.219   7.253  0.0575 -0.2473  0.1417
   25POPC   D2A  607   8.338   7.323   6.850 -0.1237  0.1613 -0.0681
   25POPC   C3A  608   8.189   7.688   6.618 -0.1893 -0.0264  0.0278
   25POPC   C4A  609   8.229   8.158   6.600  0.3082  0.1591 -0.0307
   25POPC   C1B  610   7.675   6.954   7.392  0.0916 -0.2188  0.0080
   25POPC   C2B  611   7.882   6.908   7.036 -0.0005  0.1011  0.3283
   25POPC   C3B  612   8.199   6.848   6.707 -0.1729  0.2089 -0.1729
   25POPC   C4B  613   8.455   6.523   6.753 -0.4326  0.0394  0.0596
   26POPC   NC3  614   6.647  10.534   8.997 -0.0411  0.1560  0.1982
   26POPC   PO4  615   6.250  10.317   8.701  0.2349  0.0321  0.0235
   26POPC   GL1  616   6.186  10.078   8.202  0.0969 -0.1139 -0.1555
   26POPC   GL2  617   6.030  10.111   7.836  0.4108 -0.0875 -0.3383
   26POPC   C1A  618   6.320   9.694   7.960  0.0234 -0.3472 -0.0104
   26POPC   D2A  619   6.467   9.409   7.585 -0.2630 -0.0848  0.1515
   26POPC   C3A  620   6.248   9.156   7.382 -0.0071  0.2663  0.1053
   26POPC   C4A  621   6.209   9.006   6.870 -0.0054  0.0638 -0.2732
   26POPC   C1B  622   6.323  10.345   7.642 -0.0037  0.1490 -0.1044
   26POPC   C2B  623   6.594  10.319   7.281 -0.2826  0.1399 -0.0755
   26POPC   C3B  624   6.816  10.568   7.029  0.2116  0.0196  0.1458
   26POPC   C4B  625   6.666  10.430   6.632  0.0474  0.2661 -0.0252
   27POPC   NC3  626   8.686   4.374   7.527 -0.0981 -0.5505 -0.2056
   27POPC   PO4  627   9.104   4.308   7.758 -0.1626  0.1293  0.0308
   27POPC   GL1  628   9.034   4.522   7.241 -0.1152 -0.2221  0.0912
   27POPC   GL2  629   9.001   4.200   7.200 -0.1668  0.0274  0.1370
   27POPC   C1A  630   9.264   4.417   6.888 -0.4275 -0.1034  0.0936
   27POPC   D2A  631   9.183   4.658   6.430 -0.0756 -0.0774  0.1305
   27POPC   C3A  632   8.821   4.964   6.291  0.2077  0.0024  0.0429
   27POPC   C4A  633   8.651   5.090   5.890  0.0534  0.1942  0.2679
   27POPC   C1B  634   8.868   4.212   6.689 -0.3307  0.1499 -0.4506
   27POPC   C2B  635   8.984   4.130   6.186  0.0155  0.1567 -0.1325
   27POPC   C3B  636   9.045   4.260   5.825  0.1032  0.2753 -0.0221
   27POPC   C4B  637   9.349   4.539   5.987 -0.2130 -0.3730  0.1291
   28POPC   NC3  638   9.509   2.389   8.613 -0.0524 -0.0180  0.1772
   28POPC   PO4  639   9.324   2.688   8.244 -0.1783 -0.2214  0.1153
   28POPC   GL1  640   9.443   2.641   7.742  0.0468  0.0325  0.3624
   28POPC   GL2  641   9.282   2.918   7.535  0.1450  0.1072 -0.5529
   28POPC   C1A  642   9.192   2.284   7.517 -0.0012  0.2286 -0.0284
   28POPC   D2A  643   8.920   1.972   7.629  0.0569 -0.0093  0.2393
   28POPC   C3A  644   8.674   2.004   7.252  0.1575  0.1939 -0.1783
   28POPC   C4A  645   8.358   2.302   7.098 -0.3295 -0.0779  0.2890
   28POPC   C1B  646   9.310   2.667   7.226 -0.0861  0.1472  0.0975
   28POPC   C2B  647   9.354   2.491   6.949  0.0558 -0.0718  0.0403
   28POPC   C3B  648   9.335   2.322   6.614  0.2286  0.0280  0.0767
   28POPC   C4B  649   9.179   1.931   6.464 -0.4059 -0.0337  0.1804
   29POPC   NC3  650   6.549   7.875   8.495  0.2334  0.1216 -0.2519
   29POPC   PO4  651   6.407   7.937   8.139 -0.1411  0.0351 -0.2711
   29POPC   GL1  652   6.558   7.774   7.781  0.3090  0.1258  0.1135
   29POPC   GL2  653   6.694   7.454   7.756 -0.1059 -0.1508  0.1349
   29POPC   C1A  654   6.473   7.969   7.385 -0.1283 -0.1317  0.1758
   29POPC   D2A  655   6.746   8.168   7.040  0.0335  0.1996 -0.0373
   29POPC   C3A  656   6.878   7.790   6.780  0.0360 -0.0137  0.0188
   29POPC   C4A  657   6.785   7.442   6.520  0.5216  0.2647  0.0293
   29POPC   C1B  658   6.871   7.491   7.351  0.2294 -0.1897 -0.2014
   29POPC   C2B  659   6.874   7.245   7.010  0.0177 -0.1296  0.0159
   29POPC   C3B  660   7.056   6.952   6.837  0.3395  0.0285 -0.0823
   29POPC   C4B  661   6.930   6.505   6.754  0.0695 -0.2141 -0.0184
   30POPC   NC3  662   0.604   7.561   7.822  0.1170 -0.1084 -0.1440
   30POPC   PO4  663   0.172   7.676   7.582 -0.1751 -0.0182 -0.1673
   30POPC   GL1  664   0.127   7.842   7.197 -0.1427  0.0477 -0.0634
   30POPC   GL2  665   0.320   8.138   7.265  0.2305 -0.0935 -0.0609
   30POPC   C1A  666  -0.035   7.742   6.747  0.0166  0.0006 -0.2261
   30POPC   D2A  667  -0.400   8.051   6.551  0.0571 -0.0521  0.3792
   30POPC   C3A  668  -0.693   7.990   6.214 -0.3203 -0.2817 -0.0572
   30POPC   C4A  669  -0.843   8.294   5.872 -0.0016 -0.0052 -0.2757
   30POPC   C1B  670   0.455   7.924   6.884 -0.2554  0.0525  0.2112
   30POPC   C2B  671   0.336   7.531   6.569  0.1622  0.2755  0.1871
   30POPC   C3B  672   0.473   7.234   6.322 -0.0421  0.0734  0.3770
   30POPC   C4B  673   0.744   7.150   5.949 -0.1848  0.4244 -0.0601
   31POPC   NC3  674   1.543   0.810   7.851 -0.1961  0.2201 -0.0453
   31POPC   PO4  675   1.463   0.388   7.887  0.1063  0.1144  0.3127
   31POPC   GL1  676   1.340   0.443   7.448 -0.1856  0.4257  0.2374
   31POPC   GL2  677   1.539   0.298   7.196  0.0163 -0.1703 -0.1721
   31POPC   C1A  678   1.035   0.627   7.231  0.0226 -0.2651  0.0747
   31POPC   D2A  679   0.935   0.889   6.987 -0.0587  0.0300 -0.0432
   31POPC   C3A  680   0.904   0.846   6.582  0.1001  0.2373 -0.1174
   31POPC   C4A  681   0.711   1.083   6.244  0.1988  0.2117  0.1096
   31POPC   C1B  682   1.724   0.286   6.707  0.0671  0.1538  0.0751
   31POPC   C2B  683   2.060   0.353   6.383 -0.1806 -0.0910 -0.0459
   31POPC   C3B  684   2.503   0.342   6.397 -0.1243  0.2895 -0.2563
   31POPC   C4B  685   2.780   0.086   6.280  0.1370  0.0720 -0.0692
   32POPC   NC3  686   6.145   2.159   7.484 -0.0554  0.0297 -0.0709
   32POPC   PO4  687   6.274   1.819   7.681  0.0330 -0.0672  0.0876
   32POPC   GL1  688   6.325   1.535   7.286 -0.0222  0.0230  0.0097
   32POPC   GL2  689   6.109   1.758   7.166  0.1378 -0.0579  0.1273
   32POPC   C1A  690   6.239   1.305   6.939  0.1754  0.2092  0.0012
   32POPC   D2A  691   6.402   1.175   6.619 -0.1366 -0.1981  0.2101
   32POPC   C3A  692   6.337   1.457   6.380  0.2740  0.1541  0.2665
   32POPC   C4A  693   6.162   1.464   6.011 -0.1317  0.1808  0.0318
   32POPC   C1B  694   5.923   1.679   6.699  0.0903 -0.1324 -0.0641
   32POPC   C2B  695   5.727   1.534   6.428  0.1995 -0.0050  0.3543
   32POPC   C3B  696   5.577   1.273   6.219 -0.0131  0.1246 -0.3886
   32POPC   C4B  697   5.706   1.143   5.827 -0.2678  0.2159  0.0520
   33POPC   NC3  698   8.828   6.918   8.830 -0.2674 -0.1264 -0.1864
   33POPC   PO4  699   8.735   7.421   8.557  0.1028 -0.0460 -0.2337
   33POPC   GL1  700   8.459   7.441   8.091 -0.0416  0.0753  0.1775
   33POPC   GL2  701   8.492   7.310   7.746 -0.3861  0.0210 -0.1688
   33POPC   C1A  702   8.436   7.818   7.856 -0.1061 -0.2358 -0.0038
   33POPC   D2A  703   8.838   7.938   7.600 -0.2604 -0.0081 -0.0092
   33POPC   C3A  704   8.984   7.702   7.267  0.2167  0.0327  0.1012
   33POPC   C4A  705   8.827   7.572   6.883 -0.1175  0.1469 -0.0565
   33POPC   C1B  706   8.719   7.330   7.431  0.3090 -0.0580 -0.1457
   33POPC   C2B  707   9.095   7.221   7.224  0.0581  0.0461 -0.1515
   33POPC   C3B  708   9.258   7.068   6.808  0.0969 -0.0199 -0.1606
   33POPC   C4B  709   9.279   7.040   6.425 -0.0491 -0.0294  0.0771
   34POPC   NC3  710   4.821   3.174   7.835 -0.0786  0.1106 -0.1265
   34POPC   PO4  711   4.709   2.686   7.876 -0.2551 -0.1996 -0.1252
   34POPC   GL1  712   4.599   2.531   7.459 -0.2592 -0.0368 -0.0104
   34POPC   GL2  713   4.694   2.803   7.299 -0.1177 -0.1922 -0.1526
   34POPC   C1A  714   4.827   2.448   6.975  0.0396 -0.0704 -0.0188
   34POPC   D2A  715   4.917   2.150   6.587  0.3387 -0.1618 -0.0590
   34POPC   C3A  716   5.150   2.176   6.234 -0.4352 -0.1427  0.1527
   34POPC   C4A  717   5.494   2.217   5.946  0.0550 -0.0684  0.2359
   34POPC   C1B  718   4.264   2.555   7.105 -0.1777 -0.1530  0.4094
   34POPC   C2B  719   3.970   2.541   6.799 -0.0939 -0.2133 -0.2646
   34POPC   C3B  720   3.890   2.545   6.353  0.1628 -0.0521  0.1138
   34POPC   C4B  721   3.735   3.014   6.197 -0.1030 -0.2198 -0.0878
   35POPC   NC3  722   4.399   1.834   8.364  0.0910  0.0510 -0.2931
   35POPC   PO4  723   4.285   1.398   8.011 -0.0804  0.0684 -0.0299
   35POPC   GL1  724   4.413   1.381   7.607 -0.2508 -0.0431 -0.1026
   35POPC   GL2  725   4.530   1.548   7.484  0.2547 -0.0444  0.1228
   35POPC   C1A  726   4.383   1.158   7.152 -0.0370 -0.0435  0.1359
   35POPC   D2A  727   4.571   1.344   6.867  0.1326 -0.1679  0.3110
   35POPC   C3A  728   4.435   1.160   6.539 -0.1841  0.0394  0.0080
   35POPC   C4A  729   4.118   1.302   6.301  0.1293 -0.1166  0.0261
   35POPC   C1B  730   4.931   1.662   7.425  0.2938 -0.0279  0.0633
   35POPC   C2B  731   5.224   1.879   7.128  0.0036 -0.1001  0.2794
   35POPC   C3B  732   5.610   1.875   6.984 -0.1727  0.1591 -0.2708
   35POPC   C4B  733   5.934   2.181   6.832 -0.4618  0.0714 -0.3951
   36POPC   NC3  734   0.813   6.443   8.101 -0.1331  0.0365  0.0180
   36POPC   PO4  735   0.774   6.646   7.701  0.0918 -0.0460 -0.1942
   36POPC   GL1  736   0.501   6.460   7.376 -0.2328  0.2409  0.0309
   36POPC   GL2  737   0.509   6.127   7.323  0.1608  0.0949  0.2765
   36POPC   C1A  738   0.640   6.511   6.936  0.0874 -0.2072 -0.2968
   36POPC   D2A  739   0.526   6.738   6.533 -0.2178 -0.1968 -0.0833
   36POPC   C3A  740   0.948   6.723   6.217 -0.3199  0.0451  0.0396
   36POPC   C4A  741   1.327   6.541   6.035 -0.1006  0.2500 -0.2183
   36POPC   C1B  742   0.458   6.002   6.907  0.0612  0.1371  0.0522
   36POPC   C2B  743   0.732   5.942   6.632 -0.0652  0.0215 -0.0531
   36POPC   C3B  744   0.875   5.694   6.390  0.0030  0.0665 -0.0109
   36POPC   C4B  745   1.024   5.882   6.014 -0.0360  0.1013  0.1442
   37POPC   NC3  746   2.562   1.841   8.082 -0.2789  0.2982  0.0090
   37POPC   PO4  747   2.496   1.625   7.685  0.1872  0.0963 -0.3181
   37POPC   GL1  748   2.511   1.572   7.242  0.0748  0.0341  0.2152
   37POPC   GL2  749   2.868   1.628   7.197  0.0798 -0.0574 -0.1881
   37POPC   C1A  750   2.603   1.848   6.843  0.1888 -0.0720  0.2457
   37POPC   D2A  751   2.398   1.895   6.538  0.0053 -0.3411  0.1185
   37POPC   C3A  752   2.606   1.911   6.203 -0.3129 -0.1702 -0.4465
   37POPC   C4A  753   2.964   2.071   5.969 -0.3161  0.0227 -0.0553
   37POPC   C1B  754   2.922   1.437   6.765  0.4184 -0.1258 -0.3978
   37POPC   C2B  755   2.690   1.394   6.342 -0.1040 -0.3038  0.1066
   37POPC   C3B  756   2.316   1.347   6.075  0.1335  0.1875  0.1750
   37POPC   C4B  757   2.217   1.021   5.899 -0.0856 -0.0367  0.2557
   38POPC   NC3  758   5.338   1.103   8.038 -0.1875 -0.1868 -0.1627
   38POPC   PO4  759   4.881   0.798   8.008  0.0590 -0.2347 -0.0616
   38POPC   GL1  760   4.792   0.686   7.672 -0.0840  0.1764 -0.1761
   38POPC   GL2  761   4.681   0.963   7.510  0.2904 -0.1129  0.1226
   38POPC   C1A  762   4.648   0.705   7.128 -0.0843 -0.1043  0.3268
   38POPC   D2A  763   4.491   0.629   6.826 -0.1791 -0.0194 -0.0422
   38POPC   C3A  764   4.866   0.546   6.398 -0.0582  0.0726 -0.0074
   38POPC   C4A  765   4.921   0.482   5.933  0.4081  0.1573 -0.2307
   38POPC   C1B  766   4.928   1.202   7.191 -0.0956 -0.0979  0.0709
   38POPC   C2B  767   5.066   1.412   6.891 -0.0430 -0.0848  0.0438
   38POPC   C3B  768   5.196   1.666   6.633 -0.1789  0.1748 -0.0865
   38POPC   C4B  769   5.119   1.632   6.238  0.1589 -0.3322 -0.0116
   39POPC   NC3  770   9.908   0.690   7.877 -0.1044  0.1694  0.1672
   39POPC   PO4  771  10.294   0.456   7.802 -0.2653 -0.1941  0.0229
   39POPC   GL1  772  10.096   0.477   7.401 -0.3211 -0.1612 -0.2398
   39POPC   GL2  773  10.280   0.659   7.189 -0.0603 -0.0894  0.1181
   39POPC   C1A  774   9.767   0.684   7.192 -0.2683 -0.3350  0.1788
   39POPC   D2A  775   9.421   0.716   6.925 -0.0268 -0.1258  0.0004
   39POPC   C3A  776   9.542   0.443   6.503 -0.0627 -0.3381 -0.0554
   39POPC   C4A  777   9.755   0.570   6.178 -0.0084 -0.2769 -0.1860
   39POPC   C1B  778  10.443   0.918   6.762  0.1253  0.0864 -0.1931
   39POPC   C2B  779  10.187   0.946   6.355 -0.0174  0.1589 -0.1075
   39POPC   C3B  780   9.893   1.145   6.026  0.2002  0.1200 -0.1301
   39POPC   C4B  781   9.820   0.902   5.681  0.1766 -0.0418  0.2654
   40POPC   NC3  782   5.976   7.679   8.019 -0.1289  0.0885  0.0965
   40POPC   PO4  783   5.676   7.407   7.685  0.2616  0.0581  0.1545
   40POPC   GL1  784   5.977   7.759   7.465  0.1620 -0.1097 -0.0213
   40POPC   GL2  785   6.293   7.544   7.300  0.1198  0.0783 -0.1110
   40POPC   C1A  786   6.005   7.956   7.118 -0.0599 -0.0785  0.3442
   40POPC   D2A  787   5.851   8.242   6.813  0.1546  0.1415 -0.3666
   40POPC   C3A  788   5.460   8.327   6.466  0.1410  0.2582 -0.3095
   40POPC   C4A  789   5.108   8.581   6.157  0.0377 -0.0581  0.3756
   40POPC   C1B  790   6.462   7.627   6.953 -0.0094 -0.0494  0.0033
   40POPC   C2B  791   6.316   8.083   6.700 -0.0156  0.1440 -0.0997
   40POPC   C3B  792   6.143   8.162   6.263 -0.1644  0.0281  0.0678
   40POPC   C4B  793   6.046   8.460   6.011  0.0656 -0.1351  0.0576
   41POPC   NC3  794   1.305   6.481   7.703  0.1575 -0.0947  0.1206
   41POPC   PO4  795   1.716   6.266   7.807  0.0807 -0.0378 -0.0382
   41POPC   GL1  796   1.870   6.324   7.367 -0.0417 -0.0031 -0.3657
   41POPC   GL2  797   1.659   6.028   7.371  0.0454  0.0502 -0.0881
   41POPC   C1A  798   1.742   6.352   7.010 -0.2272  0.2423  0.1911
   41POPC   D2A  799   1.670   6.121   6.567  0.1939  0.1399  0.1245
   41POPC   C3A  800   2.029   5.868   6.489  0.0353  0.0500 -0.0776
   41POPC   C4A  801   2.290   5.628   6.707 -0.1209 -0.0717  0.0811
   41POPC   C1B  802   1.671   5.771   7.011  0.0357  0.1024  0.0801
   41POPC   C2B  803   1.760   5.509   6.626  0.1281  0.2504 -0.0385
   41POPC   C3B  804   2.070   5.269   6.409 -0.4270  0.1331 -0.0919
   41POPC   C4B  805   2.356   5.275   6.083 -0.2016  0.0846 -0.2152
   42POPC   NC3  806   3.810   8.525   8.042 -0.2244  0.2671 -0.2268
   42POPC   PO4  807   3.555   8.754   7.817  0.1007  0.0148 -0.2025
   42POPC   GL1  808   3.523   8.601   7.456 -0.2135 -0.1958  0.0361
   42POPC   GL2  809   3.565   8.901   7.299 -0.1411  0.0338  0.0297
   42POPC   C1A  810   3.566   8.439   7.001  0.2057 -0.1386 -0.0183
   42POPC   D2A  811   3.892   8.225   6.658 -0.2141 -0.1888  0.0415
   42POPC   C3A  812   3.775   8.204   6.191  0.1934  0.1646  0.2414
   42POPC   C4A  813   3.449   8.240   5.872  0.4163  0.3197  0.0487
   42POPC   C1B  814   3.434   8.971   6.860  0.3040  0.1592 -0.0656
   42POPC   C2B  815   3.213   9.069   6.571 -0.0824 -0.0461  0.0609
   42POPC   C3B  816   3.029   9.200   6.251  0.1018 -0.0307 -0.0035
   42POPC   C4B  817   2.878   9.262   5.802  0.0675 -0.0527 -0.0449
   43POPC   NC3  818   2.932   5.917   7.639 -0.1009  0.0313 -0.0305
   43POPC   PO4  819   3.176   6.258   7.890 -0.4340  0.0835  0.0494
   43POPC   GL1  820   2.943   6.407   7.540  0.2196 -0.0537  0.0715
   43POPC   GL2  821   2.657   6.442   7.530 -0.2389  0.2479 -0.0102
   43POPC   C1A  822   2.815   6.293   7.112  0.2013  0.0434 -0.1888
   43POPC   D2A  823   2.736   6.508   6.786 -0.2834 -0.1959 -0.1167
   43POPC   C3A  824   2.498   6.772   6.572  0.1986  0.0715 -0.0062
   43POPC   C4A  825   2.378   7.150   6.311  0.0863 -0.1779  0.2458
   43POPC   C1B  826   2.336   6.435   7.222 -0.0878  0.1234  0.0316
   43POPC   C2B  827   2.186   6.508   6.846 -0.1338  0.2383  0.2090
   43POPC   C3B  828   2.076   6.409   6.504 -0.1294  0.0313  0.1271
   43POPC   C4B  829   1.773   6.345   6.096  0.3400 -0.2147  0.1266
   44POPC   NC3  830   8.213   9.167   8.795 -0.3574  0.0076  0.1277
   44POPC   PO4  831   7.756   9.164   8.961 -0.5746 -0.1297 -0.3547
   44POPC   GL1  832   7.815   9.101   8.503 -0.2430 -0.0835 -0.1220
   44POPC   GL2  833   7.996   8.890   8.284 -0.0069 -0.4450  0.0650
   44POPC   C1A  834   7.528   9.147   8.171 -0.3047  0.0932 -0.0844
   44POPC   D2A  835   7.439   9.113   7.784  0.0096  0.3098 -0.0931
   44POPC   C3A  836   7.489   8.745   7.581 -0.2081  0.0722  0.2351
   44POPC   C4A  837   7.320   8.412   7.232 -0.3412  0.1444  0.1549
   44POPC   C1B  838   7.662   8.655   8.276  0.0021 -0.2182 -0.1366
   44POPC   C2B  839   7.570   8.375   8.020  0.1087  0.3984  0.3704
   44POPC   C3B  840   7.235   8.231   7.872 -0.1534  0.1467 -0.0905
   44POPC   C4B  841   6.964   8.129   7.545 -0.2552  0.1676 -0.0162
   45POPC   NC3  842   1.708   3.532   7.414  0.0422 -0.7310  0.0515
   45POPC   PO4  843   2.034   3.825   7.549 -0.1228 -0.3847 -0.1364
   45POPC   GL1  844   1.949   3.934   7.135 -0.0717 -0.0616  0.0214
   45POPC   GL2  845   2.134   4.100   7.094 -0.0617  0.1056 -0.3746
   45POPC   C1A  846   2.022   3.811   6.724  0.3674  0.2378 -0.1412
   45POPC   D2A  847   2.239   3.511   6.611 -0.3889  0.2455  0.0272
   45POPC   C3A  848   2.666   3.561   6.501  0.2326  0.2265 -0.1428
   45POPC   C4A  849   2.898   3.503   6.104 -0.0516  0.0943  0.2682
   45POPC   C1B  850   2.208   4.384   6.821  0.1079  0.0981  0.0913
   45POPC   C2B  851   2.284   4.652   6.439  0.0148 -0.0920  0.0703
   45POPC   C3B  852   2.423   4.786   6.031  0.0778 -0.2055  0.2353
   45POPC   C4B  853   2.824   4.865   5.739  0.2994 -0.0391  0.2002
   46POPC   NC3  854   2.611  10.080   8.055  0.3030 -0.4013 -0.1850
   46POPC   PO4  855   2.883   9.765   8.072  0.1264 -0.1194  0.1228
   46POPC   GL1  856   3.173   9.743   7.822 -0.2374  0.0674 -0.1464
   46POPC   GL2  857   3.151   9.471   7.563 -0.1970  0.0375  0.2865
   46POPC   C1A  858   3.534   9.740   7.572 -0.2659 -0.1831 -0.0592
   46POPC   D2A  859   3.870   9.896   7.274 -0.1898  0.0145 -0.0604
   46POPC   C3A  860   4.061   9.697   6.958 -0.0577 -0.0786  0.0625
   46POPC   C4A  861   4.530   9.798   6.769  0.1704  0.2107  0.1925
   46POPC   C1B  862   3.151   9.530   7.133  0.0696 -0.1353 -0.0179
   46POPC   C2B  863   3.027   9.597   6.688  0.2017  0.1372 -0.3050
   46POPC   C3B  864   3.295   9.602   6.401  0.1747  0.0734 -0.0540
   46POPC   C4B  865   3.326   9.490   5.958  0.0788  0.2475  0.1714
   47POPC   NC3  866  10.515   5.876   7.677 -0.0822 -0.0507 -0.0916
   47POPC   PO4  867  10.086   5.728   7.538  0.1893 -0.0827 -0.2241
   47POPC   GL1  868   9.764   5.763   7.187  0.2820 -0.0235 -0.1431
   47POPC   GL2  869   9.825   5.524   7.050  0.1661  0.3226 -0.0892
   47POPC   C1A  870   9.494   5.935   6.803  0.0528  0.1379 -0.5182
   47POPC   D2A  871   9.299   6.325   6.760  0.0525 -0.0161 -0.0477
   47POPC   C3A  872   9.295   6.514   6.310  0.1329 -0.2110 -0.2527
   47POPC   C4A  873   9.008   6.472   6.016 -0.0516  0.1710 -0.0009
   47POPC   C1B  874   9.561   5.433   6.677 -0.0965 -0.0007 -0.1716
   47POPC   C2B  875   9.299   5.200   6.342 -0.0628  0.2676 -0.3066
   47POPC   C3B  876   9.278   5.024   5.933 -0.2103  0.4681  0.2355
   47POPC   C4B  877   9.010   4.769   5.628 -0.0018 -0.0771  0.4168
   48POPC   NC3  878   7.561  10.589   8.863  0.2320  0.2120  0.0724
   48POPC   PO4  879   7.249  10.275   9.066  0.3371 -0.1773  0.2095
   48POPC   GL1  880   7.285  10.093   8.719 -0.0786 -0.1720 -0.0261
   48POPC   GL2  881   7.572  10.055   8.616 -0.1906 -0.1888  0.0090
   48POPC   C1A  882   7.143  10.139   8.317 -0.0384 -0.0546  0.1013
   48POPC   D2A  883   7.216  10.295   7.921 -0.0042  0.0582  0.0538
   48POPC   C3A  884   6.827  10.535   7.703  0.1158  0.0286 -0.1408
   48POPC   C4A  885   6.625  10.857   7.530 -0.1325 -0.1718  0.0139
   48POPC   C1B  886   7.591  10.046   8.166 -0.1876 -0.2565  0.2387
   48POPC   C2B  887   7.887  10.138   7.809 -0.1399  0.0190 -0.2639
   48POPC   C3B  888   8.109  10.463   7.527  0.2442 -0.3468 -0.1410
   48POPC   C4B  889   8.553  10.612   7.269 -0.0855 -0.0472 -0.0066
   49POPC   NC3  890   4.683   7.196   7.848  0.3637  0.1676 -0.0257
   49POPC   PO4  891   4.233   7.202   8.026 -0.2544  0.3147 -0.0116
   49POPC   GL1  892   4.279   7.025   7.555  0.0671 -0.0349 -0.1258
   49POPC   GL2  893   4.416   6.720   7.450  0.3835 -0.3214  0.1168
   49POPC   C1A  894   4.253   7.149   7.134 -0.3876 -0.2108 -0.1606
   49POPC   D2A  895   4.340   7.131   6.660  0.1303 -0.2286  0.1647
   49POPC   C3A  896   4.742   7.273   6.450 -0.0546  0.2251  0.0860
   49POPC   C4A  897   4.848   7.610   6.111  0.0614  0.1795  0.3451
   49POPC   C1B  898   4.146   6.661   7.092  0.3006 -0.0818  0.0548
   49POPC   C2B  899   3.965   6.780   6.723  0.3755  0.1724  0.0850
   49POPC   C3B  900   3.670   6.860   6.492  0.0737 -0.0957 -0.3695
   49POPC   C4B  901   3.319   6.706   6.479  0.2531 -0.1366 -0.0026
   50POPC   NC3  902   5.660   3.460   7.521  0.5562 -0.0029 -0.4149
   50POPC   PO4  903   6.041   3.186   7.632 -0.0853  0.2394  0.1041
   50POPC   GL1  904   5.977   3.116   7.173 -0.0516 -0.4479 -0.2005
   50POPC   GL2  905   6.213   2.984   7.008 -0.0290  0.1358 -0.1805
   50POPC   C1A  906   5.867   3.249   6.727 -0.2303 -0.1067 -0.0012
   50POPC   D2A  907   5.611   3.408   6.437  0.1460  0.0687 -0.5498
   50POPC   C3A  908   5.541   3.465   5.943 -0.0548  0.1028  0.0342
   50POPC   C4A  909   5.265   3.541   5.760 -0.0542  0.2832 -0.2614
   50POPC   C1B  910   6.584   2.931   6.719 -0.0819 -0.0036  0.0666
   50POPC   C2B  911   6.633   3.154   6.362 -0.1999  0.0264  0.0568
   50POPC   C3B  912   6.795   3.326   5.934  0.0691 -0.1985  0.2780
   50POPC   C4B  913   6.846   3.743   5.788 -0.0873  0.3475 -0.0455
   51POPC   NC3  914   0.531   4.205   7.714 -0.0478 -0.0545 -0.3473
   51POPC   PO4  915   0.913   3.908   7.782 -0.1053 -0.1909  0.0426
   51POPC   GL1  916   0.868   3.998   7.399 -0.4095  0.1691 -0.0551
   51POPC   GL2  917   1.178   4.045   7.200  0.0122  0.0875  0.0559
   51POPC   C1A  918   0.643   4.004   7.093  0.0081 -0.1178  0.0992
   51POPC   D2A  919   0.595   3.944   6.742  0.0548  0.0638  0.1596
   51POPC   C3A  920   0.368   3.655   6.506 -0.2291  0.0784  0.3211
   51POPC   C4A  921   0.461   3.352   6.116  0.1869 -0.1109 -0.0736
   51POPC   C1B  922   1.114   4.119   6.818 -0.0526  0.1776 -0.0073
   51POPC   C2B  923   1.116   4.255   6.349 -0.0545 -0.0379  0.2189
   51POPC   C3B  924   1.172   4.016   5.974 -0.3216  0.1770  0.1024
   51POPC   C4B  925   0.880   3.669   5.717 -0.0213  0.0705 -0.0888
   52POPC   NC3  926   3.133   4.384   8.283  0.1740  0.0540  0.0483
   52POPC   PO4  927   3.368   4.024   8.186  0.4349  0.0566  0.1321
   52POPC   GL1  928   3.604   3.898   7.852 -0.1952 -0.0320  0.0754
   52POPC   GL2  929   3.764   4.121   7.778  0.1657  0.2451 -0.0589
   52POPC   C1A  930   3.512   3.887   7.391 -0.2312  0.2980  0.1779
   52POPC   D2A  931   3.156   4.006   7.139  0.2490 -0.1521  0.2403
   52POPC   C3A  932   2.948   3.884   6.798 -0.2307  0.3563 -0.2178
   52POPC   C4A  933   2.487   3.945   6.746 -0.1782  0.1157 -0.1863
   52POPC   C1B  934   3.582   4.439   7.420 -0.0779  0.2708  0.1831
   52POPC   C2B  935   3.468   4.440   6.963  0.0648  0.0902 -0.3550
   52POPC   C3B  936   3.283   4.667   6.570  0.0050  0.1125  0.1079
   52POPC   C4B  937   2.978   4.671   6.227  0.0939 -0.2722 -0.3251
   53POPC   NC3  938   8.024   1.929   8.094  0.1514 -0.2129 -0.3615
   53POPC   PO4  939   7.902   1.852   7.741  0.0966 -0.2502 -0.1178
   53POPC   GL1  940   7.974   1.612   7.437  0.0035 -0.1251 -0.0855
   53POPC   GL2  941   7.820   1.810   7.231 -0.3162  0.2525 -0.1402
   53POPC   C1A  942   8.045   1.346   6.926  0.0278  0.1059 -0.1145
   53POPC   D2A  943   8.114   1.248   6.556  0.0722 -0.3540  0.0444
   53POPC   C3A  944   8.441   1.586   6.367  0.2674 -0.2021  0.3147
   53POPC   C4A  945   8.905   1.502   6.329  0.0071  0.0911  0.0261
   53POPC   C1B  946   7.704   1.830   6.867  0.0280  0.2115 -0.0240
   53POPC   C2B  947   7.638   1.958   6.427  0.0398 -0.1803 -0.1222
   53POPC   C3B  948   7.688   2.073   6.064 -0.2887 -0.1951  0.3958
   53POPC   C4B  949   7.837   2.092   5.655 -0.4277  0.4329  0.0470
   54POPC   NC3  950   9.181   8.394   9.096  0.0784 -0.0084 -0.0014
   54POPC   PO4  951   8.767   8.425   8.912  0.0223  0.0387  0.2279
   54POPC   GL1  952   8.842   8.485   8.534  0.2459 -0.0752  0.3042
   54POPC   GL2  953   8.618   8.295   8.466  0.0751 -0.0458 -0.0874
   54POPC   C1A  954   9.171   8.685   8.312 -0.0438  0.3713 -0.2854
   54POPC   D2A  955   8.914   8.778   7.955 -0.1895 -0.1448  0.2389
   54POPC   C3A  956   9.003   8.945   7.477 -0.2583  0.1153 -0.1724
   54POPC   C4A  957   8.891   9.319   7.193 -0.0655 -0.2181 -0.1004
   54POPC   C1B  958   8.727   8.262   8.040 -0.3697 -0.2274  0.2230
   54POPC   C2B  959   9.010   8.419   7.612 -0.1037  0.2288 -0.0578
   54POPC   C3B  960   9.055   8.483   7.101 -0.3136 -0.1329 -0.2879
   54POPC   C4B  961   9.338   8.517   6.878 -0.2215  0.1813 -0.1103
   55POPC   NC3  962   3.370   3.417   8.004  0.2792  0.0869  0.3900
   55POPC   PO4  963   3.462   2.968   7.973 -0.3131 -0.1237 -0.0766
   55POPC   GL1  964   3.494   3.064   7.590  0.0711  0.0565  0.1582
   55POPC   GL2  965   3.228   3.227   7.370  0.0150  0.2873 -0.0211
   55POPC   C1A  966   3.801   3.120   7.290  0.0881  0.0703  0.1818
   55POPC   D2A  967   3.963   3.016   6.910  0.1789 -0.3632  0.3624
   55POPC   C3A  968   4.144   3.335   6.680 -0.1277 -0.2242  0.1992
   55POPC   C4A  969   4.276   3.413   6.204  0.0972 -0.0922 -0.1179
   55POPC   C1B  970   3.362   3.286   7.000  0.0538  0.1562 -0.0172
   55POPC   C2B  971   3.566   3.545   6.720 -0.3768  0.2507 -0.0643
   55POPC   C3B  972   3.792   3.571   6.233 -0.2405 -0.3069 -0.0694
   55POPC   C4B  973   3.607   3.623   5.825  0.2698 -0.1795  0.3837
   56POPC   NC3  974   3.452   8.739   8.413  0.0839 -0.2611  0.2445
   56POPC   PO4  975   3.305   8.413   8.128  0.0322 -0.0988 -0.0104
   56POPC   GL1  976   3.104   8.525   7.805 -0.1035 -0.1971  0.0984
   56POPC   GL2  977   3.106   8.867   7.676 -0.0651  0.0366  0.0383
   56POPC   C1A  978   3.100   8.511   7.267  0.0212  0.4388  0.1790
   56POPC   D2A  979   3.076   8.653   6.817  0.1119  0.0088 -0.1843
   56POPC   C3A  980   3.091   8.547   6.306  0.0229 -0.0692 -0.2254
   56POPC   C4A  981   3.292   8.745   5.926  0.0903  0.1113  0.3514
   56POPC   C1B  982   3.109   9.052   7.238 -0.1241 -0.0915  0.1202
   56POPC   C2B  983   2.779   9.103   6.937 -0.0199 -0.1915  0.3156
   56POPC   C3B  984   2.659   8.776   6.553  0.1964 -0.2636 -0.0845
   56POPC   C4B  985   2.744   8.799   6.016  0.1030 -0.0914  0.0489
   57POPC   NC3  986   7.536   5.815   7.578 -0.0874 -0.0322 -0.1686
   57POPC   PO4  987   7.737   5.434   7.678 -0.1453  0.0551  0.1182
   57POPC   GL1  988   7.883   5.578   7.244 -0.1858  0.1008  0.2539
   57POPC   GL2  989   7.899   5.875   7.188 -0.0055 -0.2241  0.1117
   57POPC   C1A  990   8.132   5.498   6.806  0.1229  0.1774  0.2278
   57POPC   D2A  991   8.328   5.556   6.449 -0.2190  0.1291  0.2677
   57POPC   C3A  992   8.383   5.549   5.898 -0.0310 -0.0111 -0.0977
   57POPC   C4A  993   8.334   5.931   5.589  0.0560 -0.0766 -0.0912
   57POPC   C1B  994   7.783   6.199   6.948  0.0013 -0.1405  0.1957
   57POPC   C2B  995   7.840   6.462   6.708 -0.2686  0.1777 -0.0596
   57POPC   C3B  996   8.055   6.463   6.358 -0.2102 -0.0573  0.2330
   57POPC   C4B  997   8.480   6.483   6.121 -0.2292  0.2106 -0.0380
   58POPC   NC3  998   5.870   9.507   9.288  0.3179  0.2159 -0.3860
   58POPC   PO4  999   6.162   9.436   8.780  0.0240  0.2826 -0.1031
   58POPC   GL1 1000   6.514   9.364   8.414  0.0355 -0.3501  0.2240
   58POPC   GL2 1001   6.790   9.754   8.361  0.2176  0.2188  0.1485
   58POPC   C1A 1002   6.741   9.294   8.038 -0.1903 -0.2407  0.1858
   58POPC   D2A 1003   7.048   8.901   8.035 -0.0158 -0.0794  0.1732
   58POPC   C3A 1004   7.037   8.674   7.660  0.0758  0.0094  0.0303
   58POPC   C4A 1005   6.859   8.596   7.216 -0.1074 -0.3098 -0.0918
   58POPC   C1B 1006   6.737  10.074   8.080  0.0515 -0.1077 -0.3313
   58POPC   C2B 1007   6.760   9.943   7.666 -0.2823  0.1424 -0.1299
   58POPC   C3B 1008   6.791   9.759   7.347  0.1702  0.2229  0.0114
   58POPC   C4B 1009   6.807   9.537   7.112  0.0200 -0.0648  0.2802
   59POPC   NC3 1010   8.280   7.546   8.839 -0.0949  0.1754 -0.0575
   59POPC   PO4 1011   8.030   7.484   8.419  0.0446 -0.1049 -0.0219
   59POPC   GL1 1012   7.993   7.427   7.979 -0.0989 -0.3629  0.2087
   59POPC   GL2 1013   7.692   7.479   7.828  0.0923 -0.0325 -0.1327
   59POPC   C1A 1014   8.111   7.576   7.602 -0.0780  0.2272  0.1519
   59POPC   D2A 1015   8.455   7.709   7.280 -0.3956 -0.0837  0.0877
   59POPC   C3A 1016   8.597   8.088   7.041  0.2603 -0.3995  0.1642
   59POPC   C4A 1017   8.684   8.386   6.742 -0.0836  0.0306  0.1003
   59POPC   C1B 1018   7.746   7.492   7.353  0.0474 -0.0999  0.0504
   59POPC   C2B 1019   7.821   7.440   6.963  0.1832 -0.2299 -0.3132
   59POPC   C3B 1020   7.856   7.201   6.645 -0.1348  0.1567 -0.1015
   59POPC   C4B 1021   8.173   7.192   6.351  0.1074 -0.1518 -0.1048
   60POPC   NC3 1022   4.609   2.147   7.821  0.1473 -0.1583  0.0116
   60POPC   PO4 1023   4.283   1.885   7.730  0.1016  0.0528  0.1594
   60POPC   GL1 1024   4.293   2.113   7.366 -0.0543  0.0806 -0.1051
   60POPC   GL2 1025   4.651   2.039   7.296  0.1101  0.1687 -0.1009
   60POPC   C1A 1026   4.442   2.161   6.910  0.1630 -0.3070  0.1895
   60POPC   D2A 1027   4.522   2.386   6.531  0.1916  0.0749  0.1889
   60POPC   C3A 1028   4.230   2.227   6.277  0.1621 -0.1411  0.0038
   60POPC   C4A 1029   3.939   2.216   5.930 -0.0476 -0.1974  0.1048
   60POPC   C1B 1030   4.774   1.820   6.889  0.2903  0.0685  0.1944
   60POPC   C2B 1031   4.512   1.774   6.510 -0.0232  0.2828  0.1488
   60POPC   C3B 1032   4.552   1.527   6.175 -0.1288  0.0881  0.4148
   60POPC   C4B 1033   4.463   1.297   5.858  0.1599  0.0186  0.0971
   61POPC   NC3 1034   0.034   8.643   8.457 -0.1132 -0.1275 -0.3062
   61POPC   PO4 1035  -0.080   8.751   7.978 -0.0666  0.1357 -0.0719
   61POPC   GL1 1036  -0.350   8.827   7.586 -0.1344 -0.2018  0.2477
   61POPC   GL2 1037  -0.263   9.072   7.353  0.1935  0.1575  0.2957
   61POPC   C1A 1038  -0.597   8.729   7.323  0.3738  0.1288  0.1258
   61POPC   D2A 1039  -0.787   8.940   6.992 -0.1158 -0.2078  0.0872
   61POPC   C3A 1040  -0.624   9.089   6.585  0.0569  0.1652  0.2096
   61POPC   C4A 1041  -0.789   9.077   6.122 -0.0644 -0.0724  0.1724
   61POPC   C1B 1042  -0.147   8.908   6.823 -0.1358 -0.0921 -0.1367
   61POPC   C2B 1043   0.152   8.683   6.562 -0.0216  0.0560 -0.2572
   61POPC   C3B 1044   0.143   8.521   6.162  0.0694  0.0154 -0.1832
   61POPC   C4B 1045   0.318   8.864   5.808  0.0434  0.2630  0.1071
   62POPC   NC3 1046   1.457  10.629   7.650  0.3111 -0.3062 -0.3144
   62POPC   PO4 1047   1.040  10.621   7.656 -0.0682 -0.0135 -0.0134
   62POPC   GL1 1048   0.967  10.702   7.196 -0.1119 -0.0030 -0.0790
   62POPC   GL2 1049   0.892  10.530   6.946  0.2257  0.3396 -0.1553
   62POPC   C1A 1050   1.079  11.036   6.815  0.2540 -0.3331 -0.1824
   62POPC   D2A 1051   1.024  11.081   6.405 -0.2102  0.1130 -0.3799
   62POPC   C3A 1052   1.151  11.340   6.080  0.3804  0.0386  0.0370
   62POPC   C4A 1053   1.154  11.453   5.654  0.0147 -0.1487  0.0238
   62POPC   C1B 1054   0.826  10.593   6.506 -0.1014  0.0285 -0.0867
   62POPC   C2B 1055   0.773  10.510   6.171  0.4101  0.1102  0.0289
   62POPC   C3B 1056   0.544  10.325   5.862  0.2258  0.0793  0.1942
   62POPC   C4B 1057   0.532  10.497   5.416  0.4296  0.0316  0.0624
   63POPC   NC3 1058  10.301   6.614   7.579 -0.2147  0.0038  0.4487
   63POPC   PO4 1059  10.766   6.766   7.601  0.0267  0.1608 -0.0976
   63POPC   GL1 1060  10.915   6.841   7.186  0.0669 -0.2135  0.0940
   63POPC   GL2 1061  10.736   7.184   7.203  0.1395 -0.0329 -0.1346
   63POPC   C1A 1062  10.762   7.084   6.690  0.1120 -0.2575  0.1654
   63POPC   D2A 1063  10.692   7.000   6.217 -0.0911 -0.0050 -0.3588
   63POPC   C3A 1064  10.940   7.202   5.892 -0.0017 -0.0491  0.1764
   63POPC   C4A 1065  11.104   7.284   5.500 -0.3622  0.2144 -0.3378
   63POPC   C1B 1066  11.173   7.234   6.932  0.1431  0.0993 -0.1842
   63POPC   C2B 1067  11.507   7.163   6.630 -0.0160 -0.0709  0.0664
   63POPC   C3B 1068  11.625   7.445   6.239  0.4240 -0.0166  0.1085
   63POPC   C4B 1069  11.334   7.677   5.791  0.0508  0.3038  0.0982
   64POPC   NC3 1070   5.120   2.767   7.546 -0.1767 -0.1008  0.1340
   64POPC   PO4 1071   5.208   3.156   7.507  0.0938 -0.1151  0.0598
   64POPC   GL1 1072   5.227   2.939   7.084  0.0856 -0.2499 -0.2077
   64POPC   GL2 1073   5.512   3.181   7.048  0.1109 -0.0622  0.2210
   64POPC   C1A 1074   5.373   2.804   6.675  0.2140  0.1168 -0.3273
   64POPC   D2A 1075   5.490   2.834   6.329 -0.4555 -0.0866  0.1175
   64POPC   C3A 1076   5.213   2.666   6.004  0.1174 -0.1343 -0.0171
   64POPC   C4A 1077   4.978   2.801   5.588 -0.0972 -0.0862 -0.0546
   64POPC   C1B 1078   5.198   3.320   6.739  0.0797  0.0415  0.0865
   64POPC   C2B 1079   5.145   3.233   6.332  0.2437  0.0240 -0.0368
   64POPC   C3B 1080   4.934   3.129   5.968  0.1714 -0.0551  0.1068
   64POPC   C4B 1081   4.863   3.305   5.503  0.0810  0.2598  0.0900
   65POPC   NC3 1082   6.008   0.680   8.483  0.4501 -0.1015 -0.0037
   65POPC   PO4 1083   5.825   0.409   8.161 -0.0327  0.0099 -0.2399
   65POPC   GL1 1084   6.029   0.180   7.795  0.2153 -0.7107 -0.1871
   65POPC   GL2 1085   5.819   0.067   7.707  0.0534  0.0046 -0.1628
   65POPC   C1A 1086   6.183   0.068   7.378  0.0031 -0.2681 -0.0394
   65POPC   D2A 1087   6.221  -0.168   7.007  0.3275 -0.0081  0.0729
   65POPC   C3A 1088   6.179   0.035   6.611 -0.0285 -0.2882  0.1097
   65POPC   C4A 1089   6.010  -0.082   6.231 -0.0963  0.2812  0.2024
   65POPC   C1B 1090   5.894  -0.398   7.357 -0.1816  0.4224 -0.0259
   65POPC   C2B 1091   5.902  -0.677   7.015  0.0202 -0.0460 -0.0081
   65POPC   C3B 1092   5.930  -1.093   6.681 -0.0542 -0.2994 -0.1677
   65POPC   C4B 1093   5.881  -1.452   6.526  0.0467 -0.1671 -0.2192
   66POPC   NC3 1094   6.529   1.334   7.743 -0.2408  0.1805  0.0180
   66POPC   PO4 1095   6.796   1.727   7.719  0.0686  0.1417  0.0597
   66POPC   GL1 1096   6.822   1.432   7.310 -0.1787  0.2464  0.2001
   66POPC   GL2 1097   7.035   1.497   7.084 -0.0259  0.1614  0.0122
   66POPC   C1A 1098   6.664   1.140   7.048  0.0927 -0.1343 -0.1795
   66POPC   D2A 1099   6.770   0.884   6.825  0.1002 -0.0491  0.0106
   66POPC   C3A 1100   6.626   0.790   6.377 -0.2359 -0.0322  0.2985
   66POPC   C4A 1101   6.605   0.518   5.955 -0.2149 -0.1800  0.4216
   66POPC   C1B 1102   6.756   1.517   6.734  0.0652 -0.4105  0.0535
   66POPC   C2B 1103   6.761   1.706   6.176 -0.1764 -0.3730 -0.1184
   66POPC   C3B 1104   6.573   2.074   5.940  0.2276 -0.4609  0.1365
   66POPC   C4B 1105   6.288   2.300   5.666 -0.2765  0.0193  0.1671
   67POPC   NC3 1106   8.557   3.875   7.298 -0.2282 -0.1639  0.0246
   67POPC   PO4 1107   8.583   3.566   7.575 -0.0007  0.0196 -0.0473
   67POPC   GL1 1108   8.413   3.433   7.119 -0.3742  0.2316  0.0022
   67POPC   GL2 1109   8.061   3.509   7.069 -0.3174  0.1254 -0.0518
   67POPC   C1A 1110   8.545   3.289   6.749 -0.1670 -0.1210 -0.2194
   67POPC   D2A 1111   8.798   3.198   6.410 -0.1054  0.0431  0.0635
   67POPC   C3A 1112   8.871   3.017   6.002  0.1777  0.0361 -0.1112
   67POPC   C4A 1113   9.200   2.839   5.852 -0.1920  0.1194  0.1099
   67POPC   C1B 1114   8.074   3.376   6.689  0.1219 -0.1097 -0.0642
   67POPC   C2B 1115   8.343   3.348   6.227 -0.0804 -0.1198  0.1829
   67POPC   C3B 1116   8.457   3.252   5.753  0.0168  0.3255 -0.1283
   67POPC   C4B 1117   8.618   2.797   5.615  0.0271 -0.0906  0.2493
   68POPC   NC3 1118   4.235   2.890   8.118 -0.1193 -0.1193  0.2068
   68POPC   PO4 1119   4.257   3.045   7.721  0.0378  0.2203 -0.0411
   68POPC   GL1 1120   4.292   3.127   7.293  0.3229 -0.0850  0.3211
   68POPC   GL2 1121   4.211   3.384   7.205 -0.2472  0.1789  0.1809
   68POPC   C1A 1122   4.449   3.035   6.883  0.0679  0.0460 -0.1368
   68POPC   D2A 1123   4.807   3.008   6.816 -0.2226 -0.1097 -0.0176
   68POPC   C3A 1124   4.884   2.730   6.498  0.0941 -0.1929 -0.1616
   68POPC   C4A 1125   4.698   2.635   6.093  0.2889  0.0454  0.0080
   68POPC   C1B 1126   3.964   3.680   7.015  0.1638  0.0650 -0.3647
   68POPC   C2B 1127   4.248   3.821   6.688 -0.2526  0.1557  0.0363
   68POPC   C3B 1128   4.646   3.950   6.430 -0.0141 -0.1456 -0.1793
   68POPC   C4B 1129   4.775   4.119   6.061 -0.0885 -0.2178 -0.0604
   69POPC   NC3 1130  10.485   9.224   7.884  0.2250 -0.1195  0.1185
   69POPC   PO4 1131  10.444   9.558   7.605  0.0287 -0.0818 -0.1927
   69POPC   GL1 1132  10.260   9.610   7.274  0.1989  0.0058  0.0550
   69POPC   GL2 1133  10.400   9.885   7.215 -0.2469 -0.1499  0.2310
   69POPC   C1A 1134  10.310   9.460   6.904 -0.0745 -0.0817 -0.0182
   69POPC   D2A 1135  10.169   9.538   6.448  0.0030 -0.0919  0.0985
   69POPC   C3A 1136  10.214   9.376   6.022  0.0501  0.1314  0.4024
   69POPC   C4A 1137  10.153   9.065   5.711 -0.2257 -0.3019  0.0428
   69POPC   C1B 1138  10.528   9.861   6.804 -0.0503  0.1574 -0.4495
   69POPC   C2B 1139  10.462  10.173   6.522  0.5655 -0.0498  0.0476
   69POPC   C3B 1140  10.094  10.393   6.158  0.3588 -0.0265 -0.3749
   69POPC   C4B 1141   9.744  10.689   6.128  0.0307 -0.1195  0.3421
   70POPC   NC3 1142   6.461   3.952   7.754  0.1649  0.1626  0.1246
   70POPC   PO4 1143   6.607   3.817   7.415  0.1510  0.0635 -0.0551
   70POPC   GL1 1144   6.694   3.616   7.089 -0.0608 -0.3139 -0.1277
   70POPC   GL2 1145   6.661   3.225   7.139  0.1672  0.0240  0.0380
   70POPC   C1A 1146   6.849   3.614   6.700 -0.2402 -0.1576 -0.1537
   70POPC   D2A 1147   6.636   3.691   6.244  0.0266  0.0123 -0.0275
   70POPC   C3A 1148   6.373   3.585   5.934 -0.0256  0.1101  0.0852
   70POPC   C4A 1149   6.236   3.658   5.489 -0.0237 -0.3186 -0.0995
   70POPC   C1B 1150   6.360   3.362   6.759  0.2415  0.0808 -0.1821
   70POPC   C2B 1151   6.175   3.517   6.398 -0.0464 -0.1039  0.1307
   70POPC   C3B 1152   5.942   3.833   6.197  0.1886 -0.1653 -0.1552
   70POPC   C4B 1153   5.716   4.211   6.221  0.0939 -0.0935 -0.0966
   71POPC   NC3 1154   9.423   4.572   7.501 -0.1069 -0.1607 -0.0046
   71POPC   PO4 1155   9.861   4.744   7.565  0.1931  0.1054 -0.0289
   71POPC   GL1 1156   9.867   4.632   7.158 -0.0583  0.0149 -0.1463
   71POPC   GL2 1157  10.143   4.554   7.090  0.1517 -0.1304  0.0491
   71POPC   C1A 1158   9.771   4.398   6.793  0.0474  0.2297  0.2267
   71POPC   D2A 1159   9.685   4.416   6.447  0.3348 -0.3544 -0.1163
   71POPC   C3A 1160   9.640   4.850   6.367 -0.0035  0.0392 -0.1485
   71POPC   C4A 1161   9.823   5.313   6.260  0.0090  0.0136 -0.0537
   71POPC   C1B 1162  10.381   4.792   6.887 -0.0005  0.0908 -0.0054
   71POPC   C2B 1163  10.589   4.665   6.588  0.0006 -0.0653  0.0754
   71POPC   C3B 1164  11.106   4.788   6.539  0.0945 -0.1585 -0.1638
   71POPC   C4B 1165  11.276   5.119   6.473 -0.1361 -0.0065 -0.0517
   72POPC   NC3 1166   4.402   0.936   7.903  0.0454 -0.1039 -0.0102
   72POPC   PO4 1167   4.488   0.437   8.002  0.1816 -0.2543 -0.2438
   72POPC   GL1 1168   4.271   0.546   7.642 -0.0862 -0.1619  0.0874
   72POPC   GL2 1169   3.976   0.672   7.434  0.0124 -0.0574  0.0244
   72POPC   C1A 1170   4.265   0.259   7.300  0.1759  0.2397  0.2137
   72POPC   D2A 1171   4.263   0.014   7.033 -0.0099 -0.0450 -0.2667
   72POPC   C3A 1172   4.649  -0.102   6.989  0.2808 -0.1039  0.2926
   72POPC   C4A 1173   4.944  -0.111   7.235 -0.3049  0.0443 -0.0500
   72POPC   C1B 1174   4.004   0.687   7.017  0.1935  0.1361  0.4773
   72POPC   C2B 1175   4.030   0.885   6.622 -0.0241  0.0858 -0.1489
   72POPC   C3B 1176   4.396   0.735   6.280 -0.3895  0.0341 -0.0584
   72POPC   C4B 1177   4.485   0.692   5.842 -0.1211 -0.3045  0.1954
   73POPC   NC3 1178   8.494   5.204   7.621 -0.2793  0.2446  0.0076
   73POPC   PO4 1179   8.446   4.803   7.539 -0.0759 -0.0021  0.0669
   73POPC   GL1 1180   8.545   4.702   7.148  0.0933  0.1842  0.3603
   73POPC   GL2 1181   8.547   4.354   7.053 -0.0255 -0.1534  0.2422
   73POPC   C1A 1182   8.727   4.755   6.744  0.1989 -0.4308  0.1540
   73POPC   D2A 1183   8.637   4.499   6.345  0.0421 -0.0395 -0.0965
   73POPC   C3A 1184   8.178   4.588   6.244 -0.2564  0.0589  0.2672
   73POPC   C4A 1185   7.768   4.597   6.259  0.0354 -0.0426 -0.2891
   73POPC   C1B 1186   8.171   4.359   6.674  0.2709 -0.0005  0.4340
   73POPC   C2B 1187   7.958   4.127   6.232  0.0092 -0.2174 -0.1025
   73POPC   C3B 1188   7.636   4.278   5.820 -0.3399 -0.0770  0.2280
   73POPC   C4B 1189   7.655   4.290   5.326  0.2437  0.0919  0.0176
   74POPC   NC3 1190   0.447   1.111   7.973 -0.0014 -0.0230  0.1538
   74POPC   PO4 1191   0.540   0.647   7.883 -0.1745  0.1038  0.0573
   74POPC   GL1 1192   0.595   0.433   7.497 -0.2011  0.4075 -0.1098
   74POPC   GL2 1193   0.476   0.119   7.445  0.0970 -0.0437  0.4269
   74POPC   C1A 1194   0.626   0.499   6.994  0.0830  0.2952 -0.0525
   74POPC   D2A 1195   0.508   0.288   6.540 -0.3391  0.3492  0.1845
   74POPC   C3A 1196   0.604   0.418   6.178  0.1310  0.0334 -0.0686
   74POPC   C4A 1197   0.491   0.194   5.823  0.1207 -0.2416  0.1337
   74POPC   C1B 1198   0.435  -0.004   6.928  0.0065 -0.1664  0.2989
   74POPC   C2B 1199   0.249  -0.300   6.599  0.1719  0.0783  0.0213
   74POPC   C3B 1200   0.178  -0.436   6.153 -0.1757  0.0507 -0.1401
   74POPC   C4B 1201  -0.033  -0.240   5.837 -0.2465 -0.3251 -0.0090
   75POPC   NC3 1202   0.608   3.093   8.113  0.0075  0.0301  0.0690
   75POPC   PO4 1203   0.482   3.131   7.663 -0.3690  0.4490 -0.1345
   75POPC   GL1 1204   0.060   2.935   7.431  0.3180 -0.0880  0.0567
   75POPC   GL2 1205   0.251   3.001   7.177  0.1005  0.0302 -0.1259
   75POPC   C1A 1206  -0.255   2.746   7.051 -0.2902  0.0746  0.0115
   75POPC   D2A 1207  -0.452   2.646   6.713 -0.3175  0.2188  0.2485
   75POPC   C3A 1208  -0.287   2.767   6.497 -0.5813 -0.2127 -0.0598
   75POPC   C4A 1209  -0.298   2.781   6.084 -0.1382 -0.4681 -0.0586
   75POPC   C1B 1210   0.082   3.142   6.788 -0.0286 -0.2546  0.1878
   75POPC   C2B 1211   0.009   3.177   6.353  0.1112 -0.0421 -0.0246
   75POPC   C3B 1212   0.052   3.192   5.935 -0.1193  0.0774  0.1689
   75POPC   C4B 1213   0.236   3.191   5.496  0.4111 -0.1213 -0.1784
   76POPC   NC3 1214   8.933   9.728   8.414  0.2529 -0.1733 -0.1798
   76POPC   PO4 1215   9.195   9.563   8.121  0.0897 -0.3062  0.1247
   76POPC   GL1 1216   8.944   9.319   8.007 -0.1178  0.2624  0.0421
   76POPC   GL2 1217   8.946   9.156   8.334  0.0492 -0.4395  0.1584
   76POPC   C1A 1218   8.630   9.110   7.716 -0.0154  0.1375 -0.0723
   76POPC   D2A 1219   8.463   9.012   7.276  0.1066 -0.1093 -0.4158
   76POPC   C3A 1220   7.996   8.831   7.307  0.2806 -0.0629 -0.2188
   76POPC   C4A 1221   7.805   8.404   7.442  0.3395  0.1291  0.1326
   76POPC   C1B 1222   8.528   8.990   8.258 -0.1156  0.0240 -0.0939
   76POPC   C2B 1223   8.394   8.619   8.145  0.3636  0.1989 -0.2372
   76POPC   C3B 1224   8.495   8.593   7.751 -0.3116 -0.0252  0.3597
   76POPC   C4B 1225   8.559   8.510   7.369 -0.0832 -0.1795 -0.0320
   77POPC   NC3 1226   6.034   3.665   7.713  0.0171 -0.0088  0.0418
   77POPC   PO4 1227   5.973   4.114   7.698  0.2983  0.0717  0.2579
   77POPC   GL1 1228   5.970   4.005   7.314 -0.0870 -0.0459 -0.0384
   77POPC   GL2 1229   5.817   4.172   7.131  0.2232 -0.1885 -0.1636
   77POPC   C1A 1230   5.676   3.669   6.976 -0.0439 -0.2414  0.2416
   77POPC   D2A 1231   5.432   3.839   6.427 -0.0894  0.0402  0.1222
   77POPC   C3A 1232   5.027   3.708   6.240  0.2249  0.1890 -0.0161
   77POPC   C4A 1233   4.737   3.586   5.971  0.2190 -0.1021  0.0734
   77POPC   C1B 1234   6.001   4.025   6.654  0.0367 -0.1307  0.1439
   77POPC   C2B 1235   6.334   4.046   6.394  0.0423 -0.0194 -0.1132
   77POPC   C3B 1236   6.440   4.047   5.883 -0.1009  0.0655  0.1184
   77POPC   C4B 1237   6.645   4.146   5.483 -0.1126  0.0331  0.3078
   78POPC   NC3 1238   0.469   2.139   7.415 -0.2087  0.1595 -0.1987
   78POPC   PO4 1239   0.599   1.735   7.654 -0.0207 -0.0384 -0.1586
   78POPC   GL1 1240   0.475   1.597   7.194  0.0163 -0.1281 -0.4728
   78POPC   GL2 1241   0.547   1.342   7.158  0.2722  0.4086 -0.3363
   78POPC   C1A 1242   0.087   1.402   6.987 -0.0384  0.4078 -0.1430
   78POPC   D2A 1243  -0.252   1.444   6.723 -0.1000 -0.1312 -0.4372
   78POPC   C3A 1244  -0.148   1.445   6.350  0.1156 -0.2415  0.1983
   78POPC   C4A 1245  -0.176   1.320   5.997 -0.3336 -0.1497  0.1940
   78POPC   C1B 1246   0.628   1.349   6.737  0.0367  0.0890  0.1129
   78POPC   C2B 1247   0.382   1.453   6.340  0.0040 -0.1238  0.0971
   78POPC   C3B 1248   0.352   1.280   5.892 -0.1208 -0.1327 -0.1639
   78POPC   C4B 1249   0.070   1.240   5.498  0.2040 -0.0463  0.2219
   79POPC   NC3 1250   7.026   6.865   8.165 -0.3748  0.2275  0.2753
   79POPC   PO4 1251   7.405   6.729   7.934  0.0561 -0.0937 -0.5370
   79POPC   GL1 1252   7.303   7.113   7.722 -0.1387  0.1477  0.0633
   79POPC   GL2 1253   7.249   7.291   8.039  0.0726 -0.0678  0.1821
   79POPC   C1A 1254   7.219   7.120   7.341  0.0847 -0.0452  0.2400
   79POPC   D2A 1255   7.472   7.164   6.929 -0.0111  0.0862  0.0714
   79POPC   C3A 1256   7.354   7.454   6.655 -0.1200 -0.0887  0.1949
   79POPC   C4A 1257   7.275   7.784   6.376  0.2186  0.0882  0.1194
   79POPC   C1B 1258   7.197   7.699   7.691 -0.0015  0.1453  0.1001
   79POPC   C2B 1259   7.500   7.972   7.466 -0.1373 -0.0213  0.3525
   79POPC   C3B 1260   7.840   7.954   7.712 -0.1163  0.0159  0.1946
   79POPC   C4B 1261   8.123   8.238   7.870  0.0734 -0.1192 -0.0476
   80POPC   NC3 1262   3.203   1.051   8.127  0.0920  0.0545  0.1556
   80POPC   PO4 1263   3.053   0.751   8.018 -0.2773  0.0634  0.2844
   80POPC   GL1 1264   3.101   0.913   7.592  0.0400 -0.1665  0.1948
   80POPC   GL2 1265   3.303   0.640   7.399 -0.1312 -0.2120 -0.1307
   80POPC   C1A 1266   3.151   1.296   7.366  0.3483 -0.0914 -0.2568
   80POPC   D2A 1267   3.435   1.540   7.284 -0.0208 -0.0322 -0.2400
   80POPC   C3A 1268   3.520   1.527   6.871  0.1743 -0.0934 -0.0663
   80POPC   C4A 1269   3.554   1.143   6.558  0.2853 -0.1999 -0.0318
   80POPC   C1B 1270   3.462   0.916   7.171 -0.2870 -0.0577  0.1343
   80POPC   C2B 1271   3.773   1.152   7.091 -0.0968  0.0320  0.2479
   80POPC   C3B 1272   4.038   1.426   6.857  0.2447 -0.1084 -0.2295
   80POPC   C4B 1273   4.255   1.739   7.010  0.1097 -0.1530  0.1238
   81POPC   NC3 1274   1.057   1.927   7.669  0.0278  0.2807  0.3461
   81POPC   PO4 1275   0.868   2.386   7.547 -0.0446  0.2330  0.3311
   81POPC   GL1 1276   0.918   2.073   7.184 -0.3654 -0.2366  0.0966
   81POPC   GL2 1277   1.145   2.237   6.956 -0.0096  0.0490 -0.3099
   81POPC   C1A 1278   1.007   1.762   6.808 -0.1183  0.0717 -0.4253
   81POPC   D2A 1279   1.008   1.522   6.350 -0.1289  0.2588 -0.1946
   81POPC   C3A 1280   1.080   1.742   5.991 -0.4715  0.3291 -0.3075
   81POPC   C4A 1281   0.738   1.978   5.690 -0.0201  0.1980  0.2006
   81POPC   C1B 1282   1.214   2.144   6.423  0.2737 -0.0422  0.1286
   81POPC   C2B 1283   1.329   2.566   6.095  0.0394 -0.0838  0.1177
   81POPC   C3B 1284   1.060   2.782   5.939 -0.1531 -0.0285 -0.1397
   81POPC   C4B 1285   0.762   3.057   5.821  0.4092 -0.2003  0.1022
   82POPC   NC3 1286  10.323   4.244   7.464 -0.0454  0.0244 -0.1971
   82POPC   PO4 1287  10.218   3.744   7.573  0.0001 -0.0585  0.2496
   82POPC   GL1 1288  10.099   3.461   7.263 -0.2164  0.2303 -0.2934
   82POPC   GL2 1289  10.431   3.216   7.184  0.3874 -0.3202  0.1527
   82POPC   C1A 1290   9.974   3.254   6.921  0.2335  0.1761  0.4045
   82POPC   D2A 1291  10.194   3.218   6.642 -0.0458 -0.1281 -0.1510
   82POPC   C3A 1292   9.973   3.020   6.402  0.0509 -0.1497  0.3384
   82POPC   C4A 1293   9.727   3.050   5.969 -0.0558  0.3514 -0.0614
   82POPC   C1B 1294  10.443   3.579   6.912  0.1811  0.2012  0.1769
   82POPC   C2B 1295  10.567   3.570   6.570  0.0208 -0.0176 -0.0836
   82POPC   C3B 1296  10.696   3.643   6.115  0.1204 -0.1647 -0.0027
   82POPC   C4B 1297  10.654   4.010   5.911  0.2709 -0.1321  0.1430
   83POPC   NC3 1298   0.628   8.203   8.228  0.3700 -0.1028  0.2303
   83POPC   PO4 1299   0.425   8.535   8.129 -0.0180 -0.2895 -0.0763
   83POPC   GL1 1300   0.395   8.529   7.643 -0.0272  0.1955  0.3593
   83POPC   GL2 1301   0.197   8.786   7.561  0.0952  0.1911  0.0057
   83POPC   C1A 1302   0.801   8.510   7.410 -0.0492 -0.0560 -0.1628
   83POPC   D2A 1303   1.121   8.689   7.365 -0.2912 -0.1038  0.0054
   83POPC   C3A 1304   1.165   9.028   7.090  0.0094  0.4686  0.2830
   83POPC   C4A 1305   1.019   9.234   6.720 -0.2817  0.1382  0.1014
   83POPC   C1B 1306   0.104   8.575   7.127  0.1786  0.1499 -0.0505
   83POPC   C2B 1307   0.121   8.229   6.845  0.1563 -0.0258  0.2769
   83POPC   C3B 1308   0.120   8.089   6.367  0.1407 -0.1375 -0.1789
   83POPC   C4B 1309   0.169   7.748   6.069  0.0572  0.0310  0.1284
   84POPC   NC3 1310   4.028   9.826   8.159 -0.3304 -0.1809  0.3300
   84POPC   PO4 1311   4.488   9.703   8.014 -0.1255 -0.1102 -0.0125
   84POPC   GL1 1312   4.575   9.514   7.587 -0.1326  0.1544 -0.1228
   84POPC   GL2 1313   4.442   9.172   7.603 -0.3496  0.0853  0.1230
   84POPC   C1A 1314   4.598   9.531   7.225 -0.1294 -0.1098  0.0641
   84POPC   D2A 1315   4.849   9.385   6.863 -0.0198 -0.0551 -0.0276
   84POPC   C3A 1316   4.936   9.030   6.609 -0.3610  0.2880 -0.0896
   84POPC   C4A 1317   4.840   8.977   6.114 -0.0485 -0.0521  0.1972
   84POPC   C1B 1318   4.099   9.308   7.296 -0.3036  0.0032  0.0282
   84POPC   C2B 1319   3.918   9.092   7.011 -0.0654 -0.0711 -0.1807
   84POPC   C3B 1320   4.070   8.850   6.682 -0.1593  0.1310 -0.0985
   84POPC   C4B 1321   4.328   8.973   6.411 -0.0026 -0.0388 -0.1963
   85POPC   NC3 1322   0.337   9.050   7.975 -0.0132  0.2664 -0.0242
   85POPC   PO4 1323   0.385   9.488   7.775  0.0135  0.1231 -0.0701
   85POPC   GL1 1324   0.228   9.341   7.435 -0.0632  0.0411  0.1340
   85POPC   GL2 1325   0.118   9.604   7.257 -0.0463  0.0109  0.2119
   85POPC   C1A 1326   0.160   9.131   7.124 -0.3435 -0.0403 -0.1060
   85POPC   D2A 1327   0.154   9.295   6.778 -0.1637 -0.2177 -0.1271
   85POPC   C3A 1328  -0.005   9.258   6.392 -0.1184  0.0671 -0.0773
   85POPC   C4A 1329  -0.275   8.918   6.140  0.3025  0.1011 -0.2037
   85POPC   C1B 1330   0.626   9.345   7.085 -0.1343  0.2822 -0.2456
   85POPC   C2B 1331   0.683   8.916   7.122  0.1076  0.2517 -0.2387
   85POPC   C3B 1332   0.573   8.497   6.871 -0.1967 -0.1865 -0.4599
   85POPC   C4B 1333   0.552   8.313   6.445 -0.5050  0.0924  0.1909
   86POPC   NC3 1334   3.737   7.211   7.779 -0.0748  0.0362 -0.0901
   86POPC   PO4 1335   3.548   7.645   7.756 -0.1753  0.0541 -0.0847
   86POPC   GL1 1336   3.335   7.717   7.338  0.0813 -0.0064 -0.1388
   86POPC   GL2 1337   3.157   7.946   7.340  0.0123 -0.1041 -0.0654
   86POPC   C1A 1338   3.390   7.499   7.012  0.2061  0.0487  0.2511
   86POPC   D2A 1339   3.634   7.727   6.645  0.0135 -0.0819 -0.0963
   86POPC   C3A 1340   4.064   7.758   6.693  0.2098  0.0096  0.1445
   86POPC   C4A 1341   4.336   8.157   6.544 -0.3552 -0.2207  0.0474
   86POPC   C1B 1342   2.826   8.052   7.088  0.0423  0.0409  0.1434
   86POPC   C2B 1343   2.875   8.199   6.652  0.5380 -0.0396 -0.1408
   86POPC   C3B 1344   3.011   8.060   6.194  0.2746 -0.0503  0.1875
   86POPC   C4B 1345   2.926   8.254   5.827  0.0794  0.1168  0.1290
   87POPC   NC3 1346   5.684   2.324   8.245 -0.2068 -0.1019  0.1504
   87POPC   PO4 1347   5.572   2.407   7.714 -0.1332 -0.0480  0.2082
   87POPC   GL1 1348   5.702   2.376   7.276 -0.0183  0.1349 -0.0037
   87POPC   GL2 1349   5.343   2.384   7.043  0.0090 -0.1651  0.1214
   87POPC   C1A 1350   5.819   2.718   6.927 -0.3673  0.2320  0.0233
   87POPC   D2A 1351   5.922   2.655   6.574  0.0630 -0.0741 -0.1713
   87POPC   C3A 1352   6.155   2.985   6.426 -0.2567 -0.2696 -0.1923
   87POPC   C4A 1353   5.985   3.269   6.044  0.0634  0.6021  0.2633
   87POPC   C1B 1354   5.525   2.308   6.529  0.3358  0.2184 -0.1127
   87POPC   C2B 1355   5.766   2.050   6.318 -0.2928 -0.0956 -0.2307
   87POPC   C3B 1356   5.631   1.722   6.006 -0.2209  0.1918  0.0140
   87POPC   C4B 1357   5.730   1.783   5.570  0.0147 -0.3260  0.1989
   88POPC   NC3 1358   7.083   4.938   7.500  0.1536  0.1569  0.0430
   88POPC   PO4 1359   7.514   4.959   7.692  0.2198 -0.0516 -0.1686
   88POPC   GL1 1360   7.563   5.208   7.313 -0.2351 -0.2552 -0.1064
   88POPC   GL2 1361   7.294   5.105   7.013 -0.2234  0.2952 -0.0234
   88POPC   C1A 1362   7.767   5.093   6.848  0.2158  0.0043  0.2331
   88POPC   D2A 1363   7.903   5.230   6.444  0.4389  0.1944  0.0188
   88POPC   C3A 1364   7.620   5.051   6.221 -0.1130 -0.0837  0.0252
   88POPC   C4A 1365   7.524   4.827   5.803  0.0300  0.0195  0.0637
   88POPC   C1B 1366   7.299   5.287   6.651 -0.3601  0.0671  0.0767
   88POPC   C2B 1367   7.159   5.200   6.157  0.1318 -0.0092 -0.1831
   88POPC   C3B 1368   7.182   5.269   5.598  0.2201 -0.2541 -0.0410
   88POPC   C4B 1369   6.955   5.521   5.415 -0.0982 -0.5301 -0.0369
   89POPC   NC3 1370   6.457   9.829   8.720  0.2218  0.3078  0.0056
   89POPC   PO4 1371   6.905   9.665   8.892 -0.0200 -0.0605 -0.3845
   89POPC   GL1 1372   7.179   9.584   8.598  0.1438  0.1636 -0.2609
   89POPC   GL2 1373   7.429   9.500   8.602 -0.0688  0.0113  0.0478
   89POPC   C1A 1374   7.283   9.615   8.138  0.0620 -0.2918  0.1204
   89POPC   D2A 1375   7.157   9.634   7.840 -0.0954 -0.0572 -0.1055
   89POPC   C3A 1376   6.934   9.312   7.591 -0.1513 -0.1454 -0.2085
   89POPC   C4A 1377   7.150   9.033   7.294  0.3242  0.1989 -0.1690
   89POPC   C1B 1378   7.733   9.583   8.336 -0.1399 -0.1037 -0.2168
   89POPC   C2B 1379   7.979   9.376   8.111 -0.0167 -0.0650  0.0957
   89POPC   C3B 1380   8.168   9.091   7.882  0.1838 -0.0351  0.0794
   89POPC   C4B 1381   8.015   8.722   7.769  0.3630 -0.1594 -0.0444
   90POPC   NC3 1382  10.067   7.481   7.773  0.0397  0.0893  0.0569
   90POPC   PO4 1383  10.374   7.152   7.668  0.0501 -0.3732  0.3763
   90POPC   GL1 1384  10.208   7.090   7.267  0.1882  0.2688 -0.0630
   90POPC   GL2 1385  10.304   7.299   6.965 -0.0829 -0.0095 -0.1751
   90POPC   C1A 1386  10.306   6.838   6.912 -0.1838  0.0127 -0.1023
   90POPC   D2A 1387  10.217   6.830   6.534  0.0575 -0.2075  0.1278
   90POPC   C3A 1388  10.072   7.080   6.158  0.0282  0.0611  0.1724
   90POPC   C4A 1389   9.647   7.207   6.036  0.0345 -0.0772  0.1307
   90POPC   C1B 1390  10.212   7.550   6.608  0.1522  0.1075  0.1868
   90POPC   C2B 1391  10.237   7.571   6.205 -0.2398  0.0375 -0.0143
   90POPC   C3B 1392  10.403   7.381   5.876  0.3001 -0.2813 -0.0778
   90POPC   C4B 1393  10.372   7.165   5.550 -0.1870 -0.0966  0.0073
   91POPC   NC3 1394   0.977   9.395   8.095 -0.0324  0.2774  0.2960
   91POPC   PO4 1395   0.959   9.537   7.699 -0.1438 -0.0574 -0.0793
   91POPC   GL1 1396   1.025   9.606   7.277 -0.2803 -0.1241 -0.1078
   91POPC   GL2 1397   1.386   9.482   7.174 -0.1007  0.2284 -0.2228
   91POPC   C1A 1398   1.052   9.718   6.882  0.0568 -0.0561 -0.0952
   91POPC   D2A 1399   0.795   9.643   6.489 -0.0198  0.1167  0.0781
   91POPC   C3A 1400   0.532   9.457   6.282  0.0280  0.3633 -0.0001
   91POPC   C4A 1401   0.622   9.082   6.182  0.2448  0.1739  0.2961
   91POPC   C1B 1402   1.654   9.792   6.859 -0.1744  0.2045  0.0946
   91POPC   C2B 1403   1.707   9.926   6.346 -0.0249 -0.0910 -0.1646
   91POPC   C3B 1404   1.606  10.288   6.063 -0.2156 -0.0440 -0.1525
   91POPC   C4B 1405   1.509  10.544   5.790  0.2070  0.0348 -0.1003
   92POPC   NC3 1406   1.430   5.172   8.197 -0.1345 -0.0860  0.0013
   92POPC   PO4 1407   1.792   5.386   8.035  0.1641  0.2854 -0.2604
   92POPC   GL1 1408   1.444   5.234   7.703 -0.0530  0.0729  0.0900
   92POPC   GL2 1409   1.552   5.511   7.472  0.1428 -0.1862 -0.0594
   92POPC   C1A 1410   1.077   5.262   7.410 -0.0292  0.0897  0.1712
   92POPC   D2A 1411   0.916   5.093   7.088 -0.0472  0.1484  0.0013
   92POPC   C3A 1412   0.560   4.930   7.018 -0.2268  0.0150  0.0232
   92POPC   C4A 1413   0.152   4.894   7.020  0.2648  0.1083  0.1816
   92POPC   C1B 1414   1.368   5.372   6.986 -0.2684 -0.0237  0.1113
   92POPC   C2B 1415   1.139   5.259   6.639 -0.0144 -0.0441 -0.1160
   92POPC   C3B 1416   1.079   5.304   6.214 -0.1006  0.0943  0.2117
   92POPC   C4B 1417   1.000   5.027   5.849 -0.1422 -0.3276 -0.1035
   93POPC   NC3 1418   9.323   7.671   8.248 -0.1780 -0.5390 -0.2375
   93POPC   PO4 1419   9.558   7.414   7.943 -0.0049  0.0445 -0.2495
   93POPC   GL1 1420   9.430   7.565   7.575 -0.0419 -0.2967 -0.1519
   93POPC   GL2 1421   9.341   7.902   7.497  0.3162  0.2806 -0.2383
   93POPC   C1A 1422   9.544   7.422   7.090  0.2136 -0.3005 -0.3894
   93POPC   D2A 1423   9.738   7.290   6.700 -0.0501 -0.2835 -0.1952
   93POPC   C3A 1424   9.759   7.595   6.277 -0.3436 -0.1036 -0.1921
   93POPC   C4A 1425   9.421   7.701   6.047  0.0163  0.1503  0.2314
   93POPC   C1B 1426   9.370   8.018   7.074 -0.0877 -0.1953  0.2531
   93POPC   C2B 1427   9.067   8.076   6.755  0.0513  0.1364  0.2491
   93POPC   C3B 1428   8.655   7.885   6.556 -0.2019  0.2018 -0.1029
   93POPC   C4B 1429   8.560   7.426   6.364 -0.3547 -0.1153  0.0221
   94POPC   NC3 1430   4.415   3.567   7.661 -0.1567 -0.2529  0.2991
   94POPC   PO4 1431   4.592   3.834   7.256  0.2245 -0.1026 -0.0720
   94POPC   GL1 1432   4.556   4.167   6.981  0.1514 -0.2182  0.0998
   94POPC   GL2 1433   4.823   4.268   6.742 -0.1256  0.1941  0.2140
   94POPC   C1A 1434   4.277   4.284   6.588  0.1529 -0.0065 -0.2207
   94POPC   D2A 1435   3.897   4.410   6.328 -0.1238 -0.0891  0.0843
   94POPC   C3A 1436   3.707   4.041   6.189  0.0777  0.2376  0.0594
   94POPC   C4A 1437   3.345   3.763   6.291 -0.3063 -0.0409  0.0254
   94POPC   C1B 1438   4.766   4.505   6.369 -0.2496 -0.0257  0.0148
   94POPC   C2B 1439   4.650   4.801   6.020 -0.0589 -0.1499  0.1247
   94POPC   C3B 1440   4.493   4.573   5.644 -0.3094  0.2329  0.0394
   94POPC   C4B 1441   4.789   4.318   5.402  0.1602 -0.1326 -0.2765
   95POPC   NC3 1442   1.821   1.280   7.833 -0.1184 -0.2023 -0.0267
   95POPC   PO4 1443   1.395   1.433   7.795 -0.2270 -0.0684  0.0036
   95POPC   GL1 1444   1.578   1.793   7.584  0.2931 -0.4619 -0.1067
   95POPC   GL2 1445   1.439   1.786   7.302  0.0480 -0.1749  0.1780
   95POPC   C1A 1446   1.850   1.613   7.286  0.1415  0.2137  0.1092
   95POPC   D2A 1447   2.117   1.687   6.964 -0.2387 -0.1823 -0.2831
   95POPC   C3A 1448   2.125   2.134   6.888  0.0484 -0.2703  0.2779
   95POPC   C4A 1449   1.827   2.477   6.778  0.0398 -0.1130 -0.0142
   95POPC   C1B 1450   1.537   1.849   6.923  0.3211  0.0230  0.5936
   95POPC   C2B 1451   1.469   1.633   6.526 -0.2140  0.1462 -0.1258
   95POPC   C3B 1452   1.623   1.547   6.139 -0.0569 -0.1709  0.1327
   95POPC   C4B 1453   1.494   1.634   5.717 -0.0054 -0.0832 -0.2136
   96POPC   NC3 1454   3.830   2.157   7.612  0.3500  0.3595 -0.0575
   96POPC   PO4 1455   3.502   1.890   7.687  0.1126 -0.1357  0.1000
   96POPC   GL1 1456   3.447   2.020   7.316 -0.0128 -0.1894  0.1981
   96POPC   GL2 1457   3.726   2.008   7.047 -0.1352  0.0943  0.1221
   96POPC   C1A 1458   3.133   1.906   6.907 -0.3097  0.0330  0.0464
   96POPC   D2A 1459   3.091   1.825   6.502 -0.0922  0.1129  0.2655
   96POPC   C3A 1460   3.193   1.536   6.333 -0.0924 -0.0012 -0.0354
   96POPC   C4A 1461   3.159   1.338   6.145 -0.0136 -0.0526  0.0003
   96POPC   C1B 1462   3.977   1.962   6.641  0.0879 -0.0657  0.1596
   96POPC   C2B 1463   4.073   1.795   6.192  0.1671 -0.1357 -0.1110
   96POPC   C3B 1464   4.318   1.797   5.785 -0.2702 -0.0014  0.1276
   96POPC   C4B 1465   4.718   1.706   5.657  0.1826  0.4552  0.2760
   97POPC   NC3 1466   7.191   5.414   7.615  0.1378  0.2754 -0.3460
   97POPC   PO4 1467   7.006   5.818   7.558  0.2205  0.0881  0.1466
   97POPC   GL1 1468   7.203   5.927   7.216 -0.1049 -0.0848  0.0704
   97POPC   GL2 1469   7.376   5.625   7.114 -0.1427 -0.0577 -0.0929
   97POPC   C1A 1470   7.303   6.099   6.897 -0.0427  0.3083 -0.0219
   97POPC   D2A 1471   7.380   6.327   6.540 -0.3282 -0.0792 -0.0490
   97POPC   C3A 1472   7.150   6.197   6.176  0.0120  0.0458  0.3094
   97POPC   C4A 1473   6.822   6.161   5.878 -0.0693 -0.0142 -0.0483
   97POPC   C1B 1474   7.649   5.622   6.772 -0.1769 -0.2833  0.0745
   97POPC   C2B 1475   7.763   5.967   6.526 -0.1314 -0.2369  0.0714
   97POPC   C3B 1476   7.626   6.062   6.080 -0.2356  0.1579 -0.3062
   97POPC   C4B 1477   7.649   6.388   5.774  0.3488 -0.3700 -0.1829
   98POPC   NC3 1478   9.716   4.883   8.019 -0.0428 -0.6271  0.1352
   98POPC   PO4 1479   9.402   5.065   7.773  0.0681 -0.2214  0.2655
   98POPC   GL1 1480   9.053   5.011   7.348 -0.0542 -0.1837  0.3069
   98POPC   GL2 1481   8.759   5.194   7.193  0.4932 -0.2702 -0.0775
   98POPC   C1A 1482   9.159   4.965   6.942  0.0619  0.0197 -0.1261
   98POPC   D2A 1483   9.493   4.961   6.804 -0.2507 -0.0522 -0.0614
   98POPC   C3A 1484   9.878   4.990   6.823  0.1540 -0.1302 -0.0061
   98POPC   C4A 1485  10.228   5.121   6.518  0.1962  0.5162 -0.3641
   98POPC   C1B 1486   9.045   5.464   6.900 -0.2114  0.3486 -0.1602
   98POPC   C2B 1487   9.090   5.759   6.571  0.1758 -0.0162  0.2331
   98POPC   C3B 1488   9.137   6.064   6.383  0.2596  0.1252  0.1334
   98POPC   C4B 1489   9.375   6.143   5.974  0.1262  0.3365 -0.1273
   99POPC   NC3 1490   1.543   7.938   7.807  0.0811 -0.0492  0.0516
   99POPC   PO4 1491   1.059   7.738   7.811  0.0035  0.0195 -0.0579
   99POPC   GL1 1492   1.270   7.690   7.438  0.2539  0.2342 -0.0694
   99POPC   GL2 1493   1.337   7.510   7.145  0.2611  0.2963  0.4848
   99POPC   C1A 1494   1.354   8.144   7.188  0.0840  0.1169  0.2742
   99POPC   D2A 1495   1.366   8.432   6.886  0.1574 -0.0707 -0.1197
   99POPC   C3A 1496   1.004   8.668   6.746 -0.0967 -0.0471 -0.0138
   99POPC   C4A 1497   0.656   8.963   6.653  0.0735  0.1900  0.1822
   99POPC   C1B 1498   1.380   7.068   7.117 -0.0445 -0.1806 -0.0805
   99POPC   C2B 1499   1.318   6.679   6.972 -0.3522 -0.4072 -0.1652
   99POPC   C3B 1500   1.090   6.484   6.611  0.1421 -0.0326  0.1178
   99POPC   C4B 1501   1.198   6.158   6.380 -0.1988 -0.2681 -0.0535
  100POPC   NC3 1502   3.022   2.804   7.665  0.0265 -0.2438  0.1035
  100POPC   PO4 1503   2.797   3.185   7.765  0.0550  0.2928 -0.4362
  100POPC   GL1 1504   2.702   3.190   7.335  0.3254 -0.0849 -0.1562
  100POPC   GL2 1505   2.660   3.525   7.325  0.0849  0.1645  0.2612
  100POPC   C1A 1506   2.431   3.151   6.970  0.3295  0.3402  0.2663
  100POPC   D2A 1507   2.630   2.936   6.590  0.0139 -0.2068  0.0357
  100POPC   C3A 1508   3.125   2.826   6.672  0.0928  0.0258  0.2049
  100POPC   C4A 1509   3.502   2.810   6.785 -0.0722 -0.3060  0.1839
  100POPC   C1B 1510   2.878   3.357   6.906  0.2937 -0.1162 -0.3153
  100POPC   C2B 1511   3.071   3.398   6.594 -0.2103  0.1269  0.1022
  100POPC   C3B 1512   3.309   3.263   6.226  0.1743 -0.1503 -0.0325
  100POPC   C4B 1513   3.256   2.964   5.842 -0.2622 -0.0493 -0.2506
  101POPC   NC3 1514   6.218   5.366   7.431 -0.1794  0.3417  0.2605
  101POPC   PO4 1515   6.342   4.836   7.357 -0.1310 -0.0058 -0.1783
  101POPC   GL1 1516   5.968   4.695   6.993 -0.0781  0.3170 -0.0531
  101POPC   GL2 1517   5.635   4.748   7.069 -0.0092  0.3623  0.0715
  101POPC   C1A 1518   5.766   4.615   6.609 -0.1365 -0.1381 -0.1844
  101POPC   D2A 1519   5.650   4.710   6.177 -0.0328 -0.1163  0.0392
  101POPC   C3A 1520   6.063   4.609   5.955  0.1250 -0.1208  0.0726
  101POPC   C4A 1521   6.167   4.749   5.584 -0.1089  0.4075  0.0011
  101POPC   C1B 1522   5.448   4.946   6.811 -0.0593 -0.1035 -0.1404
  101POPC   C2B 1523   5.204   5.244   6.684  0.0426 -0.2099  0.2198
  101POPC   C3B 1524   5.063   5.606   6.362  0.0634 -0.0446  0.0193
  101POPC   C4B 1525   5.162   5.906   6.027 -0.1534 -0.0693 -0.2042
  102POPC   NC3 1526   9.980   0.341   8.722  0.1089  0.0962  0.0565
  102POPC   PO4 1527  10.051   0.164   8.271  0.1646  0.0570  0.0838
  102POPC   GL1 1528   9.729   0.260   7.989 -0.4429 -0.2619  0.0004
  102POPC   GL2 1529   9.879   0.039   7.783 -0.1413 -0.1573  0.0163
  102POPC   C1A 1530   9.429  -0.022   7.731 -0.0033  0.1637  0.1224
  102POPC   D2A 1531   9.466  -0.348   7.568  0.1293  0.0130 -0.1361
  102POPC   C3A 1532   9.527  -0.689   7.594  0.2014 -0.1402  0.1944
  102POPC   C4A 1533   9.315  -1.183   7.512  0.2075  0.0766 -0.0580
  102POPC   C1B 1534   9.815   0.049   7.466  0.1162  0.0361  0.0159
  102POPC   C2B 1535   9.702   0.201   7.005  0.2675 -0.0413  0.3426
  102POPC   C3B 1536  10.006   0.509   6.815  0.0913 -0.0186  0.1610
  102POPC   C4B 1537  10.201   0.501   6.492  0.1673  0.1350 -0.3078
  103POPC   NC3 1538   8.465   0.873   8.570  0.3172 -0.0362  0.0015
  103POPC   PO4 1539   8.615   0.887   7.997 -0.0131  0.1812 -0.0123
  103POPC   GL1 1540   8.491   0.919   7.611  0.2439  0.1081 -0.1616
  103POPC   GL2 1541   8.172   0.832   7.561  0.3417  0.0551  0.2402
  103POPC   C1A 1542   8.461   0.957   7.123  0.0669 -0.0519  0.1406
  103POPC   D2A 1543   8.637   0.759   6.824  0.1616  0.0176  0.4377
  103POPC   C3A 1544   9.041   0.617   6.648 -0.0708  0.0990  0.1671
  103POPC   C4A 1545   9.171   0.512   6.217  0.0835  0.0456  0.1760
  103POPC   C1B 1546   8.194   0.429   7.817 -0.0349 -0.0628  0.1777
  103POPC   C2B 1547   8.369   0.054   8.024  0.1327 -0.0007 -0.1475
  103POPC   C3B 1548   8.485  -0.427   7.965  0.0951  0.5214  0.1473
  103POPC   C4B 1549   8.467  -0.645   7.646 -0.4445 -0.0786  0.0388
  104POPC   NC3 1550  10.465   5.424   7.417 -0.0987  0.2269 -0.0142
  104POPC   PO4 1551  10.937   5.516   7.397  0.0971 -0.2386 -0.0052
  104POPC   GL1 1552  10.756   5.418   7.038  0.2967  0.0611 -0.3088
  104POPC   GL2 1553  10.393   5.445   6.954  0.2073 -0.0363 -0.0213
  104POPC   C1A 1554  10.792   5.130   6.592 -0.0205  0.0990 -0.0617
  104POPC   D2A 1555  10.860   5.094   6.192  0.1526  0.0276 -0.1134
  104POPC   C3A 1556  11.174   4.886   5.969 -0.1091 -0.1962 -0.0688
  104POPC   C4A 1557  11.170   4.995   5.557 -0.1802  0.2162  0.1775
  104POPC   C1B 1558  10.496   5.504   6.492 -0.0121 -0.1578 -0.1162
  104POPC   C2B 1559  10.734   5.520   6.046 -0.2909  0.0420  0.2878
  104POPC   C3B 1560  10.960   5.327   5.773 -0.2089 -0.0198 -0.1387
  104POPC   C4B 1561  11.073   5.420   5.297  0.0757  0.1948  0.2399
  105POPC   NC3 1562   9.420   4.037   7.362  0.1259  0.0928 -0.0205
  105POPC   PO4 1563   9.790   4.155   7.369 -0.0174 -0.0679 -0.0810
  105POPC   GL1 1564   9.882   3.928   7.047 -0.0444  0.0033 -0.0470
  105POPC   GL2 1565  10.208   3.984   7.069 -0.1313 -0.1462  0.0368
  105POPC   C1A 1566   9.887   3.875   6.644  0.0438 -0.0334  0.0553
  105POPC   D2A 1567  10.170   3.848   6.299  0.1748  0.3598  0.0726
  105POPC   C3A 1568  10.242   4.244   6.099 -0.0668 -0.1260  0.5640
  105POPC   C4A 1569  10.487   4.444   5.831 -0.0906 -0.2307 -0.2141
  105POPC   C1B 1570  10.343   4.189   6.723  0.2677  0.3646 -0.0990
  105POPC   C2B 1571  10.120   4.580   6.524 -0.0594 -0.0481 -0.0054
  105POPC   C3B 1572  10.049   4.787   6.156 -0.2618  0.1816 -0.0805
  105POPC   C4B 1573  10.458   4.920   5.966 -0.0892  0.0366  0.0493
  106POPC   NC3 1574   1.726   2.714   7.470  0.4843  0.1783 -0.0563
  106POPC   PO4 1575   1.281   2.783   7.584  0.3454  0.0372  0.2434
  106POPC   GL1 1576   1.100   2.710   7.247 -0.2032  0.3353 -0.0463
  106POPC   GL2 1577   1.248   2.868   6.901  0.0022  0.0548  0.3147
  106POPC   C1A 1578   0.695   2.600   6.874  0.0175 -0.1076 -0.0098
  106POPC   D2A 1579   0.588   2.366   6.522 -0.1433 -0.3520 -0.0146
  106POPC   C3A 1580   0.080   2.453   6.340  0.2473 -0.2167  0.0218
  106POPC   C4A 1581  -0.317   2.256   6.371 -0.1295 -0.2819  0.1859
  106POPC   C1B 1582   1.398   3.035   6.509  0.0959  0.0483  0.1067
  106POPC   C2B 1583   1.693   3.052   6.171  0.1208  0.1135 -0.0222
  106POPC   C3B 1584   1.925   2.968   5.740  0.2799  0.1444  0.2434
  106POPC   C4B 1585   1.975   2.949   5.340  0.1983 -0.3018 -0.2793
  107POPC   NC3 1586   0.519   4.724   7.902 -0.0347 -0.0822  0.0802
  107POPC   PO4 1587   0.125   4.526   7.653  0.2370 -0.0880 -0.0867
  107POPC   GL1 1588   0.390   4.524   7.348 -0.0270 -0.0244 -0.0016
  107POPC   GL2 1589   0.678   4.439   7.307  0.0916 -0.0033  0.4039
  107POPC   C1A 1590   0.410   4.413   6.893 -0.2315 -0.1159 -0.2301
  107POPC   D2A 1591   0.630   4.388   6.468  0.1649 -0.0971  0.3001
  107POPC   C3A 1592   0.283   4.438   6.054 -0.1762  0.0864  0.0600
  107POPC   C4A 1593   0.394   4.473   5.694  0.0681  0.1226  0.0908
  107POPC   C1B 1594   0.865   4.563   7.012 -0.1548 -0.1369 -0.0877
  107POPC   C2B 1595   0.910   4.755   6.705  0.1399 -0.3457 -0.1601
  107POPC   C3B 1596   0.961   4.729   6.307 -0.0694  0.1426 -0.4950
  107POPC   C4B 1597   1.298   4.712   6.104 -0.2354  0.0763  0.2788
  108POPC   NC3 1598   6.826   0.371   8.173 -0.0451 -0.1438  0.1410
  108POPC   PO4 1599   6.808   0.726   7.843 -0.0155  0.0525  0.1150
  108POPC   GL1 1600   6.884   0.638   7.405  0.2370  0.1090  0.0297
  108POPC   GL2 1601   6.593   0.645   7.276  0.1008 -0.0450  0.2233
  108POPC   C1A 1602   6.996   0.427   7.040  0.4230  0.0330  0.2868
  108POPC   D2A 1603   7.233   0.193   6.719  0.2346  0.0783  0.1788
  108POPC   C3A 1604   7.262   0.554   6.518 -0.2400  0.0563  0.1025
  108POPC   C4A 1605   7.090   0.855   6.210 -0.0563  0.0433 -0.2682
  108POPC   C1B 1606   6.498   0.331   7.059 -0.1006  0.0408  0.0877
  108POPC   C2B 1607   6.635   0.275   6.685 -0.3443  0.1526 -0.2544
  108POPC   C3B 1608   6.534   0.102   6.259 -0.0933 -0.0644  0.1436
  108POPC   C4B 1609   6.758  -0.116   5.941  0.2950 -0.0118  0.0245
  109POPC   NC3 1610   5.735   6.888   7.672 -0.1339  0.0847 -0.2290
  109POPC   PO4 1611   5.268   7.077   7.786 -0.5610 -0.1009 -0.1785
  109POPC   GL1 1612   5.256   7.441   7.396  0.1935 -0.1700 -0.0732
  109POPC   GL2 1613   5.421   7.664   7.359  0.2844 -0.1916 -0.5341
  109POPC   C1A 1614   5.376   7.387   6.971 -0.1506 -0.0812  0.1548
  109POPC   D2A 1615   5.228   7.274   6.394 -0.0287 -0.1772  0.0493
  109POPC   C3A 1616   5.476   7.295   6.034  0.0534 -0.0063  0.0241
  109POPC   C4A 1617   5.944   7.086   5.954  0.1313 -0.1524 -0.1018
  109POPC   C1B 1618   5.037   7.726   7.067  0.1024 -0.0199 -0.0339
  109POPC   C2B 1619   5.105   7.669   6.661 -0.1473  0.0414 -0.1763
  109POPC   C3B 1620   5.226   7.852   6.387  0.0826 -0.3263  0.1264
  109POPC   C4B 1621   5.597   7.908   6.271 -0.2493  0.3449  0.1172
  110POPC   NC3 1622   0.619   9.923   7.578  0.2818  0.1965  0.1722
  110POPC   PO4 1623   0.492  10.272   7.371  0.0423 -0.1392 -0.2241
  110POPC   GL1 1624   0.495  10.129   7.031  0.0319  0.2107  0.1716
  110POPC   GL2 1625   0.611   9.864   7.064 -0.2683  0.0403  0.2575
  110POPC   C1A 1626   0.686  10.116   6.589  0.0848  0.0288 -0.0855
  110POPC   D2A 1627   0.680   9.960   6.172 -0.2540  0.0150 -0.1831
  110POPC   C3A 1628   0.365   9.731   5.885 -0.1326  0.0380 -0.1767
  110POPC   C4A 1629   0.118   9.340   5.930  0.0645 -0.3959  0.3696
  110POPC   C1B 1630   0.381   9.685   6.754 -0.2621 -0.0849 -0.0433
  110POPC   C2B 1631   0.096   9.731   6.321 -0.0091 -0.1663 -0.0575
  110POPC   C3B 1632  -0.302   9.901   6.133 -0.1970 -0.0317  0.0226
  110POPC   C4B 1633  -0.564  10.092   5.785 -0.1796 -0.0651 -0.2058
  111POPC   NC3 1634   9.133   0.900   7.934  0.0700  0.0526  0.2993
  111POPC   PO4 1635   9.331   0.589   8.051  0.0172  0.0436  0.1472
  111POPC   GL1 1636   9.100   0.363   7.764 -0.0699 -0.1428  0.2234
  111POPC   GL2 1637   8.741   0.511   7.720  0.0909  0.0131 -0.1733
  111POPC   C1A 1638   8.871  -0.055   7.830  0.0311 -0.0033 -0.1824
  111POPC   D2A 1639   8.980  -0.586   7.726 -0.0180 -0.4476  0.0537
  111POPC   C3A 1640   8.881  -0.639   7.358  0.2644  0.1078  0.3226
  111POPC   C4A 1641   8.721  -0.881   7.044 -0.0804 -0.2475  0.1464
  111POPC   C1B 1642   8.459   0.403   7.393  0.2159 -0.3516  0.0887
  111POPC   C2B 1643   8.260   0.295   6.951 -0.1065 -0.0905  0.0521
  111POPC   C3B 1644   8.280  -0.117   6.812 -0.1876 -0.2544  0.1273
  111POPC   C4B 1645   8.367  -0.480   7.034 -0.0851  0.0609 -0.2291
  112POPC   NC3 1646   2.548   4.569   8.410  0.2385 -0.0243  0.0807
  112POPC   PO4 1647   2.286   4.676   8.135  0.0349 -0.4491  0.0877
  112POPC   GL1 1648   2.365   4.814   7.771  0.1532 -0.0669  0.0305
  112POPC   GL2 1649   2.516   4.930   7.550 -0.1564 -0.0273 -0.1280
  112POPC   C1A 1650   2.013   4.898   7.458 -0.0963  0.0121 -0.1869
  112POPC   D2A 1651   1.513   4.861   7.331  0.0918 -0.1406  0.0965
  112POPC   C3A 1652   1.401   4.855   6.914 -0.1574 -0.0915 -0.2008
  112POPC   C4A 1653   1.382   4.615   6.624  0.2035 -0.1782  0.0626
  112POPC   C1B 1654   2.776   4.927   7.230  0.2804 -0.0098 -0.0589
  112POPC   C2B 1655   2.796   4.845   6.788  0.0272 -0.4615  0.0423
  112POPC   C3B 1656   2.549   5.088   6.537  0.2596  0.1215 -0.0900
  112POPC   C4B 1657   2.708   5.513   6.533 -0.1612  0.3242 -0.1353
  113POPC   NC3 1658   2.029   6.734   7.801 -0.0423  0.0516  0.2983
  113POPC   PO4 1659   1.779   6.867   7.550  0.2569  0.2438 -0.0739
  113POPC   GL1 1660   1.966   6.960   7.240  0.2708 -0.1978  0.1427
  113POPC   GL2 1661   2.094   7.304   7.127 -0.1573  0.0111 -0.0819
  113POPC   C1A 1662   1.938   6.922   6.838 -0.1411 -0.0762 -0.1852
  113POPC   D2A 1663   1.819   7.082   6.487 -0.3016 -0.1084  0.1111
  113POPC   C3A 1664   1.939   6.889   6.262  0.1614 -0.0025  0.1452
  113POPC   C4A 1665   1.735   6.822   5.929  0.0150 -0.0169 -0.0356
  113POPC   C1B 1666   1.730   7.410   6.861 -0.0094  0.1327 -0.2941
  113POPC   C2B 1667   1.418   7.318   6.633 -0.2672  0.0647 -0.0784
  113POPC   C3B 1668   1.356   6.968   6.521  0.0414 -0.2993  0.0973
  113POPC   C4B 1669   1.580   6.611   6.508 -0.0505  0.1848  0.1430
  114POPC   NC3 1670   0.497   7.030   7.526 -0.2422  0.0113  0.0650
  114POPC   PO4 1671   0.887   7.355   7.493  0.2442 -0.0207  0.1310
  114POPC   GL1 1672   0.749   7.585   7.290 -0.0313 -0.0027  0.0276
  114POPC   GL2 1673   0.844   7.938   7.233 -0.0285 -0.4920  0.2054
  114POPC   C1A 1674   0.814   7.609   6.834  0.1742 -0.1100 -0.0136
  114POPC   D2A 1675   0.712   7.787   6.478 -0.0757 -0.5542  0.1867
  114POPC   C3A 1676   0.903   7.996   6.209 -0.0679  0.3306 -0.2590
  114POPC   C4A 1677   1.015   8.215   5.916  0.1558  0.0022 -0.2322
  114POPC   C1B 1678   0.987   8.160   6.755 -0.0801 -0.2852  0.1815
  114POPC   C2B 1679   1.328   8.206   6.351  0.0432 -0.1396  0.0545
  114POPC   C3B 1680   1.723   8.079   6.179 -0.0001 -0.1566  0.0310
  114POPC   C4B 1681   1.958   8.284   5.956 -0.2206 -0.2351 -0.0225
  115POPC   NC3 1682   2.220   4.272   7.806  0.2902 -0.2804  0.1649
  115POPC   PO4 1683   1.763   4.407   7.732 -0.1141 -0.0116  0.0659
  115POPC   GL1 1684   1.887   4.391   7.364  0.1400 -0.2019  0.2128
  115POPC   GL2 1685   1.542   4.359   7.194 -0.1837 -0.3623  0.3778
  115POPC   C1A 1686   1.874   4.737   6.999  0.1364  0.0818  0.2444
  115POPC   D2A 1687   1.892   4.916   6.660 -0.0409  0.1332 -0.1151
  115POPC   C3A 1688   1.559   5.097   6.438  0.0716  0.0208  0.1104
  115POPC   C4A 1689   1.513   5.180   5.921 -0.4910  0.2476 -0.0024
  115POPC   C1B 1690   1.738   4.284   6.799  0.5071  0.2194  0.1841
  115POPC   C2B 1691   1.829   4.465   6.394 -0.0363 -0.0838 -0.2070
  115POPC   C3B 1692   1.789   4.796   6.111  0.1772  0.1151  0.1492
  115POPC   C4B 1693   1.735   4.726   5.708  0.0818  0.2408 -0.0716
  116POPC   NC3 1694   3.347   5.829   8.234  0.3901  0.2873 -0.0412
  116POPC   PO4 1695   3.341   5.730   7.895 -0.1411 -0.1239  0.1548
  116POPC   GL1 1696   3.533   5.645   7.513 -0.2441 -0.0431 -0.3836
  116POPC   GL2 1697   3.804   5.814   7.313 -0.2420  0.1508 -0.2038
  116POPC   C1A 1698   3.659   5.392   7.112 -0.0527 -0.0736  0.0357
  116POPC   D2A 1699   3.804   5.224   6.761 -0.1238  0.1757 -0.3823
  116POPC   C3A 1700   4.168   5.110   6.835 -0.0779  0.0948  0.2978
  116POPC   C4A 1701   4.328   5.096   7.274  0.5032  0.0907  0.0691
  116POPC   C1B 1702   3.614   5.896   7.061 -0.1443 -0.1008  0.0556
  116POPC   C2B 1703   3.522   5.655   6.725  0.0527  0.0488  0.2346
  116POPC   C3B 1704   3.293   5.361   6.489  0.0106  0.0878  0.2023
  116POPC   C4B 1705   3.353   5.104   6.085  0.1314  0.4626  0.2503
  117POPC   NC3 1706   2.307   7.582   8.058  0.1961 -0.0874 -0.0364
  117POPC   PO4 1707   2.081   7.966   8.070 -0.0956 -0.5115  0.0637
  117POPC   GL1 1708   2.093   7.868   7.562 -0.1999 -0.0804 -0.2694
  117POPC   GL2 1709   1.831   7.759   7.446  0.0389 -0.3195 -0.0525
  117POPC   C1A 1710   2.379   8.183   7.322  0.2021  0.0774 -0.0266
  117POPC   D2A 1711   2.519   8.459   6.948 -0.2036 -0.0090 -0.2388
  117POPC   C3A 1712   2.381   8.341   6.564  0.0231  0.2302 -0.1370
  117POPC   C4A 1713   2.084   8.057   6.605 -0.2258 -0.1619  0.0858
  117POPC   C1B 1714   1.778   7.869   7.036  0.3515  0.1377  0.1885
  117POPC   C2B 1715   1.434   7.811   6.790 -0.0638  0.3370  0.1084
  117POPC   C3B 1716   1.370   7.711   6.324 -0.1744  0.2209  0.0827
  117POPC   C4B 1717   1.261   7.686   5.949 -0.3292 -0.2137 -0.0210
  118POPC   NC3 1718   3.957   7.603   8.052  0.0841 -0.1241 -0.0668
  118POPC   PO4 1719   4.044   8.014   7.875 -0.2230 -0.0606 -0.0179
  118POPC   GL1 1720   4.004   7.834   7.529  0.3564 -0.0924  0.1167
  118POPC   GL2 1721   4.053   7.520   7.531  0.2874 -0.2112 -0.1288
  118POPC   C1A 1722   3.701   8.024   7.135 -0.1921  0.0956  0.1444
  118POPC   D2A 1723   3.327   8.034   6.891  0.0000  0.0217 -0.1331
  118POPC   C3A 1724   3.427   8.142   6.513 -0.1685  0.0746  0.2755
  118POPC   C4A 1725   3.591   8.582   6.433  0.2470  0.0764 -0.1489
  118POPC   C1B 1726   3.871   7.490   7.115 -0.0315  0.0460  0.0762
  118POPC   C2B 1727   3.875   7.281   6.726 -0.1599  0.1527  0.1472
  118POPC   C3B 1728   4.069   7.072   6.283 -0.0411 -0.1555  0.0282
  118POPC   C4B 1729   4.402   6.963   6.122 -0.2013 -0.0744  0.0752
  119POPC   NC3 1730   2.751   8.291   8.141  0.2123 -0.0427  0.0968
  119POPC   PO4 1731   2.618   7.857   7.848 -0.2953 -0.1196 -0.0825
  119POPC   GL1 1732   2.655   7.658   7.515 -0.2053  0.0301  0.4314
  119POPC   GL2 1733   2.453   7.395   7.494 -0.0920 -0.2907 -0.2858
  119POPC   C1A 1734   2.399   7.716   7.103  0.1450  0.0432  0.0141
  119POPC   D2A 1735   2.582   7.808   6.618 -0.0283 -0.1641  0.1388
  119POPC   C3A 1736   2.682   7.579   6.262  0.0186 -0.2643  0.0794
  119POPC   C4A 1737   2.695   7.818   5.787 -0.4809  0.0444  0.1220
  119POPC   C1B 1738   2.854   7.373   7.145 -0.2955  0.2333 -0.5373
  119POPC   C2B 1739   2.983   7.507   6.713 -0.1773  0.1728 -0.3216
  119POPC   C3B 1740   3.175   7.679   6.531 -0.2194  0.1394 -0.2457
  119POPC   C4B 1741   3.432   7.775   6.170 -0.1305 -0.2082 -0.0064
  120POPC   NC3 1742   5.378   9.063   8.555  0.0295 -0.1324 -0.1291
  120POPC   PO4 1743   5.555   8.914   8.156 -0.0192  0.2507 -0.0950
  120POPC   GL1 1744   5.430   9.161   7.835  0.3124 -0.1056  0.0448
  120POPC   GL2 1745   5.058   9.196   7.781  0.1980  0.0490  0.0418
  120POPC   C1A 1746   5.516   9.328   7.458  0.0358  0.3501  0.0658
  120POPC   D2A 1747   5.836   9.305   7.121 -0.1720  0.0975 -0.1496
  120POPC   C3A 1748   6.108   9.559   7.166  0.0608 -0.2019  0.1031
  120POPC   C4A 1749   6.267   9.857   7.441 -0.3053 -0.1240 -0.1036
  120POPC   C1B 1750   4.910   8.792   7.791  0.1360  0.0170  0.0535
  120POPC   C2B 1751   4.798   8.601   7.431 -0.1838  0.2499 -0.0782
  120POPC   C3B 1752   4.837   8.723   7.039  0.0535  0.0359  0.1400
  120POPC   C4B 1753   4.509   8.622   6.819  0.3981 -0.0145  0.1051
  121POPC   NC3 1754   0.929   1.382   7.541  0.0016 -0.3064  0.2322
  121POPC   PO4 1755   1.062   1.028   7.824 -0.3397 -0.1304 -0.1293
  121POPC   GL1 1756   1.239   1.008   7.416  0.1964  0.1461  0.0243
  121POPC   GL2 1757   1.570   1.254   7.391  0.1753 -0.0161 -0.3457
  121POPC   C1A 1758   1.457   0.894   7.046  0.0360 -0.1439  0.1917
  121POPC   D2A 1759   1.420   0.711   6.582  0.0390  0.1515  0.0781
  121POPC   C3A 1760   1.670   0.616   6.224 -0.2484  0.3161  0.4425
  121POPC   C4A 1761   1.620   0.433   5.815 -0.0530 -0.2241  0.3948
  121POPC   C1B 1762   1.378   1.406   7.060 -0.1674 -0.2091 -0.0017
  121POPC   C2B 1763   1.206   1.252   6.733  0.1376 -0.1410  0.0215
  121POPC   C3B 1764   1.266   1.132   6.303  0.3075  0.1037 -0.1137
  121POPC   C4B 1765   1.368   1.182   5.931 -0.1899  0.0962  0.0661
  122POPC   NC3 1766   2.696   9.191   7.874 -0.1113  0.1010 -0.3550
  122POPC   PO4 1767   2.310   9.292   7.663  0.2057 -0.1334 -0.0709
  122POPC   GL1 1768   2.431   9.240   7.283 -0.0550 -0.2199 -0.0658
  122POPC   GL2 1769   2.531   8.843   7.249  0.0648 -0.0952  0.0078
  122POPC   C1A 1770   2.650   9.538   7.061  0.0563  0.1116 -0.0971
  122POPC   D2A 1771   2.651   9.985   6.866  0.1990  0.2544 -0.0044
  122POPC   C3A 1772   2.658   9.916   6.395  0.1769  0.0228  0.1897
  122POPC   C4A 1773   2.853   9.709   6.119  0.3018  0.1653 -0.1562
  122POPC   C1B 1774   2.128   8.791   7.021  0.0128 -0.2326 -0.0208
  122POPC   C2B 1775   2.050   8.892   6.628  0.1435  0.1322  0.0097
  122POPC   C3B 1776   2.011   9.150   6.263  0.1432 -0.1517 -0.1576
  122POPC   C4B 1777   1.934   9.578   6.100  0.0947  0.1519  0.4327
  123POPC   NC3 1778   4.972   9.648   7.989  0.0200 -0.1838 -0.3046
  123POPC   PO4 1779   5.336   9.938   8.028  0.1946 -0.2825  0.0102
  123POPC   GL1 1780   5.186   9.928   7.642  0.2697  0.3451  0.1599
  123POPC   GL2 1781   5.093  10.190   7.480 -0.1126  0.0525  0.3587
  123POPC   C1A 1782   5.111   9.559   7.367 -0.2348  0.0381  0.4017
  123POPC   D2A 1783   5.286   9.156   7.001  0.1837 -0.2136 -0.1907
  123POPC   C3A 1784   5.455   9.373   6.685  0.1145 -0.1834  0.2820
  123POPC   C4A 1785   5.541   9.424   6.176 -0.0409  0.1154 -0.0301
  123POPC   C1B 1786   5.396  10.075   7.165  0.0149 -0.0875  0.0339
  123POPC   C2B 1787   5.506   9.884   6.765  0.0006  0.0910  0.1342
  123POPC   C3B 1788   5.744   9.839   6.333  0.1358  0.0212  0.1225
  123POPC   C4B 1789   5.887  10.140   6.045 -0.0668 -0.0211  0.1758
  124POPC   NC3 1790   5.951   1.446   7.609 -0.2490 -0.3075 -0.1985
  124POPC   PO4 1791   5.542   1.514   7.924 -0.0282 -0.1972 -0.3641
  124POPC   GL1 1792   5.424   1.351   7.465 -0.1368  0.1099 -0.0492
  124POPC   GL2 1793   5.804   1.002   7.369  0.2363  0.0743 -0.0276
  124POPC   C1A 1794   5.608   1.307   7.079  0.4119  0.0041  0.3703
  124POPC   D2A 1795   5.468   1.167   6.646 -0.3235  0.0300 -0.1902
  124POPC   C3A 1796   5.100   1.138   6.417 -0.2656  0.3678  0.0990
  124POPC   C4A 1797   4.871   1.112   6.047  0.1675 -0.0249 -0.0911
  124POPC   C1B 1798   5.800   0.891   6.943  0.0560  0.0982 -0.0563
  124POPC   C2B 1799   5.926   1.038   6.523 -0.1019  0.0524 -0.2088
  124POPC   C3B 1800   6.147   0.982   6.189 -0.3482  0.0643  0.1498
  124POPC   C4B 1801   6.456   1.004   5.937  0.0458  0.0255  0.3940
  125POPC   NC3 1802   9.371   7.004   7.804 -0.1172  0.1965  0.0834
  125POPC   PO4 1803   9.792   6.793   7.899  0.2428 -0.5152 -0.2445
  125POPC   GL1 1804   9.749   6.506   7.542 -0.3029 -0.3828 -0.1146
  125POPC   GL2 1805   9.527   6.716   7.279 -0.1456 -0.0632  0.0030
  125POPC   C1A 1806   9.810   6.296   7.084 -0.1286  0.3998  0.1686
  125POPC   D2A 1807   9.763   6.381   6.645  0.1276 -0.3152 -0.1886
  125POPC   C3A 1808   9.687   6.149   6.357 -0.0114  0.1878 -0.1853
  125POPC   C4A 1809   9.546   5.752   6.306 -0.2412  0.1752 -0.1015
  125POPC   C1B 1810   9.743   6.816   6.939  0.2379  0.0137  0.1310
  125POPC   C2B 1811   9.761   6.851   6.421 -0.1693 -0.0898  0.2645
  125POPC   C3B 1812   9.689   6.722   6.040  0.0050  0.0029  0.1549
  125POPC   C4B 1813   9.534   6.580   5.656  0.0794  0.1675  0.2899
  126POPC   NC3 1814   8.992   5.264   7.916 -0.0335 -0.1856  0.2765
  126POPC   PO4 1815   8.954   5.510   7.573 -0.1451  0.0061  0.2638
  126POPC   GL1 1816   8.646   5.747   7.333 -0.0679 -0.0717  0.2557
  126POPC   GL2 1817   8.506   5.966   7.426 -0.2034 -0.1766  0.0013
  126POPC   C1A 1818   8.570   5.646   6.985 -0.1242  0.1806 -0.0013
  126POPC   D2A 1819   8.649   5.260   6.663 -0.0036 -0.1121  0.0809
  126POPC   C3A 1820   8.775   5.430   6.241 -0.0552  0.1672  0.1277
  126POPC   C4A 1821   9.055   5.512   6.003 -0.2184  0.0459  0.2072
  126POPC   C1B 1822   8.264   6.185   7.062  0.0845  0.0637  0.1316
  126POPC   C2B 1823   8.242   6.024   6.577  0.0564  0.3295 -0.1412
  126POPC   C3B 1824   8.145   5.962   6.142 -0.0629 -0.2609  0.1048
  126POPC   C4B 1825   7.887   5.747   5.784 -0.1895 -0.0277  0.4014
  127POPC   NC3 1826   9.939  10.250   8.135  0.1209 -0.0185  0.0696
  127POPC   PO4 1827  10.405  10.149   7.968  0.1610  0.0303  0.2202
  127POPC   GL1 1828  10.150  10.223   7.627  0.1001 -0.2457  0.4368
  127POPC   GL2 1829   9.967  10.175   7.654 -0.1187  0.5444  0.2079
  127POPC   C1A 1830  10.153  10.420   7.255  0.0160 -0.0016 -0.2712
  127POPC   D2A 1831   9.773  10.288   6.980  0.1151 -0.2651 -0.1843
  127POPC   C3A 1832   9.433  10.106   7.126 -0.0017  0.0258 -0.0774
  127POPC   C4A 1833   9.243   9.688   7.073  0.2470  0.2335  0.1582
  127POPC   C1B 1834   9.895   9.935   7.270 -0.0651 -0.2367  0.2000
  127POPC   C2B 1835  10.024   9.946   6.769 -0.1187 -0.0045 -0.0409
  127POPC   C3B 1836  10.016  10.018   6.500  0.3448  0.2835 -0.4076
  127POPC   C4B 1837   9.833   9.753   6.114  0.1847 -0.1192 -0.0418
  128POPC   NC3 1838   4.738  10.127   7.813 -0.2891  0.2172 -0.1090
  128POPC   PO4 1839   5.112  10.412   7.978  0.0267 -0.2746  0.2443
  128POPC   GL1 1840   5.294  10.684   7.657  0.0265 -0.1745  0.4502
  128POPC   GL2 1841   5.173  10.997   7.685 -0.0541 -0.3286 -0.2520
  128POPC   C1A 1842   5.494  10.538   7.282  0.3654  0.1057 -0.1128
  128POPC   D2A 1843   5.706  10.502   6.868 -0.3203 -0.1091 -0.0424
  128POPC   C3A 1844   5.601  10.361   6.447  0.0850  0.1841 -0.0401
  128POPC   C4A 1845   5.280  10.029   6.283 -0.0679  0.3897 -0.2815
  128POPC   C1B 1846   4.985  11.047   7.293  0.0689 -0.2656 -0.1193
  128POPC   C2B 1847   4.855  11.000   6.872 -0.0022 -0.2043 -0.0655
  128POPC   C3B 1848   4.680  10.690   6.484 -0.1995 -0.1372 -0.2252
  128POPC   C4B 1849   4.958  10.444   6.259 -0.1425 -0.3654  0.2981
  129POPC   NC3 1850   4.580   4.646   7.998  0.0171  0.1482 -0.2374
  129POPC   PO4 1851   4.170   4.403   7.896 -0.1553  0.1172 -0.0161
  129POPC   GL1 1852   4.092   4.476   7.537 -0.2515 -0.0397  0.1483
  129POPC   GL2 1853   4.376   4.600   7.344 -0.0095 -0.0055  0.1043
  129POPC   C1A 1854   3.971   4.250   7.105  0.3378 -0.1948  0.0498
  129POPC   D2A 1855   3.812   4.135   6.685 -0.3328  0.0218 -0.1067
  129POPC   C3A 1856   3.370   4.173   6.556 -0.2046 -0.2988 -0.0503
  129POPC   C4A 1857   3.336   4.349   6.184  0.2223 -0.0211 -0.1635
  129POPC   C1B 1858   4.420   4.680   6.814 -0.0252  0.0939 -0.1926
  129POPC   C2B 1859   4.359   4.731   6.392  0.0751  0.1594 -0.0775
  129POPC   C3B 1860   4.361   4.345   6.143 -0.0292  0.1849  0.1993
  129POPC   C4B 1861   4.224   3.974   6.147  0.0175 -0.2222  0.1527
  130POPC   NC3 1862   7.845   0.240   8.428  0.0985 -0.3105  0.0491
  130POPC   PO4 1863   7.404   0.353   8.476 -0.0573  0.6092 -0.0327
  130POPC   GL1 1864   7.488   0.314   8.045 -0.2109  0.0610  0.0719
  130POPC   GL2 1865   7.245   0.179   7.931  0.2414  0.1579  0.1769
  130POPC   C1A 1866   7.705   0.396   7.756 -0.0829 -0.2708  0.3276
  130POPC   D2A 1867   7.900   0.306   7.423 -0.0613 -0.1470 -0.1144
  130POPC   C3A 1868   8.017   0.679   7.126  0.0028  0.1910  0.1128
  130POPC   C4A 1869   8.127   0.779   6.787  0.2713 -0.0135 -0.2625
  130POPC   C1B 1870   7.263   0.313   7.525  0.0710 -0.1519 -0.3365
  130POPC   C2B 1871   7.312   0.021   7.211 -0.3453  0.3278 -0.3915
  130POPC   C3B 1872   7.359  -0.243   6.842  0.0105  0.2153  0.2485
  130POPC   C4B 1873   7.106  -0.350   6.452 -0.1478 -0.0833 -0.1545
  131POPC   NC3 1874   6.383   4.441   7.741 -0.0534 -0.1624  0.0836
  131POPC   PO4 1875   6.788   4.541   7.566  0.1815 -0.1984  0.3442
  131POPC   GL1 1876   6.818   4.591   7.163  0.3009 -0.2387  0.2834
  131POPC   GL2 1877   7.094   4.650   7.097 -0.0417 -0.0478  0.0095
  131POPC   C1A 1878   6.388   4.404   6.851 -0.2122 -0.0984  0.4246
  131POPC   D2A 1879   6.179   4.502   6.473 -0.1726 -0.1214  0.2972
  131POPC   C3A 1880   6.289   4.886   6.239 -0.3758  0.2722 -0.1248
  131POPC   C4A 1881   6.048   5.187   5.876 -0.1312  0.0550  0.0686
  131POPC   C1B 1882   6.833   4.884   6.735 -0.3299  0.3055  0.0299
  131POPC   C2B 1883   6.730   4.998   6.389  0.0665  0.0172  0.2750
  131POPC   C3B 1884   6.427   5.378   6.244 -0.1158 -0.2305  0.3444
  131POPC   C4B 1885   6.064   5.631   6.335  0.2291 -0.1407 -0.1763
  132POPC   NC3 1886   3.570   6.487   8.145 -0.1011  0.1508  0.3255
  132POPC   PO4 1887   3.513   6.620   7.721 -0.0474  0.3465 -0.2656
  132POPC   GL1 1888   3.369   6.683   7.383 -0.1264 -0.0021  0.0055
  132POPC   GL2 1889   3.382   7.054   7.344 -0.0734 -0.1852  0.2448
  132POPC   C1A 1890   3.229   6.461   6.936 -0.3113  0.1705  0.0913
  132POPC   D2A 1891   3.113   6.262   6.525 -0.1034  0.0525 -0.1785
  132POPC   C3A 1892   3.098   5.864   6.337 -0.1122  0.1866 -0.1188
  132POPC   C4A 1893   2.862   5.624   6.096 -0.1261  0.1783 -0.0160
  132POPC   C1B 1894   3.440   6.968   6.936 -0.0234 -0.2092  0.0585
  132POPC   C2B 1895   3.329   7.179   6.598 -0.0386 -0.1521  0.1205
  132POPC   C3B 1896   3.476   7.330   6.334 -0.0510 -0.0449 -0.1080
  132POPC   C4B 1897   3.851   7.514   6.266 -0.1159  0.0406  0.1049
  133POPC   NC3 1898   9.753   1.466   8.406 -0.1799 -0.0291 -0.0903
  133POPC   PO4 1899   9.519   1.676   8.021  0.0174 -0.1240  0.0549
  133POPC   GL1 1900   9.298   1.651   7.664  0.2696 -0.0979  0.0433
  133POPC   GL2 1901   9.231   1.336   7.614  0.0814 -0.1432 -0.0375
  133POPC   C1A 1902   9.023   1.598   7.163 -0.0097  0.0153 -0.1962
  133POPC   D2A 1903   9.154   1.568   6.745 -0.1516  0.3489  0.0187
  133POPC   C3A 1904   9.503   1.546   6.583 -0.1019  0.1257 -0.1604
  133POPC   C4A 1905   9.899   1.404   6.484  0.0664 -0.3450  0.0987
  133POPC   C1B 1906   9.405   1.246   7.270 -0.1595  0.0029  0.0165
  133POPC   C2B 1907   9.545   1.216   6.954  0.2100  0.0230  0.1824
  133POPC   C3B 1908   9.623   1.003   6.531  0.0716  0.0083  0.0842
  133POPC   C4B 1909   9.436   0.962   6.167 -0.1494 -0.2580  0.0073
  134POPC   NC3 1910  10.517   1.885   8.040 -0.1728  0.1691 -0.0739
  134POPC   PO4 1911  10.334   1.570   7.755  0.1998  0.0190  0.0234
  134POPC   GL1 1912  10.334   1.742   7.341 -0.1451 -0.1214  0.1510
  134POPC   GL2 1913   9.922   1.763   7.415  0.2953  0.1025  0.0669
  134POPC   C1A 1914  10.582   1.898   7.136 -0.0022 -0.0464 -0.2745
  134POPC   D2A 1915  11.016   2.042   6.965 -0.0030 -0.1101 -0.0800
  134POPC   C3A 1916  11.228   1.827   6.667  0.3836 -0.1472  0.3423
  134POPC   C4A 1917  11.329   1.938   6.203  0.0070 -0.0491 -0.2771
  134POPC   C1B 1918   9.476   1.732   7.250 -0.0518  0.2459  0.2197
  134POPC   C2B 1919   9.151   2.051   7.068  0.0353  0.2114  0.1443
  134POPC   C3B 1920   8.713   1.875   6.780  0.1524  0.0425  0.0435
  134POPC   C4B 1921   8.263   1.806   6.781 -0.2205  0.2932 -0.0794
  135POPC   NC3 1922   6.469   2.928   7.526  0.0371  0.0693  0.4632
  135POPC   PO4 1923   6.594   2.480   7.422 -0.1015 -0.0551  0.2347
  135POPC   GL1 1924   6.719   2.595   7.091  0.6493  0.2187  0.0416
  135POPC   GL2 1925   6.948   2.779   7.002  0.0166  0.2411  0.1211
  135POPC   C1A 1926   6.352   2.516   6.687 -0.1016  0.1292  0.0602
  135POPC   D2A 1927   6.472   2.497   6.271  0.1028  0.2165 -0.1651
  135POPC   C3A 1928   6.472   2.769   6.030  0.3567 -0.3414 -0.1644
  135POPC   C4A 1929   6.224   2.831   5.601  0.0055  0.0025 -0.2531
  135POPC   C1B 1930   6.926   2.548   6.589  0.1738  0.3509 -0.3291
  135POPC   C2B 1931   6.909   2.192   6.272 -0.0213  0.2706  0.3830
  135POPC   C3B 1932   7.241   1.916   6.037  0.1337  0.1384 -0.0660
  135POPC   C4B 1933   7.465   1.649   5.801  0.0317 -0.1908 -0.0669
  136POPC   NC3 1934   8.272   3.550   7.940 -0.1577 -0.0745 -0.2483
  136POPC   PO4 1935   8.191   3.241   7.513  0.0960  0.2756 -0.2400
  136POPC   GL1 1936   8.245   2.978   7.105  0.1828 -0.0895 -0.0735
  136POPC   GL2 1937   8.088   2.709   7.086  0.1860  0.2659 -0.1273
  136POPC   C1A 1938   8.502   2.740   6.835  0.1423 -0.2691  0.3624
  136POPC   D2A 1939   8.602   2.665   6.364 -0.0947  0.4465  0.0585
  136POPC   C3A 1940   8.871   2.364   6.291  0.3849 -0.1187  0.1885
  136POPC   C4A 1941   8.777   1.978   6.178 -0.0902 -0.1466  0.1042
  136POPC   C1B 1942   8.084   2.807   6.564 -0.1648  0.1946 -0.0149
  136POPC   C2B 1943   7.866   3.048   6.327  0.2751  0.1773  0.1605
  136POPC   C3B 1944   7.583   2.954   6.046 -0.5542  0.0988 -0.0318
  136POPC   C4B 1945   7.414   2.960   5.621 -0.1266  0.0738  0.1299
  137POPC   NC3 1946   0.054  10.071   7.551  0.0758  0.2568 -0.0644
  137POPC   PO4 1947   0.141  10.406   7.749 -0.1097  0.2991 -0.0297
  137POPC   GL1 1948   0.049  10.555   7.317  0.1581  0.1900 -0.3338
  137POPC   GL2 1949  -0.208  10.768   7.367 -0.1677 -0.0793 -0.0805
  137POPC   C1A 1950  -0.108  10.452   6.941 -0.2955 -0.1378  0.3231
  137POPC   D2A 1951  -0.066  10.719   6.688 -0.0757 -0.2939  0.3640
  137POPC   C3A 1952  -0.226  10.705   6.313 -0.0337  0.0235 -0.1290
  137POPC   C4A 1953  -0.473  10.874   5.941  0.1007  0.2199  0.3287
  137POPC   C1B 1954  -0.438  10.806   7.027 -0.1973 -0.0815  0.1039
  137POPC   C2B 1955  -0.632  10.705   6.627 -0.0797  0.0695  0.0914
  137POPC   C3B 1956  -0.892  10.440   6.542 -0.1555 -0.3380  0.0943
  137POPC   C4B 1957  -1.394  10.312   6.739  0.1713  0.1675  0.4318
  138POPC   NC3 1958   5.472   4.873   7.751 -0.4316 -0.2111  0.1111
  138POPC   PO4 1959   5.716   5.102   7.427 -0.0061  0.2886 -0.0945
  138POPC   GL1 1960   5.848   5.297   7.066 -0.0956 -0.3687 -0.2579
  138POPC   GL2 1961   5.539   5.421   6.976 -0.0104  0.0029 -0.0735
  138POPC   C1A 1962   6.031   5.603   6.852  0.1102 -0.1285  0.2159
  138POPC   D2A 1963   6.490   5.730   6.657 -0.2335  0.2960  0.0678
  138POPC   C3A 1964   6.443   5.909   6.188  0.0354  0.2651 -0.0243
  138POPC   C4A 1965   6.050   6.008   5.999 -0.2141 -0.0610 -0.3436
  138POPC   C1B 1966   5.551   5.639   6.643 -0.5470  0.3103  0.0442
  138POPC   C2B 1967   5.685   5.898   6.309  0.0251 -0.0693  0.0274
  138POPC   C3B 1968   5.633   6.282   6.143 -0.1684 -0.3550 -0.0454
  138POPC   C4B 1969   5.948   6.616   6.181  0.0134 -0.0607 -0.0891
  139POPC   NC3 1970   7.136   6.324   7.720 -0.0402 -0.2057 -0.0145
  139POPC   PO4 1971   6.798   6.281   7.859 -0.0362  0.2964 -0.1603
  139POPC   GL1 1972   6.690   6.188   7.451  0.2661 -0.0418  0.2001
  139POPC   GL2 1973   6.351   6.203   7.240 -0.0709  0.3174 -0.1681
  139POPC   C1A 1974   6.812   6.110   7.005 -0.2477  0.1711 -0.0465
  139POPC   D2A 1975   6.855   6.017   6.578 -0.2111  0.0275  0.1199
  139POPC   C3A 1976   7.298   5.775   6.520  0.1401  0.0909  0.0467
  139POPC   C4A 1977   7.602   5.544   6.280 -0.2036 -0.0329  0.1048
  139POPC   C1B 1978   6.054   6.533   7.031  0.3215 -0.0037 -0.1242
  139POPC   C2B 1979   6.067   6.712   6.670  0.2051 -0.1535  0.2655
  139POPC   C3B 1980   5.798   7.093   6.441  0.2309 -0.2484  0.0154
  139POPC   C4B 1981   5.642   7.514   6.535  0.0638 -0.1032 -0.1438
  140POPC   NC3 1982   7.513   5.988   8.514 -0.0333  0.0887  0.3219
  140POPC   PO4 1983   7.506   6.215   8.094  0.1572 -0.1944  0.2522
  140POPC   GL1 1984   7.681   6.359   7.674  0.3330  0.2352 -0.1137
  140POPC   GL2 1985   7.439   6.546   7.414 -0.1208  0.0703 -0.3253
  140POPC   C1A 1986   8.024   6.352   7.457 -0.3448 -0.0648 -0.2625
  140POPC   D2A 1987   8.265   6.664   7.186 -0.1126 -0.1333  0.1051
  140POPC   C3A 1988   8.645   6.895   7.147  0.3894  0.4274 -0.1784
  140POPC   C4A 1989   8.724   7.098   6.718 -0.4199 -0.2011 -0.3460
  140POPC   C1B 1990   7.462   6.666   6.969  0.3389  0.1034  0.0522
  140POPC   C2B 1991   7.451   6.795   6.493 -0.0129 -0.0150  0.4426
  140POPC   C3B 1992   7.019   6.837   6.324  0.2598 -0.2696  0.2146
  140POPC   C4B 1993   6.647   6.909   6.520  0.1054  0.0412  0.0082
  141POPC   NC3 1994   4.201  10.596   7.923  0.4259  0.0754 -0.2976
  141POPC   PO4 1995   4.239  10.103   7.805  0.0675 -0.1024  0.2044
  141POPC   GL1 1996   4.464  10.013   7.358  0.1771  0.2026  0.1497
  141POPC   GL2 1997   4.295  10.212   7.103  0.2333  0.0533 -0.0477
  141POPC   C1A 1998   4.845   9.940   7.109 -0.0392  0.1042  0.1954
  141POPC   D2A 1999   5.028   9.842   6.808 -0.0717  0.0930 -0.1417
  141POPC   C3A 2000   4.802   9.890   6.400  0.0707  0.1778  0.2751
  141POPC   C4A 2001   4.927   9.833   5.967  0.1853 -0.1346  0.0863
  141POPC   C1B 2002   4.306  10.250   6.680  0.2589  0.0951  0.0176
  141POPC   C2B 2003   4.170  10.128   6.264  0.1018  0.0031  0.0340
  141POPC   C3B 2004   4.524  10.225   6.079 -0.2575 -0.0562  0.0739
  141POPC   C4B 2005   4.607  10.192   5.589 -0.0001 -0.3003 -0.1652
  142POPC   NC3 2006  10.418   7.600   7.435  0.0813  0.0558 -0.0300
  142POPC   PO4 2007  10.215   7.945   7.632  0.0008  0.2618 -0.1659
  142POPC   GL1 2008  10.342   8.200   7.257 -0.2494  0.1860  0.0086
  142POPC   GL2 2009  10.255   7.948   7.008 -0.0570 -0.2268 -0.0998
  142POPC   C1A 2010  10.346   8.458   6.899 -0.1213  0.0761 -0.1577
  142POPC   D2A 2011  10.286   8.564   6.462 -0.1229  0.0916 -0.0964
  142POPC   C3A 2012   9.823   8.558   6.344  0.0420  0.1815 -0.0593
  142POPC   C4A 2013   9.443   8.841   6.403 -0.0340  0.1933  0.0267
  142POPC   C1B 2014   9.843   7.794   6.855 -0.0059 -0.1729  0.0270
  142POPC   C2B 2015   9.397   7.711   6.701 -0.0285 -0.0395 -0.0054
  142POPC   C3B 2016   9.104   7.495   6.480  0.0236 -0.0831 -0.1632
  142POPC   C4B 2017   9.016   7.350   6.073 -0.0287  0.3262 -0.1859
  143POPC   NC3 2018   7.975   2.843   7.698 -0.0115 -0.2145  0.0595
  143POPC   PO4 2019   7.739   2.622   7.471 -0.0668  0.0017 -0.2847
  143POPC   GL1 2020   7.781   2.310   7.109 -0.2284 -0.0268  0.0182
  143POPC   GL2 2021   7.501   2.410   7.009  0.0564  0.1630  0.1261
  143POPC   C1A 2022   7.894   2.279   6.687 -0.1378  0.2770  0.0486
  143POPC   D2A 2023   7.810   2.496   6.337  0.3642  0.2111 -0.0824
  143POPC   C3A 2024   8.004   2.424   5.971  0.1999 -0.4091  0.0719
  143POPC   C4A 2025   8.157   2.580   5.564 -0.1068  0.1619  0.1884
  143POPC   C1B 2026   7.400   2.453   6.603  0.2236 -0.2134 -0.1804
  143POPC   C2B 2027   7.336   2.479   6.130  0.2613 -0.2121  0.0998
  143POPC   C3B 2028   6.998   2.400   5.808  0.2629  0.0162  0.1778
  143POPC   C4B 2029   6.762   2.269   5.461  0.0139 -0.0642 -0.0342
  144POPC   NC3 2030  10.185   8.351   7.898 -0.0258 -0.0752  0.2141
  144POPC   PO4 2031   9.778   8.329   8.143 -0.0175 -0.0825 -0.1909
  144POPC   GL1 2032   9.623   8.342   7.746 -0.1223  0.1702  0.2704
  144POPC   GL2 2033   9.853   8.256   7.475 -0.1316  0.0291 -0.1558
  144POPC   C1A 2034   9.522   8.568   7.337 -0.1907 -0.2737 -0.0995
  144POPC   D2A 2035   9.546   9.054   7.390 -0.2504 -0.0394 -0.0794
  144POPC   C3A 2036   9.734   9.351   7.249  0.1025 -0.1155  0.1474
  144POPC   C4A 2037   9.820   9.495   6.826 -0.0341  0.2013 -0.1892
  144POPC   C1B 2038   9.839   8.324   7.040 -0.1626 -0.0311  0.2515
  144POPC   C2B 2039   9.760   8.216   6.668 -0.2754 -0.2368  0.2306
  144POPC   C3B 2040   9.536   8.045   6.360 -0.1082  0.2155  0.1177
  144POPC   C4B 2041   9.062   7.976   6.299  0.0410  0.1234  0.3702
  145POPC   NC3 2042   6.570   4.975   7.770 -0.1012  0.0293  0.0093
  145POPC   PO4 2043   6.762   5.300   7.500  0.2500 -0.2261 -0.1236
  145POPC   GL1 2044   6.742   5.241   7.151 -0.1242  0.0242  0.0491
  145POPC   GL2 2045   6.485   5.334   6.955  0.1201  0.2106 -0.3740
  145POPC   C1A 2046   6.942   5.597   6.902 -0.5823 -0.0609 -0.0117
  145POPC   D2A 2047   6.913   5.474   6.495 -0.0465 -0.1446 -0.0718
  145POPC   C3A 2048   6.799   5.603   6.054 -0.2392  0.0073  0.0645
  145POPC   C4A 2049   6.538   5.643   5.727  0.1837 -0.0706 -0.1152
  145POPC   C1B 2050   6.260   5.109   6.729 -0.0191  0.1011  0.1081
  145POPC   C2B 2051   5.905   5.092   6.499  0.0334  0.2203 -0.1253
  145POPC   C3B 2052   5.540   5.203   6.291  0.0010  0.3759  0.3358
  145POPC   C4B 2053   5.571   5.440   5.886 -0.0943  0.4645  0.2601
  146POPC   NC3 2054   8.813   6.480   7.860 -0.2972  0.5567 -0.0901
  146POPC   PO4 2055   9.274   6.443   7.782 -0.0947 -0.0870 -0.0993
  146POPC   GL1 2056   9.034   6.644   7.437  0.2816  0.1336 -0.0019
  146POPC   GL2 2057   8.786   6.324   7.193 -0.1299 -0.0276 -0.6194
  146POPC   C1A 2058   9.005   6.658   6.922  0.1146 -0.3074  0.0423
  146POPC   D2A 2059   8.859   6.582   6.486  0.0447  0.1199 -0.1995
  146POPC   C3A 2060   8.706   6.931   6.212  0.2136 -0.4466  0.0626
  146POPC   C4A 2061   8.469   7.072   5.928 -0.0375 -0.1101 -0.0436
  146POPC   C1B 2062   8.754   6.140   6.779  0.1235 -0.2717  0.0334
  146POPC   C2B 2063   8.654   6.031   6.300 -0.3879 -0.2207 -0.2083
  146POPC   C3B 2064   8.822   5.965   5.905 -0.0209  0.1524 -0.1185
  146POPC   C4B 2065   8.852   6.037   5.489  0.0940  0.1074 -0.1738
  147POPC   NC3 2066   2.350   5.228   8.081 -0.0388 -0.0687  0.0738
  147POPC   PO4 2067   2.763   4.930   8.142  0.0137 -0.0994  0.0429
  147POPC   GL1 2068   2.993   4.903   7.770  0.0367  0.1571 -0.0748
  147POPC   GL2 2069   3.229   4.607   7.708 -0.2159 -0.0748  0.0992
  147POPC   C1A 2070   3.292   4.913   7.320  0.3543 -0.0386 -0.0117
  147POPC   D2A 2071   3.270   5.078   6.919 -0.1428 -0.0623  0.0817
  147POPC   C3A 2072   2.989   5.359   6.919  0.3918  0.2422 -0.0550
  147POPC   C4A 2073   3.098   5.900   6.890  0.0481  0.0723 -0.0760
  147POPC   C1B 2074   2.930   4.499   7.418 -0.0702  0.0390  0.0238
  147POPC   C2B 2075   2.905   4.383   6.923 -0.0799 -0.0458  0.3055
  147POPC   C3B 2076   2.738   4.371   6.514  0.1858 -0.1309 -0.2959
  147POPC   C4B 2077   2.836   3.983   6.294 -0.1031 -0.2098 -0.0352
  148POPC   NC3 2078   7.835   4.552   7.522  0.0318  0.0052  0.0633
  148POPC   PO4 2079   8.219   4.264   7.440 -0.0896 -0.0716 -0.0647
  148POPC   GL1 2080   7.995   4.658   7.061  0.0724 -0.0628  0.2910
  148POPC   GL2 2081   7.598   4.710   7.108  0.3788 -0.1754  0.0038
  148POPC   C1A 2082   8.184   4.904   6.727  0.0879 -0.0115 -0.0742
  148POPC   D2A 2083   8.310   5.073   6.282 -0.2428  0.0243  0.1866
  148POPC   C3A 2084   8.079   4.931   5.930 -0.0573  0.0487  0.0230
  148POPC   C4A 2085   8.050   4.448   5.628 -0.1421  0.0440 -0.1533
  148POPC   C1B 2086   7.442   4.776   6.667 -0.0935  0.1065 -0.2003
  148POPC   C2B 2087   7.240   4.711   6.233 -0.4841  0.2727 -0.1892
  148POPC   C3B 2088   6.985   4.792   5.975 -0.4443  0.1749 -0.1505
  148POPC   C4B 2089   6.724   5.151   5.809 -0.0485 -0.0355  0.1576
  149POPC   NC3 2090   5.571   8.373   8.101  0.0942  0.1722 -0.1402
  149POPC   PO4 2091   5.189   8.139   8.009  0.0898 -0.0066  0.0060
  149POPC   GL1 2092   5.075   8.346   7.768  0.0754 -0.2335  0.2238
  149POPC   GL2 2093   5.360   8.563   7.661  0.2515  0.3180  0.2687
  149POPC   C1A 2094   5.066   8.253   7.256  0.0849  0.0238  0.1707
  149POPC   D2A 2095   5.230   8.144   6.912  0.2151  0.0203  0.1607
  149POPC   C3A 2096   5.562   7.841   6.914  0.2631  0.0039  0.0257
  149POPC   C4A 2097   5.872   7.446   6.946  0.2926 -0.2354  0.1185
  149POPC   C1B 2098   5.218   8.876   7.422 -0.1132  0.2848  0.0454
  149POPC   C2B 2099   4.827   9.116   7.338 -0.0314 -0.0017 -0.0891
  149POPC   C3B 2100   4.468   9.078   7.111 -0.1673 -0.1480  0.1930
  149POPC   C4B 2101   4.317   9.286   6.783  0.0012  0.0022  0.0447
  150POPC   NC3 2102   7.381   2.864   7.235  0.3675  0.0767  0.2386
  150POPC   PO4 2103   7.800   3.072   7.233  0.1122 -0.2365  0.0866
  150POPC   GL1 2104   7.481   3.382   6.992  0.0766  0.3458  0.1835
  150POPC   GL2 2105   7.192   3.336   7.126  0.1636  0.2119  0.2393
  150POPC   C1A 2106   7.701   3.695   6.760 -0.0421 -0.1051 -0.1184
  150POPC   D2A 2107   7.755   3.703   6.462  0.1130 -0.2244 -0.4065
  150POPC   C3A 2108   7.708   3.498   6.181  0.0444 -0.1514 -0.1466
  150POPC   C4A 2109   7.957   3.295   5.831  0.0204  0.2337 -0.0980
  150POPC   C1B 2110   7.076   3.196   6.733 -0.1139 -0.0833 -0.1651
  150POPC   C2B 2111   7.182   2.887   6.450  0.0712 -0.0138 -0.0715
  150POPC   C3B 2112   7.044   2.916   5.980  0.1818  0.1271 -0.2325
  150POPC   C4B 2113   6.879   2.888   5.709  0.0658 -0.1566  0.0116
  151POPC   NC3 2114   1.898   5.801   7.738 -0.1412 -0.0101 -0.1457
  151POPC   PO4 2115   2.441   5.757   7.683  0.4506 -0.1774  0.3936
  151POPC   GL1 2116   2.183   5.974   7.379  0.2370  0.2707  0.0826
  151POPC   GL2 2117   2.047   5.685   7.262 -0.0537 -0.1446  0.1478
  151POPC   C1A 2118   2.194   6.037   6.936  0.2680  0.4935 -0.0288
  151POPC   D2A 2119   2.581   6.059   6.699  0.1531  0.1015  0.0393
  151POPC   C3A 2120   2.545   6.213   6.401  0.1108  0.1217  0.1652
  151POPC   C4A 2121   2.822   6.598   6.246 -0.2445 -0.1365 -0.0506
  151POPC   C1B 2122   2.027   5.251   6.987 -0.0600  0.2898 -0.1848
  151POPC   C2B 2123   2.329   4.884   7.033  0.1331 -0.0979  0.0380
  151POPC   C3B 2124   2.463   4.487   7.259  0.3787 -0.0455  0.1270
  151POPC   C4B 2125   2.594   4.069   7.199 -0.1115 -0.0425 -0.0046
  152POPC   NC3 2126   0.422   2.602   7.643  0.0015 -0.2556  0.0971
  152POPC   PO4 2127   0.026   2.404   7.655 -0.3742 -0.1431  0.1151
  152POPC   GL1 2128   0.014   2.387   7.294  0.0494  0.2442 -0.1651
  152POPC   GL2 2129   0.281   2.525   7.179  0.1673 -0.1097  0.3559
  152POPC   C1A 2130  -0.097   2.285   6.810  0.1220 -0.3242 -0.3772
  152POPC   D2A 2131   0.001   1.915   6.554 -0.0631  0.3394  0.2624
  152POPC   C3A 2132   0.188   2.042   6.137  0.0077 -0.0603  0.1490
  152POPC   C4A 2133   0.406   2.329   5.914  0.0549 -0.0291 -0.0831
  152POPC   C1B 2134   0.212   2.654   6.817  0.0425 -0.1314 -0.1108
  152POPC   C2B 2135   0.432   2.851   6.464  0.1689 -0.0608  0.0344
  152POPC   C3B 2136   0.611   2.697   6.138 -0.0587  0.0784 -0.4494
  152POPC   C4B 2137   0.911   2.347   6.145  0.3275 -0.0647  0.0119
  153POPC   NC3 2138   3.051   0.314   7.674 -0.2056  0.3275 -0.0112
  153POPC   PO4 2139   3.233   0.013   7.486 -0.2427  0.1273  0.1579
  153POPC   GL1 2140   3.085   0.037   7.087  0.1331 -0.1478  0.0190
  153POPC   GL2 2141   2.894  -0.192   7.022 -0.3992  0.0227 -0.0625
  153POPC   C1A 2142   3.291  -0.255   6.749  0.0236  0.3142  0.3263
  153POPC   D2A 2143   3.165  -0.627   6.417 -0.1115 -0.0231  0.2256
  153POPC   C3A 2144   3.309  -0.658   5.992 -0.1309 -0.1488 -0.0916
  153POPC   C4A 2145   3.537  -0.799   5.617  0.1203  0.1523  0.1009
  153POPC   C1B 2146   2.716   0.232   6.835 -0.1175 -0.1531 -0.1735
  153POPC   C2B 2147   2.552   0.697   6.737  0.0144  0.1996 -0.1819
  153POPC   C3B 2148   2.752   0.973   6.636  0.1966 -0.1667 -0.1380
  153POPC   C4B 2149   3.146   1.011   6.551 -0.0088 -0.2021 -0.3259
  154POPC   NC3 2150   8.267   1.513   7.928  0.1565 -0.6683 -0.1053
  154POPC   PO4 2151   7.877   1.335   7.949 -0.1139  0.2069 -0.0628
  154POPC   GL1 2152   7.465   1.417   7.674 -0.0387  0.2661 -0.0307
  154POPC   GL2 2153   7.344   1.701   7.586 -0.0828 -0.1603  0.3216
  154POPC   C1A 2154   7.213   1.089   7.389  0.1241  0.1955  0.0475
  154POPC   D2A 2155   7.210   0.875   6.988  0.4955 -0.0672 -0.1000
  154POPC   C3A 2156   7.113   1.153   6.615 -0.0774 -0.0135  0.0741
  154POPC   C4A 2157   6.801   1.246   6.259 -0.1283  0.2037  0.0580
  154POPC   C1B 2158   7.502   1.459   7.109 -0.1352  0.0773 -0.0631
  154POPC   C2B 2159   7.607   1.399   6.630 -0.0981  0.1147  0.0089
  154POPC   C3B 2160   7.764   1.557   6.245 -0.0543  0.1304 -0.1059
  154POPC   C4B 2161   8.029   1.684   6.002 -0.1232 -0.0070  0.3219
  155POPC   NC3 2162   9.869   1.457   7.791  0.0461  0.0304 -0.0696
  155POPC   PO4 2163   9.578   1.073   7.868 -0.0261 -0.0106  0.1013
  155POPC   GL1 2164   9.509   0.822   7.608  0.1237 -0.0858  0.1979
  155POPC   GL2 2165   9.230   0.824   7.494 -0.2183  0.3169  0.1687
  155POPC   C1A 2166   9.464   0.419   7.422  0.1821  0.0440 -0.0961
  155POPC   D2A 2167   9.341  -0.006   7.197  0.2952  0.2228 -0.1047
  155POPC   C3A 2168   9.271   0.128   6.765 -0.0541  0.0920  0.0026
  155POPC   C4A 2169   9.289  -0.001   6.339  0.1940  0.0081 -0.0405
  155POPC   C1B 2170   8.976   0.573   7.289  0.0728 -0.3657  0.1042
  155POPC   C2B 2171   8.815   0.316   7.105  0.2136  0.3565 -0.2197
  155POPC   C3B 2172   8.777   0.131   6.667 -0.0864 -0.0915 -0.1244
  155POPC   C4B 2173   8.822   0.190   6.272 -0.1354  0.3483 -0.0611
  156POPC   NC3 2174   1.550   9.522   7.705 -0.0651  0.0655  0.0011
  156POPC   PO4 2175   1.419   9.904   7.438  0.2022  0.1982 -0.4357
  156POPC   GL1 2176   1.402  10.089   7.102 -0.0066  0.1815  0.0026
  156POPC   GL2 2177   1.396  10.384   7.097 -0.0567  0.0603 -0.0717
  156POPC   C1A 2178   1.261  10.140   6.695 -0.1012 -0.1458  0.3521
  156POPC   D2A 2179   1.153  10.053   6.375  0.1011 -0.0093 -0.0025
  156POPC   C3A 2180   1.262   9.547   6.259  0.0461  0.0863 -0.1028
  156POPC   C4A 2181   1.142   9.094   6.216  0.0450 -0.2477  0.0864
  156POPC   C1B 2182   1.341  10.623   6.589 -0.0528 -0.1346  0.1097
  156POPC   C2B 2183   1.281  10.834   6.111  0.1801  0.0817  0.1204
  156POPC   C3B 2184   1.028  10.965   5.751 -0.1254 -0.1638  0.1918
  156POPC   C4B 2185   0.833  10.934   5.343 -0.1419 -0.2808  0.3633
  157POPC   NC3 2186   2.964   2.055   7.514 -0.0558  0.1282 -0.0730
  157POPC   PO4 2187   2.892   2.338   7.494 -0.1231 -0.3146 -0.0238
  157POPC   GL1 2188   3.164   2.401   7.186 -0.0229  0.0204 -0.0577
  157POPC   GL2 2189   3.154   2.762   7.196 -0.0363 -0.0657  0.0028
  157POPC   C1A 2190   2.893   2.318   6.814  0.2569 -0.0526  0.1294
  157POPC   D2A 2191   2.841   2.302   6.371  0.0840 -0.1304 -0.1209
  157POPC   C3A 2192   2.640   2.440   6.082  0.0922 -0.0616  0.2224
  157POPC   C4A 2193   2.412   2.166   5.774  0.0406  0.0808 -0.1264
  157POPC   C1B 2194   2.752   2.802   7.037  0.1048  0.1405  0.4713
  157POPC   C2B 2195   2.366   2.608   6.839  0.2391 -0.0227 -0.1400
  157POPC   C3B 2196   2.298   2.423   6.524  0.4261 -0.1700  0.0000
  157POPC   C4B 2197   2.173   2.201   6.213  0.2130 -0.0434 -0.0767
  158POPC   NC3 2198   9.141   1.363   8.097 -0.0119  0.0149  0.0835
  158POPC   PO4 2199   8.747   1.362   8.266  0.3079 -0.1429  0.1295
  158POPC   GL1 2200   8.718   1.382   7.779 -0.1034  0.0754  0.1296
  158POPC   GL2 2201   8.604   1.596   7.546  0.1607 -0.1437  0.0335
  158POPC   C1A 2202   8.834   1.223   7.382 -0.0198 -0.1726 -0.0727
  158POPC   D2A 2203   9.073   1.044   7.003 -0.0154 -0.1183  0.0037
  158POPC   C3A 2204   9.109   1.095   6.540 -0.3010 -0.2664  0.1113
  158POPC   C4A 2205   8.954   0.998   6.168 -0.1432 -0.2086  0.1122
  158POPC   C1B 2206   8.416   1.547   7.189 -0.4190  0.1831  0.2244
  158POPC   C2B 2207   8.676   1.340   6.798  0.3362 -0.3144 -0.0516
  158POPC   C3B 2208   8.575   1.122   6.518 -0.0521  0.0347 -0.1874
  158POPC   C4B 2209   8.466   0.993   6.128  0.3258  0.0563 -0.1446
  159POPC   NC3 2210   3.078  10.166   7.570 -0.0791  0.0715 -0.2661
  159POPC   PO4 2211   2.716  10.159   7.341 -0.3124  0.1226  0.0776
  159POPC   GL1 2212   3.196  10.064   7.140 -0.1983  0.0831 -0.3121
  159POPC   GL2 2213   3.501  10.235   7.266 -0.1795  0.0113 -0.2614
  159POPC   C1A 2214   3.419   9.879   6.845 -0.2391 -0.2601  0.0430
  159POPC   D2A 2215   3.739   9.831   6.496  0.0344 -0.2140 -0.1758
  159POPC   C3A 2216   4.159   9.605   6.459 -0.3984 -0.0277 -0.1095
  159POPC   C4A 2217   4.596   9.431   6.378 -0.0687 -0.1444 -0.0993
  159POPC   C1B 2218   3.795  10.203   6.885  0.0771  0.0180 -0.1857
  159POPC   C2B 2219   3.707  10.322   6.417  0.0153 -0.0863  0.2153
  159POPC   C3B 2220   3.735  10.229   5.968 -0.3689 -0.4286 -0.0361
  159POPC   C4B 2221   3.658  10.475   5.522  0.1039 -0.0849  0.1767
  160POPC   NC3 2222   7.372   4.067   7.855 -0.0449  0.0761  0.0981
  160POPC   PO4 2223   7.618   4.079   7.408  0.1510  0.3509 -0.2983
  160POPC   GL1 2224   7.807   4.141   7.024 -0.0248  0.0925  0.5518
  160POPC   GL2 2225   8.062   4.014   7.037  0.0799 -0.0011  0.2938
  160POPC   C1A 2226   7.712   4.242   6.667  0.2204 -0.2688  0.3362
  160POPC   D2A 2227   7.410   4.230   6.291  0.0866  0.0125  0.2137
  160POPC   C3A 2228   7.313   3.830   6.116 -0.1022  0.3161 -0.3246
  160POPC   C4A 2229   7.140   3.450   6.260  0.2194 -0.4983  0.1453
  160POPC   C1B 2230   8.288   3.831   6.684 -0.0838  0.5136 -0.3178
  160POPC   C2B 2231   8.432   3.861   6.302  0.1420 -0.1681 -0.3119
  160POPC   C3B 2232   8.397   4.175   6.059  0.4060 -0.0581  0.1901
  160POPC   C4B 2233   8.554   4.543   5.775 -0.0546 -0.3002  0.0016
  161POPC   NC3 2234   3.847   5.492   7.875 -0.1029  0.0559  0.1581
  161POPC   PO4 2235   3.913   5.057   8.021  0.0343  0.1666  0.0960
  161POPC   GL1 2236   3.923   5.047   7.598  0.4151  0.0866  0.0017
  161POPC   GL2 2237   3.985   5.374   7.440 -0.1837 -0.0223 -0.1408
  161POPC   C1A 2238   3.815   4.916   7.199  0.0880 -0.1597 -0.0379
  161POPC   D2A 2239   3.896   4.697   6.791 -0.0553  0.2165  0.0580
  161POPC   C3A 2240   3.758   4.872   6.398 -0.2825  0.1777 -0.2782
  161POPC   C4A 2241   3.961   4.858   5.967 -0.0369 -0.3541  0.1031
  161POPC   C1B 2242   4.091   5.608   6.995  0.2225  0.0291  0.0302
  161POPC   C2B 2243   3.985   5.685   6.680 -0.3789  0.0542 -0.0559
  161POPC   C3B 2244   4.053   5.759   6.166  0.2160  0.0551  0.0354
  161POPC   C4B 2245   4.270   6.049   6.039  0.3955 -0.2285  0.1867
  162POPC   NC3 2246  10.158   2.904   8.008 -0.2076  0.0611 -0.0436
  162POPC   PO4 2247   9.937   2.514   7.889 -0.0965  0.0620  0.2090
  162POPC   GL1 2248   9.832   2.616   7.389 -0.1643  0.0146 -0.0494
  162POPC   GL2 2249   9.891   2.703   7.143 -0.2844 -0.2660 -0.2456
  162POPC   C1A 2250   9.736   2.222   7.163 -0.0533 -0.0865 -0.0034
  162POPC   D2A 2251   9.578   1.925   6.827  0.2870  0.0070  0.1463
  162POPC   C3A 2252   9.914   1.561   6.955 -0.2786 -0.0128 -0.0451
  162POPC   C4A 2253  10.016   1.177   6.896  0.0420 -0.0639 -0.0284
  162POPC   C1B 2254  10.221   2.299   7.134 -0.2080 -0.1281  0.0364
  162POPC   C2B 2255  10.195   1.924   6.760 -0.3506  0.1721 -0.1113
  162POPC   C3B 2256  10.183   1.786   6.357  0.2314  0.3001 -0.0935
  162POPC   C4B 2257   9.965   1.609   6.069  0.0938 -0.0928  0.0319
  163POPC   NC3 2258   6.550   6.581   8.209 -0.1044  0.0251  0.1623
  163POPC   PO4 2259   6.514   6.970   8.214  0.1661  0.1801 -0.1136
  163POPC   GL1 2260   6.656   6.953   7.827 -0.0178 -0.0280  0.1881
  163POPC   GL2 2261   6.845   6.755   7.670  0.0725 -0.1360 -0.0079
  163POPC   C1A 2262   6.521   7.049   7.459 -0.2007  0.3064 -0.1749
  163POPC   D2A 2263   6.049   6.984   7.251  0.4577 -0.2036 -0.1398
  163POPC   C3A 2264   5.690   6.954   7.037  0.3041  0.0123  0.3435
  163POPC   C4A 2265   5.235   6.902   6.927 -0.0711 -0.2320  0.2559
  163POPC   C1B 2266   6.857   6.641   7.248  0.2582  0.3779  0.1208
  163POPC   C2B 2267   6.482   6.776   6.914  0.2540 -0.0037 -0.3703
  163POPC   C3B 2268   6.364   7.155   6.861 -0.0312 -0.0368 -0.0837
  163POPC   C4B 2269   6.218   7.462   6.531  0.0423 -0.1821 -0.0941
  164POPC   NC3 2270   0.882   3.200   7.323  0.0330  0.3289 -0.0723
  164POPC   PO4 2271   1.330   3.203   7.250  0.1895  0.1093 -0.2801
  164POPC   GL1 2272   1.329   3.478   7.045  0.2507 -0.1806  0.2641
  164POPC   GL2 2273   0.982   3.651   6.987 -0.2063 -0.0900  0.0298
  164POPC   C1A 2274   1.563   3.807   6.807  0.0278  0.0783 -0.0387
  164POPC   D2A 2275   1.604   3.987   6.330  0.0207  0.0181  0.0434
  164POPC   C3A 2276   2.018   4.026   6.169 -0.1444 -0.3251  0.3304
  164POPC   C4A 2277   2.358   4.127   6.293  0.2101 -0.1569  0.1632
  164POPC   C1B 2278   1.205   3.476   6.567  0.2172  0.0751 -0.2262
  164POPC   C2B 2279   1.175   3.373   6.066  0.0533  0.0001 -0.0674
  164POPC   C3B 2280   1.406   3.123   5.753  0.2467  0.1408 -0.2491
  164POPC   C4B 2281   1.531   2.630   5.656 -0.1543 -0.1029  0.1846
  165POPC   NC3 2282   7.159   8.366   8.931  0.0045 -0.0296 -0.3005
  165POPC   PO4 2283   6.931   8.186   8.567 -0.4804 -0.0944 -0.0411
  165POPC   GL1 2284   6.792   8.267   8.024  0.0365 -0.1709 -0.0477
  165POPC   GL2 2285   6.617   8.490   8.062 -0.0600  0.0874  0.0427
  165POPC   C1A 2286   6.512   8.421   7.596  0.3023 -0.0824 -0.0581
  165POPC   D2A 2287   6.285   8.653   7.299 -0.1853  0.0186 -0.2405
  165POPC   C3A 2288   6.337   8.529   6.943  0.1033  0.1255  0.3977
  165POPC   C4A 2289   6.276   8.554   6.528 -0.3130 -0.0255 -0.0896
  165POPC   C1B 2290   6.459   8.827   8.075  0.0512  0.0540 -0.1491
  165POPC   C2B 2291   6.183   9.155   7.915 -0.1302 -0.0892 -0.0578
  165POPC   C3B 2292   5.969   9.390   7.654  0.2208 -0.2277  0.2307
  165POPC   C4B 2293   5.804   9.764   7.476  0.4354 -0.0968  0.3812
  166POPC   NC3 2294   9.748   3.751   7.615 -0.1194 -0.1134  0.0614
  166POPC   PO4 2295   9.432   3.449   7.670 -0.1477  0.0701 -0.2376
  166POPC   GL1 2296   9.599   3.367   7.238 -0.0678 -0.2276  0.2753
  166POPC   GL2 2297   9.485   3.644   7.089  0.4799  0.1418  0.1104
  166POPC   C1A 2298   9.506   3.022   6.954 -0.3218  0.1460 -0.1734
  166POPC   D2A 2299   9.721   2.697   6.657 -0.0107  0.0815 -0.0990
  166POPC   C3A 2300   9.855   2.316   6.631 -0.0569  0.1184  0.0269
  166POPC   C4A 2301   9.681   1.967   6.354  0.0215 -0.1278 -0.2136
  166POPC   C1B 2302   9.388   3.846   6.765 -0.0397  0.0576  0.2750
  166POPC   C2B 2303   9.424   3.974   6.366 -0.2211 -0.0535 -0.1713
  166POPC   C3B 2304   9.673   4.127   5.993 -0.1950  0.3070  0.0147
  166POPC   C4B 2305   9.759   4.490   5.848 -0.0524 -0.2560  0.4274
  167POPC   NC3 2306   0.117   0.237   7.816 -0.0374 -0.3138 -0.3178
  167POPC   PO4 2307   0.105   0.769   7.982 -0.1042  0.2294 -0.0749
  167POPC   GL1 2308   0.093   0.740   7.606  0.1806 -0.0336  0.0293
  167POPC   GL2 2309   0.066   0.517   7.416  0.3688  0.0374  0.2500
  167POPC   C1A 2310   0.019   1.001   7.272  0.0300 -0.0593  0.0559
  167POPC   D2A 2311   0.325   0.932   6.982  0.0763  0.0965 -0.3167
  167POPC   C3A 2312   0.373   0.806   6.586 -0.2119  0.1401  0.0045
  167POPC   C4A 2313   0.053   0.877   6.246 -0.3019 -0.0164 -0.0353
  167POPC   C1B 2314   0.134   0.423   6.942 -0.0748  0.0607 -0.0150
  167POPC   C2B 2315   0.021   0.473   6.466 -0.0272  0.1075 -0.1696
  167POPC   C3B 2316   0.001   0.377   6.030  0.1958  0.4889 -0.0794
  167POPC   C4B 2317  -0.151   0.414   5.566  0.0269 -0.1384  0.2989
  168POPC   NC3 2318   5.691   8.015   8.798 -0.0272  0.0568 -0.0097
  168POPC   PO4 2319   5.941   8.144   8.381  0.1263  0.0377 -0.0333
  168POPC   GL1 2320   6.107   8.336   7.991 -0.2112  0.4162  0.3933
  168POPC   GL2 2321   6.147   8.122   7.736 -0.2306  0.2006  0.3610
  168POPC   C1A 2322   6.062   8.707   7.731  0.0510  0.0494 -0.1473
  168POPC   D2A 2323   5.782   8.892   7.436 -0.1525 -0.1594  0.0356
  168POPC   C3A 2324   5.839   8.823   7.062 -0.1089  0.2138  0.1403
  168POPC   C4A 2325   5.798   8.677   6.645  0.0166  0.0436 -0.2880
  168POPC   C1B 2326   5.913   8.293   7.523  0.1648 -0.0735 -0.1526
  168POPC   C2B 2327   5.528   8.463   7.258  0.1398 -0.1139  0.0681
  168POPC   C3B 2328   5.343   8.654   6.854 -0.2974  0.1056 -0.1082
  168POPC   C4B 2329   5.363   8.890   6.431  0.1906  0.0846  0.1828
  169POPC   NC3 2330   2.073   9.841   7.712  0.1093 -0.0609  0.1397
  169POPC   PO4 2331   1.849  10.266   7.704 -0.1581  0.0555 -0.1626
  169POPC   GL1 2332   1.884  10.091   7.306 -0.0449  0.0398  0.2321
  169POPC   GL2 2333   1.828   9.684   7.314 -0.1030  0.2069 -0.1915
  169POPC   C1A 2334   2.108  10.020   6.883 -0.0891 -0.1119 -0.1559
  169POPC   D2A 2335   2.197  10.153   6.491  0.2765  0.0644  0.1261
  169POPC   C3A 2336   2.279  10.293   6.138 -0.3428 -0.0180  0.0935
  169POPC   C4A 2337   2.515  10.610   5.917 -0.2804 -0.1778 -0.0774
  169POPC   C1B 2338   2.102   9.462   7.007  0.0664  0.0281 -0.3707
  169POPC   C2B 2339   2.365   9.288   6.707 -0.2008  0.0816 -0.5411
  169POPC   C3B 2340   2.572   9.341   6.403 -0.2893  0.1511 -0.1148
  169POPC   C4B 2341   2.438   9.208   5.991 -0.2434 -0.0059  0.0383
  170POPC   NC3 2342   6.652   0.871   8.306  0.2244  0.1482 -0.0617
  170POPC   PO4 2343   6.320   0.943   8.022 -0.1054 -0.1126  0.0614
  170POPC   GL1 2344   6.270   0.762   7.595  0.1219 -0.0513 -0.0350
  170POPC   GL2 2345   6.292   1.061   7.416  0.0436  0.0875  0.0833
  170POPC   C1A 2346   6.063   0.521   7.284 -0.0662 -0.0262 -0.3387
  170POPC   D2A 2347   5.903   0.252   6.938  0.1188  0.2705 -0.1702
  170POPC   C3A 2348   5.687   0.248   6.517  0.0676 -0.0496 -0.3247
  170POPC   C4A 2349   5.394   0.264   6.198 -0.0862  0.1596  0.2236
  170POPC   C1B 2350   6.300   0.829   6.945  0.0202  0.0471  0.0399
  170POPC   C2B 2351   6.233   0.550   6.672 -0.1265 -0.1039  0.3691
  170POPC   C3B 2352   6.155   0.434   6.242 -0.0033  0.0935  0.2089
  170POPC   C4B 2353   6.112   0.380   5.854  0.1578  0.3442 -0.0065
  171POPC   NC3 2354   2.308   6.596   8.244 -0.1139  0.0129  0.1032
  171POPC   PO4 2355   2.478   6.752   7.915 -0.2819  0.1334 -0.0406
  171POPC   GL1 2356   2.502   6.904   7.479  0.2082 -0.1166  0.1841
  171POPC   GL2 2357   2.766   6.982   7.507  0.1791 -0.0568 -0.0738
  171POPC   C1A 2358   2.455   6.961   7.029  0.4828 -0.0571 -0.0470
  171POPC   D2A 2359   2.514   7.338   6.786  0.1861  0.4073 -0.1816
  171POPC   C3A 2360   2.171   7.512   6.566  0.1782 -0.0091 -0.1773
  171POPC   C4A 2361   1.845   7.558   6.342  0.0384 -0.1088 -0.0070
  171POPC   C1B 2362   2.916   6.857   7.156 -0.3285  0.1142  0.0218
  171POPC   C2B 2363   2.920   6.958   6.755  0.1784  0.1782 -0.4835
  171POPC   C3B 2364   2.875   7.140   6.353  0.1296  0.0408  0.0433
  171POPC   C4B 2365   3.096   7.416   6.049 -0.0246 -0.0814 -0.1085
  172POPC   NC3 2366   4.724   7.890   7.953 -0.1120  0.0085 -0.0752
  172POPC   PO4 2367   4.387   7.623   7.848 -0.0621 -0.3756 -0.0881
  172POPC   GL1 2368   4.517   7.658   7.565 -0.0374  0.0045  0.1154
  172POPC   GL2 2369   4.767   7.453   7.406  0.0937  0.1204 -0.1625
  172POPC   C1A 2370   4.462   7.668   7.103  0.0168  0.3478  0.1998
  172POPC   D2A 2371   4.630   7.707   6.672 -0.2961  0.0404  0.0010
  172POPC   C3A 2372   4.811   8.128   6.462 -0.0661 -0.2247 -0.1494
  172POPC   C4A 2373   4.969   8.478   6.608  0.2152  0.3855 -0.2237
  172POPC   C1B 2374   4.844   7.312   6.996  0.1260 -0.3139  0.0587
  172POPC   C2B 2375   4.707   6.932   6.917  0.1285  0.0965 -0.0923
  172POPC   C3B 2376   4.450   6.605   6.657 -0.1472  0.0170  0.1913
  172POPC   C4B 2377   4.565   6.424   6.221  0.2127  0.3915  0.0692
  173POPC   NC3 2378   6.943   4.121   7.292  0.0638 -0.2144 -0.1852
  173POPC   PO4 2379   7.107   3.699   7.440 -0.1314  0.1067  0.1640
  173POPC   GL1 2380   7.290   3.866   7.041 -0.0019  0.0247 -0.0448
  173POPC   GL2 2381   7.333   4.265   7.002  0.0918  0.1143 -0.1356
  173POPC   C1A 2382   7.218   3.892   6.643  0.0383  0.2070  0.0158
  173POPC   D2A 2383   6.942   4.010   6.390 -0.1287  0.2309 -0.2990
  173POPC   C3A 2384   6.938   4.254   6.004  0.1364 -0.0281  0.1937
  173POPC   C4A 2385   7.129   4.244   5.571  0.0081  0.0008  0.1646
  173POPC   C1B 2386   7.028   4.431   6.602 -0.1918 -0.0821  0.6461
  173POPC   C2B 2387   6.675   4.501   6.384 -0.2576  0.2853 -0.0919
  173POPC   C3B 2388   6.557   4.543   6.000  0.0420 -0.0664 -0.2504
  173POPC   C4B 2389   6.724   4.643   5.628  0.1321  0.1346 -0.0279
  174POPC   NC3 2390  10.336   8.448   3.343  0.1245  0.3211  0.0694
  174POPC   PO4 2391  10.608   8.738   3.576  0.0932  0.0125  0.0054
  174POPC   GL1 2392  10.323   8.718   3.934 -0.0368 -0.0709 -0.4144
  174POPC   GL2 2393  10.093   9.020   3.952  0.0892 -0.2989 -0.1102
  174POPC   C1A 2394  10.008   8.544   4.185 -0.1389  0.1859 -0.2148
  174POPC   D2A 2395   9.776   8.310   4.390 -0.1093  0.1723 -0.2466
  174POPC   C3A 2396   9.455   8.079   4.359  0.3715 -0.0589  0.0987
  174POPC   C4A 2397   9.167   7.932   4.102 -0.0346  0.0383  0.2133
  174POPC   C1B 2398   9.672   9.193   4.113 -0.1100 -0.0587 -0.0359
  174POPC   C2B 2399   9.373   9.226   4.413  0.1550  0.1805  0.1002
  174POPC   C3B 2400   9.419   9.112   4.890  0.2303 -0.1661 -0.0278
  174POPC   C4B 2401   9.310   9.188   5.324 -0.0196 -0.1923 -0.0949
  175POPC   NC3 2402   3.865   9.778   4.254  0.0917  0.0872  0.4120
  175POPC   PO4 2403   4.224   9.739   3.962 -0.0888  0.0146  0.0724
  175POPC   GL1 2404   4.353   9.824   4.415 -0.3061  0.1694 -0.1448
  175POPC   GL2 2405   4.351   9.559   4.450 -0.2441 -0.1643 -0.1034
  175POPC   C1A 2406   4.600   9.728   4.931  0.2847 -0.0251 -0.0683
  175POPC   D2A 2407   4.866  10.015   5.187 -0.2378 -0.1489 -0.0012
  175POPC   C3A 2408   4.989   9.827   5.487  0.1048 -0.3960 -0.1835
  175POPC   C4A 2409   5.146   9.424   5.583  0.0324 -0.1519 -0.1917
  175POPC   C1B 2410   4.552   9.306   4.679  0.2163  0.0368  0.2981
  175POPC   C2B 2411   4.539   9.003   4.931 -0.0590  0.2023  0.1276
  175POPC   C3B 2412   4.708   8.613   5.226  0.1615  0.0474  0.0588
  175POPC   C4B 2413   4.770   8.333   5.590  0.0173  0.2269  0.0387
  176POPC   NC3 2414   9.757   9.836   3.346 -0.0311 -0.1654 -0.2661
  176POPC   PO4 2415   9.962  10.092   3.735  0.1659 -0.1450  0.1155
  176POPC   GL1 2416   9.838   9.892   3.997 -0.4421 -0.0566  0.1426
  176POPC   GL2 2417   9.814   9.609   3.865  0.1058 -0.1540 -0.2503
  176POPC   C1A 2418   9.953   9.721   4.355 -0.1350  0.2859  0.1439
  176POPC   D2A 2419   9.820   9.349   4.598 -0.0195 -0.1419 -0.3503
  176POPC   C3A 2420  10.055   9.051   4.756  0.2444  0.1229 -0.3109
  176POPC   C4A 2421  10.147   9.003   5.166  0.0225  0.3438  0.2045
  176POPC   C1B 2422   9.432   9.676   4.171 -0.0922 -0.3079 -0.0650
  176POPC   C2B 2423   9.464   9.723   4.637  0.3400 -0.0593 -0.1085
  176POPC   C3B 2424   9.482   9.604   5.128  0.0423  0.1790  0.2366
  176POPC   C4B 2425   9.811   9.294   5.183  0.0591 -0.1624  0.2228
  177POPC   NC3 2426   6.067   5.068   3.551  0.1323 -0.1868  0.1254
  177POPC   PO4 2427   6.070   5.499   3.630  0.0037 -0.0678 -0.1306
  177POPC   GL1 2428   5.890   5.623   4.014 -0.0831  0.1502 -0.0333
  177POPC   GL2 2429   5.963   5.553   4.247 -0.0772  0.4604 -0.0605
  177POPC   C1A 2430   5.504   5.579   4.416  0.2671  0.1889  0.0133
  177POPC   D2A 2431   5.109   5.492   4.453  0.0066  0.3427  0.1056
  177POPC   C3A 2432   4.912   5.494   4.941  0.0301 -0.1290  0.2222
  177POPC   C4A 2433   4.810   5.387   5.264  0.0916 -0.1057  0.0589
  177POPC   C1B 2434   6.038   5.189   4.394 -0.3096 -0.0529  0.0347
  177POPC   C2B 2435   6.251   5.001   4.790 -0.3989 -0.2241  0.2433
  177POPC   C3B 2436   6.206   4.733   5.090  0.2090 -0.1032  0.1283
  177POPC   C4B 2437   6.568   4.573   5.042 -0.1646  0.1448 -0.0640
  178POPC   NC3 2438   5.945   2.687   3.675 -0.0712 -0.0003  0.2065
  178POPC   PO4 2439   5.613   2.682   3.969 -0.3072  0.0182 -0.0544
  178POPC   GL1 2440   5.760   2.836   4.370  0.4999 -0.0102  0.1815
  178POPC   GL2 2441   5.574   3.142   4.522 -0.4146 -0.1855  0.1161
  178POPC   C1A 2442   6.013   2.966   4.729  0.0853  0.3515  0.0582
  178POPC   D2A 2443   6.105   2.933   5.138 -0.0923 -0.2573 -0.1337
  178POPC   C3A 2444   6.424   2.567   5.254  0.0111 -0.1208  0.2592
  178POPC   C4A 2445   6.743   2.380   4.958  0.0278  0.2221  0.0844
  178POPC   C1B 2446   5.518   2.893   4.909  0.1897 -0.1211 -0.0032
  178POPC   C2B 2447   5.709   2.818   5.319 -0.0008  0.1303  0.0695
  178POPC   C3B 2448   5.811   2.543   5.627  0.0365 -0.0538  0.2612
  178POPC   C4B 2449   5.940   2.431   6.057 -0.3128 -0.0172  0.1282
  179POPC   NC3 2450   2.594   9.374   3.864  0.4020 -0.0537  0.0871
  179POPC   PO4 2451   2.770   9.854   3.959 -0.0090 -0.0321 -0.1725
  179POPC   GL1 2452   2.639   9.728   4.437 -0.1630 -0.0032 -0.0735
  179POPC   GL2 2453   2.520   9.438   4.409 -0.2283  0.0647 -0.2168
  179POPC   C1A 2454   2.521  10.080   4.730  0.2811  0.3110 -0.0976
  179POPC   D2A 2455   2.096  10.158   4.787  0.1288 -0.0372  0.0739
  179POPC   C3A 2456   1.864  10.579   4.838  0.5263 -0.0245  0.1266
  179POPC   C4A 2457   1.335  10.658   4.633 -0.0398  0.3997  0.1836
  179POPC   C1B 2458   2.622   9.515   4.892 -0.1124  0.2408 -0.3727
  179POPC   C2B 2459   2.622   9.811   5.208  0.0216  0.1614 -0.1400
  179POPC   C3B 2460   2.354  10.124   5.275  0.1130  0.1139 -0.0275
  179POPC   C4B 2461   1.836  10.178   5.300  0.2134  0.1064  0.2285
  180POPC   NC3 2462   5.102   0.294   4.069  0.0506 -0.0180  0.0877
  180POPC   PO4 2463   5.083  -0.214   4.104 -0.0693 -0.2782 -0.0206
  180POPC   GL1 2464   5.360  -0.378   4.461 -0.3864 -0.0897 -0.0375
  180POPC   GL2 2465   5.693  -0.583   4.311 -0.1415 -0.2484 -0.1891
  180POPC   C1A 2466   5.680  -0.250   4.752 -0.2498 -0.3825  0.2655
  180POPC   D2A 2467   5.759  -0.301   5.122 -0.4814  0.0006 -0.0324
  180POPC   C3A 2468   5.720  -0.316   5.557  0.1760  0.0284  0.0822
  180POPC   C4A 2469   5.475  -0.198   5.972  0.0418 -0.0237  0.0042
  180POPC   C1B 2470   5.889  -0.682   4.753 -0.3006  0.1492  0.2351
  180POPC   C2B 2471   6.108  -0.707   5.100 -0.0930  0.4203 -0.1448
  180POPC   C3B 2472   5.969  -0.821   5.567  0.0066 -0.1217  0.1272
  180POPC   C4B 2473   6.009  -1.151   5.991 -0.1667  0.2022  0.0387
  181POPC   NC3 2474  10.630   7.373   3.995 -0.0848 -0.0260 -0.0340
  181POPC   PO4 2475  10.225   7.393   3.893  0.1556 -0.0640 -0.0874
  181POPC   GL1 2476  10.193   7.523   4.281  0.0098  0.1461 -0.0772
  181POPC   GL2 2477  10.438   7.778   4.162 -0.1083  0.0740  0.0091
  181POPC   C1A 2478  10.035   7.680   4.702  0.0892 -0.2552  0.4504
  181POPC   D2A 2479  10.146   7.560   5.056 -0.2710 -0.0692 -0.1006
  181POPC   C3A 2480  10.186   7.631   5.457  0.3492 -0.2498  0.3051
  181POPC   C4A 2481  10.397   7.861   5.809 -0.0586  0.2794 -0.1274
  181POPC   C1B 2482  10.236   8.047   4.365 -0.0301 -0.0947  0.2185
  181POPC   C2B 2483  10.225   8.405   4.656 -0.2537 -0.0833 -0.0129
  181POPC   C3B 2484  10.186   8.539   4.986 -0.0192  0.4598 -0.2421
  181POPC   C4B 2485  10.056   8.509   5.376 -0.2735  0.0107 -0.0716
  182POPC   NC3 2486   7.211   5.540   3.154  0.1958 -0.0499 -0.2396
  182POPC   PO4 2487   7.143   5.835   3.518  0.1280  0.0056 -0.0830
  182POPC   GL1 2488   7.079   5.720   4.002 -0.1946 -0.0245  0.1531
  182POPC   GL2 2489   7.271   5.535   4.122  0.1663 -0.1760  0.1593
  182POPC   C1A 2490   6.844   5.669   4.430 -0.2185  0.2048 -0.2813
  182POPC   D2A 2491   6.867   5.546   4.851 -0.0394  0.3415  0.0488
  182POPC   C3A 2492   6.727   5.183   4.937 -0.0255  0.3856 -0.3069
  182POPC   C4A 2493   6.937   4.862   4.723 -0.0230  0.0048 -0.0534
  182POPC   C1B 2494   7.263   5.736   4.641  0.0895 -0.2396 -0.0716
  182POPC   C2B 2495   7.321   5.653   5.103  0.0396  0.2676  0.0975
  182POPC   C3B 2496   7.480   5.769   5.491 -0.1690 -0.1382 -0.0734
  182POPC   C4B 2497   7.300   5.722   5.864 -0.0384  0.2121 -0.0545
  183POPC   NC3 2498  10.576   7.078   3.632 -0.0408 -0.6912  0.0689
  183POPC   PO4 2499  10.788   6.767   3.848 -0.1778 -0.1796  0.0775
  183POPC   GL1 2500  10.893   6.915   4.270  0.0435 -0.2062  0.1534
  183POPC   GL2 2501  10.735   6.806   4.509 -0.2961  0.0356 -0.0588
  183POPC   C1A 2502  11.226   6.791   4.622 -0.3954  0.0455  0.0551
  183POPC   D2A 2503  11.490   6.663   4.937  0.2391  0.0506  0.0023
  183POPC   C3A 2504  11.530   6.390   5.296  0.2123  0.1007  0.0820
  183POPC   C4A 2505  11.110   6.292   5.625  0.0709  0.0693  0.0713
  183POPC   C1B 2506  10.773   6.836   4.893 -0.2732  0.0213  0.0719
  183POPC   C2B 2507  10.784   6.928   5.376 -0.2860  0.0429 -0.1107
  183POPC   C3B 2508  10.565   6.765   5.741  0.1535  0.1393  0.1579
  183POPC   C4B 2509  10.222   6.570   6.039  0.1416 -0.1676  0.4270
  184POPC   NC3 2510   2.165   8.725   3.966 -0.1008  0.3012  0.2616
  184POPC   PO4 2511   2.296   9.035   4.109 -0.0043  0.0693 -0.1260
  184POPC   GL1 2512   2.140   8.800   4.445 -0.1637  0.3039 -0.0424
  184POPC   GL2 2513   2.040   8.550   4.417 -0.2165  0.1011  0.0422
  184POPC   C1A 2514   2.217   8.718   4.866 -0.1539 -0.1086  0.0702
  184POPC   D2A 2515   1.830   8.647   5.091  0.0051  0.0235 -0.1054
  184POPC   C3A 2516   1.740   9.060   5.290  0.1494  0.0211  0.1833
  184POPC   C4A 2517   1.496   9.488   5.261  0.2624 -0.1154 -0.2838
  184POPC   C1B 2518   1.674   8.460   4.627  0.2043 -0.0158 -0.0739
  184POPC   C2B 2519   1.451   8.354   4.884 -0.1152 -0.1874  0.2247
  184POPC   C3B 2520   1.589   8.268   5.307 -0.2555 -0.0123  0.0735
  184POPC   C4B 2521   1.518   8.265   5.700 -0.2245  0.0540  0.4467
  185POPC   NC3 2522   8.726   7.342   3.716 -0.1747  0.3675 -0.2277
  185POPC   PO4 2523   9.134   7.001   3.559 -0.2381 -0.0669 -0.1539
  185POPC   GL1 2524   8.993   6.937   3.995  0.2038 -0.1074 -0.0801
  185POPC   GL2 2525   9.259   6.982   4.283 -0.1833  0.0491 -0.2436
  185POPC   C1A 2526   8.795   7.116   4.372 -0.3317 -0.0179  0.0870
  185POPC   D2A 2527   8.782   7.319   4.726 -0.1820 -0.1492 -0.2037
  185POPC   C3A 2528   8.538   7.092   5.070 -0.1622  0.1047 -0.1054
  185POPC   C4A 2529   8.381   6.840   5.496 -0.2344 -0.0534  0.1837
  185POPC   C1B 2530   9.083   6.848   4.681 -0.3229 -0.3036 -0.2746
  185POPC   C2B 2531   9.354   6.847   5.133  0.3288  0.2410  0.1507
  185POPC   C3B 2532   9.463   7.063   5.564  0.1117 -0.3624 -0.1053
  185POPC   C4B 2533   9.240   6.923   5.967 -0.2716 -0.3635  0.1827
  186POPC   NC3 2534   5.896   8.705   3.112  0.1992 -0.1675  0.1953
  186POPC   PO4 2535   6.239   8.673   3.408  0.2853 -0.0240  0.1174
  186POPC   GL1 2536   6.256   8.458   3.855 -0.0406 -0.0943 -0.0239
  186POPC   GL2 2537   6.429   8.175   3.872  0.1868  0.0548  0.1426
  186POPC   C1A 2538   6.327   8.515   4.283  0.2021 -0.3414  0.1424
  186POPC   D2A 2539   6.525   8.791   4.491 -0.1514  0.2900  0.2146
  186POPC   C3A 2540   6.842   8.607   4.746  0.3267 -0.1287 -0.1629
  186POPC   C4A 2541   6.891   8.277   5.044 -0.1090 -0.1795 -0.3410
  186POPC   C1B 2542   6.379   7.991   4.281 -0.1130  0.3297  0.3638
  186POPC   C2B 2543   6.420   8.224   4.680 -0.0145  0.1261  0.0453
  186POPC   C3B 2544   6.368   8.552   4.964  0.2462 -0.3021 -0.2376
  186POPC   C4B 2545   6.047   8.899   5.156  0.0192  0.0451  0.0037
  187POPC   NC3 2546   9.275   1.174   3.753  0.0632  0.1088 -0.2900
  187POPC   PO4 2547   8.864   1.050   3.709 -0.2559 -0.2011 -0.0827
  187POPC   GL1 2548   8.747   0.851   3.973 -0.1534  0.0541 -0.2873
  187POPC   GL2 2549   8.911   0.658   4.098  0.1234 -0.2986 -0.4808
  187POPC   C1A 2550   8.422   0.683   4.171  0.0983  0.1804 -0.0089
  187POPC   D2A 2551   8.338   0.588   4.586 -0.1685 -0.0558 -0.1483
  187POPC   C3A 2552   8.339   0.707   5.071 -0.0984 -0.1721 -0.0241
  187POPC   C4A 2553   8.359   0.752   5.507 -0.0341  0.1345 -0.0072
  187POPC   C1B 2554   8.865   0.782   4.549 -0.0389  0.2849 -0.2314
  187POPC   C2B 2555   8.796   0.641   4.853  0.4117 -0.0747  0.2971
  187POPC   C3B 2556   9.021   0.544   5.192  0.1507 -0.1795 -0.0741
  187POPC   C4B 2557   9.001   0.222   5.512 -0.1168  0.0032  0.0133
  188POPC   NC3 2558   1.120   3.274   4.149 -0.4306 -0.0090 -0.0520
  188POPC   PO4 2559   0.795   3.567   3.888 -0.0587 -0.0400 -0.1831
  188POPC   GL1 2560   0.668   3.531   4.235  0.1984  0.2424  0.2222
  188POPC   GL2 2561   0.695   3.803   4.356  0.1112  0.3446  0.2041
  188POPC   C1A 2562   0.695   3.481   4.718  0.2030 -0.0129  0.2357
  188POPC   D2A 2563   0.823   3.680   5.152 -0.2385  0.1249  0.3508
  188POPC   C3A 2564   0.486   3.612   5.378  0.0008 -0.3124  0.2648
  188POPC   C4A 2565   0.342   3.783   5.683 -0.0846 -0.1132 -0.2101
  188POPC   C1B 2566   1.036   3.833   4.707  0.0953  0.0424  0.4145
  188POPC   C2B 2567   1.339   3.828   4.983 -0.1463 -0.1231  0.2577
  188POPC   C3B 2568   1.323   3.865   5.497  0.3627 -0.0198  0.1901
  188POPC   C4B 2569   1.494   3.684   5.794 -0.0003 -0.0251 -0.1471
  189POPC   NC3 2570   0.264   1.399   3.869  0.3163 -0.0870  0.0941
  189POPC   PO4 2571  -0.165   1.511   4.097  0.1744 -0.0349 -0.1225
  189POPC   GL1 2572  -0.362   1.377   4.518  0.2019  0.0556 -0.0370
  189POPC   GL2 2573  -0.477   1.034   4.549  0.0237  0.0962  0.0366
  189POPC   C1A 2574  -0.503   1.372   4.928  0.3951 -0.0534 -0.1647
  189POPC   D2A 2575  -0.720   1.181   5.274 -0.2645 -0.0583  0.0210
  189POPC   C3A 2576  -1.097   1.194   5.298 -0.0957  0.2114  0.3348
  189POPC   C4A 2577  -1.431   1.187   5.767  0.1530  0.0391 -0.2488
  189POPC   C1B 2578  -0.420   0.883   5.019  0.1135 -0.0263  0.1985
  189POPC   C2B 2579  -0.695   0.646   5.272 -0.3004  0.1767 -0.2033
  189POPC   C3B 2580  -0.872   0.388   5.632  0.1258  0.2483 -0.0208
  189POPC   C4B 2581  -1.297   0.146   5.815  0.0137  0.0898  0.1055
  190POPC   NC3 2582   5.807   7.990   3.598 -0.2824  0.3106 -0.0103
  190POPC   PO4 2583   5.767   8.279   3.400 -0.2620  0.3721 -0.3325
  190POPC   GL1 2584   5.674   8.417   3.829  0.0285 -0.2432 -0.3038
  190POPC   GL2 2585   5.415   8.450   3.954 -0.1757  0.1069  0.1782
  190POPC   C1A 2586   5.913   8.702   4.057  0.0248 -0.2892  0.0842
  190POPC   D2A 2587   6.137   9.044   4.286  0.2468 -0.0957 -0.0161
  190POPC   C3A 2588   6.138   9.152   4.722 -0.1141 -0.1820 -0.1932
  190POPC   C4A 2589   6.344   9.527   4.889 -0.3752 -0.2643 -0.1712
  190POPC   C1B 2590   5.573   8.472   4.323  0.1576 -0.0360  0.0742
  190POPC   C2B 2591   5.476   8.561   4.699 -0.2892  0.0118 -0.1425
  190POPC   C3B 2592   5.733   8.522   5.102 -0.0206 -0.0425 -0.0803
  190POPC   C4B 2593   5.747   8.514   5.480 -0.2638 -0.0063  0.2414
  191POPC   NC3 2594   6.663   2.287   3.886 -0.0320  0.2245 -0.2693
  191POPC   PO4 2595   7.019   2.108   3.669 -0.4356  0.0873  0.2279
  191POPC   GL1 2596   7.161   2.079   4.126 -0.0261  0.2022 -0.0852
  191POPC   GL2 2597   7.464   1.889   4.222  0.1587 -0.1310 -0.0605
  191POPC   C1A 2598   7.031   2.359   4.494  0.1772 -0.1377  0.3270
  191POPC   D2A 2599   7.259   2.636   4.878 -0.2720 -0.0086 -0.0967
  191POPC   C3A 2600   7.249   3.016   5.110  0.1372  0.0661 -0.0567
  191POPC   C4A 2601   7.139   3.366   5.322 -0.0970  0.1860  0.1594
  191POPC   C1B 2602   7.346   2.003   4.675 -0.3733 -0.2725  0.0710
  191POPC   C2B 2603   7.223   2.188   5.070 -0.2851 -0.0770  0.1679
  191POPC   C3B 2604   7.399   2.160   5.540  0.1960 -0.0603 -0.3055
  191POPC   C4B 2605   7.548   2.467   5.693  0.0602  0.0096  0.0272
  192POPC   NC3 2606   7.461   1.798   3.671 -0.2012  0.2154  0.0039
  192POPC   PO4 2607   7.698   1.404   3.454 -0.1424  0.1001  0.0976
  192POPC   GL1 2608   7.563   1.274   3.954  0.1885  0.0764 -0.0138
  192POPC   GL2 2609   7.664   1.454   4.098 -0.2779 -0.4767 -0.0549
  192POPC   C1A 2610   7.562   0.978   4.271 -0.2597 -0.0519 -0.0679
  192POPC   D2A 2611   7.890   0.730   4.543 -0.0755 -0.1109 -0.4244
  192POPC   C3A 2612   7.802   0.757   4.987  0.1208 -0.2495 -0.1614
  192POPC   C4A 2613   7.868   0.802   5.522  0.1859 -0.1275 -0.4675
  192POPC   C1B 2614   7.684   1.440   4.524  0.1167  0.1772 -0.0881
  192POPC   C2B 2615   7.575   1.222   4.918 -0.1029 -0.0752 -0.1492
  192POPC   C3B 2616   7.405   0.888   5.269 -0.1447 -0.1110  0.0581
  192POPC   C4B 2617   7.024   0.968   5.307  0.1866  0.1197 -0.0801
  193POPC   NC3 2618   7.268   0.494   3.170 -0.2961  0.4112 -0.1483
  193POPC   PO4 2619   7.670   0.569   3.154  0.3847 -0.1089 -0.0549
  193POPC   GL1 2620   7.544   0.610   3.596  0.1487  0.1086  0.0268
  193POPC   GL2 2621   7.473   0.830   3.763 -0.0414  0.2704  0.0494
  193POPC   C1A 2622   7.361   0.261   3.791  0.0907  0.0240 -0.5332
  193POPC   D2A 2623   7.296   0.099   4.223 -0.1742 -0.0334 -0.4101
  193POPC   C3A 2624   6.906  -0.068   4.361 -0.2297 -0.0229 -0.2273
  193POPC   C4A 2625   6.619  -0.340   4.293  0.2733 -0.0682  0.0956
  193POPC   C1B 2626   7.217   0.701   3.927  0.2281  0.0430 -0.4638
  193POPC   C2B 2627   7.197   0.575   4.339 -0.1834  0.0150  0.3376
  193POPC   C3B 2628   6.777   0.410   4.518 -0.0438  0.1740 -0.1237
  193POPC   C4B 2629   6.386   0.180   4.595 -0.1767  0.0076  0.3104
  194POPC   NC3 2630   2.827   4.101   3.484  0.0490  0.0999  0.1399
  194POPC   PO4 2631   2.653   4.515   3.560  0.1506  0.3713 -0.0008
  194POPC   GL1 2632   2.661   4.649   4.042 -0.2203 -0.0211 -0.0830
  194POPC   GL2 2633   2.647   4.434   4.294 -0.1592 -0.1753 -0.1892
  194POPC   C1A 2634   2.530   4.962   4.414  0.0125 -0.0483 -0.0466
  194POPC   D2A 2635   2.503   4.811   4.777 -0.0960 -0.1154  0.0463
  194POPC   C3A 2636   2.640   5.017   5.137  0.1862 -0.0132  0.1813
  194POPC   C4A 2637   2.638   5.251   5.509  0.1088 -0.1955  0.0377
  194POPC   C1B 2638   2.742   4.373   4.736 -0.1845 -0.3704  0.0108
  194POPC   C2B 2639   2.660   4.529   5.178  0.0694 -0.4286  0.1511
  194POPC   C3B 2640   2.647   4.445   5.538 -0.1109  0.2474 -0.2245
  194POPC   C4B 2641   2.698   4.372   5.986 -0.1545 -0.1850  0.1531
  195POPC   NC3 2642   3.391   9.010   4.188  0.5542 -0.0753  0.1307
  195POPC   PO4 2643   3.712   8.828   4.330  0.0235  0.0520  0.2238
  195POPC   GL1 2644   4.041   8.798   4.622  0.0704  0.1841 -0.1345
  195POPC   GL2 2645   3.737   8.797   4.853  0.0497 -0.1697 -0.1966
  195POPC   C1A 2646   4.221   8.741   5.130 -0.3043 -0.1454  0.0730
  195POPC   D2A 2647   4.200   8.885   5.515  0.1736 -0.4285  0.0542
  195POPC   C3A 2648   4.460   8.695   5.850 -0.1588 -0.6614 -0.0304
  195POPC   C4A 2649   4.625   8.530   6.202 -0.1738  0.0458  0.0663
  195POPC   C1B 2650   3.815   8.525   5.235  0.0413  0.2249 -0.0932
  195POPC   C2B 2651   3.755   8.659   5.597 -0.0844  0.0456 -0.2203
  195POPC   C3B 2652   3.959   8.747   5.911 -0.0789  0.1645  0.0786
  195POPC   C4B 2653   4.135   8.504   6.200 -0.3678 -0.2074 -0.3097
  196POPC   NC3 2654   0.406   3.887   3.795  0.0126  0.1798 -0.2441
  196POPC   PO4 2655  -0.041   3.670   3.801  0.0015 -0.1678 -0.1543
  196POPC   GL1 2656   0.052   3.646   4.213  0.1190  0.1866  0.0911
  196POPC   GL2 2657  -0.281   3.551   4.317 -0.4434 -0.2644  0.2228
  196POPC   C1A 2658   0.160   3.324   4.451  0.2351  0.4510 -0.1446
  196POPC   D2A 2659   0.241   3.319   4.946  0.0426  0.0840 -0.3017
  196POPC   C3A 2660   0.678   3.174   5.159  0.2099  0.2078  0.1094
  196POPC   C4A 2661   1.022   3.335   5.400  0.4049  0.4341  0.0509
  196POPC   C1B 2662  -0.203   3.557   4.785  0.0702  0.1755  0.0783
  196POPC   C2B 2663   0.020   3.712   5.113 -0.0685 -0.0007 -0.0658
  196POPC   C3B 2664  -0.129   3.729   5.496  0.3451 -0.0149 -0.0880
  196POPC   C4B 2665  -0.426   3.705   5.820 -0.1861 -0.1341  0.1802
  197POPC   NC3 2666   1.987   3.375   3.842  0.0421 -0.0193 -0.0874
  197POPC   PO4 2667   2.533   3.350   3.824  0.1707 -0.1145 -0.0589
  197POPC   GL1 2668   2.474   3.676   4.095  0.4214 -0.0180  0.1364
  197POPC   GL2 2669   2.376   3.640   4.508 -0.0646  0.1550  0.0741
  197POPC   C1A 2670   2.359   4.084   4.392 -0.0224  0.3207 -0.1177
  197POPC   D2A 2671   2.152   4.384   4.672 -0.0923  0.1058 -0.1352
  197POPC   C3A 2672   2.176   4.509   5.118  0.0103  0.1324 -0.0445
  197POPC   C4A 2673   2.014   4.359   5.409  0.0337 -0.1699 -0.2983
  197POPC   C1B 2674   2.549   3.954   4.915 -0.2895  0.1687  0.0817
  197POPC   C2B 2675   2.437   4.025   5.348 -0.0453 -0.1487  0.0715
  197POPC   C3B 2676   2.328   4.030   5.778  0.3753 -0.1393 -0.1486
  197POPC   C4B 2677   2.110   4.448   5.884 -0.1323 -0.0950  0.1140
  198POPC   NC3 2678   7.064   9.596   2.494 -0.0627 -0.1838 -0.0566
  198POPC   PO4 2679   7.413   9.495   2.757 -0.0532 -0.2799 -0.1445
  198POPC   GL1 2680   7.506   9.686   3.137 -0.0646  0.0589  0.0964
  198POPC   GL2 2681   7.375   9.652   3.419 -0.0008  0.1030  0.2157
  198POPC   C1A 2682   7.947   9.715   3.403 -0.0670  0.2404  0.0339
  198POPC   D2A 2683   7.986   9.632   3.824 -0.0034  0.1571 -0.3564
  198POPC   C3A 2684   7.512   9.630   3.871  0.0929 -0.3037 -0.0036
  198POPC   C4A 2685   7.096   9.643   4.118 -0.1631  0.1547  0.1303
  198POPC   C1B 2686   7.133   9.326   3.720 -0.1504  0.0261 -0.2024
  198POPC   C2B 2687   6.992   8.838   3.716  0.0266 -0.3235 -0.0416
  198POPC   C3B 2688   6.830   8.499   3.889  0.0426 -0.2004 -0.0464
  198POPC   C4B 2689   6.783   8.281   4.276 -0.1158 -0.1976  0.1469
  199POPC   NC3 2690   2.053   1.762   4.034  0.0768 -0.1382  0.2278
  199POPC   PO4 2691   1.639   2.131   4.059 -0.0142  0.4323  0.2568
  199POPC   GL1 2692   1.835   2.269   4.331 -0.1546 -0.2318  0.1286
  199POPC   GL2 2693   2.068   2.024   4.445 -0.0085  0.0469  0.2923
  199POPC   C1A 2694   1.858   2.458   4.756 -0.0774 -0.0624  0.1458
  199POPC   D2A 2695   1.577   2.478   5.098 -0.0239 -0.1983  0.0548
  199POPC   C3A 2696   1.536   2.156   5.489  0.3799 -0.1403  0.1742
  199POPC   C4A 2697   1.632   2.047   6.017  0.1630  0.1605  0.1572
  199POPC   C1B 2698   1.864   1.998   4.769  0.3201 -0.0752 -0.1852
  199POPC   C2B 2699   1.774   1.762   5.150 -0.0888  0.0771 -0.2066
  199POPC   C3B 2700   1.946   1.854   5.570  0.1434 -0.1262 -0.1066
  199POPC   C4B 2701   2.073   1.772   6.086  0.0249 -0.1879 -0.0007
  200POPC   NC3 2702  10.406  10.057   3.868  0.0352  0.0911 -0.2999
  200POPC   PO4 2703  10.315  10.485   3.680  0.0448 -0.2639  0.3821
  200POPC   GL1 2704  10.150  10.485   4.065 -0.1161 -0.2403  0.1164
  200POPC   GL2 2705   9.948  10.240   4.295 -0.0070 -0.0772 -0.0375
  200POPC   C1A 2706  10.197  10.664   4.553 -0.1665  0.1629  0.2700
  200POPC   D2A 2707  10.229  10.397   4.950  0.0262 -0.0325  0.2619
  200POPC   C3A 2708  10.362  10.100   5.300 -0.0127  0.0446 -0.2070
  200POPC   C4A 2709  10.490   9.839   5.640  0.0134 -0.0253  0.0283
  200POPC   C1B 2710  10.268  10.024   4.623  0.3072 -0.0291 -0.0178
  200POPC   C2B 2711  10.032   9.790   5.008  0.3859 -0.0425  0.1123
  200POPC   C3B 2712   9.912   9.724   5.527 -0.0320 -0.0071 -0.1457
  200POPC   C4B 2713   9.732   9.355   5.668 -0.3408  0.0410  0.2525
  201POPC   NC3 2714   5.147   6.341   4.064  0.4080 -0.3618 -0.3173
  201POPC   PO4 2715   5.114   6.742   4.293  0.2352  0.1784  0.1924
  201POPC   GL1 2716   5.226   6.684   4.707  0.0674  0.2543 -0.0438
  201POPC   GL2 2717   5.488   6.859   4.913 -0.0464  0.2221  0.2712
  201POPC   C1A 2718   5.246   6.398   5.065 -0.0453 -0.1047  0.1270
  201POPC   D2A 2719   4.987   6.015   5.154 -0.0592 -0.1568 -0.1143
  201POPC   C3A 2720   5.036   5.860   5.506  0.0555 -0.1277 -0.0782
  201POPC   C4A 2721   5.069   5.471   5.781 -0.2267 -0.0091  0.0942
  201POPC   C1B 2722   5.365   7.187   5.160 -0.0619 -0.3809  0.0681
  201POPC   C2B 2723   5.251   7.219   5.573  0.2385  0.0705 -0.1787
  201POPC   C3B 2724   5.131   7.543   5.758 -0.5655  0.0223  0.0600
  201POPC   C4B 2725   5.078   7.984   5.885  0.1666 -0.1167  0.0948
  202POPC   NC3 2726   7.092   9.264   3.138  0.0250  0.1020 -0.0575
  202POPC   PO4 2727   6.726   9.351   2.869  0.1040 -0.0144  0.0333
  202POPC   GL1 2728   6.676   9.548   3.237 -0.2195 -0.0047 -0.3170
  202POPC   GL2 2729   6.575   9.802   3.322 -0.0822 -0.1809  0.2062
  202POPC   C1A 2730   6.590   9.440   3.666 -0.0311  0.2998 -0.1453
  202POPC   D2A 2731   6.791   9.194   4.095  0.0870 -0.1258 -0.2548
  202POPC   C3A 2732   6.965   8.798   4.294  0.3540  0.3406  0.0143
  202POPC   C4A 2733   7.297   8.667   4.550 -0.2058  0.4729  0.4292
  202POPC   C1B 2734   6.863   9.950   3.717 -0.0827 -0.0231  0.1352
  202POPC   C2B 2735   7.247  10.007   3.795 -0.1843  0.2549 -0.0302
  202POPC   C3B 2736   7.677  10.085   3.680  0.0829  0.0689  0.1821
  202POPC   C4B 2737   8.116  10.065   3.732  0.1642 -0.1133  0.1506
  203POPC   NC3 2738   4.528   7.096   4.044 -0.0239 -0.1938  0.0075
  203POPC   PO4 2739   4.545   7.544   4.179 -0.1668 -0.1746 -0.0730
  203POPC   GL1 2740   4.560   7.305   4.526 -0.1401  0.0953 -0.0108
  203POPC   GL2 2741   4.915   7.199   4.389  0.1875 -0.1178  0.4221
  203POPC   C1A 2742   4.491   7.234   4.922 -0.1558  0.2777  0.1123
  203POPC   D2A 2743   4.555   6.993   5.258 -0.0651 -0.2847 -0.1578
  203POPC   C3A 2744   4.216   6.941   5.557  0.0056 -0.2123  0.4087
  203POPC   C4A 2745   4.222   6.560   5.837 -0.1807  0.1213  0.0092
  203POPC   C1B 2746   4.969   7.097   4.760 -0.1815  0.2113 -0.0058
  203POPC   C2B 2747   5.021   6.881   5.069  0.3512 -0.2087  0.3874
  203POPC   C3B 2748   5.161   6.712   5.479 -0.1002  0.0617  0.2173
  203POPC   C4B 2749   5.345   6.335   5.691  0.0650  0.0557  0.0869
  204POPC   NC3 2750   0.553   7.722   4.216 -0.2219 -0.1308  0.2793
  204POPC   PO4 2751   0.449   7.344   4.019 -0.1951 -0.1727 -0.3968
  204POPC   GL1 2752   0.213   7.389   4.474  0.0957 -0.0773  0.1600
  204POPC   GL2 2753  -0.015   7.394   4.520 -0.0989  0.0548  0.2675
  204POPC   C1A 2754   0.365   7.354   4.883  0.1797 -0.0566  0.3092
  204POPC   D2A 2755   0.808   7.382   5.070 -0.0590 -0.0025 -0.0205
  204POPC   C3A 2756   0.877   7.736   4.901 -0.0050 -0.1636  0.0254
  204POPC   C4A 2757   1.239   7.982   4.643 -0.1398 -0.0221  0.0537
  204POPC   C1B 2758  -0.114   7.738   4.787  0.3285  0.0661 -0.2329
  204POPC   C2B 2759  -0.404   8.015   4.933  0.1489  0.1585 -0.2308
  204POPC   C3B 2760  -0.829   8.134   4.955 -0.1488  0.0097  0.0496
  204POPC   C4B 2761  -1.215   8.295   4.812  0.1066 -0.2073  0.2305
  205POPC   NC3 2762   7.197   1.289   3.537 -0.0641 -0.3028 -0.0253
  205POPC   PO4 2763   6.759   1.338   3.541  0.0903 -0.0446 -0.1286
  205POPC   GL1 2764   6.827   1.158   3.973 -0.1233  0.0082 -0.4716
  205POPC   GL2 2765   7.105   1.201   4.175 -0.0301 -0.0345 -0.1780
  205POPC   C1A 2766   6.806   0.945   4.431  0.0584 -0.0726 -0.3616
  205POPC   D2A 2767   7.087   0.838   4.836 -0.2463  0.3989 -0.1104
  205POPC   C3A 2768   7.185   0.391   4.785 -0.0159  0.0732  0.0320
  205POPC   C4A 2769   7.209  -0.053   4.774  0.0049  0.0281  0.0399
  205POPC   C1B 2770   7.201   1.468   4.628  0.4438 -0.1000 -0.3479
  205POPC   C2B 2771   7.010   1.343   4.980 -0.4713  0.2786 -0.0903
  205POPC   C3B 2772   7.256   1.344   5.434  0.2724 -0.1371  0.1155
  205POPC   C4B 2773   7.630   1.295   5.467 -0.0950  0.1171 -0.3981
  206POPC   NC3 2774   3.925   6.328   4.248  0.0147 -0.3011 -0.1499
  206POPC   PO4 2775   4.185   5.921   4.345 -0.0841 -0.1941  0.1611
  206POPC   GL1 2776   4.374   6.144   4.640  0.0196  0.1698  0.0425
  206POPC   GL2 2777   4.177   6.434   4.675 -0.0735  0.2730  0.1313
  206POPC   C1A 2778   4.504   5.863   5.051  0.0595  0.0139  0.1897
  206POPC   D2A 2779   4.384   5.566   5.328 -0.1381  0.1197  0.0485
  206POPC   C3A 2780   4.538   5.492   5.778  0.1598 -0.0358 -0.0751
  206POPC   C4A 2781   4.701   5.368   6.122 -0.0757 -0.0469 -0.2030
  206POPC   C1B 2782   4.264   6.366   5.163 -0.0309 -0.0467 -0.0470
  206POPC   C2B 2783   4.362   6.106   5.508 -0.0878 -0.0179 -0.1511
  206POPC   C3B 2784   4.026   5.714   5.694  0.0895 -0.1117  0.0983
  206POPC   C4B 2785   4.102   5.302   5.818  0.2074  0.2547 -0.1238
  207POPC   NC3 2786   2.446   1.491   4.089  0.1055  0.0935 -0.1142
  207POPC   PO4 2787   2.614   1.951   4.098 -0.1421 -0.1426  0.0180
  207POPC   GL1 2788   2.568   1.940   4.536  0.0797  0.2267 -0.2349
  207POPC   GL2 2789   2.722   2.237   4.617  0.1298 -0.0862  0.0294
  207POPC   C1A 2790   2.313   1.790   4.907  0.0993 -0.0707 -0.0868
  207POPC   D2A 2791   2.248   1.569   5.310 -0.3020  0.3633 -0.0968
  207POPC   C3A 2792   2.410   1.635   5.655  0.1991 -0.0927  0.0691
  207POPC   C4A 2793   2.761   1.566   5.894  0.1317  0.3313 -0.0569
  207POPC   C1B 2794   2.361   2.293   4.882  0.2252 -0.0095 -0.1235
  207POPC   C2B 2795   2.067   2.388   5.302 -0.0380  0.5028 -0.2767
  207POPC   C3B 2796   1.974   2.412   5.833  0.1074  0.3977  0.0427
  207POPC   C4B 2797   1.789   2.494   6.300  0.1430  0.0317 -0.1197
  208POPC   NC3 2798   0.142   2.370   3.747 -0.2060 -0.0591 -0.0466
  208POPC   PO4 2799  -0.074   2.004   3.883  0.0003  0.0525  0.0930
  208POPC   GL1 2800  -0.065   2.226   4.256  0.0973 -0.4526  0.1094
  208POPC   GL2 2801  -0.164   1.911   4.414 -0.1729 -0.0485 -0.1599
  208POPC   C1A 2802  -0.164   2.456   4.576  0.2269 -0.4273 -0.1339
  208POPC   D2A 2803   0.101   2.268   4.958 -0.3495 -0.0624  0.0110
  208POPC   C3A 2804   0.011   2.296   5.488  0.1814 -0.3053 -0.0191
  208POPC   C4A 2805  -0.191   2.330   5.907 -0.0698 -0.1379 -0.0292
  208POPC   C1B 2806  -0.160   1.811   4.811 -0.2155  0.1375  0.0171
  208POPC   C2B 2807  -0.329   2.021   5.085 -0.2454  0.0806 -0.3244
  208POPC   C3B 2808  -0.265   2.561   5.208 -0.1158 -0.0386  0.1763
  208POPC   C4B 2809  -0.265   2.723   5.582  0.1324  0.0115 -0.2605
  209POPC   NC3 2810   1.533   1.110   3.991 -0.3156 -0.1436  0.1230
  209POPC   PO4 2811   1.687   1.441   3.995  0.2888  0.0488  0.0042
  209POPC   GL1 2812   1.713   1.658   4.405 -0.4763 -0.0883 -0.0053
  209POPC   GL2 2813   1.453   1.942   4.464  0.3698 -0.0853 -0.0921
  209POPC   C1A 2814   1.509   1.459   4.827 -0.0056 -0.0560  0.1536
  209POPC   D2A 2815   1.472   0.981   4.850 -0.2645  0.2758  0.1003
  209POPC   C3A 2816   1.209   0.648   4.702 -0.0241 -0.0459  0.0902
  209POPC   C4A 2817   1.088   0.305   4.865  0.1649 -0.1529  0.0436
  209POPC   C1B 2818   1.363   1.900   4.877 -0.2002 -0.1537  0.0730
  209POPC   C2B 2819   1.215   1.709   5.267  0.2624  0.0784  0.0447
  209POPC   C3B 2820   1.002   1.602   5.544 -0.2317  0.2599 -0.1423
  209POPC   C4B 2821   0.596   1.578   5.446 -0.1160  0.3186  0.3394
  210POPC   NC3 2822   3.361   5.794   3.507  0.1618 -0.0506 -0.2841
  210POPC   PO4 2823   3.240   5.819   3.886 -0.1056  0.1649  0.0352
  210POPC   GL1 2824   2.967   5.849   4.352 -0.0285 -0.1709  0.0881
  210POPC   GL2 2825   2.950   6.318   4.461 -0.0897 -0.0349 -0.1159
  210POPC   C1A 2826   3.083   5.812   4.757 -0.1295  0.1515  0.3806
  210POPC   D2A 2827   3.270   5.874   5.137 -0.2202 -0.3024  0.0263
  210POPC   C3A 2828   3.469   5.540   5.385  0.0902  0.0508 -0.0201
  210POPC   C4A 2829   3.635   5.254   5.645 -0.0044  0.0685  0.0052
  210POPC   C1B 2830   2.998   6.401   4.791 -0.1371  0.0580 -0.0985
  210POPC   C2B 2831   2.987   6.637   5.219 -0.2578  0.0109  0.0504
  210POPC   C3B 2832   3.017   6.523   5.717  0.1189 -0.0428  0.0697
  210POPC   C4B 2833   3.239   6.405   6.044 -0.0654  0.2188 -0.1688
  211POPC   NC3 2834   5.248   3.093   3.845  0.0632  0.2208  0.4560
  211POPC   PO4 2835   4.938   3.346   4.028 -0.0801  0.2529 -0.3454
  211POPC   GL1 2836   4.749   3.533   4.428  0.0260 -0.0084  0.0037
  211POPC   GL2 2837   4.598   3.809   4.306 -0.4585  0.0306 -0.1456
  211POPC   C1A 2838   4.482   3.668   4.724 -0.1534  0.0831 -0.1257
  211POPC   D2A 2839   4.266   3.650   5.083 -0.2757  0.1126  0.0018
  211POPC   C3A 2840   4.396   3.434   5.407  0.0099  0.1600 -0.1705
  211POPC   C4A 2841   4.421   3.213   5.816  0.2059 -0.0688  0.0712
  211POPC   C1B 2842   4.962   4.025   4.564 -0.0288  0.0622 -0.0435
  211POPC   C2B 2843   5.146   4.203   4.929 -0.2655 -0.0906 -0.3798
  211POPC   C3B 2844   5.310   4.315   5.393  0.0147  0.1009  0.2495
  211POPC   C4B 2845   5.557   4.506   5.692 -0.3653  0.1508 -0.1777
  212POPC   NC3 2846   8.309   4.849   3.823  0.0125 -0.0445  0.2806
  212POPC   PO4 2847   8.640   5.191   3.875 -0.3751 -0.1745 -0.1087
  212POPC   GL1 2848   8.995   5.421   4.142 -0.3434 -0.0437 -0.1080
  212POPC   GL2 2849   8.698   5.635   4.301 -0.1891 -0.1807  0.0020
  212POPC   C1A 2850   9.217   5.298   4.522  0.3510 -0.0527  0.2105
  212POPC   D2A 2851   9.331   5.314   4.945  0.2142  0.2308  0.2016
  212POPC   C3A 2852   9.319   4.914   5.239 -0.1168 -0.2775 -0.3245
  212POPC   C4A 2853   9.487   4.817   5.553 -0.2680  0.0621  0.1015
  212POPC   C1B 2854   8.963   5.708   4.726 -0.1108  0.1275  0.0166
  212POPC   C2B 2855   9.334   5.992   4.825 -0.2760  0.1549 -0.1324
  212POPC   C3B 2856   9.640   6.216   4.919 -0.1175 -0.0841 -0.1971
  212POPC   C4B 2857   9.789   6.568   5.182  0.0925  0.0318 -0.0715
  213POPC   NC3 2858   0.529  10.551   4.060  0.0082 -0.0057  0.1674
  213POPC   PO4 2859   0.352  10.883   4.002 -0.0298  0.0215 -0.2266
  213POPC   GL1 2860   0.130  10.689   4.276  0.0236  0.1421 -0.1193
  213POPC   GL2 2861  -0.099  10.362   4.341  0.1413 -0.0014  0.0328
  213POPC   C1A 2862  -0.040  10.788   4.756  0.0891  0.1705  0.2678
  213POPC   D2A 2863  -0.037  10.536   5.240 -0.2503  0.0984  0.1608
  213POPC   C3A 2864  -0.407  10.649   5.482 -0.1089  0.1083 -0.1138
  213POPC   C4A 2865  -0.764  10.548   5.666  0.0367  0.1357  0.1590
  213POPC   C1B 2866   0.077  10.267   4.729  0.0644  0.0844  0.0335
  213POPC   C2B 2867   0.415  10.261   4.946 -0.3184 -0.2975 -0.1444
  213POPC   C3B 2868   0.675   9.970   5.062 -0.2643 -0.2705 -0.2207
  213POPC   C4B 2869   0.882   9.987   5.438 -0.0272  0.0906  0.2480
  214POPC   NC3 2870   6.273   4.614   3.663  0.0469 -0.0670 -0.1441
  214POPC   PO4 2871   5.859   4.369   3.611 -0.0484  0.1092 -0.1949
  214POPC   GL1 2872   6.099   4.079   3.804  0.1651 -0.1345  0.0797
  214POPC   GL2 2873   5.920   3.864   4.031 -0.2754 -0.3266  0.0744
  214POPC   C1A 2874   6.405   4.154   4.163  0.1055  0.5020 -0.2750
  214POPC   D2A 2875   6.858   4.167   4.086  0.0552  0.1436 -0.1126
  214POPC   C3A 2876   7.051   4.032   4.519  0.1240  0.2403 -0.0877
  214POPC   C4A 2877   6.999   3.639   4.802 -0.0141 -0.0644 -0.2422
  214POPC   C1B 2878   5.930   4.212   4.406 -0.0723 -0.0620 -0.3850
  214POPC   C2B 2879   6.224   4.434   4.704  0.1766  0.0887 -0.1758
  214POPC   C3B 2880   6.636   4.465   4.532  0.3553 -0.2299 -0.0010
  214POPC   C4B 2881   7.155   4.488   4.442 -0.0063  0.1056  0.2579
  215POPC   NC3 2882   4.773   1.799   4.185 -0.1805 -0.2888 -0.0783
  215POPC   PO4 2883   5.061   2.148   4.132  0.1733  0.0888  0.1532
  215POPC   GL1 2884   5.268   2.381   4.451  0.1730 -0.0226  0.2725
  215POPC   GL2 2885   5.570   2.334   4.345  0.1164  0.1529  0.1280
  215POPC   C1A 2886   5.411   2.189   4.935  0.1083 -0.2764  0.1185
  215POPC   D2A 2887   5.153   1.886   5.286 -0.0945  0.0758  0.1956
  215POPC   C3A 2888   5.245   1.814   5.686 -0.0700  0.0621 -0.0105
  215POPC   C4A 2889   5.253   1.360   5.858 -0.0414  0.0846 -0.0780
  215POPC   C1B 2890   5.762   2.476   4.702  0.6305  0.2544  0.0899
  215POPC   C2B 2891   6.063   2.409   4.918 -0.1555 -0.1133  0.1199
  215POPC   C3B 2892   6.326   2.054   5.234  0.1022 -0.0942 -0.3216
  215POPC   C4B 2893   6.451   1.777   5.570  0.1588  0.1568  0.3489
  216POPC   NC3 2894   7.272   6.150   3.819  0.3164  0.2815  0.1544
  216POPC   PO4 2895   7.046   6.506   3.995  0.3018  0.0059  0.1466
  216POPC   GL1 2896   6.899   6.496   4.378  0.1088  0.2542 -0.2073
  216POPC   GL2 2897   6.691   6.719   4.461 -0.1307  0.0302  0.1118
  216POPC   C1A 2898   6.868   6.180   4.679  0.0311  0.1510 -0.1451
  216POPC   D2A 2899   6.854   6.012   5.074  0.2141 -0.1516 -0.1602
  216POPC   C3A 2900   6.436   5.905   5.300  0.1130 -0.0202 -0.0336
  216POPC   C4A 2901   5.988   5.604   5.522 -0.0764  0.0441 -0.0754
  216POPC   C1B 2902   6.713   6.750   4.877 -0.0581 -0.0033 -0.0504
  216POPC   C2B 2903   6.928   7.044   5.293  0.2022 -0.2296  0.0265
  216POPC   C3B 2904   6.866   7.120   5.752  0.0023  0.1323  0.2421
  216POPC   C4B 2905   7.263   7.279   6.043 -0.1348 -0.0079 -0.3779
  217POPC   NC3 2906   2.004   4.997   3.613 -0.1895  0.0281  0.2705
  217POPC   PO4 2907   1.689   4.637   3.537  0.0593 -0.1121 -0.0415
  217POPC   GL1 2908   1.646   4.550   3.978  0.0267 -0.0460  0.2005
  217POPC   GL2 2909   1.332   4.659   4.235 -0.0947  0.1778  0.0237
  217POPC   C1A 2910   1.865   4.810   4.367 -0.0094  0.0969  0.2700
  217POPC   D2A 2911   1.959   4.851   4.791 -0.2770  0.2812  0.1137
  217POPC   C3A 2912   1.668   4.834   5.182 -0.1930  0.1028 -0.1541
  217POPC   C4A 2913   1.294   5.022   5.425 -0.0606  0.1766 -0.0352
  217POPC   C1B 2914   1.354   4.761   4.704 -0.4112 -0.1242 -0.1015
  217POPC   C2B 2915   1.164   4.633   5.075 -0.0916 -0.2111  0.4497
  217POPC   C3B 2916   0.718   4.549   5.190  0.0699 -0.1015 -0.0898
  217POPC   C4B 2917   0.318   4.554   4.997  0.2683  0.2094  0.1528
  218POPC   NC3 2918   8.539   3.267   3.702 -0.2274 -0.0413  0.1831
  218POPC   PO4 2919   8.619   3.781   3.769 -0.0765 -0.0974  0.0966
  218POPC   GL1 2920   8.813   3.951   4.130 -0.1246  0.4715 -0.2158
  218POPC   GL2 2921   8.564   4.146   4.360  0.1101  0.3672 -0.1040
  218POPC   C1A 2922   8.875   3.802   4.488  0.1236  0.0001 -0.1613
  218POPC   D2A 2923   8.948   3.965   4.878 -0.0900 -0.1025  0.1598
  218POPC   C3A 2924   9.076   3.929   5.364  0.0409  0.3238 -0.1566
  218POPC   C4A 2925   9.325   3.878   5.815 -0.1128 -0.1256 -0.1877
  218POPC   C1B 2926   8.423   4.081   4.777 -0.2948  0.2323  0.1013
  218POPC   C2B 2927   8.297   4.043   5.227 -0.2275  0.3681 -0.1211
  218POPC   C3B 2928   8.217   3.958   5.582  0.2827  0.0521  0.0138
  218POPC   C4B 2929   8.145   3.723   5.976  0.0577  0.0099  0.1202
  219POPC   NC3 2930   0.870   8.323   3.642 -0.1261  0.1688 -0.1977
  219POPC   PO4 2931   0.920   8.117   4.115  0.1495 -0.2428  0.1003
  219POPC   GL1 2932   0.727   8.070   4.541 -0.0028  0.1222  0.0483
  219POPC   GL2 2933   0.497   8.323   4.562  0.0811 -0.0158 -0.1649
  219POPC   C1A 2934   0.899   8.189   4.927  0.0838  0.2473 -0.0521
  219POPC   D2A 2935   1.191   7.982   5.220  0.1122 -0.0228  0.2059
  219POPC   C3A 2936   1.025   7.710   5.430  0.0859  0.1489  0.1818
  219POPC   C4A 2937   0.897   7.291   5.508 -0.0445 -0.2078  0.0069
  219POPC   C1B 2938   0.452   8.430   5.104 -0.2364  0.1302 -0.1642
  219POPC   C2B 2939   0.534   8.517   5.536 -0.0215 -0.3522  0.4780
  219POPC   C3B 2940   0.756   8.623   5.894 -0.1642  0.1989 -0.2698
  219POPC   C4B 2941   0.867   8.648   6.304  0.0388  0.0942  0.0760
  220POPC   NC3 2942   1.689   5.822   3.789 -0.1888  0.2668  0.0896
  220POPC   PO4 2943   1.750   5.444   3.551 -0.3283  0.0540  0.1476
  220POPC   GL1 2944   1.740   5.394   4.038 -0.0566  0.0211  0.1188
  220POPC   GL2 2945   1.482   5.347   4.272 -0.1427 -0.0448 -0.1611
  220POPC   C1A 2946   2.018   5.371   4.383  0.1225  0.0635 -0.0116
  220POPC   D2A 2947   2.171   5.302   4.762 -0.0162  0.1353  0.0398
  220POPC   C3A 2948   2.121   5.103   5.260  0.0637  0.2008  0.2834
  220POPC   C4A 2949   2.237   4.751   5.557 -0.0111 -0.0346  0.0472
  220POPC   C1B 2950   1.668   5.204   4.694 -0.0055  0.4288  0.1337
  220POPC   C2B 2951   1.719   5.419   5.086  0.2011 -0.2065  0.1887
  220POPC   C3B 2952   1.716   5.343   5.491 -0.1055  0.2730  0.0708
  220POPC   C4B 2953   1.980   5.132   5.750 -0.0030  0.2605 -0.1290
  221POPC   NC3 2954   3.810  10.649   4.257  0.3871  0.1333  0.2602
  221POPC   PO4 2955   4.101  10.241   4.281 -0.0977 -0.1769 -0.2224
  221POPC   GL1 2956   4.144  10.267   4.741 -0.1115 -0.1177 -0.0802
  221POPC   GL2 2957   4.139  10.003   4.861 -0.2166  0.0508  0.0919
  221POPC   C1A 2958   4.245  10.342   5.235 -0.1748 -0.0724  0.1242
  221POPC   D2A 2959   4.128  10.286   5.658 -0.0248 -0.2826 -0.3019
  221POPC   C3A 2960   4.163   9.970   5.797 -0.0173 -0.0109 -0.1329
  221POPC   C4A 2961   4.399   9.748   5.991 -0.2983  0.2488 -0.0235
  221POPC   C1B 2962   4.252   9.779   5.327 -0.0359 -0.0024  0.0614
  221POPC   C2B 2963   4.583   9.544   5.490 -0.1944 -0.0542 -0.3333
  221POPC   C3B 2964   4.721   9.361   5.820 -0.0518  0.3249 -0.0087
  221POPC   C4B 2965   5.066   9.388   6.220 -0.1101 -0.1118 -0.3878
  222POPC   NC3 2966   9.197   0.617   3.725 -0.0318 -0.0616  0.0356
  222POPC   PO4 2967   9.360   0.842   4.102  0.4437  0.0962  0.3306
  222POPC   GL1 2968   9.287   1.073   4.442  0.0194  0.2470 -0.1614
  222POPC   GL2 2969   8.976   1.176   4.292  0.0180 -0.1035 -0.1682
  222POPC   C1A 2970   9.196   0.964   4.957  0.1112  0.1022 -0.2604
  222POPC   D2A 2971   8.967   1.021   5.337  0.0721 -0.0345  0.1634
  222POPC   C3A 2972   8.820   0.785   5.642  0.0793 -0.2409 -0.0877
  222POPC   C4A 2973   8.700   0.596   5.935 -0.0458 -0.3151 -0.1756
  222POPC   C1B 2974   8.900   1.294   4.707  0.0117  0.1138  0.1598
  222POPC   C2B 2975   9.142   1.553   5.129  0.1127 -0.2192  0.0918
  222POPC   C3B 2976   9.192   1.555   5.504 -0.1858 -0.2461 -0.0522
  222POPC   C4B 2977   9.058   1.676   5.869  0.0642 -0.0790 -0.0224
  223POPC   NC3 2978   7.518   5.512   3.675 -0.1112  0.1744  0.0682
  223POPC   PO4 2979   7.689   5.849   3.960  0.1323  0.0223  0.6504
  223POPC   GL1 2980   7.767   5.497   4.140 -0.1034  0.0061  0.1989
  223POPC   GL2 2981   7.713   5.154   3.988  0.1165 -0.0470  0.1312
  223POPC   C1A 2982   7.780   5.223   4.484  0.0675 -0.1854 -0.2984
  223POPC   D2A 2983   8.063   4.881   4.512 -0.0355 -0.4915  0.0347
  223POPC   C3A 2984   8.423   4.808   4.778  0.2002 -0.0423  0.0220
  223POPC   C4A 2985   8.725   4.461   4.757 -0.0178 -0.0176  0.2873
  223POPC   C1B 2986   7.264   5.055   4.190  0.1402 -0.0348  0.0824
  223POPC   C2B 2987   7.264   5.244   4.652 -0.3823  0.0481 -0.0914
  223POPC   C3B 2988   7.189   5.127   5.084  0.3873  0.0173 -0.0907
  223POPC   C4B 2989   7.153   4.763   5.413  0.1693  0.1420  0.1009
  224POPC   NC3 2990   3.885   7.519   3.468  0.1415  0.2315 -0.1667
  224POPC   PO4 2991   4.112   7.776   3.803  0.1968 -0.0646  0.0187
  224POPC   GL1 2992   4.216   8.040   4.141 -0.5019  0.0389 -0.3425
  224POPC   GL2 2993   4.567   8.062   4.343 -0.0932  0.0032  0.1583
  224POPC   C1A 2994   4.065   8.230   4.467  0.1113 -0.0899 -0.0777
  224POPC   D2A 2995   3.837   8.193   4.897 -0.1663 -0.2519  0.1473
  224POPC   C3A 2996   3.970   8.063   5.257 -0.1260  0.0920  0.0569
  224POPC   C4A 2997   3.983   7.759   5.484 -0.0219  0.1322 -0.1009
  224POPC   C1B 2998   4.437   7.864   4.771 -0.3121  0.4812  0.2122
  224POPC   C2B 2999   4.493   7.711   5.247 -0.0715 -0.0094  0.1764
  224POPC   C3B 3000   4.466   7.855   5.697 -0.0068 -0.0223  0.0873
  224POPC   C4B 3001   4.539   8.127   5.978  0.1804  0.1661 -0.3411
  225POPC   NC3 3002   7.670   6.411   3.986 -0.2731  0.0044 -0.0458
  225POPC   PO4 3003   8.088   6.209   3.957  0.1365 -0.0044 -0.1428
  225POPC   GL1 3004   7.836   6.069   4.355  0.3948  0.5369  0.0495
  225POPC   GL2 3005   7.673   6.398   4.539  0.0746  0.2739  0.3690
  225POPC   C1A 3006   7.713   5.905   4.758 -0.1634  0.0614  0.0797
  225POPC   D2A 3007   7.874   5.514   4.953 -0.1355 -0.1873  0.0229
  225POPC   C3A 3008   7.685   5.325   5.272  0.1013  0.0117 -0.2066
  225POPC   C4A 3009   7.677   5.328   5.739 -0.0449 -0.1019  0.1853
  225POPC   C1B 3010   7.828   6.345   4.864  0.1684 -0.1326 -0.3056
  225POPC   C2B 3011   7.684   6.576   5.203 -0.0926 -0.1804 -0.1497
  225POPC   C3B 3012   7.283   6.583   5.322  0.3069  0.0197  0.2166
  225POPC   C4B 3013   6.759   6.529   5.350 -0.0217  0.1120  0.0505
  226POPC   NC3 3014   0.970   8.829   3.732 -0.0914  0.0421  0.0496
  226POPC   PO4 3015   0.742   8.593   4.048  0.1267  0.0381 -0.1166
  226POPC   GL1 3016   0.547   8.798   4.433  0.1222  0.0735  0.2046
  226POPC   GL2 3017   0.837   8.676   4.753  0.0281  0.3299 -0.0365
  226POPC   C1A 3018   0.335   8.731   4.736 -0.1265  0.1574 -0.1943
  226POPC   D2A 3019   0.254   8.920   5.134 -0.1947  0.1152  0.2687
  226POPC   C3A 3020   0.508   9.012   5.388  0.2398  0.0165 -0.2150
  226POPC   C4A 3021   0.719   9.312   5.665  0.1515 -0.4183  0.0611
  226POPC   C1B 3022   0.810   8.717   5.144 -0.0624 -0.1705 -0.0516
  226POPC   C2B 3023   0.990   8.908   5.508 -0.0690  0.2291  0.1134
  226POPC   C3B 3024   1.337   9.165   5.611 -0.0195  0.0513  0.3205
  226POPC   C4B 3025   1.564   9.301   5.922  0.0576 -0.0340 -0.0181
  227POPC   NC3 3026   7.903   7.760   2.708 -0.0253 -0.0880 -0.0386
  227POPC   PO4 3027   7.562   7.833   3.080 -0.3696 -0.0308 -0.2692
  227POPC   GL1 3028   7.716   8.039   3.472 -0.0903 -0.2784  0.2872
  227POPC   GL2 3029   7.881   8.382   3.555  0.0489 -0.2994  0.1321
  227POPC   C1A 3030   7.701   8.186   3.920 -0.0282  0.0829  0.1916
  227POPC   D2A 3031   7.736   8.284   4.422  0.4652  0.0106 -0.1203
  227POPC   C3A 3032   8.244   8.294   4.494 -0.1344  0.1393 -0.2469
  227POPC   C4A 3033   8.593   8.216   4.885  0.2135  0.0835 -0.0945
  227POPC   C1B 3034   8.046   8.838   3.661 -0.0357 -0.2912 -0.2287
  227POPC   C2B 3035   8.206   9.002   3.836 -0.0295  0.0413  0.2896
  227POPC   C3B 3036   8.407   9.403   3.926 -0.2519  0.2956  0.1536
  227POPC   C4B 3037   8.388   9.811   4.046  0.1327 -0.1508 -0.0813
  228POPC   NC3 3038   9.637  10.350   3.425 -0.2637  0.0548 -0.0849
  228POPC   PO4 3039   9.108  10.379   3.551 -0.0851  0.1914  0.1943
  228POPC   GL1 3040   9.160  10.358   3.963 -0.0455 -0.1663 -0.3126
  228POPC   GL2 3041   9.052  10.188   4.264  0.1557 -0.1037  0.0358
  228POPC   C1A 3042   9.289  10.676   4.308  0.0328  0.0531  0.0028
  228POPC   D2A 3043   9.310  11.085   4.504  0.3233 -0.2637 -0.1514
  228POPC   C3A 3044   9.451  11.020   4.954  0.1106  0.0845  0.1042
  228POPC   C4A 3045   9.585  10.691   5.222  0.0728  0.1767 -0.0243
  228POPC   C1B 3046   9.349  10.223   4.624 -0.1560 -0.0288 -0.2722
  228POPC   C2B 3047   9.711  10.263   4.867 -0.0852  0.1100 -0.4052
  228POPC   C3B 3048   9.679  10.175   5.307 -0.0462  0.3085  0.0202
  228POPC   C4B 3049   9.548  10.219   5.737 -0.3343 -0.1294 -0.1434
  229POPC   NC3 3050  10.529   0.901   3.402 -0.2365 -0.0373 -0.1346
  229POPC   PO4 3051  10.851   0.910   3.742 -0.1314 -0.3731  0.1636
  229POPC   GL1 3052  11.092   0.984   4.072 -0.1618 -0.1567 -0.0267
  229POPC   GL2 3053  10.897   1.142   4.316 -0.3141  0.2582  0.0877
  229POPC   C1A 3054  11.318   0.956   4.493  0.1270  0.1476 -0.0534
  229POPC   D2A 3055  11.639   1.151   4.770  0.2077 -0.0956 -0.0760
  229POPC   C3A 3056  11.562   1.178   5.250 -0.0204 -0.0132 -0.2134
  229POPC   C4A 3057  11.529   1.169   5.770 -0.2318 -0.1334 -0.0105
  229POPC   C1B 3058  10.757   1.157   4.671  0.2064  0.0615  0.0009
  229POPC   C2B 3059  10.641   1.326   4.981 -0.1854 -0.1852 -0.0852
  229POPC   C3B 3060  10.450   1.593   5.291 -0.0417 -0.3491  0.0645
  229POPC   C4B 3061  10.182   1.449   5.656  0.0083  0.0982 -0.1807
  230POPC   NC3 3062   9.482   1.410   4.170  0.0053  0.0235  0.1375
  230POPC   PO4 3063   9.730   1.796   4.184  0.3353  0.2599  0.2323
  230POPC   GL1 3064   9.967   1.784   4.478  0.2137 -0.1262  0.1449
  230POPC   GL2 3065   9.943   2.054   4.648  0.0320 -0.0139 -0.3672
  230POPC   C1A 3066   9.711   1.672   4.980  0.3195  0.0135 -0.1200
  230POPC   D2A 3067   9.890   1.668   5.310  0.0642 -0.4412 -0.2828
  230POPC   C3A 3068   9.683   1.480   5.685  0.1651 -0.0131  0.1607
  230POPC   C4A 3069   9.429   1.598   6.141  0.1965  0.0225 -0.0023
  230POPC   C1B 3070   9.926   2.308   4.969 -0.3162  0.1704  0.0319
  230POPC   C2B 3071  10.001   2.252   5.345 -0.1015 -0.1864 -0.1949
  230POPC   C3B 3072  10.223   1.960   5.576  0.1387  0.1135  0.0562
  230POPC   C4B 3073  10.432   1.841   5.972 -0.0704 -0.2203  0.5428
  231POPC   NC3 3074   2.103  10.540   4.126 -0.4001 -0.0365  0.2620
  231POPC   PO4 3075   2.429  10.770   4.061 -0.1778  0.3601  0.0217
  231POPC   GL1 3076   2.347  10.878   4.464  0.2128  0.0904 -0.1205
  231POPC   GL2 3077   2.306  10.520   4.586 -0.2122  0.2176  0.1631
  231POPC   C1A 3078   2.179  11.021   4.785 -0.1496  0.0003 -0.1189
  231POPC   D2A 3079   2.011  11.401   4.995 -0.0339 -0.2787 -0.1539
  231POPC   C3A 3080   2.076  11.516   5.438 -0.2409 -0.1975 -0.1735
  231POPC   C4A 3081   1.738  11.553   5.807  0.0137  0.0601  0.0323
  231POPC   C1B 3082   2.437  10.527   4.878 -0.0779 -0.1539  0.3195
  231POPC   C2B 3083   2.289  10.702   5.209  0.0308  0.1506  0.1302
  231POPC   C3B 3084   2.226  11.005   5.612 -0.2921 -0.1523  0.0359
  231POPC   C4B 3085   2.103  11.233   5.926 -0.0426 -0.0030 -0.3461
  232POPC   NC3 3086   9.352   4.502   3.556  0.2914 -0.1176  0.2306
  232POPC   PO4 3087   9.592   4.518   3.911 -0.0826  0.1059  0.0453
  232POPC   GL1 3088   9.470   4.512   4.400 -0.0600 -0.1191  0.0263
  232POPC   GL2 3089   9.692   4.442   4.721  0.3467 -0.3045 -0.0483
  232POPC   C1A 3090   9.123   4.823   4.628 -0.0266  0.0842  0.2225
  232POPC   D2A 3091   8.891   4.891   5.028 -0.2221 -0.0117  0.0713
  232POPC   C3A 3092   8.948   5.299   5.256  0.3939 -0.0603 -0.1739
  232POPC   C4A 3093   9.150   5.724   5.232 -0.0542 -0.0458  0.1219
  232POPC   C1B 3094   9.972   4.187   4.897  0.0257  0.0072 -0.0447
  232POPC   C2B 3095  10.253   3.927   5.103  0.2819 -0.0166 -0.0311
  232POPC   C3B 3096  10.124   3.557   5.309 -0.0287 -0.2080 -0.0736
  232POPC   C4B 3097   9.808   3.293   5.234  0.0222  0.0184 -0.0315
  233POPC   NC3 3098   6.337   7.343   3.883 -0.0074 -0.2963  0.0711
  233POPC   PO4 3099   6.459   7.129   4.198 -0.2115  0.0209 -0.0516
  233POPC   GL1 3100   6.586   7.292   4.597  0.0168 -0.2222  0.0773
  233POPC   GL2 3101   6.855   7.196   4.667 -0.0671  0.2796  0.1250
  233POPC   C1A 3102   6.549   7.316   5.017 -0.0735 -0.2426 -0.0743
  233POPC   D2A 3103   6.643   7.453   5.447 -0.1497  0.2207 -0.1737
  233POPC   C3A 3104   6.267   7.621   5.735 -0.2429 -0.0343  0.4420
  233POPC   C4A 3105   5.909   7.573   5.959 -0.0436  0.0562 -0.2148
  233POPC   C1B 3106   7.189   6.848   4.747  0.1452 -0.1871 -0.0209
  233POPC   C2B 3107   7.297   6.471   4.811  0.3444  0.3186 -0.2047
  233POPC   C3B 3108   7.434   6.152   5.083  0.0904 -0.1218 -0.0905
  233POPC   C4B 3109   7.179   6.104   5.554  0.0906 -0.2318  0.0360
  234POPC   NC3 3110   8.850   3.919   3.179  0.1552  0.2143  0.1782
  234POPC   PO4 3111   8.847   4.135   3.502  0.3242  0.3675 -0.0066
  234POPC   GL1 3112   9.032   4.359   3.885 -0.2420  0.1479 -0.1286
  234POPC   GL2 3113   9.220   4.150   4.041 -0.0812  0.2388  0.1440
  234POPC   C1A 3114   8.868   4.604   4.248 -0.2884 -0.0835  0.0678
  234POPC   D2A 3115   8.667   4.924   4.343  0.3000  0.5353 -0.0897
  234POPC   C3A 3116   8.763   5.261   4.744  0.0917 -0.1978 -0.2019
  234POPC   C4A 3117   8.546   5.526   5.051 -0.1192 -0.0094 -0.3035
  234POPC   C1B 3118   9.105   4.233   4.463  0.0110  0.1660  0.1993
  234POPC   C2B 3119   9.188   4.442   4.908  0.3111 -0.1283  0.3264
  234POPC   C3B 3120   8.863   4.374   5.301  0.2962 -0.1391  0.0415
  234POPC   C4B 3121   8.661   4.056   5.594  0.2178  0.0480  0.1540
  235POPC   NC3 3122   9.335   6.636   3.798 -0.0542  0.1208  0.0474
  235POPC   PO4 3123   9.482   6.282   4.106 -0.0462  0.1597  0.3002
  235POPC   GL1 3124   9.728   6.466   4.476 -0.1583  0.2126  0.2765
  235POPC   GL2 3125  10.031   6.536   4.461 -0.1553  0.0551  0.2884
  235POPC   C1A 3126   9.640   6.788   4.714 -0.0501  0.1047  0.0012
  235POPC   D2A 3127   9.843   7.036   5.086 -0.1091 -0.1538 -0.0016
  235POPC   C3A 3128   9.699   7.486   5.207  0.2211  0.0930  0.3549
  235POPC   C4A 3129   9.413   7.577   5.524 -0.0365  0.2834 -0.4064
  235POPC   C1B 3130  10.294   6.649   4.863 -0.0242  0.0797 -0.1291
  235POPC   C2B 3131  10.305   6.688   5.289 -0.1201 -0.1588  0.2885
  235POPC   C3B 3132   9.959   6.820   5.642 -0.1280 -0.2011  0.1132
  235POPC   C4B 3133   9.924   7.227   5.606  0.0589 -0.2440 -0.3372
  236POPC   NC3 3134   9.936   4.444   4.271 -0.1370  0.1019 -0.0756
  236POPC   PO4 3135  10.232   4.474   3.891  0.1777  0.0920  0.0390
  236POPC   GL1 3136  10.480   4.576   4.189  0.1022  0.2038  0.2510
  236POPC   GL2 3137  10.711   4.432   4.238  0.1834 -0.0556  0.2807
  236POPC   C1A 3138  10.656   4.732   4.589  0.1123  0.0465  0.1545
  236POPC   D2A 3139  10.587   4.881   4.989  0.0019  0.1100  0.3192
  236POPC   C3A 3140  10.247   5.017   5.311 -0.0716  0.2055  0.0867
  236POPC   C4A 3141  10.111   4.816   5.667  0.1304  0.0241  0.4202
  236POPC   C1B 3142  10.877   4.150   4.400 -0.1476  0.4914 -0.3332
  236POPC   C2B 3143  10.933   3.900   4.695  0.1168 -0.1377  0.0723
  236POPC   C3B 3144  11.094   3.986   5.054  0.1794  0.1338 -0.2272
  236POPC   C4B 3145  10.857   4.129   5.333  0.1464 -0.2272 -0.1789
  237POPC   NC3 3146   4.973   8.596   3.727  0.2354 -0.1241 -0.0200
  237POPC   PO4 3147   4.850   8.967   4.003 -0.0494 -0.3679 -0.0240
  237POPC   GL1 3148   4.883   8.851   4.488  0.0532  0.0571  0.0452
  237POPC   GL2 3149   4.574   8.669   4.529 -0.2131  0.0596  0.0414
  237POPC   C1A 3150   5.016   8.896   4.963  0.2162 -0.2194 -0.0732
  237POPC   D2A 3151   5.218   8.648   5.252  0.1994 -0.0300  0.0543
  237POPC   C3A 3152   5.229   8.426   5.669 -0.1870 -0.1462 -0.1836
  237POPC   C4A 3153   5.535   8.453   5.966  0.0583  0.0924 -0.1780
  237POPC   C1B 3154   4.363   8.398   4.814  0.2195  0.1407  0.0308
  237POPC   C2B 3155   4.436   8.166   5.172  0.0787  0.0777 -0.1155
  237POPC   C3B 3156   4.302   8.324   5.543  0.2562  0.2959  0.3570
  237POPC   C4B 3157   3.958   8.214   5.741 -0.2097 -0.4050 -0.0230
  238POPC   NC3 3158   3.051   4.948   4.022 -0.0694  0.1240  0.0886
  238POPC   PO4 3159   3.264   5.353   4.064 -0.0756  0.2602  0.1155
  238POPC   GL1 3160   3.028   5.144   4.528 -0.1476  0.0025  0.4247
  238POPC   GL2 3161   3.067   4.832   4.576  0.1379 -0.0348 -0.3542
  238POPC   C1A 3162   3.211   5.320   4.918 -0.0605 -0.3438  0.1220
  238POPC   D2A 3163   3.156   5.144   5.392  0.3533 -0.0798 -0.3600
  238POPC   C3A 3164   3.145   5.304   5.726  0.0069  0.0008  0.0666
  238POPC   C4A 3165   2.817   5.137   6.088  0.2129 -0.0201 -0.4006
  238POPC   C1B 3166   3.096   4.831   5.009  0.2062 -0.2505  0.1007
  238POPC   C2B 3167   3.049   4.663   5.338 -0.3354 -0.4492 -0.0945
  238POPC   C3B 3168   3.162   4.385   5.690  0.3888  0.0732  0.0283
  238POPC   C4B 3169   3.297   4.005   5.831  0.1769  0.1759 -0.0278
  239POPC   NC3 3170   3.259  10.391   4.265  0.0220 -0.3327 -0.0450
  239POPC   PO4 3171   3.113   9.986   4.426  0.0238  0.1822 -0.1132
  239POPC   GL1 3172   3.144  10.023   4.871 -0.2251  0.1502  0.0079
  239POPC   GL2 3173   3.335  10.047   5.181  0.0492 -0.3777 -0.1587
  239POPC   C1A 3174   2.811  10.245   5.081 -0.4061 -0.2671  0.1828
  239POPC   D2A 3175   2.708  10.379   5.506  0.3207 -0.0040  0.0512
  239POPC   C3A 3176   2.505  10.114   5.747 -0.2723  0.2949 -0.3889
  239POPC   C4A 3177   2.416   9.699   5.778  0.0345 -0.0102  0.1198
  239POPC   C1B 3178   3.289  10.416   5.173  0.1919 -0.1524  0.1993
  239POPC   C2B 3179   3.141  10.688   5.316  0.3063 -0.1496  0.1938
  239POPC   C3B 3180   2.845  10.869   5.626  0.0089 -0.1516 -0.3325
  239POPC   C4B 3181   2.659  11.149   5.917  0.3536 -0.1963  0.0065
  240POPC   NC3 3182   6.218   0.625   3.267 -0.0246 -0.0794 -0.2192
  240POPC   PO4 3183   6.011   0.253   3.550  0.2087  0.0456 -0.2611
  240POPC   GL1 3184   5.965  -0.010   3.927  0.1046 -0.0953  0.0072
  240POPC   GL2 3185   6.193  -0.271   3.909  0.0973  0.1807  0.2015
  240POPC   C1A 3186   6.045  -0.188   4.377 -0.1126 -0.2907 -0.4239
  240POPC   D2A 3187   6.176  -0.298   4.747  0.0988  0.1091  0.1299
  240POPC   C3A 3188   6.335  -0.043   5.184  0.2495 -0.0191 -0.0312
  240POPC   C4A 3189   6.526   0.295   5.468 -0.1206 -0.1251  0.0245
  240POPC   C1B 3190   6.395   0.210   4.078  0.3583 -0.1202 -0.0662
  240POPC   C2B 3191   6.296   0.595   4.298 -0.0445  0.1373  0.2357
  240POPC   C3B 3192   6.288   0.706   4.678 -0.1973 -0.0095 -0.0336
  240POPC   C4B 3193   6.580   0.654   4.959 -0.3060  0.4158  0.0510
  241POPC   NC3 3194   1.154   6.553   3.747  0.1397  0.0106  0.2563
  241POPC   PO4 3195   1.557   6.289   3.882 -0.1826 -0.1482  0.0058
  241POPC   GL1 3196   1.376   6.189   4.154  0.2092 -0.0897 -0.3304
  241POPC   GL2 3197   1.022   6.188   4.071 -0.2288  0.3421 -0.3206
  241POPC   C1A 3198   1.549   5.917   4.477 -0.0074  0.1336 -0.0134
  241POPC   D2A 3199   1.750   6.207   4.774  0.2819  0.0589  0.1042
  241POPC   C3A 3200   1.821   5.926   5.168 -0.0629  0.2561  0.0809
  241POPC   C4A 3201   1.581   5.771   5.470  0.0027 -0.2414 -0.0756
  241POPC   C1B 3202   0.802   6.202   4.483 -0.2429  0.0933 -0.0829
  241POPC   C2B 3203   0.466   6.226   4.770 -0.1541 -0.1155  0.1118
  241POPC   C3B 3204   0.426   6.548   5.183  0.2879 -0.0419  0.0701
  241POPC   C4B 3205   0.600   6.848   5.356 -0.0194  0.1899  0.2363
  242POPC   NC3 3206   3.724   7.533   4.029 -0.2571  0.0963 -0.1604
  242POPC   PO4 3207   4.078   7.220   4.156  0.0238  0.0986 -0.1409
  242POPC   GL1 3208   4.079   7.477   4.487  0.2429  0.5027 -0.1887
  242POPC   GL2 3209   3.887   7.741   4.449  0.3111  0.4120  0.0084
  242POPC   C1A 3210   4.016   7.508   4.923 -0.1882 -0.0796 -0.0933
  242POPC   D2A 3211   4.135   7.359   5.318 -0.0496 -0.0097 -0.0167
  242POPC   C3A 3212   4.178   7.381   5.805 -0.3409  0.2685  0.0981
  242POPC   C4A 3213   4.331   7.567   6.175 -0.1730  0.1497  0.1218
  242POPC   C1B 3214   3.579   7.759   4.841  0.3128 -0.0904  0.2677
  242POPC   C2B 3215   3.520   7.579   5.248 -0.1779  0.1258 -0.0992
  242POPC   C3B 3216   3.695   7.296   5.630  0.3727 -0.1362 -0.3150
  242POPC   C4B 3217   3.730   6.986   5.919 -0.0256  0.1727  0.1221
  243POPC   NC3 3218   2.529   5.601   3.384  0.4893  0.4867  0.0259
  243POPC   PO4 3219   2.279   5.452   3.722  0.3278 -0.2059 -0.0185
  243POPC   GL1 3220   2.306   5.652   4.111 -0.2327  0.0397 -0.1894
  243POPC   GL2 3221   2.070   5.839   4.184 -0.0541 -0.0756 -0.0761
  243POPC   C1A 3222   2.504   5.567   4.477 -0.0192  0.0998 -0.1517
  243POPC   D2A 3223   2.716   5.416   4.866 -0.1082 -0.3678 -0.1985
  243POPC   C3A 3224   2.824   5.648   5.280 -0.2490 -0.3492  0.2781
  243POPC   C4A 3225   2.603   5.863   5.620  0.4025  0.0845  0.2256
  243POPC   C1B 3226   2.046   5.785   4.701 -0.0807  0.0854  0.1136
  243POPC   C2B 3227   2.266   5.610   5.151 -0.0192  0.2158 -0.0454
  243POPC   C3B 3228   2.190   5.555   5.527 -0.1978  0.1619  0.0743
  243POPC   C4B 3229   1.908   5.549   5.928  0.0263  0.0461  0.0640
  244POPC   NC3 3230   1.327   2.824   3.426  0.1217  0.2235 -0.2952
  244POPC   PO4 3231   1.544   3.084   3.779  0.1776 -0.1348 -0.0643
  244POPC   GL1 3232   1.853   3.023   4.206 -0.1169  0.1197 -0.0785
  244POPC   GL2 3233   1.685   2.905   4.436  0.2193  0.3091  0.2372
  244POPC   C1A 3234   2.175   3.173   4.633  0.0838  0.2934  0.1026
  244POPC   D2A 3235   2.641   3.183   4.789  0.0133 -0.0263 -0.0721
  244POPC   C3A 3236   2.879   3.508   5.147 -0.0629 -0.4154 -0.2141
  244POPC   C4A 3237   2.597   3.552   5.440 -0.0207  0.0449  0.0607
  244POPC   C1B 3238   1.707   2.904   4.874 -0.2477 -0.1709 -0.0407
  244POPC   C2B 3239   1.392   2.908   5.156 -0.0232 -0.0881 -0.0478
  244POPC   C3B 3240   1.051   2.806   5.444  0.4088 -0.1175  0.0739
  244POPC   C4B 3241   0.693   2.588   5.627 -0.2492  0.3162  0.0886
  245POPC   NC3 3242   2.158   4.499   3.669 -0.0998  0.1917 -0.2361
  245POPC   PO4 3243   1.971   4.169   3.786 -0.1645  0.1496  0.1768
  245POPC   GL1 3244   1.900   4.015   4.160  0.0109  0.1783  0.1999
  245POPC   GL2 3245   1.952   3.693   4.238 -0.0488 -0.3228  0.1449
  245POPC   C1A 3246   1.659   4.178   4.478  0.3884  0.0701 -0.0130
  245POPC   D2A 3247   1.705   4.461   4.847 -0.2370 -0.1424  0.0255
  245POPC   C3A 3248   1.531   4.302   5.185  0.2641  0.2554 -0.0396
  245POPC   C4A 3249   1.257   4.401   5.595 -0.0261  0.1473 -0.0041
  245POPC   C1B 3250   2.036   3.873   4.718 -0.1210  0.0093  0.0813
  245POPC   C2B 3251   1.990   3.949   5.129 -0.0970 -0.1780  0.0516
  245POPC   C3B 3252   1.920   3.893   5.571 -0.0436 -0.4137 -0.2751
  245POPC   C4B 3253   1.635   4.214   5.872  0.2227  0.1213  0.0925
  246POPC   NC3 3254   7.188   8.125   3.341  0.1085  0.0202  0.1005
  246POPC   PO4 3255   6.771   7.950   3.538  0.0677 -0.0763 -0.1148
  246POPC   GL1 3256   6.658   7.679   4.011 -0.2790  0.2843  0.3382
  246POPC   GL2 3257   6.863   7.505   4.159  0.0585  0.1190  0.0430
  246POPC   C1A 3258   6.777   7.753   4.562  0.0747 -0.0832 -0.1821
  246POPC   D2A 3259   6.953   7.788   4.937  0.1222 -0.1366 -0.0714
  246POPC   C3A 3260   7.078   7.458   5.172  0.1318  0.2661 -0.4237
  246POPC   C4A 3261   7.264   7.395   5.562 -0.2576 -0.2463  0.0025
  246POPC   C1B 3262   7.109   7.847   4.195 -0.0007  0.2372  0.5612
  246POPC   C2B 3263   7.262   8.278   4.129  0.1633 -0.0960  0.1320
  246POPC   C3B 3264   7.378   8.688   4.028  0.0644 -0.1982  0.0661
  246POPC   C4B 3265   7.531   8.948   3.750 -0.1726  0.0730  0.1010
  247POPC   NC3 3266   8.893   2.085   3.726  0.0211  0.3161  0.3032
  247POPC   PO4 3267   8.864   2.170   4.144 -0.1981 -0.0298 -0.5729
  247POPC   GL1 3268   9.022   2.440   4.429  0.0886  0.2677  0.0479
  247POPC   GL2 3269   9.159   2.692   4.329 -0.0120  0.1972  0.0302
  247POPC   C1A 3270   9.036   2.346   4.873 -0.1630  0.2685  0.2027
  247POPC   D2A 3271   9.032   2.053   5.244  0.1109 -0.2294  0.1476
  247POPC   C3A 3272   9.078   2.139   5.614  0.0019 -0.2703 -0.3840
  247POPC   C4A 3273   9.304   2.200   6.036 -0.1550 -0.0531 -0.1362
  247POPC   C1B 3274   9.222   3.028   4.750 -0.1377  0.0445  0.2710
  247POPC   C2B 3275   9.387   3.060   5.148 -0.2305 -0.0790  0.0331
  247POPC   C3B 3276   9.494   2.950   5.477  0.1983  0.2835 -0.0839
  247POPC   C4B 3277   9.475   2.468   5.658  0.1268  0.0623 -0.1283
  248POPC   NC3 3278  10.016   5.801   3.465 -0.0146 -0.0327 -0.0169
  248POPC   PO4 3279   9.648   5.803   3.603  0.4705 -0.1802 -0.0893
  248POPC   GL1 3280   9.629   5.743   4.093 -0.0639  0.0148 -0.0319
  248POPC   GL2 3281   9.963   6.005   4.127 -0.1345  0.1660  0.0681
  248POPC   C1A 3282   9.619   5.779   4.411 -0.0794  0.0718  0.0514
  248POPC   D2A 3283   9.812   5.696   4.923 -0.0639  0.1100  0.0864
  248POPC   C3A 3284   9.683   5.803   5.264  0.3330  0.0877  0.0419
  248POPC   C4A 3285   9.408   6.139   5.321 -0.3570  0.4722 -0.1538
  248POPC   C1B 3286  10.091   6.077   4.567  0.2258  0.0333 -0.0920
  248POPC   C2B 3287  10.126   6.025   5.063 -0.0625 -0.0117 -0.3358
  248POPC   C3B 3288   9.908   6.195   5.487  0.1296  0.0074 -0.3271
  248POPC   C4B 3289   9.861   6.255   5.947  0.1065 -0.2748  0.1539
  249POPC   NC3 3290   5.644   5.841   3.588 -0.0640 -0.0382  0.1160
  249POPC   PO4 3291   5.574   6.166   3.897 -0.0335 -0.3804 -0.0025
  249POPC   GL1 3292   5.866   6.022   4.297 -0.0140 -0.0112  0.2135
  249POPC   GL2 3293   6.338   5.877   4.392 -0.0549  0.3054 -0.1828
  249POPC   C1A 3294   5.929   5.790   4.650  0.2749 -0.1241  0.0593
  249POPC   D2A 3295   5.866   5.797   5.084 -0.3970 -0.0217  0.3995
  249POPC   C3A 3296   5.989   6.082   5.392 -0.0709 -0.1653 -0.0175
  249POPC   C4A 3297   5.869   6.420   5.678  0.0715  0.1922  0.1768
  249POPC   C1B 3298   6.357   5.985   4.823 -0.1834  0.1765  0.0793
  249POPC   C2B 3299   6.441   6.256   4.947 -0.1723 -0.4195 -0.0963
  249POPC   C3B 3300   6.298   6.506   5.277  0.0772  0.2446  0.0616
  249POPC   C4B 3301   6.333   6.359   5.634  0.0699 -0.2232  0.2320
  250POPC   NC3 3302   2.560   8.588   4.217 -0.3226  0.1779 -0.1093
  250POPC   PO4 3303   2.854   9.033   4.133 -0.1341  0.2808  0.0369
  250POPC   GL1 3304   2.622   8.925   4.567  0.0549 -0.0143 -0.0126
  250POPC   GL2 3305   2.584   8.503   4.670 -0.1232  0.4014  0.2992
  250POPC   C1A 3306   2.740   8.860   4.966 -0.1343  0.0726 -0.5070
  250POPC   D2A 3307   2.917   8.702   5.465 -0.6171 -0.2859  0.0639
  250POPC   C3A 3308   3.273   8.471   5.394 -0.2047 -0.3406 -0.1627
  250POPC   C4A 3309   3.462   8.070   5.424 -0.3253 -0.2804  0.0742
  250POPC   C1B 3310   2.199   8.157   4.785 -0.0627 -0.2113  0.0337
  250POPC   C2B 3311   2.122   8.170   5.217  0.0086 -0.2188 -0.3411
  250POPC   C3B 3312   2.116   7.965   5.580  0.2343  0.0364 -0.2944
  250POPC   C4B 3313   2.229   7.750   6.068  0.3690 -0.1119  0.1184
  251POPC   NC3 3314   2.851   8.038   3.824 -0.2648 -0.1814 -0.3611
  251POPC   PO4 3315   3.130   8.123   4.117 -0.1272 -0.0182  0.1553
  251POPC   GL1 3316   2.948   8.080   4.454  0.0105 -0.1254 -0.1579
  251POPC   GL2 3317   3.097   8.203   4.633  0.0475  0.0406  0.0369
  251POPC   C1A 3318   2.650   7.969   4.797 -0.1722 -0.1758 -0.0821
  251POPC   D2A 3319   2.450   7.799   5.235 -0.0667  0.1206  0.0429
  251POPC   C3A 3320   2.478   7.411   5.001  0.3069  0.0598 -0.0576
  251POPC   C4A 3321   2.588   7.482   4.553 -0.0726 -0.1485 -0.1222
  251POPC   C1B 3322   2.946   8.396   5.020  0.1142  0.0974  0.2566
  251POPC   C2B 3323   2.550   8.439   5.149 -0.0475 -0.1866  0.2957
  251POPC   C3B 3324   2.424   8.327   5.577 -0.0334 -0.0802  0.0213
  251POPC   C4B 3325   2.457   8.407   6.027 -0.2804  0.0858  0.1719
  252POPC   NC3 3326   1.732   2.621   3.896  0.1160  0.2128 -0.0139
  252POPC   PO4 3327   2.197   2.401   3.972 -0.1469 -0.0606 -0.0525
  252POPC   GL1 3328   2.186   2.691   4.377  0.1104  0.1717  0.0763
  252POPC   GL2 3329   2.465   2.748   4.478  0.0849 -0.3299 -0.0511
  252POPC   C1A 3330   2.204   2.798   4.935  0.0220 -0.0868  0.1051
  252POPC   D2A 3331   2.522   2.994   5.242 -0.3628 -0.2301  0.0971
  252POPC   C3A 3332   2.492   2.730   5.691  0.1475  0.1284  0.1755
  252POPC   C4A 3333   2.239   2.763   6.114  0.3546  0.2659 -0.0029
  252POPC   C1B 3334   2.693   2.714   4.879  0.0804  0.2116  0.0704
  252POPC   C2B 3335   2.606   2.427   5.296 -0.1298 -0.0658 -0.0256
  252POPC   C3B 3336   2.573   1.997   5.276 -0.3206 -0.0520 -0.1278
  252POPC   C4B 3337   2.804   1.603   5.353  0.0833 -0.0849  0.0206
  253POPC   NC3 3338   5.820   7.533   3.435 -0.2138 -0.2195 -0.1324
  253POPC   PO4 3339   5.897   7.615   3.953  0.2286  0.0345 -0.2106
  253POPC   GL1 3340   5.945   7.411   4.311 -0.1231  0.0773 -0.1831
  253POPC   GL2 3341   6.240   7.549   4.387 -0.1991  0.2884  0.0304
  253POPC   C1A 3342   6.006   7.326   4.821 -0.2206 -0.1499  0.0647
  253POPC   D2A 3343   6.077   7.511   5.199 -0.0083 -0.1546  0.0129
  253POPC   C3A 3344   6.041   7.880   5.174  0.3018 -0.0695 -0.0771
  253POPC   C4A 3345   6.164   8.253   5.285 -0.0479  0.3088  0.0035
  253POPC   C1B 3346   6.303   7.735   4.797  0.0949  0.2005  0.2730
  253POPC   C2B 3347   6.555   7.907   5.236 -0.1133 -0.1630 -0.1282
  253POPC   C3B 3348   6.847   7.871   5.587 -0.0462  0.0546 -0.0753
  253POPC   C4B 3349   7.243   7.890   5.433 -0.2701 -0.1088 -0.0855
  254POPC   NC3 3350   3.831   2.626   3.914 -0.2149 -0.3303  0.1452
  254POPC   PO4 3351   3.965   2.375   4.124  0.1821  0.2091  0.2371
  254POPC   GL1 3352   4.266   2.463   4.444 -0.2085 -0.2552 -0.3322
  254POPC   GL2 3353   4.215   2.138   4.621 -0.0679 -0.0592 -0.0859
  254POPC   C1A 3354   4.529   2.631   4.709 -0.1767  0.0327 -0.0381
  254POPC   D2A 3355   4.676   2.768   5.118 -0.2459 -0.0489  0.1512
  254POPC   C3A 3356   4.461   2.813   5.522 -0.3887  0.2139  0.1878
  254POPC   C4A 3357   4.012   2.786   5.873  0.3127  0.0463 -0.0255
  254POPC   C1B 3358   4.100   2.409   4.977 -0.4312 -0.2362 -0.1765
  254POPC   C2B 3359   4.324   2.433   5.273  0.4132  0.1301 -0.3289
  254POPC   C3B 3360   4.401   2.313   5.791  0.1210 -0.1519  0.2123
  254POPC   C4B 3361   4.665   2.077   6.085  0.0800 -0.1177  0.1768
  255POPC   NC3 3362   1.786   7.907   3.869 -0.0243 -0.2881  0.3454
  255POPC   PO4 3363   2.095   8.254   4.029  0.0835 -0.1367 -0.0204
  255POPC   GL1 3364   1.998   7.994   4.349 -0.0543  0.0723 -0.0873
  255POPC   GL2 3365   2.107   7.691   4.256  0.0195 -0.0296  0.4182
  255POPC   C1A 3366   1.755   7.972   4.721 -0.2754 -0.5913 -0.5053
  255POPC   D2A 3367   1.764   7.892   5.032  0.2103 -0.1253  0.1853
  255POPC   C3A 3368   1.611   7.798   5.454  0.0696 -0.2566  0.1047
  255POPC   C4A 3369   1.797   7.691   5.795 -0.2693 -0.1027 -0.3583
  255POPC   C1B 3370   2.139   7.650   4.746  0.1070 -0.1655 -0.0349
  255POPC   C2B 3371   1.885   7.408   5.096  0.0258 -0.1621  0.0974
  255POPC   C3B 3372   1.860   7.351   5.486 -0.2142  0.0909  0.2300
  255POPC   C4B 3373   2.048   7.237   5.875  0.1991  0.2786 -0.2388
  256POPC   NC3 3374   0.532   3.242   3.552  0.2116  0.1005  0.1496
  256POPC   PO4 3375   0.523   2.749   3.697 -0.1600 -0.0036  0.0438
  256POPC   GL1 3376   0.235   2.665   4.142 -0.0621 -0.1273 -0.0697
  256POPC   GL2 3377  -0.040   2.804   4.236 -0.0904 -0.0044 -0.2381
  256POPC   C1A 3378   0.364   2.460   4.482  0.1193  0.1556  0.0455
  256POPC   D2A 3379   0.359   2.004   4.641 -0.0459  0.1707  0.0740
  256POPC   C3A 3380   0.268   1.784   5.071 -0.1625  0.0778  0.0681
  256POPC   C4A 3381   0.234   1.864   5.571  0.0937 -0.0662  0.1813
  256POPC   C1B 3382  -0.139   2.981   4.660 -0.1445 -0.1391  0.0935
  256POPC   C2B 3383   0.068   2.887   4.985 -0.1254  0.0173  0.0675
  256POPC   C3B 3384   0.264   2.689   5.298  0.0295 -0.0562  0.0082
  256POPC   C4B 3385   0.260   2.778   5.773  0.2417 -0.2066 -0.3161
  257POPC   NC3 3386   1.326   3.825   3.263  0.0115 -0.0205 -0.2722
  257POPC   PO4 3387   1.269   3.482   3.617 -0.0551 -0.0547  0.1158
  257POPC   GL1 3388   1.191   3.798   4.096  0.3075 -0.1036 -0.0518
  257POPC   GL2 3389   1.156   4.145   4.233 -0.0842  0.0326 -0.0135
  257POPC   C1A 3390   1.525   3.693   4.554  0.3515  0.2259 -0.0408
  257POPC   D2A 3391   1.697   3.404   4.715 -0.1716 -0.0728  0.3175
  257POPC   C3A 3392   1.910   3.424   4.978  0.0117 -0.1266 -0.2462
  257POPC   C4A 3393   2.305   3.582   5.028  0.3595  0.0705  0.2626
  257POPC   C1B 3394   1.187   4.310   4.716 -0.0085 -0.3165 -0.0133
  257POPC   C2B 3395   1.034   4.160   5.172  0.0267  0.4493  0.1485
  257POPC   C3B 3396   0.777   4.119   5.548  0.3472  0.0651 -0.0789
  257POPC   C4B 3397   0.781   4.388   5.995  0.0829 -0.0829  0.0224
  258POPC   NC3 3398   5.530  10.318   3.929  0.0535  0.2570 -0.0272
  258POPC   PO4 3399   5.671   9.930   3.701 -0.0015  0.0163 -0.0768
  258POPC   GL1 3400   5.967   9.861   3.976 -0.0669 -0.0962  0.0525
  258POPC   GL2 3401   6.332   9.901   3.813 -0.0891 -0.2829 -0.2955
  258POPC   C1A 3402   6.196  10.001   4.338  0.1623 -0.1375  0.3025
  258POPC   D2A 3403   6.497  10.010   4.668 -0.3613  0.1675  0.3642
  258POPC   C3A 3404   6.666  10.518   4.800 -0.4351  0.0630 -0.1966
  258POPC   C4A 3405   6.783  10.815   4.978  0.3280  0.0368 -0.2798
  258POPC   C1B 3406   6.256   9.522   4.065  0.3101  0.0370 -0.2486
  258POPC   C2B 3407   5.956   9.486   4.380  0.0796 -0.1779  0.0877
  258POPC   C3B 3408   5.741   9.491   4.749 -0.2953  0.4053  0.0750
  258POPC   C4B 3409   5.416   9.471   5.161 -0.2652 -0.3476 -0.2912
  259POPC   NC3 3410   1.185   8.606   4.193  0.2440  0.0590  0.0390
  259POPC   PO4 3411   0.987   9.050   4.191 -0.4205  0.2020  0.1481
  259POPC   GL1 3412   1.046   9.062   4.626 -0.4939 -0.1863 -0.3066
  259POPC   GL2 3413   1.324   8.834   4.663  0.1778  0.2647  0.0065
  259POPC   C1A 3414   0.698   9.127   4.865  0.1464  0.1933 -0.2635
  259POPC   D2A 3415   0.269   9.270   4.688  0.0059  0.0488  0.0274
  259POPC   C3A 3416  -0.023   9.346   5.021  0.0482  0.2092  0.1066
  259POPC   C4A 3417  -0.315   9.470   5.295 -0.1623  0.0095 -0.2000
  259POPC   C1B 3418   1.278   8.913   5.124  0.0854 -0.0203  0.0153
  259POPC   C2B 3419   1.491   8.717   5.493  0.2140 -0.1092 -0.1132
  259POPC   C3B 3420   1.800   8.781   5.971 -0.0290 -0.2088  0.0553
  259POPC   C4B 3421   2.243   8.791   5.915 -0.0186  0.2504  0.1727
  260POPC   NC3 3422   4.334   0.023   4.325  0.0373 -0.0328 -0.0581
  260POPC   PO4 3423   4.623   0.418   4.155  0.3376 -0.4448 -0.5183
  260POPC   GL1 3424   4.969   0.583   4.493  0.0564 -0.2586  0.3141
  260POPC   GL2 3425   5.349   0.610   4.359  0.1682  0.5585  0.0347
  260POPC   C1A 3426   5.292   0.419   4.859 -0.2643  0.0276 -0.0613
  260POPC   D2A 3427   5.546   0.342   5.243  0.1593  0.1340 -0.0024
  260POPC   C3A 3428   5.670   0.691   5.445  0.2829 -0.1035  0.1946
  260POPC   C4A 3429   6.025   0.844   5.668  0.2637  0.1451  0.2255
  260POPC   C1B 3430   5.326   0.871   4.710 -0.0997 -0.1915 -0.1332
  260POPC   C2B 3431   5.156   1.239   4.921 -0.1264  0.2373 -0.1514
  260POPC   C3B 3432   4.904   1.409   4.926 -0.2655  0.0648  0.0368
  260POPC   C4B 3433   4.663   1.805   5.124  0.1539 -0.2141 -0.1280
  261POPC   NC3 3434  10.385   3.197   3.961 -0.1642 -0.0028  0.3173
  261POPC   PO4 3435  10.049   3.436   3.558  0.0438  0.0932  0.0656
  261POPC   GL1 3436  10.122   3.675   3.945 -0.2402 -0.0045 -0.2699
  261POPC   GL2 3437  10.288   4.002   4.094 -0.3122 -0.1543 -0.0785
  261POPC   C1A 3438   9.985   3.830   4.488  0.0042  0.2345 -0.1662
  261POPC   D2A 3439   9.869   3.590   4.854 -0.2643  0.4951 -0.0965
  261POPC   C3A 3440   9.545   3.404   4.758  0.0489  0.0899 -0.0278
  261POPC   C4A 3441   9.100   3.485   4.964  0.0943 -0.1413 -0.3694
  261POPC   C1B 3442  10.452   3.984   4.539 -0.1039 -0.2018 -0.2404
  261POPC   C2B 3443  10.576   4.279   4.883 -0.0573 -0.0868  0.1986
  261POPC   C3B 3444  10.466   4.501   5.294 -0.3507 -0.1785  0.0110
  261POPC   C4B 3445  10.655   4.849   5.488  0.1754  0.1563 -0.1942
  262POPC   NC3 3446   4.759   9.968   4.121  0.2985  0.1408 -0.0575
  262POPC   PO4 3447   4.611  10.267   4.300 -0.1475  0.0136 -0.3187
  262POPC   GL1 3448   4.816  10.173   4.649 -0.0828 -0.0086  0.0716
  262POPC   GL2 3449   4.621  10.346   4.931  0.2895 -0.0119 -0.3925
  262POPC   C1A 3450   5.086  10.480   4.839  0.1862  0.0631  0.3558
  262POPC   D2A 3451   5.308  10.560   5.239  0.2065 -0.3308 -0.0577
  262POPC   C3A 3452   5.100  10.313   5.580 -0.1362 -0.2319 -0.2077
  262POPC   C4A 3453   4.801  10.614   5.835 -0.1403 -0.2302  0.0113
  262POPC   C1B 3454   4.721  10.569   5.237  0.1196 -0.2406  0.0629
  262POPC   C2B 3455   4.434  10.871   5.555 -0.0869  0.0096  0.0855
  262POPC   C3B 3456   4.310  10.951   5.998  0.2995 -0.2752  0.3268
  262POPC   C4B 3457   4.179  10.606   6.216  0.0735  0.0663  0.0470
  263POPC   NC3 3458   8.892   9.905   3.400 -0.1337 -0.1314  0.1369
  263POPC   PO4 3459   9.279   9.665   3.300 -0.0390  0.2513  0.1745
  263POPC   GL1 3460   9.201   9.322   3.582 -0.0567  0.2880 -0.1090
  263POPC   GL2 3461   8.913   9.549   3.719  0.0153 -0.2160 -0.1890
  263POPC   C1A 3462   9.207   9.066   3.969 -0.3409  0.2079 -0.2722
  263POPC   D2A 3463   9.020   8.728   4.211  0.1405  0.1436 -0.0692
  263POPC   C3A 3464   9.136   8.661   4.566  0.0059 -0.0351 -0.0486
  263POPC   C4A 3465   9.169   8.719   4.992  0.0826  0.2451  0.2805
  263POPC   C1B 3466   8.926   9.622   4.124  0.2533  0.0282  0.2545
  263POPC   C2B 3467   8.950   9.702   4.494 -0.1683 -0.1666 -0.3071
  263POPC   C3B 3468   8.971   9.628   4.941  0.2847 -0.0732 -0.1567
  263POPC   C4B 3469   8.923   9.169   4.937  0.2028  0.0612 -0.3554
  264POPC   NC3 3470   7.956   2.784   3.867 -0.0456  0.1484  0.0023
  264POPC   PO4 3471   7.530   2.855   3.769  0.0192  0.0130  0.0951
  264POPC   GL1 3472   7.564   2.572   4.167 -0.4707  0.0041  0.0251
  264POPC   GL2 3473   7.916   2.378   4.127 -0.0986 -0.2776 -0.0562
  264POPC   C1A 3474   7.611   2.443   4.557 -0.0227  0.2067 -0.1614
  264POPC   D2A 3475   7.642   2.306   4.910 -0.2919 -0.0079  0.1245
  264POPC   C3A 3476   8.132   2.111   5.175 -0.1161 -0.2859  0.1639
  264POPC   C4A 3477   8.242   1.737   5.386 -0.1115  0.1228  0.4139
  264POPC   C1B 3478   7.912   2.038   4.400  0.0184  0.0810 -0.4172
  264POPC   C2B 3479   8.004   1.845   4.756  0.0633 -0.1405  0.2034
  264POPC   C3B 3480   7.755   1.847   5.005  0.2639 -0.2257  0.0091
  264POPC   C4B 3481   7.377   1.689   5.060  0.1667 -0.1132 -0.0857
  265POPC   NC3 3482   9.322   6.190   3.587  0.1055  0.1237  0.0576
  265POPC   PO4 3483   8.996   6.238   3.897 -0.0825  0.1345 -0.1291
  265POPC   GL1 3484   9.013   6.449   4.267 -0.2267  0.0962 -0.0716
  265POPC   GL2 3485   8.708   6.590   4.339  0.0234  0.0514 -0.1859
  265POPC   C1A 3486   9.033   6.287   4.624 -0.1030  0.1270  0.2160
  265POPC   D2A 3487   8.982   6.291   5.018  0.1634  0.2046  0.0197
  265POPC   C3A 3488   8.835   6.601   5.275  0.0895 -0.0424 -0.2711
  265POPC   C4A 3489   8.845   6.618   5.610 -0.1296  0.0451 -0.1750
  265POPC   C1B 3490   8.393   6.961   4.581  0.1759 -0.1688  0.4216
  265POPC   C2B 3491   8.301   7.364   4.678 -0.1901  0.1837 -0.1034
  265POPC   C3B 3492   8.006   7.620   4.469  0.2630 -0.0629 -0.0414
  265POPC   C4B 3493   8.128   7.915   4.180 -0.1481 -0.0801  0.0607
  266POPC   NC3 3494   3.565   0.418   4.077 -0.0252  0.0148 -0.1922
  266POPC   PO4 3495   3.327   0.179   4.363 -0.1160  0.0637  0.0387
  266POPC   GL1 3496   3.564   0.044   4.711 -0.1220  0.1529 -0.0430
  266POPC   GL2 3497   3.964   0.120   4.819  0.0976  0.0690  0.0335
  266POPC   C1A 3498   3.764  -0.280   5.007  0.0265  0.2545 -0.0957
  266POPC   D2A 3499   3.827  -0.692   5.274 -0.0565 -0.3982  0.2671
  266POPC   C3A 3500   3.810  -1.164   5.290 -0.3076 -0.2319 -0.2115
  266POPC   C4A 3501   3.799  -1.666   5.259 -0.0773 -0.0689 -0.0148
  266POPC   C1B 3502   4.251   0.143   5.093 -0.2555 -0.1013  0.0042
  266POPC   C2B 3503   4.446   0.542   5.185  0.0246 -0.0547  0.2756
  266POPC   C3B 3504   4.715   0.841   5.383 -0.1397 -0.2135 -0.2121
  266POPC   C4B 3505   4.853   1.291   5.432 -0.1353  0.3842 -0.1115
  267POPC   NC3 3506   8.333   2.587   3.396 -0.1196  0.2297 -0.3013
  267POPC   PO4 3507   8.501   2.788   3.664  0.0143 -0.1681  0.1133
  267POPC   GL1 3508   8.466   2.907   4.082  0.1362 -0.0723 -0.1339
  267POPC   GL2 3509   8.698   2.881   4.353 -0.0210 -0.1166 -0.0487
  267POPC   C1A 3510   8.220   3.006   4.531  0.0199 -0.2127  0.1615
  267POPC   D2A 3511   8.188   3.208   4.858  0.1823  0.3140  0.0497
  267POPC   C3A 3512   8.531   3.178   5.249  0.1924  0.0311  0.1995
  267POPC   C4A 3513   8.893   3.162   5.458 -0.1207 -0.2883  0.0332
  267POPC   C1B 3514   8.502   2.606   4.710 -0.2304 -0.1779 -0.0843
  267POPC   C2B 3515   8.345   2.712   5.126  0.1898 -0.0237 -0.1915
  267POPC   C3B 3516   8.101   3.069   5.405  0.2833 -0.1667  0.2404
  267POPC   C4B 3517   8.156   3.534   5.332 -0.0346 -0.1530  0.0639
  268POPC   NC3 3518   7.135   4.785   3.489  0.0514  0.0606 -0.3055
  268POPC   PO4 3519   7.590   4.614   3.482  0.2222  0.1456  0.0375
  268POPC   GL1 3520   7.541   4.710   3.991  0.1898  0.2504  0.1061
  268POPC   GL2 3521   7.284   4.611   3.949 -0.0326 -0.4124  0.0514
  268POPC   C1A 3522   7.578   4.776   4.444 -0.0228  0.0018  0.1518
  268POPC   D2A 3523   7.439   4.710   4.902 -0.0704 -0.2550  0.0036
  268POPC   C3A 3524   7.088   4.435   5.076  0.1497  0.0060  0.1197
  268POPC   C4A 3525   6.770   4.114   4.954 -0.2050 -0.1001  0.1118
  268POPC   C1B 3526   7.508   4.278   4.233  0.1125 -0.2803 -0.1417
  268POPC   C2B 3527   7.511   4.195   4.682  0.0551  0.1556 -0.3656
  268POPC   C3B 3528   7.315   3.966   5.008  0.0121  0.0954 -0.1341
  268POPC   C4B 3529   7.202   3.819   5.388 -0.2671  0.1010 -0.0852
  269POPC   NC3 3530   7.030   3.102   3.622  0.4020  0.2699  0.2187
  269POPC   PO4 3531   7.170   3.488   3.452 -0.1009 -0.0291  0.3444
  269POPC   GL1 3532   7.365   3.512   3.878  0.2360 -0.0300 -0.0714
  269POPC   GL2 3533   7.185   3.780   3.961  0.0626  0.2142 -0.0987
  269POPC   C1A 3534   7.271   3.423   4.341 -0.2129 -0.1237  0.2399
  269POPC   D2A 3535   7.206   3.047   4.579 -0.1529  0.1069 -0.4599
  269POPC   C3A 3536   6.851   2.829   4.648  0.2413  0.3057  0.0892
  269POPC   C4A 3537   6.428   2.710   4.748 -0.0344 -0.1308 -0.0471
  269POPC   C1B 3538   7.597   3.782   4.273  0.1862 -0.1969 -0.2539
  269POPC   C2B 3539   7.528   3.612   4.728  0.0721 -0.0411  0.5116
  269POPC   C3B 3540   7.515   3.383   4.927  0.1943 -0.1591  0.1786
  269POPC   C4B 3541   7.652   3.286   5.281  0.0947  0.0810 -0.2598
  270POPC   NC3 3542   3.499   4.826   3.291  0.0825  0.0243 -0.3566
  270POPC   PO4 3543   3.602   4.775   3.765  0.1616  0.1641 -0.1337
  270POPC   GL1 3544   3.433   4.670   4.129 -0.1727 -0.0313 -0.1418
  270POPC   GL2 3545   3.179   4.414   4.327  0.0667  0.1543  0.3288
  270POPC   C1A 3546   3.581   4.723   4.529 -0.0236  0.2662  0.1066
  270POPC   D2A 3547   3.666   4.650   4.959  0.0859  0.0368 -0.1811
  270POPC   C3A 3548   3.549   4.805   5.320 -0.2489 -0.3322  0.0543
  270POPC   C4A 3549   3.545   4.702   5.812  0.4449  0.2218 -0.2751
  270POPC   C1B 3550   3.233   4.370   4.784 -0.0035 -0.1695 -0.1529
  270POPC   C2B 3551   3.376   4.313   5.180 -0.0503 -0.0671  0.2370
  270POPC   C3B 3552   3.667   4.190   5.575 -0.1143 -0.1961  0.0574
  270POPC   C4B 3553   3.984   4.377   5.833 -0.1519  0.0444 -0.4217
  271POPC   NC3 3554  10.417   0.959   4.102 -0.1145 -0.2665  0.1808
  271POPC   PO4 3555  10.185   0.758   3.747 -0.0882 -0.2202 -0.3207
  271POPC   GL1 3556  10.078   0.546   4.121  0.3773  0.0947  0.1606
  271POPC   GL2 3557  10.236   0.474   4.439 -0.1379  0.0607  0.1751
  271POPC   C1A 3558   9.768   0.168   4.291 -0.1144 -0.1228  0.1244
  271POPC   D2A 3559   9.691   0.059   4.633 -0.1022 -0.3221 -0.1753
  271POPC   C3A 3560   9.971   0.205   5.011 -0.0457  0.0369 -0.1401
  271POPC   C4A 3561  10.369   0.386   5.091 -0.1007  0.0203 -0.3135
  271POPC   C1B 3562   9.785   0.554   4.646 -0.0676  0.3929 -0.0876
  271POPC   C2B 3563   9.673   0.783   4.937 -0.0551  0.1072 -0.0015
  271POPC   C3B 3564   9.505   0.665   5.339  0.1445  0.0639 -0.2928
  271POPC   C4B 3565   9.241   0.686   5.753  0.0601 -0.0435 -0.0990
  272POPC   NC3 3566   3.046   2.170   4.256  0.1051  0.0315 -0.2456
  272POPC   PO4 3567   3.481   2.286   3.995 -0.2226  0.4084 -0.3838
  272POPC   GL1 3568   3.360   2.601   4.400  0.0052  0.1662 -0.1385
  272POPC   GL2 3569   2.985   2.626   4.456  0.3245 -0.1879  0.2925
  272POPC   C1A 3570   3.564   2.648   4.848  0.0637 -0.0466  0.1581
  272POPC   D2A 3571   3.722   2.856   5.098  0.2496 -0.0837 -0.1790
  272POPC   C3A 3572   3.399   3.183   5.255  0.2452 -0.0784 -0.2330
  272POPC   C4A 3573   3.376   3.573   5.251 -0.4050 -0.0796 -0.1360
  272POPC   C1B 3574   3.133   2.929   4.808 -0.2500 -0.2456 -0.1734
  272POPC   C2B 3575   3.188   3.331   4.842 -0.1317  0.3286 -0.3046
  272POPC   C3B 3576   2.879   3.571   4.620  0.0728 -0.2653  0.1244
  272POPC   C4B 3577   2.909   4.018   4.470 -0.0274  0.2359  0.1154
  273POPC   NC3 3578   5.790   1.233   3.845 -0.2713 -0.2727 -0.3848
  273POPC   PO4 3579   5.372   1.184   4.099  0.3287 -0.1916  0.0279
  273POPC   GL1 3580   5.604   1.367   4.292 -0.0427  0.2030  0.0923
  273POPC   GL2 3581   5.866   1.434   4.273 -0.0737  0.2980  0.0192
  273POPC   C1A 3582   5.668   1.289   4.694  0.0503 -0.1781 -0.0594
  273POPC   D2A 3583   5.678   1.194   5.077 -0.2557  0.2157  0.0821
  273POPC   C3A 3584   5.986   1.356   5.339  0.0340 -0.1794  0.0499
  273POPC   C4A 3585   6.275   1.576   5.060 -0.0535  0.0791  0.0361
  273POPC   C1B 3586   6.143   1.253   4.580 -0.1689  0.1575 -0.0976
  273POPC   C2B 3587   6.445   1.094   5.049  0.2307 -0.1226  0.4878
  273POPC   C3B 3588   6.678   1.366   5.343  0.2426 -0.0919  0.1939
  273POPC   C4B 3589   6.874   1.388   5.754  0.1455  0.0939  0.2085
  274POPC   NC3 3590   4.723   9.721   3.620  0.2916  0.1216  0.2441
  274POPC   PO4 3591   5.044   9.445   3.825 -0.2038  0.3017  0.2037
  274POPC   GL1 3592   5.115   9.336   4.302  0.1245  0.1912  0.1774
  274POPC   GL2 3593   4.925   9.593   4.500 -0.0216  0.2243  0.0522
  274POPC   C1A 3594   5.307   9.208   4.650 -0.0316  0.3378 -0.0360
  274POPC   D2A 3595   5.576   9.000   4.937  0.1571 -0.2015 -0.1541
  274POPC   C3A 3596   5.541   9.008   5.374  0.0912  0.0025  0.3969
  274POPC   C4A 3597   5.692   9.324   5.669  0.2957 -0.0534 -0.0055
  274POPC   C1B 3598   5.049   9.537   4.850 -0.0877  0.2048  0.0120
  274POPC   C2B 3599   4.858   9.274   5.210 -0.2353  0.2724 -0.0912
  274POPC   C3B 3600   4.922   8.917   5.641 -0.3570 -0.2728  0.1598
  274POPC   C4B 3601   5.294   9.033   5.931 -0.3246  0.0216  0.0891
  275POPC   NC3 3602   6.609   6.716   3.983 -0.1102 -0.2114 -0.0189
  275POPC   PO4 3603   7.008   7.020   4.090  0.0669 -0.2532 -0.0028
  275POPC   GL1 3604   7.281   7.242   4.350 -0.1322  0.2634  0.1272
  275POPC   GL2 3605   7.641   7.286   4.307  0.2907  0.0138 -0.1667
  275POPC   C1A 3606   7.265   7.577   4.598 -0.1809 -0.1469  0.2901
  275POPC   D2A 3607   7.467   7.703   4.977 -0.1059  0.3097  0.2888
  275POPC   C3A 3608   7.885   7.523   5.039 -0.0994 -0.0936  0.1842
  275POPC   C4A 3609   8.101   7.224   5.315 -0.3124 -0.0941  0.2910
  275POPC   C1B 3610   7.502   7.223   4.831 -0.0042 -0.1052 -0.2871
  275POPC   C2B 3611   7.596   7.103   5.258  0.0846 -0.0499  0.1016
  275POPC   C3B 3612   7.317   6.921   5.662  0.1113 -0.1162 -0.1014
  275POPC   C4B 3613   7.122   6.547   5.813  0.1509 -0.2215 -0.0554
  276POPC   NC3 3614   7.366  10.478   2.532  0.0431  0.2580  0.1698
  276POPC   PO4 3615   7.519  10.867   2.747 -0.2021  0.3365 -0.0562
  276POPC   GL1 3616   7.572  10.748   3.305 -0.0484 -0.1771  0.1263
  276POPC   GL2 3617   7.871  10.864   3.528  0.0549 -0.0587 -0.0476
  276POPC   C1A 3618   7.393  10.504   3.553  0.2519 -0.2704  0.0803
  276POPC   D2A 3619   7.121  10.502   3.877 -0.1090 -0.0694 -0.3731
  276POPC   C3A 3620   6.855  10.862   3.919 -0.0487  0.0427  0.0387
  276POPC   C4A 3621   6.716  11.332   4.018  0.3359  0.1633 -0.5150
  276POPC   C1B 3622   7.776  10.613   3.853  0.4863  0.2317 -0.2678
  276POPC   C2B 3623   7.848  10.650   4.160 -0.0415  0.2674 -0.0452
  276POPC   C3B 3624   8.149  10.821   4.468 -0.2435  0.2826 -0.1251
  276POPC   C4B 3625   8.401  10.855   4.870 -0.0967 -0.2228  0.0539
  277POPC   NC3 3626   1.700   8.940   3.565 -0.2507  0.1181  0.0293
  277POPC   PO4 3627   1.460   8.956   3.865  0.1266  0.1422  0.2224
  277POPC   GL1 3628   1.582   8.951   4.274  0.1716  0.0848  0.1818
  277POPC   GL2 3629   1.568   9.304   4.432  0.1753  0.0596  0.2013
  277POPC   C1A 3630   1.769   9.010   4.697 -0.2552 -0.0380 -0.2125
  277POPC   D2A 3631   2.107   9.224   4.988 -0.1451  0.2409  0.0873
  277POPC   C3A 3632   2.207   8.907   5.328 -0.0784 -0.2628  0.0480
  277POPC   C4A 3633   1.986   8.539   5.541  0.0960 -0.1302  0.1024
  277POPC   C1B 3634   1.631   9.580   4.823  0.2009  0.1172  0.1011
  277POPC   C2B 3635   1.605  10.120   4.866 -0.0316 -0.1221 -0.1867
  277POPC   C3B 3636   1.434  10.544   5.093 -0.4329  0.0962 -0.2247
  277POPC   C4B 3637   1.346  10.930   5.418 -0.3338  0.0932 -0.2298
  278POPC   NC3 3638   3.790   5.576   3.892 -0.2214 -0.1483  0.0591
  278POPC   PO4 3639   4.109   5.284   3.859 -0.1193  0.0485  0.0634
  278POPC   GL1 3640   4.286   4.915   4.152  0.1070  0.3146  0.0437
  278POPC   GL2 3641   3.990   4.671   4.264 -0.0251 -0.1227 -0.0287
  278POPC   C1A 3642   4.443   4.777   4.488  0.2013  0.4226  0.0313
  278POPC   D2A 3643   4.407   4.483   4.714  0.1098  0.2252 -0.0193
  278POPC   C3A 3644   4.396   4.552   5.133 -0.0850  0.0753 -0.2019
  278POPC   C4A 3645   4.023   4.492   5.364  0.0970 -0.0947 -0.6473
  278POPC   C1B 3646   3.959   5.015   4.574 -0.0267 -0.0110 -0.0826
  278POPC   C2B 3647   3.817   5.184   4.937  0.1503  0.1170 -0.0971
  278POPC   C3B 3648   3.988   5.207   5.323  0.0961 -0.0943 -0.1427
  278POPC   C4B 3649   4.372   5.027   5.497  0.0264  0.0671  0.0362
  279POPC   NC3 3650   2.957   6.243   3.976  0.2847  0.1763  0.2333
  279POPC   PO4 3651   3.103   6.708   4.117 -0.1404  0.0160 -0.3040
  279POPC   GL1 3652   2.856   6.851   4.479  0.0251 -0.1303 -0.1502
  279POPC   GL2 3653   2.806   7.181   4.213 -0.1397 -0.0722 -0.0730
  279POPC   C1A 3654   2.797   6.989   4.895  0.1686  0.3056 -0.0708
  279POPC   D2A 3655   2.783   7.147   5.313 -0.2726 -0.0159 -0.0054
  279POPC   C3A 3656   2.987   7.522   5.508 -0.2677  0.0382 -0.2495
  279POPC   C4A 3657   3.208   7.768   5.735  0.0389 -0.2360  0.3923
  279POPC   C1B 3658   3.076   7.323   4.570  0.3542 -0.2484 -0.0761
  279POPC   C2B 3659   3.020   7.429   4.922  0.2098 -0.0897 -0.0222
  279POPC   C3B 3660   3.079   7.839   5.047  0.0594 -0.0286  0.1962
  279POPC   C4B 3661   2.954   8.038   5.389  0.1438  0.2174  0.1132
  280POPC   NC3 3662   8.506   6.506   3.895 -0.2836 -0.0295 -0.2414
  280POPC   PO4 3663   8.123   6.752   3.780 -0.1119 -0.0688  0.1951
  280POPC   GL1 3664   8.137   6.606   4.215  0.0355 -0.1674  0.0850
  280POPC   GL2 3665   7.902   6.837   4.321  0.0540 -0.3289 -0.1041
  280POPC   C1A 3666   8.247   6.466   4.573 -0.2031  0.0719  0.2584
  280POPC   D2A 3667   8.578   6.522   4.845 -0.0485 -0.1512 -0.1017
  280POPC   C3A 3668   8.370   6.356   5.241  0.0438 -0.2107 -0.1619
  280POPC   C4A 3669   8.237   6.443   5.660 -0.2715  0.3119 -0.0089
  280POPC   C1B 3670   7.906   6.894   4.789 -0.1123  0.0774 -0.1210
  280POPC   C2B 3671   8.109   6.755   5.136  0.0376 -0.0787  0.4228
  280POPC   C3B 3672   7.868   6.829   5.575 -0.0209 -0.0211  0.1521
  280POPC   C4B 3673   7.780   6.757   6.074  0.0693 -0.1407 -0.1011
  281POPC   NC3 3674   9.328   2.336   4.012  0.2416 -0.0239  0.1844
  281POPC   PO4 3675   9.320   1.859   3.856  0.1082  0.4518  0.0349
  281POPC   GL1 3676   9.177   1.826   4.265  0.1408 -0.1212 -0.1682
  281POPC   GL2 3677   9.322   2.068   4.413 -0.2887 -0.0099 -0.0976
  281POPC   C1A 3678   8.994   1.861   4.685 -0.2820 -0.2479 -0.1032
  281POPC   D2A 3679   8.679   1.689   5.065  0.1337  0.0991  0.0147
  281POPC   C3A 3680   8.716   1.781   5.504  0.0843 -0.0464 -0.1308
  281POPC   C4A 3681   8.385   1.956   5.784  0.1883 -0.2005  0.2332
  281POPC   C1B 3682   9.381   2.051   4.852  0.1321  0.2104 -0.2148
  281POPC   C2B 3683   9.516   1.943   5.339  0.1394 -0.3725  0.2833
  281POPC   C3B 3684   9.712   1.974   5.777 -0.1194 -0.0503  0.3108
  281POPC   C4B 3685   9.988   2.118   6.007  0.4611  0.1742  0.1717
  282POPC   NC3 3686   4.499   5.328   4.128 -0.3271 -0.0451 -0.0476
  282POPC   PO4 3687   4.740   5.565   3.935 -0.0459  0.0074  0.0722
  282POPC   GL1 3688   4.686   5.795   4.323  0.1854  0.0997 -0.2234
  282POPC   GL2 3689   4.542   5.657   4.540 -0.2560 -0.3913 -0.0929
  282POPC   C1A 3690   5.029   5.916   4.648  0.1423 -0.0330  0.1542
  282POPC   D2A 3691   5.483   5.940   4.852 -0.3599 -0.2899  0.0104
  282POPC   C3A 3692   5.460   6.022   5.289 -0.2248 -0.0730  0.0188
  282POPC   C4A 3693   5.566   5.874   5.713 -0.3736  0.0420 -0.0812
  282POPC   C1B 3694   4.227   5.503   4.800  0.1764 -0.2616 -0.3426
  282POPC   C2B 3695   3.936   5.625   5.052 -0.1807 -0.0409 -0.3968
  282POPC   C3B 3696   3.907   6.052   5.266 -0.0782 -0.2298  0.3552
  282POPC   C4B 3697   3.876   6.200   5.700  0.0480  0.0159 -0.0762
  283POPC   NC3 3698   3.442   8.498   3.987  0.6862 -0.0697  0.1083
  283POPC   PO4 3699   3.074   8.623   4.303  0.0926  0.1074 -0.2260
  283POPC   GL1 3700   3.113   8.755   4.704 -0.2037 -0.1965  0.2054
  283POPC   GL2 3701   3.087   9.035   4.638 -0.1869  0.0184 -0.1411
  283POPC   C1A 3702   3.356   8.860   5.123  0.2265  0.0870 -0.3680
  283POPC   D2A 3703   3.371   9.160   5.533 -0.1728 -0.0569 -0.1895
  283POPC   C3A 3704   3.741   9.312   5.739  0.1138  0.3284 -0.0063
  283POPC   C4A 3705   3.859   9.605   6.035  0.0938 -0.4837  0.0345
  283POPC   C1B 3706   3.003   9.224   5.066 -0.0075  0.0751 -0.0183
  283POPC   C2B 3707   2.690   9.266   5.320  0.1170  0.3548  0.1966
  283POPC   C3B 3708   2.383   9.395   5.439  0.0922 -0.5233 -0.1626
  283POPC   C4B 3709   2.049   9.223   5.675  0.0406  0.2860  0.1643
  284POPC   NC3 3710   2.058   6.354   4.092  0.4052 -0.1466 -0.0277
  284POPC   PO4 3711   2.492   6.265   3.931  0.1605  0.0068  0.0479
  284POPC   GL1 3712   2.480   6.092   4.269  0.0604  0.0696 -0.1737
  284POPC   GL2 3713   2.262   6.239   4.592 -0.0178  0.2952 -0.2228
  284POPC   C1A 3714   2.598   5.954   4.808  0.0586 -0.3766  0.2611
  284POPC   D2A 3715   2.664   6.121   5.143  0.1715 -0.0543  0.1013
  284POPC   C3A 3716   2.918   6.163   5.374 -0.3112  0.3303 -0.4476
  284POPC   C4A 3717   3.099   5.835   5.692 -0.0817  0.1030 -0.2308
  284POPC   C1B 3718   2.192   6.240   5.121  0.2254  0.2815 -0.0275
  284POPC   C2B 3719   2.103   6.073   5.552  0.0096 -0.4074  0.2239
  284POPC   C3B 3720   2.148   6.075   5.965  0.0799 -0.4122  0.0515
  284POPC   C4B 3721   2.401   5.796   6.157  0.0796 -0.3376  0.0702
  285POPC   NC3 3722   5.540   9.457   3.531 -0.1839 -0.1348  0.3249
  285POPC   PO4 3723   5.783   9.045   3.491  0.1332  0.1205 -0.1277
  285POPC   GL1 3724   5.806   9.252   3.936 -0.2807  0.1270  0.2101
  285POPC   GL2 3725   5.502   9.409   4.044 -0.2557 -0.2834  0.1108
  285POPC   C1A 3726   5.679   8.998   4.375 -0.0942 -0.1450  0.1525
  285POPC   D2A 3727   5.977   8.662   4.622  0.1294  0.0815  0.2570
  285POPC   C3A 3728   5.908   8.131   4.692 -0.1885  0.0434  0.2549
  285POPC   C4A 3729   5.795   7.739   4.617  0.4953  0.1536  0.1319
  285POPC   C1B 3730   5.436   9.733   4.449 -0.2636  0.1091  0.1037
  285POPC   C2B 3731   5.401   9.913   4.903 -0.2136  0.3983 -0.1303
  285POPC   C3B 3732   5.471   9.976   5.285 -0.0285  0.1182 -0.0343
  285POPC   C4B 3733   5.540   9.848   5.762  0.1499  0.3350 -0.2405
  286POPC   NC3 3734   3.340   1.392   4.038  0.3406 -0.1148  0.1152
  286POPC   PO4 3735   2.931   1.561   4.278 -0.1236  0.0077  0.0899
  286POPC   GL1 3736   3.002   1.792   4.658 -0.0516 -0.2504 -0.0144
  286POPC   GL2 3737   3.289   2.098   4.695  0.2026  0.0352 -0.2114
  286POPC   C1A 3738   3.044   1.935   5.100  0.2679  0.4338  0.2017
  286POPC   D2A 3739   2.964   2.102   5.492 -0.5853  0.0545  0.0478
  286POPC   C3A 3740   2.971   2.539   5.712 -0.0787 -0.2812 -0.1156
  286POPC   C4A 3741   2.794   2.968   5.967 -0.0426  0.0229  0.0954
  286POPC   C1B 3742   3.164   2.407   5.080  0.0402 -0.2940 -0.2651
  286POPC   C2B 3743   3.042   2.727   5.286  0.1172  0.0416  0.4013
  286POPC   C3B 3744   2.926   3.106   5.447  0.2632  0.2609 -0.0826
  286POPC   C4B 3745   3.099   3.495   5.701 -0.0509  0.0572 -0.1207
  287POPC   NC3 3746   0.291   5.682   3.731 -0.2961  0.2122  0.1557
  287POPC   PO4 3747   0.708   5.570   3.632  0.1482 -0.2694  0.2323
  287POPC   GL1 3748   0.618   5.534   4.110  0.0707 -0.1870 -0.0301
  287POPC   GL2 3749   0.636   5.870   4.150  0.1984  0.0487  0.0409
  287POPC   C1A 3750   0.625   5.216   4.392 -0.0077 -0.0337 -0.1102
  287POPC   D2A 3751   0.962   5.099   4.607 -0.3159 -0.3152  0.0080
  287POPC   C3A 3752   0.914   4.630   4.537 -0.1762  0.0058 -0.1697
  287POPC   C4A 3753   0.648   4.234   4.701  0.1363  0.0025  0.1677
  287POPC   C1B 3754   0.880   5.686   4.480 -0.2605 -0.3486 -0.2875
  287POPC   C2B 3755   1.258   5.549   4.707 -0.2271 -0.2606 -0.0979
  287POPC   C3B 3756   1.238   5.474   5.136 -0.0001  0.1158  0.1535
  287POPC   C4B 3757   1.268   5.470   5.677 -0.0605  0.2639  0.3610
  288POPC   NC3 3758  10.473   0.283   3.986  0.2190  0.0376  0.0860
  288POPC   PO4 3759  10.694   0.443   3.723  0.0999  0.1433 -0.2051
  288POPC   GL1 3760  10.743   0.636   4.238 -0.2194  0.2961 -0.0263
  288POPC   GL2 3761  10.955   0.543   4.372 -0.0241 -0.1602 -0.2380
  288POPC   C1A 3762  10.576   0.631   4.738 -0.0684 -0.1741 -0.0256
  288POPC   D2A 3763  10.746   0.803   5.133  0.3375  0.2055 -0.2680
  288POPC   C3A 3764  10.417   0.879   5.446  0.2858  0.0061  0.0097
  288POPC   C4A 3765  10.277   0.743   5.909 -0.1585 -0.0235  0.1013
  288POPC   C1B 3766  11.187   0.569   4.791 -0.6833 -0.1493  0.1637
  288POPC   C2B 3767  11.484   0.667   5.049  0.2012 -0.1277 -0.2276
  288POPC   C3B 3768  11.891   0.739   5.208  0.0631 -0.2155  0.3651
  288POPC   C4B 3769  12.254   0.714   5.332  0.2244 -0.0386 -0.0801
  289POPC   NC3 3770   5.601   4.416   3.092  0.0488  0.0790 -0.0659
  289POPC   PO4 3771   5.336   4.371   3.505 -0.2861 -0.2026 -0.0944
  289POPC   GL1 3772   5.073   4.403   3.913 -0.2843  0.1929  0.1784
  289POPC   GL2 3773   5.256   4.322   4.254 -0.2386  0.2655  0.0960
  289POPC   C1A 3774   5.239   4.873   4.114 -0.0473  0.0699 -0.1202
  289POPC   D2A 3775   5.482   5.119   4.438 -0.2564  0.2060 -0.0110
  289POPC   C3A 3776   5.306   5.144   4.827  0.0049 -0.1161  0.0480
  289POPC   C4A 3777   5.302   5.318   5.229 -0.3189  0.0480 -0.1399
  289POPC   C1B 3778   5.313   4.679   4.581  0.0572 -0.5323 -0.0301
  289POPC   C2B 3779   5.327   4.653   4.990 -0.4218  0.1624 -0.0113
  289POPC   C3B 3780   5.326   4.863   5.411  0.2065 -0.0950 -0.1480
  289POPC   C4B 3781   5.550   5.006   5.699 -0.1703  0.2204 -0.0294
  290POPC   NC3 3782  10.581   8.271   3.842  0.0110  0.1779  0.0998
  290POPC   PO4 3783  10.839   7.835   3.937 -0.0634  0.3947 -0.0806
  290POPC   GL1 3784  10.852   7.911   4.442 -0.3416 -0.2068 -0.0073
  290POPC   GL2 3785  10.672   8.217   4.376  0.0254 -0.1625  0.3614
  290POPC   C1A 3786  11.046   7.833   4.843 -0.0373  0.1353  0.1036
  290POPC   D2A 3787  11.119   7.736   5.286  0.0429  0.0196  0.0205
  290POPC   C3A 3788  11.349   8.080   5.438  0.0049  0.3380  0.0112
  290POPC   C4A 3789  11.764   8.429   5.494  0.0508 -0.0611  0.0094
  290POPC   C1B 3790  10.690   8.261   4.836  0.1053 -0.1436 -0.2103
  290POPC   C2B 3791  10.766   8.052   5.213  0.1620 -0.0523 -0.3106
  290POPC   C3B 3792  10.845   8.132   5.688 -0.1445  0.0634 -0.0606
  290POPC   C4B 3793  11.193   8.140   5.954  0.0222 -0.1178  0.0421
  291POPC   NC3 3794   1.227   1.822   3.991 -0.0563  0.1720  0.1849
  291POPC   PO4 3795   0.768   1.777   3.886 -0.1682  0.0969 -0.0263
  291POPC   GL1 3796   0.840   1.926   4.363 -0.3876  0.0084 -0.2026
  291POPC   GL2 3797   1.026   1.724   4.472  0.1777 -0.1755 -0.2106
  291POPC   C1A 3798   0.844   2.135   4.824  0.3120 -0.1154 -0.0121
  291POPC   D2A 3799   0.595   2.336   5.087 -0.4774 -0.0703 -0.2719
  291POPC   C3A 3800   0.502   2.741   4.869 -0.0415  0.2785 -0.4181
  291POPC   C4A 3801   0.478   2.941   4.513  0.1683 -0.1959  0.0021
  291POPC   C1B 3802   0.799   1.628   4.927  0.0232  0.2395 -0.3447
  291POPC   C2B 3803   0.460   1.321   5.049 -0.1110 -0.2361  0.3547
  291POPC   C3B 3804   0.481   0.977   5.353  0.0722  0.1889  0.3215
  291POPC   C4B 3805   0.661   0.694   5.720 -0.1396 -0.0621 -0.4526
  292POPC   NC3 3806   8.534   1.322   3.954  0.2974  0.0225  0.0416
  292POPC   PO4 3807   8.887   1.590   3.955  0.0786  0.1485 -0.1578
  292POPC   GL1 3808   8.707   1.677   4.317  0.0342 -0.0618  0.0744
  292POPC   GL2 3809   8.487   2.027   4.399 -0.3033 -0.4149 -0.3124
  292POPC   C1A 3810   8.392   1.518   4.682 -0.0263 -0.1434 -0.3398
  292POPC   D2A 3811   8.057   1.329   4.866  0.0980  0.0570  0.0259
  292POPC   C3A 3812   8.086   1.216   5.310  0.2756 -0.2178 -0.2759
  292POPC   C4A 3813   8.249   1.179   5.786  0.0052  0.3095  0.0408
  292POPC   C1B 3814   8.516   2.124   4.882  0.1966  0.0587  0.3019
  292POPC   C2B 3815   8.519   2.334   5.395  0.1353 -0.0867  0.1209
  292POPC   C3B 3816   8.500   2.417   5.897  0.0746 -0.0695  0.0393
  292POPC   C4B 3817   8.272   2.885   6.020 -0.0834 -0.1593 -0.3599
  293POPC   NC3 3818   6.348   2.927   3.688  0.2931  0.1494 -0.0298
  293POPC   PO4 3819   6.674   2.751   3.696  0.2440  0.1467 -0.2044
  293POPC   GL1 3820   6.656   3.161   4.010 -0.4140 -0.1662  0.0116
  293POPC   GL2 3821   6.767   3.470   4.051  0.0538  0.0854  0.2123
  293POPC   C1A 3822   6.739   3.301   4.527  0.1811  0.0053  0.0296
  293POPC   D2A 3823   6.566   3.189   4.954 -0.2284 -0.2835 -0.0450
  293POPC   C3A 3824   6.772   2.872   5.182  0.0428  0.0194 -0.1338
  293POPC   C4A 3825   7.083   2.610   5.380  0.1459 -0.1866  0.0308
  293POPC   C1B 3826   6.662   3.736   4.365  0.2142  0.1595 -0.2184
  293POPC   C2B 3827   6.407   3.922   4.657 -0.2780 -0.1663  0.0110
  293POPC   C3B 3828   6.235   4.121   5.112 -0.1106 -0.2669  0.3938
  293POPC   C4B 3829   6.123   4.231   5.506  0.0869 -0.0399 -0.0035
  294POPC   NC3 3830   3.383   0.913   4.849  0.1296  0.0724  0.2257
  294POPC   PO4 3831   2.928   0.980   4.881  0.1725  0.1370 -0.1320
  294POPC   GL1 3832   3.083   0.819   5.253 -0.0095  0.2999 -0.2131
  294POPC   GL2 3833   3.078   1.087   5.548  0.0329 -0.2220  0.0615
  294POPC   C1A 3834   3.203   0.551   5.486  0.2335  0.1510  0.1993
  294POPC   D2A 3835   3.364   0.230   5.684 -0.2234  0.1439  0.2769
  294POPC   C3A 3836   3.144   0.387   6.019 -0.0488  0.1597 -0.2658
  294POPC   C4A 3837   2.944   0.610   6.307  0.0164  0.0362 -0.3714
  294POPC   C1B 3838   3.249   1.512   5.633 -0.4991  0.2576  0.0012
  294POPC   C2B 3839   3.441   1.834   6.007 -0.0512  0.1504 -0.0816
  294POPC   C3B 3840   3.571   2.018   6.460 -0.0638 -0.0396  0.0277
  294POPC   C4B 3841   3.465   2.301   6.771 -0.3509 -0.1744 -0.0166
  295POPC   NC3 3842   3.768   6.572   3.832  0.2086 -0.0399  0.1041
  295POPC   PO4 3843   3.635   6.765   4.151 -0.0971 -0.3071  0.0658
  295POPC   GL1 3844   3.626   6.665   4.587 -0.3243  0.0058 -0.0727
  295POPC   GL2 3845   3.440   6.508   4.528 -0.1659 -0.0261  0.1242
  295POPC   C1A 3846   3.786   6.528   4.979  0.1175 -0.0491  0.2802
  295POPC   D2A 3847   3.694   6.907   5.346 -0.0273  0.1687 -0.0907
  295POPC   C3A 3848   3.582   6.622   5.676  0.0964 -0.1352 -0.0245
  295POPC   C4A 3849   3.432   6.234   5.507  0.4372 -0.1433 -0.4077
  295POPC   C1B 3850   3.274   6.852   4.812  0.0070  0.1050  0.0469
  295POPC   C2B 3851   3.305   7.142   5.201  0.0589  0.1751 -0.1525
  295POPC   C3B 3852   3.223   7.018   5.609  0.0050  0.0350  0.1933
  295POPC   C4B 3853   3.205   6.919   6.009  0.0161 -0.0426  0.0516
  296POPC   NC3 3854  10.104   5.545   3.875  0.1930  0.1312 -0.3047
  296POPC   PO4 3855  10.520   5.387   3.662  0.0012  0.1992  0.2252
  296POPC   GL1 3856  10.503   5.247   4.066 -0.0122  0.2490 -0.0453
  296POPC   GL2 3857  10.183   5.065   4.209 -0.2740 -0.1840 -0.0032
  296POPC   C1A 3858  10.427   5.515   4.449  0.0341 -0.0286 -0.2454
  296POPC   D2A 3859  10.577   5.732   4.829 -0.1176 -0.0254 -0.1079
  296POPC   C3A 3860  10.546   5.858   5.276 -0.1713  0.1451  0.2330
  296POPC   C4A 3861  10.821   5.868   5.537  0.1570 -0.0120  0.2541
  296POPC   C1B 3862  10.172   4.955   4.589 -0.1655 -0.0706 -0.1346
  296POPC   C2B 3863  10.086   4.688   4.967  0.0674 -0.1571 -0.1702
  296POPC   C3B 3864   9.832   4.541   5.336  0.5848 -0.3062  0.0998
  296POPC   C4B 3865   9.395   4.314   5.371 -0.1899  0.2490  0.0761
  297POPC   NC3 3866   4.372   0.867   4.158 -0.0014  0.1325  0.3983
  297POPC   PO4 3867   4.062   0.424   4.141 -0.3238  0.1738 -0.0189
  297POPC   GL1 3868   4.168   0.525   4.572  0.2209 -0.0485 -0.2771
  297POPC   GL2 3869   4.470   0.566   4.668 -0.1700  0.0657 -0.3106
  297POPC   C1A 3870   3.930   0.623   5.061 -0.0618 -0.2022 -0.0858
  297POPC   D2A 3871   3.649   0.761   5.323  0.0633 -0.0223  0.0549
  297POPC   C3A 3872   3.617   0.634   5.770 -0.2170 -0.2763 -0.0243
  297POPC   C4A 3873   3.923   0.643   6.231 -0.0775  0.2491  0.1624
  297POPC   C1B 3874   4.798   0.314   4.912  0.1225 -0.1854 -0.2643
  297POPC   C2B 3875   4.957   0.327   5.367  0.0410 -0.2035 -0.0009
  297POPC   C3B 3876   5.259   0.177   5.644  0.1229 -0.1528 -0.0262
  297POPC   C4B 3877   5.654   0.233   5.739  0.0056 -0.0117 -0.1648
  298POPC   NC3 3878   2.598   6.774   4.021 -0.0273 -0.0367  0.0301
  298POPC   PO4 3879   2.391   7.230   3.945 -0.0586  0.2408  0.2802
  298POPC   GL1 3880   2.262   7.189   4.372 -0.2621 -0.3104 -0.1740
  298POPC   GL2 3881   1.993   7.128   4.442 -0.1632 -0.1089 -0.0430
  298POPC   C1A 3882   2.299   7.043   4.803  0.0270 -0.2309  0.0621
  298POPC   D2A 3883   2.226   7.046   5.223 -0.0145  0.1588 -0.0949
  298POPC   C3A 3884   2.386   7.363   5.547 -0.1011  0.2658  0.1489
  298POPC   C4A 3885   2.655   7.161   5.900  0.0927 -0.1358  0.0009
  298POPC   C1B 3886   1.799   7.018   4.864 -0.0839  0.1403 -0.1920
  298POPC   C2B 3887   1.674   6.917   5.320  0.2513 -0.0062 -0.3743
  298POPC   C3B 3888   1.414   6.538   5.566  0.0285 -0.0478 -0.2311
  298POPC   C4B 3889   1.653   6.219   5.595 -0.1491 -0.1130  0.1762
  299POPC   NC3 3890   8.372   0.069   3.380  0.2703  0.1105  0.0425
  299POPC   PO4 3891   8.875   0.100   3.301 -0.1268  0.0757 -0.0542
  299POPC   GL1 3892   8.802  -0.013   3.735 -0.1117  0.0199 -0.3410
  299POPC   GL2 3893   8.958   0.197   3.909 -0.2664 -0.2900 -0.1200
  299POPC   C1A 3894   8.662  -0.188   4.124 -0.0037  0.1499 -0.2858
  299POPC   D2A 3895   8.605  -0.274   4.603 -0.0918 -0.0706  0.0059
  299POPC   C3A 3896   8.886  -0.529   4.747  0.0516 -0.0370  0.1737
  299POPC   C4A 3897   9.163  -0.603   5.099 -0.1433  0.2095  0.2119
  299POPC   C1B 3898   8.761   0.255   4.367  0.0860  0.0370  0.0137
  299POPC   C2B 3899   8.944   0.167   4.813 -0.2285  0.1216  0.1281
  299POPC   C3B 3900   9.042  -0.127   5.120  0.0053 -0.0388  0.1907
  299POPC   C4B 3901   9.169  -0.285   5.488 -0.0367  0.2342  0.2224
  300POPC   NC3 3902   1.355   9.427   3.990 -0.2319  0.0498  0.2067
  300POPC   PO4 3903   1.146   9.743   4.079  0.2902 -0.0217 -0.1369
  300POPC   GL1 3904   1.382   9.865   4.384 -0.2846 -0.2072 -0.1877
  300POPC   GL2 3905   1.787   9.740   4.377  0.3478 -0.1057  0.0679
  300POPC   C1A 3906   1.118   9.635   4.790  0.3761  0.0532  0.0052
  300POPC   D2A 3907   0.987   9.497   5.188 -0.3177 -0.1410 -0.0174
  300POPC   C3A 3908   1.147   9.654   5.620  0.3591  0.2452 -0.3307
  300POPC   C4A 3909   1.522   9.782   5.918 -0.2386  0.1342  0.3359
  300POPC   C1B 3910   2.147   9.693   4.623  0.2165  0.1149 -0.0106
  300POPC   C2B 3911   2.083   9.723   5.082  0.0218 -0.2584  0.2635
  300POPC   C3B 3912   1.978   9.734   5.527 -0.0600  0.1183  0.3962
  300POPC   C4B 3913   1.991   9.985   5.870  0.1130 -0.0042  0.0580
  301POPC   NC3 3914   1.538   6.764   4.067  0.2640  0.4914  0.0596
  301POPC   PO4 3915   1.311   7.177   4.037  0.2728 -0.1876  0.2019
  301POPC   GL1 3916   1.450   7.101   4.441  0.0877  0.0290  0.0733
  301POPC   GL2 3917   1.506   7.442   4.656  0.4309  0.4796  0.1197
  301POPC   C1A 3918   1.489   6.644   4.696  0.2745 -0.1277 -0.0159
  301POPC   D2A 3919   1.364   6.585   5.075  0.0289  0.1967  0.1639
  301POPC   C3A 3920   1.362   6.143   5.155  0.2017 -0.2005 -0.1359
  301POPC   C4A 3921   1.062   5.919   5.410  0.1996  0.0851 -0.2124
  301POPC   C1B 3922   1.347   7.552   5.048  0.0334  0.2711  0.6187
  301POPC   C2B 3923   1.370   7.354   5.320 -0.3446  0.1836  0.2054
  301POPC   C3B 3924   1.461   7.260   5.728 -0.2928  0.0383 -0.2076
  301POPC   C4B 3925   1.529   7.278   6.097  0.1612 -0.3327  0.1705
  302POPC   NC3 3926   3.854   1.899   4.284  0.1549 -0.0896 -0.0635
  302POPC   PO4 3927   3.418   1.802   4.334 -0.3024 -0.1170 -0.1538
  302POPC   GL1 3928   3.535   1.690   4.703 -0.1193 -0.0316 -0.1427
  302POPC   GL2 3929   3.798   1.919   4.793  0.1549 -0.1857  0.2844
  302POPC   C1A 3930   3.684   1.561   5.176  0.3362 -0.1768 -0.1169
  302POPC   D2A 3931   3.720   1.717   5.583  0.1352 -0.0912 -0.1866
  302POPC   C3A 3932   3.831   1.554   5.912  0.1939  0.0256 -0.1281
  302POPC   C4A 3933   3.694   1.550   6.400  0.1230 -0.3653  0.1262
  302POPC   C1B 3934   3.572   2.141   5.092 -0.2992 -0.0704  0.0506
  302POPC   C2B 3935   3.465   2.133   5.517  0.1527  0.1608  0.4508
  302POPC   C3B 3936   3.410   2.386   5.885 -0.2412  0.0327  0.1094
  302POPC   C4B 3937   3.302   2.642   6.227 -0.0956 -0.2383  0.1665
  303POPC   NC3 3938   5.488   2.191   3.860 -0.1798  0.0852 -0.2207
  303POPC   PO4 3939   5.318   1.678   3.861 -0.0161 -0.1444 -0.1822
  303POPC   GL1 3940   5.471   1.839   4.245 -0.0915 -0.2182 -0.0045
  303POPC   GL2 3941   5.482   1.760   4.579 -0.0372 -0.0098  0.3088
  303POPC   C1A 3942   5.919   1.928   4.445  0.0901 -0.3442 -0.0483
  303POPC   D2A 3943   5.923   1.914   4.846 -0.0602 -0.3455 -0.1722
  303POPC   C3A 3944   5.546   1.674   5.062 -0.1060 -0.2497  0.1155
  303POPC   C4A 3945   5.389   1.401   5.353  0.2338 -0.1999 -0.2928
  303POPC   C1B 3946   5.042   1.902   4.772  0.0006 -0.1038 -0.1688
  303POPC   C2B 3947   4.777   2.277   4.991 -0.0953  0.1287 -0.2148
  303POPC   C3B 3948   4.825   2.280   5.436  0.3219  0.2442  0.0693
  303POPC   C4B 3949   5.038   2.311   5.732 -0.2849 -0.3210 -0.2548
  304POPC   NC3 3950   4.167   3.837   3.716  0.0044  0.0893 -0.0076
  304POPC   PO4 3951   4.168   4.287   3.844 -0.0406 -0.2401  0.1106
  304POPC   GL1 3952   4.488   4.497   4.048  0.0892  0.0209  0.0922
  304POPC   GL2 3953   4.653   4.305   4.268  0.2584 -0.2857  0.1611
  304POPC   C1A 3954   4.804   4.735   4.088  0.0020  0.1868  0.1165
  304POPC   D2A 3955   4.837   5.053   4.395  0.0114  0.0244  0.1582
  304POPC   C3A 3956   4.594   5.127   4.835  0.0934 -0.0873 -0.1383
  304POPC   C4A 3957   4.278   4.949   4.940  0.2752  0.0104 -0.0560
  304POPC   C1B 3958   4.863   4.510   4.539 -0.0318  0.4265 -0.2795
  304POPC   C2B 3959   4.815   4.642   4.883  0.0307 -0.0587 -0.0650
  304POPC   C3B 3960   4.780   4.831   5.302  0.0918  0.1915  0.0532
  304POPC   C4B 3961   4.898   5.036   5.614  0.0646 -0.2502  0.1489
  305POPC   NC3 3962  10.333   6.466   4.067  0.0501  0.2923  0.1053
  305POPC   PO4 3963  10.282   6.109   3.734  0.1086  0.0749 -0.0852
  305POPC   GL1 3964  10.448   5.830   4.044 -0.1335  0.2582  0.2625
  305POPC   GL2 3965  10.800   5.637   4.158  0.3983  0.2087 -0.1002
  305POPC   C1A 3966  10.589   6.076   4.466  0.0800  0.0233  0.1356
  305POPC   D2A 3967  10.651   6.221   4.956  0.2998 -0.1515  0.0417
  305POPC   C3A 3968  10.685   6.390   5.390  0.3380  0.0595  0.1277
  305POPC   C4A 3969  10.534   6.224   5.763  0.0599 -0.1520 -0.0572
  305POPC   C1B 3970  11.003   5.765   4.547  0.3527  0.2776  0.0417
  305POPC   C2B 3971  11.030   5.797   4.975 -0.1031  0.0468 -0.1320
  305POPC   C3B 3972  11.235   5.917   5.313  0.1692 -0.0549 -0.0454
  305POPC   C4B 3973  11.330   5.776   5.693 -0.1060  0.3193 -0.3209
  306POPC   NC3 3974   4.572   3.606   3.863  0.1247  0.2057  0.1428
  306POPC   PO4 3975   4.287   3.283   3.852 -0.1382 -0.0278 -0.1352
  306POPC   GL1 3976   4.324   3.380   4.249 -0.0512 -0.0592 -0.1752
  306POPC   GL2 3977   4.050   3.510   4.428  0.1632  0.0965  0.3314
  306POPC   C1A 3978   4.362   3.178   4.625 -0.0462  0.1399 -0.0841
  306POPC   D2A 3979   4.642   3.293   5.002  0.0347 -0.1863 -0.2348
  306POPC   C3A 3980   4.935   3.630   5.003  0.2324  0.1715 -0.1674
  306POPC   C4A 3981   5.212   3.719   5.314  0.0120  0.3532  0.4502
  306POPC   C1B 3982   3.969   3.737   4.718 -0.1706 -0.1530  0.0350
  306POPC   C2B 3983   3.782   3.917   5.111 -0.0139 -0.0711  0.1754
  306POPC   C3B 3984   4.102   4.023   5.417 -0.2825  0.2505 -0.1152
  306POPC   C4B 3985   4.565   3.857   5.610  0.0860 -0.1767  0.1540
  307POPC   NC3 3986   0.106  10.592   3.700 -0.0302  0.1497  0.0554
  307POPC   PO4 3987   0.173  10.190   4.016  0.0013  0.3264  0.0751
  307POPC   GL1 3988   0.376  10.051   4.399  0.1049 -0.0446  0.0434
  307POPC   GL2 3989   0.486  10.255   4.458  0.0285  0.0225 -0.4330
  307POPC   C1A 3990   0.487   9.687   4.727  0.0836  0.2514  0.0165
  307POPC   D2A 3991   0.503   9.556   5.197 -0.0250  0.0375  0.1150
  307POPC   C3A 3992   0.239   9.470   5.419  0.4486 -0.1241 -0.3454
  307POPC   C4A 3993  -0.041   9.077   5.560 -0.4114  0.0746  0.2560
  307POPC   C1B 3994   0.876  10.034   4.603  0.5728 -0.3244  0.0366
  307POPC   C2B 3995   1.122  10.158   4.862 -0.1944  0.3616  0.1165
  307POPC   C3B 3996   1.283  10.013   5.193 -0.1795 -0.0753  0.2113
  307POPC   C4B 3997   1.411  10.106   5.579 -0.0921 -0.0578 -0.0452
  308POPC   NC3 3998   9.519   8.730   3.218  0.0158 -0.2416 -0.0747
  308POPC   PO4 3999   9.805   8.351   3.281  0.0789 -0.0259 -0.2878
  308POPC   GL1 4000   9.655   8.452   3.716 -0.1048  0.0737  0.1664
  308POPC   GL2 4001   9.644   8.769   3.789  0.2047  0.2561  0.0804
  308POPC   C1A 4002   9.220   8.432   3.892  0.0911 -0.0738  0.4547
  308POPC   D2A 4003   8.863   8.357   3.879  0.2858  0.0452  0.0357
  308POPC   C3A 4004   8.630   8.655   3.765 -0.2642  0.1101  0.3963
  308POPC   C4A 4005   8.724   9.047   3.831  0.0085 -0.0472 -0.0485
  308POPC   C1B 4006   9.521   8.695   4.199 -0.0430 -0.0953 -0.1030
  308POPC   C2B 4007   9.706   8.793   4.574 -0.1972  0.0637  0.1659
  308POPC   C3B 4008   9.734   8.778   4.987  0.0593 -0.1089 -0.2140
  308POPC   C4B 4009   9.752   8.885   5.431  0.0687  0.0625 -0.0492
  309POPC   NC3 4010   4.599   7.841   3.777  0.1719  0.3024 -0.2269
  309POPC   PO4 4011   4.813   8.103   3.525  0.5601  0.2482 -0.3808
  309POPC   GL1 4012   4.956   8.151   4.028 -0.1799  0.2648 -0.1505
  309POPC   GL2 4013   4.943   7.831   4.147 -0.0453 -0.1991  0.0786
  309POPC   C1A 4014   5.023   8.354   4.426 -0.0895  0.0445 -0.1493
  309POPC   D2A 4015   4.971   8.415   4.730  0.0543  0.2660 -0.3717
  309POPC   C3A 4016   4.984   8.178   5.138  0.0846  0.3205 -0.2108
  309POPC   C4A 4017   5.006   7.850   5.407  0.2617 -0.0848  0.4570
  309POPC   C1B 4018   4.956   7.906   4.602 -0.1415  0.2676 -0.0137
  309POPC   C2B 4019   4.892   7.669   4.939  0.2601  0.0685 -0.3530
  309POPC   C3B 4020   4.863   7.392   5.230  0.0515 -0.1201  0.1556
  309POPC   C4B 4021   4.667   7.326   5.663 -0.0559 -0.2198  0.1310
  310POPC   NC3 4022   0.772   2.222   3.674  0.1009  0.1174 -0.1976
  310POPC   PO4 4023   0.992   2.583   3.793  0.0569  0.3481  0.1467
  310POPC   GL1 4024   0.783   2.522   4.122 -0.0980  0.1864  0.2799
  310POPC   GL2 4025   1.123   2.292   4.168 -0.0076  0.1677 -0.2866
  310POPC   C1A 4026   0.902   2.576   4.493 -0.2067 -0.0313  0.0689
  310POPC   D2A 4027   1.190   2.929   4.658  0.0875  0.0160  0.1979
  310POPC   C3A 4028   1.261   3.346   4.888 -0.4153 -0.0828  0.0647
  310POPC   C4A 4029   1.568   3.467   5.327 -0.3165  0.0693  0.1232
  310POPC   C1B 4030   1.395   2.492   4.541 -0.1693  0.1185  0.0003
  310POPC   C2B 4031   1.111   2.530   4.900  0.0785 -0.3152  0.2316
  310POPC   C3B 4032   1.086   2.273   5.263  0.2359 -0.1633  0.0149
  310POPC   C4B 4033   1.147   2.285   5.751  0.0408  0.0785 -0.1835
  311POPC   NC3 4034   3.073   9.480   4.185  0.0662 -0.3411 -0.0884
  311POPC   PO4 4035   3.494   9.452   4.389  0.4300 -0.1391  0.1926
  311POPC   GL1 4036   3.569   9.231   4.836  0.2395  0.0287 -0.0821
  311POPC   GL2 4037   3.893   9.262   4.745 -0.2783 -0.1051 -0.1281
  311POPC   C1A 4038   3.359   9.515   5.147  0.0043 -0.1005 -0.1231
  311POPC   D2A 4039   3.093   9.586   5.385  0.1903 -0.1048  0.2116
  311POPC   C3A 4040   3.027  10.000   5.549 -0.0413 -0.1167 -0.0259
  311POPC   C4A 4041   3.154  10.446   5.713 -0.4499  0.3403 -0.2231
  311POPC   C1B 4042   4.159   9.500   4.899 -0.1627  0.0517 -0.1555
  311POPC   C2B 4043   4.252   9.244   5.234  0.4491 -0.2063 -0.0211
  311POPC   C3B 4044   4.220   9.378   5.712 -0.0061 -0.2987 -0.2702
  311POPC   C4B 4045   4.189   9.181   6.043  0.4629  0.0988 -0.0617
  312POPC   NC3 4046   0.469   7.051   3.643 -0.0440  0.1346 -0.0934
  312POPC   PO4 4047   0.845   6.959   3.777  0.0928  0.0041 -0.1999
  312POPC   GL1 4048   0.831   6.939   4.105 -0.0416 -0.2742 -0.2040
  312POPC   GL2 4049   0.817   7.135   4.305 -0.0334  0.1410 -0.1121
  312POPC   C1A 4050   1.045   6.657   4.453 -0.0617  0.3690  0.0959
  312POPC   D2A 4051   1.217   6.259   4.674 -0.4040  0.1479 -0.1113
  312POPC   C3A 4052   0.896   5.943   4.879 -0.2533 -0.2517 -0.0282
  312POPC   C4A 4053   0.766   5.505   4.918  0.1667  0.0304 -0.2048
  312POPC   C1B 4054   0.991   7.107   4.678 -0.0542 -0.0017  0.1511
  312POPC   C2B 4055   1.255   7.051   4.985  0.0897  0.0440  0.0337
  312POPC   C3B 4056   1.106   6.890   5.353 -0.0878 -0.1625 -0.1815
  312POPC   C4B 4057   1.132   6.863   5.761 -0.2123 -0.1063  0.3025
  313POPC   NC3 4058   3.360   3.443   3.952  0.2059 -0.0088 -0.0721
  313POPC   PO4 4059   3.319   3.939   3.733  0.0977 -0.0175  0.0856
  313POPC   GL1 4060   3.364   3.928   4.175 -0.0901 -0.1956 -0.1244
  313POPC   GL2 4061   3.541   3.695   4.382 -0.2318 -0.3173  0.3065
  313POPC   C1A 4062   3.630   4.219   4.366 -0.2070 -0.0694  0.1030
  313POPC   D2A 4063   3.883   4.259   4.711  0.3962  0.1350  0.0557
  313POPC   C3A 4064   4.252   4.078   4.958 -0.1826  0.0536 -0.0812
  313POPC   C4A 4065   4.663   4.121   4.963  0.0416 -0.0678  0.0784
  313POPC   C1B 4066   3.453   3.786   4.746 -0.2443  0.1059  0.0929
  313POPC   C2B 4067   3.133   3.886   4.947 -0.0653 -0.1073 -0.2195
  313POPC   C3B 4068   3.015   4.015   5.388 -0.1565 -0.1114  0.4441
  313POPC   C4B 4069   2.820   3.975   5.729  0.3288 -0.0422  0.0452
  314POPC   NC3 4070  10.151   2.098   4.073 -0.1954  0.2040  0.0715
  314POPC   PO4 4071  10.154   2.577   4.057 -0.0275  0.2736  0.2570
  314POPC   GL1 4072  10.028   2.960   4.363 -0.1236  0.1870 -0.1120
  314POPC   GL2 4073   9.718   2.996   4.513 -0.0991 -0.0164  0.0915
  314POPC   C1A 4074  10.136   3.187   4.824  0.3088  0.2573  0.0157
  314POPC   D2A 4075  10.436   3.208   5.221 -0.0192 -0.2817  0.1726
  314POPC   C3A 4076  10.248   3.210   5.676  0.3252  0.0724 -0.2576
  314POPC   C4A 4077  10.245   3.302   6.117  0.0757  0.1354  0.0237
  314POPC   C1B 4078   9.805   2.818   4.919 -0.2392  0.1244 -0.1044
  314POPC   C2B 4079   9.943   2.769   5.351 -0.0695 -0.1312 -0.1456
  314POPC   C3B 4080   9.934   2.541   5.752 -0.0974  0.0704 -0.1400
  314POPC   C4B 4081   9.716   2.559   6.174  0.2825  0.1425 -0.0635
  315POPC   NC3 4082   8.195   4.099   3.910  0.0377 -0.1433  0.0731
  315POPC   PO4 4083   8.198   4.494   4.259  0.1205 -0.2724 -0.0372
  315POPC   GL1 4084   7.899   4.405   4.578 -0.1558  0.1797 -0.2117
  315POPC   GL2 4085   7.989   4.009   4.416 -0.0395  0.0856 -0.3271
  315POPC   C1A 4086   8.057   4.484   4.984 -0.0182 -0.2586 -0.0212
  315POPC   D2A 4087   8.414   4.605   5.237 -0.1532  0.2880 -0.0413
  315POPC   C3A 4088   8.486   4.956   5.419  0.2681 -0.4149 -0.1246
  315POPC   C4A 4089   8.174   5.352   5.483  0.0511  0.2631 -0.2030
  315POPC   C1B 4090   7.976   3.972   4.827  0.1117  0.3595 -0.3236
  315POPC   C2B 4091   7.752   3.814   5.254 -0.0764 -0.2043 -0.0357
  315POPC   C3B 4092   7.715   3.793   5.699  0.2010  0.0845  0.2021
  315POPC   C4B 4093   7.325   3.483   5.771  0.2398 -0.2276 -0.2330
  316POPC   NC3 4094   4.712   2.910   3.871  0.1628 -0.1146  0.0050
  316POPC   PO4 4095   4.647   2.484   4.058  0.1367 -0.1795 -0.1919
  316POPC   GL1 4096   4.830   2.676   4.379  0.1201 -0.0961  0.0439
  316POPC   GL2 4097   4.692   2.981   4.387  0.1559  0.1293  0.1276
  316POPC   C1A 4098   5.044   2.627   4.777 -0.0134  0.0055  0.0035
  316POPC   D2A 4099   5.189   2.678   5.173 -0.0776 -0.0177 -0.1414
  316POPC   C3A 4100   5.439   2.395   5.374  0.0581  0.0021 -0.3060
  316POPC   C4A 4101   5.840   2.170   5.297  0.0915  0.1895 -0.3625
  316POPC   C1B 4102   5.062   3.146   4.698 -0.3955  0.1119 -0.2899
  316POPC   C2B 4103   5.185   3.184   5.096 -0.0315  0.0072 -0.0060
  316POPC   C3B 4104   5.382   3.172   5.447 -0.0362  0.1803 -0.2198
  316POPC   C4B 4105   5.529   2.958   5.806  0.0557 -0.2195 -0.1476
  317POPC   NC3 4106   9.889   3.151   3.918 -0.0766 -0.0302 -0.1498
  317POPC   PO4 4107   9.656   2.786   4.038  0.2476 -0.0526 -0.2916
  317POPC   GL1 4108   9.390   3.254   4.152  0.1063 -0.1441 -0.2139
  317POPC   GL2 4109   9.626   3.437   4.275 -0.4294  0.1925 -0.1062
  317POPC   C1A 4110   8.995   3.356   4.414 -0.0439  0.1292 -0.1158
  317POPC   D2A 4111   8.694   3.187   4.725  0.2114  0.0373 -0.3188
  317POPC   C3A 4112   8.902   2.854   5.072  0.4182  0.0848 -0.1135
  317POPC   C4A 4113   9.063   2.568   5.335 -0.4639 -0.0490  0.1248
  317POPC   C1B 4114   9.360   3.755   4.488 -0.1027  0.0455  0.2358
  317POPC   C2B 4115   9.460   3.848   4.968  0.1314 -0.1114 -0.1495
  317POPC   C3B 4116   9.774   3.926   5.356 -0.0080  0.0836  0.0945
  317POPC   C4B 4117  10.078   4.100   5.618 -0.0224  0.2910 -0.0520
  318POPC   NC3 4118   6.250   5.980   3.917  0.2371 -0.1619  0.1485
  318POPC   PO4 4119   6.392   6.344   4.222  0.5068  0.0775  0.0031
  318POPC   GL1 4120   6.111   6.450   4.459 -0.1086  0.0223  0.1496
  318POPC   GL2 4121   6.072   6.879   4.461 -0.0439  0.1224  0.0336
  318POPC   C1A 4122   5.902   6.294   4.871 -0.0670 -0.0155 -0.1735
  318POPC   D2A 4123   5.706   6.465   5.093  0.3565  0.2376 -0.0052
  318POPC   C3A 4124   5.718   6.875   5.459  0.0007  0.0330  0.1320
  318POPC   C4A 4125   5.795   7.290   5.524 -0.0951  0.1473  0.0875
  318POPC   C1B 4126   5.954   6.785   4.821 -0.2327 -0.4418 -0.1165
  318POPC   C2B 4127   6.160   6.996   5.159 -0.1223 -0.0878 -0.0518
  318POPC   C3B 4128   6.376   6.989   5.522 -0.0996  0.2283 -0.0379
  318POPC   C4B 4129   6.398   7.050   5.975 -0.0682 -0.3356 -0.2069
  319POPC   NC3 4130   4.981   1.310   3.879 -0.1412  0.0382 -0.2274
  319POPC   PO4 4131   4.615   1.296   4.064  0.2791  0.0368  0.0128
  319POPC   GL1 4132   4.616   1.239   4.475 -0.0761  0.0029  0.1804
  319POPC   GL2 4133   4.690   1.034   4.500  0.0309 -0.0332  0.1073
  319POPC   C1A 4134   4.437   1.256   4.965  0.0709 -0.0939 -0.0727
  319POPC   D2A 4135   4.417   1.425   5.319  0.0866 -0.0093  0.1423
  319POPC   C3A 4136   4.056   1.397   5.482 -0.1925 -0.1553 -0.3457
  319POPC   C4A 4137   3.636   1.205   5.533 -0.0574 -0.3284  0.1312
  319POPC   C1B 4138   4.823   0.884   4.883  0.0087 -0.1762  0.0123
  319POPC   C2B 4139   5.193   0.862   5.234  0.0499  0.0507 -0.2625
  319POPC   C3B 4140   5.127   0.865   5.660  0.0422 -0.2168 -0.2541
  319POPC   C4B 4141   5.253   0.853   6.016 -0.2270  0.3267  0.0671
  320POPC   NC3 4142   7.744   7.555   3.729 -0.0810 -0.2010  0.0774
  320POPC   PO4 4143   8.203   7.363   3.794 -0.2033  0.1558 -0.1662
  320POPC   GL1 4144   8.435   7.512   4.214  0.0168 -0.3523 -0.0647
  320POPC   GL2 4145   8.813   7.546   4.160  0.2318  0.0302  0.0223
  320POPC   C1A 4146   8.505   7.771   4.628 -0.1400  0.1036  0.1836
  320POPC   D2A 4147   8.550   7.660   5.008 -0.1523 -0.0996 -0.0672
  320POPC   C3A 4148   8.798   7.818   5.319 -0.0029 -0.0052  0.0027
  320POPC   C4A 4149   8.963   7.640   5.718  0.3685 -0.0507  0.0553
  320POPC   C1B 4150   9.162   7.521   4.446  0.2382 -0.0072  0.1985
  320POPC   C2B 4151   9.284   7.323   4.840 -0.0853 -0.3810 -0.3463
  320POPC   C3B 4152   9.111   7.287   5.209 -0.0024  0.3338 -0.2562
  320POPC   C4B 4153   8.885   7.157   5.629  0.0006  0.0785  0.1882
  321POPC   NC3 4154   1.208   0.793   3.624 -0.1147 -0.3336  0.1089
  321POPC   PO4 4155   1.570   0.615   3.884 -0.2140  0.1811 -0.0030
  321POPC   GL1 4156   1.676   0.852   4.353  0.2193  0.3554  0.0702
  321POPC   GL2 4157   1.764   0.614   4.546  0.0584 -0.0011  0.0710
  321POPC   C1A 4158   1.862   1.208   4.613  0.2832 -0.0588 -0.3686
  321POPC   D2A 4159   2.113   1.243   5.012  0.3450  0.0442 -0.0977
  321POPC   C3A 4160   1.777   1.290   5.218 -0.0760  0.0810 -0.0186
  321POPC   C4A 4161   1.428   1.162   5.422 -0.0438 -0.4021 -0.1512
  321POPC   C1B 4162   1.621   0.378   4.934 -0.2823  0.1622 -0.0122
  321POPC   C2B 4163   1.864   0.310   5.262  0.0571 -0.1899  0.2124
  321POPC   C3B 4164   1.811   0.026   5.471  0.1661  0.2276 -0.0411
  321POPC   C4B 4165   2.096  -0.239   5.645 -0.3375  0.2625  0.0404
  322POPC   NC3 4166   3.103   2.571   3.885  0.0788 -0.0700  0.2938
  322POPC   PO4 4167   3.348   2.944   4.064  0.1456 -0.2348  0.1503
  322POPC   GL1 4168   3.455   3.069   4.472 -0.0192 -0.0346  0.2649
  322POPC   GL2 4169   3.774   2.888   4.416  0.2173 -0.1836 -0.2573
  322POPC   C1A 4170   3.659   3.275   4.758 -0.5306 -0.1480 -0.0647
  322POPC   D2A 4171   3.876   3.357   5.026 -0.2210  0.2215  0.2118
  322POPC   C3A 4172   3.842   3.502   5.380 -0.1816  0.0553  0.0627
  322POPC   C4A 4173   4.070   3.657   5.800  0.0844 -0.0555  0.2012
  322POPC   C1B 4174   4.041   2.814   4.691  0.1080  0.1243  0.0562
  322POPC   C2B 4175   4.235   2.990   5.115  0.2064 -0.1761  0.2218
  322POPC   C3B 4176   4.053   3.103   5.508 -0.0105 -0.3148 -0.0327
  322POPC   C4B 4177   3.673   3.166   5.720 -0.1204  0.2273  0.1943
  323POPC   NC3 4178   5.501   4.108   3.912 -0.0993 -0.0905  0.3447
  323POPC   PO4 4179   5.369   3.582   3.929  0.0738 -0.1746 -0.0331
  323POPC   GL1 4180   5.394   3.759   4.262 -0.5124  0.1280 -0.1960
  323POPC   GL2 4181   5.273   3.556   4.461 -0.0587 -0.5140  0.0676
  323POPC   C1A 4182   5.466   4.023   4.604 -0.1315 -0.2431 -0.4304
  323POPC   D2A 4183   5.721   4.348   4.855 -0.0384  0.0747  0.2691
  323POPC   C3A 4184   5.750   4.605   5.292 -0.2729  0.2247  0.1005
  323POPC   C4A 4185   5.881   5.069   5.306 -0.1542 -0.3328 -0.1013
  323POPC   C1B 4186   5.490   3.534   4.826 -0.0028  0.1562 -0.1469
  323POPC   C2B 4187   5.819   3.353   5.070  0.0598  0.0875  0.2154
  323POPC   C3B 4188   5.955   3.223   5.493 -0.1296  0.1107  0.2853
  323POPC   C4B 4189   6.471   3.237   5.568 -0.0673  0.0910 -0.1202
  324POPC   NC3 4190   8.199   1.270   3.360  0.0835 -0.1379  0.0594
  324POPC   PO4 4191   8.090   1.413   3.806 -0.0495 -0.0575 -0.0524
  324POPC   GL1 4192   7.988   1.059   3.999 -0.1658 -0.0430 -0.3060
  324POPC   GL2 4193   8.088   1.118   4.261 -0.1411  0.2472  0.0532
  324POPC   C1A 4194   7.926   0.632   4.008  0.0602 -0.0663  0.2755
  324POPC   D2A 4195   7.627   0.493   4.173  0.1768  0.1160  0.0618
  324POPC   C3A 4196   7.663   0.211   4.585 -0.0272 -0.2708 -0.1210
  324POPC   C4A 4197   7.884   0.230   4.911  0.0737  0.1263  0.0863
  324POPC   C1B 4198   8.437   1.063   4.517  0.0360  0.0031  0.0408
  324POPC   C2B 4199   8.521   1.159   5.046  0.3039 -0.0102 -0.2890
  324POPC   C3B 4200   8.558   1.326   5.428 -0.1516  0.0386  0.1044
  324POPC   C4B 4201   8.752   1.301   5.853 -0.0866 -0.0909 -0.1887
  325POPC   NC3 4202   5.023   6.755   3.732 -0.1113  0.2952 -0.1516
  325POPC   PO4 4203   4.701   6.577   3.951  0.3243 -0.1076  0.0050
  325POPC   GL1 4204   4.576   6.481   4.331  0.1902 -0.2553  0.0849
  325POPC   GL2 4205   4.807   6.363   4.445  0.0616  0.0641 -0.2073
  325POPC   C1A 4206   4.522   6.786   4.761 -0.0413 -0.0207  0.4094
  325POPC   D2A 4207   4.115   6.880   5.054 -0.1669  0.0829 -0.1391
  325POPC   C3A 4208   3.749   7.067   4.831  0.1419  0.3735  0.0321
  325POPC   C4A 4209   3.601   7.338   4.588 -0.1331 -0.1647 -0.0329
  325POPC   C1B 4210   4.753   6.400   4.842  0.0655 -0.1008 -0.3250
  325POPC   C2B 4211   4.785   6.474   5.300 -0.2513 -0.3857  0.1993
  325POPC   C3B 4212   4.731   6.711   5.758  0.1874 -0.0955 -0.2500
  325POPC   C4B 4213   4.935   7.104   5.993  0.0118  0.1049 -0.1067
  326POPC   NC3 4214   8.243   7.307   3.328 -0.2840 -0.0038  0.1106
  326POPC   PO4 4215   8.506   7.615   3.401 -0.0224 -0.0691  0.1374
  326POPC   GL1 4216   8.428   7.793   3.796  0.0379  0.0542 -0.0529
  326POPC   GL2 4217   8.125   7.985   3.694  0.0238  0.2566  0.1409
  326POPC   C1A 4218   8.651   7.992   4.065 -0.0868 -0.0334 -0.4398
  326POPC   D2A 4219   8.773   8.309   4.369  0.2103  0.1813 -0.1160
  326POPC   C3A 4220   9.051   8.090   4.638  0.0910  0.0755 -0.0782
  326POPC   C4A 4221   9.028   7.768   4.860  0.1584  0.2704 -0.1135
  326POPC   C1B 4222   8.168   8.323   3.961 -0.3245  0.1486 -0.1917
  326POPC   C2B 4223   8.010   8.761   4.238  0.0470 -0.1336 -0.3459
  326POPC   C3B 4224   7.694   8.882   4.383  0.0631 -0.2942 -0.0068
  326POPC   C4B 4225   7.293   9.159   4.145 -0.0529 -0.1138  0.0316
  327POPC   NC3 4226   0.593   4.456   3.571 -0.0343  0.1391  0.0574
  327POPC   PO4 4227   0.149   4.662   3.590  0.0176  0.0587 -0.3346
  327POPC   GL1 4228   0.302   4.747   3.991 -0.1125  0.0290  0.0837
  327POPC   GL2 4229   0.264   5.009   4.102 -0.3726 -0.0359  0.1135
  327POPC   C1A 4230   0.452   4.727   4.481  0.1264 -0.0793  0.2501
  327POPC   D2A 4231   0.589   4.948   4.867 -0.3743  0.0977  0.2059
  327POPC   C3A 4232   0.830   5.063   5.199  0.0067 -0.0400  0.2635
  327POPC   C4A 4233   0.847   5.411   5.452 -0.0466 -0.3538  0.0892
  327POPC   C1B 4234   0.141   5.190   4.474  0.2889  0.1010 -0.0010
  327POPC   C2B 4235   0.194   5.301   4.847  0.0825  0.0268  0.0753
  327POPC   C3B 4236  -0.078   5.355   5.119 -0.1020  0.1904 -0.0071
  327POPC   C4B 4237  -0.098   5.386   5.476 -0.2245  0.2737 -0.0520
  328POPC   NC3 4238   5.555   0.109   3.325 -0.2376 -0.1468  0.1143
  328POPC   PO4 4239   5.515   0.263   3.774  0.1512 -0.1401  0.4272
  328POPC   GL1 4240   5.835   0.443   4.170  0.0930 -0.0593 -0.0320
  328POPC   GL2 4241   5.797   0.820   4.090 -0.3205 -0.1194  0.3471
  328POPC   C1A 4242   5.794   0.356   4.499 -0.3157 -0.3938 -0.1945
  328POPC   D2A 4243   5.939   0.178   4.921  0.1599  0.2199  0.3078
  328POPC   C3A 4244   5.989   0.172   5.418 -0.0261 -0.1423 -0.2689
  328POPC   C4A 4245   6.292  -0.189   5.737 -0.0220 -0.0953 -0.0119
  328POPC   C1B 4246   5.808   0.848   4.500  0.2017 -0.1871  0.3173
  328POPC   C2B 4247   5.810   0.767   4.955 -0.1056  0.1584  0.0824
  328POPC   C3B 4248   6.141   0.743   5.198 -0.2099 -0.2060 -0.3546
  328POPC   C4B 4249   6.513   0.794   5.466 -0.0323  0.0829 -0.3001
  329POPC   NC3 4250   0.143   9.185   3.449  0.0146  0.2638  0.0176
  329POPC   PO4 4251   0.013   9.146   3.831 -0.2225 -0.2148 -0.1462
  329POPC   GL1 4252  -0.252   9.187   4.251  0.0006 -0.0352  0.1150
  329POPC   GL2 4253  -0.119   8.917   4.446  0.0394 -0.0662 -0.1270
  329POPC   C1A 4254  -0.298   9.468   4.643 -0.1154  0.0710  0.3466
  329POPC   D2A 4255  -0.035   9.796   4.809 -0.1277  0.2753  0.1492
  329POPC   C3A 4256   0.150   9.887   5.180 -0.1136  0.1282  0.0194
  329POPC   C4A 4257   0.297  10.074   5.487  0.2677  0.0260  0.1432
  329POPC   C1B 4258  -0.150   8.883   4.908  0.0091  0.0697 -0.0788
  329POPC   C2B 4259  -0.060   8.521   5.272 -0.0343  0.1398  0.0262
  329POPC   C3B 4260  -0.100   8.560   5.698 -0.0036  0.0238 -0.1595
  329POPC   C4B 4261  -0.345   8.390   5.981 -0.2419  0.1436  0.1666
  330POPC   NC3 4262   3.266   1.280   4.572  0.3718  0.1637 -0.0529
  330POPC   PO4 4263   3.700   1.379   4.367 -0.1351  0.3981 -0.0894
  330POPC   GL1 4264   3.900   1.331   4.707 -0.0082 -0.1106  0.1882
  330POPC   GL2 4265   4.174   1.492   4.600  0.0290 -0.2194 -0.3170
  330POPC   C1A 4266   3.942   1.143   5.066 -0.4937 -0.0392 -0.1894
  330POPC   D2A 4267   4.246   0.924   5.407 -0.2784  0.2939 -0.0429
  330POPC   C3A 4268   4.015   0.994   5.842  0.0729 -0.3434  0.1730
  330POPC   C4A 4269   3.596   1.098   5.976  0.1333 -0.0627 -0.1946
  330POPC   C1B 4270   4.143   1.733   5.030  0.0372  0.3558 -0.0434
  330POPC   C2B 4271   3.993   2.085   5.352  0.0862  0.2989  0.1608
  330POPC   C3B 4272   3.863   2.496   5.486  0.1219  0.0622  0.0810
  330POPC   C4B 4273   3.490   2.685   5.484 -0.0019  0.2245  0.0645
  331POPC   NC3 4274   0.615   0.590   3.761 -0.1833 -0.2787 -0.1568
  331POPC   PO4 4275   0.854   0.375   4.076 -0.0170  0.1924 -0.0770
  331POPC   GL1 4276   0.679   0.170   4.457 -0.2289 -0.2341 -0.0309
  331POPC   GL2 4277   0.887  -0.030   4.460 -0.1693 -0.0426  0.1325
  331POPC   C1A 4278   0.448   0.093   4.758  0.5130 -0.2140 -0.0549
  331POPC   D2A 4279   0.279   0.204   5.187 -0.2781  0.1272  0.1706
  331POPC   C3A 4280   0.335   0.476   5.383 -0.1676  0.1219  0.0133
  331POPC   C4A 4281   0.161   0.783   5.756 -0.2189 -0.0944 -0.2293
  331POPC   C1B 4282   0.857  -0.122   4.927  0.0291 -0.3411 -0.1348
  331POPC   C2B 4283   0.995  -0.192   5.253 -0.2350 -0.2373  0.1881
  331POPC   C3B 4284   0.974  -0.215   5.645 -0.2386 -0.0873  0.3391
  331POPC   C4B 4285   1.058  -0.539   5.902  0.1128 -0.2156  0.1168
  332POPC   NC3 4286   9.055   5.263   3.559  0.3508 -0.1810 -0.1698
  332POPC   PO4 4287   9.458   5.353   3.668 -0.0263 -0.0586 -0.1193
  332POPC   GL1 4288   9.714   5.225   4.031  0.0297  0.2980 -0.4683
  332POPC   GL2 4289   9.653   4.985   4.233 -0.4060  0.1054  0.0744
  332POPC   C1A 4290   9.835   5.346   4.492 -0.3344  0.0269 -0.1375
  332POPC   D2A 4291  10.167   5.388   4.908  0.1601  0.1572  0.3332
  332POPC   C3A 4292  10.164   5.594   5.302 -0.1079  0.0617 -0.1954
  332POPC   C4A 4293  10.331   5.787   5.728  0.3239 -0.0856 -0.1447
  332POPC   C1B 4294   9.603   4.945   4.730  0.0545 -0.0327  0.1673
  332POPC   C2B 4295   9.754   5.094   5.184 -0.1031  0.0257 -0.0124
  332POPC   C3B 4296   9.932   5.275   5.574  0.2203  0.2248 -0.2661
  332POPC   C4B 4297  10.272   5.368   5.970  0.0109  0.1038 -0.2083
  333POPC   NC3 4298   5.449   7.912   3.191  0.1636 -0.4989 -0.1492
  333POPC   PO4 4299   5.297   8.156   3.603  0.1016 -0.3531 -0.0391
  333POPC   GL1 4300   5.404   7.874   3.955 -0.4156 -0.1008  0.1874
  333POPC   GL2 4301   5.449   7.596   3.887  0.3562  0.1626 -0.1545
  333POPC   C1A 4302   5.473   8.013   4.369 -0.0123 -0.0566 -0.4444
  333POPC   D2A 4303   5.427   8.126   4.893 -0.4025  0.0617 -0.0895
  333POPC   C3A 4304   5.578   8.084   5.287  0.1695 -0.3480 -0.1727
  333POPC   C4A 4305   5.901   8.076   5.721  0.2809 -0.3313 -0.4103
  333POPC   C1B 4306   5.249   7.503   4.298 -0.2094 -0.1697  0.1122
  333POPC   C2B 4307   5.311   7.543   4.690 -0.1103  0.0259  0.1457
  333POPC   C3B 4308   5.608   7.609   5.128  0.1193  0.1484 -0.0697
  333POPC   C4B 4309   5.542   7.717   5.601  0.0537 -0.1460 -0.1269
  334POPC   NC3 4310   2.808   0.254   4.384 -0.0585  0.0240  0.2838
  334POPC   PO4 4311   3.130   0.704   4.479  0.4664 -0.1774  0.0416
  334POPC   GL1 4312   3.134   0.378   4.763  0.0045 -0.0568  0.2386
  334POPC   GL2 4313   3.295   0.406   5.013  0.0168 -0.1060 -0.1404
  334POPC   C1A 4314   2.819   0.205   5.000 -0.0878  0.1868  0.3163
  334POPC   D2A 4315   2.466   0.508   5.182 -0.1611  0.0051  0.0970
  334POPC   C3A 4316   2.641   0.697   5.464 -0.0532 -0.2933 -0.0733
  334POPC   C4A 4317   2.573   1.155   5.491  0.2677 -0.0312 -0.0812
  334POPC   C1B 4318   3.625   0.283   5.215 -0.0859  0.2500  0.3137
  334POPC   C2B 4319   4.000   0.433   5.547  0.1391  0.1597 -0.0329
  334POPC   C3B 4320   3.845   0.211   5.889 -0.1646 -0.0841 -0.0816
  334POPC   C4B 4321   3.614   0.228   6.164  0.0184 -0.0055  0.1603
  335POPC   NC3 4322   6.591   5.339   3.381  0.3482  0.0361  0.2727
  335POPC   PO4 4323   6.620   4.937   3.615 -0.2185 -0.3988  0.3458
  335POPC   GL1 4324   6.777   5.042   4.016  0.0792  0.1152 -0.0502
  335POPC   GL2 4325   6.789   4.704   4.156  0.2987  0.1118  0.0440
  335POPC   C1A 4326   6.651   5.168   4.443  0.0866 -0.0955  0.2235
  335POPC   D2A 4327   6.319   5.466   4.647  0.0323  0.1855 -0.3363
  335POPC   C3A 4328   6.291   5.460   5.041  0.3000 -0.0853 -0.0026
  335POPC   C4A 4329   6.304   5.264   5.379  0.0336  0.2304  0.0299
  335POPC   C1B 4330   6.304   4.794   4.285  0.3940  0.0010  0.1862
  335POPC   C2B 4331   5.812   4.719   4.506 -0.0087 -0.1212  0.2233
  335POPC   C3B 4332   5.760   4.869   4.849 -0.0480  0.0842  0.1831
  335POPC   C4B 4333   5.707   5.358   4.878 -0.4069 -0.0457 -0.0412
  336POPC   NC3 4334   5.942   1.579   3.274 -0.0378  0.1103  0.1229
  336POPC   PO4 4335   6.226   1.371   3.662  0.0233  0.2844 -0.1294
  336POPC   GL1 4336   6.323   1.542   4.059  0.0228  0.0202 -0.4053
  336POPC   GL2 4337   6.350   1.899   4.230 -0.2677 -0.0916  0.3502
  336POPC   C1A 4338   6.594   1.418   4.356  0.1505  0.1235  0.2152
  336POPC   D2A 4339   6.624   1.490   4.727  0.1711  0.0628 -0.1286
  336POPC   C3A 4340   6.467   1.956   4.765  0.2710 -0.1089  0.5332
  336POPC   C4A 4341   6.510   2.303   4.460  0.1313  0.2387  0.0085
  336POPC   C1B 4342   6.821   1.894   4.391 -0.3160  0.3092  0.0147
  336POPC   C2B 4343   6.916   1.846   4.840 -0.0031 -0.0159  0.1613
  336POPC   C3B 4344   6.786   1.813   5.163  0.1358  0.0288 -0.1871
  336POPC   C4B 4345   6.974   1.823   5.588 -0.2121 -0.0929  0.1155
  337POPC   NC3 4346   7.689   3.679   3.367  0.1931 -0.1770  0.0452
  337POPC   PO4 4347   8.018   3.701   3.618  0.1865  0.4184  0.4402
  337POPC   GL1 4348   8.235   3.551   4.081 -0.0285 -0.4914  0.0247
  337POPC   GL2 4349   8.577   3.484   4.120  0.2185 -0.2010 -0.1295
  337POPC   C1A 4350   7.931   3.398   4.451  0.0312 -0.1109  0.0765
  337POPC   D2A 4351   7.677   3.052   4.475 -0.0813 -0.1943 -0.1942
  337POPC   C3A 4352   7.802   2.869   4.845 -0.0180 -0.0239 -0.2055
  337POPC   C4A 4353   7.823   2.673   5.239 -0.0629  0.0778  0.0125
  337POPC   C1B 4354   8.399   3.649   4.524 -0.2461 -0.3352  0.1364
  337POPC   C2B 4355   8.424   3.608   4.900  0.0192 -0.2002 -0.2517
  337POPC   C3B 4356   8.655   3.675   5.256 -0.1270  0.2201 -0.1487
  337POPC   C4B 4357   8.846   3.589   5.761 -0.1455 -0.3527  0.1109
  338POPC   NC3 4358   6.150   3.654   3.441  0.0741 -0.0418 -0.3761
  338POPC   PO4 4359   6.043   3.224   3.559 -0.3843 -0.0859  0.0901
  338POPC   GL1 4360   5.963   3.079   3.946 -0.0415  0.0985  0.2047
  338POPC   GL2 4361   5.806   3.360   4.106  0.1100  0.1227  0.0838
  338POPC   C1A 4362   6.277   3.125   4.304 -0.2492 -0.1052  0.0406
  338POPC   D2A 4363   6.222   3.468   4.651  0.2206 -0.1690  0.1671
  338POPC   C3A 4364   6.278   3.580   5.000  0.0482  0.0139 -0.1288
  338POPC   C4A 4365   6.687   3.714   5.223  0.0005  0.2229 -0.1023
  338POPC   C1B 4366   5.826   3.636   4.465 -0.1510  0.0874  0.4505
  338POPC   C2B 4367   5.914   3.877   4.827  0.1896 -0.0483  0.0972
  338POPC   C3B 4368   5.850   3.909   5.260  0.3471  0.0859 -0.1932
  338POPC   C4B 4369   5.703   3.893   5.720 -0.1863 -0.3529  0.2574
  339POPC   NC3 4370   8.374   6.455   3.420  0.2356 -0.0986 -0.0042
  339POPC   PO4 4371   8.733   6.087   3.359 -0.0571  0.0792  0.3266
  339POPC   GL1 4372   8.526   6.007   3.907  0.2213 -0.0989  0.0261
  339POPC   GL2 4373   8.222   5.736   4.139  0.0381  0.0483  0.1631
  339POPC   C1A 4374   8.538   6.140   4.356 -0.1965  0.0430 -0.1966
  339POPC   D2A 4375   8.504   6.050   4.734  0.1816 -0.0567 -0.3049
  339POPC   C3A 4376   8.151   5.909   5.088  0.1131  0.1313  0.2238
  339POPC   C4A 4377   7.894   6.167   5.350  0.1051  0.0638 -0.0284
  339POPC   C1B 4378   8.167   5.662   4.585  0.2477  0.1427  0.1723
  339POPC   C2B 4379   8.256   5.255   4.795 -0.0759  0.2462  0.1730
  339POPC   C3B 4380   7.914   5.020   5.000 -0.0219  0.0076 -0.0840
  339POPC   C4B 4381   7.898   4.814   5.371 -0.2327 -0.3010  0.1838
  340POPC   NC3 4382   9.701   7.545   3.684  0.2383  0.0370 -0.2542
  340POPC   PO4 4383   9.765   7.342   4.016  0.2933  0.0582 -0.0295
  340POPC   GL1 4384   9.581   7.612   4.259 -0.0280  0.1850  0.1049
  340POPC   GL2 4385   9.703   7.332   4.546 -0.1283 -0.1434  0.4768
  340POPC   C1A 4386   9.520   7.744   4.733 -0.0507  0.2983  0.0423
  340POPC   D2A 4387   9.447   7.901   5.183  0.1952 -0.4270  0.1495
  340POPC   C3A 4388   9.749   7.963   5.466 -0.1426 -0.0426  0.0873
  340POPC   C4A 4389   9.887   7.726   5.846 -0.2173  0.3306  0.4011
  340POPC   C1B 4390  10.201   7.163   4.619 -0.3650  0.0458  0.1204
  340POPC   C2B 4391  10.408   7.123   4.971  0.0541  0.0095  0.3676
  340POPC   C3B 4392  10.685   7.344   5.206 -0.0323 -0.3070 -0.1531
  340POPC   C4B 4393  10.685   7.643   5.500  0.1539 -0.1841 -0.1580
  341POPC   NC3 4394   1.774   7.247   3.953  0.0486  0.4183  0.1683
  341POPC   PO4 4395   2.043   6.868   4.004 -0.0556  0.0659 -0.0349
  341POPC   GL1 4396   1.956   6.663   4.465  0.0051 -0.1901 -0.2160
  341POPC   GL2 4397   2.319   6.689   4.435 -0.2551  0.0253 -0.1908
  341POPC   C1A 4398   1.898   6.592   4.984 -0.1817  0.2195 -0.0241
  341POPC   D2A 4399   2.011   6.577   5.440  0.1460  0.3186 -0.3374
  341POPC   C3A 4400   2.209   6.780   5.691 -0.3923  0.2565 -0.1840
  341POPC   C4A 4401   2.369   6.551   6.104  0.3026  0.1704 -0.0866
  341POPC   C1B 4402   2.527   6.553   4.873 -0.3757  0.3549 -0.0122
  341POPC   C2B 4403   2.501   6.659   5.292  0.0558  0.1511  0.0619
  341POPC   C3B 4404   2.559   6.324   5.701 -0.0744 -0.2338  0.0018
  341POPC   C4B 4405   2.859   6.172   5.994 -0.0102 -0.3364 -0.2042
  342W        W 4406   6.328   2.740   2.927  0.1860  0.0034 -0.3348
  343W        W 4407   7.001   1.514  10.031  0.0052 -0.0986 -0.1436
  344W        W 4408   4.721   5.927   3.331  0.1135  0.1213  0.1685
  345W        W 4409   7.109   5.675  11.421  0.1728 -0.3680  0.1540
  346W        W 4410   3.798   4.142   1.126  0.1170 -0.3472  0.1479
  347W        W 4411  10.560   1.692   1.068  0.0110  0.0233  0.3977
  348W        W 4412   0.128   1.008  11.353 -0.1915  0.0477  0.1401
  349W        W 4413   5.580   6.908   8.211  0.0561  0.1192 -0.0786
  350W        W 4414   7.153   6.290  10.214  0.1525  0.2453  0.0797
  351W        W 4415   4.927   0.859   4.062  0.1918  0.0265  0.0179
  352W        W 4416   8.946  10.238  10.910  0.1889 -0.0642 -0.2209
  353W        W 4417   9.138   3.783   9.700  0.1235  0.1099 -0.3668
  354W        W 4418   1.422   9.076   9.293  0.0791 -0.4627  0.1608
  355W        W 4419   1.233   6.810   8.143 -0.2906 -0.2539  0.0410
  356W        W 4420   8.849   4.634   8.466  0.0257 -0.1281 -0.1294
  357W        W 4421   4.016   8.811  11.198 -0.1379  0.1168  0.0599
  358W        W 4422   2.580   4.794   9.494 -0.2715 -0.0556  0.0218
  359W        W 4423   2.547   4.727   2.327  0.0385  0.0205  0.0139
  360W        W 4424   3.844   7.640  11.427  0.0401 -0.4295  0.2458
  361W        W 4425   8.015   0.233   1.801  0.1345  0.3000  0.0779
  362W        W 4426   4.781   6.392   8.612 -0.0147  0.0843 -0.1994
  363W        W 4427   5.985   4.181   1.928 -0.0738 -0.0703 -0.2619
  364W        W 4428   4.951   5.880   0.517  0.0168 -0.0657 -0.0223
  365W        W 4429   9.411   0.241  10.437 -0.1518 -0.4728  0.1726
  366W        W 4430   1.797   9.172   1.455  0.1458  0.3203 -0.0257
  367W        W 4431   3.102   1.717   1.996  0.1054  0.2854  0.2778
  368W        W 4432   0.036   3.168   9.902 -0.1344  0.0389 -0.3596
  369W        W 4433   3.800   9.463   8.434 -0.1351 -0.0622 -0.0129
  370W        W 4434   6.483   0.384   2.615  0.1279  0.0841  0.1039
  371W        W 4435   3.996   5.186   3.376 -0.1324  0.2971  0.1561
  372W        W 4436   1.865   5.740   2.431  0.0127 -0.1691 -0.0555
  373W        W 4437   7.448   5.450   8.093  0.1705 -0.4277  0.0344
  374W        W 4438   8.785   4.576   1.854 -0.0277  0.3948 -0.2682
  375W        W 4439   7.892   3.406   8.465 -0.2069  0.0890  0.3326
  376W        W 4440   9.701   1.521   3.753  0.1243 -0.3630 -0.0595
  377W        W 4441   0.346   0.950   0.250 -0.3050  0.0626 -0.0278
  378W        W 4442   2.460   9.018  11.287  0.0382 -0.0406 -0.0368
  379W        W 4443   8.138  10.621   0.896  0.4454  0.0611 -0.2877
  380W        W 4444   1.956   5.465   9.727 -0.2174  0.2172  0.1430
  381W        W 4445   7.518  10.096   1.275 -0.1517  0.1200  0.0895
  382W        W 4446   7.900   4.147   1.607 -0.1506  0.0818 -0.1885
  383W        W 4447   5.688   5.466   8.359 -0.0173  0.0319  0.0265
  384W        W 4448   9.343  10.114   3.163  0.4136 -0.0610  0.0580
  385W        W 4449   1.113   6.795   9.374 -0.0120 -0.2020  0.0347
  386W        W 4450   9.371   6.271   7.295 -0.0121  0.0321 -0.2672
  387W        W 4451   0.746  10.436   2.808  0.2077 -0.3030  0.0595
  388W        W 4452   5.362   6.919   0.415  0.2079 -0.0265 -0.0424
  389W        W 4453   1.987   3.003   9.178 -0.0611 -0.1659  0.5050
  390W        W 4454  10.042   2.846   1.805 -0.0070  0.2297  0.2450
  391W        W 4455   7.198   3.836   0.949 -0.2008 -0.0997  0.3327
  392W        W 4456   0.504   0.316   1.470 -0.0404 -0.0006 -0.1257
  393W        W 4457   4.352   6.803  10.133 -0.0113 -0.1589  0.3114
  394W        W 4458   0.183   5.938   8.102  0.0426  0.0325 -0.0562
  395W        W 4459   7.082   6.194   9.366  0.0171 -0.0950  0.0912
  396W        W 4460   3.049   7.895   2.318  0.3222  0.0380 -0.0327
  397W        W 4461   3.802   5.888   1.902 -0.1194  0.0365  0.3849
  398W        W 4462   2.639   6.858   0.726  0.4020 -0.1858  0.1808
  399W        W 4463   2.595  10.372  10.181 -0.1022  0.0904  0.0060
  400W        W 4464   1.150   6.497  11.198  0.1468 -0.0032 -0.0324
  401W        W 4465   6.296   3.162   2.031 -0.0536  0.1736  0.1684
  402W        W 4466   8.404   8.453   1.323  0.1332  0.3666 -0.4290
  403W        W 4467   3.852   5.331   9.944  0.0235 -0.2557  0.1368
  404W        W 4468   2.037   1.472   1.402  0.4325  0.2067 -0.2229
  405W        W 4469   5.370  10.266   3.371  0.0610  0.0080  0.0141
  406W        W 4470  10.299   6.963   9.068  0.4529  0.1168 -0.0387
  407W        W 4471   1.737  10.419   1.130 -0.1235 -0.1069  0.0032
  408W        W 4472   4.843   5.215   2.336  0.2530  0.0503  0.0173
  409W        W 4473   3.029   5.373   8.109  0.0611 -0.2735  0.2211
  410W        W 4474   5.438   1.392   1.520 -0.1124  0.1577 -0.0072
  411W        W 4475   9.714   3.617   9.947 -0.0044  0.1369 -0.0029
  412W        W 4476   0.220   2.434   9.214 -0.2160  0.2223  0.1265
  413W        W 4477   8.734   5.665   1.451  0.2491 -0.0106  0.0409
  414W        W 4478   5.981   8.796  10.245 -0.0255 -0.1302  0.0303
  415W        W 4479   2.645   3.158   1.409  0.1878 -0.1488  0.0380
  416W        W 4480   8.745   1.986   9.147  0.0342  0.2157  0.0588
  417W        W 4481   1.595   2.040   3.198  0.2520  0.0805  0.2207
  418W        W 4482   0.327   0.929   2.889  0.2715 -0.1718  0.1635
  419W        W 4483   9.267   2.776   1.781  0.1086 -0.1995  0.0122
  420W        W 4484   5.476   9.734  10.624 -0.0118  0.0909  0.0151
  421W        W 4485   4.994   6.661   3.254  0.2350  0.2887  0.0002
  422W        W 4486   4.838   7.003   7.407  0.0854 -0.0332 -0.2769
  423W        W 4487   5.301   0.022   1.001 -0.1413  0.3835 -0.0334
  424W        W 4488   1.730   8.098  11.242 -0.0993 -0.1777 -0.2807
  425W        W 4489   5.271   0.855  10.505 -0.0143  0.2536 -0.0571
  426W        W 4490   1.854   8.877   9.471  0.1836 -0.0472 -0.2402
  427W        W 4491   0.843   7.324   3.415 -0.0609 -0.3225 -0.2970
  428W        W 4492   0.308   8.372  10.429 -0.0189  0.1119 -0.0085
  429W        W 4493   3.489   1.484   2.301 -0.1496  0.0269 -0.0360
  430W        W 4494  10.146   4.905   9.075  0.1699  0.3484 -0.0113
  431W        W 4495   7.153   1.018  10.725  0.0782  0.1407  0.2086
  432W        W 4496   6.345  10.595   2.640 -0.0198 -0.1849  0.0286
  433W        W 4497   3.192   2.577  10.269  0.2392  0.2428 -0.1910
  434W        W 4498   3.985   8.166  10.236  0.3309 -0.1464 -0.0778
  435W        W 4499   7.388   8.978   0.297 -0.1546  0.1240 -0.0189
  436W        W 4500  10.590   9.658   8.105  0.0270  0.0386 -0.0703
  437W        W 4501   0.735   1.101  10.330  0.0363 -0.4047  0.1574
  438W        W 4502   8.829   7.843   2.013  0.1480  0.0402  0.2038
  439W        W 4503   1.984   2.315   1.071 -0.5546 -0.1320 -0.0933
  440W        W 4504   9.586   4.214   2.076  0.2128 -0.0151 -0.2045
  441W        W 4505   3.586   3.915   2.860  0.0096  0.0005  0.3497
  442W        W 4506   3.354   2.174   0.759 -0.0922 -0.1309  0.0841
  443W        W 4507   3.938   2.179   2.644 -0.2882 -0.0525  0.3900
  444W        W 4508   3.540   8.165   7.667  0.1202  0.1586  0.0483
  445W        W 4509   8.431   3.634   3.317 -0.0799 -0.1476 -0.1232
  446W        W 4510   2.452   4.319  10.921 -0.0485  0.4382 -0.0953
  447W        W 4511   9.414   5.768  10.827 -0.0889 -0.1098 -0.1838
  448W        W 4512   2.181  10.460  11.047 -0.0785  0.1164 -0.3435
  449W        W 4513   5.692   7.885   0.440 -0.0771  0.2434 -0.2784
  450W        W 4514   5.898   7.172  11.190  0.1307 -0.1520  0.0936
  451W        W 4515   4.544   1.180   1.181 -0.1783 -0.0525  0.0935
  452W        W 4516   1.464   5.355   2.512  0.1203 -0.0886 -0.1969
  453W        W 4517   4.649   0.259   9.521 -0.0419 -0.3289  0.1597
  454W        W 4518   5.777   9.119   0.659 -0.0046  0.0861 -0.1105
  455W        W 4519   2.236   1.486   0.694  0.5228 -0.2785 -0.0001
  456W        W 4520   5.285   8.179  11.047 -0.1922 -0.0748 -0.1467
  457W        W 4521   6.061   2.314  10.732 -0.1754 -0.4277  0.2952
  458W        W 4522   7.271   6.055   3.031  0.1558  0.1338  0.1204
  459W        W 4523   0.740   7.717   9.766  0.3598 -0.3059  0.1496
  460W        W 4524   3.260   0.595   9.119  0.2012 -0.2181  0.2135
  461W        W 4525   5.593   3.832  10.285 -0.1760  0.1082 -0.1013
  462W        W 4526   0.256   6.693  10.535  0.0925  0.0121 -0.1471
  463W        W 4527   7.992   2.840   9.706  0.0957 -0.0274  0.0404
  464W        W 4528   3.369   2.116  10.270 -0.0336  0.0626 -0.2298
  465W        W 4529   9.244  10.651  10.837  0.0175 -0.1431  0.0492
  466W        W 4530   7.669   3.627   0.100  0.3077  0.1800 -0.3280
  467W        W 4531   8.993   3.951   0.006  0.0026 -0.1661 -0.1476
  468W        W 4532   8.937  10.331   1.797  0.0808  0.3085 -0.0774
  469W        W 4533   4.898   5.767   2.157 -0.1223  0.1666  0.0295
  470W        W 4534   4.119   9.379   2.547 -0.1526  0.0111 -0.0925
  471W        W 4535   4.433   5.386   1.363  0.1171  0.0241  0.1131
  472W        W 4536   2.499   6.440   0.467  0.1655  0.1998 -0.0128
  473W        W 4537   7.043   0.701   1.542  0.1019 -0.0475 -0.0651
  474W        W 4538   6.005   8.694   9.271  0.2057  0.1700  0.1360
  475W        W 4539   8.861   9.766   1.588 -0.0727 -0.2839  0.3247
  476W        W 4540   6.909   9.263  11.070 -0.1249  0.0491  0.1893
  477W        W 4541   8.742   2.554   9.213 -0.2301 -0.3629 -0.0195
  478W        W 4542   0.907   1.822  11.274 -0.0159  0.0232 -0.0497
  479W        W 4543   1.753   9.479  10.899  0.2787 -0.0660  0.4099
  480W        W 4544   1.500   9.583   9.240 -0.1342  0.0158  0.1867
  481W        W 4545   9.633   7.400   8.562 -0.0389  0.0937  0.0216
  482W        W 4546  10.639   0.270  10.995 -0.3508 -0.1391  0.0031
  483W        W 4547   1.197   0.786   9.679  0.3152 -0.0907  0.1162
  484W        W 4548   6.759   0.327   1.657 -0.1466  0.2246 -0.0873
  485W        W 4549   8.749   6.648  10.369  0.3334  0.6108 -0.2969
  486W        W 4550   1.028   5.444   1.106 -0.0747 -0.3006  0.1756
  487W        W 4551   1.114   4.580   9.615 -0.3437 -0.1377 -0.1534
  488W        W 4552   2.379   3.174   4.233 -0.3512 -0.1633 -0.1244
  489W        W 4553   5.682   9.661   0.047 -0.3096  0.0846 -0.1046
  490W        W 4554   2.996   6.404  10.620  0.0600  0.2686  0.2113
  491W        W 4555  10.545   6.731  11.183 -0.4389 -0.1356 -0.0275
  492W        W 4556   1.108   9.415   1.652 -0.0133 -0.2109  0.0144
  493W        W 4557   1.394   5.227   0.850  0.0498  0.0621  0.1148
  494W        W 4558   7.513   3.363  10.674  0.0202  0.1751 -0.0794
  495W        W 4559   0.140  10.154   8.472 -0.1810 -0.3560  0.0555
  496W        W 4560   3.742   8.868   3.853 -0.2693 -0.0473  0.0611
  497W        W 4561  10.365   5.588   0.973 -0.1976  0.4076 -0.0773
  498W        W 4562   4.242   8.257   8.306 -0.0014  0.2025  0.2663
  499W        W 4563   0.573   4.443  11.078  0.0127 -0.0805 -0.1513
  500W        W 4564   2.071   3.527   9.127 -0.0314  0.0500  0.2679
  501W        W 4565   9.592   4.391  10.790  0.3072 -0.1432 -0.2896
  502W        W 4566   4.169  10.459  11.461 -0.1750 -0.1155  0.2984
  503W        W 4567   3.251   0.657  10.906 -0.3150  0.1245 -0.0497
  504W        W 4568  10.271   5.108  10.645  0.0917  0.0029 -0.0400
  505W        W 4569   9.359   1.897   0.606 -0.0030  0.1591  0.0944
  506W        W 4570   4.789   1.826  10.094 -0.3451  0.0114  0.1870
  507W        W 4571   6.866   8.188   0.301  0.0290 -0.0851  0.1101
  508W        W 4572   9.263   3.545   8.859 -0.1290  0.2923  0.2641
  509W        W 4573   4.953   3.685   7.591  0.2195 -0.2603 -0.1683
  510W        W 4574   2.110   5.910   9.840 -0.2082 -0.1728  0.0459
  511W        W 4575   5.889   8.968   1.821  0.0456 -0.1919 -0.1607
  512W        W 4576   4.393   1.332   8.524  0.0746  0.0412  0.0298
  513W        W 4577   8.980   3.084   3.950  0.1104 -0.0094 -0.0379
  514W        W 4578   6.403   3.368   1.597 -0.2291 -0.2394  0.2430
  515W        W 4579   0.464  10.465   3.209 -0.0269  0.3889 -0.1507
  516W        W 4580   1.135   8.146   8.159 -0.1178 -0.1303 -0.0406
  517W        W 4581   7.938   5.834   8.916  0.2388  0.0827  0.0480
  518W        W 4582   8.606   2.787   1.727  0.0250 -0.0596  0.1554
  519W        W 4583   2.456   7.665   2.944 -0.0052  0.1832 -0.0681
  520W        W 4584   6.371   2.662   2.164  0.1596 -0.0170 -0.0702
  521W        W 4585   8.254   5.184   4.200  0.0037 -0.2191  0.1459
  522W        W 4586  10.293   9.952   8.484  0.0052 -0.0382  0.0232
  523W        W 4587   4.775   6.757   0.738 -0.2931  0.0859  0.0475
  524W        W 4588  10.140   9.886   0.182 -0.0772  0.1903 -0.1225
  525W        W 4589   4.138   4.241  10.841 -0.1798  0.2525 -0.1611
  526W        W 4590   3.535   2.539   2.480 -0.0820 -0.2598 -0.1870
  527W        W 4591   0.350   1.223  10.066 -0.0708  0.1665 -0.0511
  528W        W 4592   5.277   1.074   2.583 -0.2302 -0.0563  0.0370
  529W        W 4593   2.385   2.210   1.835  0.2904 -0.0728 -0.0114
  530W        W 4594   9.307   3.823   2.369 -0.0159  0.0469  0.1442
  531W        W 4595   0.519  10.631   1.962 -0.0362  0.0898 -0.1641
  532W        W 4596   7.966   3.298   9.359 -0.0521 -0.0873 -0.1023
  533W        W 4597   6.311   8.288  11.217  0.0471 -0.0988  0.0227
  534W        W 4598   9.236   9.893   1.907 -0.3627 -0.2660  0.1680
  535W        W 4599   0.002   8.005   0.378 -0.0944 -0.2566 -0.0905
  536W        W 4600   2.754   9.127   9.819 -0.2251  0.0310 -0.0513
  537W        W 4601   1.947   0.661   9.293 -0.0145 -0.2281  0.0952
  538W        W 4602   4.163   2.445   7.821 -0.3346  0.2862  0.1568
  539W        W 4603   5.771   6.373   8.427 -0.3225 -0.1004  0.3072
  540W        W 4604   6.143  10.049  10.378 -0.1828  0.2311 -0.0268
  541W        W 4605   5.969   5.856   2.137  0.0530  0.1699 -0.1176
  542W        W 4606   6.607   9.399   2.351 -0.0395  0.1111  0.1669
  543W        W 4607   5.559   4.844   3.511 -0.1075  0.1464  0.2411
  544W        W 4608   7.879   5.501   3.275  0.2871 -0.4593  0.0292
  545W        W 4609   3.880   0.435   2.667  0.0199  0.3113 -0.3076
  546W        W 4610   0.685   2.496   9.326 -0.0391 -0.0585 -0.2872
  547W        W 4611   2.451   4.305   9.216 -0.2403  0.0664  0.2591
  548W        W 4612   8.040   8.631   0.072 -0.3401  0.0934 -0.0805
  549W        W 4613   9.312   9.370  11.392 -0.1792 -0.2558 -0.0261
  550W        W 4614   9.765   1.113   1.837  0.1470  0.5395 -0.1297
  551W        W 4615   4.895   2.529   8.471  0.2424 -0.4348  0.0047
  552W        W 4616   8.153   6.856   9.579  0.1143 -0.1979 -0.2576
  553W        W 4617   2.094   6.807  10.556  0.1549  0.0730  0.1159
  554W        W 4618   9.479   3.787   1.894 -0.1257  0.2858  0.1162
  555W        W 4619  10.459   4.695   8.704 -0.2817 -0.4267  0.1372
  556W        W 4620   9.682   2.572   2.148 -0.0937  0.4385 -0.0236
  557W        W 4621  10.458   1.126   9.110 -0.2187 -0.1719 -0.0617
  558W        W 4622   7.324   8.256  10.525  0.5323  0.3201  0.0488
  559W        W 4623   9.304  10.002  11.503 -0.2293 -0.1464  0.1853
  560W        W 4624   3.494   3.394  10.868  0.0219 -0.0795 -0.1530
  561W        W 4625   3.050   5.512   7.429 -0.1604  0.1149 -0.0336
  562W        W 4626   3.320   6.408   0.878 -0.1455 -0.2361  0.1151
  563W        W 4627   7.897   4.057   7.827  0.0881 -0.3425 -0.2109
  564W        W 4628   8.161   3.100   0.313 -0.0128  0.2677 -0.1111
  565W        W 4629   7.288   1.595  11.333 -0.4391 -0.1355 -0.0492
  566W        W 4630   3.624   9.808   0.763 -0.2180 -0.2057  0.0735
  567W        W 4631   5.699   8.531   1.958 -0.3008 -0.0996  0.2771
  568W        W 4632   0.574   3.555   1.260 -0.1523 -0.5699  0.0311
  569W        W 4633   7.920   1.781   0.017 -0.0999  0.0987  0.2026
  570W        W 4634   7.901   3.702   1.436 -0.0559  0.1336  0.0263
  571W        W 4635   7.776   4.329   2.059 -0.1205 -0.3056 -0.2021
  572W        W 4636   5.940   5.067  10.328  0.0507 -0.0813  0.3257
  573W        W 4637   7.186   1.093   0.680 -0.0074  0.0256 -0.0264
  574W        W 4638   9.146   8.414  10.658 -0.0543 -0.2157 -0.0867
  575W        W 4639   8.818   8.808   1.435 -0.0492  0.0492 -0.1749
  576W        W 4640   5.060   8.067   0.049 -0.3148  0.0210 -0.0089
  577W        W 4641   2.980   8.862   8.185  0.0043  0.0923 -0.1945
  578W        W 4642   4.348   6.147   8.626 -0.0115 -0.1716  0.3485
  579W        W 4643   5.319   2.010   0.602 -0.0060  0.5241  0.1176
  580W        W 4644   8.440   4.028   7.783 -0.2718 -0.1576 -0.0743
  581W        W 4645   9.183   4.821   0.427  0.2185 -0.1344  0.0861
  582W        W 4646   9.703   8.449   1.613 -0.0543 -0.1160  0.0194
  583W        W 4647   1.612   3.047   0.127 -0.0674 -0.2433 -0.1951
  584W        W 4648   3.781   0.156   8.379  0.1884 -0.0652  0.2435
  585W        W 4649   4.499   4.781   0.542 -0.2033  0.1400 -0.2064
  586W        W 4650   4.736   4.522   9.389 -0.0086  0.2608  0.1518
  587W        W 4651   1.554   3.490   4.076  0.3440 -0.0614  0.2714
  588W        W 4652   6.353   4.021  11.216 -0.0618  0.1042  0.0555
  589W        W 4653   9.763   4.931   8.705 -0.0008  0.1222 -0.1579
  590W        W 4654   4.106  10.335   8.706 -0.0086  0.2450 -0.0827
  591W        W 4655   4.177   8.795   8.239 -0.0176  0.2805 -0.3009
  592W        W 4656  10.399   3.246   7.667  0.0080  0.1846  0.0023
  593W        W 4657   7.343   2.004   8.526  0.0749 -0.0709  0.0540
  594W        W 4658   0.103   5.428   7.861  0.1817  0.1423  0.3678
  595W        W 4659   6.748   4.083   6.827 -0.1420  0.1073  0.1681
  596W        W 4660   6.170   3.084   2.553 -0.1834  0.2992  0.3701
  597W        W 4661   2.191   2.532   3.513 -0.0918 -0.0468 -0.1438
  598W        W 4662   0.852   3.472  11.283  0.1004 -0.0677  0.1400
  599W        W 4663   9.080   8.367   9.592 -0.2029  0.5167 -0.0449
  600W        W 4664   8.931   3.851   7.940 -0.5690 -0.2686 -0.2303
  601W        W 4665   9.397   2.237   0.142  0.2553 -0.2415 -0.1656
  602W        W 4666   6.660   0.773  10.540  0.2842 -0.1036 -0.1774
  603W        W 4667   3.833   3.528   7.526 -0.0521 -0.1237 -0.0716
  604W        W 4668   8.363   8.693   8.667 -0.1108 -0.2021  0.3806
  605W        W 4669   3.261   1.000   1.333  0.1143  0.1686  0.0573
  606W        W 4670   6.217   7.507   2.739  0.3415  0.0331  0.2703
  607W        W 4671   6.739   6.838   3.408 -0.2483 -0.0733 -0.1329
  608W        W 4672   1.112   4.633   8.973 -0.4267  0.0730 -0.1473
  609W        W 4673   0.799   9.043  10.016  0.2257 -0.1822  0.1161
  610W        W 4674   4.057   2.640  10.470 -0.3593  0.0136  0.0358
  611W        W 4675   1.507   1.112   8.730 -0.0717 -0.0183 -0.0416
  612W        W 4676   5.884   4.893   0.705 -0.0538  0.1047  0.1359
  613W        W 4677   4.655   6.312   2.968 -0.0437  0.0277  0.2156
  614W        W 4678   5.092   1.722   1.388  0.0384 -0.0361 -0.2843
  615W        W 4679   6.352   2.999   1.285  0.0379  0.0533  0.0619
  616W        W 4680   2.036   1.780   3.023 -0.1007  0.2805  0.0525
  617W        W 4681   8.822   6.531   9.194  0.1621  0.1515  0.0350
  618W        W 4682   5.012   3.874   2.334  0.2147 -0.1051  0.0583
  619W        W 4683   1.812   3.036  11.201  0.2362  0.0439 -0.0196
  620W        W 4684   7.915   6.361  11.371  0.1780  0.2178  0.1347
  621W        W 4685   2.098   6.416   0.172 -0.1574  0.1515 -0.1588
  622W        W 4686   3.657   9.169   1.664  0.0419  0.1081 -0.2669
  623W        W 4687   8.599   1.973  10.431 -0.1311  0.1969  0.3395
  624W        W 4688   3.310   6.894   2.825  0.2433  0.3718  0.0304
  625W        W 4689   1.505   4.542   9.923  0.0392 -0.0140 -0.0803
  626W        W 4690   5.209   7.602   7.877 -0.0483 -0.3277 -0.0117
  627W        W 4691   4.277   2.398   3.716 -0.2996  0.1301 -0.0176
  628W        W 4692  10.304   1.621  10.665  0.0548  0.2516  0.2621
  629W        W 4693   4.108   0.374   2.177  0.0082  0.1007  0.1343
  630W        W 4694   1.795   9.254   8.896 -0.1589 -0.2371  0.0914
  631W        W 4695   4.030   3.987   4.252 -0.3609 -0.1801 -0.1601
  632W        W 4696   8.196   5.589  11.225  0.1440 -0.1308 -0.2918
  633W        W 4697   9.247   1.636   2.562  0.0412 -0.1528 -0.2873
  634W        W 4698   2.934   5.336   3.644 -0.0083 -0.3804  0.1443
  635W        W 4699   8.819   8.884  10.601 -0.2512  0.1059  0.1982
  636W        W 4700   4.892  10.048   8.301  0.1365  0.1359 -0.0647
  637W        W 4701   1.378   6.028   0.382 -0.0189 -0.1459  0.0376
  638W        W 4702   0.927   6.386   1.244 -0.1229  0.0307  0.0792
  639W        W 4703   7.482   6.258   2.602  0.3709  0.1797  0.0961
  640W        W 4704   3.520   2.212   8.123 -0.0562 -0.0817 -0.2279
  641W        W 4705   1.047   5.838   9.826  0.3319 -0.2366  0.3107
  642W        W 4706   3.933   3.434   1.015 -0.0828 -0.0392 -0.1863
  643W        W 4707   0.897   9.861  11.150 -0.3025  0.0862  0.1224
  644W        W 4708   1.969   4.207   2.847  0.1274  0.0860  0.1804
  645W        W 4709   8.797   5.044   9.753 -0.0679  0.1142 -0.2736
  646W        W 4710   9.112   0.648   1.433 -0.1281 -0.1311  0.0328
  647W        W 4711   8.327   1.048   0.489  0.0523  0.0612 -0.1856
  648W        W 4712   3.186   8.499   1.353 -0.1483 -0.2870  0.0679
  649W        W 4713   4.904   6.557   1.175  0.1033 -0.2530  0.0035
  650W        W 4714   1.898   9.882  10.518 -0.0741  0.0246  0.2089
  651W        W 4715   9.893   2.640   0.064  0.0932  0.1667  0.2144
  652W        W 4716   2.631  10.481   0.584  0.0314 -0.1732  0.0015
  653W        W 4717   3.531   6.062   1.490  0.0454  0.1704  0.1483
  654W        W 4718   2.605   4.989  11.548  0.0535  0.0657 -0.0345
  655W        W 4719   4.771   5.521   8.048  0.0838  0.1696 -0.1519
  656W        W 4720   2.686   7.371   2.177  0.2124  0.1387 -0.0640
  657W        W 4721   6.721   2.897   1.701 -0.2667  0.1755  0.3893
  658W        W 4722   5.517   6.298  10.951  0.0361  0.3490 -0.1049
  659W        W 4723   1.112   1.920   8.159 -0.1672  0.0802  0.1564
  660W        W 4724   2.488   7.993  10.216 -0.0596  0.4809  0.0608
  661W        W 4725  10.449   0.255  10.040  0.1814 -0.0858  0.1758
  662W        W 4726   8.641   4.566   0.536 -0.0522  0.1122 -0.0448
  663W        W 4727  10.170   8.592   2.862 -0.1507 -0.0657 -0.3081
  664W        W 4728   3.068   6.202   1.244  0.0185 -0.2721 -0.0043
  665W        W 4729   4.195   9.232   1.004 -0.0974  0.2212 -0.1074
  666W        W 4730   8.844   4.667   3.479  0.0608  0.1360 -0.2339
  667W        W 4731   2.626   0.984   2.075 -0.0625 -0.1319  0.0792
  668W        W 4732   8.995   9.925  10.517  0.2818 -0.3091  0.0107
  669W        W 4733   9.043   8.891   9.739 -0.1915 -0.1183 -0.0188
  670W        W 4734   3.843   8.106   9.050 -0.2041  0.2435  0.2626
  671W        W 4735   8.331  10.610   1.451  0.0668 -0.0710  0.0368
  672W        W 4736   1.615   6.180  11.536 -0.0815 -0.1955  0.0861
  673W        W 4737   2.691  10.629  10.680  0.2922 -0.2244 -0.1595
  674W        W 4738   1.109   0.966   0.642 -0.3441  0.0986  0.1509
  675W        W 4739   3.502   5.701   9.878 -0.1126  0.3729 -0.0131
  676W        W 4740   2.405   5.259   1.432 -0.2905  0.1800  0.0692
  677W        W 4741   8.892   5.002   1.579  0.1167 -0.2197 -0.0046
  678W        W 4742   4.524   9.674  10.855 -0.1166  0.2828 -0.0060
  679W        W 4743   6.965   1.715   1.503  0.1127 -0.1541  0.1272
  680W        W 4744   3.222  10.046  11.432 -0.2905  0.1234 -0.0089
  681W        W 4745   1.995   6.680   2.537 -0.2414 -0.3055 -0.3523
  682W        W 4746   1.577   7.970   1.877 -0.0903 -0.0315 -0.0371
  683W        W 4747   9.180   7.634   0.128  0.5241 -0.5290  0.0369
  684W        W 4748   4.193   1.266   1.676 -0.3245 -0.0003  0.4410
  685W        W 4749   9.588   7.951   3.072  0.0316  0.0445 -0.1012
  686W        W 4750   5.986   2.272   1.334  0.0197  0.0668  0.1213
  687W        W 4751   2.168   3.153   8.727  0.1697  0.1131 -0.1382
  688W        W 4752   0.977   0.345   9.609  0.0746  0.3073  0.0575
  689W        W 4753   3.123   3.441   1.372  0.1837  0.0524  0.0090
  690W        W 4754   4.618   0.974   2.444 -0.0474 -0.0008 -0.2901
  691W        W 4755   0.594   4.101  10.301 -0.1369 -0.1569 -0.2109
  692W        W 4756   7.891   2.782   3.298 -0.0788  0.3193 -0.0439
  693W        W 4757   6.339   5.317   1.808 -0.0785 -0.1441 -0.0582
  694W        W 4758   3.515   9.616   8.916 -0.0290  0.0567  0.4842
  695W        W 4759   8.351   4.402   8.424 -0.0608 -0.3197  0.0097
  696W        W 4760   5.585   8.814   2.364 -0.0401 -0.1607  0.0197
  697W        W 4761   4.342   2.072   4.153  0.1123  0.0157  0.2218
  698W        W 4762   9.216   0.462   3.155  0.0541 -0.0636  0.2666
  699W        W 4763   5.829   5.083   8.735 -0.1969 -0.2713  0.3752
  700W        W 4764   6.015   5.886   9.132  0.1187  0.2117 -0.1836
  701W        W 4765   3.264   7.080   8.882  0.1372  0.1585 -0.0074
  702W        W 4766   4.754   8.122  10.887 -0.1923 -0.0125 -0.0055
  703W        W 4767  10.127   6.882   3.773 -0.0199 -0.0351 -0.0163
  704W        W 4768   8.816   2.261   2.418 -0.1213  0.2030  0.0111
  705W        W 4769   2.328   8.666   0.104 -0.1946 -0.2036  0.0946
  706W        W 4770   4.563   2.702   8.958 -0.2133 -0.1494  0.1909
  707W        W 4771   6.035   7.010   1.980 -0.0733  0.3383 -0.0961
  708W        W 4772   4.148   8.597   4.100  0.0831 -0.2733  0.0108
  709W        W 4773   8.451  10.314  11.097  0.3266  0.0255 -0.1195
  710W        W 4774   0.356   9.003   1.364 -0.1709 -0.0408  0.2698
  711W        W 4775   7.521   3.449   2.317 -0.0188  0.1230 -0.0885
  712W        W 4776   4.835   9.405   2.659 -0.0398 -0.2498  0.1062
  713W        W 4777   9.525   9.124   9.700 -0.0967 -0.1844 -0.1971
  714W        W 4778   4.310   3.012   3.031  0.2974  0.0774  0.0990
  715W        W 4779   2.941   3.728  10.386 -0.1925 -0.1433 -0.1264
  716W        W 4780   2.998   5.245   1.866 -0.1118 -0.0318 -0.0377
  717W        W 4781   6.682   2.052   0.541 -0.1539 -0.0767 -0.2963
  718W        W 4782   2.245   9.348  10.463  0.0895 -0.0669  0.2082
  719W        W 4783   3.077   1.944   2.968 -0.1593 -0.1253  0.1341
  720W        W 4784   5.413   0.196  10.352 -0.0308  0.0530  0.0820
  721W        W 4785   0.765   9.477   4.346  0.3393  0.2066 -0.1697
  722W        W 4786   9.843   3.263  10.270 -0.1057  0.2547 -0.2049
  723W        W 4787   7.997   0.239   2.974 -0.0797  0.1535 -0.0154
  724W        W 4788   4.111   7.118   9.175  0.2199 -0.1313 -0.0557
  725W        W 4789  10.346   5.196   8.488 -0.0520  0.0122  0.2562
  726W        W 4790   1.548   1.430   2.312 -0.2239  0.1306 -0.3146
  727W        W 4791   8.350   0.904   3.624 -0.0228  0.0099 -0.1139
  728W        W 4792   5.864   1.914   7.966 -0.3644 -0.0721  0.1472
  729W        W 4793   4.070   9.491  10.018  0.1668 -0.3382  0.2063
  730W        W 4794   8.414   9.214   0.723  0.0317 -0.0574 -0.3987
  731W        W 4795   5.804   5.434  11.250  0.1140  0.1892 -0.1519
  732W        W 4796   6.146   0.185   8.764  0.1920  0.0255 -0.1610
  733W        W 4797   5.623   1.659  10.797  0.1696  0.0861 -0.0060
  734W        W 4798   0.023   6.432   3.056  0.0602  0.0279 -0.3124
  735W        W 4799   1.941  10.259   2.157  0.0557  0.2273 -0.2222
  736W        W 4800   5.109   6.389   9.195 -0.2477  0.1020 -0.2044
  737W        W 4801   3.392   0.635   0.377  0.0750 -0.1131  0.1432
  738W        W 4802  10.479   9.369   3.060 -0.1621  0.4636 -0.1626
  739W        W 4803   2.102   0.194   3.711 -0.2198  0.0766  0.0027
  740W        W 4804   8.025  10.210   1.585  0.0216 -0.3043  0.2623
  741W        W 4805   8.682   8.466  10.398 -0.0797 -0.2557 -0.1063
  742W        W 4806   7.665   7.180  11.393  0.1847 -0.3304 -0.3630
  743W        W 4807   3.984   3.888   2.544  0.2350  0.0767 -0.4216
  744W        W 4808   1.431   1.948  11.341 -0.0788  0.1289  0.2717
  745W        W 4809   2.554   1.154  11.244 -0.0710  0.0545  0.0071
  746W        W 4810   7.217   4.238   8.865  0.1200  0.1488 -0.1546
  747W        W 4811   2.068   5.615   0.571  0.1185  0.0844  0.0138
  748W        W 4812  10.270  10.206  11.406  0.4594 -0.0287 -0.2925
  749W        W 4813   3.358   6.279   3.590 -0.1549  0.0026  0.0119
  750W        W 4814  10.083   0.062  11.075 -0.1423 -0.1423 -0.2461
  751W        W 4815   5.587   2.241   9.656  0.0794 -0.1645  0.2599
  752W        W 4816   7.806   4.500   8.230 -0.1090  0.0145 -0.0325
  753W        W 4817   8.798   1.553  10.418 -0.1501 -0.1515 -0.3234
  754W        W 4818   2.961   8.561   2.227 -0.0146 -0.1458  0.2188
  755W        W 4819   5.309   5.449   0.943  0.1263 -0.2472 -0.1328
  756W        W 4820   8.625   7.070   1.724 -0.3233 -0.0708 -0.0611
  757W        W 4821   9.925   1.985   8.592 -0.0606  0.2234  0.2300
  758W        W 4822   1.135   3.833   2.420 -0.0298 -0.1821  0.1668
  759W        W 4823   2.441   2.239   3.191 -0.2671  0.0199  0.2899
  760W        W 4824   0.135   5.398   0.837  0.2764  0.3050 -0.1842
  761W        W 4825   8.474   6.094   2.636 -0.1387 -0.0235  0.0320
  762W        W 4826   4.190  10.661  10.729  0.1277  0.3076 -0.2259
  763W        W 4827   3.141   6.346   1.744 -0.1334  0.2656  0.0712
  764W        W 4828   7.245  10.468   2.058  0.0138 -0.0118  0.1780
  765W        W 4829   3.543  10.631  10.856  0.0320  0.2921  0.3314
  766W        W 4830   5.085   6.113   1.475 -0.1411 -0.1232 -0.1044
  767W        W 4831   5.244   1.005   0.001 -0.0518  0.0341 -0.2393
  768W        W 4832   9.982   7.825   8.800 -0.0070 -0.2623  0.0530
  769W        W 4833   7.327   9.467   9.818  0.2506  0.0682 -0.0270
  770W        W 4834   7.082   6.955  10.031  0.1857  0.0651  0.0033
  771W        W 4835   7.330   5.940   1.106  0.0231 -0.1426 -0.1109
  772W        W 4836   0.513   3.749   8.044 -0.0357 -0.0849  0.0664
  773W        W 4837   4.497   0.491   1.053 -0.1576  0.0074  0.1559
  774W        W 4838   2.621   5.998   9.964  0.4583  0.0549  0.1455
  775W        W 4839   6.201   6.325   0.827 -0.2050  0.0544  0.1182
  776W        W 4840   3.730   1.746   1.957  0.3755  0.0141 -0.3244
  777W        W 4841   0.096   5.283   0.239  0.1521 -0.1139 -0.2165
  778W        W 4842   4.207   5.250   9.337 -0.1017 -0.2356  0.3315
  779W        W 4843  10.084   3.944   9.921 -0.2448 -0.1514  0.3226
  780W        W 4844   3.172   6.035   0.637 -0.0046  0.0245  0.2215
  781W        W 4845  10.609   7.770   1.839  0.2320 -0.2814  0.0529
  782W        W 4846   3.664   0.519   4.623  0.2145 -0.2093 -0.0403
  783W        W 4847  10.080   0.015   2.776  0.6312 -0.2589  0.0242
  784W        W 4848   5.614   1.311   1.040 -0.0739  0.0439  0.0163
  785W        W 4849   1.316   4.645   8.346 -0.1861 -0.3941 -0.1476
  786W        W 4850   8.747   7.632   0.382  0.0724  0.0136  0.0396
  787W        W 4851   7.939   8.755   2.976 -0.0090  0.1568 -0.3054
  788W        W 4852   7.364   5.240  11.230  0.0560 -0.2364  0.1683
  789W        W 4853   3.687   1.295   3.718  0.1028 -0.2445 -0.1541
  790W        W 4854   6.756   5.415   2.861  0.0791  0.1081 -0.1687
  791W        W 4855   6.624   3.537  11.100  0.0551  0.3982  0.4123
  792W        W 4856   2.265   6.071  11.131  0.1613  0.1533 -0.2908
  793W        W 4857   8.150   7.118   1.956 -0.2645 -0.0337 -0.2156
  794W        W 4858   5.094   2.733   1.662  0.3041  0.2254  0.0195
  795W        W 4859   9.875   0.234   1.821  0.0432 -0.0923  0.1288
  796W        W 4860   7.058   1.907   0.102  0.0527  0.4359 -0.1005
  797W        W 4861   4.642   4.768  10.309 -0.0146  0.0097  0.1774
  798W        W 4862   2.049   0.141   0.892 -0.1225  0.3008  0.0984
  799W        W 4863  10.595   2.742  10.732  0.2138  0.3289 -0.0564
  800W        W 4864   9.742   0.374   1.378 -0.1882 -0.0528  0.1563
  801W        W 4865   5.380   5.307  11.437 -0.4338 -0.1534 -0.3925
  802W        W 4866  10.592   4.080   3.011  0.0344 -0.0810  0.1686
  803W        W 4867   9.744   9.661   8.400  0.0034  0.0701 -0.1951
  804W        W 4868   7.387   9.440   1.217 -0.1540  0.2304  0.1723
  805W        W 4869   2.332   1.785   9.006  0.0860  0.1598 -0.1661
  806W        W 4870   4.884   3.756   9.077 -0.0774 -0.3611  0.1639
  807W        W 4871   8.287   6.275   2.170 -0.0905 -0.0193 -0.0055
  808W        W 4872   1.701   4.847  11.105  0.0124  0.0347 -0.0783
  809W        W 4873   6.430   8.509  10.179 -0.3268 -0.1093  0.1483
  810W        W 4874   5.099  10.273   2.960  0.1602 -0.0992  0.0487
  811W        W 4875   3.602   9.644   9.835  0.4701  0.1800  0.2378
  812W        W 4876   3.940   7.262   9.683  0.1730 -0.1862 -0.0317
  813W        W 4877   0.613   2.710  10.658 -0.0914 -0.1522  0.0670
  814W        W 4878   0.460   3.193  10.588 -0.1646  0.3443 -0.0139
  815W        W 4879   6.724   8.893   1.383  0.0519  0.0664 -0.1584
  816W        W 4880  10.046   0.007   9.956 -0.0598 -0.0376  0.2875
  817W        W 4881   8.606  10.091   8.405 -0.2171 -0.2560  0.1634
  818W        W 4882  10.241  10.393   9.582  0.2366  0.0085 -0.2440
  819W        W 4883   0.524   9.767  10.317  0.1430 -0.3040  0.2791
  820W        W 4884   4.811   3.672   1.351 -0.1598  0.1838 -0.1034
  821W        W 4885   2.940   2.091   0.064 -0.0434  0.0965  0.1265
  822W        W 4886   3.912   1.429   9.936  0.1758  0.0594 -0.4643
  823W        W 4887   6.736   5.899   3.131 -0.1590  0.2359 -0.1295
  824W        W 4888   3.881   5.105   8.991  0.2560 -0.0726  0.2126
  825W        W 4889   6.622   5.854   3.608 -0.1344  0.0000  0.1470
  826W        W 4890   5.719   0.104   2.816  0.0324  0.2827  0.0536
  827W        W 4891   0.593   5.343   2.298  0.0875 -0.0196  0.2842
  828W        W 4892   9.685   7.734   2.634  0.3530 -0.3164 -0.0222
  829W        W 4893   0.209   7.598   8.541 -0.1885 -0.0431 -0.3710
  830W        W 4894  10.496   7.299   8.370 -0.0331  0.0335  0.0680
  831W        W 4895   2.828   6.024  10.355 -0.1184  0.3601 -0.0119
  832W        W 4896   9.128   8.033   8.647 -0.0457 -0.2790  0.0591
  833W        W 4897   8.874   6.494   8.600  0.1581  0.0297 -0.4068
  834W        W 4898   8.232   2.812   2.231 -0.0627 -0.1226 -0.2037
  835W        W 4899   1.367   9.800   0.269  0.0586  0.2597  0.0608
  836W        W 4900   9.857   7.754   7.354 -0.0648 -0.2841 -0.3343
  837W        W 4901   4.338   4.784   9.142  0.1586  0.2488 -0.1967
  838W        W 4902  10.180   0.005   3.213 -0.1961 -0.2087 -0.2149
  839W        W 4903   9.238   4.990  11.463  0.1162 -0.0369  0.0433
  840W        W 4904   6.119   3.664   1.928  0.4657 -0.2503  0.0486
  841W        W 4905   9.177   0.159   9.564  0.1199 -0.0561  0.1372
  842W        W 4906   8.533   0.086   1.910  0.1541  0.0620  0.1208
  843W        W 4907   7.897   1.950   3.896  0.0049  0.2514 -0.0364
  844W        W 4908   6.924   7.632   0.980 -0.1699 -0.0131 -0.0989
  845W        W 4909   9.430   8.435   8.674  0.0906  0.0434 -0.3052
  846W        W 4910   2.913   3.575   9.456  0.1275 -0.0587 -0.1837
  847W        W 4911   1.792   9.666   0.648 -0.2721 -0.1181  0.1192
  848W        W 4912   5.138   3.035   2.493 -0.1155 -0.1082  0.1557
  849W        W 4913   2.541   7.285   0.544  0.0855 -0.1492 -0.2470
  850W        W 4914   4.128   0.004   2.487  0.2299 -0.3175 -0.0992
  851W        W 4915   6.641   9.852   2.704  0.0873 -0.2158  0.1817
  852W        W 4916   6.029   3.907   8.155 -0.1226 -0.1063  0.1840
  853W        W 4917   4.934   2.390   2.927  0.1943 -0.1383 -0.0788
  854W        W 4918   3.922   5.990   0.184  0.1204  0.4068 -0.0007
  855W        W 4919   4.731   3.120   9.217  0.1614 -0.4744  0.0736
  856W        W 4920   0.479   2.988  10.143  0.1593  0.0836  0.1846
  857W        W 4921   0.798   3.916   0.948  0.3095 -0.0644 -0.0384
  858W        W 4922   5.993   1.817   9.649  0.0898  0.0530  0.1739
  859W        W 4923   9.054   7.063   9.296  0.1189  0.0583  0.0145
  860W        W 4924   9.223   8.168   2.775  0.0654 -0.0916 -0.1087
  861W        W 4925   7.049   5.083   9.234  0.0891  0.0124 -0.0871
  862W        W 4926   4.486   0.303  10.464  0.0917 -0.2569 -0.3524
  863W        W 4927   5.274   6.145   8.371  0.1867 -0.2392  0.1123
  864W        W 4928   7.250   3.289   0.296 -0.0755 -0.0983 -0.0872
  865W        W 4929   1.741   8.503  10.371  0.3422  0.0586  0.1269
  866W        W 4930   2.080  10.314  10.295 -0.0232 -0.1499  0.2892
  867W        W 4931   6.740   3.408   0.502 -0.1220  0.1077 -0.0765
  868W        W 4932   8.242   9.098   1.891  0.1472  0.0657 -0.0680
  869W        W 4933   2.902  10.340   1.062  0.2344 -0.4148  0.1173
  870W        W 4934   5.737   1.319   8.373  0.1255  0.0858 -0.0273
  871W        W 4935   9.860   1.569   8.911 -0.1416  0.0648  0.0383
  872W        W 4936   2.038   7.789  10.970  0.1325  0.0559 -0.0499
  873W        W 4937   1.209   4.927   0.227  0.0263  0.1895 -0.0011
  874W        W 4938   6.120   1.764   2.841  0.0355 -0.0015  0.4650
  875W        W 4939   6.458   1.639   3.252  0.1565 -0.2438  0.0222
  876W        W 4940  10.633   7.349   0.708  0.0969  0.1991  0.3848
  877W        W 4941   2.897   8.847  10.946  0.2340 -0.1847 -0.0659
  878W        W 4942   4.120   3.774   8.595 -0.2288  0.4033 -0.3211
  879W        W 4943   1.019  10.423   8.889  0.1061 -0.3183 -0.2574
  880W        W 4944   2.565   4.851   8.972 -0.1472  0.0462 -0.1062
  881W        W 4945   9.753   0.563   3.430 -0.2950  0.0702  0.1271
  882W        W 4946  10.516   8.809   0.770  0.0119 -0.1473 -0.0457
  883W        W 4947   6.331   5.417   7.934  0.0126 -0.0457 -0.2069
  884W        W 4948   5.041   9.628  10.877  0.1470  0.2187 -0.0952
  885W        W 4949  10.273   4.242  10.322  0.1101  0.3585  0.0643
  886W        W 4950   3.842   0.652   1.865  0.0499  0.0916  0.2122
  887W        W 4951   0.135   4.395  10.205 -0.0823  0.2728  0.1727
  888W        W 4952   4.756   8.606   1.702  0.1623 -0.0489  0.0464
  889W        W 4953  10.573   1.283   9.673  0.2300 -0.0252  0.2881
  890W        W 4954   4.354   3.577   9.684 -0.0908 -0.2458  0.0575
  891W        W 4955   4.998   7.348   8.788 -0.0333  0.0349 -0.0333
  892W        W 4956   5.451   9.029   3.095 -0.2624 -0.0896 -0.1507
  893W        W 4957   3.285   2.035   1.622  0.2276  0.4128 -0.1051
  894W        W 4958   3.595   7.999   8.154  0.1454  0.1827  0.1105
  895W        W 4959   3.019   5.032   9.161 -0.0132  0.2258  0.1692
  896W        W 4960  10.523   4.222   1.711  0.0611  0.1404 -0.0129
  897W        W 4961   7.300   1.507   2.294 -0.2788  0.0215 -0.1355
  898W        W 4962   4.531   9.227   3.631  0.3869  0.0314 -0.0323
  899W        W 4963   5.159   2.062   1.039 -0.3945 -0.0922 -0.0954
  900W        W 4964   2.495   4.168   3.870  0.1953  0.0482 -0.0403
  901W        W 4965   3.982   1.274   2.186  0.0666 -0.1201 -0.2014
  902W        W 4966   4.379   4.621   2.527 -0.1455  0.0246 -0.3479
  903W        W 4967   0.325   3.547  10.002  0.2211  0.2122  0.0087
  904W        W 4968   3.297   9.248   8.516 -0.0613  0.1019  0.1536
  905W        W 4969   9.957   3.439  10.802 -0.0396  0.0985 -0.1291
  906W        W 4970   6.380   4.846   1.593 -0.0379 -0.2035  0.0973
  907W        W 4971   2.729   9.372   0.787  0.2303 -0.1522  0.1756
  908W        W 4972   8.501   2.722   9.781  0.0521 -0.1835 -0.2594
  909W        W 4973   1.998   3.600   2.435  0.2431 -0.1659 -0.1611
  910W        W 4974   6.732   7.619   2.035  0.2425  0.0800 -0.1160
  911W        W 4975   1.403   7.112   1.649 -0.3142  0.2907 -0.4069
  912W        W 4976   2.587   9.518   1.700 -0.0221  0.3288  0.1540
  913W        W 4977   3.224   9.259   2.078  0.1158 -0.1714  0.0039
  914W        W 4978   2.339   6.125   1.204  0.0204  0.2536  0.3505
  915W        W 4979   7.155  10.357   0.055 -0.1935 -0.2199 -0.3019
  916W        W 4980   3.827   9.732   3.662 -0.1476  0.0570 -0.3917
  917W        W 4981   8.995   0.094   0.848  0.0716 -0.0664 -0.0095
  918W        W 4982   7.353   9.627  10.274  0.1282 -0.2183  0.0182
  919W        W 4983   5.199   3.559   7.175  0.3503 -0.0732  0.1526
  920W        W 4984   2.355   2.200   9.247 -0.2048  0.2853  0.1330
  921W        W 4985   0.701   4.001   0.450  0.1963  0.1392  0.0256
  922W        W 4986   9.895   0.352  10.371  0.0296  0.4015 -0.1108
  923W        W 4987   2.266  10.409   1.052 -0.1094  0.2076 -0.2249
  924W        W 4988   0.702   5.823   9.078 -0.2046  0.0762  0.3216
  925W        W 4989   0.589   5.932   9.985  0.0034  0.0972 -0.0993
  926W        W 4990   1.891   6.138   2.964 -0.4095 -0.3678  0.2986
  927W        W 4991   9.065   2.336   0.790 -0.0312 -0.3928 -0.1417
  928W        W 4992   9.923   6.973   1.830 -0.0288  0.0293  0.0193
  929W        W 4993   9.310   2.668   9.500  0.2260 -0.1579  0.2596
  930W        W 4994   8.547   3.206   8.526  0.2154 -0.1814 -0.0303
  931W        W 4995  10.156   9.260  11.108  0.2201  0.5874  0.0055
  932W        W 4996   5.255   8.944  11.167 -0.2701 -0.1285 -0.1489
  933W        W 4997   3.711   4.676   1.963 -0.1373  0.2574 -0.0208
  934W        W 4998   1.507   1.048  11.218  0.2374 -0.0691 -0.2927
  935W        W 4999   3.587   5.743   0.523  0.0718  0.0546 -0.0880
  936W        W 5000   1.529   7.519   2.741 -0.1453  0.1106 -0.3468
  937W        W 5001   4.725   7.563   1.378 -0.1773  0.2396 -0.0138
  938W        W 5002   4.212   8.577   9.992 -0.3815  0.0175 -0.0121
  939W        W 5003   3.954   4.489  10.127  0.0548 -0.1064 -0.1837
  940W        W 5004   7.156   7.432  11.109  0.2304  0.1637  0.3116
  941W        W 5005   6.847   0.174   0.876  0.0739 -0.0186 -0.3962
  942W        W 5006   9.286   0.721   8.880  0.3517 -0.2247 -0.1429
  943W        W 5007   3.674   8.605  10.883 -0.1603  0.2616  0.0173
  944W        W 5008   4.732   0.835   9.771 -0.1916  0.3933  0.1248
  945W        W 5009   0.914   7.712   9.004  0.3006 -0.1897 -0.0653
  946W        W 5010   6.992   3.801   0.336  0.1205  0.2934  0.1640
  947W        W 5011   6.437   0.157   0.602  0.2173 -0.0400  0.5419
  948W        W 5012   5.794   9.672   8.028 -0.0987 -0.2605  0.0523
  949W        W 5013   5.421   5.786  10.228  0.0042  0.0008 -0.0924
  950W        W 5014   2.271   8.402   9.717  0.0734 -0.1028 -0.0762
  951W        W 5015   9.695   2.091   9.036  0.1542 -0.0514  0.0342
  952W        W 5016   9.241   6.895   0.598  0.1031  0.1318 -0.0892
  953W        W 5017   2.330   5.048   9.843 -0.2534 -0.1796 -0.0389
  954W        W 5018   8.128   6.144   3.052 -0.0872  0.1003  0.3105
  955W        W 5019   6.194   2.519   7.127  0.0972 -0.0476  0.0354
  956W        W 5020   0.155   1.331   1.489  0.0447 -0.1371  0.0678
  957W        W 5021   9.078   5.756   9.703 -0.1193  0.1646 -0.1165
  958W        W 5022   4.423   8.435   2.457  0.0798  0.0811  0.1295
  959W        W 5023   0.557   1.405   4.596 -0.1627  0.1401  0.1025
  960W        W 5024   1.395   5.706   1.692  0.1658  0.2993 -0.0811
  961W        W 5025   2.274   8.331   8.308 -0.3177  0.2236  0.1550
  962W        W 5026   5.517   1.082  11.075 -0.2155  0.1300  0.0846
  963W        W 5027   7.930   3.116   2.465  0.0751 -0.0242 -0.0118
  964W        W 5028   6.481   9.193   0.364  0.1625  0.0074 -0.0292
  965W        W 5029   6.204   5.103   0.374  0.2674 -0.1594  0.0296
  966W        W 5030  10.651   2.863   3.685  0.0620 -0.0860 -0.0599
  967W        W 5031   5.094   3.130  11.260  0.1440  0.0913 -0.2449
  968W        W 5032   8.332   6.224   0.186  0.2558 -0.2031  0.0328
  969W        W 5033   6.411   9.739   0.313 -0.0612  0.1331 -0.1250
  970W        W 5034   7.395   8.375   1.741 -0.2180  0.0053  0.2695
  971W        W 5035   6.125  10.603   8.313 -0.0966  0.1398 -0.0207
  972W        W 5036   5.071   4.916  11.200 -0.0089 -0.0038 -0.0999
  973W        W 5037   4.376   7.827   1.084  0.1848 -0.1811  0.0675
  974W        W 5038   5.987   2.313   4.043 -0.0907 -0.3708 -0.1741
  975W        W 5039   2.957   7.274   0.906 -0.3135  0.0327  0.0940
  976W        W 5040   7.029   8.626   0.297 -0.0760  0.2416 -0.0331
  977W        W 5041   8.404   5.920   1.790  0.0474 -0.0786 -0.0813
  978W        W 5042   9.700   0.403  10.886  0.0281 -0.1985  0.0310
  979W        W 5043   3.823   7.056   0.637 -0.2710  0.1645 -0.1714
  980W        W 5044   0.901   4.048   3.742  0.1251 -0.2417 -0.1554
  981W        W 5045   9.652   0.850  10.594 -0.0563 -0.0896 -0.0320
  982W        W 5046   2.069  10.126   8.150 -0.2564 -0.0647  0.0149
  983W        W 5047   5.028   1.655   3.398  0.0526 -0.1031 -0.0369
  984W        W 5048   0.152   2.396  10.399 -0.1706  0.0283  0.0404
  985W        W 5049   5.423   8.920   3.862  0.1755 -0.0627  0.0087
  986W        W 5050   4.873   8.175   0.815 -0.1262 -0.0451  0.1081
  987W        W 5051   1.084   8.560   1.172  0.4793  0.2779 -0.0895
  988W        W 5052   2.598   1.763  10.010  0.0040 -0.3801 -0.0587
  989W        W 5053  10.523  10.453  10.887  0.1998 -0.2334  0.2649
  990W        W 5054   9.604   9.293  10.971  0.0117 -0.1110  0.1846
  991W        W 5055   2.747   8.433   1.150 -0.1232  0.0152  0.1195
  992W        W 5056   7.676  10.546   1.803  0.1020  0.3299 -0.0250
  993W        W 5057   0.238   5.476   9.257 -0.0018  0.1236 -0.2180
  994W        W 5058   6.780   3.027   2.254  0.0554 -0.0377  0.0594
  995W        W 5059   3.875   7.690   9.932  0.3541  0.0144 -0.0062
  996W        W 5060   8.601   0.097   2.508  0.1734  0.1111  0.2444
  997W        W 5061   7.489   2.559   9.556 -0.2412  0.3159  0.5963
  998W        W 5062  10.434   5.812   2.201 -0.1020 -0.3230  0.1009
  999W        W 5063   3.663  10.048   2.123  0.3801 -0.1130 -0.0826
 1000W        W 5064   0.889   4.482   8.495  0.0940  0.2022  0.2309
 1001W        W 5065   4.775   9.942   3.120  0.3000 -0.0461  0.0933
 1002W        W 5066   1.934   1.551   0.311 -0.0602  0.0633 -0.1310
 1003W        W 5067   9.626   0.840   1.427 -0.2677 -0.3776 -0.0444
 1004W        W 5068   9.128   1.830   1.590 -0.0417 -0.3975 -0.0363
 1005W        W 5069   3.227   4.934  10.776 -0.1478  0.0233  0.1727
 1006W        W 5070   4.898   7.301   3.786 -0.0525 -0.2839  0.0216
 1007W        W 5071   5.546   2.502  10.076 -0.2558 -0.1509  0.0436
 1008W        W 5072   6.113   4.206   9.425 -0.0432 -0.1441 -0.1347
 1009W        W 5073   8.473   6.184   0.657 -0.1056  0.0927  0.3480
 1010W        W 5074   7.562   4.770  11.089  0.2102  0.1473 -0.1524
 1011W        W 5075   5.643   5.639   0.149 -0.0985 -0.0592  0.1633
 1012W        W 5076   8.880   6.550   3.503  0.2518 -0.1452 -0.3374
 1013W        W 5077   6.570   8.013   0.722  0.1254  0.1449  0.1458
 1014W        W 5078   2.507   8.988   1.819 -0.0378  0.0589  0.0010
 1015W        W 5079   0.608  10.239   3.668 -0.2197 -0.1632 -0.1936
 1016W        W 5080   4.603   6.972   3.517 -0.1338 -0.1424 -0.1632
 1017W        W 5081   6.123   6.327  10.085  0.0456 -0.4478  0.2811
 1018W        W 5082   2.863   0.869   8.961 -0.2520  0.0237  0.0237
 1019W        W 5083   3.584   6.091  11.321  0.0165 -0.0835  0.2335
 1020W        W 5084   4.367   8.130  10.531  0.0300  0.0023 -0.2361
 1021W        W 5085   5.508   8.199   1.398 -0.0185 -0.2733 -0.0096
 1022W        W 5086   7.932   4.967   3.505  0.0940  0.1070 -0.3414
 1023W        W 5087   6.049   8.468   8.805  0.0062 -0.0038 -0.2913
 1024W        W 5088   6.080   8.753  11.294 -0.0330 -0.1456  0.1758
 1025W        W 5089   3.259   8.478   9.758 -0.1687  0.3566 -0.0909
 1026W        W 5090   4.481   7.673  10.248 -0.1899 -0.2583  0.2140
 1027W        W 5091   3.577   2.435  10.612  0.0015  0.1490 -0.1488
 1028W        W 5092   6.512   1.771   0.173  0.0706  0.2583  0.0060
 1029W        W 5093   5.691   0.828   1.241  0.2086 -0.0758 -0.1556
 1030W        W 5094   2.736   9.268   3.422  0.3037 -0.0064 -0.0624
 1031W        W 5095   5.398   1.344   3.454  0.1218 -0.0842 -0.1787
 1032W        W 5096   0.720   8.256   0.943 -0.3358  0.1474 -0.0629
 1033W        W 5097   8.560   4.412   3.809  0.2405 -0.0033  0.2749
 1034W        W 5098   3.539   8.499  11.414 -0.2753 -0.1152 -0.0595
 1035W        W 5099  10.435   7.616  10.409 -0.0576  0.1721  0.1866
 1036W        W 5100   6.316   9.282   1.863  0.1281 -0.2104 -0.1939
 1037W        W 5101   2.171   5.956   3.724 -0.2363  0.0904  0.3250
 1038W        W 5102   2.199   5.334   1.984 -0.2438 -0.3745 -0.0409
 1039W        W 5103   9.437   0.458   0.995 -0.2133 -0.3076 -0.1906
 1040W        W 5104   4.526   6.963   2.962 -0.1206  0.1124  0.2396
 1041W        W 5105   3.507   4.458   8.603 -0.0088  0.0114  0.2379
 1042W        W 5106   6.766  10.618   1.939  0.0088 -0.0905  0.4863
 1043W        W 5107   7.565   2.457   1.888 -0.0025  0.0467 -0.3129
 1044W        W 5108   6.488   3.440   8.887  0.0708  0.2398 -0.1252
 1045W        W 5109   0.697   7.580   0.449  0.3038  0.2064  0.0619
 1046W        W 5110   8.657   7.347  11.013 -0.0230  0.1040  0.0499
 1047W        W 5111   3.184   9.720   8.453  0.0449  0.0228  0.3669
 1048W        W 5112   8.443   7.863   1.155  0.3158 -0.0474  0.0024
 1049W        W 5113   4.421   7.570   0.213  0.0289 -0.1451 -0.3169
 1050W        W 5114   3.384   2.517   1.813 -0.0060 -0.1828  0.0722
 1051W        W 5115   8.668   6.313  11.024 -0.0806  0.2107  0.1078
 1052W        W 5116   7.556  10.050  11.537 -0.1100 -0.0057 -0.1366
 1053W        W 5117   8.451   0.501   1.680 -0.2741 -0.2508  0.0488
 1054W        W 5118   8.937   4.136  10.342 -0.1020 -0.4725 -0.1474
 1055W        W 5119   5.055  10.567   8.940 -0.1281  0.0586 -0.0453
 1056W        W 5120   7.833   8.576   1.570  0.0691 -0.1410  0.0476
 1057W        W 5121   7.531   3.027   9.684 -0.0474  0.0396 -0.2207
 1058W        W 5122   7.229   5.235   2.730  0.3204  0.0422  0.1286
 1059W        W 5123   0.680   6.428   0.191 -0.1908 -0.3091 -0.0055
 1060W        W 5124   5.701   1.128   0.025 -0.2669  0.1387 -0.1346
 1061W        W 5125   7.125   0.503  10.524  0.1535  0.0965 -0.0430
 1062W        W 5126   4.953   5.676   1.164  0.2299 -0.2580 -0.2509
 1063W        W 5127   0.346   1.810   1.437 -0.0354  0.2873 -0.0230
 1064W        W 5128   6.702   9.188   8.943  0.2264 -0.3476  0.5065
 1065W        W 5129   5.931   5.381   9.171 -0.0427 -0.1203  0.1345
 1066W        W 5130   8.888   2.997   9.456 -0.1911 -0.1169 -0.1906
 1067W        W 5131   4.695   6.251   0.700 -0.1225  0.0598 -0.0684
 1068W        W 5132   6.558   6.733   9.030  0.1015  0.3061 -0.0498
 1069W        W 5133   0.946   0.155  10.978  0.0495  0.0820 -0.0557
 1070W        W 5134   6.695   8.487   1.035 -0.2276 -0.2058 -0.2333
 1071W        W 5135   5.706   4.149   1.269  0.0243  0.0268  0.0111
 1072W        W 5136   9.948   7.927  10.675 -0.0797  0.0063 -0.1931
 1073W        W 5137   1.863   1.711  10.846 -0.0557  0.0374  0.4190
 1074W        W 5138   0.383   2.782   9.696 -0.0075 -0.0042  0.0540
 1075W        W 5139   0.897   9.014   9.285  0.0349 -0.1310  0.2016
 1076W        W 5140   3.015   0.162  11.209 -0.1802  0.2726  0.1106
 1077W        W 5141   1.254   7.504  11.156 -0.0518  0.1484 -0.0023
 1078W        W 5142   7.231   3.851  10.812  0.2857  0.3366  0.3513
 1079W        W 5143   9.399   7.395  10.039  0.0931 -0.3491  0.0599
 1080W        W 5144   7.314   2.164  11.352 -0.0972  0.0876 -0.0949
 1081W        W 5145   1.746   9.121   8.412 -0.0632  0.2145 -0.1831
 1082W        W 5146   5.812   0.989   7.939  0.0393  0.0519  0.0805
 1083W        W 5147   6.588   0.877   3.476  0.0036  0.2050 -0.5672
 1084W        W 5148   0.011   2.682  10.001  0.1695  0.1653 -0.0533
 1085W        W 5149   4.730   2.233   4.515 -0.0032 -0.2369 -0.0319
 1086W        W 5150   2.730   9.267   2.898 -0.1132 -0.1244 -0.0213
 1087W        W 5151   0.641   8.269   3.157  0.0652 -0.2538 -0.0139
 1088W        W 5152   2.200  10.378   9.494 -0.0520  0.1982 -0.3081
 1089W        W 5153   8.958   4.628   8.936 -0.0909  0.1409  0.2430
 1090W        W 5154   2.297   0.418  10.924 -0.3539 -0.1530  0.0160
 1091W        W 5155   4.097   4.740   2.980 -0.1032 -0.3543  0.3230
 1092W        W 5156   0.582  10.314   0.114  0.2568  0.3530 -0.1380
 1093W        W 5157   4.686   2.033   3.260  0.0607  0.2659 -0.1663
 1094W        W 5158   8.524   4.381  10.616  0.3754 -0.2851 -0.0875
 1095W        W 5159   6.095   2.146   0.070 -0.1360 -0.0067  0.0014
 1096W        W 5160   8.056   8.173   1.053 -0.1347 -0.1496  0.0811
 1097W        W 5161   7.948   2.563   8.806 -0.2360 -0.0827 -0.1957
 1098W        W 5162   6.685   1.268   2.393  0.2743 -0.0879 -0.2212
 1099W        W 5163   8.001   4.594   1.131 -0.1534 -0.0734  0.1251
 1100W        W 5164   9.604   6.371   8.157  0.3535 -0.0060  0.0519
 1101W        W 5165   3.825   3.178   4.065 -0.1956  0.0785  0.0526
 1102W        W 5166   0.082   1.934  10.766 -0.2763  0.3461 -0.0198
 1103W        W 5167   6.292   1.546   2.034  0.3283  0.2055 -0.2755
 1104W        W 5168   4.673   3.858   0.000  0.1124 -0.3487  0.0078
 1105W        W 5169   4.090   8.639  10.597  0.0686  0.0541  0.1862
 1106W        W 5170   2.198   0.366   8.304  0.1750  0.0280  0.1750
 1107W        W 5171   7.048   7.842  11.467  0.0034 -0.2615  0.3088
 1108W        W 5172   2.275   5.028   0.441 -0.0837  0.1028  0.0572
 1109W        W 5173   0.460   4.600  10.568  0.1554  0.0984  0.1689
 1110W        W 5174   8.098   3.772   7.500 -0.2499  0.1594 -0.3296
 1111W        W 5175   5.247   1.559   0.874 -0.1991 -0.2159  0.0468
 1112W        W 5176   7.552   6.593   9.330 -0.2750 -0.1339 -0.0851
 1113W        W 5177   2.644   2.320   8.331 -0.3521 -0.1373 -0.1237
 1114W        W 5178   4.466   6.805  10.958 -0.0726 -0.2322  0.0423
 1115W        W 5179   0.126   3.403   2.139 -0.3009  0.1626 -0.0059
 1116W        W 5180   2.763  10.545   2.510 -0.1656  0.0435 -0.2795
 1117W        W 5181   5.235   9.818   1.891 -0.0511 -0.0285 -0.2460
 1118W        W 5182   7.445   2.143   1.469  0.0565  0.2157 -0.2206
 1119W        W 5183  10.274   3.765  10.564  0.3586 -0.0390 -0.0523
 1120W        W 5184   0.790   2.714   3.315 -0.0199  0.0334  0.1675
 1121W        W 5185   0.336   9.878   0.879 -0.1655 -0.0609 -0.1614
 1122W        W 5186   4.316   0.797   2.029 -0.0448  0.3842 -0.0639
 1123W        W 5187   9.418   9.274   8.393 -0.0932 -0.0411  0.1286
 1124W        W 5188   9.609   4.105   8.525  0.0058  0.0952 -0.1282
 1125W        W 5189   9.718   9.637   1.071 -0.2464  0.0492  0.1626
 1126W        W 5190   4.440   6.497  10.571  0.1535  0.1830 -0.0517
 1127W        W 5191   0.405   6.873   7.998  0.1064  0.1496  0.1633
 1128W        W 5192   5.137   1.529   9.239  0.0944  0.1202  0.0607
 1129W        W 5193   8.950   5.871   2.801  0.1512  0.1652  0.1293
 1130W        W 5194   5.108   7.485   2.169 -0.0664  0.0929 -0.1117
 1131W        W 5195   2.539   7.976  10.746 -0.1645  0.0878 -0.1608
 1132W        W 5196   1.843   1.932   9.123 -0.1433  0.0968  0.0313
 1133W        W 5197   0.337   0.587  11.393 -0.0163  0.1830 -0.6025
 1134W        W 5198   2.818  10.445   8.845 -0.1167  0.1312  0.0188
 1135W        W 5199   7.405   5.820   9.936  0.4476  0.0424 -0.0328
 1136W        W 5200   3.926   3.305   7.933  0.1865  0.0766 -0.1302
 1137W        W 5201   2.018   0.931   3.808  0.0125  0.2094 -0.1280
 1138W        W 5202   8.087   5.085   3.008 -0.4175 -0.1554  0.1553
 1139W        W 5203   5.048   7.165   8.229  0.2486 -0.3769 -0.2983
 1140W        W 5204   5.435  10.200   0.818  0.2788  0.1398  0.0457
 1141W        W 5205   7.414   1.396  10.858 -0.0402 -0.1842  0.1224
 1142W        W 5206   3.743   6.985   8.816  0.0461 -0.4144 -0.0865
 1143W        W 5207   1.188   5.408  10.312  0.1366 -0.2526 -0.2544
 1144W        W 5208   1.620   2.533   0.098 -0.0591  0.1863 -0.1228
 1145W        W 5209   3.044   9.601   3.666  0.0163 -0.2546  0.3455
 1146W        W 5210   7.315  10.245  11.130 -0.0741 -0.0677  0.0014
 1147W        W 5211   0.000   2.063   3.276 -0.0854  0.1002  0.0227
 1148W        W 5212   2.505  10.466   0.091  0.1703  0.2783  0.2752
 1149W        W 5213   6.497   7.436   0.683  0.0340 -0.0536 -0.3251
 1150W        W 5214   2.948   2.369   3.262 -0.3815  0.0837  0.0251
 1151W        W 5215   4.841  10.340   9.338  0.1684 -0.1494 -0.0389
 1152W        W 5216   8.852   7.297   3.102  0.0620 -0.0723 -0.2181
 1153W        W 5217   4.325   1.076  11.035  0.2746 -0.0021  0.2995
 1154W        W 5218   4.414   8.119   0.590  0.1095 -0.0337  0.0168
 1155W        W 5219   3.467   2.147   2.106 -0.1581  0.2465  0.0513
 1156W        W 5220   2.001   8.008   9.493 -0.0556  0.2721 -0.0299
 1157W        W 5221   1.953   8.213   1.627 -0.2048 -0.2593 -0.4013
 1158W        W 5222   7.062   5.832  10.388  0.0153  0.0427  0.2219
 1159W        W 5223   7.629   4.916   2.718 -0.0789 -0.3406 -0.2575
 1160W        W 5224   6.265   3.915   2.485  0.3000 -0.0608  0.3578
 1161W        W 5225   7.359   1.078   9.913  0.1409  0.0242 -0.0472
 1162W        W 5226   6.681   1.211   9.248  0.2366  0.1242 -0.1627
 1163W        W 5227   9.425   5.145   8.329  0.1569  0.0769 -0.3976
 1164W        W 5228   4.258  10.046  10.734 -0.1307 -0.2864  0.2581
 1165W        W 5229   9.254   1.275  10.388  0.2089  0.0069  0.2847
 1166W        W 5230   4.089   5.057   2.477  0.0442  0.3005 -0.0699
 1167W        W 5231  10.518   1.329   2.411 -0.0160  0.1674  0.0150
 1168W        W 5232   3.353   1.052   3.089  0.4832  0.2779  0.0362
 1169W        W 5233   7.636   3.324   8.944 -0.0805  0.1329  0.2439
 1170W        W 5234   3.746   7.176   1.123 -0.1271 -0.1830  0.0599
 1171W        W 5235  10.412   5.047   2.707 -0.0662  0.2531  0.0947
 1172W        W 5236   4.083   7.327   1.694  0.0885 -0.0636 -0.1755
 1173W        W 5237   5.438   0.209   9.859 -0.0909  0.0506  0.0127
 1174W        W 5238   3.137   9.440   9.984 -0.3190  0.0520 -0.0437
 1175W        W 5239   3.463   1.931   0.345  0.1098 -0.1482  0.0970
 1176W        W 5240   8.641   0.604   0.505 -0.4587  0.2529 -0.1156
 1177W        W 5241   9.062   4.412   3.106 -0.1657  0.1297 -0.1483
 1178W        W 5242   5.750   1.401   9.288 -0.0557 -0.2014  0.0814
 1179W        W 5243  10.193   4.001   1.320 -0.0363 -0.2745 -0.0090
 1180W        W 5244   4.219  10.176   0.817  0.0120  0.0604  0.2370
 1181W        W 5245   6.496   6.631   9.938 -0.1192 -0.4831 -0.3449
 1182W        W 5246   3.936   2.931   1.042 -0.1000  0.0025  0.3115
 1183W        W 5247   7.408   1.807   8.981  0.2602 -0.2184  0.1349
 1184W        W 5248   3.487   9.965  10.956 -0.1426  0.1377 -0.1881
 1185W        W 5249   0.269   2.289   0.178 -0.0192 -0.2808 -0.1360
 1186W        W 5250   5.376   6.640   0.888  0.1281  0.3231  0.2343
 1187W        W 5251   3.642   8.467   0.450 -0.1127  0.0689 -0.2982
 1188W        W 5252   4.807   2.078   8.281 -0.2453  0.1672  0.0390
 1189W        W 5253   6.842   7.067  11.017  0.0601  0.2607  0.1700
 1190W        W 5254   8.175  10.433  10.746  0.0348 -0.0273  0.0407
 1191W        W 5255   6.053   2.143   0.625 -0.1038 -0.0515 -0.6419
 1192W        W 5256   5.208   4.454   1.336  0.0077 -0.1868 -0.1760
 1193W        W 5257   4.681   6.468  11.243  0.0256  0.1600  0.0922
 1194W        W 5258   4.032   7.571   2.920 -0.1477  0.2297 -0.0784
 1195W        W 5259   7.683   5.385   2.839  0.0870  0.1989  0.0499
 1196W        W 5260   1.243   2.376  11.273 -0.0320 -0.0922  0.2911
 1197W        W 5261   5.881   1.688   2.388  0.0322 -0.2820  0.0076
 1198W        W 5262   0.939   0.020   3.281 -0.3050  0.0076 -0.2246
 1199W        W 5263   8.026   8.651   1.100 -0.0529 -0.0447  0.0877
 1200W        W 5264   8.201   4.511   7.843 -0.2517 -0.0297  0.2358
 1201W        W 5265  10.610   9.930   2.897  0.0765 -0.0486 -0.1642
 1202W        W 5266   9.532   6.661   9.968 -0.1152  0.2856  0.0992
 1203W        W 5267   8.123   9.753   9.927  0.0076  0.3624  0.0329
 1204W        W 5268   6.756   7.516  10.693 -0.1293  0.2456 -0.2160
 1205W        W 5269   9.883   8.750   7.876  0.3467 -0.2207 -0.1329
 1206W        W 5270   3.919   0.084   8.887 -0.0824  0.1566 -0.0972
 1207W        W 5271   1.227  10.128   7.826  0.0083 -0.2510 -0.1902
 1208W        W 5272   9.227   8.221   1.927 -0.1078  0.1764 -0.0475
 1209W        W 5273   9.015  10.079   2.290 -0.0269 -0.3689 -0.1659
 1210W        W 5274   4.813   2.336  10.020  0.0641  0.0289 -0.2336
 1211W        W 5275   2.179   2.712  10.017 -0.1562 -0.2481 -0.2997
 1212W        W 5276   1.360   6.323   8.199 -0.1863  0.3524 -0.2195
 1213W        W 5277   9.434   8.866   0.224 -0.2162 -0.1426  0.0244
 1214W        W 5278   4.854   3.510   9.517  0.4994 -0.2684  0.0083
 1215W        W 5279   6.586   1.439   8.259 -0.0735 -0.1353 -0.0209
 1216W        W 5280   0.001   3.205   8.821  0.1318  0.0604 -0.2219
 1217W        W 5281   9.761   0.777   9.538  0.2747  0.0865 -0.1282
 1218W        W 5282   6.034   6.283  11.392  0.0878  0.0340 -0.4384
 1219W        W 5283   4.856   9.836   1.401  0.0560 -0.0190  0.1864
 1220W        W 5284   6.498   8.967  10.989  0.2790 -0.2037 -0.1271
 1221W        W 5285   7.613   0.144   2.158 -0.1955  0.0991  0.0905
 1222W        W 5286  10.237   4.192   8.363 -0.0805  0.0383 -0.1236
 1223W        W 5287   5.006   4.793   0.994 -0.3641 -0.2100 -0.3110
 1224W        W 5288   6.985   4.207   1.233 -0.0832 -0.4005  0.0307
 1225W        W 5289   7.966   2.263  10.821 -0.2509 -0.2119 -0.2078
 1226W        W 5290   0.373   5.616   0.470  0.2182  0.0397 -0.3761
 1227W        W 5291   9.549   5.670   9.901 -0.0292  0.0126 -0.3346
 1228W        W 5292   2.179   5.227   3.163  0.0081 -0.1137 -0.2021
 1229W        W 5293   3.833  10.256   9.112  0.0338  0.3039  0.3034
 1230W        W 5294   7.130   1.685   9.361 -0.1891 -0.1973 -0.2852
 1231W        W 5295   1.716   3.115   1.487  0.0710 -0.1558  0.1959
 1232W        W 5296   8.322   8.666   9.216  0.2186  0.5728 -0.3070
 1233W        W 5297   7.972   9.597   8.841 -0.3149 -0.3005 -0.1275
 1234W        W 5298   3.351   5.180   8.781 -0.1253  0.3297  0.1946
 1235W        W 5299   4.892   0.653   2.739  0.2874 -0.1300 -0.0040
 1236W        W 5300   0.839   5.021   2.630 -0.0493  0.1531 -0.0770
 1237W        W 5301   3.432   4.491   2.943 -0.3451  0.0144  0.2311
 1238W        W 5302   9.435   1.108   9.910  0.2134 -0.1330 -0.1111
 1239W        W 5303   1.490  10.111  11.399 -0.1515 -0.1178 -0.0734
 1240W        W 5304   2.927   2.342  10.621 -0.1759 -0.0252  0.1065
 1241W        W 5305   0.892   8.176   2.723  0.2205 -0.1680  0.5817
 1242W        W 5306   0.584   9.199   0.292 -0.2907  0.0783  0.5007
 1243W        W 5307   4.184   5.216   0.901  0.2488 -0.3133 -0.1669
 1244W        W 5308   7.199   0.203   9.162 -0.1229  0.0230 -0.1396
 1245W        W 5309   0.208   6.135   3.917  0.0687 -0.0122 -0.1873
 1246W        W 5310   6.859   8.318  11.264  0.0730  0.2649  0.2305
 1247W        W 5311   9.696   4.096   0.740 -0.3384 -0.2405  0.0290
 1248W        W 5312   1.600   5.382  11.009 -0.0833  0.0660  0.0531
 1249W        W 5313   1.319   2.537   1.854 -0.1240 -0.1628  0.1932
 1250W        W 5314   6.343   4.052   1.105 -0.0080  0.2320 -0.1725
 1251W        W 5315   7.284   2.761   0.566 -0.0413  0.1316 -0.2814
 1252W        W 5316   8.577   9.796  10.825 -0.0278  0.1305 -0.0479
 1253W        W 5317   0.969   9.567  10.105  0.3234 -0.3485 -0.2009
 1254W        W 5318   2.995   7.433   0.422  0.0943  0.3064  0.0387
 1255W        W 5319  10.149   7.126   2.339  0.0117  0.1641  0.1816
 1256W        W 5320   9.426   9.958   9.660  0.1870  0.0341  0.1302
 1257W        W 5321   1.684   2.907   1.943  0.1005 -0.0610  0.0280
 1258W        W 5322   5.147   9.002   9.076 -0.0969 -0.2955 -0.0353
 1259W        W 5323   7.046   6.453   2.138 -0.0225  0.0410  0.1172
 1260W        W 5324   1.400   3.776   8.492 -0.0840 -0.1491  0.0255
 1261W        W 5325  10.209   1.443   1.973 -0.1137  0.3504  0.0133
 1262W        W 5326   8.288   3.707   9.540  0.3623 -0.0243 -0.0090
 1263W        W 5327   8.651   8.668   2.361 -0.0051  0.2745  0.1183
 1264W        W 5328   4.513   9.814   2.344  0.0601  0.2890 -0.0404
 1265W        W 5329   7.030   3.842   9.017  0.3954 -0.1185 -0.0994
 1266W        W 5330   5.619   6.881   2.180 -0.0125  0.1518 -0.2112
 1267W        W 5331   7.706   2.624   2.879 -0.0236 -0.2002  0.2922
 1268W        W 5332  10.107   4.009   9.393  0.0713 -0.2321 -0.1987
 1269W        W 5333   4.621   8.621   0.751  0.0436 -0.3527 -0.0319
 1270W        W 5334   0.261   0.575   3.295 -0.3000 -0.0724  0.0037
 1271W        W 5335   2.925   2.581   9.763 -0.2389  0.0386  0.0581
 1272W        W 5336  10.132   1.914   1.253 -0.1315 -0.1204 -0.3912
 1273W        W 5337   0.874   2.763   7.878 -0.3206 -0.0129  0.2111
 1274W        W 5338   8.697   7.854   8.757  0.0987  0.2654  0.1766
 1275W        W 5339   3.447   4.405  10.101 -0.0718  0.1871  0.3382
 1276W        W 5340   6.539   9.056   0.914  0.0676 -0.1117 -0.0399
 1277W        W 5341   9.377   7.413   9.524  0.0047 -0.3508  0.0555
 1278W        W 5342   3.536   0.719   7.838 -0.3573 -0.1005 -0.0373
 1279W        W 5343   8.585   5.713   7.973  0.1435 -0.2104  0.3422
 1280W        W 5344   6.235   0.330   0.057  0.0282 -0.2092 -0.2648
 1281W        W 5345   4.275   8.500   7.862  0.1246  0.4020  0.1798
 1282W        W 5346   9.360   6.520   9.536  0.2084  0.1643  0.2625
 1283W        W 5347   9.162   4.957   3.116 -0.0161 -0.1773 -0.1547
 1284W        W 5348   5.322   9.292  11.476 -0.1902 -0.1540  0.0557
 1285W        W 5349   2.786   8.503   1.715 -0.0922  0.2162 -0.0153
 1286W        W 5350   6.120   6.794  11.495  0.1309 -0.2676 -0.1384
 1287W        W 5351   0.050   9.737   4.294 -0.0671 -0.0440 -0.0323
 1288W        W 5352   2.850   9.317   8.360  0.1973  0.0729  0.3834
 1289W        W 5353   1.972   2.104  11.258  0.0335  0.1153  0.2177
 1290W        W 5354   1.301   7.345   8.010  0.0816 -0.1139 -0.0393
 1291W        W 5355   3.047   0.622   3.157 -0.0851  0.1527 -0.2545
 1292W        W 5356   3.755   1.833   9.107 -0.1386  0.1213  0.1540
 1293W        W 5357   9.159   1.886  10.475 -0.0552 -0.1895 -0.0253
 1294W        W 5358   4.543   8.386   3.002 -0.1876  0.1960 -0.0212
 1295W        W 5359   5.711   1.532   1.890  0.1070  0.0734 -0.1109
 1296W        W 5360   7.995   0.665   8.754 -0.0542 -0.3110  0.0812
 1297W        W 5361  10.666   3.396   0.263 -0.0731  0.0788 -0.1246
 1298W        W 5362   4.427   5.785   9.511  0.1084 -0.1915 -0.1709
 1299W        W 5363   6.386   7.210   9.196  0.1037 -0.0914 -0.1228
 1300W        W 5364   6.917   0.113   2.346  0.0055  0.1686 -0.1062
 1301W        W 5365  10.503   9.821   1.166  0.0997  0.1587 -0.1327
 1302W        W 5366   0.944   4.256   9.968 -0.0785  0.1008  0.2127
 1303W        W 5367   8.170   4.883   8.311  0.1835  0.3155  0.0154
 1304W        W 5368   9.352  10.361   8.738 -0.2939 -0.3142 -0.0035
 1305W        W 5369   1.343   6.162   1.325  0.1404 -0.1242  0.3140
 1306W        W 5370   3.157   2.190   8.469 -0.0741  0.0647 -0.3500
 1307W        W 5371   2.516   5.376   7.309 -0.0489 -0.0188 -0.1085
 1308W        W 5372   5.824  10.452  11.333 -0.2262 -0.0760 -0.2688
 1309W        W 5373  10.550   6.723  10.121  0.0277  0.0019 -0.3338
 1310W        W 5374   4.364   6.409   1.015  0.0952 -0.2346  0.1026
 1311W        W 5375   1.683   7.060   8.009 -0.0798 -0.1682  0.1167
 1312W        W 5376   2.118   7.612  10.023 -0.0497 -0.0982 -0.1906
 1313W        W 5377   2.097   5.147  10.992 -0.0552 -0.0658 -0.0289
 1314W        W 5378   2.309   9.937   1.955  0.3443  0.0507  0.1692
 1315W        W 5379   7.645   2.846   6.815  0.3920 -0.2920  0.0663
 1316W        W 5380   6.648   2.137   3.350  0.0092 -0.0277  0.0094
 1317W        W 5381   4.266   6.789  11.456  0.2793 -0.3280  0.3611
 1318W        W 5382   4.247   3.111  10.168 -0.2010  0.2108  0.1327
 1319W        W 5383   8.886   5.154   8.444  0.1444 -0.1990  0.1559
 1320W        W 5384   7.775   3.160  11.031  0.4502 -0.1713  0.0344
 1321W        W 5385   4.320   3.490   1.783  0.1554  0.0695  0.1057
 1322W        W 5386   9.985   2.480   8.471 -0.4002  0.0208  0.1883
 1323W        W 5387   8.587   9.831   9.213 -0.0529 -0.0703 -0.1591
 1324W        W 5388   7.340   5.621   1.938  0.0768 -0.0442  0.0985
 1325W        W 5389   0.707  10.333   7.826  0.0691  0.1163 -0.4224
 1326W        W 5390   7.713  10.063   9.105  0.1553  0.2049  0.2372
 1327W        W 5391   2.638   2.867   0.587  0.1964 -0.0891  0.0684
 1328W        W 5392   5.533   5.320   3.495 -0.3611 -0.1175  0.0597
 1329W        W 5393   1.630   9.549   1.770  0.4314 -0.1973  0.0186
 1330W        W 5394   0.562   2.054   8.915  0.1521  0.1333 -0.2448
 1331W        W 5395   0.630   0.419   0.268 -0.1329 -0.2595 -0.1112
 1332W        W 5396   3.296   5.811  10.375 -0.0138  0.0659 -0.1315
 1333W        W 5397   9.776   2.460   2.665  0.1271  0.0719  0.0613
 1334W        W 5398   5.194   2.901  10.789  0.2228  0.0099 -0.2562
 1335W        W 5399   0.080   2.840   7.915  0.1123  0.1305 -0.1835
 1336W        W 5400   2.403   3.949   1.615  0.0556  0.2689 -0.0304
 1337W        W 5401   2.490   3.526   2.409  0.1863  0.1776  0.1328
 1338W        W 5402   9.781   5.971   1.780  0.2202 -0.3218 -0.0387
 1339W        W 5403   2.912   0.972   2.795  0.1575  0.2676 -0.6152
 1340W        W 5404   0.357   4.053   9.785 -0.0527  0.1742  0.0740
 1341W        W 5405  10.142   2.821   3.632  0.1335  0.1420 -0.1068
 1342W        W 5406   6.530   0.370   3.549 -0.4174  0.4233 -0.1158
 1343W        W 5407   4.548   8.608   8.613  0.0163  0.0721  0.1498
 1344W        W 5408   8.534   5.712   3.101  0.0282  0.1836  0.0908
 1345W        W 5409   8.003   0.719   1.541  0.0602 -0.0725  0.1573
 1346W        W 5410   1.243   2.399   0.680  0.0079 -0.3755  0.3880
 1347W        W 5411   7.951   7.583   9.658  0.0249 -0.0979  0.1249
 1348W        W 5412   0.636   1.585   2.185  0.1246 -0.1302  0.2207
 1349W        W 5413   0.199   7.475   1.453  0.1130  0.0810  0.2348
 1350W        W 5414   4.104   1.472   1.087 -0.1560 -0.1693  0.1281
 1351W        W 5415   5.668   9.847   3.156 -0.2209  0.1040  0.2014
 1352W        W 5416   7.654   7.223   9.807 -0.0527  0.1839  0.1275
 1353W        W 5417   2.045   4.534   0.484  0.2353 -0.0275 -0.2670
 1354W        W 5418   0.097   0.192   1.803 -0.0150 -0.0083  0.3812
 1355W        W 5419   5.738   0.520   3.122  0.0407 -0.0368  0.1243
 1356W        W 5420   9.216   3.811   0.454 -0.2048  0.0069  0.1065
 1357W        W 5421   7.701   1.063   9.543 -0.2469 -0.0956 -0.3483
 1358W        W 5422   9.448   5.890   8.892 -0.1152  0.0044 -0.3528
 1359W        W 5423   0.782   0.654  10.633  0.0231  0.0098 -0.0161
 1360W        W 5424   0.077   9.624   9.127  0.1973  0.0201  0.1174
 1361W        W 5425   2.847   6.760  11.275 -0.2504  0.1862  0.2103
 1362W        W 5426   0.441   7.849  11.547  0.2922  0.0294 -0.2232
 1363W        W 5427   3.174   0.709  11.454 -0.2042  0.1320 -0.2825
 1364W        W 5428   5.457   8.846  10.518 -0.2047 -0.2304 -0.2142
 1365W        W 5429   7.178   2.557   9.920 -0.0309 -0.0744  0.1623
 1366W        W 5430   9.648   2.357   3.106 -0.1053 -0.0412 -0.1491
 1367W        W 5431   9.049   5.694   8.167 -0.2144  0.0582 -0.2115
 1368W        W 5432   5.916   5.126   1.574 -0.2102 -0.2201 -0.0742
 1369W        W 5433   6.588   3.192   8.416  0.2870 -0.1420  0.4327
 1370W        W 5434   2.814   8.007   2.884  0.0383  0.1742 -0.0670
 1371W        W 5435   6.086   1.725   1.152 -0.3916  0.1988  0.2249
 1372W        W 5436   3.707   5.882   4.294 -0.1111  0.7322 -0.2751
 1373W        W 5437   9.576   6.659  10.481 -0.2059  0.0266  0.1357
 1374W        W 5438   9.108   2.048  10.014  0.1934 -0.1616 -0.3226
 1375W        W 5439   2.103   8.763   0.537 -0.3632  0.1301 -0.0061
 1376W        W 5440   2.946   7.721   1.804  0.1800  0.1119  0.2764
 1377W        W 5441   4.223   9.907   9.586  0.2274 -0.1149 -0.2122
 1378W        W 5442   3.103   1.089   3.521  0.0306  0.1648 -0.1209
 1379W        W 5443   9.371   0.154   1.576 -0.0906 -0.2441 -0.0933
 1380W        W 5444   4.258   3.887   1.125  0.1455  0.2186  0.2699
 1381W        W 5445   2.272   9.439  10.968  0.1388  0.1575  0.2208
 1382W        W 5446   0.861   2.694  11.402  0.0625 -0.0809  0.1224
 1383W        W 5447   2.893   6.585   2.684 -0.2199 -0.0182 -0.2612
 1384W        W 5448   3.607   5.033   2.330  0.0551  0.0574  0.2192
 1385W        W 5449   9.888   6.380   2.781 -0.1708 -0.0040  0.0331
 1386W        W 5450   3.674   6.963   1.580 -0.0905 -0.0730  0.1921
 1387W        W 5451  10.064   3.205  11.233 -0.0554 -0.0038  0.0680
 1388W        W 5452   7.179   7.488   9.991  0.0495 -0.3133 -0.0054
 1389W        W 5453   4.566   0.744   3.165  0.0798  0.4006 -0.2569
 1390W        W 5454   8.156   1.625   4.315  0.2151 -0.3257 -0.1246
 1391W        W 5455   9.581   4.887  10.422 -0.2535  0.5069  0.2329
 1392W        W 5456   8.912   1.826   8.705  0.0400 -0.0749 -0.2483
 1393W        W 5457   7.240   5.508   8.958  0.1290 -0.1463  0.1320
 1394W        W 5458   9.493   8.091   9.433  0.2292 -0.1777 -0.0360
 1395W        W 5459   9.572   3.115  10.703 -0.0636 -0.0030 -0.0340
 1396W        W 5460   6.404   2.818   9.779  0.1875 -0.1712 -0.0632
 1397W        W 5461   9.130   0.061   9.054 -0.0767  0.2656 -0.3110
 1398W        W 5462  10.287   4.513   7.909  0.2296 -0.0619  0.1598
 1399W        W 5463   5.452   5.846   1.254  0.0346  0.0558  0.2335
 1400W        W 5464   5.596   7.149   4.470 -0.0073 -0.1355 -0.0038
 1401W        W 5465   9.848   1.391   2.314  0.1212 -0.0751 -0.2469
 1402W        W 5466   4.284   4.404   1.293 -0.1088  0.2280 -0.2502
 1403W        W 5467   7.584   7.816   4.211 -0.0261 -0.1909  0.0617
 1404W        W 5468   8.781   3.366  11.032  0.1662  0.0751 -0.1710
 1405W        W 5469   2.416   6.197   3.343  0.0286  0.2703  0.0967
 1406W        W 5470   3.124   7.994   7.887  0.1541  0.2495 -0.0126
 1407W        W 5471   0.312   9.295  10.272 -0.1772  0.1827  0.1721
 1408W        W 5472   0.487   4.296   8.178 -0.2299 -0.0463  0.5170
 1409W        W 5473   8.309   3.430   1.234 -0.2208  0.0279  0.1760
 1410W        W 5474   0.360   5.584   8.799 -0.1571  0.1660 -0.2787
 1411W        W 5475   4.624   1.445   9.843  0.2957  0.1455 -0.0163
 1412W        W 5476   5.743   1.736   0.717  0.3877  0.3126  0.2291
 1413W        W 5477   0.738   2.072   9.813 -0.0818  0.2955 -0.0435
 1414W        W 5478   1.734   2.566  11.161 -0.0610  0.0729 -0.2825
 1415W        W 5479   8.905   6.403   0.872 -0.2313  0.0791 -0.4181
 1416W        W 5480   4.394   1.860  10.826  0.0375 -0.2421 -0.2179
 1417W        W 5481   5.498   5.621   2.216  0.0775 -0.0665 -0.1155
 1418W        W 5482   8.108   5.946   0.911 -0.0210  0.0105 -0.1420
 1419W        W 5483   7.093   9.786   1.461  0.0936  0.0087  0.1470
 1420W        W 5484   9.908   3.795   3.168 -0.0213 -0.2352 -0.1431
 1421W        W 5485   5.997   1.138  10.208  0.3196  0.0676  0.3150
 1422W        W 5486   8.065   8.234   3.106  0.0482  0.1043  0.3267
 1423W        W 5487   3.867   0.364  10.653  0.2510 -0.0682  0.1092
 1424W        W 5488   8.876   7.859   8.264 -0.2386  0.0402  0.3407
 1425W        W 5489   1.452   8.075   9.648  0.1675 -0.1259 -0.2723
 1426W        W 5490   9.554   1.896   9.805 -0.0434 -0.3273 -0.3065
 1427W        W 5491   3.358   4.671   9.140 -0.0442  0.0708  0.2661
 1428W        W 5492  10.541   9.825   2.346 -0.0710 -0.0869 -0.0090
 1429W        W 5493   4.118   7.641   2.065  0.0670  0.1063 -0.0291
 1430W        W 5494   4.208   6.812   8.393  0.1463  0.1597  0.0813
 1431W        W 5495   6.849   7.137   9.024 -0.0226 -0.0288  0.1160
 1432W        W 5496  10.126   0.540   9.219  0.0819  0.1856 -0.0071
 1433W        W 5497   3.527   5.630   8.681  0.0349 -0.2824  0.0379
 1434W        W 5498   9.579   0.306   9.931 -0.1005 -0.3759  0.1355
 1435W        W 5499   4.602   7.741   8.776  0.0287 -0.0126  0.0267
 1436W        W 5500   2.091   0.976   1.957 -0.4082 -0.2075  0.2269
 1437W        W 5501   0.015   2.138   1.388 -0.3309  0.1642  0.1603
 1438W        W 5502   1.275   2.129   8.645  0.0132  0.1277  0.2085
 1439W        W 5503   2.474   0.931   0.752  0.0723  0.0646  0.2839
 1440W        W 5504   7.354   5.258   1.235  0.2865 -0.1472 -0.0304
 1441W        W 5505   0.231   0.021   0.577 -0.0132  0.0119 -0.2078
 1442W        W 5506   0.808   3.152   1.153  0.1591 -0.0358 -0.0594
 1443W        W 5507   2.486   4.809   3.210 -0.1336 -0.4134 -0.0622
 1444W        W 5508   7.281   4.299   0.837  0.1101  0.3134  0.1449
 1445W        W 5509   1.876   3.492   7.939 -0.3098  0.0747 -0.1101
 1446W        W 5510   3.900   7.757  10.507  0.0075  0.0714 -0.0118
 1447W        W 5511   6.995   7.919   9.652 -0.0285  0.1761 -0.1153
 1448W        W 5512   5.382   9.208   1.963 -0.2367 -0.0642 -0.2749
 1449W        W 5513   2.057   1.993   0.578  0.1958  0.2267 -0.2619
 1450W        W 5514   9.620   9.491   7.873  0.2312  0.1071 -0.1068
 1451W        W 5515   9.530   2.043   1.840 -0.1719  0.3252 -0.0259
 1452W        W 5516   0.340   6.641  11.401  0.0983 -0.0389 -0.2076
 1453W        W 5517  10.097   1.157   8.701 -0.0167  0.3767  0.1430
 1454W        W 5518   2.876   4.486   9.300 -0.2761  0.0959 -0.1649
 1455W        W 5519   8.475   0.874   0.043 -0.0936 -0.2867  0.2997
 1456W        W 5520   2.791   7.159  10.480 -0.1883 -0.0470  0.0967
 1457W        W 5521   9.222  10.156  10.087 -0.0150 -0.0704 -0.0932
 1458W        W 5522   9.514   2.397   0.607 -0.2681 -0.3838  0.0539
 1459W        W 5523   3.746   5.082  10.878 -0.1570 -0.1524 -0.0422
 1460W        W 5524   7.342   9.136  10.239 -0.2097  0.1096 -0.0883
 1461W        W 5525   2.939   9.052  11.424 -0.2450 -0.1140  0.1307
 1462W        W 5526   9.328   9.813   1.385 -0.0344 -0.1177  0.1357
 1463W        W 5527   7.745   8.200  10.185 -0.0576 -0.0068 -0.4129
 1464W        W 5528   7.380   7.841   1.681  0.0896 -0.4163  0.0575
 1465W        W 5529   2.785   9.333  10.884  0.0237  0.0056  0.2354
 1466W        W 5530  10.239   2.588   2.542 -0.0639 -0.2056  0.2979
 1467W        W 5531   5.929   7.455  10.649 -0.0846 -0.1685 -0.0765
 1468W        W 5532  10.114   1.781   3.708 -0.0327 -0.1692  0.1638
 1469W        W 5533   8.036   8.324   8.436 -0.3174 -0.2489  0.0212
 1470W        W 5534   0.749   1.034   9.780 -0.2263  0.1269 -0.2828
 1471W        W 5535   7.893   8.891  10.227 -0.2537  0.0406 -0.2479
 1472W        W 5536   7.364   7.645   9.477 -0.0547  0.1397 -0.2447
 1473W        W 5537   9.211   4.624   2.092  0.1053  0.1981  0.2278
 1474W        W 5538   3.140   8.030   8.400 -0.2121  0.0356  0.0325
 1475W        W 5539   5.633   0.366   8.641 -0.0832  0.3994 -0.2012
 1476W        W 5540   0.212   2.951   1.845 -0.1392 -0.0594  0.1988
 1477W        W 5541   8.842   2.245   1.321  0.0094  0.2696 -0.0133
 1478W        W 5542   6.478   5.184   9.570  0.0766 -0.2633  0.0489
 1479W        W 5543   0.775   5.525   0.191  0.1327 -0.2073 -0.0671
 1480W        W 5544   3.073   7.829   3.346  0.1511  0.0920 -0.2282
 1481W        W 5545   9.670   7.163   2.672 -0.2134  0.1846 -0.1662
 1482W        W 5546   6.320   1.711   0.682  0.1238  0.0226  0.1061
 1483W        W 5547   1.023   5.378   8.297 -0.0508  0.0507 -0.0411
 1484W        W 5548   9.791   3.833   1.200 -0.3219 -0.0350  0.1808
 1485W        W 5549   1.283   7.018   2.838  0.1316  0.0606 -0.3310
 1486W        W 5550   8.089   0.008  11.422 -0.0671  0.0891 -0.1779
 1487W        W 5551   5.808   6.952  10.708  0.1392 -0.1181  0.2800
 1488W        W 5552   3.668   0.764   0.021  0.0305  0.1434  0.0713
 1489W        W 5553   1.450   4.207   8.133  0.1898  0.0753 -0.2926
 1490W        W 5554   8.181   9.710   0.720 -0.2626  0.0955 -0.0107
 1491W        W 5555  10.592   1.283   8.122  0.0714  0.3855 -0.2271
 1492W        W 5556   5.350   0.954   3.034  0.2706  0.0904  0.1463
 1493W        W 5557   1.479   6.163   1.923  0.3117 -0.0109 -0.0054
 1494W        W 5558   8.563   1.842   8.267 -0.0944 -0.0552 -0.4045
 1495W        W 5559   4.317   2.862   3.561 -0.2077  0.1183  0.2580
 1496W        W 5560   4.308   5.076   0.049  0.1568  0.0688 -0.2355
 1497W        W 5561   1.307   6.548   8.986 -0.2011  0.2834 -0.0149
 1498W        W 5562   8.447   3.221   9.717  0.1468 -0.0037  0.2361
 1499W        W 5563   5.628   2.498  11.539 -0.0516  0.1252  0.1688
 1500W        W 5564   3.656   2.856   0.187  0.3535  0.3483 -0.1374
 1501W        W 5565   6.588   4.113   9.474  0.2939 -0.4375 -0.2094
 1502W        W 5566   9.602   4.394   7.964  0.0205 -0.0193  0.0603
 1503W        W 5567   5.376   3.358   1.362  0.1173  0.1135  0.1102
 1504W        W 5568   4.686   4.345   2.265  0.0415 -0.2500  0.2462
 1505W        W 5569   0.925   4.070  10.696  0.1310 -0.2323 -0.1879
 1506W        W 5570   8.623   4.708   2.348  0.1829  0.1734  0.1510
 1507W        W 5571   5.184   1.318  10.718 -0.0902  0.1838 -0.2551
 1508W        W 5572   9.761   8.405   9.128  0.1480  0.3771  0.1063
 1509W        W 5573   6.337   7.478  10.383 -0.1135 -0.2957  0.0014
 1510W        W 5574   4.550   3.308   0.334  0.0945  0.1283 -0.0927
 1511W        W 5575   8.724   5.220   1.153 -0.2937  0.0351 -0.0571
 1512W        W 5576   5.577   2.026   2.262 -0.0657 -0.0816  0.1266
 1513W        W 5577   6.454  10.336   0.366  0.2571  0.1213 -0.1159
 1514W        W 5578   2.339   5.024   2.733  0.1325  0.2217  0.0833
 1515W        W 5579   3.182   4.818   1.202  0.0213  0.1790 -0.2980
 1516W        W 5580   1.497   4.135   3.804  0.1740 -0.0174  0.2770
 1517W        W 5581   8.951   1.367  10.847 -0.0986  0.1451 -0.0087
 1518W        W 5582   6.340   5.035   8.700 -0.0622 -0.1336  0.1441
 1519W        W 5583  10.214   0.945   9.493  0.0081 -0.0619 -0.1273
 1520W        W 5584  10.115   9.070   9.990  0.2167  0.0232 -0.1900
 1521W        W 5585   2.141   9.430   3.081  0.0737 -0.0394  0.1803
 1522W        W 5586   0.071   5.898   3.000 -0.0102 -0.1199 -0.2216
 1523W        W 5587   5.690   6.034   3.025 -0.0342 -0.0971  0.0879
 1524W        W 5588   4.040   4.345   8.901  0.1979 -0.1394  0.0577
 1525W        W 5589   2.628   7.054   1.217  0.1317 -0.4052  0.3684
 1526W        W 5590   3.956   2.195   2.016 -0.0824  0.2770 -0.4902
 1527W        W 5591   4.321   4.155   2.730  0.1258 -0.0526 -0.2702
 1528W        W 5592   2.489   3.607   1.233 -0.1374  0.0172  0.0670
 1529W        W 5593   8.316   6.070  11.280 -0.0616  0.1777 -0.0935
 1530W        W 5594   0.880   7.889  11.115 -0.0269 -0.5122  0.2415
 1531W        W 5595   3.589   7.178   2.571 -0.2369 -0.0971 -0.2217
 1532W        W 5596   3.805   3.681   3.959  0.0690  0.1762 -0.2471
 1533W        W 5597   6.725   2.608   8.222 -0.2422 -0.0484 -0.1766
 1534W        W 5598   5.806   3.608   2.466  0.0255 -0.3034  0.2215
 1535W        W 5599   1.661  10.470  10.750 -0.4212  0.3277 -0.0928
 1536W        W 5600   7.134   0.220   1.337 -0.1969  0.1818  0.1860
 1537W        W 5601   1.291  10.441   1.541  0.3497  0.2298  0.0708
 1538W        W 5602   8.813   0.498   8.251  0.0204 -0.3162 -0.2753
 1539W        W 5603   2.829   1.874   3.399  0.2896  0.0664 -0.1251
 1540W        W 5604   3.500   1.650   3.062  0.0728  0.3017  0.2191
 1541W        W 5605   1.614   0.198   8.437 -0.1193 -0.1742 -0.0675
 1542W        W 5606   5.856   7.232   9.390 -0.0289 -0.0012  0.1002
 1543W        W 5607   8.256   4.440   2.109  0.1607  0.1133 -0.0949
 1544W        W 5608   8.313   9.983   8.813 -0.2745  0.1166 -0.1151
 1545W        W 5609   9.589   6.523   8.581  0.1133  0.1136  0.0339
 1546W        W 5610   1.792   2.215   2.765  0.2451  0.1010 -0.0570
 1547W        W 5611   0.080   5.027   3.281  0.1086  0.1444  0.1169
 1548W        W 5612   0.380  10.266   2.391  0.1478 -0.0142  0.1172
 1549W        W 5613   7.513   7.566  10.750  0.4861 -0.0421 -0.0375
 1550W        W 5614   9.530   7.311   1.187 -0.0986  0.2333  0.0904
 1551W        W 5615   3.728   2.171   1.560  0.0142 -0.4311  0.1785
 1552W        W 5616   3.564   4.238   9.266 -0.1623  0.1565  0.4474
 1553W        W 5617   7.219   4.748   2.509 -0.0281  0.2828  0.0437
 1554W        W 5618  10.075   9.014   0.813 -0.1485  0.0211 -0.2390
 1555W        W 5619   8.926   5.150   9.250  0.2413 -0.0784 -0.0259
 1556W        W 5620   1.699   2.200   1.780 -0.2406  0.0040  0.0985
 1557W        W 5621   1.613   9.424   3.506  0.0412  0.0260 -0.0394
 1558W        W 5622   1.834   5.604  10.190 -0.1341  0.2596  0.0889
 1559W        W 5623   3.584   0.473   2.292 -0.0041  0.1049  0.1472
 1560W        W 5624   5.331   9.498   2.978  0.2000  0.2998  0.0597
 1561W        W 5625   3.742   7.029   8.267  0.2230 -0.3176 -0.2941
 1562W        W 5626   7.525   2.015   0.303 -0.0993  0.2885  0.0870
 1563W        W 5627  10.013   4.133  10.750 -0.0010  0.0747  0.0843
 1564W        W 5628   1.166   3.064   1.494 -0.2052 -0.0475 -0.0471
 1565W        W 5629   8.472   1.673   0.253  0.0205 -0.1848  0.4583
 1566W        W 5630   5.756   7.561  11.547  0.0364 -0.0406  0.0167
 1567W        W 5631  10.433   7.693   8.029  0.1789 -0.3126 -0.0810
 1568W        W 5632   9.609   9.972   9.080  0.1723 -0.1768 -0.0870
 1569W        W 5633   0.820   4.201   8.919  0.5826 -0.0237  0.3346
 1570W        W 5634  10.387   1.897   0.237  0.0712 -0.1177  0.0265
 1571W        W 5635   3.376   0.566   2.787 -0.0880  0.2417  0.1842
 1572W        W 5636   5.688   4.711   1.344  0.1142  0.2288  0.5475
 1573W        W 5637   9.931   5.833   9.058 -0.1205  0.0174 -0.1630
 1574W        W 5638   6.681   8.955   3.343 -0.0534  0.2640  0.2367
 1575W        W 5639   3.258   3.541   2.686  0.0536  0.2014  0.2673
 1576W        W 5640   4.458  10.204   3.770 -0.0415 -0.0055 -0.1972
 1577W        W 5641   8.304   4.532  11.049 -0.0075  0.0912  0.0102
 1578W        W 5642   8.773   4.297   0.969 -0.3544  0.1183  0.0280
 1579W        W 5643   7.918   8.934   9.423  0.0033 -0.1880  0.3052
 1580W        W 5644   0.227   7.768   9.520  0.0941  0.2180 -0.1713
 1581W        W 5645   6.038   2.782   0.104  0.0373  0.1402 -0.0610
 1582W        W 5646   5.403   9.493   8.301 -0.3663  0.0799 -0.0556
 1583W        W 5647   1.600   4.943   2.213  0.0088 -0.5443  0.0910
 1584W        W 5648   2.740   0.156   0.949  0.1470  0.1573  0.0120
 1585W        W 5649   1.015   7.260   1.319 -0.0279  0.1485 -0.0867
 1586W        W 5650   8.974   8.021  10.281 -0.2338 -0.0643 -0.1583
 1587W        W 5651   3.754   5.021   1.264  0.0233  0.0676 -0.3115
 1588W        W 5652   9.075  10.270   8.157 -0.0084 -0.1667 -0.1543
 1589W        W 5653   5.810   3.178  10.394  0.0614 -0.0518  0.1812
 1590W        W 5654   1.057   0.253   1.495  0.3253 -0.1349 -0.1429
 1591W        W 5655   9.877   3.855   2.250 -0.3179  0.0309  0.0576
 1592W        W 5656   0.385   6.017   2.648  0.0086 -0.2670  0.0055
 1593W        W 5657   0.437   0.289   9.611  0.0942  0.1394  0.0371
 1594W        W 5658   2.825   8.247   0.706  0.1395  0.0185  0.2283
 1595W        W 5659   1.642   7.722   9.374 -0.0925 -0.0370 -0.1486
 1596W        W 5660   4.236   1.758   2.017  0.1098 -0.0732  0.0267
 1597W        W 5661   5.239   7.438   1.060 -0.0195 -0.2153  0.0314
 1598W        W 5662   6.449   3.397   7.619 -0.1830 -0.0626  0.3498
 1599W        W 5663   8.497   9.959   3.023 -0.1800 -0.1084 -0.0209
 1600W        W 5664   4.950  10.585   9.803 -0.1060  0.0528 -0.1367
 1601W        W 5665   8.333   9.530   2.288 -0.1695  0.1719  0.1552
 1602W        W 5666   5.177  10.494  10.650 -0.0202 -0.0420 -0.0515
 1603W        W 5667  10.453   7.178   9.809  0.3351  0.0906  0.0107
 1604W        W 5668   5.811   9.375   3.023  0.0008 -0.1767  0.2103
 1605W        W 5669   4.459   4.601   8.661 -0.1348  0.1592 -0.1505
 1606W        W 5670   9.902   2.148   0.127 -0.2842  0.0044  0.0087
 1607W        W 5671  10.019   1.153   2.775 -0.0412  0.0559  0.3209
 1608W        W 5672   5.074   9.022   3.478 -0.3118  0.1865 -0.2399
 1609W        W 5673   9.233   7.009   9.742  0.0112  0.1849 -0.2036
 1610W        W 5674   1.078   0.146   8.261 -0.1944  0.2503  0.1496
 1611W        W 5675   9.655   2.083   7.709 -0.1873 -0.0598 -0.3777
 1612W        W 5676   7.799   8.253   9.100 -0.1493  0.3953 -0.3826
 1613W        W 5677   4.527  10.636   2.165 -0.0338  0.2615  0.0049
 1614W        W 5678   8.328   3.448   9.069 -0.1106 -0.2323  0.0228
 1615W        W 5679   0.853  10.350  10.728  0.0821  0.3110  0.2901
 1616W        W 5680   1.797   8.847  11.479  0.0080 -0.0209 -0.0180
 1617W        W 5681   4.541   8.818   1.257  0.0182  0.0180  0.0819
 1618W        W 5682   9.852   9.116   1.280 -0.2740 -0.3313  0.0831
 1619W        W 5683   5.164   2.124   2.497  0.0751 -0.1089 -0.0268
 1620W        W 5684   9.788   6.189   1.171  0.2814 -0.2120 -0.1776
 1621W        W 5685  10.166   2.536  11.195  0.2760 -0.0107 -0.0305
 1622W        W 5686   3.490   3.863   8.740 -0.1377  0.1424  0.0862
 1623W        W 5687   0.146   8.936  10.769 -0.0969 -0.2971  0.0111
 1624W        W 5688   5.402   5.022   0.730  0.0608 -0.0905  0.1123
 1625W        W 5689   5.761   5.419   7.856 -0.0106 -0.0349  0.2492
 1626W        W 5690   3.539   0.506   9.479  0.0422  0.1062  0.0626
 1627W        W 5691   1.413   5.466   9.881 -0.0913 -0.1173  0.2011
 1628W        W 5692   6.253   4.501   9.071  0.0219 -0.0655  0.0243
 1629W        W 5693   4.567   8.136   0.099  0.1044  0.1676  0.3391
 1630W        W 5694   0.130   7.289   7.903 -0.1828 -0.0954 -0.2045
 1631W        W 5695   9.989   3.596  11.475 -0.0544  0.0236  0.5043
 1632W        W 5696   9.396   8.791   9.368 -0.0702 -0.2143 -0.3038
 1633W        W 5697   3.133   5.062   2.424 -0.2216  0.1402  0.1794
 1634W        W 5698   4.315   3.051   0.724 -0.1212  0.1089 -0.0253
 1635W        W 5699   1.797   3.219   9.974  0.1761  0.3262 -0.0126
 1636W        W 5700   9.401   9.272   1.038  0.2297 -0.1049 -0.0484
 1637W        W 5701   7.073   1.461   1.112 -0.1780  0.1070 -0.2329
 1638W        W 5702   6.762   7.233   3.705 -0.2207 -0.0787 -0.0395
 1639W        W 5703   1.221  10.253   0.528  0.1752  0.1264 -0.0632
 1640W        W 5704   6.974   8.798  11.073 -0.3261  0.1654 -0.0527
 1641W        W 5705   3.791   0.281   0.120 -0.0232  0.0042  0.1614
 1642W        W 5706   4.531   4.280  10.204  0.0553  0.1279  0.0467
 1643W        W 5707  10.370   8.870  10.907 -0.1222 -0.4349 -0.0127
 1644W        W 5708   7.362   5.593   9.405  0.1243  0.1128  0.0994
 1645W        W 5709   6.283   2.656   4.123  0.0293 -0.1580  0.0973
 1646W        W 5710   8.285   1.694   9.185  0.0278  0.1334  0.0333
 1647W        W 5711   5.418   2.242   2.923 -0.1549  0.2176 -0.1360
 1648W        W 5712   7.853   0.951   2.890 -0.1898 -0.1244 -0.1427
 1649W        W 5713   8.901   2.322   9.644 -0.0724  0.2501  0.0232
 1650W        W 5714   1.636   1.802   1.456 -0.0350  0.0068 -0.0695
 1651W        W 5715   3.839   5.933   8.190  0.3018  0.0817  0.2047
 1652W        W 5716   3.154   5.760   1.683  0.3899 -0.1231 -0.0311
 1653W        W 5717   2.554   9.823   2.947  0.0431  0.3534  0.1291
 1654W        W 5718   0.744  10.293   0.850 -0.1028  0.1346 -0.0276
 1655W        W 5719   4.149   3.233   8.573  0.0321  0.0522 -0.0103
 1656W        W 5720   2.743  10.370   4.308 -0.0514 -0.0621  0.0291
 1657W        W 5721   8.938   2.785  10.756 -0.1159 -0.0688 -0.1492
 1658W        W 5722   8.516   6.488   1.692  0.0780  0.0004 -0.5039
 1659W        W 5723   9.159   5.925   4.290  0.3281  0.0637  0.0116
 1660W        W 5724   7.383   4.349   1.639 -0.1786  0.4359  0.1178
 1661W        W 5725   6.820   5.236   8.829 -0.1657  0.0105  0.0066
 1662W        W 5726   4.765   5.305  10.038 -0.3779  0.1371 -0.0115
 1663W        W 5727  10.615   9.374  11.103 -0.1550 -0.2989 -0.1216
 1664W        W 5728  10.124  10.050   2.722 -0.0399  0.1507  0.0212
 1665W        W 5729   3.941   8.129   1.303 -0.1987  0.2625 -0.0003
 1666W        W 5730   0.999   1.908   2.331 -0.0879 -0.3198  0.0226
 1667W        W 5731   6.732   6.282   8.849  0.2792 -0.0158 -0.0972
 1668W        W 5732   6.775   3.027  10.712  0.1210 -0.0532  0.0081
 1669W        W 5733   6.987   9.175   8.447 -0.3377 -0.0253 -0.2364
 1670W        W 5734   8.957   7.736  11.244 -0.0201  0.2138  0.1727
 1671W        W 5735   0.726   0.547  10.143 -0.0781  0.0075 -0.1780
 1672W        W 5736   4.499   4.222  11.197  0.0597 -0.1061 -0.4207
 1673W        W 5737   7.461   4.144   8.319  0.2413  0.0201 -0.1961
 1674W        W 5738  10.605   1.363   0.136 -0.1726 -0.0496 -0.0316
 1675W        W 5739   5.559   8.090   0.912 -0.1968  0.0898 -0.0278
 1676W        W 5740   5.473  10.416   9.680  0.1209 -0.0684 -0.0558
 1677W        W 5741   2.442   6.880   2.431 -0.1109 -0.3043  0.1115
 1678W        W 5742  10.427   9.064   2.655 -0.0297  0.1473 -0.1597
 1679W        W 5743   1.000   5.521   0.626  0.0819 -0.0958  0.1131
 1680W        W 5744   2.506   7.908   1.074 -0.3447 -0.2517  0.2457
 1681W        W 5745   5.797   5.967  10.501 -0.3455 -0.1896  0.3536
 1682W        W 5746   2.603   1.081   3.637  0.0551 -0.0256  0.0204
 1683W        W 5747   6.292   7.437  11.014 -0.1338  0.1553 -0.1403
 1684W        W 5748   5.976   7.315  10.044  0.2497  0.2966  0.0614
 1685W        W 5749   5.680   2.163   8.822  0.0905  0.3585  0.2015
 1686W        W 5750   0.039   3.939  10.465  0.0454  0.0757  0.1718
 1687W        W 5751  10.157   4.834   1.214  0.1298 -0.0009  0.0633
 1688W        W 5752   0.513  10.480   9.357 -0.2882  0.0035  0.1100
 1689W        W 5753   9.071   5.681   9.148  0.0659 -0.0350  0.2271
 1690W        W 5754   5.650   7.000  10.213 -0.0436  0.1859 -0.0199
 1691W        W 5755   1.758   1.442   3.177  0.2110  0.0054 -0.2064
 1692W        W 5756   6.258   3.266   9.866 -0.3953  0.0190 -0.0650
 1693W        W 5757   6.950   5.245   0.554  0.3059  0.1381  0.2084
 1694W        W 5758   4.970   7.245   3.264  0.0347 -0.2174 -0.2582
 1695W        W 5759   0.422  10.115   1.928  0.0185  0.0124 -0.2737
 1696W        W 5760   9.447   5.378   9.149 -0.0562 -0.0387  0.0304
 1697W        W 5761   0.803   6.815   0.823  0.2017 -0.3657  0.3252
 1698W        W 5762   5.516   9.015   9.436  0.1505 -0.2216 -0.4184
 1699W        W 5763   1.627   9.018  10.576  0.1923 -0.0707 -0.2596
 1700W        W 5764   1.251   6.343   9.525 -0.0436  0.1769 -0.4723
 1701W        W 5765   3.204   3.577   8.416  0.1334 -0.2394 -0.3723
 1702W        W 5766   1.733   3.251   0.938  0.0602  0.0693  0.0546
 1703W        W 5767   9.186   2.209   2.958  0.1208 -0.0428 -0.1044
 1704W        W 5768   0.642   5.715   8.385 -0.2581  0.0011 -0.1596
 1705W        W 5769   5.346   2.637   8.558  0.3388 -0.0156 -0.1746
 1706W        W 5770   5.270   5.112   8.865 -0.2916 -0.1802 -0.0823
 1707W        W 5771   9.653   1.993   1.359 -0.2086  0.0202  0.1104
 1708W        W 5772   8.867   4.067   1.393  0.1645 -0.1562 -0.0117
 1709W        W 5773   6.015   9.502   0.397  0.1085 -0.0966 -0.2724
 1710W        W 5774  10.157   8.344  10.881  0.1500  0.1599 -0.2087
 1711W        W 5775   2.526   7.816   2.490 -0.2130 -0.5671  0.2468
 1712W        W 5776   5.793   6.796   8.626  0.1585 -0.6171  0.0767
 1713W        W 5777   8.188   9.469  10.942  0.1419 -0.1286 -0.0219
 1714W        W 5778  10.616   1.092   1.940  0.0582  0.1194  0.0140
 1715W        W 5779   3.135   5.292  10.486  0.1673 -0.0692  0.0181
 1716W        W 5780   5.562   3.839   7.912 -0.3948 -0.0492 -0.0399
 1717W        W 5781   1.530   0.623   1.455  0.4140  0.0235 -0.1663
 1718W        W 5782   5.943   0.729  11.423  0.2063  0.0871 -0.0613
 1719W        W 5783   5.103   4.020  10.213  0.0047 -0.1935 -0.0768
 1720W        W 5784   5.726   1.824   8.421  0.0653  0.0757  0.1310
 1721W        W 5785   0.398   4.971   9.431 -0.0233  0.0425  0.1562
 1722W        W 5786   7.907   6.840   9.997 -0.1552 -0.4331 -0.2185
 1723W        W 5787   8.145   0.823   8.129 -0.0146 -0.3855 -0.3810
 1724W        W 5788   0.927  10.647  11.546 -0.0125 -0.1195 -0.0882
 1725W        W 5789   4.626   9.775   0.263  0.3084  0.1370 -0.0146
 1726W        W 5790   5.768   7.606   9.695 -0.0403 -0.0495 -0.3391
 1727W        W 5791   5.706   3.074  10.867  0.1022  0.3817 -0.1556
 1728W        W 5792   9.194   1.895   9.443 -0.0283 -0.0805  0.1279
 1729W        W 5793   3.017   2.383  11.222 -0.0636 -0.2458  0.2568
 1730W        W 5794   5.948   5.814  10.957 -0.3178 -0.0859 -0.1325
 1731W        W 5795   5.794   6.745   9.806 -0.3264  0.0005  0.0631
 1732W        W 5796   5.587   8.570  11.195  0.0826 -0.0772  0.0356
 1733W        W 5797   4.182   3.065   2.043  0.1328  0.0514  0.2832
 1734W        W 5798   4.102   8.159   2.928  0.0064  0.2511  0.1684
 1735W        W 5799   8.689   7.440   9.058 -0.2188  0.0472  0.0431
 1736W        W 5800   2.793   0.553  10.956 -0.0158  0.1123 -0.0427
 1737W        W 5801   9.104   9.331   2.688 -0.1202 -0.0730 -0.0904
 1738W        W 5802   0.060   0.412   0.245  0.0144  0.0189 -0.4881
 1739W        W 5803   2.622   9.341   9.409 -0.1857 -0.0459 -0.0225
 1740W        W 5804   2.739   4.482   7.813  0.1265 -0.2027  0.1796
 1741W        W 5805   4.376   2.141   2.292 -0.0672  0.0045 -0.0455
 1742W        W 5806   1.668   6.599   2.916  0.0827 -0.1509  0.1130
 1743W        W 5807   7.121   6.751   9.191  0.0865  0.1303 -0.1594
 1744W        W 5808   1.676   5.089   3.157  0.2052  0.0736  0.0065
 1745W        W 5809   1.622   1.359   1.217  0.2361  0.0971  0.2508
 1746W        W 5810   2.534   3.302  11.296  0.1669  0.0346 -0.0793
 1747W        W 5811  10.248   2.398   9.773  0.2494  0.3552 -0.1595
 1748W        W 5812   0.200   5.867   9.608 -0.4108 -0.0932  0.1509
 1749W        W 5813   2.500   5.419   8.536  0.2753 -0.0819  0.0213
 1750W        W 5814   9.914   4.340   2.455  0.2461  0.1495 -0.3597
 1751W        W 5815   5.937   2.724   9.461 -0.0738 -0.1214  0.0979
 1752W        W 5816   1.298   6.649   3.281 -0.4103 -0.0959 -0.2875
 1753W        W 5817   6.366   7.167   8.671  0.1576  0.2396  0.0472
 1754W        W 5818   9.892   7.863   4.014  0.1428 -0.0973  0.1171
 1755W        W 5819   7.056   9.056   9.738  0.1061  0.1567  0.0168
 1756W        W 5820   3.885   7.911   8.545  0.3781 -0.1611 -0.3291
 1757W        W 5821   7.742   5.395   9.101  0.0082 -0.0796  0.1625
 1758W        W 5822   8.413   4.162   9.612 -0.0647  0.0533 -0.2708
 1759W        W 5823   5.449   2.566   2.455 -0.2602  0.2618 -0.2746
 1760W        W 5824   7.848   6.335   0.401  0.0912  0.0987 -0.1638
 1761W        W 5825   6.215   1.843   9.151 -0.0250  0.2571 -0.3336
 1762W        W 5826   0.412   7.201   3.113 -0.0161 -0.2110  0.1092
 1763W        W 5827   4.472   0.013   0.810 -0.5094 -0.0262  0.2713
 1764W        W 5828   9.712   7.528  10.817  0.1643  0.3631  0.1129
 1765W        W 5829   0.927   6.787   1.534 -0.1401  0.1019  0.1784
 1766W        W 5830   9.111   1.576   9.956 -0.0259  0.0487 -0.1458
 1767W        W 5831   4.762   1.818   0.459 -0.1521 -0.1507  0.0081
 1768W        W 5832   0.331   9.884   0.104  0.0020  0.1611  0.0480
 1769W        W 5833   5.808   9.732   8.553  0.4677  0.2360  0.0360
 1770W        W 5834   4.155   9.040   1.543  0.2428  0.0272  0.0663
 1771W        W 5835  10.582   4.739  10.509 -0.0181 -0.0781  0.1898
 1772W        W 5836   9.401   0.221   2.099  0.2661 -0.2640 -0.1058
 1773W        W 5837   8.318  10.532   9.827  0.1504 -0.1421  0.0145
 1774W        W 5838   6.561   0.903  11.458 -0.0169 -0.0191  0.0247
 1775W        W 5839  10.134   8.089   8.308  0.0406 -0.3157  0.0156
 1776W        W 5840   4.585   8.180   7.563  0.1087 -0.1158 -0.2714
 1777W        W 5841   5.569  10.257   2.817 -0.2076  0.0083 -0.0393
 1778W        W 5842   1.769   5.241   0.451 -0.1295 -0.1236  0.1622
 1779W        W 5843  10.413   8.303   8.645 -0.0649  0.0241 -0.2084
 1780W        W 5844   6.015   8.318   0.628  0.0890 -0.0872  0.1024
 1781W        W 5845   1.324   7.528   1.845  0.0535 -0.0919 -0.4007
 1782W        W 5846   2.841   5.508  10.918 -0.1098  0.1490 -0.0430
 1783W        W 5847  10.009   0.659   2.727  0.0048  0.4259  0.0847
 1784W        W 5848   1.932   4.160   0.100  0.1790 -0.4976  0.0281
 1785W        W 5849   9.370   9.022  10.645  0.0970 -0.0319 -0.0363
 1786W        W 5850   6.916   8.226  10.190 -0.1838  0.1242  0.1514
 1787W        W 5851   6.926   3.079   7.520 -0.3909  0.0712  0.2155
 1788W        W 5852   1.651   6.792   3.580 -0.1815  0.1525 -0.1923
 1789W        W 5853   1.849  10.572   2.634 -0.0205  0.0423 -0.0460
 1790W        W 5854   0.564   5.309   7.991  0.2636  0.0673  0.2590
 1791W        W 5855   8.415   3.413  10.208 -0.2671 -0.3861 -0.0362
 1792W        W 5856   0.040   5.841   0.052 -0.1776 -0.1886  0.2295
 1793W        W 5857   7.808   6.907   2.615 -0.1198  0.0844 -0.1411
 1794W        W 5858   5.744   1.637  10.289 -0.1757  0.2989  0.0590
 1795W        W 5859   0.500   9.447   8.282 -0.1656 -0.0922 -0.2718
 1796W        W 5860   8.566   5.621   3.578  0.0700 -0.2899  0.0748
 1797W        W 5861   8.511   8.477   0.247 -0.1448  0.2004 -0.1972
 1798W        W 5862   7.742   1.812   2.649 -0.1815  0.2094 -0.3854
 1799W        W 5863  10.405  10.299   0.370  0.0499 -0.0180 -0.1550
 1800W        W 5864   8.593   1.591   3.450  0.1293  0.3702 -0.0202
 1801W        W 5865   2.959   0.947  10.537  0.0240  0.2927  0.1233
 1802W        W 5866   8.728   3.335   3.041 -0.2390 -0.3350  0.2835
 1803W        W 5867   4.003   0.735   9.504  0.1409  0.1801  0.1982
 1804W        W 5868   3.413   6.917   0.884 -0.0396 -0.0459 -0.0700
 1805W        W 5869   5.674   0.493   9.366 -0.0119  0.1624 -0.2075
 1806W        W 5870  10.262   8.020   9.179 -0.1119 -0.1318  0.0116
 1807W        W 5871   0.293   6.370   9.969 -0.0009 -0.1398  0.1867
 1808W        W 5872   4.825   2.978   2.149  0.2055 -0.1241  0.0200
 1809W        W 5873   1.174   3.024   1.973 -0.2883 -0.0909 -0.0734
 1810W        W 5874   5.178   0.627   2.340  0.0641 -0.1254 -0.0369
 1811W        W 5875   9.450   2.829   0.957 -0.0245 -0.0996 -0.1416
 1812W        W 5876   5.439   8.937   0.278  0.2649  0.2778 -0.1440
 1813W        W 5877   8.757   2.298   8.047 -0.2245 -0.0066 -0.1670
 1814W        W 5878   8.859   9.148   0.999 -0.1200  0.2404  0.2987
 1815W        W 5879   7.978   2.451   9.344 -0.0486 -0.0307 -0.1807
 1816W        W 5880   2.088   9.556   1.624  0.3304 -0.1958  0.1840
 1817W        W 5881   6.098   2.791  10.727  0.0780 -0.2536  0.1022
 1818W        W 5882   1.336   9.529  10.486 -0.1366 -0.0600 -0.2945
 1819W        W 5883   5.403   7.445   0.383 -0.0648 -0.2228 -0.2076
 1820W        W 5884   7.054   5.306   3.699  0.2311  0.2601 -0.0464
 1821W        W 5885   4.996   3.777   3.637  0.1157 -0.0425 -0.0787
 1822W        W 5886   4.785   4.884   0.095 -0.1290  0.0220  0.0452
 1823W        W 5887   2.373   1.718   0.119  0.0311 -0.1410 -0.0401
 1824W        W 5888   0.368   6.432   8.374 -0.0040  0.0001  0.0192
 1825W        W 5889   3.486   3.072   1.707 -0.0263 -0.3405 -0.5543
 1826W        W 5890   1.402   9.085   2.662 -0.1316  0.0771  0.1170
 1827W        W 5891   8.160   6.380   1.303 -0.1915 -0.1198  0.1906
 1828W        W 5892   4.156   6.828   1.241 -0.0780 -0.0328 -0.3305
 1829W        W 5893   8.828   9.981  11.429  0.1501  0.0346  0.1840
 1830W        W 5894   8.298   9.640   1.262 -0.2368 -0.1578 -0.0172
 1831W        W 5895   2.289  10.447   7.111  0.1228  0.1474 -0.1062
 1832W        W 5896   4.772   4.788   1.995  0.0805 -0.0051  0.0260
 1833W        W 5897   9.687   0.029   8.924  0.2741  0.0894 -0.0395
 1834W        W 5898   9.022  10.203   1.294 -0.1629 -0.0035  0.0419
 1835W        W 5899   2.094   6.692   1.672  0.0903 -0.2223  0.0292
 1836W        W 5900   4.347   1.706   0.225 -0.0736  0.3824 -0.0778
 1837W        W 5901   7.599   4.791   2.118  0.2275 -0.2620  0.0992
 1838W        W 5902   9.782   7.508   3.170 -0.0776  0.2382  0.0959
 1839W        W 5903   5.263   5.427   0.420  0.2428  0.0325  0.0544
 1840W        W 5904   2.975   9.657   3.144 -0.2850  0.2602  0.1648
 1841W        W 5905   1.853   6.048   0.451 -0.0174  0.5156 -0.0032
 1842W        W 5906   8.213   3.796  10.430  0.0331 -0.2068  0.0215
 1843W        W 5907   6.351   8.311   0.240  0.0562 -0.0050 -0.1418
 1844W        W 5908   5.093   9.418   8.895  0.1132 -0.1985  0.2125
 1845W        W 5909   6.016   3.176   8.453  0.0933 -0.0705 -0.3435
 1846W        W 5910   2.205   9.198   3.504  0.1271  0.0192 -0.2551
 1847W        W 5911   0.876  10.648   9.969 -0.2024  0.2214  0.0025
 1848W        W 5912   7.048   5.958   8.726 -0.1274  0.1818 -0.1246
 1849W        W 5913   6.302   4.425   9.811 -0.0963  0.1943 -0.1732
 1850W        W 5914   8.321  10.421   2.865  0.0134  0.1058  0.1710
 1851W        W 5915  10.011   7.160   1.328  0.2640 -0.0192  0.0678
 1852W        W 5916   5.710   5.486  10.688  0.0027 -0.1180  0.1800
 1853W        W 5917   4.708   3.191   9.990  0.0816 -0.2209  0.0024
 1854W        W 5918   3.334   7.776  10.278  0.1834  0.4540 -0.0477
 1855W        W 5919   9.998   5.983   2.378  0.2277  0.0143 -0.1870
 1856W        W 5920   0.082   6.943   2.844  0.2281 -0.1391 -0.1716
 1857W        W 5921  10.561   9.787  11.405 -0.0423 -0.1934 -0.3508
 1858W        W 5922   7.162   6.998  11.452  0.0880  0.1766  0.0236
 1859W        W 5923   0.295   0.957   2.317  0.0490  0.1501  0.0582
 1860W        W 5924   3.004   4.360   3.869 -0.2178  0.1786 -0.1186
 1861W        W 5925   8.568   4.136   2.455  0.1989 -0.1077  0.0683
 1862W        W 5926   1.720   0.732   9.722  0.0690 -0.1154 -0.2946
 1863W        W 5927   8.934   3.289   9.882  0.1779 -0.0628 -0.0644
 1864W        W 5928   1.364   7.044   8.915 -0.3446  0.2061 -0.2215
 1865W        W 5929   3.486   1.872   1.212 -0.0463 -0.3857  0.0116
 1866W        W 5930   8.098   5.397   3.729  0.1120  0.3535  0.1932
 1867W        W 5931   7.218   7.090   2.939  0.2872 -0.3078 -0.2209
 1868W        W 5932   4.488   6.670   8.866 -0.0271  0.1059  0.2930
 1869W        W 5933   6.411   7.928   1.207 -0.1362 -0.2608  0.0474
 1870W        W 5934   1.733   4.188   3.292  0.2852 -0.0695  0.0700
 1871W        W 5935   6.186   0.947  10.652 -0.0052  0.4414 -0.0597
 1872W        W 5936   1.398   5.785   2.210 -0.1461 -0.1679 -0.0499
 1873W        W 5937   0.173   0.834   9.688  0.1544 -0.1003 -0.1772
 1874W        W 5938  10.163   0.908   2.084  0.1437  0.2197 -0.2117
 1875W        W 5939   5.702   6.317   0.624 -0.3316 -0.0367 -0.1255
 1876W        W 5940   7.687  10.629  10.578 -0.0353  0.2266  0.0333
 1877W        W 5941   1.886   3.982   8.047 -0.0793  0.4519  0.4199
 1878W        W 5942   3.082   7.316   7.659  0.2856  0.0505 -0.1775
 1879W        W 5943   6.121   2.769   1.690 -0.0599  0.1458 -0.0910
 1880W        W 5944   6.109   7.656   9.231  0.1288  0.2045 -0.1182
 1881W        W 5945   1.710   3.733   0.785 -0.0808 -0.0920  0.0331
 1882W        W 5946   2.142   8.760   7.558  0.1307 -0.2528 -0.1710
 1883W        W 5947   8.742   5.781  11.064  0.0416  0.1396  0.1234
 1884W        W 5948  10.005   9.517   3.092  0.2586  0.0774 -0.1350
 1885W        W 5949   5.554   1.229   8.882  0.0262  0.2233 -0.1059
 1886W        W 5950   7.353   1.093   1.318 -0.0706 -0.2714  0.1437
 1887W        W 5951   0.863   0.453  11.365 -0.1646  0.1375 -0.2072
 1888W        W 5952   9.102   6.227   8.218 -0.4134 -0.2557  0.0471
 1889W        W 5953   6.802   4.617   2.145  0.0194 -0.0082 -0.5054
 1890W        W 5954   0.218   4.938   0.633 -0.1054 -0.2990 -0.1446
 1891W        W 5955  10.627   9.937  10.943  0.0578 -0.1053  0.0400
 1892W        W 5956   0.359   9.704  11.179 -0.0512  0.0787  0.0261
 1893W        W 5957   1.830   2.820  10.330 -0.3892 -0.0006 -0.0245
 1894W        W 5958   5.837   2.440   3.202 -0.0855 -0.1549  0.1422
 1895W        W 5959   7.398  10.144  10.645 -0.2511 -0.0358  0.1338
 1896W        W 5960   1.632   3.343   8.364  0.2585  0.0414 -0.0181
 1897W        W 5961   2.178   7.119   8.204  0.0664  0.0230 -0.2084
 1898W        W 5962   5.617   2.837   1.679  0.0208  0.1166  0.1845
 1899W        W 5963   8.707  10.280   2.594  0.0859  0.0141  0.1130
 1900W        W 5964   2.200   0.444  10.223 -0.0617  0.2269 -0.1538
 1901W        W 5965   4.109   7.681   9.053 -0.3060  0.2198  0.2191
 1902W        W 5966   2.400   8.799   2.329  0.1530  0.2333 -0.2204
 1903W        W 5967   0.642   3.536   0.298  0.0996  0.0949 -0.1238
 1904W        W 5968   5.092   6.222   3.561  0.1365 -0.2206 -0.3203
 1905W        W 5969   0.541   5.908   0.043 -0.2583 -0.3299 -0.1527
 1906W        W 5970   6.516   2.545   1.281 -0.0779  0.3912 -0.1822
 1907W        W 5971   3.865   3.326   0.490 -0.2292  0.2974 -0.3115
 1908W        W 5972   7.424   1.420   8.710  0.0690  0.0306 -0.0755
 1909W        W 5973   2.254   3.750   3.624 -0.1492  0.2382  0.0978
 1910W        W 5974   1.817   4.039   2.334  0.0003 -0.1977  0.0760
 1911W        W 5975   4.945   5.029   0.558  0.1120 -0.0660  0.3279
 1912W        W 5976   3.358   8.878   2.509 -0.0633 -0.2903  0.1368
 1913W        W 5977   4.968   0.503  10.476  0.1989 -0.0808  0.1734
 1914W        W 5978   6.329   9.111  10.007  0.1906  0.2785 -0.0996
 1915W        W 5979   4.976   1.356   2.279  0.0311  0.0671  0.1212
 1916W        W 5980  10.645   1.757   2.858 -0.0043 -0.0848 -0.0852
 1917W        W 5981   6.909   2.932   8.639 -0.0748  0.0201 -0.2517
 1918W        W 5982   7.595   5.648  11.363 -0.0548 -0.0165  0.0669
 1919W        W 5983   7.348   3.398   7.818  0.0113 -0.2503 -0.2283
 1920W        W 5984   7.450   8.647   9.183  0.2718 -0.0219  0.1830
 1921W        W 5985   0.098   5.165   2.231 -0.0337  0.2549 -0.0271
 1922W        W 5986   1.639   8.514  10.930  0.1895 -0.1420 -0.1472
 1923W        W 5987   7.761   6.326   8.972  0.0174 -0.1231  0.1332
 1924W        W 5988  10.093   5.310  11.091  0.2686  0.0607  0.1182
 1925W        W 5989   8.024   4.642  10.663  0.0058  0.0537 -0.0712
 1926W        W 5990  10.351   4.198  11.275 -0.2450 -0.0149 -0.2273
 1927W        W 5991   5.657   3.196   9.400 -0.1834  0.3089  0.0177
 1928W        W 5992   5.883   2.186   2.607 -0.1597  0.3463 -0.1494
 1929W        W 5993   1.649   4.645   8.728 -0.1667 -0.0481 -0.3166
 1930W        W 5994   9.471   8.005   3.671 -0.0950  0.1800  0.4253
 1931W        W 5995   6.491   7.132   2.033 -0.3415  0.3051 -0.2788
 1932W        W 5996   3.144   9.068   3.671 -0.1907 -0.0710 -0.0799
 1933W        W 5997   1.775   9.809   2.198  0.3268  0.1946  0.0730
 1934W        W 5998   0.398   3.420  11.040 -0.2157 -0.1625  0.0044
 1935W        W 5999   9.036   3.220   2.501  0.1570  0.4368  0.0318
 1936W        W 6000   9.585   4.615   0.026 -0.1062 -0.0821  0.0356
 1937W        W 6001   8.722   4.551   1.351  0.4018 -0.2871  0.2379
 1938W        W 6002   0.321   9.117   9.186  0.0881 -0.0755 -0.1187
 1939W        W 6003   5.163   3.431   3.328 -0.4162 -0.2064  0.3021
 1940W        W 6004   8.920   9.925   9.585  0.0538  0.1204  0.1194
 1941W        W 6005   5.463   4.531   0.931  0.1268 -0.1559  0.1711
 1942W        W 6006   7.817   0.703   9.931  0.0654 -0.4333  0.0575
 1943W        W 6007   9.863   6.931   3.103  0.0524 -0.0668 -0.1002
 1944W        W 6008   1.189   8.956   1.426 -0.5477  0.1006  0.1642
 1945W        W 6009   8.329   7.874   8.357  0.0159 -0.1094  0.2537
 1946W        W 6010   7.539   8.323   0.799 -0.1590  0.0160  0.1903
 1947W        W 6011   1.666  10.092   1.753  0.1948  0.2462  0.1270
 1948W        W 6012   7.230   0.572   9.904  0.0539 -0.0636  0.1860
 1949W        W 6013   0.097   5.110   1.633 -0.0832 -0.3024 -0.3562
 1950W        W 6014   6.943   6.303   2.655  0.1049  0.0355 -0.2876
 1951W        W 6015   6.666   0.539   3.086  0.0822 -0.0299 -0.2134
 1952W        W 6016   0.655  10.362  11.188 -0.1057 -0.1171 -0.1336
 1953W        W 6017   7.894   2.820   0.985  0.1800 -0.1246  0.0821
 1954W        W 6018   7.679   8.869   0.831  0.3642  0.2892  0.0913
 1955W        W 6019   4.735  10.469   3.287 -0.1569  0.0771  0.0335
 1956W        W 6020   0.429   6.596   8.853  0.0189  0.1543  0.1083
 1957W        W 6021  10.049   8.081   1.583  0.2982 -0.3867 -0.0801
 1958W        W 6022   5.219   0.079   9.386  0.1114  0.0810 -0.0647
 1959W        W 6023   4.186   2.956   0.256  0.1370  0.0909  0.3163
 1960W        W 6024   0.392   0.896   1.711 -0.0367  0.0136 -0.1823
 1961W        W 6025   5.139   9.651   9.907 -0.1056  0.0815 -0.0478
 1962W        W 6026   1.329   2.600   8.505  0.1926  0.1543  0.2570
 1963W        W 6027   4.137   1.499   4.045  0.1586  0.1424  0.0838
 1964W        W 6028   1.794   9.758   1.198 -0.1342  0.1498 -0.1501
 1965W        W 6029   4.484   4.840   1.090 -0.1265 -0.2676 -0.0309
 1966W        W 6030   6.899   4.803  10.268  0.2387 -0.0099  0.0886
 1967W        W 6031   4.119   0.660  11.389  0.1090 -0.1841 -0.1384
 1968W        W 6032   3.877   0.375   7.936 -0.2033  0.1282  0.0579
 1969W        W 6033   2.909   6.608   2.119  0.3447 -0.0195  0.1727
 1970W        W 6034   8.940   7.833   3.176 -0.0417  0.0415 -0.1442
 1971W        W 6035   1.138   0.135   2.000 -0.0331  0.1434  0.1971
 1972W        W 6036   2.646   6.719  10.446 -0.1643  0.1348 -0.1572
 1973W        W 6037   3.712   0.053   1.229 -0.0525  0.2557  0.2812
 1974W        W 6038  10.116   4.603   0.042 -0.0786  0.0749 -0.3516
 1975W        W 6039   7.247   6.232  10.787  0.0058 -0.2818 -0.0049
 1976W        W 6040   1.550   6.319   9.962 -0.0621  0.0056 -0.2213
 1977W        W 6041   5.807   6.054   1.579 -0.1200  0.0549  0.0554
 1978W        W 6042   3.632   7.479   8.922  0.3812 -0.0099 -0.0300
 1979W        W 6043   7.738   0.411   9.419  0.2036  0.2105 -0.4469
 1980W        W 6044   3.639   4.272   3.903  0.0451 -0.1684 -0.3381
 1981W        W 6045   1.726  10.354   3.168  0.1246  0.3553 -0.0210
 1982W        W 6046   2.694   5.538  10.471 -0.4320  0.0467 -0.0469
 1983W        W 6047   8.529   8.753   0.926  0.0308  0.0681 -0.1486
 1984W        W 6048   0.627   1.869   0.741  0.1186 -0.0917  0.0753
 1985W        W 6049   8.550   3.799   2.792  0.1807  0.2152  0.2443
 1986W        W 6050   4.033   5.671   0.698 -0.1294  0.1504  0.2616
 1987W        W 6051  10.477   7.181   1.591 -0.2278  0.1898 -0.2719
 1988W        W 6052   8.695   2.469  11.292  0.0719  0.2620 -0.0893
 1989W        W 6053   1.122   8.767   0.695  0.2343  0.2717 -0.0027
 1990W        W 6054   1.413   7.247   1.003  0.1475 -0.3791  0.1363
 1991W        W 6055   5.126   8.630   0.753  0.0747  0.0304  0.3218
 1992W        W 6056   4.951   7.019   2.017  0.1386  0.1909 -0.1695
 1993W        W 6057   5.175   7.975   2.230  0.3242 -0.1985  0.3301
 1994W        W 6058   5.628   8.635   0.625 -0.1858  0.0891 -0.0416
 1995W        W 6059   6.197   2.669   0.882 -0.2941  0.1142 -0.3375
 1996W        W 6060   0.525   3.361   3.030  0.1107 -0.0832 -0.2811
 1997W        W 6061   3.405   6.405  10.886  0.0335 -0.1895  0.1794
 1998W        W 6062   2.258   5.025   4.045  0.6666  0.2812  0.1005
 1999W        W 6063   4.770   1.700   0.981 -0.2412 -0.2333 -0.1292
 2000W        W 6064   1.374   4.695   7.898  0.1042 -0.2801 -0.0489
 2001W        W 6065   7.213   1.014  11.279  0.0749 -0.0271  0.0653
 2002W        W 6066   3.362   6.589   9.835  0.0831  0.0179  0.2391
 2003W        W 6067  10.040  10.036   1.143  0.1414 -0.2116 -0.0271
 2004W        W 6068   7.145   5.956   2.242  0.2406  0.0084  0.0930
 2005W        W 6069   2.987   2.083   7.980 -0.1646 -0.0217  0.0175
 2006W        W 6070   5.580  10.272   7.752  0.3429  0.1018 -0.0374
 2007W        W 6071   3.502   1.585  11.056 -0.1091  0.1467 -0.3429
 2008W        W 6072   0.869   9.976   9.468 -0.1254  0.1123  0.0521
 2009W        W 6073   1.547  10.058   0.863  0.1044 -0.1232  0.0495
 2010W        W 6074   7.141   8.748   3.243 -0.1446 -0.0795  0.0563
 2011W        W 6075   7.559   4.976   8.198 -0.5014 -0.1821 -0.0411
 2012W        W 6076   6.781   1.008   0.324  0.0054 -0.0419  0.0575
 2013W        W 6077   7.311   0.901   8.554 -0.1770  0.0424 -0.1473
 2014W        W 6078   0.294  10.009   7.996  0.0527  0.0280 -0.3437
 2015W        W 6079   0.103   1.544   1.905  0.1498  0.2467  0.2443
 2016W        W 6080   4.247   7.371   1.230 -0.4788  0.1335  0.3067
 2017W        W 6081   4.032   0.160  10.219  0.1494  0.4470 -0.0201
 2018W        W 6082   5.256   5.122   8.299 -0.5592  0.4979 -0.1913
 2019W        W 6083   6.014   8.085   2.031  0.0746  0.1871 -0.1058
 2020W        W 6084   6.353   8.288   2.868  0.1216 -0.1877 -0.0913
 2021W        W 6085   1.016  10.488   9.422 -0.1547 -0.0136 -0.1294
 2022W        W 6086   7.655   8.062  10.864  0.0043  0.0377 -0.2335
 2023W        W 6087  10.068   7.268   9.377 -0.0284 -0.0087  0.2341
 2024W        W 6088   9.779   1.838   3.335  0.2099  0.2501 -0.0003
 2025W        W 6089   2.103   4.015   8.944  0.0059  0.1417 -0.0089
 2026W        W 6090   4.362   9.845  10.319  0.1368  0.1306  0.0008
 2027W        W 6091   3.590   3.903  10.046  0.1688 -0.1768  0.1475
 2028W        W 6092   4.152  10.268   2.206  0.0234 -0.2314 -0.0451
 2029W        W 6093   2.319   5.917   2.802  0.0985 -0.4146  0.1304
 2030W        W 6094   7.494   1.317  10.344 -0.1036 -0.0239  0.0720
 2031W        W 6095   3.994   6.660   0.446 -0.0583  0.0624 -0.0878
 2032W        W 6096   4.953   5.562  11.082 -0.2516 -0.2236 -0.1657
 2033W        W 6097   3.110   1.902   3.866 -0.1463  0.1588  0.4115
 2034W        W 6098   3.286   4.473   9.586  0.4381  0.0174 -0.3133
 2035W        W 6099   5.346   0.775   3.810  0.0829  0.1373  0.0241
 2036W        W 6100   6.058   4.629   8.617  0.0879 -0.0767 -0.2576
 2037W        W 6101   3.298   1.548   0.629  0.3961 -0.0669  0.1181
 2038W        W 6102   9.898   1.489   1.448 -0.0579 -0.0210  0.0423
 2039W        W 6103   2.463   8.718   0.915 -0.0523 -0.1264 -0.2491
 2040W        W 6104   8.254   1.997  11.208  0.1409  0.0982 -0.0750
 2041W        W 6105   5.927   3.478  11.194 -0.0450  0.1901 -0.0605
 2042W        W 6106   6.870   2.589   9.011  0.1679 -0.0134  0.0186
 2043W        W 6107   2.859   6.912   9.882  0.1723 -0.1109  0.0005
 2044W        W 6108  10.417   3.752   2.201  0.2485 -0.4567 -0.0703
 2045W        W 6109  10.433   7.499   1.226  0.2622  0.0554  0.2322
 2046W        W 6110   9.901   9.855   0.648 -0.1396  0.2543  0.2671
 2047W        W 6111   1.957   3.459  11.542  0.1980 -0.0050 -0.0935
 2048W        W 6112   6.796   5.121   1.408  0.2195  0.0264 -0.0959
 2049W        W 6113   9.732   5.607   2.607 -0.2740 -0.1399  0.1961
 2050W        W 6114   9.896   8.821   2.549  0.1064 -0.0001  0.3640
 2051W        W 6115   9.360   7.760  10.459 -0.1439 -0.1798  0.1282
 2052W        W 6116   7.677   2.989   8.098 -0.1244 -0.1680  0.0036
 2053W        W 6117   0.311   5.891  11.116  0.0766 -0.1223 -0.2005
 2054W        W 6118   8.583   4.133   0.198  0.0567  0.0709  0.1738
 2055W        W 6119   0.222   0.436  10.073  0.2351  0.0540  0.1676
 2056W        W 6120   8.980   4.911  10.620  0.0168 -0.0678 -0.2147
 2057W        W 6121   6.007   8.554   2.635 -0.0026 -0.1054  0.0491
 2058W        W 6122   6.211   3.229  10.791 -0.1953  0.0454 -0.0233
 2059W        W 6123   6.050   3.020   0.554  0.1695  0.1812 -0.3483
 2060W        W 6124   7.588   5.391  10.095  0.1487 -0.3680  0.0844
 2061W        W 6125   1.732   4.510   2.049 -0.1335  0.1259  0.1516
 2062W        W 6126   7.885   1.424  10.644  0.0872 -0.1632 -0.2209
 2063W        W 6127   0.807   8.029   9.358 -0.0383 -0.0923  0.2883
 2064W        W 6128   0.492   7.532  10.257  0.1371 -0.1557  0.2375
 2065W        W 6129   7.034   5.353  10.190  0.1762 -0.0605 -0.0377
 2066W        W 6130   8.530   0.092   0.569 -0.0781  0.2702  0.1536
 2067W        W 6131   5.378   4.159   0.174 -0.0329  0.0143 -0.1362
 2068W        W 6132   8.902   3.161   1.612 -0.3452 -0.3427  0.2223
 2069W        W 6133   0.838   1.474   8.007 -0.2281  0.2624 -0.2271
 2070W        W 6134  10.212   3.098   1.005 -0.2475  0.2009  0.5752
 2071W        W 6135   9.985   8.111   1.054  0.0322 -0.0816  0.2803
 2072W        W 6136  10.066   0.901   3.215  0.0309  0.0635  0.3543
 2073W        W 6137  10.329   7.071   0.296  0.0792 -0.1538 -0.0609
 2074W        W 6138   5.770   0.684  10.389  0.1296 -0.0596 -0.0231
 2075W        W 6139   0.437   2.147   4.021 -0.1335 -0.0486  0.1073
 2076W        W 6140   2.051   7.459   9.514  0.1161  0.0402  0.1655
 2077W        W 6141   5.938   5.325   3.164  0.0290  0.0415 -0.0907
 2078W        W 6142   4.826   3.936   2.902  0.0568 -0.1837  0.3386
 2079W        W 6143   3.633   6.091   7.779 -0.1773  0.3169 -0.3122
 2080W        W 6144   9.122   5.569   8.657  0.0913 -0.0448  0.1992
 2081W        W 6145  10.495   0.094   0.938  0.1953 -0.1604  0.2325
 2082W        W 6146   3.094   3.289  10.563  0.4451  0.0073  0.2201
 2083W        W 6147   3.440   0.065   9.010  0.0633 -0.0686 -0.0777
 2084W        W 6148   2.307   9.783   9.413  0.4360  0.3308  0.0642
 2085W        W 6149   2.519   8.093   4.260  0.2477 -0.0239  0.0388
 2086W        W 6150   8.128   6.667  10.471  0.0500 -0.1615  0.0668
 2087W        W 6151   8.300   5.089   9.691  0.1306  0.2777  0.1275
 2088W        W 6152   2.938   9.102   0.391 -0.0792 -0.0519  0.4253
 2089W        W 6153   5.314   0.538   3.363 -0.2457  0.0650  0.2957
 2090W        W 6154   6.139   0.449  10.571  0.2479  0.4719  0.1448
 2091W        W 6155   7.799   9.233   2.914 -0.0600  0.1094 -0.1587
 2092W        W 6156   0.595   4.607   2.685 -0.0991 -0.0955  0.3273
 2093W        W 6157   0.853   6.364   9.120 -0.1923  0.0768  0.0110
 2094W        W 6158  10.648   0.161   3.311  0.1273  0.2386  0.3046
 2095W        W 6159   8.703   8.219  10.850 -0.1145  0.0637 -0.1083
 2096W        W 6160   4.685   2.300   9.266 -0.0979  0.0189  0.1815
 2097W        W 6161   8.708  10.282   9.252 -0.1894 -0.0342 -0.1428
 2098W        W 6162   3.508   8.347   1.694  0.0640  0.0529 -0.1173
 2099W        W 6163   3.615   8.720  10.290 -0.0087  0.1255 -0.2325
 2100W        W 6164   2.184   8.348  11.266 -0.1332 -0.0555  0.0012
 2101W        W 6165   8.887   0.401   8.764 -0.1550 -0.0445  0.0063
 2102W        W 6166   2.306   9.168   2.620 -0.1963  0.0395  0.2063
 2103W        W 6167   4.003   0.828   3.362 -0.1005  0.0134 -0.1351
 2104W        W 6168   6.821   0.587   2.069  0.3023  0.0576  0.1465
 2105W        W 6169   3.115   1.507   1.071 -0.0283 -0.0665 -0.0337
 2106W        W 6170   2.674   5.779   8.151 -0.1588  0.0396 -0.2389
 2107W        W 6171   6.443   2.475   0.476 -0.1095  0.0224 -0.0805
 2108W        W 6172   6.208   3.590  10.200 -0.1922 -0.0390 -0.1643
 2109W        W 6173   0.274   3.884   2.264  0.0003 -0.1910 -0.1762
 2110W        W 6174   3.203   5.988   2.550 -0.1205 -0.2928  0.0876
 2111W        W 6175   0.815   9.356   3.830  0.0634  0.0042  0.1264
 2112W        W 6176   3.894   4.067  11.297 -0.1218 -0.3173  0.0493
 2113W        W 6177   8.933   8.233   2.374  0.2756  0.2231  0.1396
 2114W        W 6178   2.037   2.552  10.756  0.2203 -0.0188  0.3038
 2115W        W 6179   6.866   2.461   2.350 -0.0448  0.1286  0.0928
 2116W        W 6180   6.989   0.892   8.953  0.0338 -0.0138  0.4482
 2117W        W 6181   8.571   1.506  11.344 -0.3346 -0.1693 -0.0149
 2118W        W 6182   1.333   1.235   4.444  0.0659 -0.1939 -0.2616
 2119W        W 6183   3.065   8.323   2.622 -0.0474  0.3046 -0.1273
 2120W        W 6184   7.514   6.771   8.866  0.2140 -0.0461 -0.0665
 2121W        W 6185   1.562   4.274  10.927  0.0823  0.1456  0.1276
 2122W        W 6186   2.550   1.973   2.241 -0.2274  0.1330 -0.3950
 2123W        W 6187  10.407   2.096   8.488  0.3025 -0.2915 -0.2048
 2124W        W 6188   0.886  10.267   1.967  0.1618  0.0324 -0.2941
 2125W        W 6189   9.702   8.853   8.975  0.0086  0.1959  0.1839
 2126W        W 6190   7.447   5.251   2.311 -0.2108  0.1716  0.1664
 2127W        W 6191  10.419   2.028  10.273 -0.1900  0.2549 -0.2190
 2128W        W 6192  10.330   2.220  10.773  0.1073  0.1677  0.0855
 2129W        W 6193   6.897   1.873   0.950  0.3568 -0.0674  0.0375
 2130W        W 6194   4.884   2.538   1.204 -0.3608  0.2190 -0.0186
 2131W        W 6195   3.418   8.597   2.946 -0.1603  0.0584  0.1246
 2132W        W 6196   0.718   3.412   9.177  0.2616 -0.0061  0.0592
 2133W        W 6197   8.176   0.229   2.316 -0.0579  0.0469 -0.0271
 2134W        W 6198   1.893   9.487   8.081 -0.0287 -0.0642 -0.1079
 2135W        W 6199   1.179   2.200   1.508 -0.1523 -0.1233  0.0991
 2136W        W 6200  10.565   4.415   1.189 -0.0298  0.0726 -0.1046
 2137W        W 6201   9.242   5.452   2.837  0.3542 -0.2168 -0.4492
 2138W        W 6202   8.325   8.310  11.298 -0.0581 -0.0589  0.1258
 2139W        W 6203   1.696   4.606   0.123 -0.0684  0.2273 -0.0620
 2140W        W 6204   1.984   1.295   8.911 -0.0893 -0.0796  0.0594
 2141W        W 6205   1.476   9.169   0.590  0.2305 -0.1038  0.1331
 2142W        W 6206   8.697   8.289   2.820 -0.1280  0.0166 -0.1225
 2143W        W 6207   8.194   2.869   1.342  0.0807 -0.2039 -0.2872
 2144W        W 6208   4.157   5.816   7.679 -0.0990 -0.2390 -0.0238
 2145W        W 6209   6.417   2.360   1.787 -0.4738  0.0508  0.3076
 2146W        W 6210   3.699   7.693   9.386  0.0750  0.2337  0.0237
 2147W        W 6211  10.129   6.685  10.463 -0.1170  0.1458 -0.2165
 2148W        W 6212   0.999   4.650   1.860 -0.0548  0.1589 -0.0821
 2149W        W 6213  10.393   0.900   8.322  0.3244  0.1307 -0.2966
 2150W        W 6214   1.126   4.339   0.291 -0.1134  0.2852 -0.0024
 2151W        W 6215   9.940   9.197  10.628  0.1592  0.1357  0.0638
 2152W        W 6216   2.146   3.523   0.849  0.1709  0.2111  0.1650
 2153W        W 6217   8.194   3.023   1.814 -0.0109 -0.1253 -0.2465
 2154W        W 6218   8.978   0.530   9.320  0.1273  0.1909 -0.0141
 2155W        W 6219   2.893   3.853   2.354 -0.0924 -0.0864  0.2338
 2156W        W 6220   9.577   4.095   9.900  0.0828  0.0860  0.2416
 2157W        W 6221   6.155   1.046   1.795  0.1293  0.0752  0.0251
 2158W        W 6222   8.062   0.167   8.985 -0.1594  0.0415  0.0903
 2159W        W 6223   3.270   7.236  10.593  0.1048  0.3822  0.0901
 2160W        W 6224   2.734   5.706   2.530 -0.0174 -0.2475 -0.0085
 2161W        W 6225   6.519   3.965  10.496  0.2940 -0.0262  0.1028
 2162W        W 6226  10.320   5.096   2.020  0.0807 -0.1796 -0.0908
 2163W        W 6227   2.383   8.626   1.474  0.0852  0.2764 -0.1084
 2164W        W 6228   4.712   9.087   0.850  0.0643  0.0530 -0.0286
 2165W        W 6229   8.174   9.311  11.423  0.1890 -0.0635  0.0007
 2166W        W 6230   2.476   5.320  11.226 -0.1344 -0.0325  0.3135
 2167W        W 6231   3.621   0.523   1.453 -0.1112 -0.2250 -0.4756
 2168W        W 6232   3.351   6.827   3.711  0.0652 -0.2165 -0.2215
 2169W        W 6233   3.581   7.330  10.201  0.0068  0.0878 -0.2253
 2170W        W 6234   7.857   7.908   0.282 -0.2941 -0.0123 -0.0957
 2171W        W 6235   8.887   2.764   2.224  0.0573  0.0770  0.1359
 2172W        W 6236   2.831   6.435   9.600 -0.0143  0.0525  0.0408
 2173W        W 6237   3.601   0.999   2.175 -0.0525 -0.2338  0.1962
 2174W        W 6238   3.386   7.351   3.534  0.0937 -0.2421  0.0102
 2175W        W 6239   5.028   4.537   0.504  0.0419 -0.1024  0.0237
 2176W        W 6240   6.183   8.004   9.725 -0.1420  0.1772  0.2458
 2177W        W 6241   5.448   2.779   9.695 -0.0578  0.1225  0.3999
 2178W        W 6242   5.363   0.999   0.698 -0.1221 -0.2050 -0.1212
 2179W        W 6243   5.905   1.251   0.637 -0.2348 -0.0717  0.0629
 2180W        W 6244   1.468   2.860   2.493 -0.2629 -0.0159  0.1203
 2181W        W 6245   3.233   0.095   1.064 -0.2248  0.0030  0.0746
 2182W        W 6246   8.512   6.283  10.540 -0.0992 -0.2695 -0.0865
 2183W        W 6247   9.166   1.590  11.202 -0.1659 -0.0929  0.0890
 2184W        W 6248  10.163   5.495   0.183  0.1709  0.0101 -0.1162
 2185W        W 6249   9.499   2.237  10.453  0.0189 -0.0751 -0.1904
 2186W        W 6250   5.490   6.384   9.545 -0.0156  0.0603  0.1135
 2187W        W 6251   6.136   1.391   8.088  0.0213 -0.1952 -0.2677
 2188W        W 6252   3.632   5.472   2.707 -0.0301 -0.0732  0.0018
 2189W        W 6253   4.180   5.979   2.432  0.0510 -0.2457 -0.0080
 2190W        W 6254   6.765   5.683  10.797 -0.2659 -0.4167  0.2144
 2191W        W 6255  10.335   8.428   1.295  0.2256 -0.1479  0.0502
 2192W        W 6256   8.781   9.516   3.121  0.0069 -0.1207 -0.1968
 2193W        W 6257   9.496   7.920   8.972 -0.0314 -0.0093  0.3258
 2194W        W 6258   1.739   1.493  11.341  0.1136  0.0141  0.2153
 2195W        W 6259   2.217   9.993   3.710 -0.0490 -0.3784 -0.2455
 2196W        W 6260   3.898   2.809  11.317  0.0006 -0.0316 -0.0497
 2197W        W 6261   3.144   0.189  10.714  0.1315  0.1896  0.2681
 2198W        W 6262   7.935   7.904   8.695  0.0170  0.0234 -0.1815
 2199W        W 6263   9.970   0.479   0.917 -0.3620  0.1453  0.0416
 2200W        W 6264   5.036   8.146  10.480 -0.0557 -0.1054 -0.2067
 2201W        W 6265   4.877   0.167   2.611  0.0081 -0.0354 -0.1887
 2202W        W 6266   8.493   4.857  10.717 -0.2640  0.1765  0.3789
 2203W        W 6267   4.198   5.679  11.360 -0.0460 -0.2545  0.2980
 2204W        W 6268   8.986   5.497  11.449  0.1639 -0.1805  0.1687
 2205W        W 6269   2.719   9.654   9.801  0.1798 -0.0025 -0.2159
 2206W        W 6270   4.528   3.701   2.552 -0.3062  0.1170 -0.0539
 2207W        W 6271   2.360   0.962   2.466 -0.2481 -0.0099  0.0103
 2208W        W 6272   6.317   7.513   9.715  0.0255 -0.0490  0.1920
 2209W        W 6273   5.445   7.572   8.731  0.1455 -0.1456 -0.1555
 2210W        W 6274   4.540   7.993   9.258  0.0304 -0.0407 -0.0266
 2211W        W 6275   7.509   7.518   8.478  0.1841 -0.4205 -0.0132
 2212W        W 6276   8.734   2.818   8.231  0.1990 -0.0635 -0.0304
 2213W        W 6277   4.603   2.141   1.218  0.0566 -0.0802 -0.2495
 2214W        W 6278   5.240   4.136   8.760  0.1284  0.0144  0.0677
 2215W        W 6279   9.689  10.628   2.406  0.1466  0.3158 -0.0787
 2216W        W 6280   7.522   7.722   2.203  0.0281  0.0839 -0.1748
 2217W        W 6281   3.136   0.111   3.079  0.0992 -0.1735  0.1526
 2218W        W 6282   2.937  10.507   7.978 -0.0436 -0.1312  0.0401
 2219W        W 6283  10.364   1.552   8.866 -0.2525 -0.0212  0.2130
 2220W        W 6284   9.786   7.162   7.504  0.0359 -0.2055 -0.1430
 2221W        W 6285   9.148   2.613   2.585 -0.0459  0.2569  0.0508
 2222W        W 6286   7.252   0.549   2.390  0.0250  0.1262 -0.0869
 2223W        W 6287  10.351   3.555   1.245  0.2421  0.1637  0.2389
 2224W        W 6288   3.669   9.088   8.173 -0.1186  0.0961  0.1357
 2225W        W 6289   3.892   7.570   0.439 -0.2048 -0.0081 -0.2039
 2226W        W 6290   6.475   3.114  10.336  0.0067 -0.3623 -0.2717
 2227W        W 6291   4.592   2.521   1.569 -0.1899 -0.0977 -0.0858
 2228W        W 6292   5.771   6.862   3.408 -0.0146  0.1966 -0.2212
 2229W        W 6293   4.770   7.737  11.270 -0.1148  0.0410  0.1027
 2230W        W 6294   5.108   4.625   3.091  0.1659  0.1697 -0.0099
 2231W        W 6295   7.363   0.722   9.301  0.0131 -0.1936  0.0605
 2232W        W 6296   9.023   6.755   3.087  0.2981  0.0014  0.0608
 2233W        W 6297   3.549   6.659   3.227  0.0680 -0.1989 -0.1688
 2234W        W 6298   5.707   1.904   7.489 -0.1917 -0.0416  0.0638
 2235W        W 6299   7.353   2.491   1.026  0.2963  0.0841 -0.0254
 2236W        W 6300   3.411   1.001   2.594  0.0155 -0.0789 -0.0967
 2237W        W 6301   0.501   8.056   7.736 -0.2007  0.0698 -0.0801
 2238W        W 6302  10.395   6.867   3.204 -0.0408  0.1396  0.0066
 2239W        W 6303   4.212   6.121   9.198 -0.3812  0.0985 -0.2860
 2240W        W 6304   1.558   5.754   3.224 -0.1820  0.0939 -0.0123
 2241W        W 6305   9.168   0.978   3.290 -0.0887  0.0601 -0.2042
 2242W        W 6306   5.077   8.567   9.314  0.1325 -0.2257  0.0482
 2243W        W 6307   3.531   7.681   3.099 -0.1295  0.1672  0.0656
 2244W        W 6308   4.675   7.150  10.271 -0.0857 -0.0695 -0.0719
 2245W        W 6309   1.830   5.478   2.858 -0.2665  0.1223  0.0693
 2246W        W 6310   7.890   1.602   8.760  0.0280  0.0992  0.1946
 2247W        W 6311   7.614   4.418   2.588  0.1083 -0.0560 -0.0777
 2248W        W 6312   5.010   5.036   9.610  0.1681  0.2681 -0.0380
 2249W        W 6313   6.714   8.043  10.646  0.1982  0.1244 -0.1007
 2250W        W 6314   7.253   0.636   1.083 -0.0662 -0.2032 -0.0709
 2251W        W 6315   0.786   0.947   1.991 -0.0204  0.5248 -0.0241
 2252W        W 6316   9.929   5.050   1.662 -0.2142 -0.0838 -0.0632
 2253W        W 6317  10.133   3.213   1.507  0.0230  0.4367  0.0636
 2254W        W 6318   1.763   0.362  10.676 -0.0364 -0.2394 -0.1644
 2255W        W 6319   2.618   0.641  11.502  0.5024  0.1078 -0.3633
 2256W        W 6320   5.878   9.316  11.107 -0.1346 -0.2679  0.1679
 2257W        W 6321   0.397   7.844   9.011  0.0513 -0.2982  0.2835
 2258W        W 6322   1.346   0.336   4.277  0.1881  0.0587 -0.1869
 2259W        W 6323   3.459   9.631   3.324 -0.2724 -0.1758  0.0802
 2260W        W 6324   9.252   8.726   1.865 -0.0434  0.0480  0.1580
 2261W        W 6325   1.127   0.414  10.472  0.0754 -0.0624  0.0887
 2262W        W 6326   7.941   1.819   9.614 -0.2349 -0.0923  0.0869
 2263W        W 6327   6.645   3.498  10.609 -0.0627 -0.1014 -0.0046
 2264W        W 6328   2.495   1.518   1.224  0.0752  0.3264  0.0386
 2265W        W 6329   6.681   4.666   9.529  0.1019 -0.1787  0.2297
 2266W        W 6330   6.037   5.791  10.079 -0.1568  0.2386  0.1568
 2267W        W 6331   3.592   9.301  10.205 -0.2306 -0.0501  0.1425
 2268W        W 6332   5.844   9.197   0.014  0.2076 -0.2356  0.2641
 2269W        W 6333   9.471   3.410   8.399  0.2200  0.0511  0.0254
 2270W        W 6334   6.721   7.271   3.163 -0.2201 -0.1585 -0.3543
 2271W        W 6335   9.214   8.261   3.293  0.1465 -0.4131 -0.0294
 2272W        W 6336   0.459   9.221  11.044  0.0799  0.4058 -0.0555
 2273W        W 6337   4.651   0.414   8.602  0.2477  0.0210  0.0896
 2274W        W 6338   3.404   5.873   2.992 -0.0498  0.1108  0.0932
 2275W        W 6339   6.734   7.415  11.428  0.1416  0.0025 -0.0011
 2276W        W 6340   6.932   4.301  10.500 -0.2256  0.0277 -0.1893
 2277W        W 6341   3.416   1.540   8.113  0.0592  0.0830 -0.0436
 2278W        W 6342   2.611   8.641   0.487 -0.0430  0.0421 -0.2536
 2279W        W 6343   2.981   3.105   9.601  0.0407  0.3069 -0.0663
 2280W        W 6344   3.131   9.484   2.584 -0.0671  0.1317 -0.1249
 2281W        W 6345   8.059   1.765   3.408  0.0388  0.1696  0.1709
 2282W        W 6346   1.092   0.007   0.967  0.0707 -0.1030 -0.2651
 2283W        W 6347  10.650   7.279   9.330  0.0168 -0.0891  0.3952
 2284W        W 6348   8.121   7.859   9.210 -0.2002 -0.1879  0.2116
 2285W        W 6349   2.968   6.682   1.099 -0.2593 -0.0125 -0.3434
 2286W        W 6350   1.987   8.768   1.114  0.0603 -0.2186  0.4053
 2287W        W 6351   9.534   4.608   0.731 -0.2757 -0.1648  0.1157
 2288W        W 6352  10.238   8.852   8.759  0.0793 -0.1367  0.1545
 2289W        W 6353   2.654   1.454   2.169 -0.0806 -0.1078 -0.1495
 2290W        W 6354   5.061   3.032   8.699  0.0406 -0.0717 -0.0226
 2291W        W 6355   2.036   0.192   3.049 -0.2073 -0.2869  0.0385
 2292W        W 6356   7.829   5.524   0.402  0.0451  0.0595 -0.3377
 2293W        W 6357   7.588   5.993   3.491  0.3936 -0.0111  0.1545
 2294W        W 6358   2.485  10.537   9.133  0.2387  0.0150 -0.0740
 2295W        W 6359   8.275   8.073   1.643  0.2332  0.1016  0.1856
 2296W        W 6360   8.230   2.981  10.145 -0.1330  0.0268  0.1747
 2297W        W 6361   5.224   9.072   2.463  0.3153 -0.0127  0.0500
 2298W        W 6362  10.075  10.048   2.250 -0.2547  0.0430 -0.1116
 2299W        W 6363   6.566   8.684   0.500 -0.0130 -0.1708 -0.4379
 2300W        W 6364   6.963   2.796   1.190 -0.0896 -0.1200 -0.1404
 2301W        W 6365   3.300   0.311   3.575 -0.4510  0.3120  0.1670
 2302W        W 6366   5.277   2.073   8.468  0.1752  0.3226  0.1215
 2303W        W 6367   5.796   3.498   2.964  0.0249 -0.1584 -0.1261
 2304W        W 6368   9.839   9.429  11.478 -0.1011  0.0844  0.1812
 2305W        W 6369   3.071   4.868   0.060  0.1884  0.0783 -0.0136
 2306W        W 6370   0.815   1.634   9.134 -0.0035 -0.1086  0.2502
 2307W        W 6371   1.008   6.952  10.378 -0.0937  0.1527  0.3638
 2308W        W 6372  10.101   8.236   3.799 -0.1284  0.0989 -0.0276
 2309W        W 6373  10.316   9.715   3.484 -0.0048  0.0785 -0.1807
 2310W        W 6374   1.149   4.425   0.848 -0.0439  0.0366  0.2329
 2311W        W 6375   5.032   9.857   2.675  0.1369  0.0344  0.0071
 2312W        W 6376   2.688   7.220   7.971  0.2279  0.0840  0.0958
 2313W        W 6377   7.459   2.997   1.003  0.0897  0.2955  0.1966
 2314W        W 6378   7.442   5.938   0.212 -0.1904 -0.0175 -0.4202
 2315W        W 6379   2.997   6.311   8.567  0.2574 -0.2934 -0.0911
 2316W        W 6380   8.307   4.115   0.587  0.1849 -0.0056 -0.1190
 2317W        W 6381  10.293   1.227  11.072 -0.4284  0.1801  0.0221
 2318W        W 6382   5.855   4.190   9.917  0.0406 -0.0332 -0.0546
 2319W        W 6383   3.967  10.266   3.558 -0.1786  0.0890 -0.0148
 2320W        W 6384   0.628   2.847   2.831  0.1178 -0.3291  0.1819
 2321W        W 6385   6.592   2.644  10.987 -0.3188  0.0378  0.4292
 2322W        W 6386   9.745   1.934   2.837  0.0573 -0.3775  0.3742
 2323W        W 6387   5.215   9.111   0.723 -0.3392 -0.2497  0.0118
 2324W        W 6388   8.814   7.082  10.019  0.0468 -0.0984 -0.1960
 2325W        W 6389   7.691   6.186   1.195 -0.2976  0.0278  0.0072
 2326W        W 6390   9.120   9.451   8.767 -0.3144 -0.1268  0.1335
 2327W        W 6391   4.899   9.914   8.860 -0.1188  0.0621 -0.2664
 2328W        W 6392   2.772   6.089   2.985  0.0891 -0.1208  0.0624
 2329W        W 6393  10.140   9.553   1.408  0.2072  0.1638  0.2961
 2330W        W 6394   6.772   4.355   9.086 -0.2624 -0.0361 -0.1931
 2331W        W 6395   9.889   0.256   9.558 -0.0267 -0.4548 -0.0246
 2332W        W 6396  10.467   1.753  11.190  0.1278  0.0650  0.1054
 2333W        W 6397   0.032   0.023  10.499  0.1308  0.2016  0.0754
 2334W        W 6398   6.402   0.131  10.042 -0.0062  0.0730  0.1286
 2335W        W 6399   9.065   5.577   2.363  0.0409  0.0385  0.1240
 2336W        W 6400   3.895   8.706   3.304 -0.0038  0.1937  0.1445
 2337W        W 6401   8.145   7.371   1.534 -0.1444 -0.0920  0.1285
 2338W        W 6402   7.500   2.030   8.069  0.1204  0.6395  0.3772
 2339W        W 6403   3.079   8.938   8.876 -0.3420 -0.2902 -0.0585
 2340W        W 6404   5.233   1.705  10.377 -0.1292 -0.2476 -0.0559
 2341W        W 6405   7.562   5.938  10.423 -0.1044 -0.1419 -0.1176
 2342W        W 6406  10.158   2.363   1.481  0.0881 -0.1850  0.0687
 2343W        W 6407   1.191   5.664   4.099 -0.2666 -0.1938  0.5667
 2344W        W 6408  10.407   7.470   2.145 -0.3187  0.0585  0.1617
 2345W        W 6409  10.125   6.970  11.368 -0.4776  0.2268 -0.4027
 2346W        W 6410   2.969   4.159  10.936 -0.2140  0.0245  0.0406
 2347W        W 6411   7.626  10.171   2.164  0.2118  0.0542  0.1653
 2348W        W 6412   0.626   5.766   0.890  0.0464 -0.3143 -0.0783
 2349W        W 6413   2.337   5.563  10.785 -0.2709 -0.0284 -0.3288
 2350W        W 6414   6.933   9.569  10.661  0.0715 -0.2957 -0.1610
 2351W        W 6415   0.743   8.008   2.246  0.0982  0.0587  0.0275
 2352W        W 6416   6.710   4.383   0.832 -0.1125  0.1158 -0.1028
 2353W        W 6417   2.398   1.469   3.308  0.0110 -0.0211 -0.2284
 2354W        W 6418   1.288   9.239   8.619  0.0046 -0.2001 -0.1910
 2355W        W 6419   9.142   9.663  10.145 -0.0309  0.0056 -0.0907
 2356W        W 6420   6.802   2.920   2.774 -0.0006 -0.3581 -0.1611
 2357W        W 6421   3.286   9.439   9.427  0.3656 -0.1016 -0.2196
 2358W        W 6422   7.319   4.196   3.404  0.5090 -0.0651  0.0162
 2359W        W 6423   4.996   2.177   1.546  0.0550  0.0371  0.1155
 2360W        W 6424   0.791   9.755   2.099  0.2361 -0.0275 -0.0212
 2361W        W 6425   9.464  10.026  10.493 -0.0183 -0.0121  0.1746
 2362W        W 6426   1.280   8.141   3.776  0.0006  0.2925  0.3144
 2363W        W 6427   9.617   5.468   1.689 -0.1269 -0.0538  0.0520
 2364W        W 6428   2.517   3.804   7.705  0.2038 -0.1454  0.0098
 2365W        W 6429   3.684   4.577   1.428  0.0252  0.2684  0.7059
 2366W        W 6430   3.514   2.288   8.907 -0.0877 -0.0747 -0.1813
 2367W        W 6431   4.234   6.733   2.472 -0.2269 -0.2117 -0.0726
 2368W        W 6432   8.676   1.401   2.647  0.1854  0.3506  0.1998
 2369W        W 6433   9.514   4.481   8.911  0.1964  0.3159 -0.1749
 2370W        W 6434   8.428   1.337   1.174 -0.1105  0.0069 -0.0679
 2371W        W 6435   4.380   9.143   9.896 -0.0161  0.1520  0.0841
 2372W        W 6436   4.349   4.568   9.803 -0.1418  0.1741 -0.1701
 2373W        W 6437   5.401   3.917  11.253 -0.2716  0.0543  0.1578
 2374W        W 6438   7.765   4.968   0.442 -0.0507  0.0725  0.1343
 2375W        W 6439   2.176   2.929   3.876  0.0326  0.0284 -0.2478
 2376W        W 6440   9.589   5.100   2.830 -0.3488  0.0151 -0.0281
 2377W        W 6441   2.412   0.882   9.262 -0.1768 -0.2185 -0.3718
 2378W        W 6442   2.958   3.477   0.414  0.1521  0.0457  0.2920
 2379W        W 6443   0.113   5.404   9.743  0.0594  0.0142  0.3067
 2380W        W 6444   9.277   7.547   2.886  0.0256  0.2707  0.1648
 2381W        W 6445   2.863   7.529   9.616  0.2251 -0.2167 -0.0117
 2382W        W 6446   1.587   0.017   3.865 -0.3489 -0.1596 -0.0608
 2383W        W 6447   8.155   0.445   0.255  0.0171 -0.0584  0.6038
 2384W        W 6448   9.039   0.138   2.771 -0.0883 -0.1416  0.0211
 2385W        W 6449  10.108   1.471   3.244  0.1306  0.0164  0.0665
 2386W        W 6450   1.281   2.904   0.986 -0.0682  0.2045  0.1459
 2387W        W 6451   9.221   3.096  11.095 -0.1351  0.0785  0.4977
 2388W        W 6452   8.418   7.866   0.131 -0.0048 -0.1970 -0.1368
 2389W        W 6453   8.034   0.306   1.254 -0.1200 -0.1932  0.1579
 2390W        W 6454   4.849   2.905   2.858  0.0971  0.0563  0.1675
 2391W        W 6455   4.927   6.362   9.712  0.1966  0.2471 -0.0237
 2392W        W 6456   2.192   7.417   0.227 -0.1376  0.1162  0.1569
 2393W        W 6457   6.679   0.365   9.034 -0.1636  0.0638 -0.0330
 2394W        W 6458   3.694  10.216   2.641  0.0458 -0.0609  0.0176
 2395W        W 6459   2.949   9.626   1.224  0.0439 -0.1278  0.3546
 2396W        W 6460   9.545   4.573   8.416  0.1495 -0.2379  0.3085
 2397W        W 6461   1.258   3.395   1.114 -0.4436  0.0489 -0.0777
 2398W        W 6462   1.161   0.813   4.206  0.0923  0.5402  0.1092
 2399W        W 6463   4.125   4.240   0.753  0.0463  0.0053  0.1616
 2400W        W 6464   0.573   1.037   0.758  0.0325  0.0996 -0.0803
 2401W        W 6465   8.281   8.233   8.898 -0.1914  0.2526  0.1521
 2402W        W 6466   3.940   5.691   3.393 -0.2219  0.3003  0.0965
 2403W        W 6467   0.034   9.426   1.420 -0.1410  0.1752  0.1438
 2404W        W 6468   8.947   7.181   0.255  0.0579  0.2013 -0.0370
 2405W        W 6469   3.311   8.106   3.045 -0.1666  0.1253  0.0021
 2406W        W 6470   7.709   5.921   9.450 -0.0323  0.0890 -0.1752
 2407W        W 6471  10.413   7.700   9.515 -0.1893  0.2271 -0.3378
 2408W        W 6472   9.959   4.064   3.661  0.0924 -0.1577 -0.2439
 2409W        W 6473   2.624   0.686   4.628 -0.0678  0.0245  0.0972
 2410W        W 6474   8.837   9.467  11.365  0.2614  0.1428  0.0414
 2411W        W 6475   0.498   8.004   0.477  0.0434  0.1276 -0.1357
 2412W        W 6476   3.914   5.535  10.893 -0.2035 -0.3446  0.1128
 2413W        W 6477   8.136   2.789  10.646  0.1095 -0.0189 -0.3350
 2414W        W 6478   4.897   0.372   9.974  0.2839 -0.0895 -0.0756
 2415W        W 6479   3.297   7.633  11.474 -0.1491 -0.1373  0.1623
 2416W        W 6480   1.834   4.487   8.229  0.2783 -0.1521 -0.1271
 2417W        W 6481   5.593   2.195  10.603  0.0970  0.0618 -0.2738
 2418W        W 6482   1.714   0.726   8.365  0.1010 -0.3597 -0.1609
 2419W        W 6483   1.927   7.308  10.538  0.1774  0.0752  0.0371
 2420W        W 6484   7.010   1.659   3.930 -0.0761 -0.3769 -0.1566
 2421W        W 6485  10.427   9.255   8.931  0.3767  0.0794  0.2928
 2422W        W 6486   4.276   9.943  11.281 -0.3677  0.0869 -0.0963
 2423W        W 6487   3.251   1.329   5.122  0.2258 -0.0776  0.0211
 2424W        W 6488   6.553   5.888   2.665 -0.0534 -0.2680 -0.0229
 2425W        W 6489   9.802   6.419   3.729 -0.2505 -0.1382  0.3367
 2426W        W 6490   2.096   2.889   0.211 -0.0772  0.2102  0.2303
 2427W        W 6491   5.149   5.992   3.102  0.1874  0.0924  0.1110
 2428W        W 6492   7.495   9.710   2.178  0.1152 -0.2622  0.0652
 2429W        W 6493   0.488   4.999  10.862 -0.2749 -0.0369 -0.0065
 2430W        W 6494   5.721   1.355   2.785  0.2402  0.1155 -0.0683
 2431W        W 6495   8.707   9.414  10.044  0.1103  0.1974  0.1820
 2432W        W 6496   2.396   8.197   9.232 -0.0740  0.2035  0.0541
 2433W        W 6497   8.642   3.902  10.707 -0.1334  0.3528  0.0921
 2434W        W 6498   4.403   4.172   8.373  0.4517  0.0412 -0.1254
 2435W        W 6499   2.525   6.553   1.314 -0.0520 -0.1415  0.0241
 2436W        W 6500   8.503   5.782  10.353 -0.0672 -0.0328  0.0580
 2437W        W 6501   2.178   2.702   7.882  0.0049  0.0343  0.1647
 2438W        W 6502  10.090   5.665   8.554  0.1770 -0.0560  0.2488
 2439W        W 6503   7.764  10.339  11.023 -0.1486 -0.0032  0.6135
 2440W        W 6504   9.765   0.980   3.783 -0.1809 -0.2696  0.0332
 2441W        W 6505   5.523   8.712   1.104 -0.1382  0.2675  0.1085
 2442W        W 6506   7.467   3.790   8.698 -0.0723  0.2478  0.0885
 2443W        W 6507   8.532   0.131  10.282  0.1978 -0.1427 -0.1962
 2444W        W 6508   3.544   9.503  10.840 -0.0675  0.0188  0.0227
 2445W        W 6509   2.824   0.540   9.399 -0.0878 -0.0836  0.0286
 2446W        W 6510  10.622   8.163   8.167 -0.1843  0.0458 -0.2423
 2447W        W 6511   5.636   6.381   1.874 -0.3405  0.0866  0.1110
 2448W        W 6512   1.748   2.752   0.941 -0.1337  0.0141 -0.0857
 2449W        W 6513   6.577  10.342  10.771 -0.0501  0.0629  0.2064
 2450W        W 6514   9.920   4.392   1.183  0.3151 -0.1537 -0.2216
 2451W        W 6515   0.601  10.057   8.536  0.0716 -0.0771 -0.0138
 2452W        W 6516   0.337   3.707  11.508  0.1978  0.2014  0.0048
 2453W        W 6517   0.882   2.133   1.045 -0.1036  0.2080  0.0590
 2454W        W 6518   6.353   3.667   3.914 -0.0663  0.0247  0.0324
 2455W        W 6519   7.038   7.122  10.515 -0.4370  0.0520  0.0939
 2456W        W 6520   1.511   2.925  10.670  0.3458 -0.2706  0.1331
 2457W        W 6521   2.460   3.207   8.268 -0.1854 -0.2139 -0.0453
 2458W        W 6522   6.125   6.871  10.230 -0.2027 -0.1371 -0.3120
 2459W        W 6523   7.452   6.760   9.803 -0.2359  0.0468 -0.1468
 2460W        W 6524   3.112   1.634  10.524 -0.0206 -0.1234  0.2170
 2461W        W 6525   1.539   4.550   3.020  0.3389 -0.1095  0.1715
 2462W        W 6526   8.331   7.365   0.486 -0.1364  0.0137  0.1813
 2463W        W 6527   0.385   8.740   1.820  0.3173 -0.1708  0.2114
 2464W        W 6528   3.821   6.896   2.203  0.4678 -0.0801  0.0529
 2465W        W 6529   1.001   2.123   9.413  0.1120  0.0398  0.1767
 2466W        W 6530  10.419   0.208   9.492 -0.0464 -0.0289 -0.2724
 2467W        W 6531   4.558   3.022   1.711  0.1694  0.1497  0.2522
 2468W        W 6532   4.224   1.005   4.609 -0.2530 -0.0606  0.2980
 2469W        W 6533   3.642   1.101   0.689 -0.1345 -0.2226 -0.2348
 2470W        W 6534   3.000   7.898   9.972  0.1573 -0.1586 -0.0075
 2471W        W 6535   5.308   5.951   9.735 -0.0279  0.0454 -0.1491
 2472W        W 6536   2.362   7.450   1.000  0.0568  0.2099 -0.0830
 2473W        W 6537   0.572  10.247   9.785 -0.5933 -0.0359  0.1770
 2474W        W 6538   7.900   6.441   9.682 -0.1717 -0.1574 -0.1200
 2475W        W 6539   6.449   3.666   9.579  0.2006  0.1563  0.1956
 2476W        W 6540  10.493   0.254   8.923 -0.0236 -0.2199  0.1459
 2477W        W 6541   9.973   1.906   8.058 -0.0931  0.1772 -0.1278
 2478W        W 6542   1.482   5.616   9.363 -0.0768 -0.2016  0.1452
 2479W        W 6543   7.560   3.847  11.180  0.0089 -0.2390 -0.1190
 2480W        W 6544   3.391   7.592   9.792 -0.0606 -0.2456 -0.1245
 2481W        W 6545   8.066   0.964   2.401  0.1049 -0.0647 -0.0424
 2482W        W 6546   0.725   0.091   8.618 -0.2782 -0.2512  0.1086
 2483W        W 6547   4.355   4.894   1.600 -0.1229 -0.1775  0.1621
 2484W        W 6548   4.345   7.217  10.679  0.0325 -0.0212  0.2980
 2485W        W 6549   6.984   3.910  10.138 -0.1648  0.0179 -0.1062
 2486W        W 6550   0.627   4.169   0.014 -0.1105  0.2305 -0.1624
 2487W        W 6551   9.358   1.404   0.877 -0.1262 -0.5012  0.3574
 2488W        W 6552   8.385   2.299   2.156  0.0253 -0.1345  0.0486
 2489W        W 6553   9.607   2.259   8.147 -0.2454  0.1339 -0.1508
 2490W        W 6554   7.713   0.701   8.251  0.0704  0.1627 -0.0507
 2491W        W 6555   7.797   1.452   2.064 -0.1417 -0.3478 -0.1265
 2492W        W 6556   2.926   1.637   0.306  0.0636  0.0768 -0.0197
 2493W        W 6557   5.115   5.796   7.496  0.0116 -0.0032  0.0125
 2494W        W 6558   5.108   4.125   9.266 -0.1000 -0.0358  0.3578
 2495W        W 6559   4.613  10.080   1.942  0.3752  0.1354 -0.3231
 2496W        W 6560   6.632   8.911   1.961  0.0397  0.0765  0.3101
 2497W        W 6561   7.983  10.337   3.384 -0.0090  0.0109  0.5385
 2498W        W 6562   3.159   6.092   9.877  0.0467  0.1008  0.0994
 2499W        W 6563   9.560   9.423   1.588  0.0345 -0.2431  0.3172
 2500W        W 6564   6.383   0.079  10.977 -0.1547 -0.3235 -0.0419
 2501W        W 6565   4.803  10.655   0.130  0.0450  0.0635  0.0303
 2502W        W 6566   0.166   2.270   8.141  0.0668  0.2515 -0.0429
 2503W        W 6567   1.855   0.236   9.747  0.1236 -0.1842 -0.0772
 2504W        W 6568   1.409   1.392   0.705 -0.1385 -0.2113 -0.0695
 2505W        W 6569   3.691  10.122   9.599  0.0358  0.2805  0.1945
 2506W        W 6570   6.377   5.404   2.515 -0.2734  0.1493 -0.0840
 2507W        W 6571   2.270   7.116   9.124  0.0388 -0.0176  0.1411
 2508W        W 6572   2.437   8.066   1.538 -0.0016  0.0525 -0.0765
 2509W        W 6573   8.991   3.404   0.716 -0.0775 -0.0977  0.0549
 2510W        W 6574   5.988   9.969   9.866 -0.2489 -0.0727  0.0559
 2511W        W 6575   0.013   6.848   0.513  0.4539 -0.2019 -0.0312
 2512W        W 6576   1.721   3.757   3.612  0.1020  0.1651 -0.1088
 2513W        W 6577   9.471   2.663   9.060 -0.0188  0.0557  0.1683
 2514W        W 6578   1.372   9.647  11.345  0.4007  0.2928  0.1042
 2515W        W 6579   2.709   5.717   1.396 -0.0286  0.0748  0.2288
 2516W        W 6580  10.135   1.555   0.010 -0.2967 -0.3409 -0.0665
 2517W        W 6581   8.602  10.281  10.553  0.0255  0.2527  0.0604
 2518W        W 6582   0.289   1.199   3.340  0.0853  0.0130 -0.3326
 2519W        W 6583   5.385   3.384  10.480  0.0867  0.1267 -0.2563
 2520W        W 6584   5.007   3.914   0.411  0.0954  0.2908  0.0427
 2521W        W 6585   4.402   5.603  10.846  0.4304  0.0257  0.0763
 2522W        W 6586   2.995   9.959   2.725  0.4408  0.0282 -0.1853
 2523W        W 6587   8.257   1.481   8.429  0.0297  0.2883  0.3594
 2524W        W 6588   6.933  10.042  10.449  0.3346  0.0444  0.1195
 2525W        W 6589   9.539   9.093   2.193 -0.0414  0.2748  0.2669
 2526W        W 6590   5.059   6.161  11.248 -0.2429  0.1946 -0.1413
 2527W        W 6591  10.141   0.858  10.457 -0.3849  0.0024 -0.1887
 2528W        W 6592   9.097   7.128   1.569 -0.0394  0.3184  0.0622
 2529W        W 6593   1.049  10.038   3.700  0.4012 -0.0348  0.2453
 2530W        W 6594   4.924   5.004   7.949  0.2293  0.3015 -0.2082
 2531W        W 6595   3.004   3.520   9.978 -0.0012  0.0702  0.4164
 2532W        W 6596   9.653   5.458   8.650  0.3074 -0.0456 -0.0226
 2533W        W 6597   0.692   6.120   8.661  0.1181 -0.2226  0.1929
 2534W        W 6598   1.075   9.359   9.616 -0.2478 -0.4045 -0.1060
 2535W        W 6599   3.991   4.307   1.734 -0.4630  0.1286 -0.0557
 2536W        W 6600  10.030   5.813   2.988 -0.1175  0.2609 -0.0002
 2537W        W 6601   6.575   0.538   0.335  0.1019  0.0493  0.0439
 2538W        W 6602   2.774   3.092   0.146 -0.1920  0.2225 -0.1114
 2539W        W 6603   7.087   3.454  10.415 -0.0525  0.2432 -0.1438
 2540W        W 6604   2.070   9.877   9.886 -0.0604  0.2111  0.1343
 2541W        W 6605  10.361   4.446   2.706  0.1021  0.2587  0.0372
 2542W        W 6606   7.496   2.455   3.332 -0.2725 -0.1057  0.1678
 2543W        W 6607   6.686   4.132  11.535  0.1275  0.0395 -0.2340
 2544W        W 6608   0.519   7.377   9.291 -0.0429  0.0534  0.0690
 2545W        W 6609   5.278   3.742   9.626  0.1324  0.1738 -0.0814
 2546W        W 6610   7.557   0.958   2.210 -0.0497 -0.3716  0.0779
 2547W        W 6611   2.692   9.772   8.551  0.0842  0.0295  0.0117
 2548W        W 6612   6.734   2.175  11.360  0.3574  0.0404  0.1361
 2549W        W 6613   4.063   9.821   8.831  0.1035  0.1778 -0.1359
 2550W        W 6614   4.975   4.357   1.796 -0.1001 -0.0936 -0.3298
 2551W        W 6615   9.657   7.390   1.685  0.0853  0.0428 -0.0508
 2552W        W 6616   3.565   6.820  10.592 -0.2365 -0.1839 -0.4605
 2553W        W 6617   1.729   8.579   9.800  0.0986  0.1823 -0.1461
 2554W        W 6618   6.494   0.209   9.512 -0.1316 -0.1265 -0.0984
 2555W        W 6619   9.514  10.590   1.171 -0.0874 -0.2158  0.0686
 2556W        W 6620  10.283   5.560   2.590 -0.2534  0.0197 -0.2250
 2557W        W 6621   4.478   0.014   2.857 -0.3726  0.2055  0.3559
 2558W        W 6622   2.128   2.275   0.199 -0.0821  0.0612  0.2649
 2559W        W 6623   8.739  10.410  10.062 -0.0575  0.2274  0.2624
 2560W        W 6624   9.780   4.400   9.393 -0.0059 -0.0700  0.2869
 2561W        W 6625   4.401   4.936  10.785 -0.1962  0.2880  0.2736
 2562W        W 6626   7.153   3.787   2.001  0.1526 -0.0436  0.0813
 2563W        W 6627   4.428   2.590   2.637 -0.0633 -0.2375  0.1536
 2564W        W 6628   6.899   1.393   0.042  0.4400 -0.2492  0.3584
 2565W        W 6629   3.517   9.144   8.984 -0.1315  0.2851 -0.1252
 2566W        W 6630   7.429   1.885   1.070 -0.2682 -0.1772  0.0762
 2567W        W 6631   3.513   7.818   2.114 -0.0477  0.0281 -0.3703
 2568W        W 6632   7.067   2.246   9.342  0.1633  0.3153 -0.0179
 2569W        W 6633   7.465   5.145   9.625  0.1046 -0.1280  0.2116
 2570W        W 6634   1.406   9.688   2.512  0.0234  0.2794  0.0940
 2571W        W 6635   3.532   3.170   1.228 -0.0459 -0.1784  0.0312
 2572W        W 6636   4.578   1.601   3.685  0.3714  0.0038  0.3024
 2573W        W 6637   2.522   2.491  10.901 -0.0877  0.1698  0.2427
 2574W        W 6638   0.728   6.084   3.669  0.1316  0.0687  0.3505
 2575W        W 6639   4.182   5.677   1.615 -0.0120 -0.0124  0.0144
 2576W        W 6640   0.331   2.604   0.635  0.3543 -0.1348 -0.1631
 2577W        W 6641   7.954   3.696   0.594 -0.0507  0.0185  0.1638
 2578W        W 6642   9.820   5.025  11.464 -0.3118 -0.0223 -0.3236
 2579W        W 6643   7.407   2.365  10.320 -0.1252  0.0193  0.0384
 2580W        W 6644   9.509   0.395   9.221 -0.2901  0.2630  0.4454
 2581W        W 6645   9.553   1.471  10.739 -0.1281 -0.0535  0.0197
 2582W        W 6646   9.714   3.751   9.487  0.0799 -0.2207  0.1012
 2583W        W 6647   3.072   2.995   2.907  0.1302 -0.0962 -0.2454
 2584W        W 6648   5.422   4.628  10.952 -0.1070 -0.0423  0.3379
 2585W        W 6649   5.164   1.221   8.574  0.2142  0.1022 -0.0257
 2586W        W 6650   6.166   4.962   9.240 -0.2292  0.4701 -0.0646
 2587W        W 6651   0.920   4.933   9.884 -0.2121 -0.1325  0.2759
 2588W        W 6652   0.551   7.222   1.173 -0.0512 -0.0226 -0.0615
 2589W        W 6653   5.378  10.163  11.082  0.0079  0.1851 -0.3462
 2590W        W 6654   8.644   9.685   2.634  0.0782  0.1478 -0.3520
 2591W        W 6655   5.768   1.166   2.339  0.1998  0.1543 -0.0586
 2592W        W 6656   4.940   1.744   8.674 -0.0711 -0.1847 -0.2570
 2593W        W 6657  10.560   2.752   9.575  0.1389 -0.2283 -0.1761
 2594W        W 6658   5.031   5.212   1.848  0.3825 -0.0970 -0.1181
 2595W        W 6659   4.119   3.805   8.037 -0.1153 -0.1095  0.1795
 2596W        W 6660   3.063  10.408   9.779 -0.1172 -0.1089 -0.4555
 2597W        W 6661   0.102   6.838   9.188 -0.0805  0.3698 -0.0137
 2598W        W 6662   7.385   0.546  11.163  0.1070  0.3028 -0.1764
 2599W        W 6663   3.801   6.549   0.937  0.1447  0.0614  0.3464
 2600W        W 6664   6.711  10.020   9.201  0.1434  0.2054 -0.2289
 2601W        W 6665   5.560   0.852   8.464  0.3268 -0.0927  0.0952
 2602W        W 6666  10.026   5.279   3.466 -0.0285  0.0950 -0.1539
 2603W        W 6667   4.517   9.338   2.194  0.4069  0.2846 -0.2025
 2604W        W 6668   8.315   3.583  10.910 -0.0713  0.0131 -0.5444
 2605W        W 6669   5.609   7.927   7.830  0.4149  0.1807 -0.0314
 2606W        W 6670   5.547   7.406   8.172  0.2022 -0.0952  0.1006
 2607W        W 6671   4.732   7.737   9.704  0.3023 -0.1281  0.0279
 2608W        W 6672   0.836   6.825  11.410 -0.3550 -0.2982  0.0520
 2609W        W 6673   7.764   3.029   0.021  0.0136  0.1351 -0.1874
 2610W        W 6674   6.842   7.666   0.386 -0.3369 -0.1867 -0.2411
 2611W        W 6675   1.307   3.394   0.570 -0.0017 -0.2380 -0.2164
 2612W        W 6676   2.966   4.742   2.013 -0.0852  0.2757 -0.0265
 2613W        W 6677   2.162   5.240  10.435 -0.2613 -0.7162 -0.1665
 2614W        W 6678   8.830   3.547   1.272  0.0409 -0.0520  0.1838
 2615W        W 6679   8.746   0.033  10.753 -0.0881  0.0226 -0.0918
 2616W        W 6680   5.375   2.968   2.074  0.5701 -0.3600  0.0456
 2617W        W 6681   5.922   4.052   3.229  0.1079 -0.1932 -0.0496
 2618W        W 6682   2.752  10.640   7.444  0.0890  0.2448  0.0167
 2619W        W 6683   6.311   9.950   0.843  0.4963 -0.0064 -0.0322
 2620W        W 6684   4.794   9.604   1.920 -0.2685 -0.3472  0.0446
 2621W        W 6685   6.666   0.167  10.487  0.3119 -0.1211  0.1642
 2622W        W 6686   5.741   5.096   3.944  0.0790 -0.2286  0.1153
 2623W        W 6687   9.459   3.884   8.064 -0.2110 -0.1818  0.0150
 2624W        W 6688   7.138  10.090   2.313 -0.0928 -0.3778 -0.0807
 2625W        W 6689   8.481   5.427   0.054  0.3700 -0.1215 -0.1989
 2626W        W 6690   5.604   9.303   8.921  0.1882 -0.0475  0.2561
 2627W        W 6691   9.205   0.720   9.727  0.0015 -0.2916 -0.0509
 2628W        W 6692   0.121   5.912   0.901  0.0816  0.2406  0.2751
 2629W        W 6693   0.214   4.244   2.672 -0.1227 -0.1107  0.3808
 2630W        W 6694  10.492   2.238   9.395 -0.0175 -0.1798  0.0295
 2631W        W 6695   6.778   2.686   4.194  0.2669 -0.0145  0.1114
 2632W        W 6696   8.175   1.447  11.073  0.1146 -0.2821  0.1324
 2633W        W 6697   3.964   2.520   9.029  0.1615 -0.2688  0.1982
 2634W        W 6698   8.066   2.238   7.484 -0.0201  0.2802  0.1746
 2635W        W 6699   4.003   0.826   2.441 -0.0101 -0.3695 -0.2601
 2636W        W 6700   3.823   9.007   2.720 -0.0827  0.2939 -0.4100
 2637W        W 6701   6.969   6.371   8.366 -0.0326  0.0672 -0.3275
 2638W        W 6702   5.955   8.297  10.314 -0.0248 -0.2695 -0.0327
 2639W        W 6703   3.948   9.604  10.504 -0.2142 -0.0044 -0.2175
 2640W        W 6704   4.735   2.691  10.974 -0.2577 -0.1950 -0.4821
 2641W        W 6705   1.089   6.147   0.003 -0.1320  0.2560  0.1958
 2642W        W 6706   2.078   6.421   0.764  0.1288  0.0072  0.1586
 2643W        W 6707   4.870   2.252   2.080 -0.1328  0.2553  0.1486
 2644W        W 6708  10.144   7.033   8.154  0.2286  0.0888  0.1081
 2645W        W 6709   6.577   6.250   2.250  0.2347  0.1864  0.0981
 2646W        W 6710   5.556   7.862   8.303 -0.0450  0.0197 -0.1860
 2647W        W 6711   5.636   6.650   0.175  0.0355 -0.0181  0.4021
 2648W        W 6712  10.036   2.394   0.544 -0.0124 -0.2992  0.3000
 2649W        W 6713   6.293   3.197   9.385  0.1827 -0.4560 -0.2499
 2650W        W 6714   4.412   9.000   0.470  0.1397  0.2502 -0.1745
 2651W        W 6715   2.541   6.506   8.695  0.0430 -0.0126 -0.1181
 2652W        W 6716   8.864  10.090   8.822 -0.3944 -0.2127 -0.2805
 2653W        W 6717   7.776   3.805  10.714  0.0086 -0.0193  0.0584
 2654W        W 6718   8.702   3.357   8.108 -0.0158 -0.3701 -0.1286
 2655W        W 6719   2.618   8.059   2.036 -0.0741  0.0749  0.0746
 2656W        W 6720   4.580   3.712  10.100 -0.4383  0.1145  0.1418
 2657W        W 6721   2.534   1.420   2.636  0.2652  0.1725  0.1690
 2658W        W 6722   7.243   8.409   2.764 -0.3306  0.0462 -0.0926
 2659W        W 6723   5.547   8.066   9.778 -0.1228  0.0081  0.1985
 2660W        W 6724   8.796   1.336   0.357  0.0320 -0.0147  0.1200
 2661W        W 6725   0.520   2.141   2.388  0.1307  0.0345  0.1677
 2662W        W 6726   7.037   9.469   9.331  0.0807  0.0420  0.1899
 2663W        W 6727   2.972   9.805  11.033 -0.1907  0.1779 -0.2479
 2664W        W 6728   0.613   0.556   8.895 -0.1759  0.2493  0.0815
 2665W        W 6729   1.982   0.503   4.078 -0.3512  0.1578  0.0970
 2666W        W 6730   9.650   4.767   9.717 -0.0268  0.0104  0.1476
 2667W        W 6731   3.750   9.941   1.286 -0.0601  0.2234 -0.0517
 2668W        W 6732  10.149   7.257   3.432  0.3140  0.0675 -0.2151
 2669W        W 6733   6.942   5.095   9.723 -0.2933 -0.1698 -0.1094
 2670W        W 6734   5.068   3.267   1.794 -0.0305  0.0590  0.0583
 2671W        W 6735   3.442   9.576   1.356 -0.0796 -0.0441  0.0125
 2672W        W 6736   0.476   5.073   9.955 -0.0179 -0.1576 -0.2252
 2673W        W 6737   6.577   9.769  10.171 -0.4277  0.3855 -0.2623
 2674W        W 6738   8.630   8.129   9.877 -0.4432 -0.0728  0.4166
 2675W        W 6739   2.058   1.194   4.185 -0.2775  0.2962  0.1146
 2676W        W 6740   6.043   9.514   3.547  0.2166 -0.1093  0.3954
 2677W        W 6741   6.815   4.162   2.318  0.0294  0.1422 -0.2634
 2678W        W 6742   4.319   9.349  11.193 -0.1466  0.1297 -0.0662
 2679W        W 6743   4.582   5.268  11.192  0.0119 -0.1867 -0.1648
 2680W        W 6744   8.144   4.085  10.890  0.1235 -0.0048  0.1086
 2681W        W 6745   1.802  10.087   0.397  0.0166 -0.0753  0.2326
 2682W        W 6746   1.012   5.233   3.919  0.2424 -0.2377 -0.1338
 2683W        W 6747  10.584   0.819  10.139 -0.1336  0.2123  0.1101
 2684W        W 6748   1.899   7.793   3.060 -0.2690  0.0900 -0.2660
 2685W        W 6749   8.073   4.146   2.502  0.1977 -0.1828  0.2097
 2686W        W 6750   9.190   6.961  10.276  0.1532  0.0100  0.1815
 2687W        W 6751   5.663   0.233   0.112 -0.2193 -0.1839  0.0330
 2688W        W 6752   1.971   6.568  10.117 -0.1196  0.1651 -0.0640
 2689W        W 6753   2.257   2.231   8.736  0.1191 -0.0024  0.0127
 2690W        W 6754   9.513   7.080   2.120 -0.0229  0.1190 -0.1974
 2691W        W 6755   6.389   5.786   1.020 -0.0452 -0.1975 -0.0903
 2692W        W 6756   8.545   2.307   2.990  0.0813  0.1265  0.0217
 2693W        W 6757   4.605   3.795   3.361 -0.1814 -0.0878  0.3106
 2694W        W 6758   8.986   7.025  10.823 -0.0327  0.0200  0.2422
 2695W        W 6759   5.954   2.591   8.779 -0.3292 -0.0192 -0.0683
 2696W        W 6760   9.911   0.449   2.301 -0.0187 -0.1393  0.3365
 2697W        W 6761   1.542   9.007  11.131  0.0148 -0.1548  0.3156
 2698W        W 6762   3.378   3.281   2.215  0.0496 -0.2521  0.2594
 2699W        W 6763   0.242   9.526  10.686 -0.0011 -0.0344  0.1585
 2700W        W 6764   0.927   4.400   7.965 -0.0222  0.2994 -0.0579
 2701W        W 6765   0.935   7.109   0.265 -0.1008 -0.1863 -0.0510
 2702W        W 6766   6.554   1.242  10.312 -0.1898 -0.0826 -0.1465
 2703W        W 6767   9.013   2.665   9.960 -0.3557  0.0441 -0.0050
 2704W        W 6768  10.200   1.492   9.355 -0.1311 -0.1834 -0.2361
 2705W        W 6769   1.078   3.852   0.013  0.0973  0.0294 -0.0514
 2706W        W 6770   1.531   6.245   2.514  0.6077  0.1985  0.1027
 2707W        W 6771   0.565   7.084  10.587  0.0129 -0.1631 -0.3016
 2708W        W 6772   8.648   1.979  11.455 -0.1213 -0.1049  0.0173
 2709W        W 6773  10.117   9.768  11.173 -0.1650 -0.0712 -0.1163
 2710W        W 6774   2.319   4.324  10.463 -0.1563 -0.4004  0.0511
 2711W        W 6775   7.358   8.131   9.916  0.0636  0.1928  0.1546
 2712W        W 6776   7.905   7.749   1.377  0.0194  0.0416 -0.2406
 2713W        W 6777   9.437   1.925   8.445  0.2109  0.1165 -0.1040
 2714W        W 6778   5.777   4.367  11.386  0.0253  0.2396 -0.0064
 2715W        W 6779   9.346   3.960   3.567  0.0258 -0.0209  0.1339
 2716W        W 6780   4.195   1.383   0.592 -0.4446 -0.0776  0.2168
 2717W        W 6781   8.372   3.669   8.499  0.2728 -0.1110  0.1773
 2718W        W 6782   2.181   5.691   8.113  0.0150  0.2499 -0.1745
 2719W        W 6783   0.980   4.693   2.975 -0.3548 -0.1136 -0.1206
 2720W        W 6784   2.945   5.680   3.129  0.2121 -0.2007  0.1494
 2721W        W 6785   2.999   2.843   3.364  0.2513  0.2726  0.0470
 2722W        W 6786   8.327   2.898   9.330 -0.3212  0.0944  0.2406
 2723W        W 6787   1.975   7.576   8.985  0.3796 -0.1187  0.2951
 2724W        W 6788   2.072   6.876  11.025 -0.0423  0.0737  0.0294
 2725W        W 6789   2.675   2.349   3.695 -0.1369 -0.0522  0.0520
 2726W        W 6790   5.944   7.369   0.562 -0.1583  0.3064 -0.0456
 2727W        W 6791   2.153   1.270  10.545  0.0316 -0.2373 -0.1940
 2728W        W 6792   2.205   4.123   3.260  0.2234  0.1495  0.2577
 2729W        W 6793   1.327   2.851  11.337  0.2201 -0.2174 -0.0383
 2730W        W 6794   9.453   6.328   1.497 -0.1088  0.0453  0.0347
 2731W        W 6795   7.227   7.053   3.474  0.0885 -0.0125  0.2522
 2732W        W 6796   3.176   4.118   2.653  0.0928  0.1747 -0.1691
 2733W        W 6797   2.575   1.821   2.953 -0.1196 -0.5852  0.0285
 2734W        W 6798   4.618   1.040   1.658  0.2470  0.0236  0.0601
 2735W        W 6799   8.591   2.603   1.048  0.1304 -0.2368 -0.3715
 2736W        W 6800  10.002   5.583   2.034  0.0660 -0.3595  0.1485
 2737W        W 6801   6.990   9.680   2.014  0.0595 -0.2179 -0.1084
 2738W        W 6802   1.728   0.724   0.050 -0.1174 -0.0287  0.1515
 2739W        W 6803  10.480   0.426   8.345 -0.2152  0.2164 -0.0447
 2740W        W 6804   1.081   4.980   8.629 -0.0564  0.2766 -0.1246
 2741W        W 6805   2.360   9.599   8.109  0.1638 -0.2555 -0.2065
 2742W        W 6806   1.049   4.561   2.410 -0.3038  0.1231  0.3168
 2743W        W 6807  10.478   9.214  10.471  0.2471 -0.1551  0.2070
 2744W        W 6808   0.451   6.408   1.679 -0.0549 -0.2031 -0.0853
 2745W        W 6809   0.443   5.587  10.409  0.0264 -0.2088  0.2549
 2746W        W 6810   7.462   9.172   9.402 -0.1275  0.1051  0.1393
 2747W        W 6811   4.252   8.289   3.458  0.0859  0.0261 -0.0037
 2748W        W 6812   8.937   8.665  11.064 -0.0622  0.2174 -0.1180
 2749W        W 6813   4.026   5.441   0.222 -0.1816 -0.0076 -0.2762
 2750W        W 6814   6.849   8.693   8.694  0.0236 -0.3629  0.2184
 2751W        W 6815   5.597   5.073   0.290 -0.0164  0.0189  0.0650
 2752W        W 6816   4.693   3.835   8.054  0.1169  0.0279 -0.0182
 2753W        W 6817   5.924   7.773  10.222  0.2831 -0.1494  0.4557
 2754W        W 6818   7.147   1.975   9.796  0.0212 -0.0875 -0.0686
 2755W        W 6819   4.652   1.560  10.502 -0.1907  0.0603 -0.0234
 2756W        W 6820   1.559   8.571   1.330  0.1205 -0.2887  0.2566
 2757W        W 6821   3.732   6.153   3.336  0.0532  0.1999 -0.1833
 2758W        W 6822   9.438   7.225   0.253 -0.0840 -0.0507  0.0373
 2759W        W 6823   1.046   3.579   1.501  0.1512 -0.0739  0.0677
 2760W        W 6824   3.783   1.348   2.670 -0.0858  0.0952 -0.2957
 2761W        W 6825   7.515   3.455   1.712  0.0341  0.3016  0.2240
 2762W        W 6826   0.375   7.930   1.414 -0.0020  0.0718 -0.2154
 2763W        W 6827   7.693   4.285  10.874 -0.1465  0.0278 -0.1715
 2764W        W 6828   1.177   3.098   8.213 -0.2965  0.1105  0.3920
 2765W        W 6829   2.082   1.190   0.003 -0.2104  0.1041 -0.0679
 2766W        W 6830   2.913   0.270   8.969 -0.0275 -0.3602  0.2900
 2767W        W 6831   1.598   7.583  10.839  0.1104 -0.1152  0.0140
 2768W        W 6832   2.934   3.711   0.930  0.1357  0.1569  0.1053
 2769W        W 6833   6.704   2.448   9.721 -0.3250  0.3143  0.1755
 2770W        W 6834   5.239   3.853   8.311  0.2162  0.0535 -0.0523
 2771W        W 6835   7.262   4.282   2.165  0.0993 -0.1642  0.2586
 2772W        W 6836   2.634   0.383   9.999  0.1925  0.0325 -0.0697
 2773W        W 6837   5.669   6.229  10.026 -0.3176  0.0872 -0.0965
 2774W        W 6838   0.538   5.353   1.317  0.1750 -0.0291  0.0246
 2775W        W 6839   3.573  10.416   8.652 -0.3355 -0.0383 -0.1066
 2776W        W 6840   4.710   3.266  10.974 -0.1561  0.0424  0.1662
 2777W        W 6841   9.670   1.357  11.367  0.2644 -0.2313  0.2355
 2778W        W 6842   6.472   2.166  10.962  0.1013 -0.0614  0.0978
 2779W        W 6843   3.954   8.056  10.897 -0.2685  0.0835  0.0871
 2780W        W 6844   5.600   3.445   9.940 -0.1347  0.1132  0.2792
 2781W        W 6845   1.617   5.878   9.727  0.1544  0.1163  0.2312
 2782W        W 6846   5.126   7.598   2.645 -0.3658 -0.0852 -0.0076
 2783W        W 6847   9.847   9.766  10.720 -0.1008 -0.4014  0.0716
 2784W        W 6848   1.515   8.212   4.169 -0.3108  0.2286  0.0723
 2785W        W 6849   1.175   4.206   2.808 -0.1371  0.1070 -0.2002
 2786W        W 6850   7.674   1.296   2.576 -0.0822  0.2502 -0.1300
 2787W        W 6851   8.347   3.577   2.325 -0.0577  0.1991 -0.0705
 2788W        W 6852   7.758   5.985  10.933 -0.1296 -0.1739  0.1697
 2789W        W 6853   1.569   6.773   8.581  0.0779 -0.0822  0.2014
 2790W        W 6854   8.845   8.091   0.329  0.2161 -0.0494  0.1127
 2791W        W 6855  10.621   2.295   0.583  0.4504  0.2026  0.1790
 2792W        W 6856   1.239   5.642  11.325  0.1084 -0.0457 -0.0449
 2793W        W 6857   3.311   2.482   0.379  0.0630  0.0437 -0.0453
 2794W        W 6858   6.633   4.868   9.047  0.5922 -0.1333  0.2176
 2795W        W 6859   4.294  10.507   9.465 -0.0896  0.0556  0.2667
 2796W        W 6860   5.312   6.559   8.712 -0.0794 -0.0447  0.2740
 2797W        W 6861   3.567  10.548   3.357 -0.0517  0.2878  0.0377
 2798W        W 6862   1.387  10.429   8.556 -0.0367 -0.3540  0.3474
 2799W        W 6863   0.935   5.896  10.365  0.3534 -0.0320  0.0224
 2800W        W 6864   0.209   7.340   1.978 -0.1957  0.2038 -0.0688
 2801W        W 6865   9.001   1.371   3.011 -0.0638 -0.0366 -0.0929
 2802W        W 6866   5.224   1.411   2.998  0.5545 -0.1117  0.1777
 2803W        W 6867   4.235   1.060   9.759  0.0449 -0.1805 -0.0276
 2804W        W 6868  10.630   8.645   2.133 -0.2949 -0.1098  0.0521
 2805W        W 6869  10.088   1.655  10.216  0.0247  0.3382  0.0303
 2806W        W 6870   9.755   3.326   2.966 -0.1958  0.3475 -0.2079
 2807W        W 6871   9.699   9.204  10.166  0.1964 -0.1089  0.0078
 2808W        W 6872   2.773   0.272   8.193 -0.0259 -0.3126 -0.3946
 2809W        W 6873   2.900   1.973  11.011  0.1439 -0.2687  0.3897
 2810W        W 6874   4.898   6.628  10.324  0.1468  0.1236 -0.0966
 2811W        W 6875  10.282   6.379   2.201  0.3337  0.1144 -0.0743
 2812W        W 6876   9.625   8.479   2.806  0.0273  0.0530  0.2313
 2813W        W 6877   6.987   1.212   8.428  0.0834 -0.0299 -0.0318
 2814W        W 6878   4.692  10.297  10.673 -0.0251  0.2522 -0.0295
 2815W        W 6879   0.335   3.606   0.688 -0.2066 -0.1512  0.0697
 2816W        W 6880   9.879   2.136  10.092 -0.4296  0.0709  0.0306
 2817W        W 6881   0.724   4.016   1.486 -0.0856 -0.3498  0.1434
 2818W        W 6882   0.437   8.214   4.060  0.5437 -0.1032 -0.1000
 2819W        W 6883   9.891   6.262  10.569 -0.1831 -0.0984  0.0181
 2820W        W 6884   5.917   2.239   9.254 -0.3081 -0.2183  0.1778
 2821W        W 6885   2.346  10.357   7.646 -0.0895  0.3471  0.0492
 2822W        W 6886   9.592   1.701  10.304  0.1102 -0.3332 -0.0702
 2823W        W 6887   6.312   1.045   4.067 -0.0655  0.0487  0.0151
 2824W        W 6888   8.659   3.083   1.125  0.1843  0.0452 -0.1169
 2825W        W 6889   0.274   1.905  10.242 -0.3401  0.1148 -0.4224
 2826W        W 6890   1.818   7.038   9.969 -0.4106  0.0558  0.1033
 2827W        W 6891   9.953   3.422   7.927 -0.0722 -0.1160 -0.0941
 2828W        W 6892   6.191   5.601  10.553  0.0607  0.2988 -0.0801
 2829W        W 6893   2.934   1.794   2.538  0.0469 -0.1420 -0.0637
 2830W        W 6894   5.573   4.109   9.478 -0.0338 -0.3507 -0.0102
 2831W        W 6895   5.103  10.016  10.613 -0.1349 -0.0677 -0.0211
 2832W        W 6896   2.228   9.611   4.086 -0.0632 -0.2801  0.4449
 2833W        W 6897   1.924   9.186   0.328 -0.0113  0.0083  0.2048
 2834W        W 6898   3.717   9.273   9.493  0.2970 -0.4045 -0.2567
 2835W        W 6899   8.421   0.340   3.767  0.0740  0.1717  0.0105
 2836W        W 6900   8.392   1.107  10.739 -0.1238  0.1465  0.2360
 2837W        W 6901   1.402  10.585   9.915 -0.1531  0.0168 -0.2647
 2838W        W 6902   5.940   4.637   9.590 -0.0470  0.1346 -0.0206
 2839W        W 6903   7.117  10.399   1.012  0.1298  0.2037  0.0023
 2840W        W 6904   0.021   9.657   8.564 -0.0854  0.4167 -0.1143
 2841W        W 6905  10.038   9.032   2.987 -0.2762  0.0186  0.0844
 2842W        W 6906   7.653   1.729  10.125  0.0427  0.1695  0.0640
 2843W        W 6907   8.031   1.115   1.018 -0.1746  0.0497  0.0571
 2844W        W 6908   2.497   8.552  10.867  0.0241 -0.0318  0.1917
 2845W        W 6909   2.585   3.069   2.609 -0.0640 -0.0123 -0.0697
 2846W        W 6910   4.560   4.218   7.689  0.0654 -0.1466 -0.0571
 2847W        W 6911   3.906  10.455   0.356  0.1364  0.0756  0.3887
 2848W        W 6912   7.134   9.777  11.510 -0.0166 -0.1675  0.0607
 2849W        W 6913   0.093   5.590   1.913  0.1931  0.3589  0.1752
 2850W        W 6914   2.460   4.613   0.716 -0.1405  0.0473  0.0778
 2851W        W 6915  10.483   7.708   3.610  0.2188  0.0105  0.0812
 2852W        W 6916   5.243   4.548   9.472 -0.0519  0.1941 -0.4998
 2853W        W 6917   1.098   0.773   0.145 -0.1529 -0.1652 -0.2821
 2854W        W 6918   1.424   0.473  10.012  0.0113 -0.1140 -0.0093
 2855W        W 6919   1.110   9.099   2.042 -0.2367  0.1019 -0.0643
 2856W        W 6920   7.413   4.114  10.465 -0.1718  0.0946 -0.1869
 2857W        W 6921   1.964   1.812   1.991 -0.0252 -0.0526 -0.1434
 2858W        W 6922   5.622   8.248   2.418  0.3012 -0.2846  0.2133
 2859W        W 6923   2.301   6.424   2.827  0.0142  0.1117 -0.0145
 2860W        W 6924   9.418   0.156   3.597 -0.0687  0.0194 -0.1309
 2861W        W 6925   5.645   2.044   0.227 -0.1960  0.0909 -0.2203
 2862W        W 6926   7.966   4.496   3.754  0.0383 -0.1970 -0.0070
 2863W        W 6927   7.701   9.706   0.895 -0.0267  0.2085 -0.0054
 2864W        W 6928   1.948   1.182   8.440 -0.1424 -0.4919 -0.0625
 2865W        W 6929   7.130   0.125  11.370 -0.2579 -0.1116 -0.1604
 2866W        W 6930   9.112   1.363   8.606 -0.0266  0.2049  0.3588
 2867W        W 6931   6.545   4.477   1.305  0.1331  0.3230  0.0845
 2868W        W 6932   6.604   6.576  11.012  0.0715 -0.0821  0.0790
 2869W        W 6933   4.931   1.171  10.237 -0.2057  0.1978 -0.3005
 2870W        W 6934   0.948   9.174   2.942  0.0553  0.2842  0.2436
 2871W        W 6935   1.583   6.240   0.839 -0.0749  0.1071  0.0792
 2872W        W 6936   7.346   4.619  10.523 -0.1443 -0.2368  0.2033
 2873W        W 6937   8.567   2.617   0.531 -0.1367  0.0544 -0.0398
 2874W        W 6938   1.677   7.192   9.290  0.0597 -0.0473 -0.1207
 2875W        W 6939   3.904   3.257  10.499 -0.1672  0.1149  0.2583
 2876W        W 6940   1.874   8.391   0.144 -0.1772 -0.1237 -0.0557
 2877W        W 6941   5.110   2.630  10.409 -0.0953  0.2171  0.1252
 2878W        W 6942   8.634   1.768   9.987  0.1475 -0.4963  0.3075
 2879W        W 6943   0.525   0.390  10.989  0.2402  0.3841  0.3858
 2880W        W 6944   2.633   2.679   2.983 -0.2154 -0.4644  0.0742
 2881W        W 6945   5.517   6.683   3.852  0.0253 -0.0286 -0.0944
 2882W        W 6946   5.214  10.436   8.448 -0.0759  0.0962  0.0630
 2883W        W 6947   0.668   7.832   8.579  0.0756  0.0110 -0.0555
 2884W        W 6948   6.669  10.324   2.345 -0.1949  0.0113 -0.0842
 2885W        W 6949   6.524   5.545   4.004  0.3561 -0.1198  0.1822
 2886W        W 6950   0.107   6.504   2.547 -0.0303  0.0596  0.0105
 2887W        W 6951   2.487   8.904   3.098 -0.1050  0.3912  0.0080
 2888W        W 6952   7.550   4.018   2.951 -0.2454  0.1688 -0.3576
 2889W        W 6953   1.244   6.762   1.149  0.0328  0.2544 -0.0796
 2890W        W 6954   3.620   0.534  10.080 -0.0963  0.1132  0.0432
 2891W        W 6955   0.647   7.892   3.699 -0.1674 -0.1692 -0.0047
 2892W        W 6956   5.670  10.584   8.552 -0.0672  0.1197  0.0186
 2893W        W 6957   5.461   7.721  10.646 -0.0669  0.0582 -0.1989
 2894W        W 6958   1.290   8.130   1.428 -0.2192 -0.1573  0.1999
 2895W        W 6959   5.856   7.083   3.932 -0.2213  0.0597  0.2674
 2896W        W 6960   9.356   2.783   0.269 -0.4043 -0.1529  0.2456
 2897W        W 6961   5.502  10.591   0.485 -0.2052  0.2177 -0.2746
 2898W        W 6962   9.537   5.162  10.027  0.0133  0.2122  0.1658
 2899W        W 6963   0.015   1.091   0.654  0.0845  0.0134  0.2419
 2900W        W 6964   8.724   6.772   2.643  0.0489 -0.1581  0.1510
 2901W        W 6965   5.953  10.537   0.280  0.1273  0.0985  0.1545
 2902W        W 6966   0.555   4.799   0.955 -0.1680 -0.2100  0.1162
 2903W        W 6967   7.091   8.290   1.248 -0.1902 -0.0544 -0.5186
 2904W        W 6968   7.684   2.146   9.938  0.2980  0.2443 -0.1448
 2905W        W 6969   2.985   1.108   9.443  0.2611  0.2406  0.0784
 2906W        W 6970   9.171   1.012   0.550  0.2185 -0.1045  0.3518
 2907W        W 6971   8.762   8.874   0.499 -0.3185  0.1121  0.3674
 2908W        W 6972   5.392   6.578  10.572  0.2943  0.0043 -0.3608
 2909W        W 6973   1.204   8.801   9.688 -0.2309 -0.0699 -0.0316
 2910W        W 6974   1.343  10.496   3.443 -0.4566 -0.2934 -0.0921
 2911W        W 6975   9.960   9.252   9.223  0.0481  0.6129 -0.1106
 2912W        W 6976   3.934   1.186   9.345 -0.0153  0.1204 -0.1992
 2913W        W 6977   2.184   1.647  11.205  0.1787  0.0614  0.0381
 2914W        W 6978   1.592   1.006   2.005  0.0613 -0.1135  0.0934
 2915W        W 6979   9.876   7.724   9.445 -0.1903 -0.0359  0.2315
 2916W        W 6980   4.291   7.777   1.620  0.1045 -0.2631  0.0414
 2917W        W 6981   3.497   4.548   0.981  0.1188 -0.3096 -0.0504
 2918W        W 6982   5.561   7.147   9.755 -0.3167  0.0314 -0.1084
 2919W        W 6983  10.352   3.889   3.384 -0.1390  0.3210  0.2854
 2920W        W 6984   9.799   3.374   1.998  0.0893  0.0680  0.0573
 2921W        W 6985   8.007   3.352  10.538 -0.4380 -0.0083 -0.0565
 2922W        W 6986   5.655   2.661  11.077 -0.1351  0.3412 -0.0919
 2923W        W 6987   3.420   1.099  11.210 -0.0075  0.1756 -0.1667
 2924W        W 6988   7.255   2.959  10.290  0.1269 -0.4451  0.1898
 2925W        W 6989   2.925   6.395   0.244  0.0149  0.2752 -0.0636
 2926W        W 6990   6.541   1.180  10.896 -0.1239  0.4241  0.0749
 2927W        W 6991   3.985   3.341  10.998 -0.3253  0.3389  0.0999
 2928W        W 6992   3.484   3.685   1.183 -0.5187  0.2062 -0.3711
 2929W        W 6993   8.131   7.060   0.912  0.0316  0.1392  0.1876
 2930W        W 6994   1.361   4.329  10.300 -0.2683 -0.0360 -0.1709
 2931W        W 6995   4.859   3.101   1.284 -0.1761  0.2890  0.0895
 2932W        W 6996   1.393   9.169  10.094  0.0028  0.3906  0.3200
 2933W        W 6997   5.228   3.212   9.665 -0.0934  0.2492  0.0578
 2934W        W 6998   0.338   3.086   0.962 -0.3362  0.1854  0.3144
 2935W        W 6999   3.629   7.158   9.299 -0.0690  0.0387 -0.1544
 2936W        W 7000   5.653   6.590   4.379 -0.0832  0.1414  0.1767
 2937W        W 7001   4.139   8.857   2.335 -0.1136 -0.1478  0.2327
 2938W        W 7002   5.337   7.121   3.542  0.0219  0.3304 -0.0819
 2939W        W 7003   8.120   9.850   9.395 -0.0337  0.2457  0.3994
 2940W        W 7004   3.848   1.967  10.137  0.4220 -0.1921 -0.2004
 2941W        W 7005   6.730   1.944   2.839  0.3971 -0.1325  0.1990
 2942W        W 7006   4.614   0.429   0.275 -0.2992 -0.3804 -0.2028
 2943W        W 7007   2.865   2.328   9.111 -0.0257 -0.0109 -0.0716
 2944W        W 7008   3.639   5.597  11.484 -0.1282  0.0332 -0.2507
 2945W        W 7009   0.306   0.980  10.506  0.0486 -0.0152  0.1745
 2946W        W 7010   5.519   3.698   1.048  0.2164  0.0925 -0.1534
 2947W        W 7011   6.452   1.431  11.270  0.0867 -0.0864  0.0517
 2948W        W 7012   7.994  10.382   8.754 -0.0536 -0.0142  0.0976
 2949W        W 7013   0.373   1.617   8.919  0.0289  0.1206  0.2160
 2950W        W 7014   6.319   1.185   3.184 -0.1918  0.0845  0.0442
 2951W        W 7015   0.118   9.969   1.526  0.1961  0.2075 -0.0631
 2952W        W 7016   7.985   7.949  11.231 -0.0233 -0.0823  0.0277
 2953W        W 7017   5.788   2.148  11.174 -0.1441 -0.0390  0.5484
 2954W        W 7018   3.088   3.144   0.912  0.2602 -0.3282 -0.0749
 2955W        W 7019   6.860   9.049  10.611 -0.1755 -0.1291  0.0476
 2956W        W 7020  10.080   7.509   9.861 -0.2157  0.0329  0.2965
 2957W        W 7021   0.628   5.217   8.569 -0.0460 -0.0303  0.0825
 2958W        W 7022  10.616  10.385   3.206  0.3160  0.2618  0.1413
 2959W        W 7023   7.029   7.560   2.880  0.0647  0.1126 -0.2161
 2960W        W 7024   4.227   1.018   2.924  0.0011  0.2241  0.1336
 2961W        W 7025   9.466   2.466   9.936 -0.0546  0.2069 -0.0364
 2962W        W 7026   9.943   1.933  10.588  0.0420  0.0561 -0.0412
 2963W        W 7027   8.761   8.539   3.286  0.1751 -0.1463 -0.1474
 2964W        W 7028   3.018   0.053   3.974  0.0382 -0.0092  0.2455
 2965W        W 7029   9.391   4.404  10.324 -0.1959  0.1764  0.0742
 2966W        W 7030   5.990   4.565  10.188 -0.0757  0.1845  0.0033
 2967W        W 7031   3.921   9.505   1.369 -0.1873 -0.1448  0.2695
 2968W        W 7032  10.397   0.425   2.046  0.0479  0.1395 -0.1433
 2969W        W 7033   7.489   0.788  10.288 -0.2249  0.2116  0.1751
 2970W        W 7034   9.253   5.053   8.850  0.0733 -0.0207  0.1759
 2971W        W 7035   8.892   3.695   1.787 -0.0295  0.0538 -0.0708
 2972W        W 7036   7.444   5.457  10.541 -0.0415 -0.0965  0.0839
 2973W        W 7037   1.514  10.216   2.510 -0.0883  0.1351 -0.1057
 2974W        W 7038   8.428   0.595   8.997  0.0625  0.1589  0.1749
 2975W        W 7039   7.552   7.692  11.310  0.2215 -0.3001  0.1870
 2976W        W 7040   3.186   0.156   2.305 -0.3240  0.0233 -0.1042
 2977W        W 7041   0.961   0.843   2.862  0.2329  0.0241 -0.2244
 2978W        W 7042   1.116   8.758   8.889 -0.0822  0.0489  0.2703
 2979W        W 7043   6.013   2.579  10.345  0.2752 -0.1024  0.0553
 2980W        W 7044   5.813   0.734   3.544 -0.2061  0.0823 -0.1483
 2981W        W 7045   4.993   5.922   9.393  0.0912  0.0650 -0.1468
 2982W        W 7046   2.184   9.317   8.478  0.0789 -0.0686 -0.2464
 2983W        W 7047   6.260   1.227   0.123 -0.1884 -0.1399 -0.0887
 2984W        W 7048   4.490   3.134   2.508 -0.0215 -0.0502  0.2709
 2985W        W 7049   5.467   7.235   2.530  0.1788  0.0914 -0.1338
 2986W        W 7050   8.100   1.334   0.150 -0.2044  0.2468 -0.0597
 2987W        W 7051   6.853   3.034  11.263  0.1150  0.1864  0.2362
 2988W        W 7052   2.588   3.948  10.628  0.2020 -0.1366  0.0578
 2989W        W 7053   7.168   1.274   2.728 -0.2594  0.0233 -0.1452
 2990W        W 7054   2.267   8.321   7.798 -0.0959 -0.2833 -0.1286
 2991W        W 7055  10.626   4.590  11.396 -0.1085  0.2148  0.1492
 2992W        W 7056   3.294   5.125   0.786  0.0693 -0.0382  0.3474
 2993W        W 7057   4.775   1.842   2.426 -0.1009  0.0876  0.0000
 2994W        W 7058   4.346   5.342   9.823 -0.0446 -0.1372 -0.0251
 2995W        W 7059   4.666  10.406   8.692  0.1022 -0.1642 -0.1608
 2996W        W 7060   5.293   3.290   2.882  0.1224  0.1842  0.2874
 2997W        W 7061   9.250   6.600   8.935  0.0978  0.0517 -0.1330
 2998W        W 7062   5.848  10.211   9.390 -0.2674 -0.0116 -0.0064
 2999W        W 7063   8.245   7.806   0.652 -0.1069  0.0177  0.2879
 3000W        W 7064   3.449  10.341   0.237  0.1826  0.1805  0.0916
 3001W        W 7065   6.582   7.696   3.109  0.1528 -0.0047  0.0023
 3002W        W 7066   6.008   8.745   8.264 -0.1704  0.2054  0.1152
 3003W        W 7067  10.189   8.614   8.330  0.0210 -0.0435 -0.2075
 3004W        W 7068   8.913   7.815   3.706  0.0578  0.2439 -0.1723
 3005W        W 7069   9.609   2.310  11.238 -0.4630 -0.3143  0.2886
 3006W        W 7070   3.571   8.033   0.133  0.1867  0.0231  0.0205
 3007W        W 7071   6.878  10.565   8.283 -0.2535 -0.2405  0.2426
 3008W        W 7072   3.836   0.306   3.587  0.0393 -0.0441 -0.1553
 3009W        W 7073   8.500   4.646   9.753 -0.2670  0.0404  0.2122
 3010W        W 7074   9.297   1.102   1.697 -0.1081  0.2543 -0.2583
 3011W        W 7075   0.978   4.792   7.529  0.0939 -0.1469 -0.1199
 3012W        W 7076   5.337   9.945   8.538 -0.2389 -0.0355 -0.0669
 3013W        W 7077   8.580  10.424   1.079 -0.1931 -0.3201 -0.1157
 3014W        W 7078   9.688   2.921   3.226 -0.0260  0.3038 -0.2395
 3015W        W 7079   6.768   9.995   0.640 -0.1281 -0.0941  0.1378
 3016W        W 7080   9.161   5.769   3.286 -0.1010  0.0327  0.2485
 3017W        W 7081   9.617   3.395  11.166  0.1374 -0.3401  0.1649
 3018W        W 7082   1.028   8.973   0.300  0.0023  0.0117  0.1022
 3019W        W 7083   1.571   7.972   3.373 -0.2192  0.2855 -0.1017
 3020W        W 7084   4.565   3.451   2.976  0.0003 -0.3154  0.1611
 3021W        W 7085   3.813   8.243   0.859  0.0078 -0.0664  0.1853
 3022W        W 7086   7.955   7.288   2.894  0.0903 -0.0432 -0.3306
 3023W        W 7087   2.732   1.350   1.631 -0.2471  0.0252 -0.0567
 3024W        W 7088   2.314   6.914  10.096  0.0377 -0.3624 -0.1299
 3025W        W 7089   2.360   0.180   1.326  0.2361 -0.0731 -0.1011
 3026W        W 7090  10.292   6.964   0.829  0.2059  0.1156 -0.3359
 3027W        W 7091  10.253   3.092   3.246 -0.2970 -0.1662 -0.2333
 3028W        W 7092   9.926   4.492   0.474 -0.1836 -0.2669 -0.1390
 3029W        W 7093   1.069   1.277  11.460 -0.1806 -0.1577  0.3117
 3030W        W 7094   9.928   1.598  11.023  0.2472 -0.0661 -0.1713
 3031W        W 7095   7.804   7.156   8.682 -0.2944  0.1622 -0.1451
 3032W        W 7096   7.841   4.034   0.232 -0.0376 -0.3771  0.0812
 3033W        W 7097   9.649   6.417   1.966  0.2758 -0.0826  0.3342
 3034W        W 7098   4.004   2.383  11.028 -0.1474 -0.3258 -0.0117
 3035W        W 7099   3.227   1.815   9.873 -0.1562  0.0121  0.2023
 3036W        W 7100   1.217   1.487  10.977 -0.2773 -0.0218  0.0983
 3037W        W 7101   6.305  10.090  11.196  0.0219  0.1966  0.2809
 3038W        W 7102   3.845   4.635   2.568 -0.0999  0.1964 -0.0336
 3039W        W 7103   4.494   9.081   2.659  0.0216 -0.0626  0.1172
 3040W        W 7104   8.464   5.312   8.244  0.3088 -0.0028 -0.0332
 3041W        W 7105   9.210   6.169   9.168  0.2056  0.1624 -0.4744
 3042W        W 7106  10.032   8.068   2.889  0.0789  0.0233  0.0837
 3043W        W 7107   4.857  10.022  11.055  0.2301  0.0701 -0.1709
 3044W        W 7108   9.698   7.041   9.665 -0.0323 -0.4603  0.1089
 3045W        W 7109   0.012  10.405   9.114  0.2554  0.3174  0.0964
 3046W        W 7110   5.775   4.026   2.790 -0.0648  0.2245 -0.0517
 3047W        W 7111   3.909   8.543   2.052 -0.1964 -0.1225 -0.1655
 3048W        W 7112   3.574   9.108   3.406 -0.1915 -0.0708  0.0518
 3049W        W 7113   8.533   3.005   7.747 -0.0246 -0.0404  0.0312
 3050W        W 7114   3.401   6.142   2.104  0.0170  0.1128  0.1959
 3051W        W 7115   8.211   7.262   9.315  0.3176 -0.0448  0.1141
 3052W        W 7116   7.683   0.983   8.968  0.0272 -0.1112 -0.1267
 3053W        W 7117   5.775   1.655  11.424 -0.1567  0.3455  0.0270
 3054W        W 7118   7.856   5.239  11.455 -0.0930  0.2015  0.0418
 3055W        W 7119   4.242   4.562  10.490 -0.1827 -0.1668  0.3323
 3056W        W 7120   9.603   8.148  10.243  0.3946  0.3314 -0.1655
 3057W        W 7121   9.176   6.201  11.024 -0.0769 -0.1081  0.1592
 3058W        W 7122  10.110   2.581   3.128  0.1593 -0.1480 -0.4574
 3059W        W 7123   4.444   7.263   8.876  0.1202  0.1868  0.2532
 3060W        W 7124   8.369   3.942   1.566  0.2814  0.0757 -0.1707
 3061W        W 7125   1.131   0.619   1.149 -0.2634  0.1658 -0.2144
 3062W        W 7126   5.158   2.381   9.516  0.0614 -0.0671  0.1318
 3063W        W 7127   2.423   5.620   9.458  0.1426 -0.1494  0.1616
 3064W        W 7128   8.497   6.881   9.210 -0.2286 -0.3306  0.0818
 3065W        W 7129   8.971   7.617   1.341 -0.2130 -0.2058  0.1597
 3066W        W 7130  10.559   1.512  10.164 -0.0095 -0.1430  0.0142
 3067W        W 7131   4.998   5.558   2.701  0.0054  0.2685  0.0800
 3068W        W 7132   9.447  10.125   1.019  0.2735  0.1860 -0.1474
 3069W        W 7133   7.902   0.153  10.993  0.0187 -0.1094 -0.0824
 3070W        W 7134  10.290   0.474   3.364  0.1711  0.1842  0.3946
 3071W        W 7135   7.261   6.156   4.296 -0.1771 -0.2586  0.1785
 3072W        W 7136   5.084   8.613   8.250 -0.1914  0.2710  0.2361
 3073W        W 7137   7.038   2.629  10.564 -0.3494  0.0032 -0.2912
 3074W        W 7138   7.307   3.401   1.225  0.0356  0.1735 -0.5072
 3075W        W 7139   3.633   0.804  10.565 -0.0982 -0.0639 -0.1207
 3076W        W 7140   0.510   6.446   4.124 -0.1787  0.0000 -0.1809
 3077W        W 7141   9.199   4.707   9.363  0.3421  0.1670 -0.1858
 3078W        W 7142   7.780   8.996  11.428  0.1949 -0.5221  0.1160
 3079W        W 7143   9.009   6.024   8.738 -0.1629  0.5320 -0.1254
 3080W        W 7144   5.230   5.726   8.005 -0.2966 -0.2139 -0.1763
 3081W        W 7145   9.717   3.167   0.123 -0.4229 -0.5054  0.0341
 3082W        W 7146   6.554   1.517   1.062  0.0224  0.0359 -0.1350
 3083W        W 7147   2.544   7.236  11.396 -0.0839 -0.2761  0.1551
 3084W        W 7148   9.784   4.806   2.133  0.4313  0.0318  0.1852
 3085W        W 7149   9.338   4.769  11.040 -0.2456 -0.0098  0.0260
 3086W        W 7150   5.064   2.519   8.942  0.2221 -0.0507 -0.1054
 3087W        W 7151   7.004  10.519  10.455 -0.2694 -0.0371  0.1520
 3088W        W 7152   1.514   0.145   2.943  0.0120 -0.1265 -0.1868
 3089W        W 7153   5.256   8.519   0.047 -0.1122 -0.2326 -0.0278
 3090W        W 7154   7.710   2.635  10.026 -0.0098  0.0874 -0.2644
 3091W        W 7155   3.652   4.212   2.343  0.1633  0.2958 -0.3660
 3092W        W 7156   3.856   9.161   2.103  0.1507 -0.0615  0.0958
 3093W        W 7157   6.988   2.217   8.100 -0.1434  0.0190  0.0389
 3094W        W 7158   1.243   2.031   2.763  0.2565  0.2692 -0.0852
 3095W        W 7159   0.365   2.940  11.029  0.1999  0.0910 -0.0236
 3096W        W 7160   8.459   9.783   0.306  0.2313  0.1566 -0.1289
 3097W        W 7161   0.968   9.972   1.596 -0.0542 -0.2968  0.0261
 3098W        W 7162   4.785   4.225   1.326  0.2133 -0.1435  0.0103
 3099W        W 7163   9.275   7.493   3.398 -0.1556 -0.2036 -0.0071
 3100W        W 7164   3.123   9.569   0.011  0.0649  0.0651 -0.0755
 3101W        W 7165   2.997   3.802   1.817  0.3076  0.0114 -0.1051
 3102W        W 7166   2.789   7.038   2.900 -0.0256  0.5342 -0.0720
 3103W        W 7167   9.246   7.391   3.920 -0.2002  0.0653 -0.1479
 3104W        W 7168  10.098   5.122   7.303  0.0494  0.1273 -0.0248
 3105W        W 7169   2.647  10.309  11.123 -0.2189  0.0086  0.2624
 3106W        W 7170   0.700   0.447   1.951  0.1125 -0.4529 -0.0216
 3107W        W 7171   1.927   6.089  10.234 -0.0806  0.0235  0.2608
 3108W        W 7172   0.574   4.557   9.968  0.0079 -0.2919  0.1038
 3109W        W 7173   7.675   5.963   0.660 -0.1761  0.1251  0.0208
 3110W        W 7174   1.831   6.023   8.282 -0.3334  0.2313  0.0582
 3111W        W 7175   4.302   0.054   8.452 -0.2926  0.1469 -0.2149
 3112W        W 7176   4.386   7.771   8.320 -0.1031 -0.1007 -0.0442
 3113W        W 7177   4.203   7.298  11.362 -0.1030  0.1700  0.2402
 3114W        W 7178   5.831   2.845   2.195 -0.0748  0.2627 -0.0005
 3115W        W 7179   3.984   7.555  10.979  0.0679 -0.0286 -0.1768
 3116W        W 7180   3.704  10.590   2.217  0.1841  0.0092 -0.0601
 3117W        W 7181   2.645   5.800  11.324  0.4545  0.3758  0.0390
 3118W        W 7182   8.258   4.648  10.260 -0.1607 -0.4015  0.1226
 3119W        W 7183   6.547   1.818   3.715 -0.1575  0.3149  0.3772
 3120W        W 7184   7.688   6.664   2.229 -0.2253  0.2057 -0.1478
 3121W        W 7185   4.897   0.872   0.998 -0.1315  0.0548  0.0637
 3122W        W 7186   6.219   1.617  10.063  0.5967  0.2314  0.1486
 3123W        W 7187   8.384   9.759  11.317 -0.0728  0.0530  0.1046
 3124W        W 7188   6.382   6.586  10.528  0.0896  0.2358  0.1428
 3125W        W 7189   6.993   9.036   0.552 -0.2693  0.0498 -0.0515
 3126W        W 7190   6.806   0.785   2.583  0.0221  0.5330 -0.0689
 3127W        W 7191   0.950   4.871   1.250  0.0288 -0.2760  0.3438
 3128W        W 7192   1.300   1.987   1.897  0.2279  0.1767 -0.2798
 3129W        W 7193   9.756   9.999   1.568 -0.1476  0.4144  0.1722
 3130W        W 7194   4.443   0.041   9.934  0.3039  0.2105  0.1627
 3131W        W 7195   7.460   0.651   0.614 -0.1804  0.0244  0.1367
 3132W        W 7196   7.248   7.324   1.794 -0.1541 -0.4657 -0.4060
 3133W        W 7197   4.207   1.686  10.268  0.2946  0.2975 -0.0279
 3134W        W 7198   1.243   8.553   2.687  0.0230 -0.0686  0.2379
 3135W        W 7199   3.844   0.850   4.314  0.1248  0.0120 -0.0182
 3136W        W 7200   6.020   4.667   3.237  0.1786  0.0530  0.0422
 3137W        W 7201   9.550   1.293   3.286 -0.0566 -0.0672  0.0620
 3138W        W 7202   0.932   3.145   0.175  0.2998  0.0967 -0.1760
 3139W        W 7203   7.926   6.873  11.027 -0.0033  0.0597  0.2005
 3140W        W 7204   0.431   0.846  11.000 -0.2084  0.0179  0.0785
 3141W        W 7205   3.742   5.042   2.844 -0.3091  0.0956 -0.2515
 3142W        W 7206   7.487   6.493   1.685 -0.0913 -0.4355  0.2093
 3143W        W 7207   6.882   3.737   1.481  0.2771  0.3530 -0.0795
 3144W        W 7208   9.949   2.549   1.028  0.2690  0.2853  0.2504
 3145W        W 7209   7.990   7.202  10.564 -0.2038 -0.1234  0.0537
 3146W        W 7210   4.944   1.761  10.948 -0.2560  0.0884  0.0261
 3147W        W 7211   0.783   1.609   1.209  0.0817 -0.3067  0.4430
 3148W        W 7212   7.612   4.350   9.110 -0.1182  0.0026  0.0166
 3149W        W 7213   0.559  10.309  10.286 -0.1729  0.1647  0.3728
 3150W        W 7214   5.409   8.936   9.911 -0.0681 -0.2882 -0.0770
 3151W        W 7215   0.740   1.286   2.957 -0.1139  0.0364 -0.0262
 3152W        W 7216   7.827   5.043   8.640 -0.1191  0.3047 -0.0564
 3153W        W 7217   6.090   8.472   9.835 -0.0530 -0.1781 -0.3447
 3154W        W 7218   0.123   7.174  10.311 -0.0501  0.4207 -0.1972
 3155W        W 7219   3.032   2.825   1.533 -0.1028  0.0454  0.0538
 3156W        W 7220   9.959   6.748   9.345  0.2229  0.1604 -0.0447
 3157W        W 7221  10.370   8.710  11.431  0.0715 -0.0530  0.2181
 3158W        W 7222   6.635   6.229  10.143  0.2094 -0.0408 -0.0160
 3159W        W 7223   3.371   7.071   9.742  0.2881 -0.3531 -0.2035
 3160W        W 7224  10.663   4.456   8.323  0.0218 -0.1625  0.0275
 3161W        W 7225   2.776   4.517   9.896  0.2120  0.2509 -0.0452
 3162W        W 7226   7.242   7.407   9.052  0.1358  0.1391  0.0479
 3163W        W 7227   0.428   8.782   3.313  0.2293  0.2606 -0.3204
 3164W        W 7228   0.954   8.860  11.022 -0.4683  0.0751 -0.1246
 3165W        W 7229   1.707   3.260   8.869  0.1870 -0.1503 -0.2728
 3166W        W 7230   5.194   1.592   8.296 -0.1472  0.0967 -0.1008
 3167W        W 7231   0.354   1.241   9.436  0.2500  0.0900 -0.1294
 3168W        W 7232   8.506   9.297   0.225  0.1502  0.0543 -0.3371
 3169W        W 7233   7.410   5.187   0.745  0.1968 -0.0476  0.5056
 3170W        W 7234   2.776   7.376   3.240 -0.1818  0.1885  0.0300
 3171W        W 7235   9.933   4.800   2.622 -0.1523 -0.0117  0.1780
 3172W        W 7236   9.259   3.371   0.130  0.1711  0.3411 -0.3931
 3173W        W 7237   0.269   1.620   8.019 -0.0020  0.2573  0.1424
 3174W        W 7238   3.410   8.805   1.955  0.1697  0.1263 -0.0190
 3175W        W 7239   1.519   8.457   9.334  0.1142 -0.1896  0.0372
 3176W        W 7240   1.809   0.442   2.696  0.0140 -0.1367 -0.0149
 3177W        W 7241   5.320   6.099   0.300 -0.1293 -0.1334 -0.0876
 3178W        W 7242   1.223  10.584  10.449  0.0233  0.2605  0.0184
 3179W        W 7243   0.655   4.844   2.191  0.0101 -0.2013  0.0525
 3180W        W 7244   2.993   0.459   0.696 -0.2580  0.1386 -0.1055
 3181W        W 7245   6.207   9.127   9.283  0.0049 -0.0684 -0.1041
 3182W        W 7246   9.954   1.175  10.748  0.2645  0.0080 -0.1867
 3183W        W 7247   6.263   4.312   2.946 -0.0143  0.1522 -0.0371
 3184W        W 7248   8.362   7.344   9.783 -0.2757  0.1557 -0.2654
 3185W        W 7249   3.330   3.836   9.617  0.1729 -0.0660 -0.3767
 3186W        W 7250   3.241   3.799   3.188  0.3718  0.0268  0.0649
 3187W        W 7251   3.502   8.600   8.915  0.1514 -0.0442 -0.1078
 3188W        W 7252   6.514   5.736   7.291  0.0056  0.1628  0.2037
 3189W        W 7253   3.937   6.442   8.737 -0.2661 -0.1123 -0.2032
 3190W        W 7254   0.629   7.611   2.669  0.0717  0.3346 -0.0815
 3191W        W 7255   0.348   7.697   2.314  0.0203  0.2142  0.2206
 3192W        W 7256  10.041   8.722  10.512 -0.1898  0.0063 -0.2176
 3193W        W 7257   1.570   8.772   0.877  0.2859  0.1029  0.2257
 3194W        W 7258   0.197   2.256   9.735  0.0644  0.0292  0.1631
 3195W        W 7259   4.580   7.298   8.402 -0.0310  0.1225  0.1901
 3196W        W 7260   1.974   1.093   0.482 -0.1299 -0.1474  0.0898
 3197W        W 7261   4.837   0.349   9.080 -0.2020  0.2990 -0.0312
 3198W        W 7262   2.038   3.553   1.452 -0.2465 -0.0337 -0.1136
 3199W        W 7263   7.370   4.916  10.099 -0.1304  0.7499  0.1204
 3200W        W 7264   1.004   8.557   8.407 -0.1830  0.1274  0.0157
 3201W        W 7265   1.963   0.557   1.218 -0.0415 -0.1926 -0.0467
 3202W        W 7266   9.895   2.471  10.701 -0.0473  0.4155 -0.1520
 3203W        W 7267   9.160   5.771  10.265  0.1308  0.0350 -0.1514
 3204W        W 7268   1.161   1.362   8.912  0.2838  0.0533 -0.3418
 3205W        W 7269   0.242   3.619   8.866 -0.0231  0.0542 -0.2467
 3206W        W 7270   5.565   4.380   9.088 -0.0782 -0.1604  0.1399
 3207W        W 7271   5.575   8.494   9.553 -0.1090 -0.3964 -0.3195
 3208W        W 7272   7.901   2.058   9.077 -0.2615  0.1031 -0.4295
 3209W        W 7273   9.911   4.926   0.823  0.1883 -0.2205  0.0368
 3210W        W 7274   5.851   6.619   1.077 -0.3820  0.0239  0.1724
 3211W        W 7275   9.629   0.761   0.650 -0.1735 -0.0013  0.1588
 3212W        W 7276   6.759   3.259   1.243  0.1035 -0.0638  0.1011
 3213W        W 7277   1.616  10.586   0.661 -0.1231  0.0972 -0.0886
 3214W        W 7278   1.086   7.112   1.998  0.1241  0.0536  0.2140
 3215W        W 7279   1.758   7.991  10.054  0.2503 -0.1913 -0.0584
 3216W        W 7280   4.401   7.414   3.620  0.1710 -0.1679  0.0722
 3217W        W 7281   0.486   5.862   1.713  0.0128  0.2860  0.0623
 3218W        W 7282   7.949  10.611   0.331 -0.0174  0.1097  0.1270
 3219W        W 7283   2.205   1.791   2.574 -0.0566 -0.0222  0.3706
 3220W        W 7284   6.908   1.095   3.134  0.2900 -0.0613 -0.1956
 3221W        W 7285   7.126   5.918   7.990  0.1078 -0.1541  0.0208
 3222W        W 7286   4.031   2.133   3.168  0.0680 -0.0608 -0.2375
 3223W        W 7287  10.313   6.154   3.234  0.1789 -0.2289  0.0444
 3224W        W 7288  10.010   8.579  10.074  0.2376  0.1905  0.0020
 3225W        W 7289   5.834   6.662   2.587  0.0407 -0.1638 -0.2697
 3226W        W 7290   7.128   9.877   9.930 -0.1149 -0.2495 -0.2175
 3227W        W 7291   9.262   7.610   2.385  0.0831  0.2019  0.0180
 3228W        W 7292  10.662   9.082  10.011  0.0735  0.2233  0.1512
 3229W        W 7293   8.947   2.690   7.780 -0.1316  0.0109 -0.0557
 3230W        W 7294   8.269   3.390   2.855  0.3443 -0.1475  0.2923
 3231W        W 7295   8.432   8.032  10.365 -0.2386 -0.3054  0.1292
 3232W        W 7296   6.754   6.223  10.642  0.4154  0.1973  0.1039
 3233W        W 7297   0.713   6.588  10.346 -0.0338  0.1163  0.1268
 3234W        W 7298   5.798   7.123   0.162  0.0618 -0.0334  0.2232
 3235W        W 7299   6.061   7.815   3.106  0.0573  0.2070 -0.1789
 3236W        W 7300   8.717   6.913  11.375 -0.2246  0.0886 -0.0928
 3237W        W 7301   4.739   2.753   9.502 -0.0435 -0.1795 -0.1548
 3238W        W 7302   3.072   7.853  11.023  0.0434 -0.0682 -0.0748
 3239W        W 7303   6.208   4.960   2.551 -0.0981 -0.0512 -0.0581
 3240W        W 7304   1.974   4.389  11.177 -0.1677  0.1690 -0.4521
 3241W        W 7305  10.475   5.861   9.250 -0.3686 -0.0052 -0.3124
 3242W        W 7306   6.943   0.998   9.621  0.2907 -0.3458 -0.2264
 3243W        W 7307   2.816   8.091   9.481  0.0039  0.0162 -0.1902
 3244W        W 7308   1.281   7.601   0.383 -0.2967  0.5068 -0.1876
 3245W        W 7309   9.636   4.971   0.378  0.1485  0.0347  0.2004
 3246W        W 7310   9.169   4.154   1.790 -0.1604 -0.2066 -0.2332
 3247W        W 7311   7.654   4.347  11.405 -0.1787 -0.0157 -0.2452
 3248W        W 7312   6.037   4.971   7.754  0.1428  0.0895 -0.1255
 3249W        W 7313   9.482  10.183  10.944  0.1738 -0.0828  0.2289
 3250W        W 7314   3.895   3.723  10.703  0.0429  0.2080 -0.2357
 3251W        W 7315   2.037   3.662   8.526 -0.0812  0.0906 -0.0039
 3252W        W 7316   8.329   9.395   2.897  0.1212  0.3397 -0.2615
 3253W        W 7317   8.672   4.214  11.167 -0.3033 -0.2052 -0.2202
 3254W        W 7318  10.294   3.233   2.020 -0.2521  0.0972  0.1352
 3255W        W 7319   1.646   4.306   1.016 -0.0211 -0.1338 -0.0340
 3256W        W 7320   4.561   4.957   9.582 -0.0064 -0.2366  0.1108
 3257W        W 7321   8.770   7.355   2.587 -0.2766  0.1311 -0.1920
 3258W        W 7322   8.751   4.963   0.131 -0.1596 -0.1891  0.1172
 3259W        W 7323   6.933   7.802   1.476  0.2118  0.1218 -0.3377
 3260W        W 7324   2.073   9.315  11.408 -0.2014  0.3821 -0.1785
 3261W        W 7325   0.890   9.645   8.535  0.1566 -0.1056  0.1395
 3262W        W 7326   3.739   9.211  11.263 -0.2410  0.1369  0.1251
 3263W        W 7327   5.412   9.321  10.259 -0.0457 -0.1840 -0.2300
 3264W        W 7328   1.764   1.017   2.471  0.2624 -0.2854  0.0145
 3265W        W 7329   2.827   4.174  11.533  0.1044  0.2078 -0.1189
 3266W        W 7330   2.665   5.636   1.881  0.0937  0.4412  0.1978
 3267W        W 7331   0.634   0.902   7.493  0.2450  0.1584 -0.1583
 3268W        W 7332   6.861   6.680  10.366  0.0176  0.0278 -0.1999
 3269W        W 7333   0.202   9.215   1.847  0.2848 -0.0064 -0.3517
 3270W        W 7334   7.159   7.939  10.939 -0.5269  0.1307  0.0025
 3271W        W 7335   1.357   7.224   0.018 -0.2857  0.1468  0.1873
 3272W        W 7336   1.231   4.204   9.241 -0.0463  0.2346  0.1413
 3273W        W 7337   9.935   8.418   8.675 -0.1676  0.0043 -0.4064
 3274W        W 7338   8.408   2.010   7.753 -0.0342  0.0939  0.1873
 3275W        W 7339   9.062   3.107   8.553  0.3468 -0.2758  0.1825
 3276W        W 7340   8.814   7.619   0.879 -0.1429 -0.2141  0.1902
 3277W        W 7341   5.258   4.982   7.301  0.0282 -0.4329  0.0861
 3278W        W 7342   3.888   5.339   8.536 -0.0463 -0.0984  0.1200
 3279W        W 7343   0.018   2.300   2.400  0.1246  0.3406 -0.2966
 3280W        W 7344   7.066   3.382  10.911 -0.0673 -0.0537 -0.0777
 3281W        W 7345   2.958   5.161   3.140 -0.2907  0.2991  0.2491
 3282W        W 7346   5.858  10.506   2.410  0.0934 -0.1723 -0.0064
 3283W        W 7347   9.005   1.729   0.114  0.1301  0.0887  0.0248
 3284W        W 7348   9.776   4.911  10.902  0.0253 -0.1532  0.0151
 3285W        W 7349   7.101   2.074   1.916  0.2015 -0.1727  0.1597
 3286W        W 7350   4.186   2.729   8.603  0.1700 -0.0631  0.4233
 3287W        W 7351   2.905   0.897   1.649  0.2177  0.1832  0.2698
 3288W        W 7352   2.467  10.079   0.424 -0.2268 -0.1953  0.1246
 3289W        W 7353   1.677   3.681  11.143 -0.1713 -0.0295  0.0847
 3290W        W 7354   2.811   3.596   2.795 -0.0415  0.2761 -0.3118
 3291W        W 7355   7.572   8.485   3.182  0.2237  0.1333 -0.1315
 3292W        W 7356  10.017   6.225  10.055 -0.1623 -0.0726  0.1660
 3293W        W 7357   3.496   3.628   1.730 -0.1419 -0.0079 -0.0429
 3294W        W 7358   0.771   5.309   3.256  0.2204 -0.3009 -0.2202
 3295W        W 7359   5.766   4.641   1.866  0.0333  0.3279  0.3082
 3296W        W 7360   7.990   9.257   0.996  0.0513 -0.0698  0.2348
 3297W        W 7361   2.527   3.649   8.596  0.0630 -0.2628  0.0661
 3298W        W 7362   6.105  10.026   3.420  0.1842 -0.1753  0.1701
 3299W        W 7363   9.458   4.123   3.099 -0.0491  0.1156 -0.1873
 3300W        W 7364   8.226   9.397   9.231 -0.1345 -0.2023  0.0331
 3301W        W 7365   1.887   4.273   9.644  0.0715 -0.1500 -0.3213
 3302W        W 7366   7.628   6.930   3.937  0.2829 -0.2376 -0.1971
 3303W        W 7367   1.942   0.870   2.924  0.0913  0.0929 -0.1395
 3304W        W 7368   3.132   3.957   1.375  0.1016 -0.1555  0.0178
 3305W        W 7369   4.865   2.186   0.110  0.1443  0.0746 -0.1938
 3306W        W 7370   3.733   1.476   0.344 -0.2240  0.2558  0.1643
 3307W        W 7371  10.073   4.600  10.607  0.1840 -0.0762  0.1155
 3308W        W 7372   0.470   3.190  11.488 -0.0801  0.0817 -0.0733
 3309W        W 7373   1.211   8.748  11.439  0.0857  0.1064 -0.2794
 3310W        W 7374   1.843  10.415   9.831 -0.2778 -0.3526 -0.0823
 3311W        W 7375   9.848   8.932  11.414 -0.3180  0.0431 -0.0704
 3312W        W 7376   9.077  10.405  10.471 -0.1417 -0.2740  0.0161
 3313W        W 7377   8.844   3.736   2.275  0.3466  0.5995 -0.1180
 3314W        W 7378   0.569   6.540   3.617  0.0018 -0.1477 -0.2179
 3315W        W 7379   6.454   4.265   7.300 -0.0648  0.1323 -0.1964
 3316W        W 7380   1.280   3.683   9.478  0.2426  0.0673 -0.1041
 3317W        W 7381   5.153   0.319   0.219  0.3246 -0.2516  0.0220
 3318W        W 7382   8.811   6.098  10.173 -0.0713 -0.1057  0.4367
 3319W        W 7383   0.974   9.217  11.425  0.0873  0.0302  0.0206
 3320W        W 7384   3.420   0.880   4.037 -0.0100 -0.0144  0.3671
 3321W        W 7385   9.202   0.251  11.473  0.0693 -0.1600 -0.0850
 3322W        W 7386   4.026   9.578   0.026  0.0918 -0.1276  0.4161
 3323W        W 7387   9.301   6.660   2.309 -0.2423  0.1029  0.0521
 3324W        W 7388   6.247   7.366  11.534  0.2235 -0.1881  0.1274
 3325W        W 7389   1.295   8.562   3.510 -0.1381 -0.3738  0.3427
 3326W        W 7390   3.894   3.903   9.054  0.0347 -0.3533  0.0942
 3327W        W 7391   5.817   1.108   3.224  0.1544 -0.2801  0.0062
 3328W        W 7392   0.144   1.745   2.383 -0.1831  0.1966 -0.1035
 3329W        W 7393   2.644   9.676   7.669  0.1235  0.0639 -0.0614
 3330W        W 7394  10.058   2.257   2.122 -0.1101  0.0790 -0.2256
 3331W        W 7395   8.904   0.834   2.864 -0.2345 -0.0874  0.0859
 3332W        W 7396   5.242   3.967   1.378  0.1168 -0.0211 -0.0723
 3333W        W 7397   3.622   9.725   4.791 -0.4904 -0.1902  0.1236
 3334W        W 7398   9.864   0.949  11.234  0.1071  0.3298  0.1521
 3335W        W 7399   8.975   5.929   0.674  0.0718 -0.0963 -0.3182
 3336W        W 7400   5.357   2.436   1.964  0.1696 -0.2539  0.1233
 3337W        W 7401   6.256  10.611  10.442 -0.0990  0.0536  0.1470
 3338W        W 7402   1.263   8.991   8.174 -0.0973  0.0073  0.2684
 3339W        W 7403   4.761   6.170   1.919  0.3594  0.0180 -0.3206
 3340W        W 7404   4.777   0.592   1.418 -0.2590  0.0402 -0.0902
 3341W        W 7405   4.676   3.233   3.428  0.0433  0.0400 -0.0291
 3342W        W 7406   4.009   8.113   2.336 -0.2150 -0.0540 -0.1773
 3343W        W 7407   2.380   4.152   0.286  0.0438 -0.1362  0.2012
 3344W        W 7408   7.300   7.896   3.757  0.3453 -0.1701 -0.3125
 3345W        W 7409   1.270   6.997   7.592  0.1058 -0.1827 -0.1186
 3346W        W 7410  10.664   9.706  10.293  0.3466 -0.1287 -0.1717
 3347W        W 7411   7.600   9.933  10.012 -0.1052  0.3458 -0.0165
 3348W        W 7412   3.242   7.070   1.302  0.1713 -0.0223  0.1805
 3349W        W 7413   5.886   4.360   2.397  0.4744 -0.1137 -0.1933
 3350W        W 7414   6.176   7.083   2.494 -0.3906  0.0159  0.1521
 3351W        W 7415   6.702   0.583   9.963  0.1335 -0.0447 -0.2916
 3352W        W 7416   4.204   0.380   3.088 -0.0127  0.1312 -0.1183
 3353W        W 7417   2.640   5.963  10.806 -0.1223 -0.3018 -0.2521
 3354W        W 7418   1.248   9.043   7.638 -0.5640 -0.0900  0.0193
 3355W        W 7419   3.929   1.690   7.367 -0.0842  0.0985 -0.0544
 3356W        W 7420   9.039   6.615   1.765  0.0748  0.0390  0.0446
 3357W        W 7421   9.395  10.609   0.678  0.0538  0.1805 -0.1992
 3358W        W 7422   3.396   6.297   4.107 -0.4828  0.5651 -0.5525
 3359W        W 7423   1.418   7.547   8.997 -0.0930 -0.1808 -0.0456
 3360W        W 7424   8.133   2.330   9.821  0.2660 -0.3015  0.1693
 3361W        W 7425   9.282   3.717   1.400 -0.3061 -0.5362  0.1888
 3362W        W 7426   9.583   4.635   2.995  0.0901 -0.0004 -0.1956
 3363W        W 7427   6.722   6.847   2.932 -0.0312 -0.0830  0.1622
 3364W        W 7428   0.177   5.063   8.733  0.2855  0.4869 -0.1041
 3365W        W 7429   6.454   5.835   8.863 -0.3364  0.3850 -0.3563
 3366W        W 7430   2.161   4.493   8.719  0.4885 -0.1059  0.0324
 3367W        W 7431  10.288   5.529   8.031 -0.0780  0.2498  0.1595
 3368W        W 7432   2.000   0.782   8.779 -0.1974 -0.1610 -0.0425
 3369W        W 7433   4.445   2.846   1.218 -0.3816 -0.2518 -0.4033
 3370W        W 7434   0.463  10.030  10.832  0.1699 -0.2774 -0.1901
 3371W        W 7435   9.657   1.438   2.812  0.0912 -0.1456 -0.0067
 3372W        W 7436   3.558   4.135  10.964 -0.1865 -0.1861  0.0619
 3373W        W 7437  10.119   4.983   0.390  0.0502 -0.0977  0.2599
 3374W        W 7438  10.359   5.748   9.964  0.1728 -0.1297 -0.0698
 3375W        W 7439   3.035   0.611   3.944 -0.0647 -0.0705 -0.2160
 3376W        W 7440   8.302   8.547   1.829 -0.2742  0.0597 -0.2694
 3377W        W 7441   2.770   5.144  10.087  0.1541 -0.3141 -0.1538
 3378W        W 7442   6.933   1.700   3.237  0.0000 -0.1267 -0.0294
 3379W        W 7443   5.718   5.175   1.111  0.2083  0.4823  0.1634
 3380W        W 7444   3.863   4.448   3.380  0.0749  0.0329  0.2032
 3381W        W 7445   0.216   6.662   2.035 -0.1176 -0.1032  0.0632
 3382W        W 7446   1.197   8.396   0.385 -0.0151 -0.1148  0.3249
 3383W        W 7447   9.553   8.467   9.766  0.0054 -0.1514  0.1330
 3384W        W 7448   7.833   3.435   7.838 -0.0431 -0.2961  0.1970
 3385W        W 7449   1.579   5.159   8.739 -0.0236  0.1028 -0.1716
 3386W        W 7450   0.224  10.432   1.033  0.0655  0.1421 -0.2302
 3387W        W 7451   6.607   7.824  11.096 -0.1066 -0.2860  0.1784
 3388W        W 7452   2.761   6.294   0.866  0.1457  0.1310  0.0051
 3389W        W 7453   1.933   8.716   1.602 -0.0250  0.1976 -0.0006
 3390W        W 7454   0.521   6.378   2.967  0.0180 -0.0552  0.2579
 3391W        W 7455   5.997   6.525   1.585  0.0521  0.2760  0.1224
 3392W        W 7456   2.732   7.252   8.959 -0.1207 -0.0425  0.2046
 3393W        W 7457   7.687   7.021   1.760 -0.2491  0.1279  0.0850
 3394W        W 7458   2.327   1.400   8.109  0.0294  0.0398  0.2835
 3395W        W 7459   7.938   9.689   0.066 -0.2983 -0.2794  0.1265
 3396W        W 7460   8.009   4.811  11.341 -0.2781  0.3723  0.1124
 3397W        W 7461   0.279   2.429  10.962  0.0065  0.0056 -0.0966
 3398W        W 7462   9.331   7.064   8.680 -0.1289 -0.1992 -0.3814
 3399W        W 7463   3.713   7.352   2.029 -0.1780 -0.2721 -0.0116
 3400W        W 7464   3.809   1.809   0.009 -0.1992  0.0918  0.2087
 3401W        W 7465   7.204   8.850   1.579  0.4438 -0.1154 -0.0187
 3402W        W 7466   4.903   3.159  10.421  0.0630 -0.1344  0.1537
 3403W        W 7467   7.007   3.689   8.400  0.0194 -0.1206 -0.0718
 3404W        W 7468   4.318   7.123   2.143 -0.0525 -0.2579 -0.0850
 3405W        W 7469   6.381   8.040  10.227 -0.1250  0.0771 -0.2363
 3406W        W 7470   9.836   6.971   8.842 -0.0243  0.0862  0.0279
 3407W        W 7471   6.828   5.540   7.982  0.2226  0.1334 -0.0552
 3408W        W 7472   9.892   5.328   8.246  0.3015 -0.0199  0.2078
 3409W        W 7473   1.055   3.783  10.329  0.3293 -0.2239 -0.1020
 3410W        W 7474   6.588   8.379   8.901 -0.1746  0.1553 -0.1710
 3411W        W 7475   2.087   0.789  10.629 -0.0701 -0.2036  0.3147
 3412W        W 7476   3.535   2.701   1.376 -0.1437  0.1958  0.1147
 3413W        W 7477   2.914   8.316   3.349 -0.1617  0.0891  0.1718
 3414W        W 7478   8.708   3.507   9.421  0.0966 -0.1463  0.2207
 3415W        W 7479   6.928   5.727   0.341 -0.0347 -0.2229 -0.2660
 3416W        W 7480   0.203   6.279   3.475  0.1342 -0.3136 -0.0003
 3417W        W 7481   2.533   2.128   7.182  0.5535 -0.2887 -0.2508
 3418W        W 7482   3.145   4.444   0.321  0.1252  0.0916  0.1920
 3419W        W 7483   9.433   5.947   2.861 -0.0453  0.1502 -0.0282
 3420W        W 7484   2.511   6.896   1.865 -0.1963 -0.6081  0.0948
 3421W        W 7485   7.613  10.578  11.430  0.3148 -0.1099 -0.1602
 3422W        W 7486   9.286   1.425   9.533  0.0770 -0.0374 -0.0104
 3423W        W 7487  10.525   9.123   9.489 -0.3602  0.2053  0.2837
 3424W        W 7488   8.820  10.331   3.058  0.0130  0.1426 -0.0028
 3425W        W 7489   9.022   6.001   7.807  0.1030  0.0801 -0.0352
 3426W        W 7490   2.398   7.813   3.803 -0.1547 -0.0631  0.2327
 3427W        W 7491   5.860   1.758   3.867  0.0917 -0.3178 -0.0348
 3428W        W 7492   6.968   9.457   0.964 -0.1074  0.0423  0.2544
 3429W        W 7493   8.482   4.833   0.944  0.2577  0.0119  0.2562
 3430W        W 7494   0.288   1.716   9.786 -0.0403  0.0151  0.3092
 3431W        W 7495   6.016   6.808   9.040  0.0933  0.3442  0.0201
 3432W        W 7496   4.872   0.794   1.984  0.1266 -0.0260 -0.0538
 3433W        W 7497   7.968   4.961   7.885 -0.2319  0.3273  0.1601
 3434W        W 7498   7.296   6.981   0.954 -0.1844 -0.0681 -0.2150
 3435W        W 7499  10.081   0.650   1.659  0.0071 -0.4432 -0.2136
 3436W        W 7500  10.525   0.543   0.672 -0.1701 -0.2813 -0.0497
 3437W        W 7501   4.521   6.578   0.219 -0.0678  0.2245 -0.0955
 3438W        W 7502   0.718   9.075   1.706  0.0983  0.1023  0.1087
 3439W        W 7503   7.406   6.584   3.570  0.1569  0.2181  0.3213
 3440W        W 7504   3.005   3.985   8.600  0.2559  0.1115  0.1502
 3441W        W 7505   1.149   7.987   8.637 -0.0314 -0.0811 -0.0716
 3442W        W 7506   2.809   4.031   2.966 -0.1157  0.1415 -0.1450
 3443W        W 7507   4.537   1.307   2.098  0.1353 -0.1704  0.1507
 3444W        W 7508   3.474   3.104  11.273 -0.1853  0.2252  0.0148
 3445W        W 7509   2.294   1.474   1.814 -0.1646  0.1740  0.0084
 3446W        W 7510   7.878   1.267   9.986  0.3276  0.0185  0.0205
 3447W        W 7511   1.388   2.567   2.839 -0.3885  0.2713  0.1370
 3448W        W 7512   9.700   8.320  10.664 -0.1326  0.0813 -0.2779
 3449W        W 7513   9.156   4.266   8.245 -0.2012  0.0762 -0.1107
 3450W        W 7514   7.354   4.573   7.991  0.1505  0.0289 -0.0055
 3451W        W 7515   0.314   9.645   2.163  0.0782  0.0195  0.0096
 3452W        W 7516   0.637   3.027   4.092  0.2479  0.0540  0.1202
 3453W        W 7517   5.207   3.503  10.949 -0.2902  0.0144 -0.3301
 3454W        W 7518   7.092   8.073   0.749  0.0574  0.2558  0.0547
 3455W        W 7519   3.303   2.298   9.810  0.0492  0.1832 -0.0500
 3456W        W 7520   2.226   3.278   3.335 -0.0235 -0.0637  0.0746
 3457W        W 7521   9.756   9.221   3.478  0.3305  0.0093 -0.2702
 3458W        W 7522   4.379   3.356   1.225  0.0612 -0.0201 -0.3510
 3459W        W 7523   7.962  10.205   9.731  0.0720 -0.0846 -0.1628
 3460W        W 7524   6.573   7.916   0.015  0.0998 -0.0015 -0.0025
 3461W        W 7525   0.410   2.991   9.201  0.2737  0.0134  0.1859
 3462W        W 7526   2.020   7.779   0.827  0.1207  0.0059  0.3066
 3463W        W 7527   9.914   5.764  10.829 -0.0414  0.0720  0.1436
 3464W        W 7528   3.360   7.570   1.214  0.1239  0.3095  0.2364
 3465W        W 7529   9.155   3.403   2.098  0.1462  0.4642 -0.1066
 3466W        W 7530   4.729   6.082   3.846 -0.2983  0.2995  0.0109
 3467W        W 7531   5.565   6.470   7.935  0.3906 -0.2246 -0.0903
 3468W        W 7532   6.936   6.636   0.216  0.1554 -0.3044 -0.0822
 3469W        W 7533   6.406   6.548   2.673 -0.1900 -0.0436 -0.1235
 3470W        W 7534   3.235   6.881  10.220 -0.1160 -0.0449  0.2684
 3471W        W 7535   4.195   3.428   3.311 -0.1340  0.1631 -0.4384
 3472W        W 7536   8.484   9.703   3.550  0.0636 -0.2644 -0.1391
 3473W        W 7537   1.498   0.656   3.146  0.2005  0.0883 -0.3375
 3474W        W 7538   8.246   5.388   1.163  0.3569 -0.1876 -0.0871
 3475W        W 7539   7.810   7.998   1.850  0.1974 -0.1118 -0.1571
 3476W        W 7540   2.541   2.671   1.651  0.1414  0.1366  0.0161
 3477W        W 7541   9.453   1.060   8.390 -0.1172 -0.0303  0.0018
 3478W        W 7542   3.163   9.174   1.051 -0.1174  0.0626  0.3209
 3479W        W 7543   2.242   3.312  10.090 -0.0119 -0.0762 -0.1643
 3480W        W 7544   9.255   0.388   0.508 -0.1240 -0.0626  0.1166
 3481W        W 7545   1.635   5.152  11.549 -0.0649 -0.1429  0.1353
 3482W        W 7546   8.739   1.639   9.549 -0.2144 -0.0041 -0.0820
 3483W        W 7547   5.923   3.719   9.692  0.2051  0.1605 -0.2323
 3484W        W 7548   6.923   0.476   9.509 -0.0259  0.2541  0.2815
 3485W        W 7549   3.824   8.023   3.342 -0.2283  0.3749  0.0801
 3486W        W 7550   0.494   1.467   8.422  0.1908  0.0268  0.2920
 3487W        W 7551   0.068   8.675   9.442  0.0114  0.1139 -0.0348
 3488W        W 7552   6.166   7.188   7.801  0.0554  0.3357 -0.1685
 3489W        W 7553   1.935   3.913   1.815  0.1869 -0.0127  0.1728
 3490W        W 7554   6.505   5.498   8.382  0.1977  0.0193 -0.0497
 3491W        W 7555   6.472   4.439   1.815  0.1470  0.0566 -0.0758
 3492W        W 7556   5.577   8.580   8.599 -0.0337 -0.2930  0.0013
 3493W        W 7557   5.343   9.871   1.249 -0.0492 -0.0760  0.3854
 3494W        W 7558   3.327   1.997  11.336 -0.2429 -0.0436  0.0806
 3495W        W 7559   1.268   7.880   2.403  0.3944  0.2466 -0.0821
 3496W        W 7560   0.938   3.012   9.005  0.0036  0.1199 -0.1768
 3497W        W 7561   3.620   5.345  10.423  0.0585  0.0704  0.1057
 3498W        W 7562   3.989   1.039   8.183  0.1240  0.1350  0.1531
 3499W        W 7563   0.170   3.751   3.273 -0.0435 -0.2830 -0.2963
 3500W        W 7564   7.316   5.641   0.603  0.0583  0.4195  0.0185
 3501W        W 7565   0.190   5.066   7.539  0.1427  0.2897 -0.0663
 3502W        W 7566   1.795   8.348   0.667 -0.0705  0.1054 -0.0363
 3503W        W 7567   1.118   4.340   3.373 -0.2755  0.0466  0.3217
 3504W        W 7568   6.831   6.752   1.150  0.0586  0.0506 -0.3245
 3505W        W 7569   0.798   3.771   9.894  0.1698  0.2105 -0.1797
 3506W        W 7570   4.039   2.567   2.282 -0.2298 -0.2226  0.1031
 3507W        W 7571   1.927   0.532   1.739  0.1338 -0.0392  0.1372
 3508W        W 7572   0.192   7.774   2.982 -0.3314 -0.0499 -0.2196
 3509W        W 7573   7.781   8.532  10.610  0.1119  0.0287  0.2600
 3510W        W 7574   3.326   4.348   3.433  0.1289  0.1860 -0.1038
 3511W        W 7575   0.925   3.381  10.141  0.0242  0.3864 -0.2469
 3512W        W 7576   0.915   6.195   1.807 -0.1303 -0.0244 -0.2613
 3513W        W 7577   3.891   2.584   3.317  0.1103  0.2200  0.2611
 3514W        W 7578   7.622   3.880   1.935 -0.0527 -0.0010  0.0965
 3515W        W 7579   6.959   7.322   1.329 -0.3396  0.1708  0.1133
 3516W        W 7580   6.045   0.934   9.453  0.0298  0.0646  0.0745
 3517W        W 7581   8.861   1.012   9.534 -0.1133 -0.0457  0.1740
 3518W        W 7582   6.918   8.368   2.417  0.0953  0.0771 -0.1017
 3519W        W 7583   2.077   4.930   2.241  0.0146 -0.1118  0.0595
 3520W        W 7584   7.029   2.399   0.243  0.0534  0.3512  0.0469
 3521W        W 7585   2.994   6.856  10.791  0.1466  0.1702  0.0079
 3522W        W 7586   1.979  10.002   2.598  0.0483  0.0476  0.0426
 3523W        W 7587  10.127   6.354  11.386  0.1550 -0.1280  0.2097
 3524W        W 7588   2.599   0.574   8.583  0.1876  0.0590  0.0582
 3525W        W 7589   2.049   9.282   4.439  0.0802  0.0414 -0.0044
 3526W        W 7590  10.486   3.281  10.867  0.0174 -0.0051  0.1493
 3527W        W 7591   0.681   1.159   1.301  0.1835  0.1072  0.0987
 3528W        W 7592   9.861   2.863   0.633  0.0211  0.2113  0.4042
 3529W        W 7593   7.267   6.730   2.467 -0.2646  0.2387 -0.1134
 3530W        W 7594  10.181   8.862   2.119 -0.1884 -0.1118  0.0808
 3531W        W 7595   7.541   4.420   0.338 -0.0052 -0.2770  0.2163
 3532W        W 7596  10.525   5.593   8.861  0.2063  0.3097 -0.2108
 3533W        W 7597   9.971   7.091  10.698 -0.1091 -0.1211 -0.4685
 3534W        W 7598   4.507   4.768  11.233  0.3878 -0.0770  0.7136
 3535W        W 7599   4.285  10.463   1.692 -0.1632  0.0651  0.2088
 3536W        W 7600   6.285   8.176   3.350  0.0781  0.1444 -0.0137
 3537W        W 7601   2.820   0.092   1.469 -0.2776  0.0538  0.2561
 3538W        W 7602   4.719   6.820   9.787  0.0786  0.1043  0.1845
 3539W        W 7603   5.214   6.566  11.417  0.1606 -0.2254 -0.1956
 3540W        W 7604   8.445   0.280  11.131 -0.0484  0.0257  0.0430
 3541W        W 7605   2.053   9.072   1.895  0.0783  0.1525 -0.2270
 3542W        W 7606   1.581   4.189   0.533  0.5335 -0.1353 -0.2031
 3543W        W 7607   7.805   4.233   0.734  0.0383 -0.0444 -0.0411
 3544W        W 7608   7.348   4.020   0.106 -0.2743  0.0456  0.1363
 3545W        W 7609   2.687   0.850   9.746  0.1418 -0.0523 -0.3151
 3546W        W 7610   3.273   4.546   2.457  0.0113 -0.3166  0.0296
 3547W        W 7611   6.174   4.919   2.030 -0.0965  0.3466  0.4734
 3548W        W 7612   2.761   1.463   0.710 -0.1154 -0.2453  0.2970
 3549W        W 7613   9.765  10.384   9.296  0.0383 -0.1099 -0.1187
 3550W        W 7614   6.481   4.959  11.049 -0.0385  0.2811  0.0602
 3551W        W 7615  10.566   3.947   9.998 -0.3767 -0.2378 -0.0066
 3552W        W 7616   7.863   7.371   2.348 -0.0124 -0.3995 -0.0046
 3553W        W 7617  10.171   3.823  11.070  0.1340  0.3773  0.2678
 3554W        W 7618   1.027   3.256   2.426 -0.0250 -0.1496  0.2689
 3555W        W 7619   5.200   4.223   2.754  0.2595  0.2183 -0.0867
 3556W        W 7620   3.726   1.676  10.609  0.3406 -0.1571 -0.2598
 3557W        W 7621   7.534   4.877   9.046  0.2736  0.0063  0.0436
 3558W        W 7622   5.864   8.606   1.473 -0.0943 -0.0822 -0.2093
 3559W        W 7623   2.536   3.291   9.174  0.0219  0.1137  0.1056
 3560W        W 7624   4.890   1.348   0.175 -0.3308 -0.0506 -0.2848
 3561W        W 7625   5.813   0.702   0.800 -0.2342 -0.0919 -0.0463
 3562W        W 7626   7.077   8.038   2.046 -0.0917 -0.4033 -0.2885
 3563W        W 7627   0.490   0.155   3.510  0.1406  0.2862 -0.1392
 3564W        W 7628   1.515   6.763   2.455 -0.0471 -0.0834 -0.1366
 3565W        W 7629   5.315   7.118   4.050  0.1176 -0.0877 -0.1928
 3566W        W 7630   1.154   7.658   9.475  0.1715  0.0057 -0.2755
 3567W        W 7631   9.334   0.576   2.647 -0.1210  0.1142 -0.2479
 3568W        W 7632   6.664   4.460  11.133 -0.0236  0.0165  0.0736
 3569W        W 7633   6.032   5.766   8.145  0.1101  0.2625  0.0990
 3570W        W 7634   1.035   6.451   8.607 -0.1425 -0.0478  0.1108
 3571W        W 7635   1.467   8.830   3.060 -0.2807 -0.1105 -0.0067
 3572W        W 7636   2.858   4.092   9.580 -0.0015  0.0250  0.0139
 3573W        W 7637   0.577   9.539   9.333 -0.1040 -0.1417  0.0018
 3574W        W 7638   1.558   0.238   1.748  0.1675  0.3851 -0.2471
 3575W        W 7639   0.385   8.766  10.105  0.1353 -0.1238 -0.0410
 3576W        W 7640   7.534   6.501   8.468  0.0192  0.1784  0.4163
 3577W        W 7641   0.210   8.162   8.565  0.1251  0.1817  0.0389
 3578W        W 7642   0.079  10.192  10.438  0.2791  0.0812 -0.0371
 3579W        W 7643   8.229   0.197  10.664  0.1578 -0.3905  0.2417
 3580W        W 7644   1.328   3.293  11.124  0.0204 -0.0805  0.2085
 3581W        W 7645   6.948   6.640   0.697  0.1920  0.1352  0.1885
 3582W        W 7646   6.595   5.271  10.653  0.1484 -0.2209  0.1356
 3583W        W 7647   9.180   7.202  11.281  0.1364  0.2363 -0.0666
 3584W        W 7648   2.209   9.655   0.318 -0.0207  0.1175 -0.0956
 3585W        W 7649   3.334   1.402   8.612 -0.0825 -0.0043 -0.0219
 3586W        W 7650   1.468   2.860   0.561 -0.1922 -0.0218  0.2174
 3587W        W 7651   4.759   1.787   1.783  0.0685  0.1130  0.1490
 3588W        W 7652   5.514   4.674   8.670  0.1973 -0.0382 -0.0754
 3589W        W 7653   2.817   4.898   1.571 -0.0522  0.2574 -0.1000
 3590W        W 7654  10.183   8.105   0.434 -0.0607  0.1712 -0.1628
 3591W        W 7655   6.078   3.616   9.180 -0.1168 -0.0605 -0.0281
 3592W        W 7656   9.751   5.263   9.544 -0.2058  0.1040  0.2329
 3593W        W 7657   7.251   9.801  11.026 -0.1266  0.1830 -0.0093
 3594W        W 7658   3.999   1.159   7.706  0.1311 -0.1290  0.1226
 3595W        W 7659   0.615   5.240   0.765 -0.0317  0.2072  0.4449
 3596W        W 7660   8.096   2.068   3.019  0.3357  0.1017  0.0967
 3597W        W 7661   3.536   5.255   3.609 -0.0172 -0.0117 -0.1515
 3598W        W 7662   9.559   5.492   3.194 -0.2935  0.0052 -0.2046
 3599W        W 7663   6.046   4.056  10.399 -0.1629  0.1012  0.0895
 3600W        W 7664   4.614   7.040   9.313  0.4106  0.0842  0.0865
 3601W        W 7665   5.946   0.357   0.522  0.0090 -0.0850 -0.0351
 3602W        W 7666   4.503   1.345   9.369 -0.1307 -0.1975 -0.1624
 3603W        W 7667   2.260   3.404   2.876  0.0560  0.2544  0.3391
 3604W        W 7668   2.751   4.318   2.515 -0.1710 -0.1603  0.1457
 3605W        W 7669  10.563   4.768   0.309  0.1694  0.0000  0.1732
 3606W        W 7670   0.850   9.956   2.557 -0.1256  0.3802 -0.0709
 3607W        W 7671  10.355   4.677   0.770 -0.0227 -0.2784 -0.0197
 3608W        W 7672   4.438   5.225   2.020  0.0076  0.3727 -0.2474
 3609W        W 7673   9.802   9.286   2.615 -0.2601 -0.0180 -0.1507
 3610W        W 7674   6.252   8.535   1.973  0.2617 -0.2940 -0.1229
 3611W        W 7675   6.155   1.925  10.506  0.0265 -0.3975  0.1537
 3612W        W 7676   8.160   0.954  11.237 -0.1445 -0.2494  0.1102
 3613W        W 7677   0.830   8.188   0.071 -0.0389 -0.1432 -0.0090
 3614W        W 7678   3.690   2.888  10.806 -0.0800 -0.1369 -0.0241
 3615W        W 7679   4.823   0.454   3.661 -0.0119 -0.0931 -0.1999
 3616W        W 7680  10.095   4.172   1.937 -0.1573  0.1755 -0.0780
 3617W        W 7681   1.060   7.838   3.432 -0.5344 -0.2399  0.2755
 3618W        W 7682   7.950   6.706   8.580 -0.2320 -0.3052  0.0106
 3619W        W 7683   0.868   6.023   0.436  0.1248 -0.0250  0.0624
 3620W        W 7684   3.004  10.120   0.474  0.1762  0.1830  0.1226
 3621W        W 7685   2.247   8.917   8.029  0.1688 -0.0905  0.1541
 3622W        W 7686   8.064   9.895  10.969  0.2625  0.1896 -0.1426
 3623W        W 7687   1.274   4.363   1.343 -0.1962 -0.0469  0.1180
 3624W        W 7688   1.558   8.048   0.360 -0.0817  0.1254 -0.1152
 3625W        W 7689   7.979   1.045   1.897 -0.0875 -0.3532 -0.0320
 3626W        W 7690   0.749   6.690  10.884 -0.0528  0.0326 -0.3181
 3627W        W 7691   2.084   4.914  11.454  0.1670  0.1849  0.0106
 3628W        W 7692   6.453   9.396  10.435  0.1536  0.1655 -0.0432
 3629W        W 7693   1.200   6.741   9.880  0.2202  0.2116 -0.0489
 3630W        W 7694   0.381   1.898   3.568  0.3459  0.1545 -0.3673
 3631W        W 7695   6.906   9.344  10.142 -0.3775  0.2801 -0.1504
 3632W        W 7696   4.373   9.034   4.056 -0.4050  0.1188  0.3307
 3633W        W 7697   4.359   2.959  11.208  0.0581 -0.0160 -0.0583
 3634W        W 7698   0.670   5.287   9.067 -0.1765  0.2653 -0.0609
 3635W        W 7699   8.031   6.116  10.471 -0.1496 -0.2524 -0.1714
 3636W        W 7700   0.680   4.119   2.559  0.1473  0.3769  0.3156
 3637W        W 7701   3.825   6.904   7.345  0.0088  0.1366  0.0253
 3638W        W 7702   5.968   0.257   1.958 -0.0340  0.1135  0.1031
 3639W        W 7703   1.022   9.707   2.957 -0.0509  0.3315  0.0076
 3640W        W 7704   6.510   4.450  10.305  0.0119  0.1374  0.1591
 3641W        W 7705   7.302   4.457   7.514 -0.0383 -0.2869  0.1627
 3642W        W 7706   3.488   5.355   1.917 -0.2042 -0.0285  0.1277
 3643W        W 7707   4.604   0.822  11.351 -0.1299 -0.2263 -0.0418
 3644W        W 7708   4.747   8.816   2.268 -0.2441 -0.1675  0.2210
 3645W        W 7709   0.526   8.647   8.599 -0.0932 -0.5400  0.0422
 3646W        W 7710   4.575   6.659   1.996  0.0080  0.0874 -0.2646
 3647W        W 7711   8.253   7.123   2.506  0.0012 -0.0732  0.0998
 3648W        W 7712   0.725   7.058   9.659 -0.2247  0.1301 -0.0620
 3649W        W 7713   6.747   4.454   2.755 -0.4448 -0.4554  0.1387
 3650W        W 7714   4.734   8.358   8.975 -0.5908 -0.0118 -0.1636
 3651W        W 7715   7.125   7.580   3.428  0.3483 -0.0594 -0.3141
 3652W        W 7716   6.892   9.079   0.019  0.0427  0.1358 -0.0518
 3653W        W 7717   3.825   2.759   7.701 -0.1379  0.1558  0.0061
 3654W        W 7718   4.637   7.181   0.426 -0.1516  0.1439 -0.2171
 3655W        W 7719   0.818   3.937   9.351 -0.1736  0.3031 -0.2527
 3656W        W 7720   5.024   7.190   0.697 -0.2982  0.0975 -0.2015
 3657W        W 7721   6.710   5.998   8.343  0.3402  0.1352  0.1788
 3658W        W 7722   4.990   6.640   2.756 -0.2775  0.1734  0.2056
 3659W        W 7723   9.491   5.963   9.493 -0.1815  0.1418  0.3287
 3660W        W 7724   0.814   2.259   1.996 -0.2131  0.2683  0.0125
 3661W        W 7725   2.043   6.213   2.478 -0.0216 -0.0135  0.3012
 3662W        W 7726   2.722   8.930   1.304 -0.0393 -0.0049 -0.1334
 3663W        W 7727   7.148   2.175   3.121  0.0329 -0.2165  0.0795
 3664W        W 7728   8.310   1.877   8.719 -0.0661  0.1548  0.2218
 3665W        W 7729   1.644   1.674   8.721  0.0378  0.2046 -0.0847
 3666W        W 7730   7.063  10.611   8.706 -0.0351  0.1886  0.0073
 3667W        W 7731   9.536   9.292   3.020 -0.1443 -0.0139 -0.2211
 3668W        W 7732   3.513   9.806   0.271 -0.1229  0.2244  0.2032
 3669W        W 7733   4.268   8.423   9.290 -0.0498 -0.3564 -0.1258
 3670W        W 7734  10.429   9.484   9.883  0.3234 -0.2177  0.0691
 3671W        W 7735   5.129   6.449   0.522 -0.0429 -0.1480 -0.0574
 3672W        W 7736   8.094   4.646   0.629  0.0195  0.1564  0.1372
 3673W        W 7737   6.058  10.428   0.712 -0.0725  0.2822 -0.1605
 3674W        W 7738   1.584   8.975   1.852  0.1502 -0.0417  0.0055
 3675W        W 7739   1.818   8.119   8.448  0.1863  0.0166 -0.0030
 3676W        W 7740   8.737   9.906  10.057 -0.0885 -0.4036 -0.1153
 3677W        W 7741   3.653   4.378   0.053 -0.0945 -0.2467  0.0686
 3678W        W 7742   4.893   7.671   0.302 -0.1842  0.3295 -0.5462
 3679W        W 7743   9.717   3.961   4.157  0.3733 -0.1195  0.1814
 3680W        W 7744   9.919   5.810  11.336  0.1077  0.0078 -0.1916
 3681W        W 7745   1.748   0.616  11.109  0.3733  0.0656  0.0108
 3682W        W 7746   8.692   2.811   3.069 -0.0214 -0.1435  0.4904
 3683W        W 7747   5.990   9.213   2.226  0.0144  0.0418  0.1552
 3684W        W 7748   2.529   2.550   0.110 -0.1300  0.0200 -0.1023
 3685W        W 7749  10.361   1.841   2.305 -0.0010  0.3494  0.0776
 3686W        W 7750   0.689   4.472   0.552 -0.4578  0.1146  0.1428
 3687W        W 7751   7.350   2.931   7.721 -0.2377 -0.2143  0.2902
 3688W        W 7752   7.245   5.715   2.676 -0.0856  0.2467  0.0380
 3689W        W 7753   3.220   0.827   9.801 -0.1526  0.1735  0.1830
 3690W        W 7754   9.958   5.428   0.650 -0.1085  0.0834  0.0735
 3691W        W 7755   6.562   7.057  10.539  0.1485  0.0167 -0.2151
 3692W        W 7756   8.481   2.700   8.688  0.0457  0.1037 -0.1006
 3693W        W 7757   8.676   1.071  11.136  0.0256 -0.1612 -0.1662
 3694W        W 7758   2.347   1.871   3.680 -0.0159 -0.3088  0.0482
 3695W        W 7759  10.134   0.553   9.856  0.4706  0.0984  0.2074
 3696W        W 7760   0.203   0.510   2.135  0.1563 -0.1444 -0.0820
 3697W        W 7761   7.883   5.016   9.916 -0.1768 -0.0097 -0.3907
 3698W        W 7762   8.978   2.739   1.358  0.2464  0.0015 -0.1926
 3699W        W 7763   3.601   8.774   1.097  0.0728  0.1882 -0.1814
 3700W        W 7764   7.846   2.243  11.335 -0.1310  0.1475 -0.0571
 3701W        W 7765   8.183   2.324  10.321  0.1731 -0.1451  0.1908
 3702W        W 7766  10.655   6.980   2.349 -0.4034 -0.0943 -0.0166
 3703W        W 7767   4.258   0.549   8.899  0.1449  0.0654  0.0390
 3704W        W 7768   5.573   2.939   8.833 -0.2818 -0.0648  0.2211
 3705W        W 7769   1.087   0.868   8.749 -0.1810 -0.0906  0.3160
 3706W        W 7770   7.487   6.648  11.241 -0.3044 -0.0005 -0.0814
 3707W        W 7771   7.003   0.327   2.773 -0.1150 -0.1867 -0.1714
 3708W        W 7772   2.242   6.578   3.676 -0.0321 -0.1034  0.1337
 3709W        W 7773   8.277   0.590   2.696  0.0062  0.0217 -0.0142
 3710W        W 7774   8.756   5.958   0.005 -0.2211 -0.2556  0.4304
 3711W        W 7775   3.817   5.964  10.214  0.0926 -0.2493 -0.2468
 3712W        W 7776   3.385   2.826   9.770  0.0270  0.1888  0.0959
 3713W        W 7777   8.801   5.861   2.011 -0.1827 -0.0036  0.0646
 3714W        W 7778   8.291  10.517   3.807 -0.3673  0.4390  0.0530
 3715W        W 7779   1.517   8.469   1.796  0.1339  0.0919 -0.2373
 3716W        W 7780   2.680   3.154   8.705 -0.0015  0.1364  0.0852
 3717W        W 7781   3.568  10.286  10.058  0.2378  0.0843  0.0132
 3718W        W 7782   6.973   1.470   8.913 -0.2824  0.2558  0.0332
 3719W        W 7783   4.689   8.096   1.487  0.0810  0.0246 -0.3617
 3720W        W 7784   5.290   4.719   0.126 -0.3117  0.0248 -0.0199
 3721W        W 7785   1.461   7.268  10.196  0.4062  0.0462  0.0585
 3722W        W 7786   6.431   3.985   9.994  0.2010  0.2178 -0.2339
 3723W        W 7787   9.786   4.053  10.334 -0.1502  0.1363 -0.1458
 3724W        W 7788   8.280  10.149  10.203 -0.0449 -0.0084  0.1633
 3725W        W 7789   2.763   7.893   8.913 -0.1997  0.0465  0.2163
 3726W        W 7790   9.395   2.527  10.876  0.3106 -0.0165 -0.0627
 3727W        W 7791   8.451   2.069   3.458  0.1899 -0.1499 -0.0596
 3728W        W 7792   9.368   7.788   1.017  0.1499  0.2369  0.0418
 3729W        W 7793   1.270   8.124  10.220  0.2653 -0.1055  0.1277
 3730W        W 7794  10.189   4.826  10.135  0.0505 -0.2585 -0.1210
 3731W        W 7795  10.401   3.606   9.616  0.0397  0.2145 -0.1792
 3732W        W 7796   3.278   1.454   9.201 -0.0410 -0.1068 -0.1510
 3733W        W 7797   0.981   7.261   9.202 -0.2086 -0.0075  0.4119
 3734W        W 7798   7.163   4.573   9.356 -0.1310  0.2543  0.1837
 3735W        W 7799  10.362   8.359   0.830  0.0179  0.0636 -0.1909
 3736W        W 7800   2.069   8.363  10.738 -0.2022 -0.0261  0.0058
 3737W        W 7801   2.151   7.355  11.129 -0.1717 -0.1519 -0.1373
 3738W        W 7802   6.803   4.609   8.045  0.1219 -0.0108  0.1932
 3739W        W 7803   8.793   9.466   0.580 -0.0327 -0.0487  0.3095
 3740W        W 7804   7.058   7.688   8.640  0.1300 -0.2053 -0.1094
 3741W        W 7805   4.365   3.989   8.935  0.0971  0.1410  0.1182
 3742W        W 7806   7.755   0.697   1.097 -0.1712  0.1608  0.1217
 3743W        W 7807   1.869   2.774   8.689  0.3072  0.1332 -0.1180
 3744W        W 7808   2.210   2.598  11.300 -0.0691 -0.0094  0.0381
 3745W        W 7809   5.091   7.981   9.967  0.2520 -0.0235 -0.0117
 3746W        W 7810   5.497   4.043   0.689 -0.2743  0.1930 -0.2424
 3747W        W 7811   1.476   7.256   8.467 -0.2560 -0.0041  0.0313
 3748W        W 7812   1.141   2.066  10.294 -0.0513 -0.0129 -0.1479
 3749W        W 7813   9.338   3.367   9.515 -0.2027  0.0696  0.2000
 3750W        W 7814   9.058   5.103  10.156 -0.1604  0.3057 -0.2614
 3751W        W 7815   2.281   9.435   2.125  0.1512  0.0334 -0.1610
 3752W        W 7816   0.053   7.417  10.716 -0.0549  0.2958 -0.0480
 3753W        W 7817   8.174   2.562  11.184 -0.2155 -0.0126 -0.0790
 3754W        W 7818   4.290   1.438   2.561  0.1083  0.0147 -0.2690
 3755W        W 7819   3.152   4.506   1.580 -0.1036 -0.0801  0.0700
 3756W        W 7820   8.668   6.111   8.286  0.1611  0.0565 -0.2140
 3757W        W 7821   2.883   7.199   8.458  0.1243  0.1308 -0.0294
 3758W        W 7822   9.860   5.290   7.721 -0.2597 -0.0095 -0.2748
 3759W        W 7823   9.013   2.225  10.805 -0.2089 -0.3540 -0.1282
 3760W        W 7824   7.063   3.793   3.063 -0.4654 -0.3584  0.0014
 3761W        W 7825   8.352   7.043   8.680  0.0917  0.1374 -0.1142
 3762W        W 7826  10.325   5.378   9.446  0.2072  0.2601 -0.0256
 3763W        W 7827   6.395   8.921  10.477  0.2375  0.1504  0.0766
 3764W        W 7828   9.732   7.532   2.173 -0.1689  0.2491  0.1289
 3765W        W 7829   3.824   9.745   9.319 -0.0665  0.2264  0.2439
 3766W        W 7830   0.229   8.168   2.095  0.0769 -0.0725  0.2005
 3767W        W 7831   9.653   0.350   2.930  0.0930 -0.1430 -0.0733
 3768W        W 7832   8.490   3.849   1.027  0.1292  0.1505  0.2128
 3769W        W 7833   3.490   9.793   2.784  0.0541  0.3804 -0.1364
 3770W        W 7834   8.203   3.116   8.109 -0.1603  0.1404 -0.0149
 3771W        W 7835   7.083   0.815   3.460  0.1126  0.1753 -0.1820
 3772W        W 7836   4.024   9.227   3.602  0.3055  0.0123 -0.1369
 3773W        W 7837   1.003  10.122   0.020 -0.2266  0.1581  0.0873
 3774W        W 7838   6.320   9.964   9.501  0.0474 -0.1818 -0.1852
 3775W        W 7839   5.524   9.375   1.153 -0.1106  0.1974 -0.0535
 3776W        W 7840   8.917  10.569   8.504 -0.3162 -0.2290  0.3810
 3777W        W 7841   4.196   1.253   3.535  0.0658  0.0455 -0.1515
 3778W        W 7842   1.606   1.337  10.607 -0.1018 -0.0689 -0.2239
 3779W        W 7843   1.199   1.500   8.400  0.4678 -0.1516  0.1338
 3780W        W 7844   3.470   3.532   9.155 -0.0894 -0.2281  0.2213
 3781W        W 7845   2.447   9.538   8.966  0.0326 -0.2899 -0.2581
 3782W        W 7846   0.060   2.803   0.255 -0.2816 -0.1593  0.0100
 3783W        W 7847  10.071   7.509   8.307  0.0694 -0.0089 -0.4615
 3784W        W 7848   3.146   2.578   8.102 -0.0427 -0.0507  0.1970
 3785W        W 7849   2.258   7.790  11.430 -0.2732  0.1774 -0.1358
 3786W        W 7850   0.262   8.463   0.606 -0.1122 -0.1217 -0.0663
 3787W        W 7851   7.551   7.406   3.272 -0.0605 -0.1678  0.0581
 3788W        W 7852   5.168   8.658   2.033 -0.1273  0.0375 -0.0447
 3789W        W 7853   9.886   9.968   9.500 -0.1444  0.4215  0.3652
 3790W        W 7854   6.260  10.455   9.229 -0.0283 -0.0403 -0.2942
 3791W        W 7855   5.062   1.261   1.244  0.3217  0.0154  0.1281
 3792W        W 7856   0.789   4.385   1.165 -0.0112  0.0045 -0.0591
 3793W        W 7857   8.628   4.846   8.063  0.1132  0.0703 -0.0554
 3794W        W 7858   9.487   4.215   0.315  0.1294  0.1928  0.0109
 3795W        W 7859   3.946   0.445   1.032  0.1419  0.0519  0.0263
 3796W        W 7860   7.386   6.145  11.237 -0.1947 -0.0821 -0.2171
 3797W        W 7861   3.163   9.960   8.894  0.0381 -0.0518 -0.2885
 3798W        W 7862   0.925   7.607   2.079  0.1930 -0.3080 -0.1692
 3799W        W 7863   1.694   5.210  10.565 -0.1439 -0.2682  0.0060
 3800W        W 7864  10.354   0.365  10.570 -0.1609 -0.0010 -0.1360
 3801W        W 7865   6.629   1.776  10.317 -0.2307 -0.1058 -0.1501
 3802W        W 7866   0.825   1.145   3.741  0.1286  0.3157 -0.0045
 3803W        W 7867   0.961   9.429   2.464 -0.1294 -0.0221 -0.2596
 3804W        W 7868   5.779   2.855   8.248  0.1497  0.3582  0.0068
 3805W        W 7869   7.880   9.721   2.507  0.2094  0.2539 -0.3353
 3806W        W 7870   8.457   7.048   2.979 -0.0428  0.1265 -0.0398
 3807W        W 7871   9.362   5.768  11.290 -0.3547  0.2380  0.4960
 3808W        W 7872   7.572   8.209  11.408  0.2149 -0.0381  0.2185
 3809W        W 7873   3.276   1.570   3.499  0.1343  0.2140 -0.1071
 3810W        W 7874   4.512   5.052   8.224 -0.1154  0.3029 -0.2155
 3811W        W 7875   4.278   2.565   9.406 -0.2806 -0.0327  0.1468
 3812W        W 7876   3.858  10.100  11.547 -0.0248 -0.3679 -0.0058
 3813W        W 7877   1.152   8.279   7.663  0.1176 -0.0125 -0.0166
 3814W        W 7878   8.623   8.605   9.706 -0.1906  0.3432 -0.1308
 3815W        W 7879   5.802   0.693   2.190  0.0282  0.0584  0.0661
 3816W        W 7880   5.855   2.989   3.030 -0.0184  0.0822 -0.0621
 3817W        W 7881   8.465   4.945   1.894 -0.0392 -0.3246  0.1556
 3818W        W 7882   1.055   6.560   2.783  0.2501 -0.2567  0.0736
 3819W        W 7883  10.376   6.734   1.275  0.1999 -0.0064  0.0189
 3820W        W 7884   1.874   5.753  10.640 -0.0270 -0.0673 -0.2455
 3821W        W 7885   1.196  10.391  11.099 -0.2104  0.0683  0.2081
 3822W        W 7886   3.890   4.194   8.353 -0.0167  0.1862 -0.2126
 3823W        W 7887   9.355   7.962   1.491  0.0494  0.0264 -0.2252
 3824W        W 7888   5.233   3.405   9.194  0.0775  0.1055  0.1487
 3825W        W 7889   0.586   9.732   9.809  0.2298  0.1236  0.0180
 3826W        W 7890   6.864   7.134   0.756 -0.4225  0.1575  0.1308
 3827W        W 7891   0.221   7.539   0.305 -0.0296 -0.1300 -0.2682
 3828W        W 7892   6.659   5.304   0.082 -0.2435  0.0170  0.1639
 3829W        W 7893   8.362   4.955   1.397 -0.0346  0.0264  0.2224
 3830W        W 7894   6.687   8.423   3.413  0.3308 -0.1746 -0.2985
 3831W        W 7895   1.418   8.344   8.797 -0.2025  0.4100 -0.0881
 3832W        W 7896   3.297   3.231   3.282  0.3071 -0.1254  0.1342
 3833W        W 7897   5.044   2.905   3.349 -0.0261 -0.1959  0.1934
 3834W        W 7898   4.814   5.378   0.145 -0.1992  0.0013 -0.0685
 3835W        W 7899   1.405   3.342  10.397 -0.1920  0.2503  0.1307
 3836W        W 7900   3.770   2.294   0.991 -0.0554 -0.0001 -0.4781
 3837W        W 7901   1.464   1.131   0.209 -0.0369 -0.1480  0.1662
 3838W        W 7902   6.653   6.267   0.462 -0.3473 -0.0558  0.1394
 3839W        W 7903   2.433   1.086   3.002  0.3521 -0.1290 -0.2733
 3840W        W 7904   7.605   0.401  10.689 -0.0340  0.1981 -0.1700
 3841W        W 7905   8.772   8.061   1.546  0.0009 -0.3795 -0.2331
 3842W        W 7906   8.649   3.775   9.944  0.1155 -0.0196  0.0160
 3843W        W 7907   7.703   7.836   0.781 -0.1811  0.0480 -0.1210
 3844W        W 7908   6.813   5.519   1.874 -0.0453  0.1514  0.0006
 3845W        W 7909   0.019   3.244   9.436 -0.0978 -0.1593  0.0403
 3846W        W 7910   4.349   9.857   1.303 -0.1915  0.0344 -0.2358
 3847W        W 7911   3.213   9.317  11.162 -0.0917  0.0859  0.0004
 3848W        W 7912   4.680   8.512  10.611 -0.0071  0.0334  0.2252
 3849W        W 7913   4.387   3.557  10.566  0.2183 -0.0175 -0.1687
 3850W        W 7914   3.227   0.270   0.174  0.4992 -0.1691 -0.1273
 3851W        W 7915   8.270   9.680  10.407  0.1568  0.0404 -0.0633
 3852W        W 7916   6.162   6.584   2.258  0.3478  0.0138 -0.0863
 3853W        W 7917   8.158   5.654   2.779  0.3742  0.0008  0.1476
 3854W        W 7918   4.174   4.251   9.348 -0.0833  0.2284 -0.1350
 3855W        W 7919   5.341   1.614   2.502 -0.0552 -0.0140 -0.1527
 3856W        W 7920   6.763  10.463  11.242  0.0039 -0.1107  0.2767
 3857W        W 7921   9.201   3.178   3.058 -0.0024  0.0293  0.1394
 3858W        W 7922  10.263   8.165  11.498  0.0835  0.0620 -0.1153
 3859W        W 7923   5.336   6.256   4.509  0.0542 -0.1060 -0.0290
 3860W        W 7924   0.026   2.684   1.076 -0.1066  0.0171  0.2926
 3861W        W 7925   2.575   8.830   3.681 -0.0172 -0.2632  0.0006
 3862W        W 7926   8.894   3.611  10.411 -0.2267 -0.2990  0.0954
 3863W        W 7927   2.921   1.890   1.326 -0.1202 -0.1860  0.1269
 3864W        W 7928  10.282   8.643   9.212 -0.0464 -0.1415  0.1142
 3865W        W 7929   6.678   3.915   2.756  0.1299  0.2047 -0.1725
 3866W        W 7930   4.756   6.863   8.470  0.0940 -0.0064  0.3416
 3867W        W 7931   5.887   1.581   8.811 -0.2479 -0.0148 -0.1621
 3868W        W 7932  10.541   6.476  10.730 -0.1575 -0.3400  0.1033
 3869W        W 7933   6.142   2.100   8.738  0.1498  0.0140  0.0393
 3870W        W 7934   4.770   2.794   0.796  0.1371 -0.1680 -0.0815
 3871W        W 7935   0.129   0.334   1.199  0.0472  0.0754 -0.1444
 3872W        W 7936   4.663  10.243   2.628  0.0422  0.1395  0.0092
 3873W        W 7937   5.125   2.573  11.366  0.0861  0.1048 -0.0039
 3874W        W 7938   3.858   6.965  11.022 -0.0595 -0.0778  0.1876
 3875W        W 7939   0.310   2.902   3.206 -0.0691  0.2474 -0.0381
 3876W        W 7940   2.416   9.883  11.155  0.1140 -0.1123  0.0788
 3877W        W 7941   0.344   4.381   8.669 -0.1147 -0.0242  0.1950
 3878W        W 7942   6.825   6.097   1.416 -0.0210  0.2458  0.0656
 3879W        W 7943   3.737   3.927   3.430  0.0717  0.1284  0.1134
 3880W        W 7944   2.515   3.778   0.613 -0.1491  0.0581 -0.1785
 3881W        W 7945   0.563  10.057   1.328  0.1353 -0.1699  0.0934
 3882W        W 7946   6.905   6.094  11.095  0.3217 -0.2517  0.0843
 3883W        W 7947   5.470   7.501  10.157 -0.0411 -0.4241 -0.1479
 3884W        W 7948   5.263   2.430   0.316 -0.1198 -0.5584 -0.2276
 3885W        W 7949   8.329   2.335   1.362 -0.2387  0.2566 -0.0313
 3886W        W 7950   6.393   6.014   9.790 -0.1605  0.2510 -0.0031
 3887W        W 7951   7.997   9.898   2.042  0.3356 -0.0445 -0.1707
 3888W        W 7952   5.007   8.749  10.277 -0.1711 -0.0324  0.0503
 3889W        W 7953   7.852   2.399   7.983 -0.2092  0.0107  0.1112
 3890W        W 7954   6.729   2.453   2.923  0.0716 -0.3374 -0.0081
 3891W        W 7955  10.319   6.056   1.042  0.1298  0.1358  0.0541
 3892W        W 7956   8.007   3.636  11.296 -0.0118  0.2139  0.0202
 3893W        W 7957   7.506   5.054   3.186  0.0103 -0.1559  0.3146
 3894W        W 7958   5.063   9.040   9.557 -0.0534 -0.0403 -0.1908
 3895W        W 7959   2.139   0.530   2.274  0.0053 -0.3207  0.1285
 3896W        W 7960   3.144   7.570   8.800  0.0871  0.0845  0.1937
 3897W        W 7961   7.657   7.065   9.329 -0.0913 -0.1526  0.1808
 3898W        W 7962   2.298   5.073   0.945 -0.0559 -0.3039  0.2353
 3899W        W 7963   9.985   5.813   9.537 -0.0749  0.0883 -0.1012
 3900W        W 7964   3.021   5.620   8.545  0.1496 -0.1340  0.0577
 3901W        W 7965   6.066   1.785  10.992  0.1334  0.1267 -0.1680
 3902W        W 7966   8.951   3.068  10.351 -0.1070  0.0402  0.1503
 3903W        W 7967   4.994   9.188   8.284 -0.1164 -0.1344 -0.3646
 3904W        W 7968   9.936   4.476   8.713 -0.3601  0.0539 -0.2209
 3905W        W 7969   9.744   9.765  10.158 -0.0890 -0.2752 -0.0152
 3906W        W 7970   6.197   6.052   0.253  0.4447 -0.1109  0.0644
 3907W        W 7971   3.948   0.855   3.857  0.1349 -0.4018 -0.0601
 3908W        W 7972   7.494   3.524   2.826  0.1253  0.0181 -0.5106
 3909W        W 7973   6.716   9.614   9.718  0.0441  0.0736  0.0144
 3910W        W 7974   5.486   9.783   9.026  0.2281  0.0921 -0.2717
 3911W        W 7975   1.322   5.044   9.607 -0.3775  0.1386  0.0907
 3912W        W 7976   2.768   9.371  10.252 -0.1281  0.1794  0.1450
 3913W        W 7977   9.911   5.840   8.108 -0.2785  0.2107 -0.0216
 3914W        W 7978   0.204   8.843  11.281 -0.3139 -0.1675 -0.0114
 3915W        W 7979   7.109   6.700  10.834 -0.1287 -0.2192  0.0884
 3916W        W 7980   9.672   3.606   3.817  0.3431  0.1139  0.1681
 3917W        W 7981   3.825   2.508   0.560 -0.0446  0.2433  0.1239
 3918W        W 7982  10.193   3.179   8.906 -0.1508  0.5873 -0.1148
 3919W        W 7983   7.674   6.490  10.753  0.2431 -0.1451  0.1281
 3920W        W 7984   0.221   5.468   3.156 -0.3264  0.1271 -0.1366
 3921W        W 7985   9.931   4.250   2.956  0.1192 -0.1421 -0.3499
 3922W        W 7986   9.897   8.481   0.107 -0.2202  0.0328 -0.1442
 3923W        W 7987   5.585   4.413  10.370  0.1290  0.1403 -0.2129
 3924W        W 7988   6.856   4.274   3.198 -0.1616  0.1990  0.1729
 3925W        W 7989   5.015   5.058   2.868 -0.1451  0.1220 -0.1426
 3926W        W 7990  10.470   7.476  11.521 -0.1633  0.4416  0.1261
 3927W        W 7991   3.010   4.623   0.770  0.1609  0.2894  0.1456
 3928W        W 7992   6.850   0.740  11.029  0.3557 -0.0524  0.0095
 3929W        W 7993   6.175   3.593   7.060  0.1487 -0.1003 -0.1255
 3930W        W 7994   7.275   0.168  10.193 -0.0663 -0.2047  0.1358
 3931W        W 7995   4.087   4.706   8.308  0.0182  0.1798  0.4174
 3932W        W 7996  10.189   9.548   2.580 -0.2429 -0.0528  0.3253
 3933W        W 7997  10.311   4.830  11.025 -0.0665  0.0709  0.2149
 3934W        W 7998   2.305   8.200   0.709 -0.2677  0.0497  0.1281
 3935W        W 7999   8.235   4.601   2.702 -0.2236  0.1173 -0.0146
 3936W        W 8000   3.372   2.470   3.510  0.1286 -0.0709 -0.1248
 3937W        W 8001   0.715   6.849   8.424 -0.2722  0.2124  0.0318
 3938W        W 8002   7.968   6.225   8.433  0.3290  0.0236  0.2567
 3939W        W 8003   3.174   5.588   2.253  0.1724  0.2001 -0.3170
 3940W        W 8004   7.449   1.034   3.219 -0.0129 -0.2088  0.0395
 3941W        W 8005   6.798   8.476   1.691  0.1024 -0.2643 -0.0745
 3942W        W 8006   4.099   2.105   9.733 -0.0679 -0.1790  0.0872
 3943W        W 8007   2.608   3.781   9.067 -0.1546  0.3902 -0.0614
 3944W        W 8008  10.387   2.384   8.057  0.3859  0.1694 -0.1584
 3945W        W 8009   9.946   5.406  10.381 -0.0672 -0.1787  0.0771
 3946W        W 8010  10.435   6.768   1.819 -0.1094 -0.1915  0.0390
 3947W        W 8011   3.669   9.620   1.889  0.1558 -0.1673 -0.1341
 3948W        W 8012   3.547   6.133   8.602  0.1466 -0.1114 -0.0174
 3949W        W 8013   9.338   4.164   9.403  0.0344 -0.0253 -0.1122
 3950W        W 8014   7.114   3.718   2.539  0.2635 -0.1836  0.2263
 3951W        W 8015   2.143  10.102   1.409 -0.1932 -0.0911 -0.1987
 3952W        W 8016   2.438   5.507   9.963 -0.1881  0.0481  0.0259
 3953W        W 8017   7.299   9.223  11.331  0.1047  0.2746 -0.1270
 3954W        W 8018   0.505   6.590   1.191  0.0751  0.0027 -0.1428
 3955W        W 8019   2.796   8.265   7.533  0.0780 -0.1148  0.1812
 3956W        W 8020   2.103   9.990   0.849  0.0623 -0.0591  0.2437
 3957W        W 8021   5.066   6.547   2.228  0.4104  0.0450 -0.0099
 3958W        W 8022   2.921   8.046   1.381  0.0676 -0.0882  0.0660
 3959W        W 8023   8.969   5.045   2.116  0.4362  0.1981 -0.0047
 3960W        W 8024   0.371   2.760   1.444  0.1460 -0.0934 -0.0443
 3961W        W 8025   3.607   2.918  10.316  0.1201 -0.0349  0.4488
 3962W        W 8026   4.600   6.032  10.958 -0.4718  0.0148  0.0142
 3963W        W 8027   2.168   2.713   2.010  0.1110  0.0269  0.0088
 3964W        W 8028   0.868   3.490   8.266  0.0644  0.3988  0.3463
 3965W        W 8029   6.495   7.212   1.148 -0.2006 -0.1477  0.2964
 3966W        W 8030   7.719  10.570   1.225 -0.2162 -0.2882 -0.2420
 3967W        W 8031   3.364   2.638   0.896  0.2284  0.0974 -0.1098
 3968W        W 8032   8.522   7.389   2.102 -0.0787  0.1427  0.0808
 3969W        W 8033   9.514   5.315  10.707  0.0952  0.1186  0.4453
 3970W        W 8034   0.620   0.146   2.473  0.0951 -0.0575  0.0689
 3971W        W 8035   0.961   3.243   3.236 -0.0129  0.2180  0.1631
 3972W        W 8036   4.191   0.830  10.619  0.0379  0.1313  0.0150
 3973W        W 8037   9.401   6.152   0.795  0.1871 -0.1987 -0.0880
 3974W        W 8038   2.591   9.680  10.649  0.0274 -0.1210  0.0200
 3975W        W 8039   9.205   3.077   9.045  0.1060 -0.0913 -0.1073
 3976W        W 8040  10.550   8.877   3.102 -0.1409  0.0435 -0.1825
 3977W        W 8041   2.750   5.325   4.100  0.0240 -0.1013  0.1045
 3978W        W 8042   9.082   9.202   1.439 -0.0407 -0.1459 -0.2277
 3979W        W 8043   8.494   3.409   0.604 -0.2330 -0.1491 -0.1876
 3980W        W 8044   4.424   7.282   9.867  0.2032  0.1471 -0.0541
 3981W        W 8045   1.011   3.979   8.249 -0.3008  0.2031 -0.1711
 3982W        W 8046   4.168   1.880   3.720  0.2181 -0.2186 -0.0159
 3983W        W 8047   0.326   7.821   8.156  0.0842 -0.1416 -0.0675
 3984W        W 8048   3.807   8.676   1.557  0.1678  0.0374 -0.1928
 3985W        W 8049   5.938   6.368   3.567 -0.2764 -0.0912  0.2078
 3986W        W 8050   2.337  10.154  10.691  0.4694  0.0528  0.0525
 3987W        W 8051   8.469   3.488   1.758  0.0676  0.3997  0.0726
 3988W        W 8052   2.757  10.661   1.990 -0.3096  0.1137  0.0069
 3989W        W 8053   0.600   0.131   1.040 -0.2612  0.0548  0.1770
 3990W        W 8054   2.837   4.992   0.553 -0.0893 -0.2028  0.0599
 3991W        W 8055   4.334   8.027   9.902  0.1256  0.0339 -0.0796
 3992W        W 8056   6.769   6.100   4.054  0.1774 -0.2749  0.1479
 3993W        W 8057   2.574   3.015   9.856 -0.1258 -0.2546  0.1169
 3994W        W 8058   5.903   8.130   4.126 -0.0243 -0.0284  0.1696
 3995W        W 8059   2.392   8.853  10.106  0.0104 -0.4552 -0.4213
 3996W        W 8060   1.207   7.041  11.091  0.0687  0.3140  0.1170
 3997W        W 8061   4.839   4.708   1.497  0.0682 -0.1808 -0.0478
 3998W        W 8062   9.166   7.495   8.789  0.0543 -0.1889 -0.0188
 3999W        W 8063   3.470   2.714   3.055  0.0378  0.2119 -0.1973
 4000W        W 8064   4.790   1.251   8.155 -0.3901 -0.3130 -0.2625
 4001W        W 8065   1.407   3.971   9.869  0.2445  0.1671  0.0031
 4002W        W 8066   7.843   2.190   1.174 -0.0210 -0.0420 -0.2936
 4003W        W 8067   8.533   2.914  11.025  0.2760 -0.0129 -0.1338
 4004W        W 8068   1.834  10.064   9.364 -0.1901 -0.0289 -0.2715
 4005W        W 8069   6.186   9.783   1.828 -0.0793 -0.2694  0.4157
 4006W        W 8070   1.955   5.957   2.012 -0.0120 -0.1128 -0.0871
 4007W        W 8071   3.076   4.816   3.541 -0.1759  0.0687 -0.0615
 4008W        W 8072   3.107  10.172   3.917  0.2637 -0.0249 -0.1423
 4009W        W 8073  10.545  10.274   2.530  0.0348 -0.1253 -0.1122
 4010W        W 8074   5.522   8.344  10.594  0.0672 -0.0104  0.2852
 4011W        W 8075   8.192   8.460  10.245  0.0462  0.2225 -0.1826
 4012W        W 8076  10.177   1.647   2.711  0.1146  0.1765  0.1955
 4013W        W 8077  10.439   5.075  11.429  0.0432  0.0955 -0.0141
 4014W        W 8078   6.450   8.006   1.786 -0.0384 -0.0055 -0.0421
 4015W        W 8079   6.555   5.740  10.197 -0.2845 -0.0846 -0.0974
 4016W        W 8080   9.374   4.791   2.533 -0.3968 -0.0780  0.1542
 4017W        W 8081   6.714   6.974   9.465  0.1988 -0.0208  0.3166
 4018W        W 8082   4.259   6.337   3.818  0.2379 -0.2374  0.1377
 4019W        W 8083   3.867   3.250  11.533  0.2558  0.0830 -0.0757
 4020W        W 8084   5.942   5.635   1.239 -0.1663 -0.1223 -0.2653
 4021W        W 8085   4.872   0.345   0.728  0.0843 -0.2465 -0.2954
 4022W        W 8086   7.397   2.304  10.826  0.1755  0.2493  0.3650
 4023W        W 8087   4.862   2.255   0.702 -0.1322 -0.3331  0.2188
 4024W        W 8088   3.193   5.722  11.293  0.1138 -0.1527  0.0116
 4025W        W 8089   1.767  10.116   8.528  0.0439  0.4001  0.1605
 4026W        W 8090   5.146   2.567   3.850  0.3731 -0.0936 -0.0712
 4027W        W 8091   5.146   5.504   9.809 -0.0221 -0.3750  0.2555
 4028W        W 8092   5.806   6.077   1.041 -0.0227  0.0189  0.2267
 4029W        W 8093  10.298   6.077   0.251 -0.1180  0.3535 -0.0879
 4030W        W 8094   7.254   2.838  11.548 -0.0730 -0.0853 -0.1144
 4031W        W 8095   6.866   0.229  10.930  0.0577 -0.1600 -0.1668
 4032W        W 8096   6.330   0.762   2.277  0.0770  0.2527 -0.2599
 4033W        W 8097   0.378   4.016   9.149 -0.1492 -0.0702  0.2389
 4034W        W 8098   9.891   1.614   0.969  0.2440 -0.1114  0.0855
 4035W        W 8099   5.387   3.747   2.645 -0.1271  0.3859  0.1076
 4036W        W 8100   6.075   6.753   8.201  0.1271 -0.2402 -0.0619
 4037W        W 8101   6.913   4.235   8.380 -0.0698 -0.0335  0.2152
 4038W        W 8102   7.313   2.986   1.590 -0.0808  0.0146  0.2649
 4039W        W 8103   8.845   6.164   1.549  0.3534 -0.0541  0.0858
 4040W        W 8104   4.366   3.406   8.158 -0.0668  0.4319  0.0318
 4041W        W 8105   2.107   1.808   8.557 -0.1505  0.4351  0.1538
 4042W        W 8106   2.768   8.716   2.727  0.2311  0.3193  0.1701
 4043W        W 8107   5.166   9.528   2.277 -0.1151  0.3204  0.2337
 4044W        W 8108   4.531   8.835  10.318  0.1261 -0.1337  0.2720
 4045W        W 8109   4.991   1.258   7.717 -0.4590 -0.5119  0.3789
 4046W        W 8110   9.796   8.731  10.935  0.2559 -0.0345  0.0248
 4047W        W 8111   2.088   8.552   9.192 -0.0037 -0.2691 -0.0352
 4048W        W 8112   9.757   0.738   8.960 -0.2191  0.1852  0.0356
 4049W        W 8113   3.157   8.378  11.044  0.0140  0.0340  0.4920
 4050W        W 8114   4.657   7.465   1.875  0.2340 -0.1274 -0.0885
 4051W        W 8115   4.252   6.854   9.584 -0.2595  0.1546 -0.0941
 4052W        W 8116   3.856   8.989   8.648 -0.2107 -0.1609 -0.1853
 4053W        W 8117   3.296   6.122   7.406 -0.0103  0.0034  0.4187
 4054W        W 8118   8.982   4.211   2.261 -0.0781 -0.1460  0.2335
 4055W        W 8119   5.098   9.611   0.938  0.1042 -0.0312 -0.1600
 4056W        W 8120   4.226   2.866   4.113  0.0861 -0.1094 -0.0731
 4057W        W 8121   8.507   0.306   1.045  0.2637 -0.1404 -0.2248
 4058W        W 8122   3.256   3.974  11.327  0.0018 -0.0436 -0.0130
 4059W        W 8123   0.479   9.625   8.814  0.0902  0.1696 -0.0263
 4060W        W 8124   5.770   8.194   2.922 -0.1030  0.0568  0.0240
 4061W        W 8125   6.990   6.513   9.766 -0.2978 -0.0914  0.0599
 4062W        W 8126   5.089   3.520  10.053  0.2356 -0.1379 -0.3322
 4063W        W 8127   8.776   6.442   0.005  0.1148 -0.0702 -0.1106
 4064W        W 8128   7.899   0.144   9.899 -0.2826  0.0559 -0.0858
 4065W        W 8129   2.835   8.583  11.472  0.0938  0.1238 -0.0252
 4066W        W 8130   9.493   5.641   0.629  0.2025  0.1989 -0.0607
 4067W        W 8131   3.894   8.936   9.906  0.0357 -0.1232  0.3416
 4068W        W 8132   3.591   6.296   2.747  0.3200  0.1101 -0.0062
 4069W        W 8133   4.092   9.083  10.360 -0.3510 -0.0365  0.1404
 4070W        W 8134   9.153   2.209   8.943 -0.0858 -0.0781  0.0108
 4071W        W 8135   5.892   6.508   3.034 -0.0286 -0.3654 -0.0353
 4072W        W 8136   2.557   6.304  11.491  0.0873  0.4151 -0.1798
 4073W        W 8137   5.513   3.049   0.366  0.0889  0.1377  0.1930
 4074W        W 8138   5.450   7.995  10.264 -0.1253 -0.1847  0.1311
 4075W        W 8139   1.677   9.420   9.709 -0.1716  0.3062  0.0973
 4076W        W 8140   7.568   0.782   1.735 -0.1045  0.1449 -0.0125
 4077W        W 8141   5.830  10.056   1.045 -0.3713 -0.2053  0.0715
 4078W        W 8142   4.300   8.871   8.923  0.2470  0.1586  0.0745
 4079W        W 8143   9.793   7.593  10.297  0.2459 -0.3017  0.0362
 4080W        W 8144   8.992   8.994   2.222 -0.1329  0.4194  0.1988
 4081W        W 8145   9.965   6.140   8.490 -0.1566 -0.2319 -0.0451
 4082W        W 8146   6.662   5.590   9.746 -0.0730 -0.1158 -0.1732
 4083W        W 8147   5.136   7.674   3.514  0.0461 -0.1190 -0.0441
 4084W        W 8148   7.133   3.015   4.059  0.1235  0.0681 -0.1778
 4085W        W 8149   6.620   5.101   2.202 -0.2106 -0.1608 -0.1168
 4086W        W 8150   4.537   2.484  11.417 -0.1868  0.6400  0.1370
 4087W        W 8151   2.341   5.846  10.378 -0.0333  0.1575  0.2375
 4088W        W 8152   0.025   3.446  10.401  0.0882  0.1198  0.3162
 4089W        W 8153   5.300   7.614   9.632 -0.2653 -0.1057 -0.0375
 4090W        W 8154   5.739   3.421   8.867  0.3024 -0.0382 -0.1303
 4091W        W 8155   4.697   4.583   3.533 -0.1430  0.1856  0.5105
 4092W        W 8156   6.277   9.233   3.220  0.0656  0.1205  0.0341
 4093W        W 8157   1.580   3.777   8.987  0.0476 -0.0827  0.0876
 4094W        W 8158   7.632   9.658  10.691  0.2050  0.0287  0.3224
 4095W        W 8159   0.715   9.109   8.838  0.0045  0.1586  0.3638
 4096W        W 8160   2.611   1.417  10.403  0.1663 -0.1900  0.2221
 4097W        W 8161   1.087   2.064   0.355  0.2399 -0.2087  0.0157
 4098W        W 8162   1.363   5.692  10.675 -0.0734 -0.0127 -0.0491
 4099W        W 8163   6.530   6.420   3.142  0.6283 -0.0911 -0.4513
 4100W        W 8164  10.587   3.369   0.803 -0.1206  0.2097  0.1292
 4101W        W 8165   9.420   8.285   1.069  0.1115  0.1304  0.2374
 4102W        W 8166   2.002   6.546   3.233 -0.4482  0.0268 -0.1560
 4103W        W 8167   8.493   0.773   1.295 -0.1266 -0.1157  0.0141
 4104W        W 8168   3.257   2.009   9.379  0.1295  0.2197  0.1389
 4105W        W 8169   6.622   5.001   0.880 -0.0266  0.3156  0.0560
 4106W        W 8170   5.078   2.232   7.519  0.0043  0.1391  0.2253
 4107W        W 8171   9.265   4.897   3.909  0.1723  0.0554  0.2147
 4108W        W 8172   9.067   9.631   0.201  0.0272 -0.1373 -0.1602
 4109W        W 8173   4.050   9.936   1.694  0.0487  0.0160  0.0331
 4110W        W 8174   8.528   4.433   8.896 -0.1064  0.1945 -0.0792
 4111W        W 8175  10.027   6.733   9.903  0.2544  0.0780  0.0340
 4112W        W 8176   2.912   7.523   2.631 -0.2314 -0.2418  0.3134
 4113W        W 8177   6.344   2.510   3.363  0.0987  0.2514 -0.1931
 4114W        W 8178   3.582   9.404   2.446  0.1989  0.0138  0.1963
 4115W        W 8179   3.553   5.361   4.480 -0.0648 -0.2050 -0.1010
 4116W        W 8180   1.459   5.020   3.814  0.0623 -0.3075 -0.0556
 4117W        W 8181   0.291   1.404   0.930 -0.0242 -0.2112  0.0962
 4118W        W 8182   2.294   6.761  11.459  0.1089 -0.3797 -0.0430
 4119W        W 8183   4.299   1.599  11.207  0.0914 -0.4072  0.0417
 4120W        W 8184  10.238  10.074   1.631  0.0795  0.2887  0.1033
 4121W        W 8185   4.425   2.499   3.098 -0.2543 -0.0342 -0.2042
 4122W        W 8186   1.287   0.301   3.643  0.0418 -0.0539  0.2217
 4123W        W 8187   8.299   0.429   9.941 -0.0612 -0.2099  0.4276
 4124W        W 8188   1.769   4.396   1.577  0.1881  0.3007  0.0656
 4125W        W 8189   4.988   0.981   3.439 -0.0003  0.0137  0.1577
 4126W        W 8190   4.925   2.186  10.553 -0.4520 -0.1377  0.0182
 4127W        W 8191   6.154   1.461  10.584  0.1013 -0.1750  0.0781
 4128W        W 8192   8.864   2.566   3.880 -0.0582  0.0415  0.3099
 4129W        W 8193   5.124   0.041   3.547  0.2686 -0.3700  0.1873
 4130W        W 8194   9.170   3.706  11.133  0.1035  0.0820 -0.1552
 4131W        W 8195   1.129   2.669   9.359 -0.0295 -0.1295 -0.0530
 4132W        W 8196   2.190   4.405   2.465 -0.0260  0.3039 -0.2004
 4133W        W 8197   7.946   6.566   8.037  0.0957  0.0187  0.1062
 4134W        W 8198   5.942   3.219   1.462 -0.1271 -0.1136 -0.0745
 4135W        W 8199   4.187   7.208   2.609  0.2889  0.0470  0.1052
 4136W        W 8200   1.929  10.045  11.033 -0.1662  0.1748 -0.1233
 4137W        W 8201   4.702   5.418   9.403 -0.4286 -0.2060 -0.0272
 4138W        W 8202   3.622   5.971   0.945  0.0981 -0.0424 -0.3641
 4139W        W 8203   5.915   4.480   8.037 -0.1898 -0.0632 -0.1880
 4140W        W 8204   2.053   1.109   1.021 -0.1529 -0.0856  0.0931
 4141W        W 8205   3.953   9.968  10.071  0.1984 -0.1429 -0.3057
 4142W        W 8206  10.301   6.897   8.601  0.0492  0.2742  0.1501
 4143W        W 8207   1.182   6.506  10.682 -0.0156 -0.0605  0.0660
 4144W        W 8208  10.208   7.405   8.789 -0.2024  0.1101 -0.2421
 4145W        W 8209   5.371   2.756   2.920  0.1797 -0.1243 -0.2447
 4146W        W 8210   9.439   3.601   3.202  0.3551  0.0588  0.0037
 4147W        W 8211   1.977  10.391   8.988 -0.1638  0.2561  0.0756
 4148W        W 8212   9.706   8.968   1.739 -0.1949 -0.1006 -0.1592
 4149W        W 8213   3.571   4.883  10.292 -0.0839  0.0396  0.0528
 4150W        W 8214   1.437  10.374   2.065 -0.2313 -0.1932  0.4868
 4151W        W 8215  10.393   4.402   3.340 -0.5307 -0.2262 -0.3246
 4152W        W 8216   6.159   6.141   2.775 -0.1723 -0.1932 -0.0861
 4153W        W 8217   6.199   1.291   2.564  0.1457  0.5028 -0.2760
 4154W        W 8218   0.439   1.932   9.358 -0.1451 -0.0009 -0.1125
 4155W        W 8219  10.028   2.024  11.201 -0.0413  0.0423 -0.0119
 4156W        W 8220   3.908   3.898   2.030  0.2715  0.0586  0.2766
 4157W        W 8221   7.037   6.940   2.008  0.2653  0.0563 -0.2369
 4158W        W 8222   9.419  10.335   1.571  0.2368 -0.0680 -0.1454
 4159W        W 8223   3.908  10.246  11.087  0.2822 -0.2362 -0.1895
 4160W        W 8224   5.107   4.971  10.155  0.0530 -0.3895 -0.0793
 4161W        W 8225   1.484   2.001   9.562 -0.2597  0.0479  0.3013
 4162W        W 8226   0.678   8.808   0.952  0.1216 -0.0887  0.0542
 4163W        W 8227   3.782   0.944   1.229  0.0111 -0.0635 -0.4199
 4164W        W 8228   5.871   3.870  11.455 -0.2603 -0.1666 -0.1888
 4165W        W 8229   7.976   6.199   2.599  0.1807  0.0474  0.2674
 4166W        W 8230   1.484   3.916  10.548  0.1745  0.1986 -0.2193
 4167W        W 8231   8.391   6.015   8.815 -0.1871  0.1207 -0.1473
 4168W        W 8232   1.484   6.699  10.321 -0.0863  0.2228 -0.1591
 4169W        W 8233   0.104   5.533   8.412 -0.2775  0.3841  0.1709
 4170W        W 8234   8.641   8.902  10.113  0.0537 -0.0263 -0.0022
 4171W        W 8235   2.745   6.305   8.053  0.0507  0.0634  0.0952
 4172W        W 8236   1.953   3.977   1.216 -0.4939 -0.0371  0.1627
 4173W        W 8237   6.035   8.296   1.102 -0.2124  0.1902 -0.1790
 4174W        W 8238   2.281   0.547   2.746  0.1402 -0.0064 -0.0224
 4175W        W 8239   3.917   1.891  11.075 -0.0332  0.0303  0.1856
 4176W        W 8240   6.921   2.646   7.786  0.1025 -0.2856  0.1494
 4177W        W 8241   1.871   6.459   2.089  0.3153  0.2136 -0.0661
 4178W        W 8242   0.284   9.098   2.952 -0.4396 -0.1794  0.3416
 4179W        W 8243   0.668   2.179   7.944  0.2969 -0.1794 -0.0044
 4180W        W 8244   7.380   0.033  10.941 -0.2407  0.0178 -0.1777
 4181W        W 8245   4.094   7.262  10.215  0.0538  0.1382  0.1266
 4182W        W 8246   1.427  10.207   3.964 -0.1472 -0.1087 -0.0107
 4183W        W 8247   0.159   6.180   2.119 -0.1380  0.2081 -0.3659
 4184W        W 8248   4.044   9.310   9.055 -0.0887 -0.0811  0.1578
 4185W        W 8249   0.505   6.913  10.078 -0.3699  0.0608  0.0326
 4186W        W 8250   3.415   3.821   2.223  0.1654  0.2082 -0.1121
 4187W        W 8251   0.195   7.859  10.469 -0.1942  0.0491  0.1694
 4188W        W 8252   9.478   8.777   1.325 -0.0044  0.0293  0.1464
 4189W        W 8253  10.561   7.958   1.380  0.4576 -0.0544 -0.0806
 4190W        W 8254   3.931   0.296   9.776  0.3690  0.0778  0.3043
 4191W        W 8255   5.440   7.686   1.496  0.2151 -0.0454  0.0482
 4192W        W 8256   7.402   1.226   1.835  0.0029 -0.0671  0.3392
 4193W        W 8257   9.079   0.149  10.039  0.2229 -0.0293 -0.0244
 4194W        W 8258   3.122   5.925  10.858  0.0988  0.3649  0.1682
 4195W        W 8259   3.281   8.018   9.471  0.0458 -0.0349  0.0460
 4196W        W 8260   3.805   5.201   0.558  0.0298  0.1281 -0.2399
 4197W        W 8261   7.045   2.623   3.361  0.0191  0.0499 -0.4266
 4198W        W 8262   4.824   9.399   3.204 -0.0136  0.1260 -0.1891
 4199W        W 8263   9.216   2.323   1.602 -0.1727  0.1201  0.0379
 4200W        W 8264   5.560   6.812   1.653 -0.0312 -0.0042  0.3261
 4201W        W 8265   1.711   4.264   9.090  0.0163  0.3784 -0.1570
 4202W        W 8266   9.139   9.145  10.164  0.1542 -0.0389  0.1796
 4203W        W 8267   8.968   3.662   8.376  0.1836 -0.0654 -0.2252
 4204W        W 8268   1.510   9.979   3.494  0.0790 -0.2195 -0.1161
 4205W        W 8269   9.670   1.671   9.336  0.0833  0.1823 -0.0570
 4206W        W 8270   1.504   2.668   1.442 -0.0455 -0.2710 -0.0248
 4207W        W 8271   5.800   2.444   1.931 -0.2759  0.1031  0.0802
 4208W        W 8272   2.682   3.287  10.290  0.0411 -0.1620 -0.0688
 4209W        W 8273   2.761   5.484   9.015 -0.4900  0.0086 -0.1270
 4210W        W 8274   2.184   3.298   9.537  0.1534 -0.3061  0.1883
 4211W        W 8275   5.336   5.739   1.735 -0.0923 -0.1827 -0.1252
 4212W        W 8276   4.181   0.924   0.965 -0.1276 -0.1843 -0.1152
 4213W        W 8277   2.392   5.937   2.200  0.1977 -0.1190 -0.0384
 4214W        W 8278  10.051   1.055   0.135  0.0957  0.2371 -0.0040
 4215W        W 8279   6.551   5.888   7.791 -0.1048 -0.0097  0.1361
 4216W        W 8280   7.959   5.336   2.415  0.1193  0.1312  0.0503
 4217W        W 8281   3.311   8.846   9.333  0.1165  0.1981 -0.1819
 4218W        W 8282   9.008   2.395  10.364 -0.4060 -0.0188 -0.0106
 4219W        W 8283   6.630   3.391   2.616  0.3357 -0.0049  0.0785
 4220W        W 8284   5.322   5.443   3.097 -0.1342 -0.2288  0.0504
 4221W        W 8285   5.511   9.264  10.803 -0.1288  0.3383 -0.2347
 4222W        W 8286   9.691   4.604   1.665 -0.1409  0.0473 -0.0595
 4223W        W 8287   7.595   8.496   0.320 -0.0405  0.0549  0.0288
 4224W        W 8288   2.979   2.695   2.014  0.2660 -0.2276 -0.0476
 4225W        W 8289   9.534   6.658  10.977  0.0951 -0.1540  0.1288
 4226W        W 8290   4.400   8.891   1.934  0.0558  0.0423  0.1056
 4227W        W 8291   5.868   4.666   2.775  0.1266  0.4137  0.1306
 4228W        W 8292   6.032   7.517   1.753 -0.1690  0.0291 -0.0876
 4229W        W 8293   3.965   3.311   9.425  0.1315  0.0675  0.0899
 4230W        W 8294   2.219   0.144   0.288  0.1411  0.1370 -0.0105
 4231W        W 8295   1.880   3.280  10.607 -0.2339  0.1855  0.1337
 4232W        W 8296   9.087   6.661  11.191 -0.2907  0.1789 -0.1463
 4233W        W 8297   7.714   8.248   2.682  0.2616 -0.1370 -0.0863
 4234W        W 8298   2.056   2.562   1.543 -0.0330  0.0443  0.5916
 4235W        W 8299   7.818   0.961   0.076 -0.1963  0.2701  0.0939
 4236W        W 8300  10.390   2.739   8.592 -0.1658 -0.1365  0.0245
 4237W        W 8301   1.236   6.052   3.583 -0.0192 -0.0517 -0.1986
 4238W        W 8302   3.714   3.499   2.470  0.2266 -0.1058 -0.2505
 4239W        W 8303   2.398   4.454  11.381 -0.0373  0.3467 -0.2669
 4240W        W 8304   5.164   2.402  10.926 -0.3417 -0.0154  0.2209
 4241W        W 8305   6.173  10.313   1.291  0.2139  0.2346 -0.3193
 4242W        W 8306   2.661   6.190   1.714  0.1197  0.0658  0.1218
 4243W        W 8307   0.762   9.643   0.012  0.3128  0.1488  0.3204
 4244W        W 8308   8.565   5.669   0.895  0.0760 -0.2461  0.1467
 4245W        W 8309   9.427   5.217   2.265  0.2814 -0.3396  0.2082
 4246W        W 8310  10.360   4.767   7.485  0.3015  0.0493  0.1934
 4247W        W 8311   9.434   7.085  10.647 -0.0468  0.1541  0.0633
 4248W        W 8312   2.321   6.909   2.912 -0.0103 -0.2747  0.2124
 4249W        W 8313   3.217   5.685   1.081 -0.0674 -0.4448 -0.2789
 4250W        W 8314   2.760   5.253   0.998  0.0213 -0.3420 -0.3758
 4251W        W 8315   1.444   2.850   9.024  0.0140 -0.0239 -0.0511
 4252W        W 8316  10.047   6.507   8.801  0.1598  0.2044 -0.2194
 4253W        W 8317   7.161   6.575   2.995 -0.1877 -0.1319 -0.0227
 4254W        W 8318   8.234   0.259   9.452 -0.0979 -0.2999  0.1956
 4255W        W 8319   9.247  10.286   9.237 -0.4111  0.1498  0.0967
 4256W        W 8320   2.990   2.213   2.254  0.0393 -0.0487 -0.1743
 4257W        W 8321   6.238   7.847  10.707  0.1548 -0.2688  0.1432
 4258W        W 8322   6.101   0.857   0.395  0.0845  0.0564 -0.1893
 4259W        W 8323   5.167   6.650   8.202 -0.1774 -0.1095 -0.1816
 4260W        W 8324  10.546   5.509  10.585 -0.0790  0.1296 -0.3432
 4261W        W 8325   9.847   3.101   7.557  0.0804  0.1040  0.0332
 4262W        W 8326   1.459   7.610   1.390 -0.0140 -0.3257 -0.0462
 4263W        W 8327   2.498   2.082  11.294 -0.1494 -0.0522  0.2085
 4264W        W 8328   3.299   4.067   0.828 -0.2167 -0.2119 -0.1520
 4265W        W 8329   5.004   6.684   7.752 -0.1071  0.1920 -0.1030
 4266W        W 8330   1.821   9.218   7.432 -0.3298  0.0387 -0.2220
 4267W        W 8331   0.784   4.804   4.065  0.0436  0.3810  0.5012
 4268W        W 8332   0.510   7.715   0.995 -0.3631  0.4283 -0.0231
 4269W        W 8333   4.970   5.175   1.325 -0.0791  0.5040 -0.1428
 4270W        W 8334   0.986   3.657   2.927  0.0081  0.2171 -0.0466
 4271W        W 8335   6.164   2.007   3.471 -0.0430 -0.0893 -0.1435
 4272W        W 8336   3.346   4.926   1.661 -0.3189 -0.3071 -0.0147
 4273W        W 8337   8.041   6.663   1.821 -0.0126 -0.2620  0.0840
 4274W        W 8338   3.958   5.195   1.715  0.4779 -0.3085 -0.0287
 4275W        W 8339   9.070   2.268   8.392 -0.0310  0.0629 -0.1403
 4276W        W 8340   5.080   4.206   0.932  0.2693  0.0396  0.3662
 4277W        W 8341   0.879  10.119   3.195  0.0002  0.0255 -0.4295
 4278W        W 8342   3.107   2.474   2.776 -0.1490 -0.0680 -0.1572
 4279W        W 8343   1.278   9.846   2.034 -0.1945 -0.1042 -0.0815
 4280W        W 8344   3.470   8.048   1.177  0.2115 -0.1909  0.1762
 4281W        W 8345   7.957   3.800   8.872 -0.0130 -0.1088 -0.2833
 4282W        W 8346   3.675   2.890   2.118  0.0692  0.2047 -0.0635
 4283W        W 8347   4.831   8.309   2.208  0.2587  0.0874  0.4018
 4284W        W 8348   9.609   9.471   8.892 -0.0991  0.0299  0.2210
 4285W        W 8349   8.278   2.289   0.054  0.1169  0.0316 -0.2746
 4286W        W 8350   2.215   2.469   7.319  0.1221 -0.1211 -0.1785
 4287W        W 8351   1.210  10.409   2.967 -0.0731 -0.1461  0.1173
 4288W        W 8352   2.537   3.570   9.808 -0.1088 -0.1498 -0.1138
 4289W        W 8353   1.105   5.980   0.934  0.0160  0.1450 -0.0605
 4290W        W 8354   0.069   4.724   2.489  0.0549  0.4430  0.0168
 4291W        W 8355   6.839   5.535   0.967  0.1044 -0.0694  0.0929
 4292W        W 8356   6.367   2.233  10.098 -0.0533  0.1215 -0.3534
 4293W        W 8357   0.857   9.239   1.262  0.0960 -0.0981 -0.1106
 4294W        W 8358   2.792   9.787   9.289 -0.2735  0.3440 -0.1935
 4295W        W 8359   3.571   0.665   8.305 -0.1110  0.1831  0.0988
 4296W        W 8360   7.124   1.596   8.044 -0.2185 -0.3925 -0.1465
 4297W        W 8361   7.647   1.963   3.194  0.0966 -0.1396 -0.0321
 4298W        W 8362   4.779   1.340   8.927 -0.0653 -0.0809  0.1500
 4299W        W 8363   0.289   4.572   1.495 -0.0413  0.0982  0.0429
 4300W        W 8364   1.965   5.009   8.393 -0.0068  0.0344  0.0952
 4301W        W 8365   7.323   9.969   0.443 -0.6819  0.1134 -0.2448
 4302W        W 8366   1.324   8.606  10.134  0.3774  0.0878  0.0071
 4303W        W 8367   9.630   9.756   0.221  0.0683 -0.2346  0.1794
 4304W        W 8368   0.326   9.201   4.216 -0.0400  0.0527  0.1061
 4305W        W 8369   5.043   7.134   2.827 -0.0475  0.0591  0.3394
 4306W        W 8370   0.604   5.863   2.216 -0.0096  0.2594 -0.0797
 4307W        W 8371   3.804   3.435   8.835  0.3095  0.1156 -0.2834
 4308W        W 8372   5.960   3.685   1.400 -0.0047 -0.0263  0.2134
 4309W        W 8373  10.342   8.681   9.752  0.1297  0.1756  0.0382
 4310W        W 8374   2.436  10.062   9.012  0.1187 -0.1633  0.0693
 4311W        W 8375   1.262   7.148   3.524  0.0624 -0.1671  0.3730
 4312W        W 8376   6.627   4.060   8.711  0.1454 -0.0861 -0.0647
 4313W        W 8377   3.333   8.857  11.188  0.0832  0.0374  0.0142
 4314W        W 8378   9.020   9.431   9.646  0.1917  0.2935 -0.1946
 4315W        W 8379   9.186   6.370   0.397  0.0590  0.2402 -0.0180
 4316W        W 8380   6.634   7.193  10.008 -0.1661  0.3041 -0.2531
 4317W        W 8381   2.591   9.992   1.438  0.3256  0.1867 -0.0007
 4318W        W 8382   5.939   6.158   9.581  0.3557 -0.0979  0.0845
 4319W        W 8383   5.196   5.759  11.512  0.0841 -0.0159  0.0147
 4320W        W 8384   2.449   7.332   2.604 -0.1040  0.2786  0.0550
 4321W        W 8385   6.604   4.548   8.608  0.2690 -0.1722  0.0538
 4322W        W 8386   3.982   2.103  10.593 -0.2347 -0.2162 -0.1578
 4323W        W 8387   0.508   7.770   1.876 -0.2095 -0.2584  0.0681
 4324W        W 8388   2.662   5.904   8.686  0.2241  0.3255 -0.0086
 4325W        W 8389   0.648   8.659   9.686 -0.0053 -0.2848 -0.3188
 4326W        W 8390   2.548  10.195   9.731 -0.1800 -0.2104 -0.0748
 4327W        W 8391   5.857   2.081  10.104 -0.2670 -0.1073  0.2094
 4328W        W 8392   9.852   2.844   9.587  0.1481  0.2094 -0.3297
 4329W        W 8393   5.004   7.669   8.375  0.1310 -0.0275 -0.1591
 4330W        W 8394   2.003   0.658   0.717  0.1117  0.0432 -0.0013
 4331W        W 8395   4.905   3.420   2.572  0.0622 -0.0074 -0.1909
 4332W        W 8396   5.985   6.601   4.021  0.0545  0.1560 -0.4074
 4333W        W 8397   4.097   3.807   3.002 -0.2763  0.0628 -0.0663
 4334W        W 8398   5.783   5.405   0.640 -0.1941  0.2258 -0.1108
 4335W        W 8399   0.241   9.500   0.498  0.1871 -0.0440 -0.0366
 4336W        W 8400   3.070   3.087   8.280  0.1839  0.1484  0.1195
 4337W        W 8401   3.489   5.837   9.341  0.0477 -0.1002  0.0350
 4338W        W 8402   0.726   3.798   3.352  0.1469 -0.1897  0.1611
 4339W        W 8403   8.941   3.539   3.447 -0.0843  0.3506 -0.0869
 4340W        W 8404   6.490   7.530   1.616 -0.0576  0.2166 -0.1558
 4341W        W 8405   7.839   4.583   3.051 -0.0429  0.2172  0.0607
 4342W        W 8406   9.019   8.675   2.819  0.0292  0.1409  0.1856
 4343W        W 8407   0.612   5.584   2.845 -0.3465 -0.0031  0.0447
 4344W        W 8408   7.199   9.186   8.963 -0.0890 -0.1703 -0.0294
 4345W        W 8409   5.979   0.417   2.536  0.2204 -0.1695 -0.1017
 4346W        W 8410  10.337   9.583  10.748 -0.0854 -0.0265 -0.2906
 4347W        W 8411   0.876   1.487   0.667 -0.1207  0.0219  0.1544
 4348W        W 8412   7.941   7.840  10.480 -0.1448  0.0184  0.0207
 4349W        W 8413   0.714   7.248  11.048  0.1561  0.1899 -0.1181
 4350W        W 8414   1.237   2.383   7.965  0.1962 -0.0926 -0.1353
 4351W        W 8415   3.032   0.736   2.330 -0.1661  0.0199 -0.0193
 4352W        W 8416   5.105   2.176   3.390 -0.0317 -0.2270  0.3218
 4353W        W 8417   0.358  10.607  10.869 -0.1141 -0.0233  0.0571
 4354W        W 8418   2.092   1.375   2.236  0.0354 -0.1225  0.1443
 4355W        W 8419   1.804   5.991   1.480 -0.1424 -0.3374 -0.2217
 4356W        W 8420   1.187   7.686   9.958  0.2564 -0.3481  0.1750
 4357W        W 8421   6.430   2.716   8.716 -0.4151  0.1018  0.0828
 4358W        W 8422   1.740   4.605  10.520  0.1441 -0.1570 -0.2530
 4359W        W 8423   6.199   1.723   8.445  0.1356  0.0409  0.0980
 4360W        W 8424   7.588   6.126   2.068 -0.0916  0.3653  0.4282
 4361W        W 8425   9.607   4.805   1.243  0.0587  0.3187  0.0355
 4362W        W 8426   5.261   5.308   7.732 -0.2422 -0.0606 -0.0736
 4363W        W 8427   5.541   7.303   1.871  0.0624  0.2180 -0.2278
 4364W        W 8428   0.046   3.332   3.456  0.0610 -0.0395  0.0766
 4365W        W 8429   1.529   7.680   0.795 -0.0837 -0.3410  0.1837
 4366W        W 8430   2.095   5.817   3.258  0.3101  0.0251 -0.0646
 4367W        W 8431   9.542   3.383   2.447  0.0079  0.3145 -0.4660
 4368W        W 8432   0.098   9.445   2.645 -0.1776 -0.1558  0.1957
 4369W        W 8433   4.949   4.915  10.722 -0.0935  0.0776 -0.0828
 4370W        W 8434  10.247   9.202   3.520  0.0235 -0.0722  0.1987
 4371W        W 8435   3.133   0.052   9.388 -0.1228 -0.1997 -0.1375
 4372W        W 8436   3.291   7.243   4.137 -0.2041  0.0884 -0.0479
 4373W        W 8437   1.679   0.978  10.246  0.1343 -0.0688  0.1164
 4374W        W 8438   9.706   2.518   3.563  0.0638  0.1621 -0.3000
 4375W        W 8439   8.693   7.101   0.720  0.3007 -0.3447  0.0921
 4376W        W 8440   3.499   1.283   7.721  0.0343  0.3548  0.2119
 4377W        W 8441   7.079   5.195  10.749  0.4174 -0.0152  0.1368
 4378W        W 8442   9.893   4.854   3.771  0.2039 -0.1278  0.0789
 4379W        W 8443   5.699   0.642  10.903 -0.0577 -0.0330 -0.2197
 4380W        W 8444   5.724   4.896   8.281  0.2721  0.0566  0.4106
 4381W        W 8445   8.153   8.282   9.511 -0.1007  0.1085  0.1518
 4382W        W 8446   4.380   6.339   9.680 -0.1138  0.0807 -0.0028
 4383W        W 8447   4.628   9.291   0.092 -0.1165 -0.0188 -0.0359
 4384W        W 8448   5.205   5.990   8.888  0.1461 -0.1335 -0.0580
 4385W        W 8449   5.449   7.372   3.131  0.3579  0.1424  0.1180
 4386W        W 8450   9.103   6.572  10.679 -0.1026  0.0813  0.0058
 4387W        W 8451   8.382   6.813  10.063  0.1336 -0.1661 -0.0283
 4388W        W 8452   5.295   0.634  10.053  0.1762 -0.3892 -0.1195
 4389W        W 8453   1.347   4.225   2.192  0.0392 -0.1007 -0.3486
 4390W        W 8454   7.327   2.306   2.297  0.3041  0.0275 -0.0812
 4391W        W 8455   8.187   7.704   1.976  0.1859 -0.0961 -0.0676
 4392W        W 8456  10.347   0.771  11.311  0.1232 -0.0103 -0.2127
 4393W        W 8457   6.192   3.658   8.591  0.1935  0.1332  0.1952
 4394W        W 8458   8.392   1.801   3.898 -0.2808  0.2109  0.0998
 4395W        W 8459   2.693   2.769   8.026  0.0534  0.1457  0.1301
 4396W        W 8460   9.040   9.203  11.008  0.3332  0.1552  0.2497
 4397W        W 8461   5.528   8.679   9.066  0.1781 -0.0364 -0.4447
 4398W        W 8462   1.113   7.313   2.461 -0.2224 -0.2642  0.1333
 4399W        W 8463   8.906   0.454  10.461  0.0616 -0.1242  0.1174
 4400W        W 8464   5.954   5.732   2.671 -0.0119  0.2904 -0.0910
 4401W        W 8465   4.953   4.567   9.911  0.1080 -0.1646  0.1385
 4402W        W 8466   5.651   7.268   1.391 -0.2436  0.1813  0.2064
 4403W        W 8467   5.554   3.985   2.202 -0.3183  0.0882 -0.0234
 4404W        W 8468   0.002   1.973   8.931 -0.0551 -0.0314  0.1759
 4405W        W 8469   8.154   3.947   1.979  0.2064 -0.1421 -0.5634
 4406W        W 8470   8.084   2.407   2.549 -0.1316 -0.0411 -0.3793
 4407W        W 8471   9.506   8.085   2.311  0.1540  0.2208 -0.2111
 4408W        W 8472   6.188   9.678  11.421  0.0239 -0.0255 -0.0812
 4409W        W 8473   5.356   4.286   9.884 -0.1622 -0.4333  0.2096
 4410W        W 8474   1.462   2.400  10.420 -0.2562  0.0185 -0.0997
 4411W        W 8475   5.895   2.674   2.677  0.2237 -0.0448 -0.1640
 4412W        W 8476   6.399   0.882   2.831 -0.0269 -0.1065 -0.1652
 4413W        W 8477   7.849   3.207   3.569  0.1234 -0.2177  0.1951
 4414W        W 8478   6.114   4.669  11.143  0.1448  0.0102  0.0827
 4415W        W 8479   8.138   6.334  10.934  0.2525 -0.3572  0.1683
 4416W        W 8480   7.903   7.407  11.004  0.0032  0.1706  0.1132
 4417W        W 8481   1.388   3.511   9.959  0.0621  0.0445 -0.3259
 4418W        W 8482   2.328   5.572   1.018 -0.3917 -0.1733  0.0848
 4419W        W 8483   8.618   5.435   2.094  0.0415 -0.3780  0.0461
 4420W        W 8484   2.011   4.634   9.173 -0.2524 -0.3058  0.1753
 4421W        W 8485   8.311   5.452   1.705 -0.1615 -0.0857 -0.0277
 4422W        W 8486   9.524   5.774   1.144 -0.0467 -0.0791  0.1832
 4423W        W 8487   2.024   7.269   0.656 -0.2012  0.2542  0.0819
 4424W        W 8488  10.074   5.298   2.937 -0.1656 -0.0504 -0.1330
 4425W        W 8489   1.769   4.112   8.553 -0.3587 -0.2685  0.0506
 4426W        W 8490   4.891   7.866   3.093  0.0978  0.3434 -0.1410
 4427W        W 8491   0.281   0.470  10.531  0.1060 -0.1601 -0.0101
 4428W        W 8492  10.292   0.020   1.770 -0.2005 -0.0718 -0.1200
 4429W        W 8493   4.927   4.794   8.438  0.0090 -0.0591  0.2472
 4430W        W 8494   3.771   7.069   3.715  0.2266  0.0471 -0.2301
 4431W        W 8495   7.569   5.655   1.456  0.2046  0.3192  0.0963
 4432W        W 8496   6.192   1.125   8.562  0.0586 -0.2312 -0.0837
 4433W        W 8497   9.311   4.271  11.220 -0.0683  0.1403  0.0450
 4434W        W 8498   6.330   0.697  11.057 -0.0241 -0.1560 -0.1091
 4435W        W 8499   7.020   6.504  11.292  0.0207 -0.0864  0.1438
 4436W        W 8500   0.022   4.978   8.104  0.1012  0.2322 -0.1332
 4437W        W 8501   9.964   8.537   0.608  0.1481 -0.2710  0.0584
 4438W        W 8502   1.292   1.796   9.100 -0.1496  0.2483 -0.0511
 4439W        W 8503   3.862   1.599   7.889  0.1470 -0.0390  0.1579
 4440W        W 8504   8.919   7.452   9.694 -0.1966  0.0378 -0.1247
 4441W        W 8505   3.373   2.398   7.667 -0.0155 -0.0259  0.0384
 4442W        W 8506   4.712   8.337  10.092  0.2723  0.0552 -0.2143
 4443W        W 8507   5.468   3.244   8.453  0.1954 -0.0057  0.1171
 4444W        W 8508   0.067   8.379   9.982 -0.1794 -0.1296 -0.3226
 4445W        W 8509  10.311   6.752   2.746  0.3451 -0.2613  0.2225
 4446W        W 8510   7.690   2.665   2.325 -0.0163  0.1799  0.0930
 4447W        W 8511   6.860   4.146   1.794  0.0731 -0.0209  0.4003
 4448W        W 8512   0.390   8.199   9.597 -0.4367 -0.2313 -0.1965
 4449W        W 8513   2.676   0.060   9.605 -0.0358  0.2278  0.1056
 4450W        W 8514   9.133   7.252   8.280  0.0052 -0.0478  0.0331
 4451W        W 8515   0.612   8.658   2.816 -0.5065  0.3393 -0.1328
 4452W        W 8516   0.721   8.559   0.410 -0.0712 -0.0719 -0.1732
 4453W        W 8517   9.176   3.206   1.195 -0.0003  0.1365 -0.0089
 4454W        W 8518   1.665   1.556   8.236  0.2204  0.1624  0.2099
 4455W        W 8519  10.627   8.775   1.562 -0.1028 -0.5747  0.0784
 4456W        W 8520   4.644   9.424   4.094 -0.0287 -0.0548 -0.3340
 4457W        W 8521   3.954   1.767   2.444  0.1104 -0.1288  0.2166
 4458W        W 8522   4.621   8.898   8.120  0.2331  0.0240  0.0705
 4459W        W 8523   2.624   7.638  11.097 -0.0071  0.3759 -0.2880
 4460W        W 8524   7.289   7.066   0.407  0.1195 -0.0132 -0.0675
 4461W        W 8525   2.190   0.675   0.213 -0.2498 -0.0956 -0.0463
 4462W        W 8526   9.164   4.158   8.884  0.0547 -0.0175  0.1589
 4463W        W 8527   6.322   6.604   7.777  0.0575  0.0605 -0.0565
 4464W        W 8528   1.759   2.229   7.177 -0.1458  0.0475 -0.0404
 4465W        W 8529   1.495   4.715   0.570 -0.3236  0.2908 -0.1480
 4466W        W 8530   4.804   2.184  11.136 -0.0981 -0.3361 -0.0032
 4467W        W 8531   7.676   2.687   1.414  0.2490  0.0413  0.3009
 4468W        W 8532   6.264   3.464   1.093 -0.1247  0.2413  0.0463
 4469W        W 8533   8.906  10.595  11.260  0.1529  0.1134 -0.1386
 4470W        W 8534   9.892   6.642   1.320  0.4852  0.0458 -0.1444
 4471W        W 8535   3.292   7.749   3.820 -0.1976  0.2134  0.2013
 4472W        W 8536   0.189   4.152  11.255 -0.1702 -0.0068 -0.0778
 4473W        W 8537   9.702   6.181   3.240  0.0002  0.1222 -0.0301
 4474W        W 8538   7.891   1.416   9.234 -0.1716  0.2465  0.3462
 4475W        W 8539   0.673   2.680   1.035 -0.2605  0.0567  0.0102
 4476W        W 8540   3.508   2.551  11.175  0.3683  0.1549  0.2287
 4477W        W 8541   8.368   8.670  10.693  0.1687 -0.1452  0.2287
 4478W        W 8542   5.243   5.594   8.492  0.1031  0.0081 -0.0728
 4479W        W 8543   8.245   4.939   0.244  0.1467 -0.1951  0.3219
 4480W        W 8544   8.602   5.606   2.560  0.3754 -0.0653 -0.0114
 4481W        W 8545   2.658   0.431  10.508  0.1199 -0.1211  0.0252
 4482W        W 8546   0.906   7.111   7.947 -0.0749 -0.0612 -0.2148
 4483W        W 8547   3.222   1.482   1.522 -0.1158  0.1602 -0.2000
 4484W        W 8548   4.266   5.883   9.993  0.2664 -0.0259  0.0845
 4485W        W 8549   5.406   1.692   8.822 -0.1528  0.2409 -0.0681
 4486W        W 8550   7.375   4.154   9.578 -0.1927 -0.1889 -0.0113
 4487W        W 8551   4.793   0.136  10.857 -0.1929  0.2078  0.0173
 4488W        W 8552   1.423   3.736   7.983 -0.0926  0.3077  0.1525
 4489W        W 8553   1.178   2.058  10.845  0.2559  0.1096 -0.0174
 4490W        W 8554   6.793   4.723  10.722 -0.2049  0.3838 -0.1398
 4491W        W 8555   2.559   3.704   3.268 -0.1334 -0.1095  0.4046
 4492W        W 8556   1.596  10.651  11.172  0.2496  0.0146  0.0030
 4493W        W 8557   5.111   8.612   8.737  0.0146 -0.0428 -0.0215
 4494W        W 8558  10.563   7.887   9.945 -0.0546 -0.1403 -0.1722
 4495W        W 8559   5.187   5.376  10.495 -0.1422  0.0898 -0.1261
 4496W        W 8560   0.128   5.612   1.375  0.0042 -0.0634 -0.0965
 4497W        W 8561   1.503   8.670   8.450 -0.4541 -0.0353  0.3645
 4498W        W 8562   4.677   9.330   9.480  0.2318  0.1073  0.1541
 4499W        W 8563   8.376   6.149   7.892  0.1284 -0.1099  0.0301
 4500W        W 8564   2.152   2.858   3.093 -0.2457 -0.1725 -0.0471
 4501W        W 8565   3.392   9.789   3.968 -0.0294 -0.1817 -0.1398
 4502W        W 8566   7.972   3.296   0.866  0.2674 -0.0447  0.0978
 4503W        W 8567   6.550  10.384   0.917 -0.0093  0.3096 -0.1457
 4504W        W 8568   1.758   6.582   8.191 -0.0402  0.1616 -0.1422
 4505W        W 8569   4.716   8.792   9.859 -0.1848  0.4097  0.0158
 4506W        W 8570   8.662   8.188   9.364 -0.3233  0.1335 -0.0308
 4507W        W 8571   7.822   1.531   0.629 -0.0818  0.3766  0.2792
 4508W        W 8572   2.183   0.769  11.252  0.0535  0.0499 -0.0202
 4509W        W 8573   3.467   0.343  11.295 -0.0497  0.0375 -0.1792
 4510W        W 8574   6.226   4.280   0.096  0.0132 -0.3756  0.3819
 4511W        W 8575   1.252   5.114   9.138 -0.1476 -0.0862 -0.0895
 4512W        W 8576   6.487   9.570   9.147  0.0799  0.2340  0.0130
 4513W        W 8577   1.036   6.141   2.348 -0.2348 -0.0018  0.0914
 4514W        W 8578   7.846   3.295   3.094  0.1796  0.2369  0.1173
 4515W        W 8579   6.836   2.875  10.054  0.0211 -0.1392  0.1522
 4516W        W 8580   8.791   8.186  11.359 -0.0173  0.0347  0.0178
 4517W        W 8581   0.349   2.164   1.016  0.1816 -0.1863  0.0956
 4518W        W 8582   6.951   4.302   0.388  0.0098  0.0099 -0.1645
 4519W        W 8583   8.188  10.385   9.206  0.0977 -0.1321 -0.2637
 4520W        W 8584   1.741   2.402  10.029 -0.0347  0.1673  0.0301
 4521W        W 8585   3.932   9.717  11.034  0.0475 -0.1743  0.3708
 4522W        W 8586   1.992   5.635  11.179 -0.0365  0.0809  0.1434
 4523W        W 8587   7.593   2.530   0.168 -0.0328 -0.1652  0.2847
 4524W        W 8588   3.041   3.638   7.624 -0.0687  0.0116  0.0546
 4525W        W 8589   3.394  10.286   1.205 -0.2110  0.1413  0.0172
 4526W        W 8590   0.688   1.146   8.769 -0.1800  0.1121 -0.0963
 4527W        W 8591   1.263   8.226   0.854 -0.2699  0.0590  0.2149
 4528W        W 8592   4.645   5.755  10.315  0.4096  0.0555  0.0632
 4529W        W 8593   8.090   8.284   0.568  0.0540  0.0243 -0.1239
 4530W        W 8594   9.753   2.344   4.272 -0.2092  0.1405 -0.1592
 4531W        W 8595   5.062   3.484   0.977  0.3637  0.2504  0.1311
 4532W        W 8596   9.443   8.458  11.138 -0.4172 -0.4655  0.0188
 4533W        W 8597   2.597   6.468  10.917 -0.0025  0.1634 -0.0611
 4534W        W 8598   1.452   3.223   7.771  0.1091 -0.0911 -0.2661
 4535W        W 8599   4.303   0.458   3.652  0.1119  0.0692  0.1928
 4536W        W 8600  10.293   2.700   7.577 -0.2006  0.3300 -0.0717
 4537W        W 8601   5.832   6.489  10.442 -0.0597 -0.0621 -0.1648
 4538W        W 8602   6.978   1.492  10.573  0.2545  0.0572  0.2130
 4539W        W 8603  10.036   9.656   8.888 -0.0500  0.3012 -0.1835
 4540W        W 8604   1.021   7.967   0.503  0.0490  0.0166 -0.1997
 4541W        W 8605   9.541   6.180   2.448  0.0879 -0.2475 -0.0333
 4542W        W 8606   2.285  10.668   9.930 -0.2624  0.0619  0.1883
 4543W        W 8607   7.800   1.102   8.489  0.0371  0.1998 -0.1162
 4544W        W 8608   0.361   4.063   1.038 -0.0444  0.0545 -0.1187
 4545W        W 8609   4.289   7.817   2.623  0.1392 -0.1329  0.2560
 4546W        W 8610   1.846   4.917   7.918 -0.2396  0.3618 -0.1524
 4547W        W 8611   6.627   8.251   9.808  0.1883 -0.1472  0.2668
 4548W        W 8612   2.983   1.330  10.104 -0.2438 -0.0562 -0.3893
 4549W        W 8613   2.976   7.604   8.148  0.0044  0.0793 -0.4889
 4550W        W 8614  10.014   1.932   1.745  0.1964 -0.1479 -0.5694
 4551W        W 8615   8.085  10.145  11.448 -0.1447  0.0727 -0.0045
 4552W        W 8616   4.194   9.437   1.862 -0.0134  0.2485 -0.1068
 4553W        W 8617  10.499   2.693   1.521 -0.2188  0.2757  0.2461
 4554W        W 8618   9.309   2.234   3.466 -0.2953  0.1320  0.2861
 4555W        W 8619   0.127   3.979   8.319 -0.0006 -0.0716 -0.0992
 4556W        W 8620   4.114   1.992   1.192  0.2307  0.0255  0.1654
 4557W        W 8621   3.069   7.924   0.375  0.0965 -0.0099  0.0504
 4558W        W 8622   1.410   3.397   1.787  0.1272 -0.1084 -0.1400
 4559W        W 8623   8.069   0.815   9.302  0.0147  0.0528 -0.3516
 4560W        W 8624  10.502   3.612   1.724 -0.0485  0.1485 -0.1586
 4561W        W 8625   1.901   8.599   2.216  0.2903  0.1572  0.0265
 4562W        W 8626  10.252   7.264   2.874  0.0116  0.1463  0.1987
 4563W        W 8627   2.549   8.192   0.169  0.1878  0.0301 -0.2196
 4564W        W 8628   4.460   2.407  10.656  0.0630 -0.1240 -0.1288
 4565W        W 8629   9.211   2.597  11.358 -0.0098  0.2456  0.0493
 4566W        W 8630   8.648   3.170   2.096  0.3780 -0.4310  0.0129
 4567W        W 8631   7.112   2.541   1.671 -0.1959  0.2820  0.1100
 4568W        W 8632   7.094   3.242   2.503  0.1046  0.2593 -0.0563
 4569W        W 8633  10.014   3.728   1.714  0.1941  0.1584  0.0956
 4570W        W 8634   3.226   7.426   2.200 -0.1858 -0.2770  0.2655
 4571W        W 8635   7.028   9.826   3.045  0.2765  0.4074  0.1653
 4572W        W 8636   8.083   6.725   3.092 -0.2407  0.0023 -0.0847
 4573W        W 8637   5.326   3.128   0.842  0.1209  0.1575  0.3085
 4574W        W 8638   0.265   6.396   9.454  0.0618 -0.0069 -0.1834
 4575W        W 8639   0.840   9.905   8.095  0.1099  0.0257  0.0651
 4576W        W 8640   5.526   5.210   1.960  0.2770 -0.0178 -0.0688
 4577W        W 8641  10.329   1.234   3.695 -0.2915  0.1331 -0.0741
 4578W        W 8642   4.670   6.068   8.988 -0.2773 -0.1331  0.0747
 4579W        W 8643   8.646   9.068   3.405  0.1303  0.0558  0.0195
 4580W        W 8644   2.235  10.317   2.901 -0.0175 -0.0356  0.0078
 4581W        W 8645   6.091   5.092  11.418 -0.1552 -0.1875 -0.0349
 4582W        W 8646   2.121   5.340   7.660 -0.0574 -0.1089 -0.0103
 4583W        W 8647   0.333   1.442   0.424 -0.0844  0.3278 -0.0568
 4584W        W 8648   7.747   1.808  11.093 -0.3333  0.1203 -0.1540
 4585W        W 8649   5.883   7.245   8.861  0.0089  0.2545  0.0424
 4586W        W 8650   7.774   7.985   9.626  0.1157 -0.0451  0.0098
 4587W        W 8651  10.530   8.735  10.364 -0.0183 -0.1256  0.0953
 4588W        W 8652   4.160   7.122   0.280 -0.0655  0.0892 -0.2314
 4589W        W 8653   8.872   1.626   1.170 -0.2074  0.2568 -0.1904
 4590W        W 8654   2.846   4.255  10.352 -0.1189  0.0939  0.2759
 4591W        W 8655   8.557   4.953   8.808 -0.1733  0.0197  0.2061
 4592W        W 8656   1.280   1.771   1.062  0.1540  0.0014  0.0204
 4593W        W 8657   1.290   5.484   3.584  0.2319  0.0403 -0.0847
 4594W        W 8658   9.362   1.767   3.122  0.1979 -0.3783  0.0800
 4595W        W 8659   3.993   9.297   4.222  0.0554 -0.1587  0.2045
 4596W        W 8660   9.756   1.100   1.017  0.2418  0.2064  0.2582
 4597W        W 8661   4.230   3.075   9.083 -0.5322  0.0250 -0.0677
 4598W        W 8662   4.841   9.224  11.155 -0.4201 -0.0174 -0.0112
 4599W        W 8663   1.934   5.927   0.981 -0.0241 -0.4379  0.4319
 4600W        W 8664   3.098   8.162   1.960  0.0098 -0.0317  0.0671
 4601W        W 8665   0.403   5.156   3.624 -0.1550  0.1288 -0.2688
 4602W        W 8666   4.734   2.562   3.481 -0.0405 -0.2109  0.0308
 4603W        W 8667   2.353   8.873   9.624 -0.2450  0.1401  0.1659
 4604W        W 8668   1.621   7.564   9.839 -0.3072  0.0863  0.0041
 4605W        W 8669   0.977   7.533   8.274  0.0120  0.2292 -0.0293
 4606W        W 8670   5.859   9.989   0.558 -0.1319 -0.1081 -0.0816
 4607W        W 8671   3.685   8.055   4.106 -0.0024  0.1422 -0.1293
 4608W        W 8672  10.037   2.944   2.807  0.0132  0.0666 -0.0714
 4609W        W 8673   0.333   1.371   2.655 -0.0163 -0.1357 -0.0016
 4610W        W 8674   6.352   0.427   8.147  0.1078  0.1902  0.1527
 4611W        W 8675   2.344   7.501   3.415 -0.0712 -0.1701 -0.1199
 4612W        W 8676   9.173   8.893   8.905 -0.0435 -0.1535 -0.0266
 4613W        W 8677   0.835   2.829   8.514 -0.1957  0.0104  0.1382
 4614W        W 8678   4.438   0.848   0.472  0.1720 -0.2291  0.0919
 4615W        W 8679   9.466   6.666   3.310 -0.0539  0.0376 -0.1674
 4616W        W 8680   8.713   1.716   2.279 -0.0546  0.0095 -0.0154
 4617W        W 8681   3.170   3.960   9.087  0.3810 -0.0007  0.0261
 4618W        W 8682  10.355   2.318   1.022  0.0207  0.1546 -0.2244
 4619W        W 8683   9.492   8.392   0.351  0.0248  0.1869 -0.0082
 4620W        W 8684   7.077   5.056   8.016  0.1221  0.1994 -0.2156
 4621W        W 8685   8.894   1.956   3.225  0.2276 -0.0834 -0.3024
 4622W        W 8686   5.063   0.558   9.539 -0.0905  0.2465  0.0406
 4623W        W 8687   3.243   5.300   1.368  0.0723  0.1497  0.2030
 4624W        W 8688   9.493   6.295  11.466  0.4493  0.3796 -0.1375
 4625W        W 8689   6.265  10.341   2.090  0.0574  0.4392 -0.3352
 4626W        W 8690   0.381   5.472  10.880 -0.1020 -0.1067  0.0401
 4627W        W 8691   3.216   9.953   0.912 -0.0845  0.0303 -0.1563
 4628W        W 8692   5.905   4.095  10.985 -0.0752  0.1868 -0.0501
 4629W        W 8693   9.695   7.090  11.139 -0.3864  0.0102  0.6262
 4630W        W 8694   7.043   2.547  11.180 -0.2296  0.1330 -0.2719
 4631W        W 8695   9.970   9.139   8.157 -0.3301 -0.3663 -0.2939
 4632W        W 8696   8.092   7.538   1.008  0.3200 -0.0165 -0.1843
 4633W        W 8697   1.470   0.544   0.735  0.2810 -0.3320 -0.2390
 4634W        W 8698   7.361   2.471   7.861 -0.4682  0.1014  0.0009
 4635W        W 8699   6.797   8.586   2.935  0.0269 -0.1749  0.1343
 4636W        W 8700  10.136   2.141   2.640  0.0716  0.2548  0.0164
 4637W        W 8701   7.704   7.114   8.200  0.1856  0.1851 -0.2752
 4638W        W 8702   8.017   3.835   3.068  0.1192  0.1161 -0.0171
 4639W        W 8703   6.849   7.289   8.424 -0.1196  0.1500  0.0934
 4640W        W 8704  10.006  10.594   0.044 -0.0228 -0.0112  0.1877
 4641W        W 8705   6.633   7.274   2.626 -0.4621  0.1029 -0.1063
 4642W        W 8706   4.941   1.048   9.335 -0.1730 -0.0154 -0.2385
 4643W        W 8707   9.291   5.904   0.218 -0.0157 -0.2494 -0.1290
 4644W        W 8708   0.800   4.914   3.565  0.1314  0.0400  0.0613
 4645W        W 8709   8.189  10.110   1.132 -0.0643  0.0581 -0.0738
 4646W        W 8710   6.224   1.236   9.037  0.4066  0.2900 -0.1364
 4647W        W 8711   8.329   3.118   3.272 -0.0083  0.2920  0.0093
 4648W        W 8712   5.136   1.482   9.901  0.4738 -0.1409 -0.2549
 4649W        W 8713   6.944  10.260   3.310  0.0684  0.0488  0.3057
 4650W        W 8714   5.751   0.667   1.706 -0.1721  0.2341  0.0987
 4651W        W 8715   1.807   8.149   9.003 -0.0431  0.0839 -0.3238
 4652W        W 8716   7.439   6.525   0.193  0.1342  0.2167 -0.3015
 4653W        W 8717   9.857   1.740   0.392  0.1572 -0.2395 -0.3060
 4654W        W 8718   5.236   0.093   2.939 -0.0434  0.0423 -0.1433
 4655W        W 8719  10.108   0.576   0.309  0.0440 -0.2239 -0.1109
 4656W        W 8720   9.331   3.340  10.271 -0.2925  0.1559 -0.1744
 4657W        W 8721   7.117   1.840  10.940 -0.4346  0.0853 -0.0670
 4658W        W 8722   3.003   7.046   2.406 -0.1118 -0.3123  0.3372
 4659W        W 8723   1.805   3.823   9.402  0.1103  0.2790  0.0091
 4660W        W 8724   2.695   2.228   2.679  0.2104  0.2183  0.0842
 4661W        W 8725   5.133   7.335   1.583 -0.1358  0.3094 -0.1356
 4662W        W 8726   8.551  10.127   1.517  0.2520 -0.1151  0.0104
 4663W        W 8727   4.617   9.593   9.975 -0.0249 -0.0229 -0.1125
 4664W        W 8728   1.230   5.105  11.285 -0.1706  0.2823 -0.0656
 4665W        W 8729   9.984   2.694   8.962 -0.0412 -0.1409  0.0266
 4666W        W 8730   2.305   6.014   0.648  0.0005 -0.0973 -0.0360
 4667W        W 8731   6.109  10.373  10.854  0.0474  0.1216 -0.0556
 4668W        W 8732   3.293   1.569  11.536 -0.4557 -0.1352 -0.0801
 4669W        W 8733   3.419   8.921   0.596  0.0563 -0.4065  0.1975
 4670W        W 8734   3.884   1.293  11.379  0.0980  0.0367 -0.1458
 4671W        W 8735  10.208   2.116   7.643 -0.2315  0.1470 -0.0740
 4672W        W 8736   2.222   5.638   8.960 -0.0103  0.0577  0.2991
 4673W        W 8737   6.355   0.582   1.785  0.0602  0.3275  0.1707
 4674W        W 8738   4.792   0.056   4.474  0.2024  0.1312 -0.2728
 4675W        W 8739   5.741   0.788   9.905 -0.0772  0.1256  0.3535
 4676W        W 8740   2.600   9.479  11.427 -0.1329  0.3365  0.0879
 4677W        W 8741   7.360   7.953   8.307  0.1148  0.0835 -0.3371
 4678W        W 8742   9.970  10.500   1.392 -0.2789 -0.0656 -0.2496
 4679W        W 8743   7.023   9.201   1.978  0.1682  0.0411  0.0741
 4680W        W 8744   1.915  10.381   3.650  0.1097 -0.1307 -0.4132
 4681W        W 8745   0.681   2.666   0.261  0.0469  0.1079 -0.3739
 4682W        W 8746   1.541   0.185   1.161 -0.4811 -0.3820 -0.0499
 4683W        W 8747   0.984   5.506   7.828  0.1990 -0.3915  0.0996
 4684W        W 8748   9.851   8.335   2.088  0.0110 -0.2618  0.0625
 4685W        W 8749   2.397   9.878  10.240  0.0090  0.3112  0.1345
 4686W        W 8750   4.581   2.718  10.295 -0.2282 -0.2448 -0.0345
 4687W        W 8751   6.334   2.201   9.523 -0.1858  0.0894 -0.2038
 4688W        W 8752   1.878   2.966   3.478 -0.1083 -0.0563  0.1429
 4689W        W 8753   7.209   0.274   1.887  0.1018 -0.1122  0.0118
 4690W        W 8754   7.195  10.591   3.008 -0.0044  0.1654 -0.2698
 4691W        W 8755   1.561   3.363   3.250  0.0300  0.0598 -0.0841
 4692W        W 8756  10.377   2.760   0.687 -0.0170 -0.0797  0.1398
 4693W        W 8757   8.373   5.117   2.593 -0.0519  0.0443  0.0755
 4694W        W 8758   5.531   4.318   7.775  0.1888 -0.1339 -0.0619
 4695W        W 8759   3.573   9.648  11.361  0.0425  0.0711  0.3785
 4696W        W 8760   8.048   2.582   1.773 -0.0412  0.0975  0.1262
 4697W        W 8761   0.896   7.305   2.920  0.0912  0.1816  0.1916
 4698W        W 8762   7.393   1.608   3.044  0.2085 -0.0522  0.0854
 4699W        W 8763   2.592   8.322   8.713  0.1028 -0.1929  0.2095
 4700W        W 8764   2.027   1.236   9.426  0.0624 -0.0996 -0.1052
 4701W        W 8765   6.804   3.586   7.906  0.0404  0.1369  0.5702
 4702W        W 8766   6.526   3.819   8.246  0.2189 -0.1556 -0.0485
 4703W        W 8767   2.201   0.021  10.564  0.0475  0.1715  0.4406
 4704W        W 8768  10.256   1.443   0.531  0.2358 -0.0296 -0.0772
 4705W        W 8769   6.814   2.853   0.350  0.1577 -0.3156 -0.2836
 4706W        W 8770   4.522   4.114   0.466 -0.1642 -0.0905 -0.2290
 4707W        W 8771   4.827   5.639   1.642 -0.1382 -0.1048 -0.1510
 4708W        W 8772   2.773  10.000   0.055 -0.4919  0.0648 -0.2106
 4709W        W 8773   4.001   3.561  10.101 -0.1679  0.2087 -0.1505
 4710W        W 8774   2.958  10.244   1.585 -0.2737 -0.3027 -0.1178
 4711W        W 8775   3.094   5.543   0.607  0.2342 -0.1437  0.0576
 4712W        W 8776   7.179   6.910   1.508 -0.0496 -0.0077 -0.1117
 4713W        W 8777   1.082   2.980   2.826  0.2231  0.0179 -0.0198
 4714W        W 8778   3.489   9.833  10.363  0.1641  0.0346 -0.0137
 4715W        W 8779   1.749   7.554   7.992  0.0035  0.1651  0.0997
 4716W        W 8780   2.618   2.739   3.979  0.0660 -0.0074 -0.2552
 4717W        W 8781   0.863   6.862   7.215 -0.1211  0.2229  0.1170
 4718W        W 8782   0.772   6.162  10.736 -0.2654 -0.2036 -0.0548
 4719W        W 8783   7.979   0.448  10.313  0.1557  0.1544  0.0557
 4720W        W 8784   0.841   2.305   2.781  0.1164  0.1978 -0.2818
 4721W        W 8785   4.054   6.624   3.219 -0.2700 -0.1257 -0.0498
 4722W        W 8786   8.618   4.095   1.960  0.2159 -0.2291 -0.0702
 4723W        W 8787   6.848  10.017  11.017  0.0070 -0.0760  0.3384
 4724W        W 8788   0.262   9.363  11.529  0.1372 -0.1701  0.0605
 4725W        W 8789   5.480   2.496   9.159 -0.2905  0.1976  0.5379
 4726W        W 8790   8.400   1.324   2.087  0.1573 -0.2087  0.1718
 4727W        W 8791   7.972   3.978   8.346 -0.0401  0.2871  0.3386
 4728W        W 8792   0.183   4.465   9.572 -0.0758 -0.0862  0.2422
 4729W        W 8793   1.004   3.605   1.999  0.2640 -0.2423  0.0008
 4730W        W 8794   9.865   4.501   3.446 -0.0268  0.0265 -0.0405
 4731W        W 8795   0.238   2.408   1.946 -0.1002 -0.1875 -0.1913
 4732W        W 8796  10.383   9.251  11.514  0.4071 -0.5355 -0.0498
 4733W        W 8797   8.363   0.708   2.122 -0.0374 -0.2896 -0.2244
 4734W        W 8798   0.497   9.832   3.985 -0.2965 -0.1452 -0.1710
 4735W        W 8799   2.568   7.978   3.344  0.0605  0.1829  0.0473
 4736W        W 8800   0.868   4.904   9.302  0.3941 -0.2227 -0.0101
 4737W        W 8801   0.635   4.715   8.897  0.4643 -0.0581  0.2753
 4738W        W 8802   3.370   2.019  10.803  0.2936 -0.0096 -0.2714
 4739W        W 8803   9.335   9.878   8.652  0.0158  0.0911 -0.1343
 4740W        W 8804   5.092   5.081   3.379  0.0283  0.2944  0.4795
 4741W        W 8805   7.321   9.275  10.698 -0.1499 -0.1695  0.1454
 4742W        W 8806   0.662   4.437   9.389 -0.3097 -0.0413 -0.2913
 4743W        W 8807   2.423   8.440   3.200  0.2620  0.0477  0.1684
 4744W        W 8808   9.154   2.414   2.098  0.0631  0.0907 -0.1645
 4745W        W 8809   7.549   8.915  10.994  0.1757  0.0103 -0.0055
 4746W        W 8810   8.018   6.869   9.056  0.0682  0.2112 -0.1558
 4747W        W 8811   0.834   0.171   9.126  0.0825 -0.1047 -0.1755
 4748W        W 8812   6.374   8.403   1.435 -0.0989 -0.1374  0.0307
 4749W        W 8813   5.683   1.274   9.806 -0.0374  0.2960 -0.0749
 4750W        W 8814   6.641   6.296   0.991  0.2715 -0.0581  0.2458
 4751W        W 8815  10.564   6.433   9.049 -0.1624  0.0231  0.2391
 4752W        W 8816   9.790   0.928   4.268  0.1153 -0.3305  0.1851
 4753W        W 8817   9.994   5.735   1.279 -0.1608  0.0783 -0.1749
 4754W        W 8818   7.185   3.310   9.918  0.2230 -0.1917  0.0962
 4755W        W 8819   9.121   7.717   9.226 -0.3907 -0.0983  0.0742
 4756W        W 8820   5.480   6.872   2.937 -0.3221 -0.0967  0.0129
 4757W        W 8821   3.196   9.506   0.619 -0.1885  0.2417 -0.0449
 4758W        W 8822   4.641   6.307   2.393  0.2626 -0.1733  0.1419
 4759W        W 8823  10.135   0.923   0.676 -0.1537  0.3952 -0.4212
 4760W        W 8824   0.943   8.276   9.838  0.0523  0.2266 -0.1559
 4761W        W 8825   1.637   1.437   1.784 -0.0512 -0.2417 -0.0574
 4762W        W 8826   6.273   7.607   2.188 -0.2049  0.2050 -0.1338
 4763W        W 8827   3.259   4.430  10.610 -0.6058  0.1017  0.0647
 4764W        W 8828   2.225   4.383   1.137 -0.2369 -0.2515 -0.1376
 4765W        W 8829   6.041   5.085  10.877  0.3660 -0.0263 -0.0305
 4766W        W 8830   1.537   1.995   0.658 -0.2162  0.1384 -0.1699
 4767W        W 8831   3.368  10.271   9.228  0.1480  0.1527  0.2596
 4768W        W 8832   4.990   6.846   8.982 -0.1164  0.0161 -0.1281
 4769W        W 8833   4.001   4.613  11.172  0.1476  0.3418 -0.1862
 4770W        W 8834  10.195   5.898  10.439 -0.1247 -0.0095 -0.2417
 4771W        W 8835   3.257  10.323   2.032  0.1257  0.1467 -0.2488
 4772W        W 8836  10.169   9.490   0.905  0.1371  0.0738  0.1518
 4773W        W 8837   3.674   5.541   1.459 -0.2574 -0.0074  0.0339
 4774W        W 8838   2.099   4.560  10.071 -0.1307 -0.1018  0.0209
 4775W        W 8839   0.876   3.040  10.988  0.1257 -0.0194 -0.1078
 4776W        W 8840   6.950  10.121   1.821  0.0225 -0.1406  0.0901
 4777W        W 8841   6.026   5.835   0.657  0.2895  0.1185  0.2042
 4778W        W 8842   7.461  10.157   3.235  0.0223  0.1779 -0.2823
 4779W        W 8843   0.635   3.914  11.138  0.2860 -0.2737 -0.0707
 4780W        W 8844   2.227   8.113   2.883 -0.0809  0.2303 -0.2469
 4781W        W 8845   0.948   7.668   0.033  0.1539  0.1807 -0.0760
 4782W        W 8846   1.122   1.195   1.124 -0.1082 -0.1185 -0.0218
 4783W        W 8847   3.079   9.681  10.579  0.3385  0.2949 -0.0335
 4784W        W 8848   0.749   1.530   9.651  0.4087  0.0619 -0.0644
 4785W        W 8849   9.137   3.606   2.768  0.1172 -0.0392 -0.1805
 4786W        W 8850   8.983   9.105   0.098  0.1331  0.4944 -0.0073
 4787W        W 8851   4.600   3.002   8.392  0.0510 -0.0769 -0.4503
 4788W        W 8852   4.768   4.266   8.963 -0.0060 -0.0836  0.3073
 4789W        W 8853   1.561   3.693   1.441  0.1765 -0.2878  0.1266
 4790W        W 8854   1.155   3.860   0.652 -0.0542  0.3117 -0.2700
 4791W        W 8855   2.284   9.599   1.123 -0.2868 -0.3555 -0.0816
 4792W        W 8856   9.004   0.896   8.434 -0.0619  0.0827 -0.1609
 4793W        W 8857   6.056   7.893   2.493  0.4915  0.0466 -0.2032
 4794W        W 8858   0.490   2.270   1.475 -0.1040  0.2751 -0.2311
 4795W        W 8859   4.123   6.791   4.394  0.0896 -0.1017  0.0172
 4796W        W 8860   2.399   1.825   9.556 -0.0031  0.1358 -0.1110
 4797W        W 8861   8.549   3.133   2.581 -0.1999 -0.0330  0.0736
 4798W        W 8862   5.403   6.368   2.790  0.1225 -0.1125  0.2933
 4799W        W 8863   1.769   7.613   0.309  0.4194 -0.0411  0.2158
 4800W        W 8864   9.429   7.103   3.104  0.0286 -0.0294 -0.3493
 4801W        W 8865   8.500   7.780   9.539 -0.1193  0.3776  0.1215
 4802W        W 8866   4.008   0.284   1.599  0.1317 -0.2181 -0.3296
 4803W        W 8867   3.638   9.032  10.695  0.1908  0.1326 -0.0384
 4804W        W 8868   2.546   2.774   7.532  0.3432  0.2425  0.1566
 4805W        W 8869   8.494   1.171   9.263  0.1937  0.2199  0.2166
 4806W        W 8870   7.830   9.482  10.221  0.0551  0.1917  0.3847
 4807W        W 8871   8.508   5.068  10.179 -0.0049 -0.1819  0.1961
 4808W        W 8872   6.578   6.871  11.438 -0.0414 -0.0385  0.3736
 4809W        W 8873   1.117   0.372   8.719  0.1345  0.0303  0.1400
 4810W        W 8874   7.477  10.517   8.285  0.0337  0.3000 -0.0999
 4811W        W 8875   3.418  10.053   3.559 -0.1448  0.0730 -0.1387
 4812W        W 8876   4.146   6.214   0.594  0.3130  0.1405 -0.0567
 4813W        W 8877   8.058   4.852   2.355  0.1370  0.2937  0.2278
 4814W        W 8878   0.600   5.571   9.603  0.0178 -0.3824  0.2713
 4815W        W 8879   2.131   8.369  10.167  0.2619 -0.0265 -0.0483
 4816W        W 8880   2.164  10.077   0.017  0.1607  0.1506 -0.3629
 4817W        W 8881   9.352   5.107   0.825  0.0140  0.0463 -0.0558
 4818W        W 8882   9.097   9.783  10.972 -0.5753  0.2405  0.2222
 4819W        W 8883   7.545   7.194  10.278  0.2033  0.0620  0.0623
 4820W        W 8884   0.244   6.779   3.330  0.0755  0.4509 -0.0354
 4821W        W 8885   2.918   3.335   2.355  0.0475 -0.0817 -0.1524
 4822W        W 8886   0.395   2.367   3.288 -0.0865  0.2892 -0.1392
 4823W        W 8887   1.502   5.693   1.206 -0.1926  0.0063  0.0454
 4824W        W 8888   9.659   5.529   0.109 -0.1624 -0.0594 -0.0794
 4825W        W 8889   0.062   6.414   1.019 -0.1829  0.3212 -0.1995
 4826W        W 8890   5.222  10.239   1.671 -0.0027  0.0626 -0.0172
 4827W        W 8891  10.413   6.041   8.760 -0.0634  0.3393 -0.2089
 4828W        W 8892   3.861   1.273   3.160 -0.1730 -0.1397  0.1402
 4829W        W 8893   5.008   1.299   1.770 -0.1236 -0.2356 -0.1818
 4830W        W 8894  10.544   6.559   0.156 -0.3818 -0.0001 -0.3550
 4831W        W 8895   6.586   9.911   2.129 -0.1372  0.2247 -0.1292
 4832W        W 8896   6.890   1.923   2.354 -0.1197 -0.3591 -0.0078
 4833W        W 8897   3.027   1.610   7.770  0.1525  0.2547  0.0266
 4834W        W 8898   1.130   8.976  10.444 -0.1684  0.1795 -0.3402
 4835W        W 8899   2.449   7.840   9.702  0.2364  0.2133 -0.2692
 4836W        W 8900   3.291   5.246  10.011 -0.0464 -0.2326 -0.0239
 4837W        W 8901   4.347   0.532   9.867 -0.0969  0.0302  0.2407
 4838W        W 8902   3.640   6.244   0.467  0.0836 -0.0422 -0.0876
 4839W        W 8903   7.733   5.552   0.993 -0.0095  0.0213  0.0547
 4840W        W 8904   1.706   6.026  11.038  0.0289 -0.0960  0.2538
 4841W        W 8905   3.682   1.184   1.677 -0.0933  0.0806  0.0502
 4842W        W 8906   2.979   3.474   8.937 -0.1481  0.2705 -0.0986
 4843W        W 8907   7.918   2.057   2.242 -0.1744  0.1384  0.0237
 4844W        W 8908   7.099   5.546   8.452  0.0262  0.1772  0.0033
 4845W        W 8909   3.761   4.876   8.571  0.2395 -0.0107 -0.1152
 4846W        W 8910   3.610   9.668   8.050  0.3928 -0.2395  0.0807
 4847W        W 8911   9.892  10.223   9.949 -0.1418  0.0693  0.0902
 4848W        W 8912   8.452   4.182  10.158 -0.1331 -0.2950  0.0086
 4849W        W 8913   3.826   2.827   9.387  0.0356  0.0248  0.1002
 4850W        W 8914   2.337   3.918   9.491  0.0550 -0.2102 -0.1031
 4851W        W 8915   6.973   6.023   9.790  0.0525  0.1596  0.0240
 4852W        W 8916   2.824   1.039   8.436  0.0021 -0.0916  0.4374
 4853W        W 8917   7.676   2.668  11.150  0.1897  0.0179 -0.1038
 4854W        W 8918   8.729   9.167   1.887 -0.0297 -0.5606  0.1005
 4855W        W 8919   0.765   5.298  11.220  0.0873 -0.0823 -0.1213
 4856W        W 8920   7.416   2.949   3.292  0.2779 -0.3000  0.0032
 4857W        W 8921   4.537   9.576   8.907 -0.3367 -0.2144  0.0316
 4858W        W 8922   9.545   7.594  11.287  0.2574  0.0481  0.0641
 4859W        W 8923   2.319   3.679   8.150 -0.2430 -0.1387  0.4559
 4860W        W 8924   7.133   8.973   1.094  0.3121 -0.0070 -0.3382
 4861W        W 8925   1.710   2.012   0.183 -0.0547  0.0428 -0.0015
 4862W        W 8926   5.204   7.058  10.415  0.1791  0.1572 -0.2349
 4863W        W 8927   1.293   3.317   9.207 -0.2038 -0.2188 -0.0320
 4864W        W 8928   2.197   7.976   8.699  0.1944  0.1090  0.0406
 4865W        W 8929   0.947   2.660   1.470  0.1212  0.2443 -0.1398
 4866W        W 8930   3.095  10.565   4.723 -0.0478  0.2767  0.0477
 4867W        W 8931   7.962   9.961   2.929  0.1166  0.2168  0.2359
 4868W        W 8932   4.411   2.080   2.791  0.3208 -0.0697 -0.0282
 4869W        W 8933   1.510   9.945  10.820  0.1514  0.3360  0.1801
 4870W        W 8934   6.539   1.697   8.826  0.2138  0.2995  0.2400
 4871W        W 8935   0.480  10.388   8.880 -0.0828  0.1027 -0.1058
 4872W        W 8936   1.163   9.616   3.479  0.1523  0.2350 -0.2123
 4873W        W 8937   4.985  10.099   0.414 -0.3305 -0.1016  0.1269
 4874W        W 8938   8.718   3.072   8.963 -0.3288 -0.0007 -0.0307
 4875W        W 8939   7.497   9.956   1.745 -0.1406 -0.1565  0.1751
 4876W        W 8940   9.501   2.507   4.717  0.2446 -0.2313 -0.0858
 4877W        W 8941   9.716   7.421   9.045  0.0542 -0.0394 -0.1753
 4878W        W 8942   7.327   3.250   8.335 -0.3683  0.1342  0.0228
 4879W        W 8943   8.214   0.663   0.820  0.1263  0.1483 -0.1922
 4880W        W 8944   1.142   6.428   0.730 -0.2314  0.1662 -0.1081
 4881W        W 8945   0.461   8.535   2.276  0.0916  0.0722  0.0276
 4882W        W 8946   4.327   2.140   1.692  0.3046  0.2233  0.2480
 4883W        W 8947   1.997   2.240   9.586  0.2078 -0.1656 -0.0793
 4884W        W 8948   0.661   0.981  11.412  0.1875  0.0444 -0.0974
 4885W        W 8949   8.514   8.180   0.751  0.1331  0.2010  0.0043
 4886W        W 8950   5.339   0.505   1.900  0.0281  0.3376 -0.0418
 4887W        W 8951   3.734   0.707  11.066 -0.0392  0.0787  0.0521
 4888W        W 8952   9.020   0.734   0.143  0.1251 -0.1271 -0.2198
 4889W        W 8953   8.250   8.931   1.387 -0.0404 -0.3299 -0.0041
 4890W        W 8954   0.415   1.426  11.436 -0.0082 -0.3122 -0.1069
 4891W        W 8955   0.391   6.149  10.425  0.1427 -0.0324  0.2764
 4892W        W 8956   8.849   5.115   0.660 -0.0183  0.0254 -0.4710
 4893W        W 8957   8.377   4.628   3.287  0.0495  0.3819 -0.2543
 4894W        W 8958   6.175   6.570   9.559  0.1969 -0.6020  0.2959
 4895W        W 8959  10.157   6.249   9.251 -0.0642 -0.0249  0.2203
 4896W        W 8960   0.753   1.801  10.757  0.3001 -0.1946  0.1014
 4897W        W 8961   7.701   5.826   2.901  0.1271 -0.3569 -0.4029
 4898W        W 8962   1.228   0.608   1.807 -0.1541 -0.2491  0.0142
 4899W        W 8963   2.089   3.478   7.113  0.4181 -0.1342  0.1580
 4900W        W 8964   1.584   2.559   9.568  0.2495  0.1539  0.3487
 4901W        W 8965   8.484   8.206   2.125 -0.2217 -0.1739 -0.2207
 4902W        W 8966   0.176  10.015   9.979  0.4408  0.0129 -0.1498
 4903W        W 8967   3.068   3.667  10.937  0.2385 -0.0741 -0.0882
 4904W        W 8968   0.253   5.165   2.734  0.0846 -0.0005 -0.1722
 4905W        W 8969   9.826  10.215   8.634 -0.2333 -0.2162 -0.2789
 4906W        W 8970   2.517   2.927   3.515  0.0938  0.2065  0.1600
 4907W        W 8971   9.196   7.027   2.651 -0.1569 -0.1396  0.1407
 4908W        W 8972   6.351   6.728   1.233 -0.2790 -0.0515  0.2342
 4909W        W 8973   1.215   9.131   3.443  0.0635  0.1767  0.2493
 4910W        W 8974   5.498   2.323   1.433  0.0899 -0.2996  0.0457
 4911W        W 8975  10.472   1.708   1.601  0.3937  0.0508  0.1244
 4912W        W 8976   0.521   7.306   8.292 -0.1253  0.0017  0.4713
 4913W        W 8977   0.753   1.134   2.489  0.0765 -0.0414 -0.0720
 4914W        W 8978   9.915   4.437  10.007 -0.2298 -0.0636 -0.2387
 4915W        W 8979   5.493   1.853   9.297  0.4452  0.0553  0.2257
 4916W        W 8980   0.403   1.470  10.551 -0.0595 -0.1013  0.0174
 4917W        W 8981   4.118   0.569   8.322  0.1632  0.1566 -0.1433
 4918W        W 8982   5.392   3.002  10.156 -0.3296 -0.0322  0.1952
 4919W        W 8983   4.431   0.193  11.374 -0.2347 -0.1266  0.0947
 4920W        W 8984   1.649   3.374   9.565 -0.0439 -0.0682  0.1498
 4921W        W 8985   4.534   0.707   9.318 -0.0252 -0.0763  0.2294
 4922W        W 8986   3.907   8.927   0.117  0.2275  0.3223 -0.1305
 4923W        W 8987   7.984   9.185   0.303  0.0751  0.0778  0.0747
 4924W        W 8988   4.646   3.388   0.804 -0.1892 -0.1208 -0.0685
 4925W        W 8989   1.401  10.560   0.186 -0.0405  0.0794  0.1388
 4926W        W 8990   0.198   6.842   9.696 -0.0733 -0.2562 -0.1028
 4927W        W 8991   3.710  10.189   4.015  0.2760  0.3384 -0.0008
 4928W        W 8992   7.724   2.965   0.545 -0.1836 -0.2519  0.0578
 4929W        W 8993   4.844   9.621   8.488 -0.1204  0.2490 -0.1600
 4930W        W 8994   6.406   5.688   2.157  0.0149  0.1344  0.1131
 4931W        W 8995  10.493   7.876  10.833 -0.1049  0.2972  0.0560
 4932W        W 8996   3.573   4.098   1.687  0.2191  0.4726 -0.0738
 4933W        W 8997   9.780  10.340   2.897  0.0326  0.1211  0.2846
 4934W        W 8998   6.669   3.530   3.097  0.0457  0.0487 -0.0853
 4935W        W 8999   9.878   2.735  10.186  0.0606 -0.0300 -0.2953
 4936W        W 9000   5.888   8.998   2.698  0.0709  0.0088  0.0684
 4937W        W 9001   8.260   5.841   8.327 -0.1346  0.0016  0.2563
 4938W        W 9002   7.465   7.079  10.904 -0.0989  0.1496 -0.3590
 4939W        W 9003   4.686   0.632  10.863 -0.0598 -0.0774  0.0602
 4940W        W 9004   2.284   0.125   2.488  0.1323 -0.3384  0.0620
 4941W        W 9005   2.842   2.289   1.733  0.3339 -0.1364  0.0898
 4942W        W 9006   5.521   8.496  10.081 -0.0421  0.0274  0.4671
 4943W        W 9007   9.246   8.161   8.160 -0.0996  0.1046  0.0458
 4944W        W 9008   0.703   8.995   7.574 -0.2762  0.1199 -0.0223
 4945W        W 9009   2.865   1.429   8.923 -0.0980 -0.0128 -0.1818
 4946W        W 9010   5.301   5.363   9.305 -0.0974 -0.2831 -0.2845
 4947W        W 9011   7.693   9.477  11.221 -0.0903  0.1784 -0.1926
 4948W        W 9012   9.917   1.161   7.436  0.0553 -0.1152 -0.1856
 4949W        W 9013  10.194  10.567  10.502 -0.1942 -0.0923  0.1656
 4950W        W 9014   7.393   8.966   2.834  0.0095 -0.2064  0.0140
 4951W        W 9015   4.465   6.750   7.941 -0.0416 -0.1052 -0.1097
 4952W        W 9016   4.564   8.392   3.904  0.0525 -0.1172  0.0651
 4953W        W 9017  10.656   3.573   2.599  0.1329  0.1183  0.0337
 4954W        W 9018   8.069   8.966  11.031 -0.1355 -0.5577  0.1770
 4955W        W 9019   1.448   5.621   8.438  0.0569 -0.1701 -0.2272
 4956W        W 9020   5.644   3.150   2.524 -0.1387  0.0584 -0.2444
 4957W        W 9021  10.234   5.027   7.897  0.2284 -0.1733 -0.0933
 4958W        W 9022   2.941   8.815   0.817 -0.1104 -0.1595  0.0498
 4959W        W 9023   5.033   8.400   3.157  0.3987 -0.0296 -0.1416
 4960W        W 9024   9.633   7.999   8.483  0.0599  0.2089 -0.1801
 4961W        W 9025   0.528   3.666   7.519  0.1183  0.0960  0.1389
 4962W        W 9026   5.091   3.813   1.862 -0.2423  0.2784 -0.1629
 4963W        W 9027   5.186   9.439   1.526 -0.2381 -0.3946  0.1007
 4964W        W 9028   5.557   5.919   9.286 -0.1207  0.1099 -0.1551
 4965W        W 9029   7.761   4.590  10.222  0.2616 -0.0448  0.0386
 4966W        W 9030   3.800   3.853   0.773  0.0890 -0.0009  0.1428
 4967W        W 9031   3.694   4.604  10.713  0.0115 -0.0431  0.1201
 4968W        W 9032  10.224   3.482   2.953 -0.0583 -0.1709  0.1937
 4969W        W 9033   4.229   7.628   9.589 -0.2773 -0.2275 -0.1614
 4970W        W 9034   2.658   4.580   0.254 -0.1699  0.1629  0.0195
 4971W        W 9035   0.714   2.256  10.548  0.2122 -0.3764  0.0109
 4972W        W 9036   1.406   7.622   3.722 -0.0675 -0.0359 -0.1215
 4973W        W 9037   5.653   9.439   9.808 -0.1977 -0.0841 -0.3138
 4974W        W 9038   3.765   4.171  10.465 -0.0784 -0.2184  0.1773
 4975W        W 9039  10.138   9.458   0.413  0.1855 -0.0173  0.4503
 4976W        W 9040   4.539   0.920   3.685  0.1075  0.1722  0.1014
 4977W        W 9041   8.851   0.888   8.987 -0.4234 -0.1582  0.1747
 4978W        W 9042   1.791   2.266   7.691  0.0837  0.2693  0.1585
 4979W        W 9043   5.477  10.403   2.081  0.0519 -0.3357 -0.1563
 4980W        W 9044   5.651   4.858  11.356 -0.4439 -0.1211 -0.2007
 4981W        W 9045   0.749  10.609   0.464 -0.1588 -0.2837 -0.3897
 4982W        W 9046   3.923   1.674   1.486  0.1423  0.1606 -0.0015
 4983W        W 9047   1.505   4.641   9.297 -0.1380 -0.1256 -0.3090
 4984W        W 9048   1.016   6.295  10.080 -0.0180  0.0002 -0.0323
 4985W        W 9049   4.101   6.362   8.250 -0.0930  0.1625  0.2080
 4986W        W 9050   0.252   3.496   8.386 -0.0697  0.1849 -0.1040
 4987W        W 9051   9.014  10.286   0.795 -0.2861  0.0514 -0.1414
 4988W        W 9052   4.334   7.854   3.281  0.0338 -0.1651 -0.3437
 4989W        W 9053   1.060   7.606   4.344 -0.2022  0.0565  0.0575
 4990W        W 9054   1.236   4.004   1.748 -0.1309 -0.0576 -0.0197
 4991W        W 9055   5.880   4.586   7.525  0.0274 -0.3937  0.3093
 4992W        W 9056   7.713   9.022   1.387  0.0721 -0.2342  0.0028
 4993W        W 9057  10.558  10.053   9.445  0.1622 -0.0419  0.1058
 4994W        W 9058   0.582   7.677  10.742  0.5488 -0.3261 -0.0388
 4995W        W 9059   0.924   7.304  10.030  0.0818 -0.0906  0.0971
 4996W        W 9060   8.064   4.076   1.144  0.2292 -0.0207 -0.2739
 4997W        W 9061   8.745   7.736  10.717  0.0400  0.2071  0.1727
 4998W        W 9062   1.928   0.135   2.146  0.0595  0.1584 -0.0334
 4999W        W 9063   2.560   8.725   8.372 -0.0662  0.0509 -0.1076
 5000W        W 9064   2.627   7.796   0.565 -0.0510  0.2804 -0.3379
 5001W        W 9065   4.408   1.232  11.498  0.3130  0.1104 -0.0891
 5002W        W 9066   4.129   4.292   2.222  0.0473  0.1533 -0.1267
 5003W        W 9067   5.563   3.517  11.544  0.0162  0.0583 -0.1579
 5004W        W 9068   7.831   9.975  10.422 -0.0093 -0.4313  0.0025
 5005W        W 9069   6.408   2.248   2.553 -0.0544  0.0919 -0.0884
 5006W        W 9070   0.401  10.048   2.906 -0.3213 -0.1842 -0.1131
 5007W        W 9071   5.427  10.636  11.036 -0.2591 -0.2308  0.2403
 5008W        W 9072   3.440   6.640   1.310 -0.0308  0.0247  0.0635
 5009W        W 9073   6.939   6.269   3.476  0.3461  0.1330 -0.0787
 5010W        W 9074   1.959   6.370   9.532  0.0012  0.0587 -0.1684
 5011W        W 9075   1.601   6.151   9.297  0.0287 -0.2842  0.3298
 5012W        W 9076   4.064   0.820  10.140  0.2837  0.0269 -0.1214
 5013W        W 9077   4.035   9.926   0.408  0.0052 -0.0110 -0.2974
 5014W        W 9078   0.122   2.759   2.747  0.0075 -0.1766  0.1537
 5015W        W 9079   3.438   5.233  11.250 -0.1628 -0.1031 -0.3343
 5016W        W 9080   6.348   8.837   2.926 -0.0447 -0.1181  0.4068
 5017W        W 9081   8.090  10.583  10.276 -0.1110 -0.0266 -0.0734
 5018W        W 9082   1.185   5.285   3.012 -0.0281  0.1794  0.1681
 5019W        W 9083   8.624   9.925   0.978  0.0490  0.0526 -0.1228
 5020W        W 9084   5.931   9.309   8.324 -0.3619  0.0772 -0.0797
 5021W        W 9085   6.650   6.452   9.429 -0.3083 -0.0454  0.3026
 5022W        W 9086   8.942   1.280   2.215 -0.0295  0.1420  0.0280
 5023W        W 9087   8.033   5.807   1.340 -0.4693  0.3323 -0.3191
 5024W        W 9088   5.812   5.246   2.734 -0.0371 -0.3161  0.5170
 5025W        W 9089   4.580   5.992   1.396 -0.0143  0.0160 -0.0245
 5026W        W 9090   8.357   1.535   0.758 -0.0728  0.1969  0.3005
 5027W        W 9091   3.978   8.219  11.363 -0.0681 -0.1282 -0.1381
 5028W        W 9092   9.638   3.842   2.750 -0.0285 -0.0727  0.1270
 5029W        W 9093   0.849   9.310   0.677  0.0609  0.2359 -0.1457
 5030W        W 9094   5.827  10.393  10.075  0.1637 -0.2861 -0.0029
 5031W        W 9095   0.776   6.842   3.287 -0.4467 -0.1179 -0.3178
 5032W        W 9096   3.712   6.251   9.115 -0.0435  0.1270 -0.2145
 5033W        W 9097   6.447   1.718   2.472 -0.0662 -0.1483  0.4598
 5034W        W 9098   5.422   0.409   0.647  0.2475  0.1734 -0.4711
 5035W        W 9099   6.755   3.141   9.582 -0.1926 -0.2898  0.0906
 5036W        W 9100   5.402   9.965   2.357 -0.0398  0.1100  0.0230
 5037W        W 9101   0.989   0.519   3.259  0.1837 -0.1202 -0.1103
 5038W        W 9102   6.423   6.021  11.025  0.2437 -0.0076 -0.3317
 5039W        W 9103   4.896   8.573  11.235  0.0938 -0.0656 -0.4439
 5040W        W 9104   3.125   7.099   0.022  0.0837  0.1496 -0.0889
 5041W        W 9105   5.334  10.227   9.200 -0.0220 -0.1229 -0.1560
 5042W        W 9106   4.556  10.252   9.786 -0.0207 -0.0539  0.3608
 5043W        W 9107   4.995   6.563   1.723  0.3009 -0.1065  0.4359
 5044W        W 9108   0.056   4.612   2.991  0.2760  0.0771  0.0870
 5045W        W 9109   9.517  10.013   8.159 -0.0657 -0.2406  0.0952
 5046W        W 9110   2.943   1.914   0.721  0.0223 -0.1320 -0.0232
 5047W        W 9111   5.486   6.397   1.362  0.4454 -0.3556 -0.0712
 5048W        W 9112   8.158   5.485   9.987 -0.3398 -0.0801 -0.2103
 5049W        W 9113  10.523   9.258   2.221 -0.1205  0.0397 -0.1126
 5050W        W 9114   1.508   7.047  10.668 -0.0632  0.1557  0.0829
 5051W        W 9115   5.144   2.465   7.932 -0.0240  0.3629 -0.0798
 5052W        W 9116   7.504   8.763   2.397 -0.0468  0.1019 -0.0903
 5053W        W 9117   4.686   3.833   8.566  0.1304 -0.1090  0.1800
 5054W        W 9118   1.437   7.736   8.326  0.0329  0.1148 -0.0921
 5055W        W 9119   8.944   4.783   7.705 -0.1315 -0.2549 -0.0540
 5056W        W 9120   7.819   4.723   1.660 -0.2274 -0.0644  0.0212
 5057W        W 9121   8.885   3.016   3.470 -0.0707  0.1565 -0.1298
 5058W        W 9122   0.636   2.724   1.889 -0.1654  0.0985 -0.1069
 5059W        W 9123   6.438   1.927   8.105  0.1788 -0.0057  0.2218
 5060W        W 9124   8.627   7.431  11.488  0.2370  0.2277 -0.1315
 5061W        W 9125   3.101   1.362   2.583 -0.2569 -0.1813  0.0071
 5062W        W 9126   7.701  10.234   0.834  0.0713 -0.0737  0.0881
 5063W        W 9127  10.280   2.516  10.309  0.2007  0.2562  0.0866
 5064W        W 9128   6.980   0.495   8.649  0.0785  0.1199  0.0445
 5065W        W 9129   6.886   7.766   8.168 -0.2458 -0.0540  0.0156
 5066W        W 9130   3.828   3.032   9.875  0.0812 -0.1090 -0.1066
 5067W        W 9131   4.070   4.940   9.755 -0.0395  0.2688 -0.0619
 5068W        W 9132  10.470  10.488   1.324  0.2696  0.1867 -0.0115
 5069W        W 9133   8.518   9.600   9.626 -0.3125 -0.3178 -0.0948
 5070W        W 9134   3.762   6.700   9.576 -0.1249  0.1066 -0.1970
 5071W        W 9135   7.747   0.555   2.551  0.1450 -0.0937 -0.1645
 5072W        W 9136   8.745   1.504   1.797 -0.1217  0.0229 -0.0834
 5073W        W 9137   6.005  10.329   3.026  0.0209  0.0347  0.2121
 5074W        W 9138   4.296   2.513   0.804 -0.1611  0.0035  0.0064
 5075W        W 9139   3.125  10.300  11.032  0.0280 -0.1449  0.2897
 5076W        W 9140   3.213   6.282   9.383 -0.1086 -0.3009  0.2619
 5077W        W 9141   3.822   2.237   3.630  0.3248  0.3592 -0.2516
 5078W        W 9142   6.208   6.533   0.351 -0.0292 -0.0354 -0.4334
 5079W        W 9143   5.652   5.589   9.755  0.2694 -0.3729 -0.0275
 5080W        W 9144   8.287   7.144  11.225  0.2245  0.1167  0.0953
 5081W        W 9145   5.548   1.926   3.443  0.1173 -0.0273  0.0889
 5082W        W 9146   6.148   2.533  11.258  0.2012  0.1194 -0.4499
 5083W        W 9147  10.391   0.309   2.568  0.0806 -0.2099  0.2017
 5084W        W 9148   4.944   9.066  10.630 -0.1091  0.0103  0.2945
 5085W        W 9149   5.455   3.906   7.445  0.1038 -0.0565  0.1767
 5086W        W 9150   6.467   2.174   0.945  0.1205  0.0929 -0.2617
 5087W        W 9151   8.584   7.550  10.267 -0.0499  0.0365 -0.3991
 5088W        W 9152   0.221   7.044  11.038 -0.1223 -0.0094  0.0957
 5089W        W 9153  10.626   7.311   3.223  0.0325 -0.1060 -0.1188
 5090W        W 9154   0.048   7.021   1.131  0.0400 -0.1791  0.3352
 5091W        W 9155   0.653   0.620   1.122 -0.0575  0.0833 -0.0597
 5092W        W 9156   0.612   0.692   9.398 -0.0151  0.0704 -0.3675
 5093W        W 9157   4.252   8.769   3.630 -0.0983 -0.0473 -0.1123
 5094W        W 9158   9.929   5.923   0.752 -0.0044  0.2688  0.3219
 5095W        W 9159   8.307   2.260   8.355 -0.0578  0.3139  0.1049
 5096W        W 9160   8.407   6.551   8.336  0.3480 -0.4096  0.0353
 5097W        W 9161   3.383   7.735   4.343  0.0512 -0.0325  0.0572
 5098W        W 9162   1.784   8.357   3.117 -0.1694 -0.0156 -0.2383
 5099W        W 9163   1.402   0.353  11.488 -0.0577  0.0180  0.1851
 5100W        W 9164   9.262   1.101   2.625  0.0542  0.0223  0.0968
 5101W        W 9165   0.380   4.152   1.870 -0.1202 -0.1909 -0.0335
 5102W        W 9166   2.653   1.896  10.511 -0.0324 -0.0081 -0.1559
 5103W        W 9167   2.363   9.791   7.277  0.4117 -0.0290 -0.1448
 5104W        W 9168   6.766   3.060   9.095 -0.1186 -0.1472  0.0469
 5105W        W 9169   7.784   7.324   0.380  0.0988  0.1080  0.2190
 5106W        W 9170   1.644   8.744   8.911 -0.1491 -0.1378 -0.0213
 5107W        W 9171   3.878   7.671   0.989  0.1065  0.0266 -0.3220
 5108W        W 9172   8.585   1.424   8.806  0.2272 -0.2530  0.0579
 5109W        W 9173   1.017   8.489   2.243 -0.0572  0.0031  0.0727
 5110W        W 9174   5.996   3.935   0.351 -0.1200  0.0402 -0.3491
 5111W        W 9175   9.916   0.717   8.366  0.1888 -0.1227 -0.1061
 5112W        W 9176   2.101   4.737   1.440 -0.0727  0.0022 -0.1747
 5113W        W 9177   4.223   9.044   3.160 -0.0039 -0.0067 -0.0899
 5114W        W 9178   7.664   7.347   0.885 -0.2113  0.0028  0.0422
 5115W        W 9179   1.516   2.247   1.091  0.0426  0.2021 -0.1199
 5116W        W 9180   3.604   0.433   8.725  0.1333 -0.1567  0.2087
 5117W        W 9181   3.105   1.185   2.031  0.1550  0.0556 -0.1575
 5118W        W 9182   4.040   9.755   2.208 -0.2954  0.0505 -0.0749
 5119W        W 9183   2.339   1.048   1.469 -0.0995  0.1144 -0.2233
 5120W        W 9184   0.303   1.730   4.222 -0.0508  0.3396  0.1522
 5121W        W 9185   4.239   5.979  10.477  0.2459 -0.1175 -0.1642
 5122W        W 9186   3.718   5.066   4.119  0.2128  0.2928  0.0118
 5123W        W 9187   0.327   5.517  11.414  0.1330 -0.0165  0.0622
 5124W        W 9188   6.838   2.166  10.649  0.0154  0.1650 -0.0313
 5125W        W 9189   9.727   7.079  10.176  0.1606  0.2996 -0.1038
 5126W        W 9190   7.743   2.893   9.216 -0.2494  0.0736  0.2360
 5127W        W 9191   8.910  10.145   0.328 -0.1577 -0.0376 -0.0546
 5128W        W 9192   1.104  10.007  10.480 -0.1344 -0.1683  0.0561
 5129W        W 9193   7.999   4.259   8.788 -0.2310  0.0217  0.2550
 5130W        W 9194   2.932   2.437   0.696 -0.1311  0.0567 -0.2549
 5131W        W 9195   0.172   8.301   1.644 -0.0578 -0.2162  0.1509
 5132W        W 9196   5.248   2.866   4.262 -0.3991  0.0236 -0.1576
 5133W        W 9197  10.006   3.749   0.787  0.0148 -0.0067 -0.2951
 5134W        W 9198   2.222   5.460   2.538 -0.1257 -0.3553  0.0918
 5135W        W 9199   1.805   4.966  10.150 -0.0296  0.2694 -0.1518
 5136W        W 9200   5.859  10.426   3.477 -0.0796  0.1971 -0.2274
 5137W        W 9201  10.642   7.186   8.823  0.2044 -0.1510  0.0778
 5138W        W 9202   6.401   8.918   8.592  0.2586 -0.0366 -0.0254
 5139W        W 9203  10.389   8.246  10.437 -0.1001 -0.0827  0.4623
 5140W        W 9204   3.132   0.502   1.403 -0.1998  0.1725 -0.0192
 5141W        W 9205   2.285   1.415   9.922  0.2671  0.1141  0.0007
 5142W        W 9206   0.809   8.529  10.332  0.2240 -0.0997  0.3242
 5143W        W 9207   3.470  10.124   1.656  0.2963 -0.2468  0.1585
 5144W        W 9208   9.742   3.603   0.375  0.0446 -0.1466 -0.2465
 5145W        W 9209   6.826   5.302  11.174 -0.1955 -0.0232 -0.0444
 5146W        W 9210   6.274   6.622   8.620  0.0986 -0.0461 -0.0103
 5147W        W 9211   4.322   2.037  11.379  0.2051 -0.2789  0.0922
 5148W        W 9212  10.421   7.238  11.070  0.0891  0.2789  0.2088
 5149W        W 9213   0.154   4.640  10.954  0.0076 -0.1044  0.1259
 5150W        W 9214   6.484   9.846  10.696  0.0874  0.2042 -0.5010
 5151W        W 9215   9.243   6.725   0.107  0.0854 -0.1052 -0.1334
 5152W        W 9216   7.454  10.033   2.767  0.1546  0.1613  0.2430
 5153W        W 9217   8.965   0.019   0.363 -0.1095  0.0935 -0.2720
 5154W        W 9218   7.428  10.276   9.594 -0.0591  0.2508 -0.1228
 5155W        W 9219   9.328   8.554   2.394  0.1686  0.0793  0.1939
 5156W        W 9220   6.042   9.678   1.367  0.3004 -0.0546  0.0097
 5157W        W 9221   7.205   2.772   8.194  0.1641 -0.1453 -0.0732
 5158W        W 9222  10.218   5.394   1.523 -0.4491 -0.0321 -0.1836
 5159W        W 9223   4.638  10.198  11.534  0.0189  0.1432  0.1437
 5160W        W 9224   5.694   3.691  10.739 -0.1230  0.1614 -0.1749
 5161W        W 9225   4.544  10.308   1.303 -0.0770  0.4405 -0.1099
 5162W        W 9226   9.891   7.069   0.466 -0.0273  0.1199  0.1461
 5163W        W 9227   1.995   3.753   9.966  0.0530 -0.2564 -0.4233
 5164W        W 9228   4.967   8.947   0.093  0.2010  0.0611  0.1880
 5165W        W 9229   8.503   2.826   0.044  0.0876  0.1678  0.0268
 5166W        W 9230   5.719   6.294   8.923 -0.1269 -0.1854 -0.2044
 5167W        W 9231   3.718   9.366   0.484 -0.1541  0.1042  0.1431
 5168W        W 9232   5.166   9.819   3.426  0.2202  0.2493  0.1130
 5169W        W 9233   0.039   4.986   1.174  0.1149  0.2395  0.0564
 5170W        W 9234   5.840  10.001  11.080  0.4607  0.2954 -0.0168
 5171W        W 9235   9.697   0.870   2.402 -0.0469  0.1855  0.0622
 5172W        W 9236   0.242  10.193   0.510  0.1778  0.0198 -0.3788
 5173W        W 9237   8.691   6.609   0.452 -0.1767 -0.3827  0.0794
 5174W        W 9238   0.143   6.836   8.495 -0.3484 -0.0606 -0.4447
 5175W        W 9239   3.161   9.121  10.431  0.0004 -0.0349 -0.0756
 5176W        W 9240   0.615   8.993  10.550  0.0263  0.2788 -0.2715
 5177W        W 9241   0.155   5.659   2.456 -0.1037 -0.0974  0.2269
 5178W        W 9242   6.989   7.868   9.139  0.2222 -0.1096 -0.0881
 5179W        W 9243   2.845   9.075   2.325  0.0031  0.0024  0.2586
 5180W        W 9244   2.389   6.436   9.879  0.1707  0.0525  0.1152
 5181W        W 9245   2.877   2.879   9.129 -0.1063  0.2265 -0.0744
 5182W        W 9246   5.477   6.495   3.313 -0.3311  0.1830  0.2759
 5183W        W 9247   3.706   0.973   9.796 -0.1137 -0.0714  0.0996
 5184W        W 9248   0.134   4.431   9.114  0.1003 -0.1247 -0.0017
 5185W        W 9249   2.162   4.510   4.162 -0.1643 -0.0888  0.1203
 5186W        W 9250   0.123   8.403   3.091 -0.2187  0.0550  0.0071
 5187W        W 9251   2.134   2.058  10.010 -0.0106  0.1172 -0.2052
 5188W        W 9252  10.160   0.033   9.148  0.1230  0.1029 -0.0500
 5189W        W 9253   6.551   1.978   7.278  0.1281  0.0641 -0.1120
 5190W        W 9254   5.729  10.177   8.232 -0.0063 -0.4638 -0.2162
 5191W        W 9255   1.928   7.169   2.571  0.0918  0.4329  0.4322
 5192W        W 9256   0.318   4.182  10.749 -0.1050 -0.1163 -0.0059
 5193W        W 9257   5.308   6.661  10.004  0.3728 -0.0197  0.0714
 5194W        W 9258   8.703   5.980   9.205 -0.0490 -0.2546 -0.3528
 5195W        W 9259   5.998   7.206   8.375 -0.0475 -0.1661  0.1900
 5196W        W 9260   3.363   0.795   1.801  0.2351  0.2807  0.1593
 5197W        W 9261   0.904   5.529  10.748  0.0575 -0.0031 -0.4369
 5198W        W 9262   0.543   5.394   1.780  0.0029 -0.1457 -0.0961
 5199W        W 9263   6.100   8.782   0.352 -0.1071 -0.2322  0.2602
 5200W        W 9264   5.830   0.101   0.997 -0.1728  0.1247 -0.1100
 5201W        W 9265   0.513   8.627  10.855  0.1803  0.0131 -0.0032
 5202W        W 9266  10.341   4.747   1.677 -0.1986 -0.2457 -0.0594
 5203W        W 9267   8.182   1.794  10.207  0.3441  0.2539  0.3080
 5204W        W 9268   2.913   4.495   3.110 -0.1228 -0.0268 -0.2608
 5205W        W 9269   1.935   9.067   2.378 -0.0734  0.1551 -0.1860
 5206W        W 9270   3.760   0.865   2.902 -0.3043  0.1868 -0.1860
 5207W        W 9271   9.402   2.975   2.208  0.0643  0.1208 -0.0980
 5208W        W 9272   6.942   9.006   2.438  0.0070 -0.3127 -0.0210
 5209W        W 9273   6.351   9.200  11.433 -0.1341  0.0039  0.0581
 5210W        W 9274   1.943   6.418  11.209  0.4047  0.0786  0.1417
 5211W        W 9275   1.701   7.189  11.105  0.0897  0.1592 -0.3381
 5212W        W 9276   8.058   5.089   7.346  0.0538 -0.0352  0.1967
 5213W        W 9277   7.427   8.606  10.113  0.2143 -0.1909 -0.0186
 5214W        W 9278   8.432   7.551   2.926  0.3071 -0.2013  0.1912
 5215W        W 9279   5.146   5.268   3.853  0.0743 -0.2571  0.0729
 5216W        W 9280   8.721  10.114   3.841  0.2067 -0.0757 -0.1644
 5217W        W 9281   3.489   3.384  10.228 -0.1081 -0.2435 -0.2819
 5218W        W 9282   8.376   1.647   2.958  0.0070 -0.2315  0.2144
 5219W        W 9283   8.269   0.934   9.862 -0.3467  0.1081 -0.5442
 5220W        W 9284   9.556   8.679  10.276  0.1480 -0.1937  0.0983
 5221W        W 9285   1.445   9.412   3.018 -0.2662 -0.0447  0.2057
 5222W        W 9286   2.858   4.573  11.288 -0.0721  0.2993  0.3557
 5223W        W 9287   3.683   2.254   9.504 -0.0815  0.2195 -0.1057
 5224W        W 9288   2.030   0.601   3.454  0.1412 -0.1054 -0.2012
 5225W        W 9289   8.019   1.629   1.629  0.5720 -0.0846 -0.0224
 5226W        W 9290   7.416   1.588   1.499  0.0014  0.0389 -0.0551
 5227W        W 9291   7.108   2.579   3.854 -0.2714  0.2095  0.0980
 5228W        W 9292   2.496   0.627   1.684  0.2682  0.2730  0.0081
 5229W        W 9293   9.594   2.869   8.647  0.1284  0.0592 -0.0536
 5230W        W 9294   9.713   2.856  11.137  0.4397 -0.1135 -0.1838
 5231W        W 9295   6.293   6.052   1.811  0.1002  0.0613 -0.0228
 5232W        W 9296   4.273   4.083   9.859 -0.0078  0.4454 -0.5038
 5233W        W 9297   0.320   6.405  10.955  0.2387 -0.5285  0.2415
 5234W        W 9298   0.296   8.010  10.967 -0.0420 -0.1350 -0.1243
 5235W        W 9299   9.782  10.186  11.446 -0.1342 -0.0619 -0.1906
 5236W        W 9300   3.235   5.480   9.510  0.0164  0.1173 -0.1308
 5237W        W 9301   1.063   4.227  11.230  0.0790 -0.0801  0.2260
 5238W        W 9302   5.298   4.046  10.717 -0.2008  0.0813  0.1794
 5239W        W 9303   3.754  10.495   1.721  0.1029  0.3104 -0.1535
 5240W        W 9304   6.523   5.562   0.531 -0.2142  0.0337  0.0093
 5241W        W 9305   0.791   9.958   8.963 -0.1701 -0.2798 -0.0737
 5242W        W 9306   0.570   6.778   9.280 -0.0306 -0.0529  0.2688
 5243W        W 9307   0.073   8.470  10.980  0.2002 -0.0217  0.1706
 5244W        W 9308   2.598   7.409  10.091 -0.0153  0.0618  0.0145
 5245W        W 9309   1.893   3.125   2.662 -0.0913  0.3210  0.3019
 5246W        W 9310   4.558   4.903   3.189  0.4446  0.0305 -0.3599
 5247W        W 9311   4.208   3.961  10.388 -0.2257  0.1432  0.0502
 5248W        W 9312  10.392   4.398   9.843  0.2856  0.0285  0.0532
 5249W        W 9313  10.548   2.376   2.872  0.2379  0.0494  0.0125
 5250W        W 9314   5.225   1.049   9.763  0.4330  0.0068 -0.2295
 5251W        W 9315   1.635   9.904   7.982  0.0024  0.1563  0.0334
 5252W        W 9316   6.182   0.228   3.021 -0.0307 -0.0562  0.1961
 5253W        W 9317   0.154   8.848   0.211  0.2292  0.0779  0.2372
 5254W        W 9318   4.442   3.930   2.108  0.2593 -0.0013  0.2430
 5255W        W 9319   8.210  10.102   2.467 -0.0619 -0.0748 -0.1193
 5256W        W 9320   8.161  10.388   2.006 -0.0409  0.1100  0.1265
 5257W        W 9321   5.083  10.290   1.167  0.0543  0.0423  0.2655
 5258W        W 9322  10.130  10.071  10.401 -0.2414 -0.0999  0.1361
 5259W        W 9323   6.354   0.612   0.880  0.0092  0.1470 -0.3475
 5260W        W 9324   5.237   9.901   4.028  0.0763 -0.0883  0.1783
 5261W        W 9325   2.719   2.793  11.231  0.1080 -0.1888 -0.0965
 5262W        W 9326   4.889   1.290   0.681  0.0079 -0.0162  0.1958
 5263W        W 9327   8.457   6.614   0.964 -0.2794  0.2647 -0.0445
 5264W        W 9328   0.805   4.659   0.007  0.1106  0.0725 -0.1954
 5265W        W 9329   8.872   0.559  11.161 -0.1865  0.0191 -0.2078
 5266W        W 9330   7.767   7.532   9.088 -0.2680 -0.2109 -0.0484
 5267W        W 9331   7.456  10.561   0.455 -0.0091 -0.1834 -0.1141
 5268W        W 9332   0.947   5.621   1.933 -0.2290  0.0483  0.0641
 5269W        W 9333   1.409   0.666   2.652  0.1175 -0.2407 -0.0241
 5270W        W 9334   0.978   5.547   2.507 -0.0340 -0.0098 -0.0562
 5271W        W 9335   1.939   3.045   8.204 -0.0880 -0.1478  0.0704
 5272W        W 9336   8.566   0.118   9.048 -0.3207 -0.1209 -0.3708
 5273W        W 9337   5.206   1.680   1.973  0.2523 -0.1306 -0.1975
 5274W        W 9338   1.656   1.002   3.458  0.1223 -0.1140  0.0354
 5275W        W 9339   2.120   8.738   8.635  0.2777 -0.1060  0.0787
 5276W        W 9340   9.162   1.151  11.463 -0.0430 -0.3018  0.2309
 5277W        W 9341  10.210   3.506  10.088 -0.0718 -0.2452  0.0772
 5278W        W 9342   6.860   2.254  10.173 -0.3869 -0.2348 -0.2207
 5279W        W 9343   1.958   0.242   8.782 -0.1091 -0.2310  0.3573
 5280W        W 9344   4.042   2.634   1.740 -0.2648 -0.0564 -0.4567
 5281W        W 9345   7.315   1.652   0.652 -0.3081  0.0709 -0.2477
 5282W        W 9346   4.552   0.870   8.398  0.2290  0.1052 -0.0744
 5283W        W 9347   1.779   2.435   0.553 -0.1618 -0.6001  0.0552
 5284W        W 9348   6.875   0.714   0.729  0.3229  0.1166  0.1589
 5285W        W 9349   5.406   5.290   1.495 -0.0010 -0.2492 -0.2474
 5286W        W 9350   9.490   3.785  11.544  0.1713  0.0613 -0.1668
 5287W        W 9351   4.870   6.922  11.244  0.1220  0.0124  0.1392
 5288W        W 9352   7.937   1.008  10.398  0.0947  0.2683  0.2817
 5289W        W 9353   9.085   5.896   7.176  0.1453  0.0631  0.0879
 5290W        W 9354   8.330   5.317   0.567  0.1193  0.3811  0.1830
 5291W        W 9355   2.716   5.334   7.727 -0.1351  0.0214 -0.0450
 5292W        W 9356   1.613   7.342   7.590 -0.0397 -0.0596  0.1779
 5293W        W 9357   3.813   1.208  10.906  0.0838  0.1407 -0.0514
 5294W        W 9358   4.102   0.292   9.281  0.1911  0.1341 -0.1224
 5295W        W 9359   3.380   9.174   0.115 -0.1035 -0.2081  0.0106
 5296W        W 9360   8.367   6.872   1.380 -0.1225  0.0889  0.0174
 5297W        W 9361   9.358   6.214  10.446  0.0141  0.1451 -0.1682
 5298W        W 9362   6.038   2.473   9.859  0.5298 -0.0875  0.0777
 5299W        W 9363  10.463   1.315   2.960 -0.0398  0.1054  0.3309
 5300W        W 9364   2.394   2.807   9.452 -0.0446 -0.1284 -0.1466
 5301W        W 9365   4.453   5.322   0.489  0.3026 -0.2964 -0.1854
 5302W        W 9366   1.256   6.620   1.992 -0.1210  0.1378 -0.0184
 5303W        W 9367   8.083   8.908   2.533 -0.0263 -0.1757 -0.4069
 5304W        W 9368   6.417   4.124   3.399  0.0128  0.0863  0.2133
 5305W        W 9369   0.047   1.665   9.310  0.4440 -0.0812  0.0221
 5306W        W 9370   9.025   5.495   0.944 -0.0735 -0.0986  0.0602
 5307W        W 9371   7.844   4.211   3.360 -0.1811 -0.0080 -0.1359
 5308W        W 9372   3.706   2.910   8.830 -0.0353 -0.2203 -0.3077
 5309W        W 9373   9.466   2.996   9.929  0.3611 -0.2067 -0.1672
 5310W        W 9374   5.007   7.892   7.524 -0.6044  0.2556 -0.3636
 5311W        W 9375  10.342   7.770   3.128 -0.0710 -0.1107 -0.1031
 5312W        W 9376   9.005   1.335   9.171  0.2241 -0.4115  0.2541
 5313W        W 9377   1.284   7.994  11.472 -0.0793 -0.2185  0.0848
 5314W        W 9378  10.152   9.525  10.293 -0.0928 -0.0628 -0.1286
 5315W        W 9379   1.091   7.748   2.839  0.2017  0.0734 -0.1870
 5316W        W 9380   7.767   7.506   1.838 -0.3832  0.1861 -0.0690
 5317W        W 9381   8.976   4.496   0.043 -0.1194  0.1212  0.1435
 5318W        W 9382   2.971  10.242   8.410 -0.0039  0.0848 -0.1112
 5319W        W 9383   4.699   9.995   0.804 -0.1226 -0.0986  0.4477
 5320W        W 9384   4.431   2.137   0.313 -0.0484 -0.1984  0.1922
 5321W        W 9385   0.387   1.955   1.925 -0.1346  0.5069  0.1684
 5322W        W 9386   0.439   4.411   2.262  0.0841 -0.0794  0.0118
 5323W        W 9387   1.178   2.399   3.231 -0.1426  0.0303  0.0581
 5324W        W 9388   8.384   6.338   9.416 -0.0382  0.0134  0.4330
 5325W        W 9389   7.765   3.172   1.358 -0.1131 -0.1515 -0.0190
 5326W        W 9390   2.300   4.137   8.284  0.1697  0.1841 -0.3408
 5327W        W 9391   3.581   1.797   3.840 -0.0765  0.0284 -0.1957
 5328W        W 9392   1.215   9.697   0.734 -0.2828 -0.1350  0.1889
 5329W        W 9393   6.048   9.900   9.051  0.3656  0.2177  0.1000
 5330W        W 9394   1.207   3.279   8.697  0.0353 -0.2533  0.1083
 5331W        W 9395   1.759   8.704   2.670 -0.0204 -0.3700 -0.1639
 5332W        W 9396   1.572   7.199   2.186 -0.0538 -0.1709 -0.4009
 5333W        W 9397   4.453   5.579   9.009 -0.0426 -0.2037 -0.0675
 5334W        W 9398  10.647   8.193   7.701  0.1570  0.0080  0.1557
 5335W        W 9399   0.131   3.404   7.940 -0.0710  0.5027  0.3404
 5336W        W 9400   3.050   1.068   0.591 -0.3498 -0.0646 -0.2336
 5337W        W 9401   5.253   8.095   2.772 -0.0363  0.1124 -0.0466
 5338W        W 9402   7.125   7.349   2.395 -0.0877  0.4168  0.4221
 5339W        W 9403  10.518   9.108   8.396 -0.3178 -0.0308 -0.0008
 5340W        W 9404   0.328   9.028   0.716  0.2318  0.0515 -0.2560
 5341W        W 9405   2.553   5.490   0.567 -0.0800  0.1131  0.2844
 5342W        W 9406   8.294   5.782   0.462  0.2808 -0.1199  0.0490
 5343W        W 9407   0.633   4.295   4.097 -0.2202 -0.3059 -0.4347
 5344W        W 9408   2.775   4.205   0.606  0.2312  0.0029 -0.1392
 5345W        W 9409   6.313   8.881   1.608 -0.2152 -0.0985  0.2467
 5346W        W 9410   0.158  10.241  11.247 -0.1814  0.1177 -0.3764
 5347W        W 9411   5.403   1.374   0.377  0.3236 -0.2166 -0.1380
 5348W        W 9412   9.995   0.193   3.688  0.0395  0.1635  0.2354
 5349W        W 9413  10.026   3.582   9.166 -0.0485 -0.1926  0.1608
 5350W        W 9414   4.948  10.148   2.256 -0.0186 -0.2563 -0.0533
 5351W        W 9415   1.534   3.767   2.084  0.0902  0.1349 -0.0924
 5352W        W 9416   2.678   0.383   7.300 -0.1011 -0.3552  0.0096
 5353W        W 9417   8.871   1.833   0.622 -0.0668 -0.1234  0.0217
 5354W        W 9418   3.332   5.928   0.156 -0.0544  0.1062 -0.1768
 5355W        W 9419   6.256   3.787   2.961 -0.1468 -0.0377 -0.0948
 5356W        W 9420   7.179   4.345  10.989 -0.0886 -0.1411  0.0473
 5357W        W 9421   4.407   5.922   8.127 -0.0982  0.1320  0.2639
 5358W        W 9422   9.356   9.930   3.753  0.0789 -0.1691 -0.1499
 5359W        W 9423   4.641   5.040   3.723  0.0534  0.0683  0.3504
 5360W        W 9424   8.660   4.051   8.566 -0.0289 -0.1425 -0.0762
 5361W        W 9425   4.810   5.285   8.564  0.1242 -0.0237 -0.1068
 5362W        W 9426   3.728   6.953  11.503 -0.0650  0.3247 -0.1513
 5363W        W 9427   9.715   9.794   2.038 -0.1650 -0.0553 -0.5639
 5364W        W 9428  10.221   4.178   0.807 -0.1452 -0.1007  0.0366
 5365W        W 9429   5.475   8.837   1.585  0.0929  0.3497  0.0209
 5366W        W 9430   4.121   9.990   2.677  0.0202  0.3235 -0.1168
 5367W        W 9431   6.623   7.553   8.901 -0.0203  0.0885 -0.0645
 5368W        W 9432   2.982   3.596   3.606  0.0577 -0.0930  0.1227
 5369W        W 9433  10.215   9.471   8.444  0.1823 -0.0399  0.0865
 5370W        W 9434   8.590   7.286   1.228 -0.2755  0.1270 -0.0955
 5371W        W 9435   2.066   6.567   8.666 -0.0485 -0.0763 -0.1800
 5372W        W 9436   8.634   6.419   2.955  0.1463 -0.3579  0.0369
 5373W        W 9437   0.030   8.806   8.917  0.2741 -0.1503 -0.1641
 5374W        W 9438   2.941   9.512   8.885 -0.2211 -0.0832 -0.1824
 5375W        W 9439   6.729   9.533  11.480  0.0981  0.0540 -0.2484
 5376W        W 9440   9.046   8.710   1.044  0.0571  0.2732  0.1638
 5377W        W 9441   2.300   3.939   2.227  0.0025 -0.1228 -0.0188
 5378W        W 9442   6.685   1.870   9.304 -0.3140  0.1256 -0.1436
 5379W        W 9443   5.003   9.482   0.422 -0.1422 -0.1676  0.1140
 5380W        W 9444   4.947   9.591  10.406 -0.1708  0.0935  0.1097
 5381W        W 9445   9.090   1.538   3.532 -0.2255  0.2390  0.1787
 5382W        W 9446   6.430   1.226   0.599  0.0112  0.1509  0.0255
 5383W        W 9447   6.794   7.124   0.240 -0.0757  0.0410 -0.0476
 5384W        W 9448   6.304   3.558   0.586  0.2711 -0.0705 -0.2965
 5385W        W 9449   7.865   6.772   0.122  0.1798  0.1586  0.0265
 5386W        W 9450  10.454   8.535   0.365  0.0458 -0.3324 -0.1236
 5387W        W 9451   1.707   2.251   8.184 -0.0163  0.1547  0.1244
 5388W        W 9452   0.396   1.650   3.121  0.0845 -0.1037 -0.0172
 5389W        W 9453   7.715   1.630   8.331  0.0324 -0.1801 -0.0408
 5390W        W 9454   7.949   4.933   9.377 -0.1855 -0.0528 -0.3372
 5391W        W 9455   5.098   5.639   3.457 -0.1883 -0.0445 -0.0375
 5392W        W 9456   3.240   7.544   9.292  0.1243  0.0712 -0.3090
 5393W        W 9457   6.448   7.468   8.253  0.0039  0.0802 -0.2036
 5394W        W 9458   7.476   3.898   0.554  0.2992 -0.3724  0.4944
 5395W        W 9459   8.425   0.754  10.318 -0.1437 -0.0175 -0.1176
 5396W        W 9460   5.366   7.058   8.627 -0.3437  0.3156  0.0485
 5397W        W 9461   7.598   2.737  10.584 -0.0961 -0.0290  0.0520
 5398W        W 9462   7.426   3.900   1.468  0.2159  0.0980 -0.2175
 5399W        W 9463   0.247   5.074  10.416  0.1115  0.3179 -0.4402
 5400W        W 9464   7.705   3.021   1.955 -0.0656 -0.2121  0.0191
 5401W        W 9465   1.003  10.186  10.038 -0.3197 -0.0643 -0.0712
 5402W        W 9466   0.184   1.802   0.116  0.2074 -0.1868 -0.0207
 5403W        W 9467   2.437   0.867   4.065  0.2320 -0.1405 -0.2048
 5404W        W 9468   1.022   8.546   1.699 -0.1034  0.0479 -0.3066
 5405W        W 9469   5.586   0.723   0.308  0.2514 -0.0313 -0.0789
 5406W        W 9470   3.105   0.372   9.835 -0.2419 -0.0728  0.0614
 5407W        W 9471   5.276  10.329  10.199 -0.0181  0.1743  0.2932
 5408W        W 9472   8.809   8.524   1.919  0.1398 -0.1404 -0.5887
 5409W        W 9473   9.653   4.122   1.607  0.3966 -0.0129  0.1008
 5410W        W 9474   9.186   9.194   0.593  0.0971 -0.1389  0.2161
 5411W        W 9475   9.072   6.548   9.997 -0.3863 -0.2000 -0.0878
 5412W        W 9476   9.643   5.770  10.357  0.1715  0.1735 -0.0131
 5413W        W 9477   9.582   5.114   7.276  0.3036  0.0919  0.0907
 5414W        W 9478   2.656   1.535  10.909 -0.0134 -0.1345 -0.1484
 5415W        W 9479   1.678   8.000   1.123  0.2772  0.1861 -0.1636
 5416W        W 9480   2.612   6.193   2.549 -0.4182 -0.0622  0.0198
 5417W        W 9481   4.763   3.485   2.100  0.0744  0.0990 -0.0303
 5418W        W 9482   9.616  10.067   2.458  0.1269  0.3242  0.0483
 5419W        W 9483   0.791   9.510  10.695 -0.2395 -0.4362  0.2636
 5420W        W 9484   6.329   4.862  10.494 -0.0207  0.3007 -0.3892
 5421W        W 9485   2.647   5.224   2.362 -0.2489 -0.2016 -0.0624
 5422W        W 9486   5.566   5.566   8.887  0.3089  0.3111  0.1066
 5423W        W 9487   6.486   4.004   0.551 -0.1883 -0.1740 -0.2172
 5424W        W 9488   4.694   4.483  10.785 -0.2933 -0.1522  0.0740
 5425W        W 9489   7.377   1.262   9.217  0.2260  0.1485 -0.0501
 5426W        W 9490   9.897   9.176   8.646 -0.0894  0.0195 -0.1882
 5427W        W 9491   3.786   7.268  10.629  0.0250 -0.0319  0.2315
 5428W        W 9492   8.918   2.299   0.306  0.2368 -0.2679  0.0969
 5429W        W 9493   7.543   1.538   9.684  0.1345 -0.1014  0.1071
 5430W        W 9494   4.698   5.291   0.945 -0.3641  0.1406 -0.0772
 5431W        W 9495   0.166  10.006   3.446  0.3105  0.1999  0.0097
 5432W        W 9496   0.626   9.779   3.439 -0.0951 -0.6488 -0.3144
 5433W        W 9497  10.057   4.002   8.918 -0.2692  0.0813  0.1294
 5434W        W 9498   5.084   8.234   1.758 -0.4142  0.1010  0.0248
 5435W        W 9499   9.319   8.079  11.458 -0.0622  0.1430  0.4326
 5436W        W 9500   4.092   2.525   0.097 -0.0332  0.1095  0.0858
 5437W        W 9501   6.502   5.707   1.553 -0.1439 -0.0444  0.1987
 5438W        W 9502   9.461   4.314   2.603  0.2390  0.1118  0.1857
 5439W        W 9503   1.133   2.548  10.808  0.1001 -0.2520  0.2325
 5440W        W 9504   4.202   8.695   2.844 -0.1147  0.2628  0.0185
 5441W        W 9505   9.639   3.886  11.034  0.0203  0.2939 -0.0220
 5442W        W 9506   9.514   1.949  10.902 -0.0558 -0.2100 -0.2937
 5443W        W 9507   7.850   9.194  10.641  0.1465  0.2037  0.1174
 5444W        W 9508   6.189   2.034   2.134 -0.1728 -0.2638 -0.0671
 5445W        W 9509   0.777   2.224   0.011  0.1967 -0.0486  0.2312
 5446W        W 9510   1.215   3.646   7.485 -0.0167 -0.0867  0.1740
 5447W        W 9511   2.389   4.892   1.820 -0.4828  0.0884  0.1580
 5448W        W 9512   8.936   5.117   2.595  0.2397  0.0639  0.0232
 5449W        W 9513   5.785   0.056  10.658 -0.2078 -0.0568  0.1486
 5450W        W 9514   2.746   1.441   4.908  0.1981 -0.1105  0.0655
 5451W        W 9515   6.207   6.139   8.514 -0.0849 -0.1524  0.1707
 5452W        W 9516   0.516   3.631  10.481  0.0657 -0.0315 -0.1125
 5453W        W 9517   3.602   3.617  11.298  0.3393  0.0612 -0.1864
 5454W        W 9518   2.468   2.359   9.788  0.1401  0.0951 -0.0928
 5455W        W 9519   2.346   4.407   9.665  0.1408 -0.1792  0.1006
 5456W        W 9520   0.322   0.341   8.276 -0.0480  0.1589 -0.0934
 5457W        W 9521   4.163   2.065   9.226 -0.2771 -0.1622 -0.0217
 5458W        W 9522   6.377   4.458   2.412  0.0808  0.0705 -0.1613
 5459W        W 9523   5.121   0.276   8.594  0.0631  0.2954 -0.4171
 5460W        W 9524   5.205   0.098   1.553  0.0122  0.0939  0.2017
 5461W        W 9525  10.287   1.087   1.529 -0.3906 -0.3335  0.1918
 5462W        W 9526   8.338   1.128   1.605 -0.0775  0.0547  0.0944
 5463W        W 9527   1.620   5.403   2.047  0.0219  0.4081  0.2777
 5464W        W 9528   3.640   2.489   7.230 -0.1904 -0.2541  0.1555
 5465W        W 9529   1.986   1.185  11.015 -0.4806  0.0077 -0.1697
 5466W        W 9530   0.624   1.360   1.725  0.2009  0.0463  0.0983
 5467W        W 9531   6.241   8.050   8.835 -0.0779  0.1615 -0.1369
 5468W        W 9532   8.533   7.085  10.464  0.1517 -0.0005 -0.1157
 5469W        W 9533   9.233   2.682   3.144  0.2040  0.1088  0.1243
 5470W        W 9534   3.321  10.113   8.096  0.0720 -0.3208 -0.0436
 5471W        W 9535   2.472   4.820  11.112  0.2140  0.0761 -0.3717
 5472W        W 9536  10.657   8.543   2.599  0.1717 -0.1900 -0.2470
 5473W        W 9537   4.327   4.570   0.135  0.0462  0.0850 -0.0665
 5474W        W 9538  10.204   1.121  10.027  0.1600 -0.0364  0.0588
 5475W        W 9539   8.002   0.707  10.808 -0.3422 -0.0773 -0.0789
 5476W        W 9540   0.284   7.503   3.593  0.1098  0.0056  0.1785
 5477W        W 9541   2.732  10.332   2.960 -0.2714  0.2604 -0.2235
 5478W        W 9542   2.394   6.966   8.660 -0.2554 -0.1774 -0.1258
 5479W        W 9543   3.252   4.910   8.196  0.0144  0.1521 -0.2208
 5480W        W 9544   1.130   1.477  10.483 -0.1610 -0.2737 -0.2189
 5481W        W 9545   9.568   1.571   1.818  0.0408  0.2155 -0.3714
 5482W        W 9546  10.026   4.037   0.129  0.0076 -0.0045 -0.1413
 5483W        W 9547   1.062   3.245   9.697  0.0259  0.1850  0.1288
 5484W        W 9548   4.044   6.834  10.562  0.1102  0.0297  0.3619
 5485W        W 9549   1.030   0.852  11.092 -0.1337  0.0519  0.1058
 5486W        W 9550   8.569   2.658   2.580 -0.0950 -0.1448 -0.3818
 5487W        W 9551   2.972   6.762   1.600  0.0681  0.1270  0.1460
 5488W        W 9552   4.146   6.330   2.813 -0.0254  0.2064  0.0102
 5489W        W 9553   1.915   3.719   3.104 -0.0452 -0.0825 -0.1633
 5490W        W 9554   3.421   0.937   8.739 -0.2926 -0.0339 -0.0469
 5491W        W 9555  10.161   1.974   9.084 -0.2418  0.3723  0.1181
 5492W        W 9556   9.221   4.658   9.874 -0.0961  0.1727 -0.2035
 5493W        W 9557   5.937   4.366   0.898  0.0177 -0.1647  0.0142
 5494W        W 9558   7.992   2.286   3.585 -0.2428  0.1555  0.0324
 5495W        W 9559   1.283   1.097   1.608  0.0764  0.0530 -0.0894
 5496W        W 9560   9.392   0.326   8.573 -0.0698 -0.0534 -0.0214
 5497W        W 9561   4.115   8.008   0.241  0.0795 -0.0393  0.1628
 5498W        W 9562   7.200   8.662   0.748 -0.1672  0.1204  0.0086
 5499W        W 9563   2.648   4.771   1.144 -0.1077  0.0831 -0.2325
 5500W        W 9564   3.415   8.413   2.271 -0.1388  0.3110  0.0464
 5501W        W 9565   0.323   7.366   9.828 -0.1703  0.0183 -0.2003
 5502W        W 9566   0.297   8.965   2.489 -0.1275  0.0081  0.1468
 5503W        W 9567   3.780  10.306  10.545 -0.0973 -0.1384 -0.1231
 5504W        W 9568   9.748   3.261   1.039 -0.3999 -0.3007 -0.2180
 5505W        W 9569   0.804   8.126   1.413  0.0044 -0.2866 -0.0259
 5506W        W 9570   7.540   7.286   1.362  0.0357  0.0484  0.0838
 5507W        W 9571   7.510   3.692   8.167 -0.1632 -0.1160  0.1611
 5508W        W 9572   6.058   5.111   9.837  0.0806  0.3712  0.2808
 5509W        W 9573   6.917   1.793   8.443 -0.0052 -0.3132 -0.1069
 5510W        W 9574   8.524   4.308   2.952 -0.2009 -0.0879  0.1006
 5511W        W 9575   6.282   8.275   9.312  0.3579 -0.1033 -0.1812
 5512W        W 9576   9.492   2.375   1.112  0.0540 -0.3263 -0.0313
 5513W        W 9577   5.431   9.674  11.163 -0.2358  0.1533 -0.0212
 5514W        W 9578   1.778   9.793   3.889 -0.2671 -0.1134  0.1328
 5515W        W 9579   7.600   5.498   8.610  0.1821 -0.0863  0.1806
 5516W        W 9580   2.607   9.062   8.705 -0.3587 -0.0844  0.4132
 5517W        W 9581   0.500   6.856   0.333  0.0602 -0.1732 -0.0215
 5518W        W 9582   5.078   8.051   9.441  0.1079 -0.0369  0.1348
 5519W        W 9583  10.213   7.183  10.235  0.2473  0.0498  0.2408
 5520W        W 9584   6.442   1.428   1.549 -0.2415  0.1269 -0.3655
 5521W        W 9585   2.541   2.080   0.421 -0.1763 -0.0189  0.1846
 5522W        W 9586   0.119   9.647   9.613 -0.0588 -0.1353  0.0319
 5523W        W 9587   0.349   1.919  11.192 -0.2714  0.0455 -0.1882
 5524W        W 9588   5.704   1.147  10.625 -0.0457 -0.0522 -0.0038
 5525W        W 9589   2.435   0.847  10.265 -0.1344  0.3157  0.2988
 5526W        W 9590  10.390   6.995   4.174  0.1040 -0.0913  0.1612
 5527W        W 9591   2.183   0.898   9.748  0.0335  0.0076 -0.0548
 5528W        W 9592   9.877   2.410   9.432  0.4229  0.3606 -0.0675
 5529W        W 9593   5.079   6.028   2.573 -0.0368 -0.2757 -0.0633
 5530W        W 9594   6.671   1.852   9.812  0.0654 -0.1693  0.1483
 5531W        W 9595   3.493   1.576  10.159  0.0950  0.0807 -0.0167
 5532W        W 9596   2.623   3.844  11.128 -0.2063 -0.0123 -0.2821
 5533W        W 9597   5.085   4.466  10.399  0.1451 -0.1834  0.1141
 5534W        W 9598   2.313   9.379   9.919 -0.0565  0.1660 -0.1912
 5535W        W 9599   8.922   5.430  10.558  0.0909  0.1704  0.0884
 5536W        W 9600   8.540   0.613  10.793  0.1444  0.3117 -0.0617
 5537W        W 9601  10.174  10.242   9.121 -0.0266  0.4348  0.3231
 5538W        W 9602   2.934   1.061   4.102  0.0737 -0.0438 -0.2858
 5539W        W 9603   2.107   7.248   7.745  0.3507 -0.2013 -0.4176
 5540W        W 9604   0.886   0.819   1.512  0.1455 -0.0870 -0.0628
 5541W        W 9605   2.831   6.223   9.040  0.0159  0.0684  0.0750
 5542W        W 9606   7.062   4.797  11.139 -0.0918 -0.1664 -0.1008
 5543W        W 9607   2.743   7.674   0.057  0.1623  0.2845 -0.1586
 5544W        W 9608   6.379   0.160   2.186  0.0068 -0.2264  0.0030
 5545W        W 9609   1.714   8.441   3.778  0.2419  0.5785 -0.1539
 5546W        W 9610   8.784   5.521  10.011  0.0754  0.0360  0.0299
 5547W        W 9611   8.632   0.400   3.015 -0.0852 -0.0610 -0.1707
 5548W        W 9612   6.447   0.882   1.410 -0.0198 -0.0771  0.1279
 5549W        W 9613   4.827   8.538   0.338  0.0466  0.4613 -0.0314
 5550W        W 9614   1.325   7.190   9.663  0.3028 -0.0602  0.0332
 5551W        W 9615   1.319   1.624   3.102  0.2083  0.1025 -0.2127
 5552W        W 9616   8.611   6.712   9.663  0.1609 -0.1090 -0.1170
 5553W        W 9617   6.428   2.337   7.870  0.2988 -0.3873 -0.2550
 5554W        W 9618   0.014   5.130  10.927  0.0180 -0.0328 -0.0860
 5555W        W 9619   0.147   8.418   0.002 -0.1690 -0.0067 -0.2177
 5556W        W 9620   9.946   2.952   2.323 -0.1822  0.2024  0.2572
 5557W        W 9621   4.236   0.742   1.470 -0.0920  0.0514 -0.1959
 5558W        W 9622   2.583   4.073   1.154  0.0367  0.3557 -0.1217
 5559W        W 9623   3.512   5.313   8.256  0.2063  0.0787 -0.2586
 5560W        W 9624   5.692  10.197   8.833 -0.2896 -0.3161 -0.1743
 5561W        W 9625   6.829   6.030   1.895 -0.0790  0.1085  0.3343
 5562W        W 9626   1.174   8.240   3.125 -0.3673  0.0066 -0.4768
 5563W        W 9627   4.267   0.422  10.941  0.2233 -0.1924  0.1832
 5564W        W 9628   3.646   4.275   0.560  0.1718  0.2900  0.2205
 5565W        W 9629   8.052   5.096  10.450  0.2298 -0.2965  0.0169
 5566W        W 9630   3.116  10.490   3.525  0.0521 -0.1393 -0.2920
 5567W        W 9631   9.888   7.310   0.020 -0.0367  0.3489  0.2240
 5568W        W 9632  10.284   4.644   2.233 -0.0875  0.0562 -0.4021
 5569W        W 9633   2.742   0.237   0.260  0.0797  0.2712 -0.0127
 5570W        W 9634   8.583   7.571   1.602 -0.0718 -0.0139  0.1159
 5571W        W 9635   7.218   7.165   9.553  0.2423  0.0223  0.0516
 5572W        W 9636   3.238  10.119   3.112 -0.1595  0.2068 -0.3009
 5573W        W 9637   8.843   5.343   3.105 -0.1100 -0.1112  0.2525
 5574W        W 9638   4.132   1.673   9.519 -0.1838  0.2859  0.0844
 5575W        W 9639   8.378   6.308  10.051  0.0503  0.0644  0.3350
 5576W        W 9640   3.900   6.350  10.560  0.2165 -0.0389 -0.1292
 5577W        W 9641   8.810   4.232   9.316  0.1828 -0.3000  0.3768
 5578W        W 9642   7.175  10.376  10.016 -0.2135 -0.0796  0.2852
 5579W        W 9643   4.679   8.758   3.307 -0.2320 -0.1481 -0.7559
 5580W        W 9644   9.499   5.725   2.147  0.1442  0.1569  0.0913
 5581W        W 9645   4.173   1.445  10.731 -0.2671  0.1037 -0.1182
 5582W        W 9646  10.506   6.454   8.516  0.1766 -0.0156 -0.0706
 5583W        W 9647   8.515   0.665   9.518  0.1245  0.2442 -0.0319
 5584W        W 9648   2.908   6.071   3.481 -0.1887 -0.3590  0.0841
 5585W        W 9649   5.970   3.831   0.886  0.0215  0.1393  0.2033
 5586W        W 9650   1.376   5.855  10.190 -0.0810 -0.1328  0.3472
 5587W        W 9651   6.869   2.517   0.790  0.2777  0.1004  0.3083
 5588W        W 9652   4.139   2.091   8.702  0.3346 -0.2047  0.0340
 5589W        W 9653   6.417   9.312   1.344  0.1080 -0.0685 -0.1632
 5590W        W 9654   2.295   6.153   8.410 -0.0215 -0.1005 -0.0356
 5591W        W 9655   9.380   1.448   0.243 -0.2277 -0.0477 -0.2452
 5592W        W 9656   7.218   6.389   8.892  0.3374 -0.0836  0.0287
 5593W        W 9657   5.566   4.714   9.946 -0.0886  0.1869  0.0291
 5594W        W 9658   9.810   4.292  11.234  0.0700 -0.0742 -0.3649
 5595W        W 9659   2.836   2.216  10.136 -0.0476 -0.2371  0.2316
 5596W        W 9660   5.828   7.707  11.063  0.0104 -0.1778 -0.0863
 5597W        W 9661   0.423   0.092  11.466  0.0546  0.2013  0.0127
 5598W        W 9662   5.615   7.716   2.641 -0.0128  0.1929  0.0587
 5599W        W 9663   2.763   1.110   1.125 -0.4864  0.1122  0.0844
 5600W        W 9664   1.038   5.778   3.222  0.1030 -0.1676  0.2232
 5601W        W 9665   9.625   0.884   3.013  0.0816  0.0085  0.0541
 5602W        W 9666   0.873   2.798   2.392 -0.4091 -0.0261  0.1017
 5603W        W 9667   1.076   0.522   2.320  0.1415  0.0574 -0.2465
 5604W        W 9668   3.636   4.896   0.007 -0.0858 -0.1676  0.1644
 5605W        W 9669   9.396   9.662   2.399 -0.2430  0.1816 -0.0192
 5606W        W 9670   5.456   4.255   1.754 -0.0391  0.1058  0.2928
 5607W        W 9671   2.164   5.349   0.064  0.0954  0.0474 -0.0491
 5608W        W 9672  10.294   3.697   0.366  0.0124 -0.1267  0.2767
 5609W        W 9673   5.131   8.460   9.795 -0.3522 -0.2516 -0.0918
 5610W        W 9674   2.830   7.703   4.200  0.0973  0.1965  0.1304
 5611W        W 9675   4.788   0.276   3.205 -0.2077 -0.0156 -0.1150
 5612W        W 9676   2.855   0.479   2.700  0.1052 -0.1126  0.1653
 5613W        W 9677   2.133   8.093   3.466 -0.0567  0.2621 -0.1461
 5614W        W 9678   2.781   4.622  10.689 -0.0292  0.0391  0.1871
 5615W        W 9679   2.633   1.205   4.453 -0.1526  0.3591  0.0387
 5616W        W 9680   1.564   9.329   2.248 -0.0754  0.1765  0.0589
 5617W        W 9681   8.793   4.630  10.265 -0.2194 -0.2424  0.0872
 5618W        W 9682   1.502  10.165   8.971 -0.0138 -0.1370  0.2497
 5619W        W 9683   7.453   2.276   8.953 -0.2273 -0.3806  0.0912
 5620W        W 9684   8.745   1.173   0.848  0.1586  0.0291  0.1189
 5621W        W 9685   2.012   8.934  10.966  0.3229  0.1478 -0.0075
 5622W        W 9686   3.582   1.382   1.161  0.3091  0.0301  0.1775
 5623W        W 9687   7.745   3.265   4.050  0.3775 -0.1804 -0.1079
 5624W        W 9688  10.405   3.029  10.352  0.0844 -0.0559 -0.0935
 5625W        W 9689   9.708   2.439   1.612 -0.1150 -0.1824  0.2052
 5626W        W 9690   3.545   8.027  11.160 -0.2368  0.1523  0.0472
 5627W        W 9691   1.543  10.556   9.418  0.1769 -0.1506 -0.0098
 5628W        W 9692   7.078   0.285   0.374 -0.3418 -0.0225 -0.1324
 5629W        W 9693   7.642  10.395  10.134 -0.2032  0.1716 -0.1586
 5630W        W 9694   8.192   4.484   9.289  0.1159  0.0629  0.0061
 5631W        W 9695   0.221  10.554  10.080 -0.0666 -0.1375 -0.1630
 5632W        W 9696   3.500   0.022  10.356 -0.0992  0.0327 -0.1314
 5633W        W 9697   4.749   8.138   8.507  0.0542 -0.2267 -0.2638
 5634W        W 9698   4.667   5.915   7.682 -0.1480  0.0609 -0.6081
 5635W        W 9699   6.059   2.660   7.632 -0.0071  0.0864  0.1556
 5636W        W 9700   8.566   6.099   1.159 -0.1829 -0.3634 -0.1387
 5637W        W 9701  10.564   5.694   0.496  0.0275 -0.3014 -0.2875
 5638W        W 9702   0.707   8.192  10.728 -0.0318 -0.0147  0.2832
 5639W        W 9703   3.929   8.826   0.631  0.1271 -0.2580 -0.0676
 5640W        W 9704   7.910   8.493  11.077  0.4824 -0.2933 -0.0505
 5641W        W 9705   7.047   5.619   1.414 -0.2141 -0.1677  0.2506
 5642W        W 9706   7.499   7.476   2.737 -0.0148  0.0791 -0.0425
 5643W        W 9707   7.531   1.989   9.441  0.3156  0.0892  0.1366
 5644W        W 9708   2.702   0.613   1.176 -0.1147 -0.4219 -0.0917
 5645W        W 9709   3.210   2.806  10.757 -0.0506 -0.2022  0.1066
 5646W        W 9710  10.256   7.634   0.351 -0.2420  0.3453  0.1308
 5647W        W 9711   4.104   6.375  10.116 -0.2497 -0.1302  0.0160
 5648W        W 9712   9.169   6.742   8.306  0.0903  0.0058 -0.2969
 5649W        W 9713   2.165   2.148   8.213  0.1550  0.0915 -0.0231
 5650W        W 9714   3.411   8.180   3.610  0.1071 -0.1030 -0.1048
 5651W        W 9715   4.651   0.024   3.777  0.1648  0.2259  0.1039
 5652W        W 9716   2.270   9.254   0.749 -0.0723 -0.2023 -0.1293
 5653W        W 9717   9.049   4.726   1.024  0.0121  0.0015  0.0828
 5654W        W 9718  10.348  10.619   7.813 -0.2254  0.0943 -0.1385
 5655W        W 9719   0.946  10.363   8.343 -0.1500 -0.0947 -0.0203
 5656W        W 9720   6.861   5.512   9.269  0.2639 -0.1413  0.2573
 5657W        W 9721   4.684   8.383   8.067  0.1899  0.2433 -0.4740
 5658W        W 9722   2.734   5.909   0.346  0.2771 -0.0525 -0.2690
 5659W        W 9723   4.031   6.492  11.015 -0.1049 -0.2436 -0.1869
 5660W        W 9724   3.937   5.863   8.671 -0.3099 -0.0165 -0.3870
 5661W        W 9725   9.903   8.620   1.142  0.0733  0.0525  0.0193
 5662W        W 9726   2.982   3.088   3.784  0.0805 -0.0306  0.0208
 5663W        W 9727   3.958   1.979   0.458 -0.2136  0.2195  0.2832
 5664W        W 9728   0.779   1.531   3.454  0.1209  0.1102  0.2704
 5665W        W 9729   2.102   3.725   0.390  0.0324  0.0943 -0.1859
 5666W        W 9730   2.960   8.847   3.212 -0.4387 -0.2577  0.1113
 5667W        W 9731   7.151   7.774  10.471 -0.0975  0.2148 -0.1334
 5668W        W 9732  10.264   9.654   9.366 -0.2899 -0.0581  0.1253
 5669W        W 9733   7.235   2.817   2.134 -0.1164  0.0329  0.0403
 5670W        W 9734   6.102   0.522   1.361 -0.0573  0.0861  0.1917
 5671W        W 9735   9.991   4.046   7.964  0.1241  0.2517 -0.1876
 5672W        W 9736   1.242   9.238   1.018  0.0420  0.2027  0.3281
 5673W        W 9737   5.237   6.984   1.255  0.0032 -0.0258 -0.0546
 5674W        W 9738   5.410   8.633   3.400  0.0061 -0.2853  0.2075
 5675W        W 9739   1.036   5.395   9.449 -0.1646  0.3082 -0.4562
 5676W        W 9740   3.911  10.602   2.996  0.0348 -0.0951 -0.2886
 5677W        W 9741   6.818   7.477   9.626 -0.2355  0.0601  0.1090
 5678W        W 9742   4.981   0.336  11.256  0.1198 -0.0552 -0.0666
 5679W        W 9743   2.332   2.911  10.445  0.1419  0.2828  0.0574
 5680W        W 9744   1.906   2.652   2.430 -0.0796 -0.0946  0.1867
 5681W        W 9745   4.825  10.553  10.300  0.0839 -0.0086 -0.3530
 5682W        W 9746   0.127   2.414   8.633  0.3713 -0.2336 -0.0449
 5683W        W 9747   0.998   3.698   8.863  0.1303 -0.0505 -0.1001
 5684W        W 9748   1.386   7.563   3.183 -0.5013  0.2147 -0.0556
 5685W        W 9749  10.071   8.010  10.120  0.0883  0.0020 -0.1758
 5686W        W 9750   1.252   2.401   2.385  0.0006 -0.1481  0.2174
 5687W        W 9751   3.531   7.304  11.172  0.3054 -0.2310  0.0205
 5688W        W 9752   9.065   7.922   9.742 -0.2336  0.0801 -0.4531
 5689W        W 9753   2.854   8.727   9.520  0.4209 -0.2281 -0.1417
 5690W        W 9754   4.938   3.400   8.324  0.1086  0.1944  0.1311
 5691W        W 9755   6.005   9.642  10.722  0.5071 -0.0790 -0.5330
 5692W        W 9756   0.609   9.160   2.189 -0.0399 -0.0257  0.0025
 5693W        W 9757  10.481   0.698   2.921 -0.3997 -0.1112 -0.0618
 5694W        W 9758   2.478   1.080   8.821 -0.0345  0.1289 -0.1948
 5695W        W 9759   1.800   6.171   3.451  0.1091 -0.1520  0.1494
 5696W        W 9760   9.851   1.845   2.333  0.2389 -0.3095 -0.1752
 5697W        W 9761   1.129   5.515   8.881 -0.1872 -0.1457 -0.1774
 5698W        W 9762   9.768   7.875   0.139 -0.2529 -0.1238 -0.1005
 5699W        W 9763   8.615   4.769   9.293 -0.0824  0.1951 -0.1065
 5700W        W 9764   9.657   4.930   9.208 -0.1325 -0.0457  0.4369
 5701W        W 9765   4.520   6.540   1.550  0.2160  0.3072 -0.0219
 5702W        W 9766   8.805   0.889   1.854  0.2758  0.0284  0.0675
 5703W        W 9767   2.860   7.559   3.707  0.0634 -0.0676  0.0988
 5704W        W 9768   3.292   4.935   2.873  0.0077  0.0583  0.0821
 5705W        W 9769   3.802   8.553   2.574 -0.0504  0.1903  0.0737
 5706W        W 9770   1.867   9.864   8.941  0.1432  0.2057  0.1362
 5707W        W 9771   5.635   2.247   0.944  0.0390  0.0084  0.0562
 5708W        W 9772   6.317   0.074   1.631  0.3160 -0.1342  0.0792
 5709W        W 9773   1.241   1.633   0.247 -0.0075  0.3880  0.1816
 5710W        W 9774  10.105   3.293   0.554  0.2737  0.1674  0.2201
 5711W        W 9775   1.608   6.284   8.673 -0.2085  0.1798  0.1073
 5712W        W 9776   7.551   3.807   9.185 -0.0344 -0.0757  0.3585
 5713W        W 9777   9.226   7.554   1.770 -0.0206 -0.2325  0.0509
 5714W        W 9778   1.867   5.379   0.972 -0.0467  0.1091  0.1950
 5715W        W 9779   0.359   8.418   3.632 -0.3776 -0.0949  0.0275
 5716W        W 9780   3.416   5.269   0.271 -0.0352  0.1221  0.1365
 5717W        W 9781   4.588   7.331  11.090 -0.0272  0.1877  0.0207
 5718W        W 9782   4.863   4.054   9.799  0.0780  0.0457  0.1482
 5719W        W 9783   6.288   7.048   0.364  0.0891  0.0310  0.4298
 5720W        W 9784   2.894   7.197   1.760 -0.0005  0.2515 -0.1003
 5721W        W 9785   9.636   0.505   3.931 -0.3339 -0.0508 -0.0222
 5722W        W 9786  10.524   4.333  10.764 -0.0108 -0.1273 -0.1216
 5723W        W 9787   2.572   6.954   3.408  0.2611 -0.3158  0.2002
 5724W        W 9788   1.936   5.556   8.560 -0.0456 -0.0347  0.3364
 5725W        W 9789  10.378   5.979   8.212 -0.1248  0.1114 -0.0375
 5726W        W 9790   3.651   9.943   8.515  0.2380  0.1473 -0.0214
 5727W        W 9791   8.591   9.285   1.435  0.5111 -0.2077  0.2870
 5728W        W 9792   4.089   4.147   0.252  0.1340  0.2502 -0.0181
 5729W        W 9793   3.575   8.401   9.370 -0.1104 -0.2427  0.4498
 5730W        W 9794   3.385   1.062  10.177 -0.3464 -0.0152  0.0874
 5731W        W 9795   8.165   8.190  10.796 -0.0850 -0.0813  0.3456
 5732W        W 9796   6.486   4.851  10.003  0.1618 -0.3164 -0.1040
 5733W        W 9797   0.960   3.368   7.793  0.2115 -0.1046  0.1672
 5734W        W 9798   6.734   7.744  10.118 -0.0635 -0.2569 -0.1240
 5735W        W 9799   0.409   3.098   0.492 -0.0353 -0.1764  0.2053
 5736W        W 9800   3.893   1.544   8.489 -0.0446 -0.1030  0.1765
 5737W        W 9801  10.048   2.967  10.741 -0.1211  0.2093  0.1507
 5738W        W 9802   5.263   6.855  10.990 -0.1571  0.1598 -0.0866
 5739W        W 9803   4.748   6.914   2.446 -0.0275 -0.0193 -0.2018
 5740W        W 9804   5.941   0.241  11.217 -0.1618  0.0693  0.1234
 5741W        W 9805   7.315   7.574   0.594  0.0482  0.4411 -0.0721
 5742W        W 9806   4.457   7.682  10.781 -0.2984 -0.3351  0.2774
 5743W        W 9807  10.257   2.339   3.619  0.1438 -0.0309 -0.2673
 5744W        W 9808   9.847   8.825   9.530 -0.0075 -0.0612 -0.1759
 5745W        W 9809   5.470   6.727   9.126 -0.3656 -0.3781 -0.0921
 5746W        W 9810   3.695   3.684   8.331  0.0130 -0.0745 -0.1187
 5747W        W 9811   2.048   2.220   2.269  0.1791 -0.0037 -0.3162
 5748W        W 9812   1.327   8.028   9.175 -0.0262 -0.0546 -0.1996
 5749W        W 9813   1.893  10.481   0.085 -0.1298 -0.1990  0.0156
 5750W        W 9814   9.663   6.311   9.118 -0.0068 -0.2573 -0.1562
 5751W        W 9815   5.297   7.652  11.283 -0.0222 -0.1255 -0.0532
 5752W        W 9816  10.056   7.474   0.838 -0.2526 -0.1893  0.0149
 5753W        W 9817   9.386   8.916  11.278 -0.2485  0.0861  0.1235
 5754W        W 9818   0.008   3.205   2.982 -0.0112 -0.2393 -0.0191
 5755W        W 9819   7.703   8.495   9.586 -0.1615  0.1038 -0.6167
 5756W        W 9820  10.369   2.528   0.106  0.0128  0.0535 -0.0659
 5757W        W 9821   4.261   5.799   3.878  0.0074 -0.3879  0.1039
 5758W        W 9822   8.775   1.871   2.732  0.2158 -0.1032 -0.2298
 5759W        W 9823  10.170  10.144   3.243  0.0906  0.2474  0.2025
 5760W        W 9824   6.199   9.461   9.675 -0.0576  0.0466  0.4551
 5761W        W 9825   6.633   1.733  10.884 -0.2617 -0.2189 -0.2340
 5762W        W 9826   5.234   6.828   9.532 -0.3356 -0.2797  0.2917
 5763W        W 9827   9.018   7.391  10.378  0.0294 -0.1797  0.1573
 5764W        W 9828   4.389   0.024   8.983 -0.5383 -0.1470 -0.0332
 5765W        W 9829   1.902   2.160   3.649 -0.0100 -0.1270  0.0454
 5766W        W 9830   6.364   5.468  11.066  0.0840  0.2104  0.0299
 5767W        W 9831   3.334   8.978   9.798  0.1215  0.0722  0.0939
 5768W        W 9832   3.905   2.628   2.796  0.4866  0.1753 -0.1015
 5769W        W 9833   4.453   5.562   2.490  0.1183  0.2486 -0.0913
 5770W        W 9834   8.995   7.130   1.085  0.2133 -0.1291 -0.3149
 5771W        W 9835   8.658   1.110   3.250  0.0626 -0.0723  0.1432
 5772W        W 9836   1.304   4.900  10.298  0.3641  0.0122  0.1531
 5773W        W 9837   6.937   1.378  11.060 -0.0591  0.2273 -0.1824
 5774W        W 9838   3.390   6.642   2.369  0.0376  0.2459 -0.0980
 5775W        W 9839   9.244  10.347   2.687 -0.0260  0.2341 -0.0477
 5776W        W 9840   7.566   1.894   1.929 -0.0585 -0.0925 -0.4562
 5777W        W 9841  10.371   8.301   1.870 -0.0108 -0.0913  0.5410
 5778W        W 9842  10.379   9.046   1.246 -0.0699 -0.2327  0.4262
 5779W        W 9843   6.074   7.667   8.578 -0.0865 -0.3076  0.1225
 5780W        W 9844   9.578  10.473  10.247  0.0756  0.1014  0.1509
 5781W        W 9845  10.464   9.742   0.568 -0.0579 -0.1300 -0.4658
 5782W        W 9846   2.132   7.930   2.005 -0.3967  0.1948 -0.0934
 5783W        W 9847  10.020   9.411   2.105  0.0699 -0.0446 -0.2274
 5784W        W 9848   7.736  10.553   9.319 -0.1339  0.1531  0.1870
 5785W        W 9849   9.106   6.013   1.157 -0.1558  0.0080 -0.0079
 5786W        W 9850   1.776   1.027   1.534 -0.1718  0.1473 -0.3455
 5787W        W 9851   9.757   2.080   3.790  0.2216 -0.0361  0.1007
 5788W        W 9852   2.096   7.976   0.323  0.1415 -0.0329  0.0335
 5789W        W 9853   6.436   8.793   9.048  0.1473  0.0805 -0.2049
 5790W        W 9854   0.796   5.471  10.031  0.1158  0.1484  0.1497
 5791W        W 9855   4.619   3.403  11.414  0.0394 -0.2831 -0.0909
 5792W        W 9856   3.787   4.717   9.367 -0.0665  0.0560 -0.4996
 5793W        W 9857   7.620   6.844   3.085  0.0155 -0.4246  0.1768
 5794W        W 9858   8.022   4.472   0.188 -0.0553 -0.0819 -0.1326
 5795W        W 9859   3.554   7.472   8.429  0.0311 -0.1398 -0.0749
 5796W        W 9860   5.890   5.323   2.267  0.0015 -0.2475 -0.1685
 5797W        W 9861   3.934   0.116  11.206 -0.0585 -0.1906 -0.0057
 5798W        W 9862   7.121   3.401   8.807 -0.0621 -0.3349  0.0017
 5799W        W 9863   6.238   6.001   3.330 -0.1342 -0.0649  0.1312
 5800W        W 9864   9.639   4.997   3.376  0.1618 -0.3027 -0.0910
 5801W        W 9865   0.886   2.727   9.764 -0.1229  0.1041 -0.1316
 5802W        W 9866   7.031   3.854  11.277 -0.0917 -0.0098  0.0298
 5803W        W 9867  10.105   8.906   0.276 -0.1055  0.1908  0.0302
 5804W        W 9868   3.696  10.632   9.427  0.1442  0.3167  0.2965
 5805W        W 9869   6.831   3.413   0.002  0.3827 -0.2196 -0.0036
 5806W        W 9870   7.040   4.740   1.045 -0.1773  0.0358  0.0883
 5807W        W 9871   9.538  10.497   9.742  0.1076  0.3275 -0.1090
 5808W        W 9872  10.499   8.246   9.545  0.0442 -0.0490  0.2527
 5809W        W 9873   7.020   1.142   7.829  0.0333 -0.0761 -0.0344
 5810W        W 9874   8.547   6.935   3.462  0.0619  0.0105  0.1401
 5811W        W 9875   5.858   4.666  10.699 -0.1531  0.0435  0.0528
 5812W        W 9876   1.452   9.233   0.062 -0.1733 -0.1087  0.0108
 5813W        W 9877   1.206   3.806  11.014 -0.0912  0.2814  0.0465
 5814W        W 9878   5.581  10.367   1.332  0.0724 -0.3742 -0.3428
 5815W        W 9879   7.997   7.984   2.312 -0.0456 -0.3099  0.0516
 5816W        W 9880   3.966   8.500   8.639  0.1241 -0.0933  0.0539
 5817W        W 9881   8.415   5.109   3.417  0.0545 -0.2183 -0.0688
 5818W        W 9882   4.496   9.358  10.449 -0.1844  0.0841 -0.2498
 5819W        W 9883   9.944   7.881   3.412 -0.0217 -0.2869 -0.1302
 5820W        W 9884   4.498   8.921  10.911  0.4598 -0.0744  0.3864
 5821W        W 9885   8.589   9.095   9.585  0.0022 -0.1928  0.2345
 5822W        W 9886   2.178   3.157   2.232  0.2199 -0.0312 -0.2814
 5823W        W 9887   3.569  10.302   0.736  0.3386 -0.1824 -0.1788
 5824W        W 9888   9.234   7.447   0.713 -0.1156  0.2027 -0.1426
 5825W        W 9889   7.185   8.501   8.295 -0.0203  0.1363 -0.0254
 5826W        W 9890   2.469   1.479   8.575 -0.2044 -0.4355 -0.1875
 5827W        W 9891   6.249   3.296   3.034  0.0232 -0.0202  0.0601
 5828W        W 9892   3.227   8.345  10.235 -0.0852  0.0378  0.2734
 5829W        W 9893   4.764   1.758  11.467  0.3265 -0.0803 -0.3064
 5830W        W 9894   1.210   2.319   9.855  0.1505  0.1327 -0.0452
 5831W        W 9895   5.066   0.873  11.031  0.1524  0.1399 -0.3472
 5832W        W 9896   9.367   0.980   9.325 -0.1620  0.2045 -0.2074
 5833W        W 9897   8.094   3.056   8.873 -0.1550 -0.2476 -0.1871
 5834W        W 9898   6.842   8.791  10.214  0.1677 -0.0942 -0.0953
 5835W        W 9899   7.294   7.409   3.885 -0.1834 -0.2470 -0.1100
 5836W        W 9900   8.154   2.323   0.811  0.0817 -0.2465 -0.3499
 5837W        W 9901   2.315   2.688   8.436  0.2188  0.2179 -0.0977
 5838W        W 9902   2.630   0.443   2.236  0.3408  0.2101  0.1430
 5839W        W 9903  10.058   6.540   3.287  0.0586 -0.0542  0.3570
 5840W        W 9904   2.213   6.919   1.017  0.2706 -0.0168  0.2715
 5841W        W 9905   8.334   6.603  11.350  0.0288  0.0681 -0.0235
 5842W        W 9906   5.621   3.736   1.758  0.1768  0.0018  0.4661
 5843W        W 9907   9.360  10.393   2.074 -0.2979 -0.0620  0.1156
 5844W        W 9908   2.994   3.176  11.062 -0.0214  0.2813  0.2594
 5845W        W 9909   4.210   5.383   2.919  0.0093 -0.1117 -0.0937
 5846W        W 9910   0.191   3.311   1.487 -0.0162  0.2012 -0.1530
 5847W        W 9911   5.336   3.442   2.228 -0.1457  0.0079  0.1182
 5848W        W 9912   7.367   8.456  10.976  0.1295 -0.1271 -0.0117
 5849W        W 9913   1.663   2.712   7.971  0.1076 -0.0225 -0.0690
 5850W        W 9914  10.205   6.355   1.623  0.1292  0.0727  0.0086
 5851W        W 9915   8.894   1.178   1.386 -0.1056 -0.2899  0.0260
 5852W        W 9916   7.617   4.748   0.864 -0.0067 -0.0700 -0.1548
 5853W        W 9917   8.509   5.124  11.193 -0.1349  0.3031  0.0119
 5854W        W 9918   0.028   1.646   8.508 -0.0143 -0.0182  0.0732
 5855W        W 9919   9.144   9.759   9.129 -0.2924  0.0212 -0.0044
 5856W        W 9920   9.985   3.180   8.430  0.2075 -0.5243  0.0831
 5857W        W 9921   3.795   2.646   8.202  0.1676  0.1149  0.1698
 5858W        W 9922   2.860   3.121   4.338 -0.0960 -0.1269  0.0720
 5859W        W 9923   2.149   1.757  10.367  0.4300  0.1904  0.3261
 5860W        W 9924   3.095   9.642   1.805  0.3163  0.1571 -0.1595
 5861W        W 9925  10.250   3.034   9.382  0.2406 -0.1601 -0.0860
 5862W        W 9926   4.426   9.514   2.965  0.0173  0.1296  0.0416
 5863W        W 9927   8.775   3.573   8.837 -0.0176 -0.2672  0.2095
 5864W        W 9928   5.510   5.087   9.664 -0.2421  0.2679  0.1582
 5865W        W 9929   8.274   1.485   9.763  0.0830 -0.0490  0.1324
 5866W        W 9930   5.007   2.778   9.972  0.1632  0.2040  0.0126
 5867W        W 9931   7.579   8.963   1.910 -0.0785 -0.0946 -0.1310
 5868W        W 9932  10.024   1.315   4.117  0.0408 -0.3362 -0.2562
 5869W        W 9933   1.910   5.475   1.517 -0.1334  0.0142  0.0536
 5870W        W 9934   6.882   3.093   8.005  0.2277 -0.0664  0.1629
 5871W        W 9935   0.483   8.945   3.763 -0.1662 -0.1178 -0.3865
 5872W        W 9936   2.079   7.689   2.577 -0.2629 -0.3530 -0.2274
 5873W        W 9937   8.157   5.365   8.797 -0.0878 -0.2375  0.0322
 5874W        W 9938  10.341   6.146   2.671  0.0619 -0.3187  0.2640
 5875W        W 9939   2.248   3.117   1.692  0.4047  0.0007  0.2219
 5876W        W 9940   4.993   7.603  10.793  0.0516 -0.0322  0.0721
 5877W        W 9941   5.035   7.822   8.962 -0.4802 -0.1885  0.2410
 5878W        W 9942   4.405   3.963   1.609 -0.4600  0.1486 -0.0854
 5879W        W 9943   5.135   8.624  10.809 -0.1032 -0.0261 -0.1062
 5880W        W 9944   9.419   9.497  10.507 -0.1650 -0.1780 -0.1705
 5881W        W 9945   8.710   0.221   9.749  0.3467  0.3863  0.1330
 5882W        W 9946   8.454   7.774   2.443 -0.1034  0.1569 -0.0309
 5883W        W 9947   2.298   6.614   9.099  0.2999  0.4596 -0.0969
 5884W        W 9948   9.393  10.152   0.465 -0.3173 -0.0661  0.1374
 5885W        W 9949   8.680   5.651   8.518 -0.0503 -0.1122  0.1888
 5886W        W 9950   2.850   2.058   9.633 -0.0322  0.1088 -0.3189
 5887W        W 9951  10.030   6.619  10.990  0.2312  0.1490  0.0584
 5888W        W 9952   9.727  10.601  10.723  0.0674  0.1064 -0.1012
 5889W        W 9953   9.064   3.886   0.968  0.1394 -0.0899  0.1691
 5890W        W 9954   2.668   6.901   9.380  0.2831 -0.2208 -0.0526
 5891W        W 9955   2.804   7.525   1.314 -0.2140 -0.0241  0.4872
 5892W        W 9956   2.069   7.766   1.367  0.1823 -0.3216  0.1195
 5893W        W 9957   6.957   3.776   9.592  0.0628 -0.0884 -0.2329
 5894W        W 9958   5.788   8.468   0.124 -0.1394  0.0788  0.1701
 5895W        W 9959   0.358   2.116   2.858  0.1471 -0.0179 -0.2468
 5896W        W 9960   6.931   1.214   1.510 -0.1577  0.5268  0.0159
 5897W        W 9961   9.760   0.803  10.076  0.0379 -0.1212  0.1624
 5898W        W 9962   7.294   0.824   2.781  0.2541 -0.1213  0.3004
 5899W        W 9963   4.767   0.096   1.215  0.0574 -0.5657 -0.1820
 5900W        W 9964   1.282   1.382   3.637 -0.1731 -0.1623 -0.4076
 5901W        W 9965   5.978   1.673   0.295 -0.1410  0.2447  0.0109
 5902W        W 9966   3.122   5.431   2.741 -0.1427  0.0231  0.1297
 5903W        W 9967   5.532   7.997   0.004 -0.3737 -0.0167  0.3501
 5904W        W 9968   4.796   5.863   8.500  0.0183  0.0101 -0.0129
 5905W        W 9969   0.788   5.788  11.182  0.0098  0.2164 -0.0702
 5906W        W 9970   8.340   2.981   0.727  0.1528 -0.1097 -0.4711
 5907W        W 9971   9.404   6.133   9.951  0.0392  0.2173 -0.0110
 5908W        W 9972   7.680   2.921   8.586 -0.0067 -0.1350  0.0152
 5909W        W 9973   7.158   4.474  11.512  0.1785  0.1557  0.0937
 5910W        W 9974  10.638   0.637   1.653 -0.0986  0.1198  0.1130
 5911W        W 9975   3.301   6.514  11.495  0.3703 -0.1535  0.1625
 5912W        W 9976   7.341   8.486   3.635  0.1586 -0.1299  0.3882
 5913W        W 9977   6.236   6.874   3.069 -0.0223  0.2141 -0.2495
 5914W        W 9978  10.614   5.044   9.209  0.1045 -0.2822 -0.0299
 5915W        W 9979   7.562   0.444   0.088 -0.0899  0.0280 -0.0855
 5916W        W 9980   4.617   6.271  10.191  0.1665  0.0454  0.1427
 5917W        W 9981   4.726   1.339  11.151 -0.1606 -0.0339  0.1252
 5918W        W 9982   4.625   8.372   9.613 -0.1671  0.0723 -0.0507
 5919W        W 9983   7.496   2.245   3.776  0.0265  0.2359 -0.0621
 5920W        W 9984   0.625   3.180   2.133  0.1895 -0.3350  0.1762
 5921W        W 9985   9.701   6.853   4.086  0.1483  0.0659  0.2215
 5922W        W 9986   9.414   5.028   1.746  0.0400 -0.0603  0.1621
 5923W        W 9987   2.087   1.974   1.495 -0.1184 -0.1288  0.1785
 5924W        W 9988   2.833   6.576   3.598  0.2812 -0.3224 -0.1251
 5925W        W 9989   3.303   8.386   0.802 -0.1261 -0.0156 -0.0559
 5926W        W 9990   3.107   0.047   8.561  0.0982  0.2347  0.1760
 5927W        W 9991   0.152   8.614   1.104 -0.1819  0.4858 -0.0283
 5928W        W 9992   9.371   1.672   8.956 -0.2835  0.0702  0.0115
 5929W        W 9993   8.175   8.685   9.755 -0.2536  0.0369  0.2968
 5930W        W 9994   0.107   5.871  10.134 -0.1044  0.0881 -0.1926
 5931W        W 9995   9.768   6.186  11.039  0.3242 -0.2565 -0.2660
 5932W        W 9996   4.985   3.372   0.427 -0.2101 -0.1376  0.1357
 5933W        W 9997   3.121  10.599   0.618 -0.1234  0.1885 -0.0455
 5934W        W 9998  10.499   1.820   9.782  0.1073  0.0483  0.0226
 5935W        W 9999   6.811   1.515   0.530 -0.0203  0.1447 -0.1684
 5936W        W10000   0.985   7.689   1.531 -0.2225  0.1081 -0.2552
 5937W        W10001   4.332   5.100   8.709 -0.2776  0.0743 -0.0577
 5938W        W10002   1.171   4.510  10.778  0.1101  0.2848  0.2649
 5939W        W10003   7.611   8.922   9.790  0.1365 -0.1250 -0.3254
 5940W        W10004  10.527   3.705   9.141  0.1908 -0.1553  0.0590
 5941W        W10005   6.644   0.998   1.886 -0.1385  0.2994  0.2569
 5942W        W10006   8.578   9.161   2.552 -0.1065  0.2295 -0.3015
 5943W        W10007   8.496   1.982   1.038  0.2657  0.0353 -0.1623
 5944W        W10008   4.817   9.797   9.352  0.0098 -0.1761  0.0653
 5945W        W10009   1.914   9.500  10.166 -0.0098  0.3104  0.1119
 5946W        W10010  10.577   5.607  11.097  0.1989  0.0318 -0.2826
 5947W        W10011   3.256   7.194   8.111  0.1627  0.2320  0.4770
 5948W        W10012   3.120   3.048  10.106 -0.1576 -0.1632 -0.1822
 5949W        W10013   2.344   0.239   1.914 -0.0558  0.1412  0.1227
 5950W        W10014   4.741   3.307   7.325 -0.0311  0.0875 -0.1902
 5951W        W10015   1.890   3.444   1.945 -0.0605  0.3250  0.0784
 5952W        W10016   3.648   9.269   0.939 -0.0836 -0.0724 -0.1158
 5953W        W10017   1.630   1.468   9.232 -0.1709  0.0909  0.2033
 5954W        W10018   2.386   7.485  10.591 -0.3399  0.3512  0.0039
 5955W        W10019   3.379   1.130   0.226  0.1959  0.1062 -0.0496
 5956W        W10020   6.295   4.262   8.299 -0.2239 -0.1998 -0.1632
 5957W        W10021   7.931   0.541  11.314  0.0723 -0.0956  0.2642
 5958W        W10022   2.439  10.476   1.629 -0.1266 -0.1956  0.0815
 5959W        W10023   3.383   6.853  11.112 -0.2191 -0.0554 -0.4271
 5960W        W10024   3.990  10.364   1.303 -0.1851  0.2300  0.0991
 5961W        W10025   7.077   4.712   8.859  0.3002  0.0918  0.0539
 5962W        W10026   6.954   0.092   3.434  0.1116 -0.2153  0.0396
 5963W        W10027   2.767   5.804   0.894 -0.1718  0.0356 -0.4854
 5964W        W10028   4.288   7.838  11.347 -0.2642 -0.0513 -0.0979
 5965W        W10029   1.932   2.160  10.440 -0.1391  0.1494  0.4068
 5966W        W10030   5.624   3.057  11.429 -0.0746  0.1008  0.1680
 5967W        W10031   2.916   6.430  10.114  0.2654 -0.0551  0.2657
 5968W        W10032   3.770   4.269   9.724  0.0358  0.0872 -0.0706
 5969W        W10033   0.242   8.103   0.989 -0.0717 -0.2731  0.0704
 5970W        W10034   7.548   3.614  10.260 -0.0493  0.1889  0.0362
 5971W        W10035   4.520  10.358   0.430 -0.3569 -0.2407  0.1130
 5972W        W10036   0.832   9.936   0.474 -0.0156 -0.1290  0.0307
 5973W        W10037   3.343   7.401   1.677  0.1035 -0.0350 -0.0931
 5974W        W10038   3.991   4.686   0.953  0.1314  0.2890  0.0098
 5975W        W10039   7.592   9.796   9.517  0.1375  0.2844  0.1979
 5976W        W10040   0.974   3.060   3.730 -0.1451  0.1921  0.1300
 5977W        W10041   6.933  10.219   2.757  0.1746 -0.0247 -0.1346
 5978W        W10042   1.561   8.769   0.373  0.0800 -0.1286  0.1227
 5979W        W10043   6.328   8.798   2.440 -0.3125  0.1607  0.2774
 5980W        W10044   4.302   8.137   8.790 -0.0951  0.2860 -0.0289
 5981W        W10045   4.570   1.795   4.653  0.3894  0.0257 -0.0434
 5982W        W10046   9.029   1.825   8.139 -0.4901 -0.0190 -0.2671
 5983W        W10047   8.024   7.718   3.226 -0.2234  0.0730  0.1557
 5984W        W10048   8.786   0.596   3.438  0.0870 -0.2440  0.1278
 5985W        W10049   5.594   1.781   1.252  0.1448 -0.0561 -0.0460
 5986W        W10050   6.152   9.669   2.345  0.2814  0.0268  0.0160
 5987W        W10051   7.986   4.214  10.405 -0.2191 -0.0103  0.1589
 5988W        W10052   8.753   1.219  10.023 -0.0490 -0.0929  0.0487
 5989W        W10053   5.632   2.849   7.374 -0.1773  0.0970 -0.1665
 5990W        W10054   6.202   0.660   3.784 -0.3640 -0.0474 -0.0519
 5991W        W10055   7.114   4.969   2.045 -0.0716 -0.0028  0.1025
 5992W        W10056   2.037   4.067  10.811 -0.0340  0.0433  0.1278
 5993W        W10057   7.787   1.061   0.599  0.1348  0.2075 -0.0995
 5994W        W10058   3.294   6.963   1.971 -0.0403 -0.0941  0.0329
 5995W        W10059   8.345   5.176   9.212 -0.0303  0.0787 -0.1730
 5996W        W10060   9.030   3.807   9.205 -0.0202  0.2060  0.1976
 5997W        W10061   3.596   6.570   1.895  0.0975 -0.0477  0.2816
 5998W        W10062   6.090   9.555  10.148 -0.2168 -0.1662  0.0343
 5999W        W10063   1.008   2.453   8.941  0.2050  0.1549  0.1476
 6000W        W10064   3.226   3.927   0.365 -0.5691  0.0804  0.1736
 6001W        W10065   3.768  10.309   8.221  0.1703 -0.5392  0.0578
 6002W        W10066   4.016   6.336   1.375 -0.1770  0.0430  0.2907
 6003W        W10067   3.070   8.491   8.567  0.3013 -0.0632  0.1082
 6004W        W10068   3.632   5.952  10.759 -0.1769 -0.0485  0.0601
 6005W        W10069   1.074   5.981   8.377 -0.2339 -0.1150  0.1278
 6006W        W10070  10.301   0.314   1.308  0.5046 -0.0432  0.0180
 6007W        W10071   7.435   8.656   1.191 -0.3200  0.1819 -0.0258
 6008W        W10072   4.297   9.498   0.517  0.1995 -0.2062 -0.1134
 6009W        W10073   3.085   6.867   3.294 -0.0281 -0.0296  0.1332
 6010W        W10074   2.084   8.863  10.475  0.1172  0.1766  0.1107
 6011W        W10075   1.945  10.529   1.707  0.0981  0.2072  0.2418
 6012W        W10076   0.535   3.250   9.661  0.0036 -0.4459 -0.1081
 6013W        W10077   2.122   2.939   0.722  0.2445  0.0757  0.3024
 6014W        W10078   1.598   6.726   9.524 -0.2219 -0.2677  0.0178
 6015W        W10079   6.892   8.083   2.969 -0.2229  0.1741  0.3890
 6016W        W10080   5.928   7.965   1.501  0.1793  0.1014 -0.1497
 6017W        W10081   1.336   9.706   8.739 -0.3393 -0.2194 -0.1181
 6018W        W10082   9.546   8.727   0.802 -0.0753 -0.2263  0.1712
 6019W        W10083   4.941   6.888   0.200  0.0627  0.3027  0.1987
 6020W        W10084   0.263   9.181   8.628 -0.0009  0.1027 -0.2077
 6021W        W10085   6.352   5.074   2.994 -0.1790 -0.2220  0.1163
 6022W        W10086   2.239   1.535   4.498  0.0343  0.0342  0.2924
 6023W        W10087   5.479   1.064   1.961 -0.1362  0.2912 -0.6272
 6024W        W10088   6.748   4.934   2.669  0.0095 -0.1028 -0.1196
 6025W        W10089   2.109   1.955   7.398 -0.1727 -0.1726 -0.0100
 6026W        W10090   0.023   6.215   1.654  0.3214  0.1230 -0.1027
 6027W        W10091   0.210   6.854   1.569  0.2497 -0.0910 -0.0050
 6028W        W10092   4.767   7.608   0.855 -0.1493  0.1436 -0.0126
 6029W        W10093   2.613   9.900   0.883 -0.3689  0.1077  0.0905
 6030W        W10094   6.599   8.673  11.415 -0.1772 -0.0546 -0.1727
 6031W        W10095   0.260   2.872   8.431 -0.0387 -0.3802 -0.0237
 6032W        W10096   0.900   4.587  10.355  0.0826  0.1264  0.2959
 6033W        W10097   7.141   4.722   8.361  0.0524 -0.1856 -0.0892
 6034W        W10098   1.181   6.571   0.226  0.2260 -0.2883 -0.2266
 6035W        W10099   7.980   3.486   2.004  0.0416  0.1296  0.1248
 6036W        W10100   7.427   6.270   9.674  0.1928  0.2311  0.2307
 6037W        W10101   3.117   8.548   0.377  0.0363 -0.2438  0.0586
 6038W        W10102   7.860   9.386   9.681 -0.1216 -0.1367  0.0199
 6039W        W10103   4.605   7.818   2.228 -0.0254  0.3525 -0.2167
 6040W        W10104   2.328  10.078   4.258 -0.2282 -0.1887  0.2567
 6041W        W10105   2.980   3.272   1.818 -0.0453 -0.0180  0.1756
 6042W        W10106   0.244   4.234   3.308  0.1722 -0.1537  0.1119
 6043W        W10107   7.836   8.579   2.104  0.0083  0.1600 -0.2075
 6044W        W10108   9.012   4.087   2.734  0.2403 -0.2736 -0.1810
 6045W        W10109   0.402   8.158   2.694 -0.0076 -0.0712  0.3756
 6046W        W10110   0.104   1.898   7.589 -0.0427 -0.0536 -0.1952
 6047W        W10111   3.239  10.319   2.507 -0.2387  0.0197  0.0531
 6048W        W10112  10.660  10.544   0.059  0.0161  0.0029  0.0028
 6049W        W10113   3.312   6.800   8.504 -0.1713 -0.1368  0.0293
 6050W        W10114   4.559   3.960   9.406 -0.1827  0.0458 -0.0250
 6051W        W10115   8.936   2.960   0.380 -0.0310 -0.1056 -0.0167
 6052W        W10116   7.126   2.840   9.460  0.0948 -0.2828  0.0491
 6053W        W10117   0.898   1.767   8.678 -0.3086  0.1567 -0.5808
 6054W        W10118   2.575   8.334   2.460  0.2673  0.2160 -0.0931
 6055W        W10119   4.944   5.572   8.920 -0.0732 -0.0176  0.0551
 6056W        W10120   4.764   8.050   2.648  0.2398 -0.0876  0.0178
 6057W        W10121   1.512   9.750  10.033 -0.0312 -0.3337 -0.0017
 6058W        W10122  10.008   5.346   8.986  0.2638  0.0374  0.0633
 6059W        W10123   8.383   7.015   0.145  0.2003  0.0123 -0.5251
 6060W        W10124   0.082  10.519   9.637  0.0057 -0.0058 -0.0203
 6061W        W10125   7.256   4.439  10.065  0.3197  0.0490  0.0747
 6062W        W10126   6.729  10.112   9.705  0.3594  0.0484 -0.1787
 6063W        W10127   6.647   5.943   9.335  0.1667  0.0436  0.0448
 6064W        W10128  10.092   4.777   8.314  0.0561  0.0194  0.0292
 6065W        W10129  10.439  10.235   0.874 -0.1493  0.1374  0.1177
 6066W        W10130   5.613   4.885   9.182 -0.0253  0.1043  0.1694
 6067W        W10131   6.085   7.924  11.448 -0.1091 -0.1730 -0.3398
 6068W        W10132   1.859   3.285   0.449 -0.0415 -0.1468 -0.0115
 6069W        W10133   8.055   1.686   1.158 -0.2188  0.0264  0.2686
 6070W        W10134   5.327   0.709   8.907 -0.0523  0.0022  0.0922
 6071W        W10135   3.498   4.778   0.502 -0.2409 -0.0591 -0.2841
 6072W        W10136   5.623   3.594   3.488  0.0276  0.0689  0.0328
 6073W        W10137   0.904   8.716   7.962  0.2393  0.1947  0.0756
 6074W        W10138   1.118   5.912   9.320 -0.1011 -0.2373 -0.0425
 6075W        W10139   7.373   0.140   9.625  0.3136 -0.1045  0.0809
 6076W        W10140   7.500   1.448   0.228 -0.1830  0.3065 -0.1938
 6077W        W10141   8.980   2.841   0.832  0.2603 -0.0044 -0.2433
 6078W        W10142   2.069   7.067   3.550  0.3400 -0.4386 -0.1391
 6079W        W10143   2.036   6.291  10.741 -0.1758 -0.3043  0.3490
 6080W        W10144   2.982   8.793  10.119 -0.3162 -0.0172 -0.0453
 6081W        W10145   5.914   8.951   8.722  0.0069 -0.3462  0.0976
 6082W        W10146   5.244  10.490   2.487 -0.0162  0.0129 -0.0091
 6083W        W10147   9.190   4.724   8.114  0.0199  0.0141 -0.1714
 6084W        W10148   3.824   3.024   3.087 -0.0498 -0.3721  0.1174
 6085W        W10149  10.311   1.287   1.038  0.3796  0.0642  0.1161
 6086W        W10150   7.572   0.327   1.552 -0.1402  0.1278 -0.0587
 6087W        W10151   0.874   2.316   8.405 -0.0730 -0.1531  0.2643
 6088W        W10152   0.429   9.411   1.044 -0.0968  0.5599 -0.1497
 6089W        W10153   3.888   1.238  10.397 -0.0090 -0.4397 -0.1850
 6090W        W10154   6.375   3.935   1.605  0.1981  0.1863  0.0588
 6091W        W10155  10.423   4.258   0.219 -0.1377 -0.0096  0.1469
 6092W        W10156   7.428   4.750   1.353 -0.2706  0.1412 -0.0288
 6093W        W10157   2.385  10.409   2.176  0.0427 -0.2076  0.0663
 6094W        W10158   9.173   8.779   3.550 -0.0117  0.1747  0.1548
 6095W        W10159   5.880   9.097   1.347  0.2395 -0.2332 -0.0781
 6096W        W10160   7.655   3.175  10.182  0.2751 -0.0200 -0.0110
 6097W        W10161   3.103   0.540  10.295  0.2901 -0.3408  0.4645
 6098W        W10162   7.207   2.115   0.661  0.1760  0.0568 -0.0026
 6099W        W10163  10.233   6.132  10.953  0.1021 -0.1108 -0.0404
 6100W        W10164   2.213   9.834   8.599 -0.2694  0.0303 -0.2379
 6101W        W10165   6.517   3.029   0.779 -0.4290  0.1761 -0.0325
 6102W        W10166   3.667  10.180   4.559  0.0647 -0.3519 -0.0411
 6103W        W10167   6.281   6.971  10.948  0.2340 -0.1627  0.0644
 6104W        W10168  10.256   9.544   3.973 -0.1027  0.2063 -0.3710
 6105W        W10169   1.476   0.948   9.258  0.0139 -0.3458 -0.2208
 6106W        W10170   8.565   9.089  10.968  0.2000  0.1049  0.1332
 6107W        W10171   0.345   3.189   2.572 -0.1929  0.2097  0.0232
 6108W        W10172   4.392   2.125  10.266  0.0849 -0.0857  0.1539
 6109W        W10173   1.037   5.235   1.581  0.0562 -0.1990 -0.0591
 6110W        W10174   7.010   9.558   0.447 -0.0048 -0.0580  0.0962
 6111W        W10175   9.965   5.223   2.405 -0.0251 -0.2437  0.2340
 6112W        W10176   1.915   7.098   8.779  0.0450 -0.0144 -0.0099
 6113W        W10177   1.841   4.137  10.227  0.3598 -0.1147  0.2621
 6114W        W10178   7.365   9.235   2.309 -0.1516  0.0997 -0.1973
 6115W        W10179   4.677   5.264  10.502 -0.2858  0.1330 -0.1351
 6116W        W10180   4.127   2.457   1.299  0.4273 -0.3404  0.2158
 6117W        W10181   6.654   6.971   1.586 -0.1270  0.0022  0.4514
 6118W        W10182   4.640   2.188   8.715 -0.1013  0.2287  0.1103
 6119W        W10183   5.837   0.865   2.748  0.0564 -0.1747  0.2561
 6120W        W10184   5.930   7.240   3.035  0.2915  0.0671  0.1164
 6121W        W10185   5.445   1.213  10.229  0.0267 -0.1599  0.2643
 6122W        W10186   4.970  10.505  11.188 -0.0326 -0.0042 -0.4793
 6123W        W10187   4.903   7.456   9.301 -0.2848  0.1302 -0.3378
 6124W        W10188   2.511   0.168  11.286 -0.4067 -0.0912 -0.1961
 6125W        W10189   6.954   3.340   1.807 -0.1725  0.0092  0.2926
 6126W        W10190   0.077   4.660   1.997 -0.1084  0.0468  0.3506
 6127W        W10191   6.588  10.329  10.203 -0.0976  0.3001 -0.1315
 6128W        W10192   4.928   7.306  11.506 -0.0021  0.2046  0.0068
 6129W        W10193   5.589   2.674  10.541 -0.1669  0.1162  0.0473
 6130W        W10194   3.332   6.570   8.982  0.0403  0.1648 -0.1064
 6131W        W10195   6.620   5.785  11.451  0.0807  0.2234 -0.1999
 6132W        W10196   6.465   9.517  11.059 -0.2745  0.1766  0.0846
 6133W        W10197   5.087   1.886   9.622  0.0563 -0.2494 -0.2995
 6134W        W10198   1.386   0.131   9.009 -0.0594 -0.0137  0.2232
 6135W        W10199   4.705   9.650  11.340  0.1858 -0.2594  0.1660
 6136W        W10200   6.247   7.751   0.354  0.1918  0.0767 -0.1857
 6137W        W10201   9.953   9.442   9.776  0.2260  0.1509 -0.0543
 6138W        W10202   3.480  10.493  11.341  0.0599  0.3833  0.0449
 6139W        W10203   0.284   0.220   9.147 -0.1085  0.0060 -0.1138
 6140W        W10204  10.568   9.999   8.895  0.1188 -0.2998 -0.3667
 6141W        W10205   6.254   7.019   9.724  0.0928 -0.0301 -0.2803
 6142W        W10206   4.093   3.391   2.741  0.1531 -0.1351 -0.0874
 6143W        W10207   6.419  10.493   3.408  0.1064 -0.1356  0.0496
 6144W        W10208   5.546   1.777   9.866 -0.2733 -0.2279  0.3576
 6145W        W10209   4.265   8.491   1.557 -0.1415 -0.0090  0.1126
 6146W        W10210   2.251   9.129   1.296 -0.2607 -0.2521  0.0247
 6147W        W10211   0.861   3.446   0.772  0.0007  0.1070  0.1760
 6148W        W10212   9.198   4.606   1.500 -0.0105 -0.0039  0.1637
 6149W        W10213   8.796   4.684  11.162 -0.0751 -0.1658  0.0453
 6150W        W10214   8.063   2.601   0.408 -0.3277  0.3138 -0.0121
 6151W        W10215  10.567   4.093   8.784 -0.0660 -0.3754 -0.1268
 6152W        W10216   6.257   5.147   3.986 -0.0393  0.0146 -0.0790
 6153W        W10217   1.251   9.979   8.330 -0.0856 -0.1741  0.0324
 6154W        W10218   7.947   5.962   7.974  0.3268  0.2490  0.2992
 6155W        W10219   0.878   1.055   8.272  0.0130  0.0611  0.2904
 6156W        W10220   5.387   0.588  11.384 -0.1450  0.1328  0.3628
 6157W        W10221   1.375   2.897   9.949 -0.0335  0.1220  0.3496
 6158W        W10222   5.299   2.863   1.231 -0.0746 -0.0743  0.1615
 6159W        W10223   3.504   7.309   0.284  0.2500 -0.1239 -0.3658
 6160W        W10224   1.198   8.477  10.626  0.0945 -0.3600 -0.3434
 6161W        W10225   1.518   5.221   1.422 -0.0809 -0.0371  0.0212
 6162W        W10226   1.116   8.342  11.126  0.0676 -0.1418 -0.1280
 6163W        W10227   2.938   3.624   4.093  0.2283  0.0230 -0.1456
 6164W        W10228   3.992  10.650   0.795  0.0745 -0.2996 -0.0412
 6165W        W10229   3.028   1.311  11.085 -0.5575  0.0822  0.2374
 6166W        W10230   2.744   2.762  10.193  0.1917 -0.0004  0.0152
 6167W        W10231   9.515   5.860   8.376 -0.1500 -0.0756 -0.0929
 6168W        W10232   2.100   9.961   3.230 -0.1343 -0.0784  0.0017
 6169W        W10233   4.587   7.042   1.632  0.1579 -0.2792 -0.1178
 6170W        W10234   8.765   3.514   0.162  0.1351 -0.3393  0.1005
 6171W        W10235   8.036   4.489   9.837  0.2065 -0.2285 -0.0531
 6172W        W10236   4.744   5.850   9.841 -0.0571 -0.1288 -0.1530
 6173W        W10237   5.842   5.592   1.761  0.0205 -0.0430  0.0323
 6174W        W10238   5.335   3.913   3.152 -0.1968  0.0608 -0.1619
 6175W        W10239   6.354   0.170   1.118 -0.1241  0.2911 -0.0781
 6176W        W10240  10.555   3.851   0.811 -0.2178 -0.0647 -0.1214
 6177W        W10241   5.272   6.089   2.097  0.0694 -0.2140  0.0905
 6178W        W10242   2.055   6.828   0.440 -0.1650 -0.0464  0.1176
 6179W        W10243   0.734  10.513   1.500 -0.0841  0.1951  0.0775
 6180W        W10244   5.711   6.693  11.221  0.3795  0.0940  0.1069
 6181W        W10245   4.049   4.996  10.377  0.1943  0.0592 -0.1532
 6182W        W10246   2.959   4.517   8.761 -0.1512 -0.1783  0.1427
 6183W        W10247   3.387   3.496   0.710 -0.5140 -0.0579 -0.3473
 6184W        W10248   7.634   0.949  10.988 -0.5550 -0.3015  0.1520
 6185W        W10249   2.565   7.071  10.920  0.0658  0.3449  0.3289
 6186W        W10250   7.396   8.780   8.710  0.1993  0.1590  0.2153
 6187W        W10251   0.737   5.086  10.400  0.0767 -0.0819  0.0839
 6188W        W10252   5.639   4.632   3.997 -0.1918 -0.0178 -0.1668
 6189W        W10253   1.134  10.195   1.111  0.0389  0.1552  0.1723
 6190W        W10254   3.924   8.083   9.565  0.0598  0.0929 -0.0910
 6191W        W10255   3.980   3.726   1.505 -0.0955 -0.1328 -0.3221
 6192W        W10256   4.664   4.496   2.947 -0.0657 -0.1690 -0.0012
 6193W        W10257   7.029   0.649   0.000 -0.1525 -0.0326 -0.2235
 6194W        W10258   8.999  10.393   9.641  0.1155 -0.2799 -0.2385
 6195W        W10259   2.126   6.101   8.874  0.1037 -0.4293  0.1175
 6196W        W10260   7.889   6.335   3.547  0.2533  0.0253 -0.0771
 6197W        W10261   3.354   1.202  10.710  0.4085 -0.2197 -0.2264
 6198W        W10262   2.364   6.466   2.103 -0.1259  0.0043  0.2215
 6199W        W10263   6.263   6.299   9.047  0.2482 -0.0693 -0.3639
 6200W        W10264   4.079   9.667   0.925 -0.0894  0.1371 -0.0690
 6201W        W10265   4.293   1.057   9.006 -0.1761 -0.2925 -0.1591
 6202W        W10266   1.580   1.952   2.293  0.3815 -0.2837 -0.0192
 6203W        W10267   2.987   5.610  10.000  0.2887  0.1156  0.1686
 6204W        W10268   1.458   1.096   8.201 -0.0403 -0.2728 -0.2016
 6205W        W10269   4.121   3.980   7.473  0.2507  0.1733  0.1675
 6206W        W10270   6.913   1.489   1.937  0.0691 -0.1091  0.0954
 6207W        W10271   5.298   4.759   1.742  0.5378  0.0370  0.0417
 6208W        W10272   6.131   5.567   9.625 -0.3364 -0.2539  0.0354
 6209W        W10273   4.218   6.102   3.259  0.2883  0.3635 -0.3166
 6210W        W10274   3.840   3.396   1.992 -0.0725  0.4097 -0.0399
 6211W        W10275   0.555   4.843   3.118  0.0476 -0.0913 -0.2595
 6212W        W10276   0.662   6.850   2.766  0.1183 -0.0102 -0.0483
 6213W        W10277   1.113   1.497   1.956 -0.3861  0.0213  0.1170
 6214W        W10278   4.918   3.639  10.556 -0.0014 -0.3750 -0.1280
 6215W        W10279   6.995   0.980  10.212 -0.0131 -0.1419 -0.2310
 6216W        W10280   4.316   3.030   9.634 -0.0377  0.1190  0.0086
 6217W        W10281   4.488   0.308   1.755 -0.0310 -0.0040 -0.2802
 6218W        W10282   3.555   0.164   0.558 -0.0361  0.0157  0.1113
 6219W        W10283   8.147   7.935   9.977  0.1026 -0.1046 -0.2217
 6220W        W10284   4.766   7.118   1.136 -0.1762 -0.3530 -0.0126
 6221W        W10285   5.654   3.490   0.548  0.0929  0.0355 -0.0746
 6222W        W10286   4.403   2.397   8.295  0.0323 -0.1262  0.1082
 6223W        W10287   2.497   9.708   3.423 -0.0410 -0.2529  0.0937
 6224W        W10288   9.750   7.904   7.879 -0.0553 -0.1698 -0.1382
 6225W        W10289   4.338   0.472   2.651 -0.0128  0.1806  0.0626
 6226W        W10290   9.409   9.065   7.907 -0.1811  0.0168 -0.1693
 6227W        W10291   2.230   3.608  10.945 -0.0037  0.1127 -0.2352
 6228W        W10292   7.657   4.091  10.021  0.1063 -0.1830 -0.2600
 6229W        W10293   8.440   4.552  11.535 -0.1488  0.1788  0.2862
 6230W        W10294   3.774   6.210   9.648 -0.1915 -0.0530  0.0495
 6231W        W10295   5.538   7.677   9.210 -0.1455 -0.0003 -0.1168
 6232W        W10296   7.790   7.906   8.177 -0.1401  0.1939 -0.3477
 6233W        W10297   7.181   4.747   0.560 -0.0445  0.1906  0.0687
 6234W        W10298   2.723   9.585   0.362  0.2650  0.1032  0.2291
 6235W        W10299   0.205  10.566   2.792 -0.2855 -0.0922 -0.3353
 6236W        W10300   3.582   2.920   3.585 -0.1358 -0.0280 -0.1874
 6237W        W10301   5.577   9.860  10.145 -0.0776  0.0948  0.1215
 6238W        W10302   5.790   7.626   2.188 -0.1153  0.0264  0.0555
 6239W        W10303   2.583   5.133  10.721  0.0292  0.0584  0.0007
 6240W        W10304   4.331   3.567   9.175 -0.0618  0.1479 -0.2765
 6241W        W10305   9.410   3.302   1.608  0.0455 -0.1390  0.1014
 6242W        W10306   1.044   7.445  10.588  0.0805  0.2096 -0.1186
 6243W        W10307   5.082   0.773   8.465  0.2234  0.3660  0.3395
 6244W        W10308   8.498   2.121   0.482  0.1673  0.0875 -0.1837
 6245W        W10309   4.368   2.980  10.660 -0.0821 -0.2632 -0.3343
 6246W        W10310   5.267   8.170   8.502  0.2242 -0.3147  0.0609
 6247W        W10311  10.099   6.618   0.245 -0.1907 -0.4780  0.2287
 6248W        W10312   3.949   8.309   7.497 -0.2679 -0.3253  0.1076
 6249W        W10313   9.626   5.386  11.155  0.2770  0.1588 -0.2088
 6250W        W10314  10.644   7.458   2.656  0.1801 -0.4162 -0.3291
 6251W        W10315   1.615   1.649   2.732  0.1974 -0.2827 -0.2153
 6252W        W10316   2.664   3.212   3.098 -0.1303  0.3754  0.0890
 6253W        W10317   5.151   7.922   1.160 -0.0223 -0.0623  0.2957
 6254W        W10318   6.638   7.823   2.629  0.0778  0.1947  0.1981
 6255W        W10319   1.580   0.816  10.660  0.1745  0.2865 -0.1255
 6256W        W10320  10.169   4.816   9.606  0.0786  0.0655  0.0723
 6257W        W10321   5.573   7.131   0.872  0.2322 -0.1248  0.0026
 6258W        W10322   8.529  10.413   0.179 -0.2298 -0.2008  0.1569
 6259W        W10323   0.277   7.545  11.154  0.2684 -0.0443 -0.1454
 6260W        W10324   0.254   3.655   9.480  0.2148  0.0655 -0.1044
 6261W        W10325   0.201   3.885   1.472  0.0534 -0.0515  0.0631
 6262W        W10326   8.566   8.833   2.946  0.3051  0.1727  0.0058
 6263W        W10327   6.737  10.080   0.043  0.1280 -0.2182  0.1087
 6264W        W10328   4.118   5.527  10.378  0.0781 -0.0651 -0.0488
 6265W        W10329   4.716  10.546   8.221  0.0848  0.1673 -0.0423
 6266W        W10330   3.118   1.870   8.865  0.0277 -0.1908 -0.0643
 6267W        W10331   1.754   7.592  11.357  0.0378  0.2832 -0.1540
 6268W        W10332   4.337   8.391  10.977 -0.0069  0.4972  0.3868
 6269W        W10333   5.903  10.465   1.742  0.0814 -0.2717  0.0359
 6270W        W10334   4.222   0.142   0.302  0.1009  0.1017 -0.5041
 6271W        W10335   7.259   1.936   2.639  0.1127 -0.0876  0.0928
 6272W        W10336   1.620   9.938   2.962  0.3226  0.1124  0.1127
 6273W        W10337   3.034   7.345  11.067  0.2191 -0.1053 -0.1219
 6274W        W10338   1.762   7.438   3.468 -0.0021  0.0905  0.1887
 6275W        W10339   0.200   0.856   1.258  0.0618  0.0033 -0.1891
 6276W        W10340   4.612   9.528   0.990  0.2434  0.1223 -0.2600
 6277W        W10341   8.492   2.263  10.815  0.0850  0.1330  0.0254
 6278W        W10342   8.508  10.443   8.715 -0.1643  0.3233  0.0233
 6279W        W10343   8.500  10.254   3.418  0.3203 -0.2630  0.1381
 6280W        W10344   1.997  10.561   8.406 -0.0201  0.1699 -0.1776
 6281W        W10345   6.466   2.265   9.041  0.0791  0.1747 -0.3501
 6282W        W10346   0.677   6.074   9.497 -0.1970 -0.1856 -0.1732
 6283W        W10347   9.211   7.489  10.870 -0.1148 -0.0894 -0.2217
 6284W        W10348   9.331   4.266   1.193 -0.2630  0.3861  0.5096
 6285W        W10349   1.171   6.004  10.965  0.3797 -0.0651 -0.0410
 6286W        W10350   3.533   8.269   8.569  0.4253 -0.0500  0.2869
 6287W        W10351   1.400   2.325   3.689  0.2687  0.1572  0.0405
 6288W        W10352   9.730   5.287   1.198  0.1585  0.1083  0.2452
 6289W        W10353   5.069   2.901   8.197 -0.3326  0.0324  0.1593
 6290W        W10354   2.761   9.644   2.257 -0.0487 -0.0608  0.0007
 6291W        W10355   5.609   5.985   7.870  0.0153 -0.2041 -0.0729
 6292W        W10356   0.778   8.252   8.855 -0.2401  0.1735 -0.1060
 6293W        W10357   1.645   4.483   2.547  0.1417  0.0784 -0.0143
 6294W        W10358   3.764   3.395   3.540  0.1319  0.0123  0.2763
 6295W        W10359   3.993   0.568   0.555  0.3209 -0.1334 -0.1622
 6296W        W10360   6.471   6.782   0.752 -0.0428  0.1260 -0.1062
 6297W        W10361   6.282   9.085   3.768 -0.1864  0.0125 -0.0369
 6298W        W10362   7.520   4.855   0.058  0.1536 -0.0939 -0.0096
 6299W        W10363   1.940   4.809   9.635  0.0199 -0.1931  0.0902
 6300W        W10364   8.717   9.028   8.718  0.0109 -0.0672 -0.2066
 6301W        W10365   5.687   9.423   1.657  0.1262 -0.1048 -0.0744
 6302W        W10366   7.335   3.355  11.355 -0.1684  0.3004 -0.2198
 6303W        W10367   9.430   1.094  10.961 -0.1442 -0.0530 -0.0515
 6304W        W10368  10.353   9.173   1.741 -0.0881 -0.0182 -0.0688
 6305W        W10369   4.993   4.293   8.384  0.2822  0.2912 -0.1798
 6306W        W10370   2.893   7.685  10.490  0.0648 -0.2953  0.2149
 6307W        W10371  10.257   8.317   2.420  0.1697 -0.0264  0.1079
 6308W        W10372   1.484   1.113   2.875  0.2905 -0.2313  0.1899
 6309W        W10373   5.806   3.343   8.055  0.1406  0.0766  0.1092
 6310W        W10374   1.982   0.143   9.275 -0.0176  0.1773 -0.0123
 6311W        W10375   2.612   1.808   1.699  0.0962  0.1353 -0.0293
 6312W        W10376   2.609   8.548  10.388 -0.0052 -0.1902  0.1050
 6313W        W10377   0.629   9.265   3.346 -0.0918 -0.0645  0.3037
 6314W        W10378   9.606  10.640  11.245  0.0946 -0.1196 -0.0340
 6315W        W10379   8.371   2.328   3.955  0.1614  0.0453  0.1069
 6316W        W10380   9.743   8.056   0.624 -0.0091  0.1640  0.1052
 6317W        W10381   0.615   4.890   1.615 -0.0900  0.1311 -0.1571
 6318W        W10382   1.318   4.616  11.352  0.0120 -0.2055  0.0272
 6319W        W10383   4.087   6.598   9.181  0.1180  0.0447  0.1526
 6320W        W10384   9.469   3.636   0.830 -0.2673  0.1120  0.2157
 6321W        W10385  10.413   7.823   0.793  0.3401 -0.0620  0.0124
 6322W        W10386   4.947   8.465   1.266  0.0968 -0.1195  0.0959
 6323W        W10387   0.007   3.740  10.951  0.2061  0.0397  0.0411
 6324W        W10388   1.570   5.652   0.717 -0.1343 -0.1696 -0.0183
 6325W        W10389   7.201   1.927  10.330  0.0022 -0.1023  0.0973
 6326W        W10390   6.163   1.067   1.048  0.0841  0.1785  0.2599
 6327W        W10391   1.401   3.385   2.802  0.1228 -0.0553  0.2415
 6328W        W10392   6.058   1.233  11.017  0.2573 -0.1247 -0.0247
 6329W        W10393   0.900   1.050   9.213  0.0779 -0.1622 -0.2817
 6330W        W10394   0.104   3.915   0.342  0.2058 -0.1277 -0.2753
 6331W        W10395  10.589  10.271   1.960  0.1391  0.2410 -0.0675
 6332W        W10396   6.279   6.206   1.320  0.1558  0.3267 -0.2270
 6333W        W10397  10.111   7.880   2.051 -0.2333  0.1025 -0.0515
 6334W        W10398   5.003   3.943   4.086 -0.2425  0.2396 -0.1795
 6335W        W10399   1.014   4.928   0.709  0.1813 -0.1705  0.0911
 6336W        W10400   9.587   9.790   2.866 -0.2495 -0.0947 -0.2123
 6337W        W10401   3.626   2.323   0.068  0.3218  0.0795  0.2205
 6338W        W10402   7.564   7.672  10.153 -0.1861 -0.0596 -0.0111
 6339W        W10403   7.879   8.698   8.946 -0.0737  0.2735  0.0644
 6340W        W10404   2.514   8.349   3.713 -0.0048  0.1007  0.0007
 6341W        W10405  10.091   5.327   9.913 -0.1647  0.0506  0.1465
 6342W        W10406   1.685   0.032  10.327  0.0629 -0.3303 -0.0921
 6343W        W10407   5.444   8.601   2.835 -0.0368  0.0376 -0.1044
 6344W        W10408   9.122   8.544  10.101  0.1031  0.0541 -0.1438
 6345W        W10409   2.824  10.279   9.359 -0.1199  0.1323 -0.1094
 6346W        W10410   2.668   6.567   3.125  0.1765  0.1575 -0.1239
 6347W        W10411   2.922   5.020   8.607 -0.0356 -0.1589 -0.0027
 6348W        W10412   5.504   2.930   7.866  0.0837 -0.0395 -0.0267
 6349W        W10413   4.303   6.906   0.802  0.4495 -0.0500 -0.0458
 6350W        W10414   7.913   5.930   9.952  0.6327 -0.1560 -0.0097
 6351W        W10415   6.750   9.984   1.173  0.0276 -0.0702  0.1072
 6352W        W10416   1.122   1.916   3.501  0.2753  0.4653 -0.0962
 6353W        W10417   6.714   3.701   0.967 -0.1107  0.2500  0.1324
 6354W        W10418   5.744   0.060   9.053  0.0440 -0.2075  0.0097
 6355W        W10419   8.201   6.764   0.492 -0.0656 -0.3126  0.0448
 6356W        W10420   2.449   0.060   8.637  0.1882 -0.0305  0.5581
 6357W        W10421  10.236  10.476   8.702  0.2457  0.1727  0.3516
 6358W        W10422   4.463   5.897   2.847  0.1403  0.1077  0.6843
 6359W        W10423   5.202   5.768   3.959  0.2087  0.1378 -0.0255
 6360W        W10424   6.245  10.413   9.771 -0.0780  0.0808 -0.0942
 6361W        W10425   2.185   4.403   1.833 -0.3264  0.3740  0.1270
 6362W        W10426   0.450   8.055  10.062  0.3585 -0.1970  0.0947
 6363W        W10427   7.441   9.343   0.704  0.0029  0.0407 -0.0283
 6364W        W10428   4.681   6.575   9.324  0.0675  0.2533  0.2991
 6365W        W10429   5.456   2.614   3.467 -0.3781  0.1360  0.1160
 6366W        W10430   9.413   8.952   2.657 -0.2566 -0.1994  0.0160
 6367W        W10431   8.267   1.152   2.864 -0.0556  0.0426 -0.1296
 6368W        W10432   7.177   2.582   2.699 -0.0937  0.1658  0.0265
 6369W        W10433   6.431   5.273  10.191 -0.1547  0.0804 -0.2328
 6370W        W10434   5.531   9.600   0.510 -0.1773 -0.2583  0.1171
 6371W        W10435  10.414   6.763   9.543 -0.1555 -0.3070  0.0504
 6372W        W10436   3.795   6.828  10.077  0.3736  0.1193 -0.1659
 6373W        W10437   0.827   7.949  10.306 -0.0476  0.0155  0.5309
 6374W        W10438   2.482   2.262   1.302  0.1087  0.0796 -0.2600
 6375W        W10439   2.380   2.392  10.369 -0.0130 -0.1118  0.0149
 6376W        W10440   8.994   5.233  11.019  0.5542 -0.1462  0.0492
 6377W        W10441   6.159   5.640   0.021  0.1771  0.1313 -0.1124
 6378W        W10442   3.112   4.028  10.028 -0.2772  0.1220  0.4173
 6379W        W10443   1.083   4.526   3.813  0.1810 -0.0678  0.0059
 6380W        W10444   5.467   7.316  10.934  0.0087  0.0632 -0.2264
 6381W        W10445   2.403  10.499   3.332  0.0456  0.0520 -0.1782
 6382W        W10446   7.393   6.746  10.372 -0.1331  0.0331  0.0408
 6383W        W10447   1.187   1.792   9.877  0.0426 -0.0405  0.0056
 6384W        W10448   6.075   9.462   0.935 -0.0730 -0.3230 -0.3373
 6385W        W10449   8.682   2.262   8.709 -0.1258 -0.3749  0.1534
 6386W        W10450   0.042   9.672   3.791 -0.1413  0.2535  0.1381
 6387W        W10451   0.861   4.203   1.986 -0.1077 -0.1479 -0.4083
 6388W        W10452   9.225   4.000  10.742 -0.1404  0.0279  0.2169
 6389W        W10453   2.005   0.277  11.402  0.0262  0.1752 -0.1962
 6390W        W10454   1.350   0.419  10.931  0.1697  0.1148 -0.0597
 6391W        W10455   0.654   0.147   7.951 -0.1777 -0.2320  0.0310
 6392W        W10456   5.043   0.118   2.152 -0.1979  0.4298  0.0135
 6393W        W10457   4.568   1.828   9.114  0.0407 -0.0535  0.1779
 6394W        W10458   5.872   0.037   9.568  0.1756  0.1067  0.2000
 6395W        W10459  10.104   0.647  10.920  0.3941 -0.0597 -0.2433
 6396W        W10460   7.268   5.726  10.937  0.1798  0.1944 -0.0667
 6397W        W10461   1.196   1.584   1.504 -0.0191  0.1418  0.0105
 6398W        W10462   2.237   9.058   9.054 -0.2362 -0.2696  0.1331
 6399W        W10463   9.104   1.868   2.133 -0.1791 -0.1344 -0.2398
 6400W        W10464   2.173   3.717  10.416 -0.1622 -0.1609 -0.2147
 6401W        W10465   6.969   8.790   9.241 -0.0119 -0.1068  0.2697
 6402W        W10466   8.478   3.967   9.042 -0.0378  0.1263  0.2756
 6403W        W10467   1.698   9.023   7.911 -0.0547  0.0127 -0.0769
 6404W        W10468   4.473   4.418   1.820 -0.1483 -0.0666 -0.1030
 6405W        W10469   1.445   2.270   9.157 -0.1065  0.2273  0.0237
 6406W        W10470   9.102   5.495   1.874  0.3163 -0.1485 -0.1762
 6407W        W10471   7.338   8.164   9.411  0.1568 -0.2715 -0.1678
 6408W        W10472   2.922   7.079   3.746 -0.2157 -0.1763 -0.1787
 6409W        W10473   8.257   1.775   2.017 -0.2540 -0.0484  0.0981
 6410W        W10474   1.490   4.111  11.440  0.1602 -0.0084 -0.0038
 6411W        W10475   5.170   3.556   8.716  0.1189 -0.2200 -0.0448
 6412W        W10476   3.206   9.871   9.677 -0.0568 -0.1753 -0.0864
 6413W        W10477   4.788   5.431   3.100  0.0922  0.0300 -0.0841
 6414W        W10478   4.805  10.518   1.716  0.0778 -0.0547 -0.1475
 6415W        W10479   4.567   2.622   0.371  0.2639  0.0286 -0.1488
 6416W        W10480   4.604   0.724  10.249 -0.1596 -0.1238  0.0530
 6417W        W10481  10.169  10.590   2.256  0.1112  0.1670 -0.0283
 6418W        W10482   5.726  10.222  10.552  0.1459  0.1490  0.2495
 6419W        W10483   6.671   0.023   2.947 -0.0883  0.0167  0.0515
 6420W        W10484   8.933   7.006   2.140 -0.0186  0.0553 -0.2273
 6421W        W10485   1.932   2.879   9.649 -0.1729 -0.1060  0.0671
 6422W        W10486  10.398   0.769   1.145  0.0677 -0.1120  0.2840
 6423W        W10487   0.475   9.204   9.696  0.1086  0.1924 -0.2970
 6424W        W10488   2.666   3.456  10.775  0.1961 -0.0592 -0.0280
 6425W        W10489   6.719   3.511  10.052 -0.0022 -0.4598  0.2446
 6426W        W10490   1.418   5.856   7.956 -0.2228  0.2200 -0.3667
 6427W        W10491   0.553   9.558   1.599  0.2444  0.0173 -0.0835
 6428W        W10492   1.618   5.780   8.874  0.4481 -0.0943  0.1568
 6429W        W10493   3.173   4.234   2.060 -0.1222  0.1786 -0.0859
 6430W        W10494   8.297   4.443   1.571 -0.3546 -0.2662 -0.2314
 6431W        W10495  10.624   2.257  11.295  0.0573  0.2938  0.3633
 6432W        W10496   9.042   8.460   0.637 -0.3193  0.1233  0.2683
 6433W        W10497   1.659   6.571  10.826  0.2054 -0.1550 -0.4003
 6434W        W10498   6.121   8.833   0.997  0.3067 -0.1045 -0.0907
 6435W        W10499   8.159   8.796   0.574  0.0227  0.4233  0.1495
 6436W        W10500   5.164   9.817  11.543  0.0026  0.0826  0.0456
 6437W        W10501   0.375   2.646  11.413  0.1044  0.2940  0.2579
 6438W        W10502   0.464   7.229   0.694  0.0827 -0.1148 -0.0149
 6439W        W10503   2.749   4.054   8.107 -0.1247  0.3160 -0.0328
 6440W        W10504   5.960   4.695   0.158  0.1963  0.0548 -0.0456
 6441W        W10505   4.296  10.658   3.360 -0.3110 -0.0498 -0.0048
 6442W        W10506   0.072   8.303   9.081  0.2116 -0.0410  0.1932
 6443W        W10507   5.083   6.137  10.160  0.0332  0.1440  0.3512
 6444W        W10508   8.902   0.672   0.955  0.3489  0.1971  0.3383
 6445W        W10509   5.076   2.068   9.065 -0.1423  0.0504 -0.0156
 6446W        W10510   4.511   5.754   0.878 -0.2142 -0.3283  0.1666
 6447W        W10511   6.467  10.171   1.693 -0.2051 -0.3115 -0.0346
 6448W        W10512   7.433   5.163   1.705  0.4003  0.0032  0.4073
 6449W        W10513   2.906   2.600   8.627  0.0737 -0.3131 -0.0416
 6450W        W10514   9.561   3.904   9.028  0.0712 -0.0770  0.3133
 6451W        W10515   4.910   4.190   3.308 -0.0476  0.0202  0.0343
 6452W        W10516   0.415   3.837   2.889  0.0699 -0.0113 -0.1046
 6453W        W10517   2.363   1.906   0.938  0.0555 -0.3375 -0.2869
 6454W        W10518   4.637   4.398   0.850 -0.2556  0.1666  0.0106
 6455W        W10519   1.535   1.851  10.505  0.0680 -0.1228  0.1070
 6456W        W10520   2.608   3.244   0.910 -0.0560 -0.1452 -0.0544
 6457W        W10521   0.602   6.464   2.461  0.0657  0.1868  0.0606
 6458W        W10522   8.254   3.666   0.198  0.2374  0.2572 -0.1963
 6459W        W10523  10.128   7.566   1.628  0.0342  0.2898 -0.2057
 6460W        W10524   8.132   5.857   3.523 -0.0942  0.3359  0.1451
 6461W        W10525   6.621   3.723   2.103 -0.1136 -0.1651 -0.0740
 6462W        W10526   3.120   6.969   0.522  0.1400 -0.0978  0.0101
 6463W        W10527   1.256   6.944   0.589  0.2328  0.0918 -0.1871
 6464W        W10528   9.523   0.942   0.184 -0.0733 -0.0368 -0.0587
 6465W        W10529  10.390  10.378  10.090  0.1498  0.3132  0.0065
 6466W        W10530   6.617   0.382  11.335 -0.1053 -0.0029  0.1813
 6467W        W10531   4.663   7.406   2.556  0.1790  0.2317  0.0360
 6468W        W10532   9.103   6.393   2.632 -0.1698  0.0498 -0.0519
 6469W        W10533   0.890   0.495   0.737  0.1995  0.1639  0.1984
 6470W        W10534   5.533   3.099   3.430 -0.2226  0.0508 -0.2861
 6471W        W10535   6.272   7.751   3.609  0.2354 -0.0969 -0.0014
 6472W        W10536   5.270   1.466  11.281 -0.0946  0.1344  0.0777
 6473W        W10537   0.265   6.038   9.110 -0.3432 -0.2344  0.2265
 6474W        W10538   5.255   0.477   1.175 -0.0075 -0.0845  0.2536
 6475W        W10539   3.635   1.730   9.592  0.3801 -0.0079 -0.1590
 6476W        W10540   4.602   1.253   3.223 -0.0572 -0.2816 -0.1679
 6477W        W10541   4.906   8.557   2.653  0.0325  0.0988  0.3863
 6478W        W10542   9.941   0.451  11.354 -0.0159 -0.0582  0.0289
 6479W        W10543   6.310   2.854   8.049  0.1086  0.1790  0.0879
 6480W        W10544   1.288   5.476   0.260 -0.1538  0.0211  0.1464
 6481W        W10545   3.053   4.901   9.730 -0.0627 -0.3391  0.2271
 6482W        W10546   8.143   4.761   8.887  0.2864 -0.2568 -0.1348
 6483W        W10547  10.630   6.180  11.246 -0.2535  0.2083  0.4021
 6484W        W10548   2.127   8.244   1.200  0.5435  0.1770 -0.0732
 6485W        W10549   0.330   0.907   9.025  0.2904 -0.4405  0.2385
 6486W        W10550   8.438   6.802   2.172 -0.4082 -0.2926  0.1061
 6487W        W10551   4.277   3.772  11.083 -0.2580 -0.3766  0.0525
 6488W        W10552   8.201   2.834   2.841 -0.1342 -0.2005 -0.1581
 6489W        W10553   6.386   0.679   8.786  0.1479 -0.0802 -0.0502
 6490W        W10554   2.803  10.126  10.632  0.0126  0.0895 -0.2159
 6491W        W10555   1.070  10.421   2.410  0.2617 -0.0523 -0.1770
 6492W        W10556   0.350   0.923   8.428 -0.2229  0.2420 -0.4407
 6493W        W10557   6.809   4.036  10.902  0.3161 -0.0651  0.0585
 6494W        W10558  10.405   2.601   2.048 -0.1818  0.3696  0.0099
 6495W        W10559   8.930   4.639   2.701 -0.0803  0.0157 -0.0864
 6496W        W10560   3.945   5.828   2.839 -0.1899 -0.1899 -0.2492
 6497W        W10561   3.023   3.538  11.409 -0.1357  0.0174 -0.0235
 6498W        W10562   1.740   0.309   0.347  0.3029 -0.0171 -0.0246
 6499W        W10563   1.139   1.474   2.620  0.1536  0.4087  0.1359
 6500W        W10564   5.946   6.300   7.569  0.1901 -0.0271 -0.0866
 6501W        W10565   1.513   7.720  10.369  0.5087  0.0767 -0.1019
 6502W        W10566   6.860   4.440   3.732  0.1387  0.2018  0.1388
 6503W        W10567   8.772   5.545   0.428  0.0010  0.1327 -0.2470
 6504W        W10568   5.182   7.832   0.685 -0.1943  0.2692  0.0395
 6505W        W10569   1.621   2.913   3.037 -0.1246 -0.4289 -0.0341
 6506W        W10570   9.845  10.374   1.907 -0.0443  0.1475  0.3065
 6507W        W10571   7.333   0.956   0.246 -0.1733  0.1396 -0.1280
 6508W        W10572   8.295   8.596   3.297  0.0742 -0.0932 -0.1373
 6509W        W10573   9.819   6.711   2.385  0.0716 -0.3683  0.0456
 6510W        W10574   6.509   2.623  10.460 -0.1294  0.3105  0.0250
 6511W        W10575   0.949   5.882   1.421 -0.0687 -0.0301 -0.2338
 6512W        W10576   0.380   2.711   2.316 -0.0966  0.3392 -0.1263
 6513W        W10577   8.470   5.858   9.787  0.0123 -0.1509 -0.2448
 6514W        W10578   4.745   1.673   7.915 -0.1483  0.0137 -0.2022
 6515W        W10579   2.898   1.510   8.260 -0.2763  0.0209 -0.0003
 6516W        W10580   6.849   8.310   9.341 -0.1792  0.2054 -0.0011
 6517W        W10581   2.611   3.076   2.074 -0.2730 -0.2718 -0.1953
 6518W        W10582   3.428   0.722   0.911 -0.0115 -0.0944  0.1381
 6519W        W10583   2.719   5.242   9.545  0.1228  0.0530  0.1152
 6520W        W10584   7.135   8.649   2.022  0.0622 -0.1619 -0.5955
 6521W        W10585  10.237   2.994   9.881 -0.1968  0.0728 -0.2782
 6522W        W10586   8.871   9.419  10.495  0.1045 -0.0089  0.1140
 6523W        W10587   0.650   3.347   8.695 -0.0557  0.0747 -0.0552
 6524W        W10588   2.258   5.801   1.631 -0.0858  0.3469  0.0947
 6525W        W10589   2.083   7.302   3.058 -0.0185  0.0825  0.0751
 6526W        W10590   1.647   7.145   0.389 -0.0171  0.0269  0.2059
 6527W        W10591   9.666  10.579   3.916 -0.0588 -0.3662 -0.1436
 6528W        W10592   8.056   5.071  10.929  0.0502 -0.0377 -0.1682
 6529W        W10593   5.867   6.822   0.557 -0.2873 -0.2671  0.0316
 6530W        W10594   7.999   3.330   9.893  0.0518  0.1571  0.1922
 6531W        W10595   2.433  10.008   2.504 -0.2840 -0.1310 -0.1185
 6532W        W10596   7.932   3.628   2.591  0.1081  0.1619  0.0572
 6533W        W10597   8.703   6.956   8.341  0.2753  0.0395  0.1165
 6534W        W10598   5.355   4.629   8.150  0.0041 -0.0110  0.5043
 6535W        W10599   3.429   3.341   9.645 -0.3307 -0.2714  0.1470
 6536W        W10600   5.562   9.865   9.489 -0.2500 -0.1009  0.0668
 6537W        W10601   0.669   7.176   1.765  0.3105  0.0184 -0.0687
 6538W        W10602   6.928   2.242   1.258 -0.1337  0.5338  0.1526
 6539W        W10603   3.791   7.636   1.487  0.2071  0.1501 -0.2306
 6540W        W10604   7.629   4.019   3.788  0.0616 -0.2321 -0.2469
 6541W        W10605   8.110   9.203   3.303 -0.0354 -0.1034  0.1154
 6542W        W10606   4.277  10.340  10.254  0.3305 -0.0179  0.0857
 6543W        W10607   3.941   5.752   9.633 -0.4649 -0.1007  0.2252
 6544W        W10608   9.684   2.910   8.060 -0.0869  0.2158  0.3116
 6545W        W10609   4.608   3.397   8.724  0.0284  0.3250 -0.0479
 6546W        W10610   2.462   4.398   2.930 -0.0297 -0.2510 -0.2964
 6547W        W10611   6.688   2.968   3.258  0.1421 -0.1030  0.1234
 6548W        W10612   7.473   8.252   2.249  0.2262 -0.0467 -0.2647
 6549W        W10613   9.236   5.200   9.661 -0.1026 -0.3068  0.0193
 6550W        W10614   7.074   1.049   2.243 -0.2710 -0.0152  0.0638
 6551W        W10615   7.835   5.068   1.323 -0.2414  0.0541 -0.0385
 6552W        W10616   8.059   7.491  10.188 -0.2677 -0.0841  0.2731
 6553W        W10617  10.377   5.145   0.809  0.1222 -0.3025  0.0635
 6554W        W10618   9.390   2.144   2.470  0.1833 -0.0258 -0.0989
 6555W        W10619   3.761  10.095   7.760  0.0914 -0.2695  0.0442
 6556W        W10620   2.280   2.060  10.815  0.1230 -0.0444 -0.0782
 6557W        W10621   2.986   8.954   1.734 -0.0615  0.1131 -0.0669
 6558W        W10622   0.215   3.205   3.941 -0.1486  0.1085 -0.2892
 6559W        W10623   7.048   3.194   0.830 -0.1393 -0.3084 -0.0261
 6560W        W10624   9.264   3.149   8.034  0.1338  0.1461  0.0533
 6561W        W10625   6.426   8.196   2.292 -0.0190  0.1877  0.1550
 6562W        W10626   3.249  10.257  10.468 -0.2145 -0.0711 -0.1151
 6563W        W10627   6.103   4.444   1.423  0.0983 -0.1075 -0.1233
 6564W        W10628   9.466   0.712  11.324 -0.1337 -0.0592 -0.4269
 6565W        W10629   8.049   7.521   0.038 -0.1062  0.0579  0.1906
 6566W        W10630   2.980   8.186  10.645  0.2469 -0.1059 -0.0485
 6567W        W10631   5.227   2.606   0.812  0.0793 -0.1824 -0.0523
 6568W        W10632   4.486  10.378  11.084 -0.1183  0.0435  0.0595
 6569W        W10633   5.915   1.387   1.443 -0.0888  0.1927 -0.1383
 6570W        W10634   8.496   1.833   1.524 -0.2409  0.1622  0.0356
 6571W        W10635   9.883   3.746   8.360  0.2367 -0.2096  0.1746
 6572W        W10636   5.082  10.072   9.686 -0.1881  0.2547  0.1679
 6573W        W10637   8.469  10.110   9.684 -0.0115  0.1317 -0.2523
 6574W        W10638   7.446   5.937   9.064 -0.0004  0.0255 -0.0944
 6575W        W10639   3.144   6.404   3.069 -0.0455  0.0682 -0.0624
 6576W        W10640   4.312  10.272   8.252  0.0017  0.0661 -0.1764
 6577W        W10641   5.986   8.989   9.694 -0.0818 -0.0993 -0.3991
 6578W        W10642   4.966  10.163   3.714  0.2233 -0.0943  0.1301
 6579W        W10643   3.012  10.490   0.043 -0.0217 -0.2393  0.1901
 6580W        W10644   3.383   8.686   3.463  0.0445  0.3467 -0.0157
 6581W        W10645  10.570   4.091   9.424 -0.1156 -0.0187  0.0657
 6582W        W10646   0.119   7.048   0.042  0.0577 -0.0758  0.0887
 6583W        W10647   1.164   2.585   0.213 -0.2495 -0.2733  0.2868
 6584W        W10648   6.302  10.562  11.441  0.2414 -0.2793 -0.0469
 6585W        W10649   3.742   5.268   9.454  0.1009 -0.0921  0.1631
 6586W        W10650   8.309   9.184  10.507 -0.2602 -0.0457  0.0360
 6587W        W10651   8.954   8.590   0.113  0.3326  0.1834 -0.1075
 6588W        W10652   3.955   4.655   0.429 -0.1056  0.1991  0.0697
 6589W        W10653   1.745   6.936   1.296  0.0875  0.0758 -0.1017
 6590W        W10654   1.724   1.266   9.798 -0.0210 -0.1212  0.3090
 6591W        W10655   1.950   7.631   8.442  0.0136 -0.1706  0.0684
 6592W        W10656   6.198   3.734  10.800 -0.0303 -0.2197  0.1550
 6593W        W10657   4.442   1.674   1.439 -0.1552  0.0305 -0.2286
 6594W        W10658   0.665   0.125  10.451  0.0276 -0.1579  0.2731
 6595W        W10659   5.362   7.174   9.225  0.1141 -0.3025 -0.1673
 6596W        W10660   4.143   8.527   0.333 -0.3390  0.0334 -0.0340
 6597W        W10661   1.522   0.959   0.954  0.0581  0.0285 -0.0126
 6598W        W10662   1.191   4.354   7.577  0.2980 -0.0081  0.0700
 6599W        W10663   4.264   0.123   1.263  0.0571 -0.1704 -0.2611
 6600W        W10664   9.095   9.053   3.127 -0.2537 -0.3842  0.2703
 6601W        W10665   2.262   2.472   2.727 -0.2094 -0.0722  0.1550
 6602W        W10666   6.577   2.685  11.455  0.0716 -0.2616  0.1088
 6603W        W10667   7.012   6.163   0.073 -0.0263  0.1686 -0.0177
 6604W        W10668   3.989   3.157   1.561  0.0355  0.1131  0.0618
 6605W        W10669  10.411   6.269   9.684  0.0861  0.1648  0.2118
 6606W        W10670   7.944   5.578  10.467 -0.1182 -0.0517 -0.0808
 6607W        W10671   9.642   6.503   0.475  0.0097 -0.2213  0.2390
 6608W        W10672   8.274   6.627   2.649  0.1851 -0.1189  0.1148
 6609W        W10673   6.254  10.101   2.544  0.3201  0.2006 -0.0763
 6610W        W10674   4.065   9.639   7.691  0.1187  0.1894 -0.0409
 6611W        W10675   4.642   4.109   3.766 -0.1893 -0.0142 -0.1770
 6612W        W10676   5.671   0.195   1.488  0.0764 -0.0967  0.1094
 6613W        W10677   4.146   3.622   0.161 -0.1170 -0.0301  0.0184
 6614W        W10678   5.696   9.997   1.631 -0.1131  0.2629 -0.2179
 6615W        W10679   1.624   8.085  10.704 -0.1807  0.0094  0.0334
 6616W        W10680   9.732   1.234  10.273  0.0651 -0.0307 -0.2479
 6617W        W10681   0.398   6.336   7.848  0.0829  0.0433  0.1457
 6618W        W10682   4.401   4.247   3.300  0.1744 -0.0969 -0.0196
 6619W        W10683   1.513   6.177  10.509 -0.0857  0.1802 -0.2958
 6620W        W10684   3.204   5.895   8.930 -0.1445  0.0257 -0.1986
 6621W        W10685   3.326   4.580  11.099 -0.0170 -0.0157  0.1263
 6622W        W10686   9.595   3.644  10.556 -0.2591 -0.2417 -0.0714
 6623W        W10687   4.687   8.864   9.250  0.1072 -0.0682  0.1544
 6624W        W10688   9.995   6.540   0.791  0.0326 -0.0670  0.1708
 6625W        W10689   7.154   8.535   9.681 -0.0725  0.0064 -0.0801
 6626W        W10690   4.478   9.923   8.537 -0.1463  0.0180 -0.1906
 6627W        W10691   2.028   4.660   3.112  0.1882  0.0059 -0.0791
 6628W        W10692   1.428   9.488   8.227 -0.1215 -0.0709 -0.0432
 6629W        W10693   3.709   7.146   3.066 -0.3427 -0.3195  0.2369
 6630W        W10694   7.872   0.945   3.469 -0.0372 -0.0037 -0.3164
 6631W        W10695   6.368   1.074   9.831 -0.1892 -0.1071  0.1579
 6632W        W10696   2.481   2.243   7.748 -0.2168 -0.0914  0.3138
 6633W        W10697   9.387   1.392   1.363 -0.0094  0.0066 -0.1244
 6634W        W10698   9.799   7.731   1.311  0.0557 -0.1085 -0.0775
 6635W        W10699   0.708   1.734   2.694 -0.0758 -0.1000 -0.4331
 6636W        W10700   9.389   8.020  10.882 -0.3979  0.0752  0.0246
 6637W        W10701   9.203   1.970   1.099 -0.0934  0.0586 -0.1320
 6638W        W10702   3.528   1.901   8.542 -0.2581  0.1839 -0.0226
 6639W        W10703   2.493   2.424   2.268 -0.1587 -0.2297  0.0239
 6640W        W10704   7.821   0.294   0.697 -0.1573  0.0073  0.0757
 6641W        W10705   4.234   3.740   0.624  0.1011  0.0431  0.0074
 6642W        W10706   2.108   8.645   3.439 -0.1897 -0.0702 -0.2376
 6643W        W10707  10.316   9.952   9.878  0.0739 -0.2665  0.0094
 6644W        W10708   3.588   8.061   9.990 -0.1967 -0.3980  0.1817
 6645W        W10709   6.558   4.661   3.183 -0.0522  0.1355 -0.1940
 6646W        W10710   4.426   1.205  10.272  0.0811 -0.0292  0.4080
 6647W        W10711   3.338   1.297   9.743 -0.0603  0.2209  0.1410
 6648W        W10712   8.201   5.672   7.647 -0.0956 -0.3966 -0.0429
 6649W        W10713   6.530   6.360  11.488  0.1218  0.0565  0.1358
 6650W        W10714   6.265   3.396   8.071 -0.3120 -0.0227  0.1188
 6651W        W10715   3.700   3.170   8.384  0.0259  0.0437 -0.3103
 6652W        W10716   6.037   7.127   0.963  0.0436  0.0881 -0.1095
 6653W        W10717   2.241   5.944   0.078 -0.0467 -0.1401 -0.0334
 6654W        W10718   4.428   5.875   0.380  0.1050 -0.0498  0.0344
 6655W        W10719   0.628   7.707   3.167 -0.2390  0.3387 -0.0330
 6656W        W10720   0.201   0.086   8.651  0.2796  0.1797 -0.1066
 6657W        W10721   0.478   7.122   8.767 -0.1412  0.2637  0.1988
 6658W        W10722   0.607   0.622   2.527 -0.0151 -0.3864 -0.2875
 6659W        W10723   9.709   8.782   8.439 -0.1235  0.1461  0.0203
 6660W        W10724   8.050   1.937   0.475 -0.2582 -0.1989 -0.1776
 6661W        W10725  10.505   3.740  11.456  0.0610  0.1082  0.0536
 6662W        W10726   0.391   6.045   1.283  0.1460 -0.0975  0.0018
 6663W        W10727   7.899   0.590   2.072  0.1729 -0.2183 -0.1770
 6664W        W10728   9.715   6.789  11.543  0.1769 -0.0038  0.3271
 6665W        W10729   7.302   2.755   8.909 -0.0637  0.1006  0.2786
 6666W        W10730   6.146   0.392   9.215 -0.1195 -0.1017 -0.1484
 6667W        W10731   1.854   7.478   1.753 -0.0821  0.1314 -0.0763
 6668W        W10732   4.897   4.707   2.524  0.2333 -0.1818 -0.0918
 6669W        W10733  10.536   5.268  10.186  0.0917  0.0178  0.3157
 6670W        W10734   0.560   8.287  11.220  0.0352 -0.2512 -0.0773
 6671W        W10735   8.590   3.758  11.315 -0.0318  0.1139  0.1270
 6672W        W10736   6.113   3.026   8.987  0.1606  0.4150 -0.3432
 6673W        W10737   4.992   8.965   2.932 -0.0979 -0.0816  0.2896
 6674W        W10738   7.293   6.042   1.649 -0.1826  0.4074 -0.1216
 6675W        W10739   3.885   8.815   9.273 -0.0178 -0.0339  0.1765
 6676W        W10740   5.118   1.885   2.927  0.0825 -0.1426  0.0308
 6677W        W10741   8.402   9.582   1.783 -0.0113 -0.0276  0.1293
 6678W        W10742   9.382   1.260   2.182 -0.0057 -0.1368 -0.1319
 6679W        W10743   0.702   6.293  11.238  0.1189  0.3156 -0.1580
 6680W        W10744   3.703   3.815   0.198  0.1181  0.2278 -0.1047
 6681W        W10745   8.615   9.953   2.020  0.1435  0.2044  0.0531
 6682W        W10746   2.331   2.688   1.116  0.4716  0.0298  0.4020
 6683W        W10747   6.855   6.769   8.637 -0.2268  0.1921  0.1410
 6684W        W10748   2.254   8.603   2.764 -0.2160 -0.0951  0.2474
 6685W        W10749   0.675   0.889   3.322 -0.2332  0.0096 -0.1049
 6686W        W10750   7.726   6.778   1.244 -0.1302  0.1924 -0.1333
 6687W        W10751   9.609   7.855   9.891 -0.0830  0.2155  0.2303
 6688W        W10752   1.945   2.461   9.105 -0.2056 -0.2465 -0.2525
 6689W        W10753   5.834   2.802   1.229 -0.1689  0.2308 -0.2212
 6690W        W10754  10.146   4.809   3.165  0.1870 -0.4224  0.0274
 6691W        W10755   9.433   5.560   7.499  0.2445  0.5576 -0.2571
 6692W        W10756   9.888  10.335   0.404  0.0097 -0.0001  0.1289
 6693W        W10757   8.502   8.937  11.490 -0.2180 -0.0962 -0.0152
 6694W        W10758   2.996   0.029  10.190 -0.0015 -0.0790 -0.1020
 6695W        W10759   8.861   6.699   1.320 -0.0002 -0.1007  0.3416
 6696W        W10760   7.966   5.885   0.086 -0.1626 -0.2277  0.0305
 6697W        W10761   7.357   0.155   0.880  0.2069  0.2707 -0.0177
 6698W        W10762   9.320   3.853  10.201  0.3858 -0.2297  0.1674
 6699W        W10763   9.219   0.788   2.142  0.0214 -0.1090  0.1066
 6700W        W10764   2.963   8.608   3.837 -0.0296 -0.0972 -0.0105
 6701W        W10765   4.796   9.022   8.775  0.0207 -0.1761 -0.0341
 6702W        W10766   9.509   2.940   2.702  0.1236 -0.4627  0.2210
 6703W        W10767   4.105   6.786   1.798 -0.0391  0.0422  0.0583
 6704W        W10768   5.250   2.107  10.059 -0.2039 -0.1760 -0.1104
 6705W        W10769   5.276   0.363  10.843  0.0869 -0.2748 -0.0345
 6706W        W10770   4.346   1.909   0.803 -0.1557  0.2672  0.3064
 6707W        W10771  10.502   6.274  10.271 -0.0514  0.0636  0.1991
 6708W        W10772   3.389   5.216   7.733  0.3062  0.0459 -0.1830
 6709W        W10773   8.326   1.940   2.569  0.2980 -0.2376  0.0417
 6710W        W10774   5.771   8.068   9.354 -0.1977  0.0259 -0.2418
 6711W        W10775   5.325   1.973   7.977 -0.2368 -0.3040 -0.1240
 6712W        W10776   0.997   2.579  10.250  0.0549  0.0774 -0.0025
 6713W        W10777   1.314   3.425   0.052  0.0470  0.1357 -0.0064
 6714W        W10778   3.626   3.509   3.082 -0.0451 -0.0478  0.1648
 6715W        W10779  10.552   2.098   1.893 -0.2802 -0.1893  0.2157
 6716W        W10780   1.721   0.222   3.418  0.3671  0.1584  0.0789
 6717W        W10781  10.638   1.591   3.373  0.0167 -0.0827  0.1903
 6718W        W10782   4.462   8.893  11.377  0.1340  0.1096  0.0741
 6719W        W10783   2.147   7.353   2.174 -0.1095  0.0964 -0.1581
 6720W        W10784   4.609   4.025  10.692  0.0686 -0.2985 -0.2534
 6721W        W10785  10.664   9.393   0.917  0.2510  0.0481  0.2312
 6722W        W10786   3.100   7.355  10.117  0.2069 -0.4752 -0.0280
 6723W        W10787   1.513   7.674   4.169  0.1516 -0.0150 -0.1535
 6724W        W10788   0.914   2.929   0.618  0.0904 -0.0434  0.2396
 6725W        W10789   6.224   6.842   3.606  0.0314 -0.0513 -0.3586
 6726W        W10790   5.091   7.141   9.977  0.4284  0.3119  0.1257
 6727W        W10791   7.282   5.119   8.682 -0.1155  0.0440  0.0405
 6728W        W10792   6.101   7.537   1.240 -0.1019  0.0825 -0.0340
 6729W        W10793   2.903   1.163   0.014 -0.1191  0.2000 -0.2876
 6730W        W10794   3.785   1.801   0.851 -0.0369 -0.0979  0.1552
 6731W        W10795   9.461   5.534   8.008 -0.1501 -0.1586 -0.1173
 6732W        W10796   2.875   1.418   3.066 -0.0370 -0.1268  0.1605
 6733W        W10797   0.736   2.270  11.066 -0.2101  0.0204 -0.1742
 6734W        W10798   4.600   9.413   1.485  0.2728  0.0013  0.1308
 6735W        W10799   6.685   6.814   2.393 -0.2064  0.0376  0.3799
 6736W        W10800  10.299   3.035   0.087  0.0356 -0.1896  0.1341
 6737W        W10801  10.583   2.816   9.103  0.0805  0.2886  0.0567
 6738W        W10802   6.150   7.094   1.494 -0.0845 -0.0222 -0.0024
 6739W        W10803   1.462   8.790   2.276 -0.1880  0.3290 -0.2169
 6740W        W10804   7.219   9.895   0.896 -0.2612 -0.0327 -0.2565
 6741W        W10805   0.971   8.918   2.506  0.0673  0.0760  0.1140
 6742W        W10806   3.977   2.030   8.140  0.2330  0.1531 -0.0952
 6743W        W10807   2.417   9.176   0.253  0.1242 -0.1360  0.1624
 6744W        W10808   0.299   4.577   0.170 -0.0460 -0.4734 -0.0301
 6745W        W10809   7.171   3.350   9.314  0.2687  0.0510 -0.0692
 6746W        W10810   7.561   8.292   8.651 -0.1048  0.1039  0.0842
 6747W        W10811   7.603   8.161   1.271  0.1038 -0.1780  0.1776
 6748W        W10812   2.116   1.085   3.310  0.0466 -0.2126 -0.2347
 6749W        W10813   4.732   2.080   3.743 -0.2109 -0.0687  0.2454
 6750W        W10814   8.196   5.711   9.294  0.3958 -0.0968 -0.2564
 6751W        W10815   3.747   2.336   4.562 -0.5159  0.1249 -0.0331
 6752W        W10816   7.409   7.731   1.199  0.0407  0.0124  0.2077
 6753W        W10817   6.224   9.321   2.665  0.0556  0.3297 -0.3790
 6754W        W10818   6.497   1.992   1.381 -0.1611  0.1813 -0.0289
 6755W        W10819   3.899   8.069   1.820  0.3202 -0.0444 -0.0967
 6756W        W10820   6.632   9.186   9.482 -0.0188  0.0079  0.1117
 6757W        W10821   1.126   5.161   2.141 -0.0688 -0.0673 -0.1532
 6758W        W10822   5.853   0.814   8.930 -0.0935  0.2327 -0.1941
 6759W        W10823  10.614   2.597   3.310  0.2437  0.0890 -0.0397
 6760W        W10824   1.128   1.008  10.631  0.0930 -0.0310  0.0228
 6761W        W10825   3.521   3.074   2.702  0.2514  0.0519 -0.3884
 6762W        W10826   1.006   6.803   2.370  0.0352 -0.5311  0.0418
 6763W        W10827   1.487   8.286   2.324 -0.0652  0.0105 -0.0971
 6764W        W10828   4.008   5.490   2.223 -0.0498  0.1742  0.1856
 6765W        W10829   9.498   6.839   1.616 -0.0419  0.2958 -0.2170
 6766W        W10830   6.285   6.095  10.498 -0.0385 -0.2964 -0.2046
 6767W        W10831   1.737   2.503   3.292 -0.0104  0.1698 -0.0907
 6768W        W10832   1.756   5.158   9.206  0.2683  0.1299 -0.0022
 6769W        W10833   1.247   4.915   3.379  0.0171  0.0273 -0.1638
 6770W        W10834   1.611   0.534   2.158 -0.2995 -0.0677 -0.4258
 6771W        W10835   2.178   6.222   7.935  0.0324 -0.3086 -0.2606
 6772W        W10836   0.571   6.401   0.690 -0.1509 -0.1420 -0.2069
 6773W        W10837   5.733   4.439   0.489 -0.2773  0.0844  0.2099
 6774W        W10838   3.493   7.668  10.760  0.1282 -0.4663 -0.0519
 6775W        W10839   7.900   6.188   1.649  0.1395 -0.0507  0.2552
 6776W        W10840   5.387   7.101  11.448 -0.2639 -0.0248  0.0912
 6777W        W10841   5.065   2.883   0.453 -0.1620  0.1147 -0.1193
 6778W        W10842   4.202   4.769   2.077  0.1122 -0.1214 -0.1151
 6779W        W10843   2.640   4.246   1.964 -0.0487 -0.1060  0.0219
 6780W        W10844  10.106   3.435   2.419  0.0146 -0.4072  0.0072
 6781W        W10845   1.847   4.994   1.765 -0.1947  0.1232  0.0555
 6782W        W10846   2.499   1.251   0.316 -0.0435  0.2667 -0.0408
 6783W        W10847   4.186   9.443   9.480 -0.1719 -0.1933  0.1397
 6784W        W10848   8.815   2.129   1.816 -0.1783 -0.0706  0.2159
 6785W        W10849   2.499   3.958  10.112  0.2635 -0.2110  0.0993
 6786W        W10850  10.102   8.704   1.639  0.0064  0.0771 -0.0657
 6787W        W10851   4.233   6.786   3.775 -0.0281 -0.0990 -0.0817
 6788W        W10852   0.355   4.970  11.371  0.0294  0.0469 -0.1581
 6789W        W10853   1.588   3.871   2.754  0.0827 -0.3711 -0.1617
 6790W        W10854   6.093   5.201   8.293  0.2498  0.0778  0.0217
 6791W        W10855   0.688   6.577   9.764  0.0724  0.0095  0.1899
 6792W        W10856   2.519   0.692   3.268  0.2525  0.4116 -0.2005
 6793W        W10857   1.298   2.790   4.105  0.1981 -0.4115 -0.3343
 6794W        W10858   6.591   3.384   3.559 -0.1238  0.1598 -0.1840
 6795W        W10859   8.338   4.143   3.409  0.1406 -0.0724 -0.0839
 6796W        W10860   1.314   4.891   2.649 -0.0653  0.2483 -0.1664
 6797W        W10861   5.440   0.495   2.752  0.1147 -0.1691  0.0516
 6798W        W10862   4.205   4.731   3.579 -0.2235 -0.1450  0.1712
 6799W        W10863   9.070   4.466  10.759  0.1437  0.1964 -0.2129
 6800W        W10864  10.352   2.375   8.913 -0.2773  0.0275  0.1489
 6801W        W10865   3.600   2.987   0.690 -0.3665  0.1006  0.0190
 6802W        W10866   1.922   6.437   1.215  0.2581 -0.1542 -0.0830
 6803W        W10867   1.887   1.698   9.593  0.0247  0.1615 -0.1447
 6804W        W10868  10.017   1.145   8.165 -0.0329 -0.1093 -0.1261
 6805W        W10869   1.717  10.319   4.386  0.3893 -0.1030 -0.0164
 6806W        W10870   7.462   2.997   2.736 -0.0063  0.1514 -0.3395
 6807W        W10871   1.035   7.809   0.985  0.0996  0.0108 -0.1133
 6808W        W10872   3.383   3.310   0.173 -0.1320 -0.1185 -0.1712
 6809W        W10873   7.400   6.477   0.762 -0.3707 -0.1958 -0.1451
 6810W        W10874   9.685   9.253   0.565  0.0501  0.1174 -0.3542
 6811W        W10875   4.977   9.197  10.101  0.1501  0.1100  0.0800
 6812W        W10876   0.558   8.547   1.405 -0.0410 -0.0289 -0.1159
 6813W        W10877   5.496   5.832   0.682  0.0271 -0.0220  0.3948
 6814W        W10878   5.513   3.812   9.035  0.2929  0.0356 -0.0722
 6815W        W10879   9.550   1.825  11.434  0.4233  0.1166 -0.3658
 6816W        W10880   7.809   9.546   1.499  0.2017 -0.0180  0.0029
 6817W        W10881   2.032   1.809   7.861  0.2442  0.0263  0.1967
 6818W        W10882   2.561   8.685   9.118 -0.0422 -0.1196 -0.1266
 6819W        W10883   3.823   6.054   3.772 -0.0010 -0.0241 -0.0261
 6820W        W10884   9.597   9.534   9.429  0.1370 -0.3988  0.3518
 6821W        W10885   0.353   9.967   9.302  0.0258  0.1295  0.0642
 6822W        W10886   2.861   3.589   8.085  0.3062 -0.3008  0.1569
 6823W        W10887   6.516   4.742  11.494  0.2354  0.1617 -0.1613
 6824W        W10888  10.434   7.788   8.523  0.0185  0.3133 -0.0555
 6825W        W10889   5.196   1.782   0.190 -0.2643 -0.0289  0.0394
 6826W        W10890   1.314   5.817   2.729  0.1581  0.1232  0.1655
 6827W        W10891   3.812   7.612   2.477 -0.0661  0.0588  0.2091
 6828W        W10892  10.506   1.207  10.522  0.1099  0.3267 -0.1024
 6829W        W10893   1.507   6.745  11.453 -0.1704  0.1928 -0.1879
 6830W        W10894   9.126   3.612   3.874  0.3059 -0.2606 -0.3752
 6831W        W10895   4.567   6.479   3.433  0.1081 -0.2227  0.0535
 6832W        W10896   5.399   5.205  10.935  0.1079 -0.1118  0.2750
 6833W        W10897   5.678   1.850   2.964 -0.1307 -0.0245 -0.0009
 6834W        W10898   9.325   6.583   1.105  0.0846 -0.1978 -0.0041
 6835W        W10899   1.096   0.590   9.159  0.3200  0.0284 -0.2566
 6836W        W10900   2.542   3.720   0.072  0.2252 -0.0155  0.2457
 6837W        W10901   8.734   3.843   0.588  0.2488  0.2841  0.0582
 6838W        W10902  10.613   0.799  10.846 -0.1472  0.0101  0.2479
 6839W        W10903   7.344   5.311   0.264  0.0432  0.3921 -0.0354
 6840W        W10904   0.541   7.303   0.007  0.3532  0.1784 -0.1812
 6841W        W10905   6.705   4.804   0.422 -0.0739  0.2953  0.1358
 6842W        W10906   3.090   9.533   4.716  0.0943 -0.2115  0.0607
 6843W        W10907   2.607   0.131   2.936  0.2903  0.1567  0.0012
 6844W        W10908   2.086   1.376   3.719 -0.0375 -0.1433  0.3113
 6845W        W10909   3.361   7.882   1.653  0.1880  0.2359 -0.0340
 6846W        W10910   5.710   9.602   2.099 -0.1944  0.1320  0.3124
 6847W        W10911   6.953   9.321   1.499 -0.0281 -0.0636 -0.3193
 6848W        W10912   6.058   3.469   0.133  0.1029  0.0240 -0.0458
 6849W        W10913   3.439   7.395   0.755  0.2027  0.1682  0.0044
 6850W        W10914   8.963   7.498   7.894  0.1397  0.0877  0.2635
 6851W        W10915   9.237   5.323   0.319  0.0292  0.1994 -0.0444
 6852W        W10916   4.298   8.806   9.546 -0.0917  0.3881 -0.0177
 6853W        W10917   3.604   4.939   9.764  0.1545  0.2126  0.2442
 6854W        W10918   2.808   6.704   8.307  0.1825 -0.4076 -0.4228
 6855W        W10919   1.888   9.039   9.931 -0.1175 -0.1208 -0.1312
 6856W        W10920   4.239   2.621   9.944 -0.4967  0.0187 -0.0516
 6857W        W10921   7.560   4.612   9.679  0.1655 -0.0049 -0.1716
 6858W        W10922   4.118   5.907   1.157  0.2780  0.1972 -0.0342
 6859W        W10923   1.026  10.558   3.819 -0.1599  0.3029 -0.1484
 6860W        W10924   0.565   3.944   8.541  0.2388  0.0094 -0.2988
 6861W        W10925   9.835   0.150   0.521  0.2950 -0.0597  0.2930
 6862W        W10926   7.545   9.020   3.291 -0.1414 -0.2197 -0.1013
 6863W        W10927   1.639   1.775   3.566 -0.0410  0.1559 -0.2072
 6864W        W10928   5.482   4.993   3.065 -0.0017  0.1033  0.1897
 6865W        W10929   3.344   3.055   9.221 -0.1540 -0.1241 -0.2023
 6866W        W10930   3.379   8.027   8.980  0.1656 -0.0009  0.2397
 6867W        W10931   6.869   4.328   9.847 -0.0245 -0.3360  0.0327
 6868W        W10932   2.650   6.845   0.180  0.0635  0.0369  0.1584
 6869W        W10933   7.235   4.590   3.010 -0.1654  0.1459  0.3730
 6870W        W10934   8.171   4.106  11.409 -0.1047  0.0061 -0.2145
 6871W        W10935   9.065   9.885   2.832  0.1406 -0.0616  0.1286
 6872W        W10936   9.184   6.199   2.029  0.2994 -0.1787 -0.1285
 6873W        W10937   9.505   6.958   9.197  0.3311  0.0928  0.1827
 6874W        W10938   5.575   1.993   1.739  0.2073 -0.0851  0.2389
 6875W        W10939   0.593   5.095   0.303  0.3622 -0.2041  0.2133
 6876W        W10940   7.392   6.715   4.316  0.0032  0.0017 -0.1687
 6877W        W10941   2.634   9.000  10.567 -0.3196 -0.0561 -0.2596
 6878W        W10942   8.601   0.251   0.058 -0.1149  0.0377 -0.0914
 6879W        W10943   5.779   2.584   0.492  0.1761 -0.0207  0.2340
 6880W        W10944   6.583   0.210   8.572 -0.0609  0.0160 -0.0010
 6881W        W10945   9.742   6.941   0.945 -0.5315  0.1794  0.0377
 6882W        W10946   4.933  10.482   0.709  0.0369 -0.3172 -0.2567
 6883W        W10947   3.731   2.468   9.950  0.0264 -0.2077  0.0294
 6884W        W10948   8.426   5.395  10.736  0.2348  0.3093  0.2275
 6885W        W10949   6.226   2.447   8.335 -0.1454 -0.0815  0.2020
 6886W        W10950   8.927   4.200   9.847  0.1715  0.0460  0.1278
 6887W        W10951   1.746   2.301   8.679  0.0194  0.1448  0.0796
 6888W        W10952  10.591   5.854   3.489  0.1993  0.0993 -0.1483
 6889W        W10953   9.259   9.276   9.223 -0.3415  0.3187  0.3941
 6890W        W10954   8.231   0.556   3.274 -0.1119 -0.1245  0.2888
 6891W        W10955   2.803   8.376   9.928 -0.2195  0.0341  0.0516
 6892W        W10956   7.994   5.107   1.926 -0.0581 -0.0288  0.0584
 6893W        W10957   3.263   9.885   2.330 -0.0284  0.2003  0.3815
 6894W        W10958   0.563   9.620   2.784 -0.0661  0.0876  0.2042
 6895W        W10959   7.356   8.697  11.446  0.1622  0.3870 -0.2680
 6896W        W10960   8.588   5.494   9.010  0.0879 -0.3286  0.0312
 6897W        W10961   0.519   2.597   8.168  0.0549  0.0792  0.0558
 6898W        W10962   7.968   6.465   0.845 -0.1061 -0.3157 -0.2917
 6899W        W10963   6.093   5.564   8.682 -0.0552 -0.2357  0.1892
 6900W        W10964   4.798   3.777  11.097  0.1263  0.1357 -0.1289
 6901W        W10965   9.232   9.331   1.920 -0.3580  0.0433  0.1794
 6902W        W10966   2.843   1.469   3.799  0.1337 -0.0366 -0.3327
 6903W        W10967   7.658   5.721   2.384  0.1422 -0.0574 -0.3055
 6904W        W10968   6.978   4.714   1.639  0.0995  0.2063 -0.1068
 6905W        W10969   7.666   6.322   3.085 -0.0651 -0.1595  0.3914
 6906W        W10970   3.494   6.705   0.355  0.3816 -0.3198 -0.3281
 6907W        W10971   2.559   0.546   3.739  0.3979 -0.1062 -0.0993
 6908W        W10972   4.314   7.441   0.656 -0.1720 -0.1242 -0.3126
 6909W        W10973   1.858   1.678   0.933 -0.1474 -0.1529 -0.0188
 6910W        W10974   6.393   5.445   9.134 -0.0714  0.1051 -0.0267
 6911W        W10975   2.822  10.113   2.148 -0.2716  0.0670 -0.3565
 6912W        W10976   5.075   8.968   1.223  0.1368  0.0199  0.2575
 6913W        W10977  10.031   8.786   3.477  0.0133 -0.0641 -0.0216
 6914W        W10978   8.859   8.780   9.261 -0.3422 -0.0432 -0.0851
 6915W        W10979   2.439   6.136   9.420 -0.3217  0.1075 -0.1474
 6916W        W10980   2.488   3.354   0.406 -0.0413 -0.0866  0.1911
 6917W        W10981   7.528   1.368   0.983 -0.1287  0.3304  0.0504
 6918W        W10982   7.069   6.119   0.696  0.0198 -0.1625  0.3594
 6919W        W10983   1.969   9.527   2.544 -0.1714 -0.1116  0.1373
 6920W        W10984   3.156   4.107   7.704  0.0939 -0.2447 -0.3287
 6921W        W10985   2.405   7.627   9.189 -0.0783 -0.0718  0.1502
 6922W        W10986   4.074   9.181  10.828  0.1127 -0.0920  0.1088
 6923W        W10987  10.647   5.997  10.690  0.0957 -0.4190  0.2179
 6924W        W10988   3.456   0.986   9.377 -0.3176 -0.1186  0.0389
 6925W        W10989   9.121   2.087  11.292 -0.1053  0.1279 -0.1271
 6926W        W10990   0.815   1.176   0.309  0.1815  0.1590 -0.1185
 6927W        W10991  10.086  10.185  10.897 -0.0125 -0.1607  0.0510
 6928W        W10992   3.065   4.749  10.254 -0.0916 -0.2188 -0.0196
 6929W        W10993   1.502   0.621   8.878 -0.1960 -0.1458  0.1809
 6930W        W10994   2.874   1.572   9.617  0.1001  0.1050 -0.1271
 6931W        W10995   6.806  10.215   8.640  0.2648 -0.0703 -0.0173
 6932W        W10996   3.742   8.478   9.840 -0.1494  0.1282 -0.0249
 6933W        W10997   5.665   7.619   0.980  0.0325 -0.1366 -0.3159
 6934W        W10998   2.402   2.770   8.933 -0.1866  0.1726  0.0467
 6935W        W10999   4.790   4.359   0.062  0.2529 -0.2480  0.0053
 6936W        W11000   2.730   1.154   7.941  0.2350  0.3642 -0.1364
 6937W        W11001   0.210   6.133   0.425 -0.1821 -0.1636 -0.1438
 6938W        W11002   2.380   7.452   8.600 -0.0849 -0.0458 -0.0930
 6939W        W11003   8.634   4.897   2.975  0.0934 -0.0804  0.2045
 6940W        W11004   9.592   0.629   1.850  0.0047  0.1915  0.2872
 6941W        W11005   9.680   2.896   1.393  0.0078 -0.3010  0.1557
 6942W        W11006   8.889   0.113   1.439  0.2202  0.0539  0.0426
 6943W        W11007   6.541   9.550   0.741  0.0524  0.2868 -0.0531
 6944W        W11008   9.265   0.752  10.248 -0.0525  0.3262  0.1859
 6945W        W11009   7.525   2.455   8.470  0.0478  0.0645  0.0566
 6946W        W11010   3.121   0.603   8.506  0.0402  0.1366 -0.2742
 6947W        W11011   0.659   8.808  11.487  0.0605  0.2391  0.0258
 6948W        W11012   1.362   2.293   7.497  0.2706 -0.2852 -0.0592
 6949W        W11013   8.827   9.493   2.261  0.0510  0.0136 -0.1386
 6950W        W11014   4.608   0.478   2.263  0.0488  0.2312 -0.0061
 6951W        W11015   0.890  10.182   4.160 -0.3631  0.2194  0.0244
 6952W        W11016   9.304   3.249   3.618 -0.1153 -0.0553 -0.2308
 6953W        W11017   4.762   0.034   7.757 -0.0974  0.0942  0.1820
 6954W        W11018   7.869   7.087   3.514  0.1570  0.0619  0.2446
 6955W        W11019   5.322   2.091  11.346  0.1473  0.0066 -0.0648
 6956W        W11020   6.681   5.011   8.311 -0.1815  0.0127  0.0291
 6957W        W11021   2.512   1.016  10.809 -0.2436  0.2137 -0.0675
 6958W        W11022   5.920   0.277  10.084 -0.0263 -0.0560  0.0408
 6959W        W11023   4.563   1.963   9.671  0.4143  0.2579 -0.4220
 6960W        W11024   7.576   5.047  10.709  0.2681  0.0954 -0.1478
 6961W        W11025   7.743   1.335  11.297  0.0706  0.0576 -0.2260
 6962W        W11026   0.708   1.703   0.247  0.2222  0.0805 -0.0654
 6963W        W11027   8.389   6.515   8.878 -0.0844 -0.0101  0.1435
 6964W        W11028   2.780   0.761   0.373  0.0853 -0.0889 -0.2087
 6965W        W11029   6.944   2.014   8.907  0.0413  0.0609  0.2289
 6966W        W11030   6.893   4.105   7.902  0.1321 -0.0658 -0.1462
 6967W        W11031   6.266   2.179   3.012 -0.0214 -0.2405  0.0553
 6968W        W11032   4.936   6.511  10.826  0.0691 -0.1823 -0.0017
 6969W        W11033   0.390   0.506   0.695  0.2061 -0.0023  0.2063
 6970W        W11034   2.843   2.733   1.058 -0.0618  0.0069  0.0248
 6971W        W11035   1.804   9.686   0.039 -0.2503  0.1798 -0.2625
 6972W        W11036   2.122   4.074   0.715 -0.2189 -0.0195 -0.1061
 6973W        W11037   5.498   4.918  10.466  0.2353 -0.2584 -0.2507
 6974W        W11038  10.177   7.653   2.578 -0.1183 -0.0809 -0.3394
 6975W        W11039   5.609   4.249   8.375 -0.0649  0.1596  0.1720
 6976W        W11040   7.287   6.445   1.214  0.1576 -0.0524  0.1024
 6977W        W11041   3.008   0.444   1.911  0.0701 -0.3163  0.3212
 6978W        W11042   7.859  10.048   0.369 -0.0473 -0.3685 -0.5436
 6979W        W11043   7.042   2.421   8.558  0.2379  0.0221 -0.0428
 6980W        W11044  10.345   3.649   8.541 -0.2969 -0.2468  0.1091
 6981W        W11045   8.195   5.757   2.265 -0.3222 -0.0326  0.1646
 6982W        W11046   9.000   0.002   2.256  0.1269 -0.0605  0.0685
 6983W        W11047  10.026   1.851   9.663  0.3903 -0.0567 -0.0066
 6984W        W11048   0.693   3.204   1.629 -0.0399 -0.1622  0.0713
 6985W        W11049   1.207   0.976   2.255  0.3450  0.1328  0.0620
 6986W        W11050   5.077   4.312  11.128 -0.0662 -0.0014  0.3494
 6987W        W11051   8.618   5.480   9.515 -0.1838 -0.0432  0.2364
 6988W        W11052   3.772  10.043   3.104  0.0059 -0.1647  0.0775
 6989W        W11053   2.452  10.553   8.097  0.1280 -0.0536 -0.1016
 6990W        W11054   8.918   3.036  11.430 -0.0141  0.0816  0.0504
 6991W        W11055   2.991   9.926  10.139  0.2117 -0.1247 -0.1912
 6992W        W11056   6.850   0.064   9.912  0.0498 -0.1151 -0.1748
 6993W        W11057  10.083   7.755  11.206  0.1525 -0.0187 -0.2916
 6994W        W11058   9.788   6.037   0.265 -0.0545 -0.2051  0.2106
 6995W        W11059   2.340   0.427   9.550 -0.3010  0.0157  0.1563
 6996W        W11060   8.790   0.698   9.991 -0.0631 -0.1492  0.1916
 6997W        W11061   9.058   9.647   1.037  0.1228 -0.0524  0.0405
 6998W        W11062   6.817   3.892   3.561 -0.0175  0.0538 -0.0114
 6999W        W11063   4.855   7.071  10.737 -0.0195 -0.0935 -0.0733
 7000W        W11064   8.835   2.436   3.370  0.2257  0.1988 -0.0370
 7001W        W11065   9.794   2.076   0.849  0.1438 -0.0085  0.3957
 7002W        W11066   2.056   7.889  10.480 -0.0946 -0.4009  0.0603
 7003W        W11067   9.652   7.054   3.544  0.1615  0.0407 -0.3942
 7004W        W11068   5.411   6.330   7.473  0.0511  0.0539 -0.0768
 7005W        W11069   7.649   2.298   0.690 -0.1800  0.0329 -0.1847
 7006W        W11070  10.643   3.331  11.285 -0.5657 -0.0097 -0.1861
 7007W        W11071  10.459   6.548   3.542  0.0248  0.0713 -0.2071
 7008W        W11072   1.219   1.396   9.508 -0.3986 -0.5499 -0.2436
 7009W        W11073   5.179   2.890   9.266  0.4703  0.0933  0.1038
 7010W        W11074   4.565   7.464   3.123  0.2860 -0.0102  0.3630
 7011W        W11075   9.671   7.881   1.842  0.1027 -0.3062 -0.3313
 7012W        W11076   9.811   6.345   9.597 -0.1485 -0.2255 -0.3348
 7013W        W11077   6.479   6.653   1.907  0.0764 -0.2058  0.3450
 7014W        W11078   7.339   2.961  10.965  0.0795  0.0486 -0.1882
 7015W        W11079   2.802   0.196   3.430 -0.0814  0.0272  0.0609
 7016W        W11080   0.426   1.960   8.427  0.1195 -0.0954  0.0461
 7017W        W11081   1.040   3.037  10.511  0.1682  0.0465  0.2396
 7018W        W11082   4.425  10.068   9.114 -0.0172  0.1498  0.0366
 7019W        W11083   5.017   0.738   0.459  0.0345 -0.1522  0.0506
 7020W        W11084   2.265   5.159   9.221 -0.0170 -0.1302  0.1378
 7021W        W11085  10.506   0.859   0.240  0.0847  0.0740 -0.0380
 7022W        W11086   3.368   7.680   2.643  0.1261  0.3461 -0.2494
 7023W        W11087   0.110   0.044   2.297 -0.0726  0.0583  0.1593
 7024W        W11088   8.279   7.565  10.733  0.0142  0.1674  0.1451
 7025W        W11089  10.402   9.667   1.835  0.0902 -0.0817  0.0343
 7026W        W11090   6.901   5.513   2.369  0.3601  0.2940  0.0096
 7027W        W11091   4.383   8.191   1.944  0.0433 -0.1176 -0.0130
 7028W        W11092   7.863   5.717   1.864  0.2047  0.1376  0.2426
 7029W        W11093   6.550   8.721   9.674  0.0039 -0.0508  0.0765
 7030W        W11094   3.216   7.337   3.032  0.0571  0.2962  0.2032
 7031W        W11095   1.336   9.746   1.354 -0.2147 -0.5275 -0.2462
 7032W        W11096   5.261   9.462   9.453  0.0302 -0.1803 -0.4233
 7033W        W11097   2.026   9.312   9.404  0.1659 -0.3753  0.2221
 7034W        W11098   4.225   3.481   2.288 -0.0954  0.1466  0.1748
 7035W        W11099   9.553  10.586   8.313 -0.0278 -0.1237  0.1019
 7036W        W11100   8.154   1.155   8.876  0.4358  0.1865 -0.0175
 7037W        W11101   1.038   7.326   8.715  0.1490 -0.1463 -0.0773
 7038W        W11102   3.212   3.129   8.709 -0.0220  0.1108  0.0985
 7039W        W11103  10.443   0.783   2.444  0.1131  0.0121  0.1180
 7040W        W11104   5.863   8.239  10.954 -0.0563 -0.2426 -0.1901
 7041W        W11105   2.434   0.423   0.642  0.0364  0.3028  0.1119
 7042W        W11106   7.629   3.974   2.428  0.2631  0.2295 -0.0058
 7043W        W11107   9.276   0.938   1.042 -0.2518  0.0744 -0.2136
 7044W        W11108   8.148   1.457   2.503  0.0241  0.1529  0.0084
 7045W        W11109   5.443   5.803  11.059 -0.2258 -0.0378  0.0931
 7046W        W11110   1.909   7.119  11.522 -0.3259  0.3507  0.1366
 7047W        W11111   2.788   4.833   2.737 -0.2069  0.0407 -0.2442
 7048W        W11112   5.473   0.093   4.231 -0.1996 -0.6239  0.1043
 7049W        W11113   5.089   1.465   4.412 -0.0109 -0.0490  0.0366
 7050W        W11114   6.231   3.075  11.262 -0.2577 -0.2256 -0.2429
 7051W        W11115   6.577   1.900   1.858  0.0969 -0.0384 -0.0462
 7052W        W11116   8.342   1.321  10.281 -0.0784  0.2239  0.1122
 7053W        W11117   9.255   2.745   3.652 -0.2043 -0.0011 -0.0450
 7054W        W11118   4.454   8.312   1.068 -0.0308  0.0545 -0.2115
 7055W        W11119   8.105   3.923   9.949  0.0516  0.1530 -0.1227
 7056W        W11120   7.675   6.879   0.648 -0.1852  0.1219 -0.4412
 7057W        W11121   4.798   0.820   8.911 -0.1836 -0.0143  0.2097
 7058W        W11122   5.593   6.145  11.415  0.1138 -0.2027 -0.0014
 7059W        W11123   2.985   6.223  11.251 -0.2053 -0.1908  0.2446
 7060W        W11124   0.237  10.471   1.573 -0.1001 -0.0864  0.0886
 7061W        W11125   2.541   5.066   3.614 -0.0289  0.0153 -0.2069
 7062W        W11126   3.909   5.673   9.152 -0.2460  0.0714 -0.0916
 7063W        W11127   3.918   9.463   3.102  0.0357 -0.3579 -0.0161
 7064W        W11128   9.426  10.587   0.150 -0.0481  0.0490  0.0886
 7065W        W11129   3.541   0.042   2.734  0.2404 -0.1082  0.0320
 7066W        W11130   6.078   7.829   0.842  0.4932  0.0563 -0.1619
 7067W        W11131   3.390   5.352   3.154 -0.2042 -0.1923 -0.1828
 7068W        W11132   5.571   8.056   1.887  0.1033 -0.1507  0.0780
 7069W        W11133   3.099   2.917   2.439  0.2261 -0.2212 -0.0271
 7070W        W11134   3.808   6.742   2.794 -0.3051  0.0819 -0.0024
 7071W        W11135   0.895   3.494  10.796 -0.4032 -0.2733 -0.0851
 7072W        W11136   9.785   8.143  11.181 -0.2939  0.0603  0.1733
 7073W        W11137   6.347   1.499   9.525  0.1149 -0.0343  0.0436
 7074W        W11138   3.066   8.094  11.458  0.1881  0.0548  0.0717
 7075W        W11139   7.783   1.236   1.432 -0.3081 -0.2495 -0.0208
 7076W        W11140   3.903   6.046   4.753  0.0656 -0.1608  0.4752
 7077W        W11141  10.310   5.888   1.737 -0.2880 -0.3588  0.0003
 7078W        W11142   3.173   2.752  11.527 -0.1301 -0.1909 -0.0868
 7079W        W11143   3.673   5.451   0.995 -0.2072  0.4536  0.2204
 7080W        W11144   4.115   8.664   1.108 -0.0888 -0.1193  0.0690
 7081W        W11145   4.320   6.191  11.512 -0.3384  0.4020 -0.2356
 7082W        W11146   2.009   0.549   7.839  0.1653  0.0700  0.1850
 7083W        W11147   0.117   1.838   0.623 -0.2953 -0.0384  0.0605
 7084W        W11148   2.673   5.836   7.203 -0.2548  0.1618  0.3472
 7085W        W11149   0.534   2.554   8.827 -0.1075 -0.1612  0.5604
 7086W        W11150   9.626   9.771  11.183 -0.0923 -0.1273  0.3226
 7087W        W11151   6.222   5.308   0.811  0.1758 -0.2161  0.1153
 7088W        W11152   1.247   3.876   1.133 -0.0295  0.0757  0.2691
 7089W        W11153   1.381  10.092   9.554 -0.1329  0.0063  0.1677
 7090W        W11154   8.435   7.819  11.190 -0.3174  0.0437 -0.0464
 7091W        W11155   8.552   6.777  10.926 -0.2115 -0.0263 -0.0008
 7092W        W11156   7.373   8.009   0.312  0.0934  0.2288 -0.1432
 7093W        W11157   7.517   9.465   0.187 -0.0645 -0.0031 -0.1499
 7094W        W11158   7.864   1.530   3.017 -0.2670 -0.0729  0.2019
 7095W        W11159   9.147   8.413   1.477  0.1722 -0.1159 -0.0378
 7096W        W11160   1.284   5.024  10.772 -0.4418 -0.3100  0.2269
 7097W        W11161   7.843   5.490   9.631  0.1008 -0.1428 -0.1398
 7098W        W11162   9.113   4.361   0.629  0.0954 -0.1413  0.3618
 7099W        W11163   0.228   5.989   8.574  0.0260  0.3162  0.2371
 7100W        W11164   5.197   0.882   1.510 -0.2046 -0.3726 -0.3013
 7101W        W11165   7.566   4.586   8.649 -0.1188  0.0918 -0.4623
 7102W        W11166   7.286   7.868   2.568  0.2647  0.1011 -0.3157
 7103W        W11167   5.829   3.288   0.949 -0.1968 -0.0138 -0.2067
 7104W        W11168   0.765   2.342   0.578  0.0173  0.0308 -0.0190
 7105W        W11169   7.569   0.458   8.937  0.1036 -0.5773  0.3011
 7106W        W11170   6.427   3.155   0.237 -0.0555 -0.2604 -0.0699
 7107W        W11171   0.910   7.320   0.848 -0.1387  0.2253  0.2579
 7108W        W11172   7.930  10.490   2.500  0.2234  0.3146  0.2758
 7109W        W11173   1.652   1.920  10.029  0.1941  0.0081  0.0941
 7110W        W11174   6.003   4.110   8.873 -0.0528  0.1489  0.1332
 7111W        W11175   3.904   6.463   0.006 -0.0132  0.2818  0.0030
 7112W        W11176   5.309   4.425   2.248  0.0739 -0.0758 -0.2358
 7113W        W11177  10.602   2.850  11.255  0.0859  0.4583 -0.2298
 7114W        W11178  10.430   5.529   3.161 -0.0757  0.2280 -0.0905
 7115W        W11179   0.767   0.540   8.352  0.0808  0.0810 -0.1309
 7116W        W11180   4.747   3.868   0.858 -0.2210 -0.1465  0.0943
 7117W        W11181   0.105   4.416   0.583  0.1478  0.1586  0.0497
 7118W        W11182   1.310   4.163   8.747  0.3284  0.0649  0.0351
 7119W        W11183   3.403   2.678   8.520 -0.0738  0.0933  0.0524
 7120W        W11184   0.989   8.529   9.292  0.1682  0.0975 -0.1514
 7121W        W11185   2.344   3.904   2.813 -0.1768  0.1875  0.1319
 7122W        W11186   3.350   3.897  10.600 -0.1280 -0.0469  0.0008
 7123W        W11187   1.791   6.489   9.053  0.0916  0.0763 -0.5488
 7124W        W11188   7.282  10.440   1.572  0.2381 -0.3855  0.3119
 7125W        W11189   2.482   7.549   1.746 -0.3833 -0.0609 -0.0632
 7126W        W11190  10.534   9.139   0.427 -0.0017 -0.3638  0.0520
 7127W        W11191   3.975  10.480   9.809 -0.0083  0.2531 -0.1349
 7128W        W11192   5.836   9.196  10.398 -0.2620 -0.0920 -0.0609
 7129W        W11193   2.902   6.049   2.088  0.1198 -0.7444 -0.1278
 7130W        W11194   3.410   5.513  10.855 -0.0940  0.2199  0.2040
 7131W        W11195   7.339   7.061   8.505  0.1308 -0.0290 -0.0643
 7132W        W11196   0.510   3.671   1.835 -0.0755 -0.0293 -0.2998
 7133W        W11197  10.355   0.962   7.691  0.1037  0.1336  0.2493
 7134W        W11198   4.142  10.632   3.875 -0.2341 -0.0657 -0.2979
 7135W        W11199   2.795   1.632  11.387  0.1778  0.0997  0.1229
 7136W        W11200   7.134   9.933   9.439 -0.4637  0.0360  0.5965
 7137W        W11201  10.269   4.408   9.150 -0.1964  0.2495  0.0657
 7138W        W11202   6.719   0.029   0.141  0.1016 -0.0979  0.0055
 7139W        W11203   3.425   6.318  10.309 -0.0975 -0.0926  0.2150
 7140W        W11204   6.923   6.512   1.698  0.1791 -0.1606  0.1524
 7141W        W11205   0.723   1.615  10.149 -0.1151  0.0623 -0.0558
 7142W        W11206   6.606   9.707   1.624 -0.1552  0.1351 -0.0543
 7143W        W11207  10.661   4.809   9.890 -0.0082 -0.1570  0.3795
 7144W        W11208   7.854   9.300   2.089 -0.1294 -0.3027 -0.2687
 7145W        W11209   7.267   7.450   0.125  0.0035 -0.1881 -0.0561
 7146W        W11210   1.789   4.971   2.701 -0.3111  0.3021  0.1789
 7147W        W11211   8.251   8.367   2.577  0.0277 -0.0118 -0.1568
 7148W        W11212   3.317   0.046   1.631  0.0951 -0.1403 -0.0044
 7149W        W11213   1.971   5.818   9.345 -0.2902  0.0803 -0.0818
 7150W        W11214   1.918   4.767   1.005  0.2950 -0.2869  0.2213
 7151W        W11215   2.605   8.656   7.745 -0.2262  0.0690  0.0573
 7152W        W11216  10.636   0.614   9.315  0.1031  0.1612  0.3956
 7153W        W11217   5.464   5.711   2.711 -0.1709 -0.0743 -0.2894
 7154W        W11218   3.457   0.052   9.845  0.0825  0.1666 -0.1969
 7155W        W11219   1.211   0.252   0.472 -0.1295  0.2651  0.2931
 7156W        W11220   2.695   5.788   3.853  0.0775  0.2479  0.0114
 7157W        W11221  10.590   7.738   8.987 -0.1954 -0.0587 -0.0034
 7158W        W11222   7.622   4.296   1.177  0.0446 -0.0148 -0.2269
 7159W        W11223   8.359   3.288  11.408  0.4098 -0.3239  0.4015
 7160W        W11224   9.197   3.436  10.738  0.3653 -0.0463 -0.0973
 7161W        W11225   2.104  10.433   0.592  0.1740 -0.2327  0.0430
 7162W        W11226   7.660   6.383  10.237 -0.1193 -0.0676  0.0970
 7163W        W11227   5.395   8.269   0.449 -0.1332 -0.0051  0.2851
 7164W        W11228   2.151   0.829   4.533 -0.0906 -0.2031 -0.1174
 7165W        W11229   6.074   6.479  10.927  0.0791 -0.0061  0.1349
 7166W        W11230  10.634   7.902  11.324  0.0410  0.2280  0.1528
 7167W        W11231   0.769   9.017   8.352 -0.0562 -0.1701 -0.0832
 7168W        W11232   0.634   1.307  11.005  0.0568  0.0669  0.2295
 7169W        W11233   4.335  10.231   3.079  0.2959 -0.2552 -0.2175
 7170W        W11234   8.952   5.995  10.631  0.1910 -0.2078 -0.1218
 7171W        W11235   2.573   7.869   8.384 -0.4565 -0.1808  0.2992
 7172W        W11236   9.737   3.128   9.136 -0.0891  0.2638 -0.1291
 7173W        W11237   2.395   6.317  10.376  0.1100 -0.0741 -0.1865
 7174W        W11238   3.866   3.757   9.562 -0.2085  0.0065  0.1392
 7175W        W11239  10.049   9.272   7.588 -0.0015  0.1015 -0.0847
 7176W        W11240   6.422   8.395   8.477  0.2615 -0.2461 -0.2794
 7177W        W11241   2.313   3.009  11.000  0.5517  0.2029  0.4474
 7178W        W11242   1.345   6.173   3.049 -0.0090 -0.2173 -0.0724
 7179W        W11243   0.165   1.339   7.608 -0.0827  0.2536 -0.0728
 7180W        W11244   0.508   8.620   9.114  0.0530  0.0309  0.0309
 7181W        W11245   3.988   1.022   0.317 -0.5545  0.0685 -0.0364
 7182W        W11246   5.658   6.193   2.393  0.4904 -0.3233 -0.2957
 7183W        W11247   5.882  10.062   2.164 -0.0800 -0.1878 -0.1174
 7184W        W11248   3.206   9.288   8.021  0.0723  0.0175 -0.1331
 7185W        W11249   6.288   8.455  10.666  0.2575 -0.1343 -0.1603
 7186W        W11250   3.044   8.486   9.110  0.1173 -0.3173  0.0580
 7187W        W11251  10.137   6.547   8.138 -0.0950 -0.0599  0.0119
 7188W        W11252   1.686   7.065   3.142 -0.1279 -0.2586  0.0227
 7189W        W11253   7.745   5.457  10.945 -0.2465  0.0631  0.0225
 7190W        W11254   9.335   5.870   1.633  0.1435 -0.0568 -0.4121
 7191W        W11255   6.069  10.126   0.072  0.0090 -0.2748  0.0053
 7192W        W11256   0.174   0.594   8.720 -0.0234 -0.0574 -0.1502
 7193W        W11257   0.949   4.799  11.077 -0.1053 -0.1893 -0.0673
 7194W        W11258   3.033   6.778   7.824 -0.0623  0.1448 -0.2496
 7195W        W11259   9.888   3.325   9.634  0.0509  0.1392 -0.1422
 7196W        W11260   1.816   9.245   3.950 -0.1911 -0.0667  0.0393
 7197W        W11261   1.603   3.784   0.260 -0.1897  0.2895  0.1921
 7198W        W11262  10.571   4.239   2.262 -0.0370  0.1695  0.2767
 7199W        W11263  10.410   6.347   0.639 -0.0786 -0.0543 -0.1182
 7200W        W11264   5.876   9.835   2.681  0.1603  0.1966 -0.0767
 7201W        W11265   4.753   1.390   2.755 -0.0446 -0.0317  0.2639
 7202W        W11266   8.851   6.266   9.625  0.3642  0.4653  0.0184
 7203W        W11267  10.357   0.744   8.830 -0.1600 -0.0984 -0.0173
 7204W        W11268   4.078   5.995  10.978 -0.3055 -0.3387  0.1214
 7205W        W11269   7.457   7.864   8.933 -0.0938 -0.0006  0.1549
 7206W        W11270   8.310  10.238   0.612  0.1307 -0.2426 -0.3688
 7207W        W11271   2.381   3.530   1.892  0.0182 -0.0082  0.0019
 7208W        W11272   5.341   5.205   2.454  0.0957  0.2877 -0.1202
 7209W        W11273   3.732   1.335   8.901 -0.2500 -0.1429 -0.0519
 7210W        W11274   1.165   7.954  10.665  0.3320  0.1792 -0.0007
 7211W        W11275   1.047   0.269   2.789 -0.1429 -0.0711  0.0694
 7212W        W11276   4.847  10.045  10.109  0.0363  0.2154 -0.1859
 7213W        W11277   7.700  10.432   2.956  0.0855  0.0548  0.1097
 7214W        W11278   1.184   6.042   8.853 -0.1024 -0.1327  0.0708
 7215W        W11279   3.932   5.241  11.282 -0.4142 -0.0055 -0.1622
 7216W        W11280   8.980   8.147   1.047  0.3267  0.1670  0.1062
 7217W        W11281   5.364   4.688   2.670  0.0401 -0.0544  0.0120
 7218W        W11282   1.411   4.794   1.602  0.0964  0.1341 -0.1878
 7219W        W11283   2.461  10.255   8.484 -0.0947 -0.2519  0.1251
 7220W        W11284   7.986   2.123   1.736 -0.1406  0.1333  0.1127
 7221W        W11285   0.452  10.521   8.295  0.4492  0.1120  0.1907
 7222W        W11286   0.913   6.834   8.897  0.0445  0.1952 -0.2571
 7223W        W11287   4.546   5.047   2.691 -0.2366 -0.1540 -0.1884
 7224W        W11288   5.584   9.424   2.570 -0.0057  0.0069  0.0042
 7225W        W11289   1.654   2.179  10.878 -0.2332  0.3836  0.0910
 7226W        W11290   1.692   6.769   0.852  0.0025  0.1999 -0.0225
 7227W        W11291   3.167   2.383   1.324 -0.1991 -0.3454  0.1559
 7228W        W11292  10.253   1.900   0.703  0.1528  0.0466 -0.0624
 7229W        W11293   7.346   9.468   1.743  0.1517 -0.0007 -0.1350
 7230W        W11294   6.531   7.894   9.410  0.1106  0.0530 -0.0147
 7231W        W11295   3.125   2.956   0.447 -0.1342 -0.0476 -0.0484
 7232W        W11296   0.614   3.600   2.483 -0.4112  0.1090  0.1431
 7233W        W11297  10.665   1.170   8.666 -0.0463  0.2323 -0.0953
 7234W        W11298   1.448   4.795   1.070  0.0023 -0.0924 -0.1030
 7235W        W11299   4.996   7.587  10.257  0.0266 -0.0256 -0.0889
 7236W        W11300   5.875   2.962   9.935 -0.1103 -0.0700  0.0330
 7237W        W11301   6.593   1.452   2.843 -0.1090  0.1255 -0.0190
 7238W        W11302   3.585   9.360   3.898 -0.3896  0.2966  0.0038
 7239W        W11303   5.528   0.233   2.309 -0.0466 -0.2044  0.0245
 7240W        W11304   8.849   7.012   7.868  0.3495  0.0336 -0.0598
 7241W        W11305   8.430   7.032   4.053  0.4129  0.2209 -0.0603
 7242W        W11306   9.754   1.344   4.576 -0.1010 -0.0300  0.0417
 7243W        W11307   8.768   6.438   2.159  0.0227  0.1453 -0.0496
 7244W        W11308   6.474   3.692   0.133  0.1021 -0.1205  0.2095
 7245W        W11309   4.273   9.876   3.459 -0.1849  0.0199 -0.0551
 7246W        W11310   0.119   1.406  10.935  0.4239 -0.4122  0.0751
 7247W        W11311   0.887   9.706   1.083  0.1390  0.0305  0.1317
 7248W        W11312   0.642   8.299   1.836 -0.2728 -0.4776 -0.1558
 7249W        W11313   3.302   2.561   9.293  0.1355 -0.0140 -0.2601
 7250W        W11314   2.131   3.872  11.333 -0.0389  0.1043  0.2275
 7251W        W11315   6.936  10.452   0.565  0.3747  0.3227 -0.1130
 7252W        W11316   7.837   2.110   8.558  0.1412  0.1247  0.3088
 7253W        W11317   2.582   4.464   1.539  0.3184  0.0218  0.1263
 7254W        W11318   5.064   3.576  11.498  0.1107 -0.1030 -0.2034
 7255W        W11319   2.180   7.234   1.456  0.0433 -0.0245  0.5636
 7256W        W11320   9.432   3.175   0.601  0.1064 -0.1109 -0.0297
 7257W        W11321   1.445   0.385   9.417  0.0052 -0.1909 -0.2161
 7258W        W11322   5.434   0.945   9.330  0.1684  0.1127 -0.1610
 7259W        W11323   8.888   7.812   2.705  0.1659 -0.0654 -0.0343
 7260W        W11324   1.856   7.396   1.132 -0.4474 -0.0308 -0.4536
 7261W        W11325   1.835   0.131   4.412 -0.0479  0.2023 -0.2574
 7262W        W11326   6.314   4.365  10.770  0.0594 -0.2005 -0.1261
 7263W        W11327   1.533   8.047   2.852  0.0847  0.2291  0.1073
 7264W        W11328   4.766   5.002   9.097  0.3937 -0.0244  0.2341
 7265W        W11329   8.500   3.190  10.643  0.1572 -0.1949  0.1660
 7266W        W11330   5.095   4.656   9.001  0.2813  0.1355 -0.1207
 7267W        W11331   1.031   9.535   9.059 -0.1637  0.1297 -0.3114
 7268W        W11332   2.918   5.827   9.409 -0.1098  0.0959  0.4250
 7269W        W11333   8.728   4.328   8.057  0.3237  0.0176  0.1849
 7270W        W11334   3.460   1.891   2.604 -0.0902 -0.0162  0.0303
 7271W        W11335   6.456   6.344   3.634  0.1935  0.1007 -0.0959
 7272W        W11336   5.086   5.851  10.712  0.0018 -0.1213  0.1024
 7273W        W11337   8.207   9.232   9.993  0.0767 -0.0409 -0.4693
 7274W        W11338   9.426   9.664   0.677  0.2968  0.2390  0.0002
 7275W        W11339  10.483   3.027   2.460 -0.1553 -0.4051  0.1685
 7276W        W11340   8.998   2.683   8.715  0.2143 -0.0380  0.0621
 7277W        W11341   0.773   2.003   3.162 -0.0115 -0.0763  0.0377
 7278W        W11342   1.228   0.702   8.276  0.2500 -0.0314 -0.2845
 7279W        W11343   4.006   5.466   4.327 -0.3609  0.2765  0.2825
 7280W        W11344   2.665   8.189  11.172 -0.0724 -0.1809  0.0170
 7281W        W11345   1.547   6.571   1.573  0.2277 -0.0023 -0.0187
 7282W        W11346   6.271   0.731  10.181  0.2014  0.0892  0.2205
 7283W        W11347   4.423  10.483   7.494  0.0748  0.0328  0.0749
 7284W        W11348   5.695   4.840   2.308  0.0083 -0.1785 -0.3073
 7285W        W11349   5.498  10.114   0.264  0.2715 -0.0801 -0.0156
 7286W        W11350   7.097   3.238   3.030 -0.0339 -0.0446  0.0676
 7287W        W11351   8.954   0.420   1.889 -0.0911 -0.0533  0.0836
 7288W        W11352   9.758   3.515   8.757 -0.2070  0.3276 -0.0432
 7289W        W11353   0.502   5.878   3.281 -0.2188  0.0273 -0.0257
 7290W        W11354   8.450   2.083   9.503  0.0007  0.0515 -0.0199
 7291W        W11355   6.413   2.687   9.276  0.1937  0.2161  0.2213
 7292W        W11356   0.508   2.466  10.084  0.2531  0.1356 -0.3584
 7293W        W11357   5.556   5.308  10.151 -0.3270 -0.1722  0.0886
 7294W        W11358   3.422   9.322   2.952 -0.1421 -0.2556  0.1142
 7295W        W11359   8.331   2.298   9.045 -0.2227  0.0182 -0.1525
 7296W        W11360   4.757   1.068  10.720 -0.0542 -0.1228 -0.0361
 7297W        W11361   1.731   5.692   0.102  0.1750  0.1268 -0.0545
 7298W        W11362   6.059   1.819   1.630 -0.2096 -0.1542 -0.1584
 7299W        W11363   6.169   0.495   9.736  0.0069 -0.0167 -0.0013
 7300W        W11364   4.890   9.103   1.807 -0.0365  0.1428  0.0330
 7301W        W11365   0.419   4.796   8.390 -0.1632 -0.0298  0.1747
 7302W        W11366   1.556  10.228  10.282  0.0475 -0.2359  0.1566
 7303W        W11367   4.318   1.676   3.278 -0.0457 -0.0513  0.0069
 7304W        W11368   7.957   5.133   0.832  0.0265  0.3151  0.5059
 7305W        W11369  10.580   7.895   2.373 -0.3983  0.2846 -0.1005
 7306W        W11370   6.189   6.231   8.019  0.0479  0.0350  0.2706
 7307W        W11371  10.197   2.059   3.111  0.2448 -0.1153 -0.1902
 7308W        W11372   7.948   5.348   8.243  0.1353  0.1869 -0.1732
 7309W        W11373   1.095   8.025   1.882 -0.1621  0.0710 -0.3010
 7310W        W11374   1.519   3.308   2.285  0.1016  0.0258 -0.0861
 7311W        W11375   9.382  10.608   3.107  0.0044 -0.2201  0.2446
 7312W        W11376   2.948   4.361   1.164  0.2659 -0.0875  0.3184
 7313ION    NA+11377  10.660  10.627   8.188 -0.0197 -0.1815  0.0360
 7314ION    NA+11378   7.628   3.654   9.728 -0.1559 -0.2555 -0.1614
 7315ION    NA+11379   5.673   5.929   8.555  0.0190 -0.1564  0.0422
 7316ION    NA+11380   2.583  10.359   3.813 -0.0441  0.0483  0.0294
 7317ION    NA+11381   6.495   0.787   9.396 -0.0391 -0.1779 -0.1195
 7318ION    NA+11382   5.488   0.073   8.112 -0.1079  0.2077 -0.1223
 7319ION    NA+11383   4.865   2.580   2.435  0.1868 -0.0989 -0.0822
 7320ION    NA+11384   8.611   0.929   2.463  0.0388 -0.0022 -0.0218
 7321ION    NA+11385   2.932   5.346   0.044  0.0280 -0.1291  0.0339
 7322ION    NA+11386  10.369   4.857   3.638 -0.0179  0.1264 -0.0763
 7323ION    NA+11387   6.356   5.324   1.296  0.0412  0.0745 -0.1291
 7324ION    NA+11388   7.622   1.931  10.621 -0.0046  0.2232 -0.0816
 7325ION    NA+11389   9.259   0.631  10.845 -0.1574 -0.0126 -0.1993
 7326ION    NA+11390   3.947   0.947   8.653 -0.0989 -0.1866  0.1950
 7327ION    NA+11391   1.115   0.812  10.163  0.0437 -0.1991 -0.0549
 7328ION    NA+11392   7.574   3.590   7.429  0.2903  0.2591 -0.0355
 7329ION    NA+11393   2.760   1.849   9.185 -0.0661 -0.2236 -0.0851
 7330ION    NA+11394   9.251   5.249   1.347  0.1513  0.2557  0.3138
 7331ION    NA+11395   8.302   5.877  10.833  0.2193  0.2014  0.0810
 7332ION    NA+11396  10.023  10.512   0.870 -0.5627  0.0121  0.2758
 7333ION    NA+11397  10.089   9.733   7.928  0.1633 -0.2242  0.2776
 7334ION    NA+11398   1.187   9.324  10.940  0.0762 -0.1810  0.0847
 7335ION    NA+11399   4.402   5.790   2.021  0.1140 -0.2190 -0.4803
 7336ION    NA+11400  10.511   6.985  10.673  0.1437  0.0871 -0.0637
 7337ION    NA+11401   6.222   9.723   3.011 -0.1459 -0.1602  0.1344
 7338ION    NA+11402   3.532   8.129  10.596 -0.2746 -0.0083 -0.1694
 7339ION    NA+11403  10.419   0.283  11.476  0.4183 -0.1138 -0.0652
 7340ION    NA+11404   6.702   1.029   1.041 -0.0102 -0.1869 -0.2316
 7341ION    NA+11405   0.147   8.668   4.073 -0.3832  0.0017 -0.1913
 7342ION    NA+11406   3.425   2.017   3.402 -0.0652 -0.0313  0.1194
 7343ION    NA+11407   3.697   0.451   3.145  0.0607 -0.0787 -0.0139
 7344ION    NA+11408   0.594   7.134   2.281 -0.0536 -0.2913 -0.1514
 7345ION    NA+11409   9.246   7.963   0.543 -0.0415  0.0910 -0.1278
 7346ION    NA+11410   1.817   9.223   0.968 -0.0231 -0.0867 -0.1452
 7347ION    NA+11411   0.909   6.070   2.821 -0.4301 -0.2565  0.0349
 7348ION    NA+11412   5.878   8.869  10.847 -0.0416 -0.1043  0.2709
 7349ION    NA+11413   7.498   3.433   0.718 -0.1479  0.1880  0.1629
 7350ION    NA+11414   3.669   4.597   8.063 -0.1422 -0.0046 -0.0494
 7351ION    NA+11415   8.748   1.793  10.960 -0.1749  0.1523 -0.1678
 7352ION    NA+11416   4.465   5.484   3.531 -0.1025  0.1731  0.2023
 7353ION    NA+11417   8.519   8.109   3.404 -0.2046 -0.2191  0.0378
 7354ION    NA+11418   3.976   1.727   2.962  0.0690 -0.0854 -0.0699
 7355ION    NA+11419   9.406   2.755  10.402 -0.1405 -0.3488 -0.2361
 7356ION    NA+11420   6.746  10.481   1.388  0.0135 -0.5473 -0.2157
 7357ION    NA+11421   2.188   4.786  10.680  0.0506  0.1244  0.2567
 7358ION    NA+11422   4.840   6.213   0.172 -0.0042  0.2708 -0.1010
 7359ION    NA+11423   1.426   0.088   2.388 -0.3337 -0.0433  0.3669
 7360ION    NA+11424   9.063   5.697   3.784  0.1376  0.1104  0.1470
 7361ION    NA+11425   3.457   7.936   0.687 -0.0823  0.2709  0.2654
 7362ION    NA+11426   2.099   6.922   9.573 -0.1371  0.1260  0.3693
 7363ION    NA+11427   6.782   8.528  10.670 -0.1873 -0.4286 -0.3370
 7364ION    NA+11428   1.579   3.998   7.559  0.0021  0.0497  0.1656
 7365ION    NA+11429  10.641   4.198   3.790 -0.1540  0.0169  0.0205
 7366ION    NA+11430   9.762   1.260   0.494 -0.0556 -0.0005 -0.0054
 7367ION    NA+11431   5.677   3.733   8.482  0.2041 -0.0274 -0.1495
 7368ION    NA+11432   6.575   2.146   8.511 -0.1932  0.0193 -0.2375
 7369ION    NA+11433   3.176   6.859   9.343  0.1720 -0.1194  0.0376
 7370ION    NA+11434   2.300   2.421   0.665  0.0709 -0.3619 -0.1882
 7371ION    NA+11435   3.494   8.437   4.565 -0.0457 -0.4622  0.0827
 7372ION    NA+11436   3.859   6.396   2.326  0.1752 -0.1759  0.0565
 7373ION    NA+11437   2.117   8.210   2.408 -0.0834 -0.0381  0.0664
 7374ION    NA+11438   0.178   0.413   2.718 -0.0561  0.1410  0.3350
 7375ION    NA+11439   7.445   9.649   9.083 -0.0640  0.0503 -0.1460
 7376ION    NA+11440   6.269   4.558   0.592 -0.2593 -0.0388  0.0044
 7377ION    NA+11441   5.336  10.523   0.006 -0.1814  0.0824  0.4067
 7378ION    NA+11442   0.987   0.544   7.845  0.0026 -0.0225  0.1624
 7379ION    NA+11443   0.984  10.207   7.355  0.1040 -0.1090 -0.0013
 7380ION    NA+11444   9.670   6.927   8.363 -0.1515 -0.0761  0.1246
 7381ION    NA+11445   7.186   4.178   2.690 -0.1516 -0.1720 -0.2496
 7382ION    NA+11446   9.837   1.168   9.222 -0.0187  0.1402 -0.1462
 7383ION    NA+11447  10.490   8.106   2.836 -0.1072 -0.1977  0.2397
 7384ION    NA+11448   7.530   2.137   7.529 -0.0597  0.1254 -0.0870
 7385ION    NA+11449   2.154   3.192   1.174 -0.3098  0.2078  0.2681
 7386ION    NA+11450   5.789   3.262   1.937  0.1344 -0.3677  0.1976
 7387ION    NA+11451   9.150   6.265   3.094  0.1000  0.2885 -0.2306
 7388ION    NA+11452   0.928   7.449   3.890  0.0724  0.1545  0.0789
 7389ION    NA+11453   8.596   2.252  10.002  0.1561 -0.0393  0.2459
 7390ION    CL-11454   2.424   0.424   9.014  0.2013  0.1278  0.1410
 7391ION    CL-11455  10.215   1.606   8.372 -0.0106  0.2103 -0.1114
 7392ION    CL-11456   2.928   5.068  11.177 -0.1395 -0.0495  0.2790
 7393ION    CL-11457   1.667   6.501   0.411 -0.0419  0.1975 -0.1904
 7394ION    CL-11458   4.058   7.397   8.569  0.0770 -0.3254  0.0340
 7395ION    CL-11459   8.881   0.937  10.611 -0.0142  0.1274  0.0033
 7396ION    CL-11460   2.827  10.073   3.415  0.0125 -0.0105  0.2168
 7397ION    CL-11461   0.905   6.325   3.289 -0.0934 -0.6656 -0.0078
 7398ION    CL-11462   4.176   7.125   3.284 -0.0084  0.0904  0.0416
 7399ION    CL-11463   5.258   3.434   7.925  0.0087  0.0074 -0.0610
 7400ION    CL-11464   4.267   6.247   1.940 -0.3513 -0.1651  0.1791
 7401ION    CL-11465   0.678   4.219   3.089 -0.4197 -0.0338  0.2285
 7402ION    CL-11466   4.204   1.591   8.949  0.0151 -0.1276 -0.1863
 7403ION    CL-11467   0.927   4.899   8.110 -0.1642 -0.0965  0.0532
 7404ION    CL-11468   7.043   4.978   0.034 -0.3078  0.0572 -0.0865
 7405ION    CL-11469   1.291   1.272  10.051 -0.0239 -0.1114  0.3239
 7406ION    CL-11470   0.254   9.589   3.178  0.0562 -0.0849 -0.0746
 7407ION    CL-11471   2.563   4.197   8.733  0.0588 -0.2403 -0.1444
 7408ION    CL-11472   6.617   1.169   8.790 -0.3506  0.2367  0.0962
 7409ION    CL-11473   1.714   7.674   2.252 -0.1560 -0.0456 -0.2175
 7410ION    CL-11474   0.199   7.987   3.448 -0.1791  0.2891 -0.2793
 7411ION    CL-11475   6.286   7.282   3.407 -0.1136 -0.1282 -0.0151
 7412ION    CL-11476   2.047   1.323   2.761 -0.4037  0.0304  0.0035
 7413ION    CL-11477   8.233   1.771  10.720 -0.1575 -0.2702  0.2586
 7414ION    CL-11478   8.903   0.489   2.410 -0.1137 -0.0310 -0.0144
 7415ION    CL-11479   3.234   8.652  10.632  0.1375 -0.0856  0.1312
 7416ION    CL-11480  10.272   3.959   2.629 -0.0241 -0.1612  0.0689
 7417ION    CL-11481   5.046   7.766   1.768  0.1186  0.0545  0.1588
 7418ION    CL-11482   0.587   0.284   2.994 -0.2292 -0.3070 -0.1329
 7419ION    CL-11483   7.679   3.819   0.975 -0.1027  0.0724 -0.1377
 7420ION    CL-11484   3.561   2.229   2.932 -0.1315  0.0073 -0.2525
 7421ION    CL-11485   7.244   8.753  10.582  0.1137 -0.0198 -0.1953
 7422ION    CL-11486   6.474  10.186   3.010  0.0925  0.2292 -0.2076
 7423ION    CL-11487   9.595   0.436   0.152 -0.0415 -0.1040  0.1606
 7424ION    CL-11488   6.736   0.527   1.197 -0.3494 -0.2376 -0.1033
 7425ION    CL-11489   4.704   5.824  11.443  0.1662  0.0209 -0.1140
 7426ION    CL-11490   9.825   1.443   9.783 -0.2346  0.1016 -0.3435
 7427ION    CL-11491   2.320   8.503   1.925  0.1430  0.1593 -0.3349
 7428ION    CL-11492   4.749   2.901   0.036 -0.0120  0.2970  0.0166
 7429ION    CL-11493   3.688   5.837   2.392  0.0249 -0.1019 -0.3820
 7430ION    CL-11494   6.313   5.591   3.019 -0.1939 -0.2519 -0.2160
 7431ION    CL-11495   1.967   8.961   3.062 -0.0679 -0.0604  0.1857
 7432ION    CL-11496   1.121   1.101   3.248  0.1217  0.0727  0.0740
 7433ION    CL-11497   0.733   6.664   1.986  0.2647 -0.2904  0.4945
 7434ION    CL-11498   8.597   2.679  10.327  0.0932 -0.4630 -0.1467
 7435ION    CL-11499   2.689   1.938   8.628 -0.0149  0.3103  0.0301
 7436ION    CL-11500   3.525  10.642   3.881 -0.0127  0.0431  0.1014
 7437ION    CL-11501   2.521   4.774  10.287  0.0683  0.2710  0.2318
 7438ION    CL-11502  10.501   3.172   8.316  0.1046  0.0739 -0.0554
 7439ION    CL-11503   6.318   4.743   8.114 -0.0389  0.0179 -0.0203
 7440ION    CL-11504   3.955   3.004   2.517  0.0824 -0.2282 -0.1453
 7441ION    CL-11505   5.328   8.197   9.036 -0.3712 -0.1837 -0.1105
 7442ION    CL-11506   3.867   8.385   3.746  0.0013 -0.3218 -0.2776
 7443ION    CL-11507   8.397   0.298   8.585  0.2642 -0.3981 -0.0890
 7444ION    CL-11508   6.869  10.561   9.438  0.1130  0.0480  0.3979
 7445ION    CL-11509   5.191   6.172   0.954  0.2923  0.2848 -0.2556
 7446ION    CL-11510   2.466   7.239   9.643  0.0612  0.1657 -0.0277
 7447ION    CL-11511   3.827   1.687   3.453  0.0019  0.0078 -0.4107
 7448ION    CL-11512   6.155   4.878   1.168 -0.1651 -0.1099  0.3811
 7449ION    CL-11513   0.822   1.880   1.676 -0.0659  0.0129  0.0330
 7450ION    CL-11514   3.910   4.294   2.936  0.0803  0.0195 -0.0792
 7451ION    CL-11515   2.858   6.732   8.957 -0.0907  0.2731 -0.0065
 7452ION    CL-11516   9.471   6.632   2.816 -0.1233 -0.0467  0.1984
 7453ION    CL-11517   4.494   2.630   2.087  0.1624  0.1814  0.0300
 7454ION    CL-11518   3.549   0.840   3.504  0.1086  0.0763 -0.0785
 7455ION    CL-11519   2.741   2.939  10.680 -0.2500 -0.2279  0.0807
 7456ION    CL-11520   7.883   4.102   9.513 -0.0528 -0.0476 -0.1986
 7457ION    CL-11521   9.530   1.219   8.856 -0.1698  0.2023  0.1878
 7458ION    CL-11522   9.678   7.555   0.489  0.0424  0.0251 -0.2428
 7459ION    CL-11523   6.931   5.002   3.123  0.0784  0.1481  0.0871
 7460ION    CL-11524   3.749   0.760   9.078 -0.0625  0.3692 -0.1038
 7461ION    CL-11525   2.546   5.399   2.898  0.0575 -0.1097 -0.2168
 7462ION    CL-11526   9.996   8.258   9.619 -0.0665  0.2328 -0.0869
 7463ION    CL-11527   3.007   7.816   0.902  0.1377 -0.1651 -0.3951
 7464ION    CL-11528   2.525   1.397   9.365  0.2171 -0.0345  0.1263
 7465ION    CL-11529   0.940   8.703   3.189 -0.1024  0.0337 -0.1212
 7466ION    CL-11530  10.373   0.136   0.415 -0.0378  0.0696  0.2020
  10.66896  10.66896  11.54958
