Protein in INSANE! Membrane UpperLeaflet>POPC=1.0 LowerLeaflet>POPC=1.0
12914
    1AU     AUC    1   9.962   0.833   6.831 -0.0387  0.0318  0.0302
    1AU     AUC    2  10.185   1.026   6.969  0.0554  0.0599  0.0014
    1AU     AUC    3  10.052   0.748   7.121 -0.0395  0.0597 -0.0174
    1AU     AUC    4   9.896   0.892   6.531 -0.0220  0.0002 -0.0210
    1AU     AUC    5   9.701   0.655   6.709  0.1387  0.0153 -0.0432
    1AU     AUC    6   9.654   0.963   6.798  0.0751 -0.0752  0.0282
    1AU     AUC    7   9.862   1.033   7.048 -0.0305 -0.0055  0.0754
    1AU     AUC    8  10.037   0.634   6.616 -0.0050 -0.0720 -0.0320
    1AU     AUC    9  10.268   0.706   6.868 -0.1033  0.0424  0.0310
    1AU     AUC   10   9.974   0.520   6.885  0.0332 -0.0250 -0.0659
    1AU     AUC   11   9.698   0.746   7.011  0.0411  0.0039  0.0083
    1AU     AUC   12  10.195   0.929   6.638 -0.0285 -0.0839 -0.1055
    1AU     AUC   13   9.950   1.113   6.740 -0.0172 -0.0554 -0.0280
    1AU     AUC   14  10.406   1.210   7.116  0.0178 -0.0002 -0.0601
    1AU     AUC   15  10.323   0.932   7.317  0.0534  0.1268  0.0489
    1AU     AUC   16  10.157   0.640   7.423  0.0777 -0.0825  0.0230
    1AU     AUC   17   9.759   0.944   6.196 -0.0242  0.0347  0.0179
    1AU     AUC   18   9.581   0.701   6.380 -0.0647  0.0755 -0.0418
    1AU     AUC   19   9.420   0.486   6.578  0.0162 -0.0293  0.0311
    1AU     AUC   20   9.372   1.152   6.714  0.0186 -0.0087  0.0492
    1AU     AUC   21   9.545   1.255   7.017  0.0775  0.0169  0.0258
    1AU     AUC   22   9.765   1.227   7.272 -0.0462 -0.0025  0.0316
    1AU     AUC   23  10.121   0.419   6.365  0.0479 -0.0858  0.0551
    1AU     AUC   24  10.389   0.460   6.617  0.0200  0.0252 -0.0499
    1AU     AUC   25  10.574   0.539   6.908  0.0300 -0.0025  0.0280
    1AU     AUC   26   9.952   0.190   6.972  0.0451 -0.0317  0.0126
    1AU     AUC   27   9.702   0.404   7.118  0.0406  0.0345  0.0038
    1AU     AUC   28   9.476   0.625   7.227  0.0254  0.0008 -0.0310
    1AU     AUC   29  10.450   1.043   6.452 -0.0170 -0.0127  0.0339
    1AU     AUC   30  10.221   1.294   6.542 -0.1059  0.0328 -0.0258
    1AU     AUC   31   9.973   1.428   6.657 -0.0154 -0.0510  0.0049
    1AU     AUC   32  10.078   0.380   7.212  0.0075  0.0331  0.0705
    1AU     AUC   33   9.810   0.618   7.367  0.0596 -0.0780 -0.1337
    1AU     AUC   34  10.474   1.203   6.777 -0.0282 -0.0300 -0.1227
    1AU     AUC   35  10.182   1.370   6.903  0.0258  0.0660  0.0250
    1AU     AUC   36   9.655   0.296   6.797  0.0506 -0.0300  0.0021
    1AU     AUC   37   9.404   0.559   6.914  0.0063  0.0379 -0.0711
    1AU     AUC   38  10.117   1.010   6.305  0.0291 -0.0431 -0.1208
    1AU     AUC   39   9.889   1.203   6.356 -0.0340 -0.0669 -0.0164
    1AU     AUC   40  10.111   1.230   7.255 -0.0125  0.0183 -0.0102
    1AU     AUC   41   9.962   0.918   7.370  0.1466 -0.0277 -0.0768
    1AU     AUC   42   9.552   1.017   6.437  0.0311 -0.0348  0.0143
    1AU     AUC   43   9.342   0.792   6.672  0.0126  0.1122 -0.0134
    1AU     AUC   44  10.525   0.885   7.026  0.0722  0.1102  0.0208
    1AU     AUC   45  10.372   0.569   7.163 -0.0770 -0.0067  0.1153
    1AU     AUC   46   9.928   0.645   6.262  0.0028  0.0393 -0.0191
    1AU     AUC   47   9.768   0.443   6.461 -0.0327  0.0573 -0.1119
    1AU     AUC   48   9.355   0.928   6.997  0.0543  0.0731 -0.0289
    1AU     AUC   49   9.606   0.959   7.271  0.0140 -0.0131 -0.0457
    1AU     AUC   50  10.057   0.294   6.675  0.0533  0.0898  0.0461
    1AU     AUC   51  10.304   0.325   6.899 -0.0178  0.1372 -0.0295
    1AU     AUC   52   9.672   1.309   6.676 -0.0075  0.0682  0.0316
    1AU     AUC   53   9.850   1.394   6.980  0.0708  0.0028  0.0202
    1AU     AUC   54  10.299   0.708   6.379 -0.0051  0.0027  0.0254
    1AU     AUC   55  10.536   0.829   6.676  0.1018 -0.0220  0.0492
    1AU    AUSL   56  10.005   0.319   7.597 -0.0915 -0.0077  0.1192
    1AU    AUSL   57  10.203   0.054   7.229 -0.0399 -0.0870  0.0922
    1AU     AUL   58  10.222   0.100   7.623  0.0216  0.0137 -0.0683
    1AU       S   59  10.565  -0.158   7.422  0.2501  0.1689  0.0419
    1AU     LIG   60  10.633  -0.513   7.212 -0.3731 -0.0374 -0.1472
    1AU     LIG   61  10.534  -0.888   7.058 -0.1460 -0.1254 -0.0118
    1AU     LIG   62  10.769  -1.125   6.771 -0.0257 -0.2356  0.2348
    1AU     LIG   63  11.254  -1.264   6.717  0.4055  0.2798  0.0881
    1AU     LIG   64  11.351  -1.553   6.372  0.2875 -0.1513 -0.0310
    1AU       S   65   9.836  -0.120   7.777 -0.2301  0.1675  0.3401
    1AU     LIG   66  10.231  -0.352   7.730 -0.1255 -0.2829 -0.2536
    1AU     LIG   67  10.505  -0.651   7.668 -0.2119 -0.1840  0.1449
    1AU     LIG   68  10.827  -0.881   7.777  0.2500  0.0887  0.0756
    1AU     LIG   69  11.186  -1.054   7.678 -0.0841 -0.0659 -0.0129
    1AU     LIG   70  11.528  -1.240   7.621 -0.0710  0.1741 -0.2864
    1AU    AUSL   71   9.783   0.047   7.310 -0.0277 -0.1038 -0.0287
    1AU    AUSL   72   9.363   0.232   7.257  0.0641 -0.0626 -0.0728
    1AU     AUL   73   9.465   0.053   7.518 -0.0574  0.0145  0.0208
    1AU       S   74   9.858  -0.183   7.414  0.2500  0.0288  0.2214
    1AU     LIG   75  10.150  -0.556   7.252 -0.2543  0.0145 -0.0605
    1AU     LIG   76  10.210  -0.867   7.408 -0.0820 -0.1877  0.1060
    1AU     LIG   77  10.444  -1.189   7.495  0.0481  0.1343  0.2005
    1AU     LIG   78  10.800  -1.380   7.576  0.1772 -0.2276 -0.0264
    1AU     LIG   79  11.245  -1.660   7.444  0.0173  0.2360 -0.0627
    1AU       S   80   9.276  -0.150   7.149 -0.1529  0.3339  0.0891
    1AU     LIG   81   8.985  -0.602   7.183  0.0923  0.2205 -0.1743
    1AU     LIG   82   8.493  -0.758   7.269 -0.0056  0.1582  0.0061
    1AU     LIG   83   8.035  -0.819   7.065 -0.0935 -0.1344 -0.4084
    1AU     LIG   84   7.620  -0.580   6.913 -0.2655 -0.2559 -0.1041
    1AU     LIG   85   7.377  -0.504   6.514 -0.2185  0.5881 -0.2233
    1AU    AUSL   86   9.678   0.483   7.381 -0.0371 -0.0263 -0.0800
    1AU    AUSL   87   9.859   0.711   7.761 -0.1137 -0.0019 -0.1046
    1AU     AUL   88   9.737   0.355   7.761 -0.0523  0.0756  0.0493
    1AU       S   89   9.124   0.376   7.648 -0.2580  0.0000  0.0161
    1AU     LIG   90   8.852  -0.043   7.582  0.1483  0.3077  0.0841
    1AU     LIG   91   8.622  -0.281   7.195  0.0539  0.1248  0.4862
    1AU     LIG   92   8.340  -0.342   6.735 -0.0413  0.1308  0.0933
    1AU     LIG   93   8.053  -0.485   6.432 -0.0478  0.1555 -0.0636
    1AU     LIG   94   7.827  -0.385   5.981  0.2256 -0.1034  0.1623
    1AU       S   95   9.744   0.686   8.069  0.0838 -0.2680  0.0050
    1AU     LIG   96   9.831   0.354   8.267  0.2262 -0.1034  0.2665
    1AU     LIG   97  10.208   0.004   8.082 -0.0112 -0.0250 -0.2593
    1AU     LIG   98  10.593  -0.011   7.931 -0.0744  0.0105  0.2794
    1AU     LIG   99  10.955  -0.329   7.794 -0.0105  0.1596  0.0471
    1AU     LIG  100  11.308  -0.507   7.743 -0.1448  0.3041  0.1694
    1AU    AUSL  101  10.455   1.629   6.963  0.0266  0.0829 -0.0238
    1AU    AUSL  102  10.024   1.668   7.006 -0.0498 -0.0049 -0.0640
    1AU     AUL  103  10.286   1.886   7.105 -0.0639 -0.1226  0.0289
    1AU       S  104  10.412   1.929   6.667  0.2452 -0.0565  0.0438
    1AU     LIG  105  10.411   2.327   6.959 -0.2217 -0.5476  0.2127
    1AU     LIG  106  10.672   2.564   7.148  0.0985 -0.4430  0.0392
    1AU     LIG  107  10.671   2.856   6.851 -0.0602 -0.1178 -0.1615
    1AU     LIG  108  10.948   3.216   6.829  0.1085 -0.0027 -0.1065
    1AU     LIG  109  10.925   3.603   7.097  0.2409  0.2673 -0.1863
    1AU       S  110  10.013   2.001   7.466 -0.1757  0.2308 -0.1377
    1AU     LIG  111  10.258   2.365   7.398 -0.0828  0.1000  0.0289
    1AU     LIG  112  10.422   2.537   7.721 -0.3032 -0.3885 -0.1801
    1AU     LIG  113  10.673   2.382   8.053  0.3673 -0.1284 -0.3755
    1AU     LIG  114  11.050   2.661   8.265 -0.0372 -0.1987  0.3899
    1AU     LIG  115  11.266   3.042   8.333  0.0043  0.3154  0.0129
    1AU    AUSL  116  10.639   1.481   6.581 -0.0923 -0.1407 -0.0082
    1AU    AUSL  117  10.742   1.290   7.001 -0.0509 -0.0155  0.0206
    1AU     AUL  118  10.780   1.599   6.838 -0.1114 -0.1084  0.0432
    1AU       S  119  11.141   1.341   6.968  0.0152 -0.3467 -0.4124
    1AU     LIG  120  11.307   1.739   6.961 -0.0883  0.2210 -0.0963
    1AU     LIG  121  11.447   2.127   6.834  0.1300  0.3569  0.2534
    1AU     LIG  122  11.400   2.342   6.461 -0.0488  0.2123  0.0596
    1AU     LIG  123  11.242   2.771   6.258 -0.0837 -0.0035  0.0274
    1AU     LIG  124  11.086   3.094   5.844 -0.0057 -0.0721  0.1794
    1AU       S  125  10.548   1.937   6.596  0.0109  0.1012  0.4445
    1AU     LIG  126  10.803   2.057   7.024 -0.1334 -0.0163  0.4348
    1AU     LIG  127  10.726   2.154   7.455 -0.0075 -0.2085 -0.0996
    1AU     LIG  128  10.913   2.498   7.564  0.2076  0.2374 -0.1060
    1AU     LIG  129  10.831   2.846   7.798 -0.1952 -0.1394  0.0318
    1AU     LIG  130  10.815   3.176   8.132  0.1867 -0.0401  0.3160
    1AU    AUSL  131  10.183   1.506   6.618  0.0035  0.1131  0.1146
    1AU    AUSL  132  10.386   1.293   6.267 -0.0274  0.1377  0.0832
    1AU     AUL  133  10.547   1.575   6.307  0.0157  0.0172  0.1046
    1AU       S  134  10.327   1.552   5.856  0.1913 -0.0610  0.1746
    1AU     LIG  135  10.807   1.454   5.726  0.0299  0.2379  0.1138
    1AU     LIG  136  11.241   1.469   5.671  0.0793  0.0147  0.4642
    1AU     LIG  137  11.574   1.771   5.480 -0.3119  0.1329 -0.0233
    1AU     LIG  138  11.884   1.852   5.145 -0.1770  0.6292 -0.2273
    1AU     LIG  139  12.251   2.083   5.318 -0.1534 -0.0549 -0.0591
    1AU       S  140  10.219   1.854   6.576 -0.0365 -0.0287  0.0367
    1AU     LIG  141   9.958   2.157   6.750 -0.1792  0.0107  0.1433
    1AU     LIG  142   9.824   2.412   7.141  0.0970  0.1708  0.0085
    1AU     LIG  143   9.786   2.771   7.348 -0.0417  0.0489  0.1317
    1AU     LIG  144   9.790   3.139   7.432  0.0957 -0.1597  0.1583
    1AU     LIG  145   9.822   3.315   7.850  0.4396  0.0134 -0.2680
    1AU    AUSL  146   9.244   0.225   6.814 -0.0285 -0.0654 -0.0980
    1AU    AUSL  147   9.157   0.573   7.099  0.0032 -0.0386 -0.0360
    1AU     AUL  148   9.062   0.255   7.169 -0.0162  0.0621 -0.0756
    1AU       S  149   9.110  -0.212   7.048 -0.0133 -0.0519  0.1815
    1AU     LIG  150   8.773  -0.079   6.792  0.1215  0.0722  0.0345
    1AU     LIG  151   8.504   0.128   6.520 -0.0636 -0.0901  0.0973
    1AU     LIG  152   8.122   0.296   6.378 -0.1512  0.1504  0.0576
    1AU     LIG  153   7.903   0.171   6.047 -0.1528  0.0718 -0.1049
    1AU     LIG  154   7.776   0.104   5.646  0.3304 -0.0714 -0.1430
    1AU       S  155   8.794   0.565   6.938 -0.2556  0.1934 -0.2018
    1AU     LIG  156   8.467   0.221   7.016 -0.0744 -0.1182 -0.1383
    1AU     LIG  157   8.026   0.069   6.851  0.2125 -0.1674  0.2000
    1AU     LIG  158   7.780  -0.140   6.591  0.0114 -0.2311 -0.1313
    1AU     LIG  159   7.502  -0.118   6.217 -0.3394 -0.1193  0.1282
    1AU     LIG  160   7.271   0.070   5.871  0.1244 -0.3666 -0.0353
    1AU    AUSL  161   9.657   0.191   6.933 -0.1261 -0.1172  0.0979
    1AU    AUSL  162   9.534   0.049   6.511  0.0818  0.0277 -0.0176
    1AU     AUL  163   9.287   0.013   6.676 -0.0601 -0.0579 -0.0361
    1AU       S  164   9.516  -0.331   6.454  0.0988 -0.0012  0.1594
    1AU     LIG  165   9.162  -0.464   6.638  0.2528  0.0557 -0.4139
    1AU     LIG  166   8.767  -0.683   6.751 -0.1823 -0.0812 -0.2123
    1AU     LIG  167   8.347  -0.907   6.693  0.1084  0.1159 -0.2529
    1AU     LIG  168   7.958  -0.926   6.597 -0.1335 -0.0736  0.2408
    1AU     LIG  169   7.535  -0.977   6.366  0.1675 -0.1931  0.2129
    1AU       S  170   9.458  -0.173   7.031  0.1009  0.3656 -0.2092
    1AU     LIG  171   9.452  -0.694   7.072  0.4282  0.0509 -0.0095
    1AU     LIG  172   9.191  -0.961   6.858  0.0326  0.4061 -0.1483
    1AU     LIG  173   8.860  -1.269   6.856 -0.0182  0.1284 -0.2628
    1AU     LIG  174   8.708  -1.633   7.222  0.2513  0.2222 -0.1219
    1AU     LIG  175   8.600  -1.913   7.463 -0.2422 -0.0107 -0.2315
    1AU    AUSL  176  10.044   1.204   6.011 -0.1050 -0.0795 -0.0615
    1AU    AUSL  177  10.354   0.865   6.155 -0.0083 -0.0157 -0.0470
    1AU     AUL  178  10.452   1.130   5.967 -0.0689  0.0353 -0.0648
    1AU       S  179  10.210   1.455   5.676 -0.0087 -0.2088 -0.3770
    1AU     LIG  180   9.875   1.235   5.364 -0.1746  0.2708 -0.2926
    1AU     LIG  181  10.043   1.052   5.056 -0.3599 -0.0830  0.0100
    1AU     LIG  182  10.156   0.566   4.836  0.2846  0.0667 -0.0209
    1AU     LIG  183  10.016   0.062   4.822  0.0157  0.0073 -0.0391
    1AU     LIG  184   9.633  -0.220   4.902 -0.0250 -0.1667  0.0126
    1AU       S  185  10.247   0.791   5.681 -0.5127  0.1025 -0.2394
    1AU     LIG  186  10.725   0.823   5.551  0.4228  0.1593 -0.0030
    1AU     LIG  187  11.142   0.819   5.782  0.2109  0.1102 -0.1111
    1AU     LIG  188  11.492   0.909   5.846 -0.1159 -0.0212 -0.1573
    1AU     LIG  189  11.884   1.095   6.096  0.1061  0.0796  0.1952
    1AU     LIG  190  12.255   1.306   5.948  0.4846 -0.0985  0.0079
    1AU    AUSL  191  10.060   1.599   6.207  0.0244 -0.0101  0.0456
    1AU    AUSL  192   9.595   1.251   6.034 -0.0697 -0.0606  0.0567
    1AU     AUL  193   9.821   1.489   5.979 -0.0383  0.0822 -0.0531
    1AU       S  194   9.421   1.458   5.764  0.3101 -0.0439 -0.1122
    1AU     LIG  195   9.079   1.733   5.576  0.0695  0.0766 -0.1882
    1AU     LIG  196   8.845   1.927   5.850 -0.1322  0.3450 -0.0884
    1AU     LIG  197   8.621   2.245   6.146  0.1449 -0.1390  0.0524
    1AU     LIG  198   8.284   2.530   6.339 -0.0019 -0.1101 -0.2724
    1AU     LIG  199   8.014   2.651   6.754  0.0017  0.3969 -0.2283
    1AU       S  200  10.206   1.736   5.955  0.2910 -0.1691 -0.1074
    1AU     LIG  201  10.311   2.028   6.106  0.1143 -0.2338  0.1538
    1AU     LIG  202  10.242   2.335   6.423 -0.2134 -0.0632  0.2189
    1AU     LIG  203  10.149   2.692   6.513  0.1765  0.0839  0.4416
    1AU     LIG  204  10.179   2.794   7.008  0.0675 -0.2221  0.2591
    1AU     LIG  205  10.457   2.962   7.375 -0.3138 -0.0888 -0.0513
    1AU    AUSL  206  10.056   1.287   7.656  0.0822  0.0295  0.0010
    1AU    AUSL  207  10.251   1.383   7.256 -0.0309 -0.0454 -0.0596
    1AU     AUL  208  10.309   1.604   7.546  0.0316 -0.0108 -0.0800
    1AU       S  209   9.932   1.869   7.598  0.3042 -0.3775 -0.2507
    1AU     LIG  210  10.316   2.069   7.823  0.1131  0.0094 -0.1562
    1AU     LIG  211  10.393   1.962   8.237 -0.1161 -0.0330  0.5918
    1AU     LIG  212  10.401   1.631   8.484  0.2252  0.0715  0.6834
    1AU     LIG  213  10.304   1.157   8.489  0.0919  0.1549 -0.1401
    1AU     LIG  214  10.309   0.670   8.388 -0.2015 -0.5375  0.2040
    1AU       S  215  10.274   1.319   7.971  0.3286 -0.4953  0.0979
    1AU     LIG  216  10.061   1.691   8.072  0.1731 -0.1078 -0.2128
    1AU     LIG  217   9.916   2.092   8.090 -0.1713 -0.0654 -0.1356
    1AU     LIG  218   9.921   2.403   7.848 -0.1311  0.2001  0.5436
    1AU     LIG  219  10.120   2.898   7.716  0.1426  0.1130  0.3366
    1AU     LIG  220  10.317   3.311   7.907 -0.1973  0.2001  0.1571
    1AU    AUSL  221  10.492   1.200   7.572  0.0894 -0.0492  0.0198
    1AU    AUSL  222  10.584   0.721   7.582  0.0664  0.0142  0.0176
    1AU     AUL  223  10.754   0.997   7.694 -0.0145  0.0750  0.1305
    1AU       S  224  10.477   1.289   7.895  0.1259  0.1416 -0.4340
    1AU     LIG  225  10.724   1.616   7.859 -0.2146 -0.1506 -0.0122
    1AU     LIG  226  11.093   1.923   7.693  0.2434  0.1170  0.1810
    1AU     LIG  227  11.282   2.212   7.301 -0.0053  0.2724  0.1036
    1AU     LIG  228  11.620   2.538   7.243  0.0147 -0.3704  0.0488
    1AU     LIG  229  12.018   2.795   7.025 -0.0804 -0.2277 -0.0340
    1AU       S  230  11.041   0.597   7.603  0.3998  0.0448  0.2159
    1AU     LIG  231  10.865   0.456   7.954  0.2353 -0.2490 -0.0207
    1AU     LIG  232  10.581   0.267   8.312 -0.3165 -0.2392  0.3979
    1AU     LIG  233  10.323   0.011   8.639 -0.2820  0.0890  0.2025
    1AU     LIG  234  10.317  -0.106   9.023 -0.1687 -0.0357  0.1539
    1AU     LIG  235  10.150  -0.443   9.169  0.3569 -0.3552  0.2766
    1AU    AUSL  236  10.187   0.877   7.544 -0.0493 -0.0262  0.0935
    1AU    AUSL  237   9.727   1.042   7.497  0.0631 -0.0477  0.0138
    1AU     AUL  238   9.904   1.076   7.827  0.0608  0.0217  0.0920
    1AU       S  239   9.543   0.952   8.071  0.1964  0.2986  0.1159
    1AU     LIG  240   9.866   1.233   8.296 -0.0585  0.1407 -0.1854
    1AU     LIG  241   9.619   1.490   8.364 -0.1436 -0.1271 -0.2373
    1AU     LIG  242   9.464   1.897   8.252 -0.2683 -0.1574  0.0180
    1AU     LIG  243   9.466   2.307   8.011  0.0626 -0.2256  0.3818
    1AU     LIG  244   9.444   2.401   7.460  0.1454  0.2537  0.2057
    1AU       S  245  10.333   0.990   7.998 -0.2823 -0.3746  0.4188
    1AU     LIG  246  10.749   0.883   8.226  0.1742 -0.1426  0.0412
    1AU     LIG  247  11.123   0.900   8.056 -0.1113 -0.2779 -0.3274
    1AU     LIG  248  11.385   1.080   7.740 -0.0396 -0.0802 -0.1235
    1AU     LIG  249  11.487   1.171   7.340  0.3720  0.3546 -0.1785
    1AU     LIG  250  11.839   0.957   7.110  0.0127  0.0449  0.1044
    1AU    AUSL  251   9.187   1.062   6.528 -0.0238  0.0484  0.0077
    1AU    AUSL  252   9.175   0.626   6.665 -0.0130 -0.0291 -0.0972
    1AU     AUL  253   8.875   0.931   6.480  0.0935  0.0922 -0.0835
    1AU       S  254   8.881   0.465   6.669  0.0105 -0.0780 -0.1642
    1AU     LIG  255   8.377   0.667   6.699 -0.2849 -0.3468  0.3302
    1AU     LIG  256   7.944   0.650   6.854  0.0778 -0.0962 -0.4459
    1AU     LIG  257   7.634   0.818   6.720  0.1177  0.2134 -0.0208
    1AU     LIG  258   7.176   0.609   6.709  0.0249  0.0371  0.1611
    1AU     LIG  259   6.751   0.578   6.521 -0.1101  0.1050 -0.0352
    1AU       S  260   8.914   1.351   6.611  0.1937  0.0387  0.4004
    1AU     LIG  261   8.474   1.614   6.764  0.1275  0.1732 -0.0924
    1AU     LIG  262   8.058   1.721   6.919 -0.1301 -0.0093  0.0258
    1AU     LIG  263   7.575   1.783   6.856 -0.1057  0.0316 -0.3864
    1AU     LIG  264   7.242   1.597   7.029 -0.0363  0.1308  0.0844
    1AU     LIG  265   6.897   1.684   7.287 -0.3186 -0.1268  0.0898
    1AU    AUSL  266   9.515   0.920   6.269 -0.0216  0.0460 -0.0315
    1AU    AUSL  267   9.337   1.430   6.351  0.0260  0.0799  0.0629
    1AU     AUL  268   9.236   1.180   6.139  0.0912  0.1230 -0.0166
    1AU       S  269   9.621   0.994   5.678 -0.0050  0.0864  0.1053
    1AU     LIG  270   9.190   1.123   5.499  0.1338 -0.0352 -0.2299
    1AU     LIG  271   8.929   1.259   5.782  0.2463  0.1718 -0.2585
    1AU     LIG  272   8.781   1.305   6.110  0.2006 -0.1764 -0.1897
    1AU     LIG  273   8.333   1.323   6.340  0.0686  0.3053  0.1105
    1AU     LIG  274   7.942   1.178   6.473  0.4875  0.1347 -0.0010
    1AU       S  275   9.137   1.649   6.176 -0.0075  0.2520  0.0211
    1AU     LIG  276   8.836   1.821   6.426  0.1293  0.3884 -0.4505
    1AU     LIG  277   8.540   2.139   6.635 -0.0281 -0.1763  0.3053
    1AU     LIG  278   8.390   2.359   6.841 -0.1880 -0.0134 -0.3903
    1AU     LIG  279   8.447   2.605   7.175  0.0956 -0.1917 -0.0862
    1AU     LIG  280   8.265   2.726   7.506  0.1944  0.5487 -0.0077
    1AU    AUSL  281   9.161   0.664   6.220 -0.0104 -0.0484 -0.0412
    1AU    AUSL  282   9.561   0.637   5.952 -0.0956  0.0021  0.0440
    1AU     AUL  283   9.320   0.760   5.950  0.0593 -0.0269 -0.0606
    1AU       S  284   9.389   0.293   5.902 -0.7877 -0.0927 -0.2319
    1AU     LIG  285   9.108   0.389   5.695 -0.2036  0.1761 -0.1187
    1AU     LIG  286   8.831   0.659   5.698  0.4654  0.2211  0.1500
    1AU     LIG  287   8.551   0.944   5.878  0.2362 -0.0472  0.3580
    1AU     LIG  288   8.104   1.081   5.759  0.5874 -0.1841  0.2554
    1AU     LIG  289   7.694   1.173   5.461 -0.2078  0.1080  0.0127
    1AU       S  290   8.967   0.513   6.208  0.3456  0.1160  0.2248
    1AU     LIG  291   8.554   0.495   6.165  0.0184  0.2654  0.0051
    1AU     LIG  292   8.136   0.803   6.205 -0.0496 -0.1618  0.4265
    1AU     LIG  293   7.766   0.903   6.071  0.2694  0.2645 -0.3007
    1AU     LIG  294   7.428   1.145   6.266 -0.2121  0.3073  0.1463
    1AU     LIG  295   7.396   1.380   6.646 -0.0777 -0.0973 -0.1055
    1AU    AUSL  296  10.767   0.584   7.205  0.0782 -0.0307 -0.0052
    1AU    AUSL  297  10.328   0.453   7.340 -0.0026  0.0543 -0.1237
    1AU     AUL  298  10.608   0.413   7.557  0.0701 -0.0812 -0.0120
    1AU       S  299  10.974   0.498   7.233  0.2699  0.2261 -0.3151
    1AU     LIG  300  11.245   0.283   7.134  0.1091  0.3708 -0.2780
    1AU     LIG  301  11.623  -0.022   7.233  0.1954  0.1880 -0.1825
    1AU     LIG  302  11.978  -0.298   7.090  0.1961  0.1399 -0.4491
    1AU     LIG  303  11.866  -0.594   6.872  0.2485  0.0430 -0.1159
    1AU     LIG  304  12.057  -0.962   6.667  0.0271 -0.3109  0.1461
    1AU       S  305  10.649  -0.037   7.466 -0.2794  0.0523 -0.1373
    1AU     LIG  306  11.088   0.118   7.651 -0.2527  0.3204  0.1392
    1AU     LIG  307  11.414   0.256   7.645 -0.1236 -0.1089  0.1752
    1AU     LIG  308  11.821   0.355   7.886 -0.2033 -0.1563  0.1099
    1AU     LIG  309  12.204   0.651   7.880 -0.4497  0.1903 -0.0913
    1AU     LIG  310  12.500   0.873   7.802 -0.2118 -0.2598  0.2300
    1AU    AUSL  311  10.557   0.959   7.195  0.1096  0.0925  0.0120
    1AU    AUSL  312  10.915   0.896   6.924  0.0904  0.0272  0.0412
    1AU     AUL  313  10.905   1.026   7.264 -0.0845 -0.0105  0.0217
    1AU       S  314  11.108   0.690   7.495 -0.1907 -0.0731 -0.1535
    1AU     LIG  315  11.557   0.676   7.466 -0.0858  0.2073 -0.1718
    1AU     LIG  316  11.922   0.536   7.395 -0.3590  0.1494 -0.2322
    1AU     LIG  317  12.256   0.615   7.276  0.0689 -0.2581 -0.0664
    1AU     LIG  318  12.639   0.494   7.137 -0.1317  0.1528  0.3653
    1AU     LIG  319  13.078   0.335   7.254 -0.3552  0.1438  0.1802
    1AU       S  320  11.161   1.115   6.898 -0.3742  0.7327 -0.0418
    1AU     LIG  321  11.414   0.767   6.970 -0.2949  0.1896  0.2463
    1AU     LIG  322  11.688   0.446   6.995 -0.2485 -0.3189  0.0610
    1AU     LIG  323  12.061   0.222   6.999 -0.1174  0.0278  0.2594
    1AU     LIG  324  12.458   0.037   7.001 -0.0312 -0.1102 -0.0035
    1AU     LIG  325  12.731  -0.017   7.381 -0.2715 -0.0885 -0.0427
    1AU    AUSL  326   9.858   0.308   6.064  0.1148 -0.0442 -0.0010
    1AU    AUSL  327   9.934   0.787   6.067 -0.1090  0.0404 -0.0840
    1AU     AUL  328   9.810   0.525   5.802  0.0614  0.0150 -0.0100
    1AU       S  329  10.117   0.834   5.709 -0.1498  0.0125  0.0947
    1AU     LIG  330   9.888   0.637   5.346  0.0578 -0.0640  0.3627
    1AU     LIG  331   9.454   0.563   5.373  0.0079 -0.1365 -0.1483
    1AU     LIG  332   9.113   0.711   5.269  0.0039  0.4305  0.0551
    1AU     LIG  333   8.733   0.996   5.265 -0.0849 -0.0176 -0.4920
    1AU     LIG  334   8.373   0.809   5.425  0.1071 -0.1289 -0.0451
    1AU       S  335   9.531   0.115   5.831  0.1270  0.1231 -0.0221
    1AU     LIG  336   9.131  -0.134   5.821  0.0916  0.2581  0.3351
    1AU     LIG  337   9.124  -0.491   6.113 -0.0504 -0.2365  0.1081
    1AU     LIG  338   8.950  -0.853   6.343 -0.5748 -0.1802 -0.4852
    1AU     LIG  339   8.638  -1.127   6.371 -0.0104  0.0030  0.2886
    1AU     LIG  340   8.229  -1.243   6.163 -0.4215  0.1142 -0.2001
    1AU    AUSL  341   9.523   0.441   6.346 -0.0603  0.0187  0.0182
    1AU    AUSL  342   9.931   0.212   6.477 -0.0138  0.0149  0.0713
    1AU     AUL  343   9.773   0.060   6.221 -0.0037 -0.0099  0.0088
    1AU       S  344   9.718  -0.374   6.367 -0.1217  0.0918  0.1864
    1AU     LIG  345  10.136  -0.620   6.714  0.2077 -0.3442  0.0333
    1AU     LIG  346  10.069  -1.084   6.827 -0.1726 -0.6930 -0.3530
    1AU     LIG  347  10.129  -1.325   7.090  0.0916  0.0835 -0.2157
    1AU     LIG  348  10.006  -1.669   7.212 -0.0441 -0.0656 -0.0120
    1AU     LIG  349   9.594  -1.703   7.295 -0.2783 -0.1051  0.4033
    1AU       S  350   9.340   0.231   6.110 -0.2541 -0.8609  0.0227
    1AU     LIG  351   8.987  -0.064   6.288 -0.0750 -0.0717 -0.1273
    1AU     LIG  352   8.701  -0.342   6.345 -0.0171 -0.1082 -0.0769
    1AU     LIG  353   8.420  -0.714   6.218 -0.0562 -0.4339 -0.1916
    1AU     LIG  354   8.073  -0.815   6.026  0.0486 -0.2664 -0.1078
    1AU     LIG  355   7.778  -0.825   5.730  0.3079  0.0368  0.3155
    1AU    AUSL  356   9.337   0.930   7.271  0.0283 -0.0233 -0.0418
    1AU    AUSL  357   9.055   0.957   6.921  0.0171  0.0245  0.0262
    1AU     AUL  358   9.000   0.779   7.340 -0.1217  0.0038 -0.0197
    1AU       S  359   8.800   0.894   6.942 -0.1684 -0.4956  0.3285
    1AU     LIG  360   8.545   0.848   7.260 -0.3348  0.0945 -0.0718
    1AU     LIG  361   8.679   0.436   7.463 -0.0217 -0.0593 -0.1424
    1AU     LIG  362   8.381   0.053   7.519  0.2850  0.3533 -0.0563
    1AU     LIG  363   8.429  -0.398   7.625 -0.4118 -0.1866 -0.0967
    1AU     LIG  364   8.685  -0.700   7.703 -0.0991 -0.3755 -0.2076
    1AU       S  365   8.977   1.219   7.497 -0.0068  0.0734  0.4031
    1AU     LIG  366   8.479   0.997   7.707  0.2800 -0.1351  0.3131
    1AU     LIG  367   8.254   0.643   7.629  0.2899 -0.1315  0.4138
    1AU     LIG  368   8.093   0.364   7.796  0.1838  0.0628 -0.1924
    1AU     LIG  369   7.980  -0.143   7.927  0.0845 -0.3035  0.2527
    1AU     LIG  370   7.805  -0.556   7.986 -0.0166 -0.0258  0.0330
    1AU    AUSL  371   9.151   1.344   7.070 -0.0867 -0.0925 -0.0450
    1AU    AUSL  372   9.536   1.619   7.080  0.0528 -0.0531 -0.0420
    1AU     AUL  373   9.235   1.736   7.192 -0.0159  0.0575 -0.0655
    1AU       S  374   8.978   1.310   7.228  0.2355 -0.3759  0.2180
    1AU     LIG  375   8.586   1.309   7.173 -0.0362  0.4847  0.0224
    1AU     LIG  376   8.285   1.144   6.960  0.1535  0.2596  0.1827
    1AU     LIG  377   7.776   1.285   6.988  0.0900 -0.3177  0.0467
    1AU     LIG  378   7.514   1.256   7.323  0.0072 -0.0957  0.2095
    1AU     LIG  379   7.500   0.974   7.642 -0.0888  0.1617  0.0376
    1AU       S  380   9.304   1.882   6.777 -0.0512  0.0516  0.1823
    1AU     LIG  381   9.196   2.319   6.886  0.1258  0.1677  0.0047
    1AU     LIG  382   9.372   2.739   7.046  0.0685  0.0714  0.1840
    1AU     LIG  383   9.285   3.077   7.385 -0.0838 -0.6277  0.0571
    1AU     LIG  384   9.398   3.494   7.616 -0.4116  0.4967  0.0391
    1AU     LIG  385   9.552   3.722   7.926 -0.3107  0.0520  0.0424
    1AU    AUSL  386   9.432   1.350   7.422  0.0384 -0.0108 -0.1865
    1AU    AUSL  387   9.435   0.729   7.636  0.0139  0.0778 -0.0014
    1AU     AUL  388   9.386   1.077   7.647 -0.0191  0.0380  0.0319
    1AU       S  389   9.389   0.708   7.973 -0.2078 -0.2662 -0.1827
    1AU     LIG  390   9.334   0.265   8.056 -0.0371 -0.4398  0.1292
    1AU     LIG  391   9.303  -0.124   7.932 -0.2789  0.0163 -0.0133
    1AU     LIG  392   9.306  -0.412   7.635  0.4344  0.3876  0.1216
    1AU     LIG  393   9.281  -0.895   7.477  0.2513  0.2849  0.2988
    1AU     LIG  394   9.275  -1.342   7.170  0.1577  0.0045  0.2309
    1AU       S  395   9.127   1.449   7.519  0.3560  0.1961 -0.0028
    1AU     LIG  396   8.790   1.738   7.452  0.1562  0.2956 -0.0008
    1AU     LIG  397   8.323   1.877   7.436 -0.3772  0.2602 -0.0163
    1AU     LIG  398   8.082   1.628   7.831  0.2525 -0.0777  0.0105
    1AU     LIG  399   7.622   1.406   7.920 -0.1536  0.3215  0.2194
    1AU     LIG  400   7.363   1.060   8.123  0.0788 -0.2298 -0.0449
    1AU    AUSL  401  10.230   0.079   6.798 -0.0506  0.0083 -0.0553
    1AU    AUSL  402  10.572   0.218   7.071 -0.1266  0.0799  0.0652
    1AU     AUL  403  10.328  -0.155   7.034  0.0145 -0.1513  0.0296
    1AU       S  404  10.554  -0.305   6.689  0.0718 -0.0556  0.1921
    1AU     LIG  405  10.937  -0.605   6.824  0.2611 -0.1003  0.1571
    1AU     LIG  406  11.313  -0.784   6.917  0.2104  0.2419 -0.1037
    1AU     LIG  407  11.449  -1.189   7.168 -0.0759 -0.1058  0.3363
    1AU     LIG  408  11.898  -1.224   7.203 -0.0606  0.4095  0.0567
    1AU     LIG  409  12.362  -1.190   7.123  0.0886  0.0993 -0.2030
    1AU       S  410  10.747   0.046   7.189  0.4147  0.2838  0.1046
    1AU     LIG  411  11.126  -0.241   7.262  0.0250 -0.2042  0.2145
    1AU     LIG  412  11.070  -0.673   7.361  0.1712 -0.0901 -0.3173
    1AU     LIG  413  10.939  -1.099   7.232 -0.1658 -0.1240 -0.2395
    1AU     LIG  414  10.947  -1.561   7.020  0.0174  0.1750 -0.0307
    1AU     LIG  415  11.094  -2.083   7.186 -0.4210  0.0676 -0.1565
    1AU    AUSL  416  10.311   0.073   6.350  0.0326 -0.0481 -0.0154
    1AU    AUSL  417   9.862  -0.145   6.758 -0.0483 -0.0278  0.0192
    1AU     AUL  418  10.110  -0.144   6.499 -0.0214 -0.0329 -0.0176
    1AU       S  419  10.588  -0.258   6.455  0.2367  0.2484  0.0905
    1AU     LIG  420  10.970  -0.456   6.370  0.1794 -0.1562  0.5935
    1AU     LIG  421  11.143  -0.884   6.234  0.1535  0.3668  0.1121
    1AU     LIG  422  10.976  -1.278   6.238  0.3570  0.0276  0.1493
    1AU     LIG  423  10.822  -1.548   6.479 -0.2534  0.2256 -0.1092
    1AU     LIG  424  10.856  -1.959   6.754  0.2903 -0.0587 -0.0229
    1AU       S  425   9.667  -0.371   6.665  0.3863  0.4937  0.3632
    1AU     LIG  426   9.658  -0.799   6.668  0.2842 -0.2101  0.2655
    1AU     LIG  427   9.624  -1.250   6.820 -0.0237  0.1023  0.0193
    1AU     LIG  428   9.712  -1.071   7.284  0.1123 -0.0574  0.1127
    1AU     LIG  429   9.851  -1.297   7.613 -0.1873 -0.2781  0.0491
    1AU     LIG  430  10.162  -1.580   7.717 -0.2849 -0.5410 -0.1319
    1AU    AUSL  431  10.645   0.167   6.652 -0.0846  0.0056 -0.0537
    1AU    AUSL  432  10.445   0.482   6.398  0.0208  0.0150  0.1014
    1AU     AUL  433  10.589   0.161   6.235 -0.0034  0.0170 -0.0304
    1AU       S  434  10.980   0.360   6.407  0.3167  0.0324  0.2106
    1AU     LIG  435  11.108   0.031   6.188 -0.2386 -0.0868 -0.1122
    1AU     LIG  436  11.461  -0.347   6.230 -0.0683  0.1756 -0.3176
    1AU     LIG  437  11.509  -0.579   6.487  0.0313  0.1023 -0.1049
    1AU     LIG  438  11.667  -0.936   6.391 -0.1616  0.0217  0.0052
    1AU     LIG  439  11.747  -1.407   6.581  0.3711 -0.0573 -0.0633
    1AU       S  440  10.684  -0.062   6.637 -0.3380 -0.0806  0.2259
    1AU     LIG  441  11.094  -0.125   6.748 -0.1743 -0.0451  0.0329
    1AU     LIG  442  11.441  -0.309   6.889  0.1993 -0.3365  0.0050
    1AU     LIG  443  11.570  -0.504   7.316 -0.0143  0.0011 -0.2113
    1AU     LIG  444  11.737  -0.792   7.443  0.1860 -0.0504 -0.2091
    1AU     LIG  445  12.030  -0.947   7.665  0.0630  0.0267  0.0272
    1AU    AUSL  446   9.749   1.731   6.688  0.0747 -0.0392 -0.0029
    1AU    AUSL  447   9.834   1.487   7.342 -0.0301 -0.0090 -0.0679
    1AU     AUL  448   9.756   1.861   7.073 -0.0822 -0.0405  0.0503
    1AU       S  449   9.476   1.990   6.638 -0.6241  0.1466  0.0426
    1AU     LIG  450   9.614   2.416   6.540  0.0458  0.1248 -0.0500
    1AU     LIG  451   9.758   2.770   6.732  0.0795 -0.0623 -0.0385
    1AU     LIG  452   9.637   3.169   6.902  0.0023  0.1369 -0.0189
    1AU     LIG  453   9.553   3.607   7.122 -0.0691  0.2972  0.0091
    1AU     LIG  454   9.788   4.040   7.054 -0.3249 -0.5392 -0.0508
    1AU       S  455   9.793   1.682   7.494  0.1087 -0.0071 -0.1494
    1AU     LIG  456   9.431   1.889   7.619 -0.3636 -0.0283  0.1206
    1AU     LIG  457   9.045   2.205   7.621  0.0209  0.3786 -0.3147
    1AU     LIG  458   8.898   2.596   7.496  0.3915  0.0525  0.1221
    1AU     LIG  459   8.711   2.936   7.728  0.2415 -0.0760  0.1373
    1AU     LIG  460   8.433   3.083   8.070 -0.1784  0.2872  0.2662
    1AU    AUSL  461   9.455   1.364   6.752 -0.0160  0.0372 -0.0328
    1AU    AUSL  462   9.771   1.394   6.437  0.0176 -0.0234 -0.0227
    1AU     AUL  463   9.586   1.640   6.380 -0.0660  0.1382 -0.0400
    1AU       S  464   9.231   1.702   6.706 -0.2162 -0.3101  0.3355
    1AU     LIG  465   8.849   1.897   6.920 -0.1301  0.2349 -0.2149
    1AU     LIG  466   8.710   2.141   7.207 -0.0421 -0.0244  0.0464
    1AU     LIG  467   8.470   2.295   7.591  0.0082  0.2967  0.2080
    1AU     LIG  468   8.552   2.558   7.958 -0.0280  0.0973  0.2065
    1AU     LIG  469   8.646   2.708   8.391 -0.0100 -0.0187 -0.1605
    1AU       S  470   9.384   1.706   5.963 -0.0051 -0.0650 -0.0568
    1AU     LIG  471   9.408   2.038   6.090  0.3820  0.1785 -0.0984
    1AU     LIG  472   9.126   2.244   6.379  0.2570  0.3320 -0.1688
    1AU     LIG  473   8.827   2.539   6.607  0.2496 -0.1973 -0.2100
    1AU     LIG  474   8.880   2.765   6.939  0.1360 -0.1730 -0.2633
    1AU     LIG  475   8.849   3.143   7.199  0.2215 -0.1087 -0.1218
    1AU    AUSL  476  10.759   0.765   6.296 -0.0354  0.0147 -0.0343
    1AU    AUSL  477  10.249   0.456   6.016 -0.0155  0.0521  0.0047
    1AU     AUL  478  10.581   0.626   6.004  0.0052  0.0455  0.0106
    1AU       S  479  10.275   0.490   5.720  0.1769  0.0335  0.3215
    1AU     LIG  480  10.626   0.230   5.702 -0.0449 -0.2140 -0.0590
    1AU     LIG  481  11.021   0.353   5.771  0.0497  0.1628 -0.2989
    1AU     LIG  482  11.467   0.399   5.986  0.1840  0.4046 -0.0153
    1AU     LIG  483  11.744   0.077   6.139 -0.0104  0.0560 -0.1224
    1AU     LIG  484  11.847  -0.145   6.616  0.0879  0.2795 -0.0829
    1AU       S  485  10.973   0.527   6.274  0.3771 -0.0332  0.0740
    1AU     LIG  486  11.373   0.791   6.341  0.2156 -0.0395 -0.0198
    1AU     LIG  487  11.857   0.856   6.557 -0.2356 -0.2080 -0.2865
    1AU     LIG  488  12.164   0.810   6.799 -0.4045 -0.0712  0.3367
    1AU     LIG  489  12.395   1.032   7.062  0.3241 -0.1230 -0.0102
    1AU     LIG  490  12.461   1.277   7.359 -0.0017  0.1371  0.1422
    1AU    AUSL  491  10.722   0.583   6.720 -0.0633  0.0712  0.0059
    1AU    AUSL  492  10.668   1.045   6.593  0.0755 -0.0252 -0.0624
    1AU     AUL  493  10.967   0.875   6.564 -0.0063  0.0087  0.0169
    1AU       S  494  11.025   0.455   6.682  0.2347 -0.3560 -0.0522
    1AU     LIG  495  11.506   0.352   6.514  0.2298  0.2838 -0.0201
    1AU     LIG  496  11.900   0.377   6.552 -0.3693  0.0965 -0.0787
    1AU     LIG  497  12.226   0.518   6.359  0.0061 -0.0919  0.1053
    1AU     LIG  498  12.314   0.927   6.331  0.0089 -0.2819 -0.2015
    1AU     LIG  499  12.071   1.313   6.485 -0.4966 -0.0097 -0.0741
    1AU       S  500  11.103   1.308   6.640  0.0325  0.0998  0.2853
    1AU     LIG  501  11.547   1.292   6.616  0.1333 -0.3281 -0.0748
    1AU     LIG  502  11.850   1.572   6.926  0.0224 -0.0717  0.0351
    1AU     LIG  503  11.997   1.482   7.305 -0.4089 -0.2730 -0.0233
    1AU     LIG  504  12.104   1.041   7.525  0.0036  0.0571 -0.0315
    1AU     LIG  505  11.797   0.908   7.798  0.3259 -0.0880  0.3465
    2POPC   NC3  506   9.422   6.822   9.339 -0.1350 -0.1713  0.0260
    2POPC   PO4  507   9.154   6.501   9.440 -0.0040 -0.0848  0.1492
    2POPC   GL1  508   9.098   6.468   9.045  0.1811  0.1671 -0.0551
    2POPC   GL2  509   8.738   6.548   8.986  0.0473  0.1954  0.2148
    2POPC   C1A  510   9.087   6.413   8.561  0.2399 -0.0374 -0.0193
    2POPC   D2A  511   9.081   6.678   8.234 -0.0486  0.1085  0.1312
    2POPC   C3A  512   8.961   6.586   7.774 -0.0025 -0.1129  0.2149
    2POPC   C4A  513   8.683   6.367   7.430 -0.1392 -0.2639  0.0538
    2POPC   C1B  514   8.711   6.805   8.592  0.1100  0.1170 -0.0968
    2POPC   C2B  515   8.741   6.987   8.130 -0.1622 -0.2701 -0.1108
    2POPC   C3B  516   8.886   7.085   7.715 -0.0944 -0.2141 -0.2311
    2POPC   C4B  517   9.071   7.253   7.407  0.0724  0.2572  0.0349
    3POPC   NC3  518   2.799   8.745   9.235 -0.1732  0.0294  0.1658
    3POPC   PO4  519   2.708   8.376   9.031  0.0937 -0.0451  0.2940
    3POPC   GL1  520   2.761   8.407   8.541  0.2120  0.2439  0.3018
    3POPC   GL2  521   2.627   8.746   8.379  0.2169  0.0375  0.0228
    3POPC   C1A  522   2.561   8.026   8.314 -0.0293 -0.2176  0.1619
    3POPC   D2A  523   2.499   7.673   7.997  0.1124  0.2485 -0.0452
    3POPC   C3A  524   2.209   7.559   7.760 -0.0357  0.1884 -0.1367
    3POPC   C4A  525   2.160   7.242   7.503 -0.0114  0.2822  0.2043
    3POPC   C1B  526   2.867   9.155   8.105  0.2122  0.4467  0.0586
    3POPC   C2B  527   3.076   9.227   7.747  0.1930  0.1552 -0.1130
    3POPC   C3B  528   3.233   9.333   7.243 -0.2812 -0.4617  0.1686
    3POPC   C4B  529   3.129   9.119   6.805  0.0908  0.2735  0.0231
    4POPC   NC3  530   1.685   4.355   9.471  0.1869 -0.3317  0.4227
    4POPC   PO4  531   1.389   3.977   9.276  0.0650 -0.2097 -0.1711
    4POPC   GL1  532   1.239   3.955   8.837  0.1326 -0.3608 -0.1141
    4POPC   GL2  533   1.156   4.268   8.712 -0.1883  0.0740 -0.0237
    4POPC   C1A  534   1.189   3.856   8.340  0.0589 -0.0158 -0.0409
    4POPC   D2A  535   1.145   3.932   7.899  0.0151 -0.3722 -0.0294
    4POPC   C3A  536   1.204   3.632   7.726 -0.0460 -0.2597 -0.2357
    4POPC   C4A  537   1.444   3.268   7.541 -0.0237  0.0004  0.3111
    4POPC   C1B  538   1.217   4.387   8.276 -0.2789 -0.0495  0.0824
    4POPC   C2B  539   1.191   4.382   7.799  0.0616 -0.0915  0.0303
    4POPC   C3B  540   1.167   4.132   7.388 -0.1459 -0.1957  0.1457
    4POPC   C4B  541   1.095   4.154   6.959  0.2170 -0.2247  0.1066
    5POPC   NC3  542   4.713   5.321   8.851  0.2484  0.1657  0.0254
    5POPC   PO4  543   4.279   5.265   8.662  0.0985 -0.1832  0.1309
    5POPC   GL1  544   4.094   5.353   8.298  0.2236 -0.0188  0.0648
    5POPC   GL2  545   3.854   5.080   8.222  0.0116  0.1970 -0.0351
    5POPC   C1A  546   4.040   5.313   7.818 -0.0190  0.0199  0.1106
    5POPC   D2A  547   4.130   5.343   7.365 -0.1294  0.2276 -0.5259
    5POPC   C3A  548   3.773   5.326   6.947 -0.2474 -0.2100  0.1001
    5POPC   C4A  549   3.317   5.307   6.729  0.1644 -0.0709  0.0816
    5POPC   C1B  550   3.728   4.948   7.867 -0.1486  0.4973 -0.0097
    5POPC   C2B  551   3.833   4.843   7.438  0.2179 -0.3006 -0.0996
    5POPC   C3B  552   3.774   4.840   6.970 -0.0043 -0.1369  0.2667
    5POPC   C4B  553   4.055   5.078   6.619 -0.0005 -0.0672  0.1134
    6POPC   NC3  554   4.020   7.804   9.141 -0.0526 -0.3382  0.2885
    6POPC   PO4  555   4.223   7.840   8.814 -0.3398 -0.1346  0.3393
    6POPC   GL1  556   4.213   7.755   8.424 -0.0057  0.0046  0.0702
    6POPC   GL2  557   4.023   7.509   8.451 -0.0508  0.0038  0.1908
    6POPC   C1A  558   4.295   7.844   8.028 -0.0085  0.3503  0.3757
    6POPC   D2A  559   4.551   8.010   7.737 -0.3504  0.0254  0.1054
    6POPC   C3A  560   4.798   7.702   7.408  0.0278  0.1822 -0.2762
    6POPC   C4A  561   4.862   7.531   7.068 -0.1565 -0.0444  0.2087
    6POPC   C1B  562   3.761   7.606   8.107 -0.3956  0.2626  0.0636
    6POPC   C2B  563   3.299   7.574   7.929 -0.0243 -0.4195  0.3320
    6POPC   C3B  564   2.962   7.891   7.917  0.1984 -0.0605 -0.3976
    6POPC   C4B  565   2.936   8.374   8.051  0.0559  0.1605  0.3897
    7POPC   NC3  566  10.053  10.007   9.824 -0.1909 -0.2528  0.3235
    7POPC   PO4  567  10.093  10.355  10.141  0.4788  0.2390  0.1664
    7POPC   GL1  568  10.124  10.754   9.886 -0.1053  0.1613  0.0545
    7POPC   GL2  569   9.883  11.031   9.663  0.1337  0.0510 -0.0591
    7POPC   C1A  570  10.373  10.924   9.633 -0.1030 -0.3410  0.3487
    7POPC   D2A  571  10.265  10.878   9.256 -0.0597  0.0587  0.3240
    7POPC   C3A  572   9.909  10.581   9.201  0.0750  0.0523  0.0206
    7POPC   C4A  573   9.845  10.255   8.854 -0.1908  0.2897  0.0686
    7POPC   C1B  574   9.726  11.068   9.167 -0.2673  0.4046 -0.0161
    7POPC   C2B  575   9.843  11.385   8.912 -0.3443  0.0726  0.2723
    7POPC   C3B  576   9.599  11.704   8.819 -0.1250 -0.0094 -0.1941
    7POPC   C4B  577   9.344  11.852   9.051 -0.1772 -0.1781  0.0042
    8POPC   NC3  578   6.123   7.540   9.616 -0.3571 -0.3058  0.1542
    8POPC   PO4  579   6.195   7.204   9.342 -0.1372  0.1319 -0.0104
    8POPC   GL1  580   6.296   7.033   8.896  0.0262  0.1911  0.1337
    8POPC   GL2  581   6.602   6.996   8.831  0.0643  0.2964  0.1750
    8POPC   C1A  582   6.386   7.249   8.484 -0.3313 -0.1632 -0.0968
    8POPC   D2A  583   6.666   7.195   8.192  0.1272 -0.1525  0.4735
    8POPC   C3A  584   7.003   6.876   8.018  0.1116 -0.0999 -0.1307
    8POPC   C4A  585   7.455   6.784   7.963 -0.1120  0.2434 -0.0562
    8POPC   C1B  586   6.564   6.756   8.454  0.1413 -0.0647  0.0016
    8POPC   C2B  587   6.598   6.584   8.048  0.0274 -0.2938 -0.0205
    8POPC   C3B  588   6.224   6.599   7.695 -0.1041  0.0371  0.1531
    8POPC   C4B  589   6.017   6.136   7.577  0.1843  0.0337  0.2862
    9POPC   NC3  590   7.106   8.670   9.283  0.1222  0.2071 -0.0648
    9POPC   PO4  591   6.884   8.283   9.234  0.0367 -0.0961  0.3776
    9POPC   GL1  592   7.076   8.502   8.834  0.3081 -0.0146 -0.0762
    9POPC   GL2  593   6.930   8.865   8.777 -0.2567  0.0335 -0.0591
    9POPC   C1A  594   7.225   8.376   8.366  0.1097  0.1398 -0.0285
    9POPC   D2A  595   7.669   8.412   8.176  0.4073 -0.1733 -0.1611
    9POPC   C3A  596   7.773   8.525   7.756 -0.0440  0.1312  0.0724
    9POPC   C4A  597   7.663   8.812   7.559  0.0939  0.1538 -0.0151
    9POPC   C1B  598   6.925   8.794   8.378  0.1481 -0.1134 -0.0829
    9POPC   C2B  599   6.725   8.605   8.063  0.4450 -0.3244  0.1973
    9POPC   C3B  600   6.719   8.402   7.664  0.0308 -0.1783  0.0808
    9POPC   C4B  601   6.703   7.950   7.617 -0.0824 -0.1128 -0.4319
   10POPC   NC3  602   3.041   7.394   8.682  0.1069 -0.0348  0.1569
   10POPC   PO4  603   3.432   7.181   8.660 -0.0943  0.2715  0.0655
   10POPC   GL1  604   3.318   7.149   8.268 -0.2141  0.0388 -0.1958
   10POPC   GL2  605   3.527   7.210   8.125  0.1231 -0.1374 -0.0152
   10POPC   C1A  606   3.278   6.843   7.907  0.1112 -0.2082 -0.0817
   10POPC   D2A  607   3.520   6.596   7.493  0.0422 -0.1414  0.1146
   10POPC   C3A  608   3.725   6.794   7.119 -0.2337  0.5531  0.1919
   10POPC   C4A  609   4.028   7.008   6.900 -0.4721  0.0444  0.1004
   10POPC   C1B  610   3.478   7.231   7.672 -0.0417 -0.2036 -0.1295
   10POPC   C2B  611   3.462   7.150   7.238  0.4455  0.1033  0.0944
   10POPC   C3B  612   3.532   7.136   6.794  0.1143  0.0082 -0.1421
   10POPC   C4B  613   3.744   7.313   6.442  0.2787  0.1180 -0.1716
   11POPC   NC3  614   0.047   4.348   9.245 -0.0995 -0.6079 -0.0426
   11POPC   PO4  615  -0.130   4.752   9.330 -0.2471  0.1126  0.2264
   11POPC   GL1  616  -0.234   4.553   8.922  0.0162 -0.1036  0.0030
   11POPC   GL2  617  -0.608   4.489   8.999 -0.0154  0.1069  0.2677
   11POPC   C1A  618  -0.397   4.745   8.547 -0.0792 -0.1582  0.3120
   11POPC   D2A  619  -0.600   5.131   8.318  0.0633 -0.0010 -0.1412
   11POPC   C3A  620  -0.430   5.495   8.166 -0.2133 -0.0611  0.1805
   11POPC   C4A  621  -0.504   5.832   8.224 -0.1398 -0.0357 -0.2297
   11POPC   C1B  622  -0.562   4.213   8.640 -0.1106 -0.2636 -0.1160
   11POPC   C2B  623  -0.476   3.848   8.325  0.0295 -0.1545  0.0261
   11POPC   C3B  624  -0.317   3.795   7.886  0.0394 -0.3197  0.0450
   11POPC   C4B  625  -0.525   3.751   7.560 -0.3629 -0.0338 -0.2628
   12POPC   NC3  626   6.647   7.029   9.332  0.2316 -0.0903  0.1476
   12POPC   PO4  627   6.931   6.642   9.053  0.0522  0.0293 -0.0215
   12POPC   GL1  628   7.126   6.954   8.752  0.1402 -0.2301  0.0686
   12POPC   GL2  629   7.147   6.721   8.526  0.0967 -0.1415 -0.1783
   12POPC   C1A  630   7.187   7.162   8.355 -0.0381 -0.1238 -0.0865
   12POPC   D2A  631   7.050   7.500   8.158 -0.1999 -0.1616  0.2742
   12POPC   C3A  632   6.932   7.963   8.092 -0.0096  0.1348 -0.2892
   12POPC   C4A  633   6.567   8.128   8.066  0.4429 -0.0230 -0.0053
   12POPC   C1B  634   7.463   6.381   8.407 -0.0843 -0.2951  0.0060
   12POPC   C2B  635   7.449   6.285   7.914 -0.2155  0.3681 -0.1357
   12POPC   C3B  636   7.703   6.187   7.589 -0.1053  0.2352  0.0929
   12POPC   C4B  637   7.939   5.902   7.282 -0.1219  0.1388 -0.0214
   13POPC   NC3  638   3.401   0.384   8.174 -0.1676 -0.0792 -0.1501
   13POPC   PO4  639   3.791   0.131   8.264  0.2833 -0.1101 -0.3206
   13POPC   GL1  640   3.803   0.243   7.849 -0.2374 -0.0785 -0.0019
   13POPC   GL2  641   3.792   0.473   7.842  0.1706 -0.2650 -0.0125
   13POPC   C1A  642   3.662   0.072   7.507  0.3321 -0.2460 -0.0327
   13POPC   D2A  643   3.840   0.066   7.161 -0.3389  0.2546 -0.1018
   13POPC   C3A  644   4.050   0.383   7.330 -0.0515 -0.3082 -0.0028
   13POPC   C4A  645   4.062   0.875   7.253  0.2740  0.0239 -0.1295
   13POPC   C1B  646   3.577   0.562   7.378 -0.0924  0.0531  0.1397
   13POPC   C2B  647   3.587   0.792   6.994  0.0664  0.1356 -0.1013
   13POPC   C3B  648   3.852   1.041   6.810  0.5254 -0.2574  0.2967
   13POPC   C4B  649   3.898   1.486   6.804 -0.1450  0.3031 -0.1839
   14POPC   NC3  650   0.503   6.584   8.837 -0.0784 -0.2039  0.3570
   14POPC   PO4  651   0.894   6.737   9.028 -0.2858 -0.1000 -0.1934
   14POPC   GL1  652   0.856   6.936   8.557 -0.2659  0.3401  0.2214
   14POPC   GL2  653   0.996   7.258   8.427 -0.2140 -0.1194  0.2054
   14POPC   C1A  654   0.979   6.829   8.136 -0.0075  0.0854  0.0343
   14POPC   D2A  655   0.910   7.087   7.793  0.2642 -0.1547  0.0024
   14POPC   C3A  656   0.755   6.929   7.502 -0.3285 -0.2729  0.1706
   14POPC   C4A  657   0.473   7.121   7.242 -0.3942  0.3200  0.0613
   14POPC   C1B  658   1.341   7.248   8.143  0.1475  0.0391 -0.2914
   14POPC   C2B  659   1.411   7.156   7.661  0.2259 -0.0566  0.0475
   14POPC   C3B  660   1.750   6.880   7.353  0.1764 -0.1286  0.1798
   14POPC   C4B  661   2.024   6.762   6.946  0.0794 -0.2860  0.1567
   15POPC   NC3  662   8.589   3.618   9.998 -0.1717  0.0236 -0.2234
   15POPC   PO4  663   8.281   3.697   9.573 -0.1176  0.1688  0.2204
   15POPC   GL1  664   8.503   3.836   9.138 -0.0581  0.2325 -0.5666
   15POPC   GL2  665   8.360   3.964   8.946 -0.1136  0.3732 -0.2724
   15POPC   C1A  666   8.656   3.658   8.790 -0.1221 -0.3191 -0.1196
   15POPC   D2A  667   8.996   3.586   8.451  0.0500  0.1864  0.2880
   15POPC   C3A  668   8.894   3.531   7.986  0.0360 -0.1286  0.3551
   15POPC   C4A  669   8.883   3.428   7.563  0.2615  0.1299  0.0329
   15POPC   C1B  670   8.185   3.671   8.757  0.0063 -0.1081 -0.2163
   15POPC   C2B  671   8.159   3.547   8.310 -0.2236 -0.0617  0.2949
   15POPC   C3B  672   8.209   3.562   7.843  0.2948  0.0678 -0.2931
   15POPC   C4B  673   7.932   3.476   7.501 -0.2156  0.3717  0.1978
   16POPC   NC3  674   3.171   4.835   8.894 -0.2991 -0.0207 -0.1989
   16POPC   PO4  675   2.723   4.852   9.017  0.0165 -0.0022  0.0497
   16POPC   GL1  676   2.889   4.906   8.518  0.1379 -0.1205  0.1132
   16POPC   GL2  677   2.917   5.218   8.468  0.0692 -0.2038  0.0046
   16POPC   C1A  678   2.681   4.868   8.141  0.1934  0.0590  0.0172
   16POPC   D2A  679   2.685   4.744   7.771 -0.0202  0.2460 -0.0809
   16POPC   C3A  680   2.976   4.399   7.640 -0.2214 -0.2552  0.0588
   16POPC   C4A  681   2.723   4.150   7.326 -0.1325  0.0333 -0.0498
   16POPC   C1B  682   3.063   5.243   8.027 -0.0529  0.0889 -0.3354
   16POPC   C2B  683   3.186   5.023   7.684 -0.0151  0.1300 -0.2655
   16POPC   C3B  684   3.041   4.809   7.350 -0.1423 -0.0969 -0.0581
   16POPC   C4B  685   3.294   4.751   6.922  0.1084 -0.1563 -0.0483
   17POPC   NC3  686   5.791   5.354   8.956  0.3973  0.1350 -0.2261
   17POPC   PO4  687   5.917   4.889   8.962  0.0298  0.2049  0.3441
   17POPC   GL1  688   5.754   4.913   8.459  0.2511 -0.0242 -0.2765
   17POPC   GL2  689   5.546   5.012   8.314  0.2523 -0.3175  0.2545
   17POPC   C1A  690   6.019   4.850   8.176  0.1861  0.0605  0.1461
   17POPC   D2A  691   6.061   4.704   7.723  0.2645 -0.0024 -0.2626
   17POPC   C3A  692   6.474   4.533   7.603 -0.3663  0.1431  0.0189
   17POPC   C4A  693   6.750   4.186   7.666  0.1126 -0.2412  0.1592
   17POPC   C1B  694   5.715   5.391   8.026  0.2322  0.1034 -0.1676
   17POPC   C2B  695   5.529   5.596   7.663 -0.3422 -0.2835  0.1665
   17POPC   C3B  696   5.267   5.805   7.296  0.0720  0.1593 -0.0449
   17POPC   C4B  697   5.220   5.752   6.848 -0.1796 -0.1236 -0.2076
   18POPC   NC3  698   9.917   2.499  10.420 -0.1128  0.1843 -0.1450
   18POPC   PO4  699   9.817   2.744  10.064  0.1246  0.0146 -0.1565
   18POPC   GL1  700   9.764   2.687   9.603  0.0351  0.1545 -0.1743
   18POPC   GL2  701   9.824   2.301   9.417 -0.4064 -0.4571  0.0128
   18POPC   C1A  702   9.599   2.814   9.216 -0.0052  0.0972  0.0821
   18POPC   D2A  703   9.277   2.790   8.871  0.0965 -0.0514 -0.2368
   18POPC   C3A  704   9.038   3.060   8.522 -0.0780  0.2083 -0.0255
   18POPC   C4A  705   8.911   3.082   8.154 -0.2622  0.2092  0.0026
   18POPC   C1B  706  10.302   2.481   9.374 -0.3214  0.0650  0.0425
   18POPC   C2B  707  10.594   2.681   9.518  0.0032  0.0115  0.0613
   18POPC   C3B  708  10.746   2.743   9.139 -0.1851  0.0780 -0.3372
   18POPC   C4B  709  11.024   3.004   8.962 -0.2306 -0.1798 -0.0257
   19POPC   NC3  710   3.920   1.026   8.574 -0.1910  0.1169 -0.1736
   19POPC   PO4  711   3.874   0.609   8.330 -0.1178 -0.3681 -0.2321
   19POPC   GL1  712   3.864   0.899   8.119  0.6427 -0.0811  0.0031
   19POPC   GL2  713   3.533   0.945   7.982 -0.3172 -0.0431  0.0789
   19POPC   C1A  714   4.034   1.134   7.796  0.0577 -0.0185 -0.1233
   19POPC   D2A  715   4.547   1.097   7.853 -0.0216  0.1118 -0.1144
   19POPC   C3A  716   5.053   1.226   7.682  0.0721 -0.3009  0.1424
   19POPC   C4A  717   5.485   1.163   7.714 -0.2387 -0.0684 -0.2108
   19POPC   C1B  718   3.650   1.077   7.509 -0.0029 -0.0513 -0.1140
   19POPC   C2B  719   3.543   1.282   7.115 -0.1645 -0.5571  0.0779
   19POPC   C3B  720   3.118   1.513   7.139  0.0778  0.2820 -0.1825
   19POPC   C4B  721   2.814   1.423   6.871 -0.1758  0.1728  0.2509
   20POPC   NC3  722   3.385   2.724   8.962  0.0459 -0.1035  0.4619
   20POPC   PO4  723   3.593   2.469   8.749  0.0921  0.1029 -0.2288
   20POPC   GL1  724   3.432   2.611   8.374 -0.1113 -0.0894  0.0493
   20POPC   GL2  725   3.438   2.939   8.313 -0.1788  0.1146  0.0137
   20POPC   C1A  726   3.396   2.738   7.841  0.0138  0.2942 -0.1636
   20POPC   D2A  727   3.144   2.462   7.547 -0.1315 -0.0490 -0.1008
   20POPC   C3A  728   2.966   2.647   7.168  0.2377 -0.3701 -0.0520
   20POPC   C4A  729   2.895   2.538   6.837 -0.2543 -0.1165  0.1670
   20POPC   C1B  730   3.216   3.155   7.924  0.1430  0.1389 -0.2337
   20POPC   C2B  731   3.149   3.085   7.417  0.0135  0.0970 -0.2415
   20POPC   C3B  732   2.967   3.273   7.096  0.2110  0.2187  0.0905
   20POPC   C4B  733   2.814   3.125   6.637 -0.1071  0.1097 -0.0161
   21POPC   NC3  734   5.486   4.200   8.248 -0.2810  0.0923  0.1815
   21POPC   PO4  735   5.766   3.938   8.424 -0.1086 -0.0900  0.0717
   21POPC   GL1  736   5.747   3.751   7.975  0.0603  0.0929  0.0386
   21POPC   GL2  737   5.525   3.864   7.735  0.1448  0.0448  0.3292
   21POPC   C1A  738   5.736   3.346   7.627  0.1279 -0.1587  0.0330
   21POPC   D2A  739   5.618   3.372   7.166  0.1186  0.2620 -0.2012
   21POPC   C3A  740   5.481   3.097   6.907 -0.1660  0.4568 -0.0725
   21POPC   C4A  741   5.252   3.032   6.534  0.0163 -0.0525 -0.0913
   21POPC   C1B  742   5.350   3.769   7.343  0.1728 -0.2497  0.1262
   21POPC   C2B  743   5.078   3.391   7.194 -0.4860  0.2995 -0.0818
   21POPC   C3B  744   4.899   3.147   6.864  0.4296  0.1756  0.1698
   21POPC   C4B  745   4.479   3.078   6.655  0.0128 -0.2435  0.0283
   22POPC   NC3  746   9.410   0.627  10.354  0.0120 -0.1796 -0.0304
   22POPC   PO4  747   9.653   0.767  10.103 -0.1165 -0.0228 -0.1743
   22POPC   GL1  748   9.443   0.805   9.774  0.1933 -0.1153 -0.1347
   22POPC   GL2  749   9.485   0.923   9.538 -0.1141 -0.3234 -0.0276
   22POPC   C1A  750   9.081   0.647   9.474 -0.3047  0.1368  0.2410
   22POPC   D2A  751   8.767   0.427   9.489  0.1144 -0.0847  0.1021
   22POPC   C3A  752   8.541   0.231   9.071  0.0273 -0.0653  0.3905
   22POPC   C4A  753   8.456   0.070   8.750  0.1538  0.2223  0.0168
   22POPC   C1B  754   9.703   1.283   9.399 -0.1453  0.2172  0.2632
   22POPC   C2B  755   9.737   1.702   9.201 -0.0264  0.2530  0.0269
   22POPC   C3B  756   9.939   2.003   9.095 -0.1297  0.0683 -0.1099
   22POPC   C4B  757  10.133   2.295   8.834  0.0088 -0.0199  0.3008
   23POPC   NC3  758   2.556   4.396   9.477 -0.0376  0.2915 -0.1449
   23POPC   PO4  759   2.554   4.037   9.121 -0.3546  0.0847 -0.0853
   23POPC   GL1  760   2.480   3.926   8.663 -0.1548 -0.1553 -0.0400
   23POPC   GL2  761   2.202   3.896   8.605  0.1230  0.1187  0.1067
   23POPC   C1A  762   2.536   3.867   8.212 -0.3930 -0.1368 -0.3170
   23POPC   D2A  763   2.645   3.996   7.804 -0.2255 -0.1423 -0.0694
   23POPC   C3A  764   2.463   4.327   7.701  0.1269 -0.0811 -0.0063
   23POPC   C4A  765   2.244   4.562   7.928  0.0761  0.3916  0.2148
   23POPC   C1B  766   2.181   4.228   8.353 -0.0034 -0.2068  0.1983
   23POPC   C2B  767   2.119   4.101   7.997 -0.0226  0.1881 -0.2958
   23POPC   C3B  768   2.042   3.983   7.701  0.3373  0.0346  0.0240
   23POPC   C4B  769   2.150   4.184   7.345 -0.1383 -0.1050 -0.2394
   24POPC   NC3  770   3.815   4.207   8.998  0.1825  0.3896  0.2906
   24POPC   PO4  771   3.543   3.762   8.922  0.0732  0.1830  0.1826
   24POPC   GL1  772   3.432   4.030   8.582  0.5833 -0.2214  0.2891
   24POPC   GL2  773   3.086   3.900   8.413  0.2693 -0.0323 -0.0148
   24POPC   C1A  774   3.460   4.108   8.120 -0.0457  0.3282 -0.3107
   24POPC   D2A  775   3.473   4.465   7.724  0.0447 -0.1626  0.3214
   24POPC   C3A  776   3.571   4.408   7.239 -0.1901 -0.0785 -0.1527
   24POPC   C4A  777   3.670   4.288   6.757  0.2283 -0.2400 -0.0199
   24POPC   C1B  778   3.005   3.824   8.081  0.0128 -0.0735  0.1588
   24POPC   C2B  779   3.181   3.968   7.697 -0.0108 -0.0553  0.3535
   24POPC   C3B  780   3.206   3.955   7.319  0.1033 -0.1557  0.1438
   24POPC   C4B  781   3.083   4.373   7.060  0.3089  0.0509 -0.0137
   25POPC   NC3  782   1.310   0.175   9.740  0.0214 -0.1358 -0.1296
   25POPC   PO4  783   0.994   0.123  10.042  0.0536 -0.2410  0.1799
   25POPC   GL1  784   0.850   0.150   9.617  0.2588 -0.2290  0.0623
   25POPC   GL2  785   0.932   0.316   9.321 -0.0142 -0.1333  0.1614
   25POPC   C1A  786   0.646  -0.138   9.224 -0.2817  0.1636 -0.0551
   25POPC   D2A  787   0.382   0.016   8.930  0.0666  0.1005 -0.1079
   25POPC   C3A  788   0.489   0.216   8.595 -0.0464  0.3455 -0.2655
   25POPC   C4A  789   0.674   0.556   8.386  0.3609  0.3204  0.0582
   25POPC   C1B  790   0.900   0.315   8.859  0.1448  0.1110 -0.1649
   25POPC   C2B  791   1.153   0.145   8.457  0.0029 -0.1881 -0.0178
   25POPC   C3B  792   1.514  -0.004   8.372 -0.4308 -0.0657 -0.0264
   25POPC   C4B  793   1.651   0.001   7.996  0.0390  0.0295 -0.0245
   26POPC   NC3  794   2.661   6.590   8.716  0.1669 -0.0155 -0.0982
   26POPC   PO4  795   2.783   6.998   8.911  0.0507  0.1965 -0.0922
   26POPC   GL1  796   2.884   6.984   8.467  0.0073 -0.5490 -0.0044
   26POPC   GL2  797   2.941   6.652   8.287  0.3186  0.1529  0.0062
   26POPC   C1A  798   2.895   7.178   8.029  0.2938  0.0647  0.0498
   26POPC   D2A  799   2.709   7.261   7.599  0.0913  0.1857 -0.1564
   26POPC   C3A  800   3.077   7.399   7.359  0.1105  0.3157 -0.0424
   26POPC   C4A  801   3.087   7.292   6.959 -0.0800 -0.2290  0.0943
   26POPC   C1B  802   2.761   6.373   8.107  0.1305 -0.1766  0.1686
   26POPC   C2B  803   2.567   6.259   7.778  0.0954 -0.2043  0.3169
   26POPC   C3B  804   2.500   6.082   7.444  0.0043  0.2565  0.1755
   26POPC   C4B  805   2.556   5.646   7.307  0.0264  0.0222  0.1042
   27POPC   NC3  806   3.748   6.152   8.633  0.0308 -0.1547  0.0735
   27POPC   PO4  807   4.126   5.958   8.665 -0.1759 -0.0484 -0.0934
   27POPC   GL1  808   4.142   5.998   8.232  0.0770 -0.0276 -0.3331
   27POPC   GL2  809   4.002   6.223   8.091  0.1668  0.1675  0.1101
   27POPC   C1A  810   4.329   5.705   7.945 -0.0445 -0.0225 -0.0943
   27POPC   D2A  811   4.481   5.686   7.590 -0.0607 -0.2408 -0.3847
   27POPC   C3A  812   4.640   5.671   7.188 -0.4399  0.0802 -0.1981
   27POPC   C4A  813   4.625   5.755   6.753  0.3104 -0.1443 -0.1302
   27POPC   C1B  814   4.318   6.144   7.675 -0.1098 -0.0315 -0.2298
   27POPC   C2B  815   4.355   6.114   7.267  0.0297  0.1012  0.5617
   27POPC   C3B  816   4.165   5.796   7.002  0.0114  0.0556  0.0395
   27POPC   C4B  817   4.311   5.433   6.921  0.1977  0.3976 -0.0181
   28POPC   NC3  818   3.423   1.422   9.055 -0.1417 -0.0017 -0.2279
   28POPC   PO4  819   3.474   1.124   8.822 -0.1862  0.0049 -0.0820
   28POPC   GL1  820   3.253   1.424   8.595 -0.0077 -0.0271  0.4235
   28POPC   GL2  821   3.025   1.213   8.487  0.0579 -0.0794 -0.1509
   28POPC   C1A  822   3.217   1.567   8.162  0.0446 -0.1904  0.0745
   28POPC   D2A  823   3.291   1.793   7.786 -0.0376  0.1870 -0.1642
   28POPC   C3A  824   3.202   1.921   7.391  0.3597 -0.0365 -0.3288
   28POPC   C4A  825   3.276   2.212   7.099  0.0905 -0.2264 -0.1858
   28POPC   C1B  826   2.980   1.113   8.096  0.0394  0.0713 -0.1063
   28POPC   C2B  827   2.896   0.864   7.767  0.1265  0.3965 -0.1615
   28POPC   C3B  828   2.445   0.951   7.489  0.2075  0.0486 -0.0525
   28POPC   C4B  829   2.542   1.307   7.279 -0.4334  0.1008 -0.6655
   29POPC   NC3  830   4.286   0.257   9.045 -0.2959 -0.2871  0.4052
   29POPC   PO4  831   4.751   0.413   8.859 -0.0462 -0.0905 -0.1256
   29POPC   GL1  832   4.693   0.355   8.454 -0.0543 -0.1074  0.1240
   29POPC   GL2  833   4.621  -0.070   8.224  0.0361 -0.1629  0.0317
   29POPC   C1A  834   4.718   0.339   7.979 -0.0195  0.1454 -0.1933
   29POPC   D2A  835   4.631   0.328   7.633 -0.0292 -0.1310  0.3052
   29POPC   C3A  836   4.779   0.425   7.227 -0.0925  0.1886  0.0699
   29POPC   C4A  837   4.694   0.391   6.801 -0.2416 -0.0651 -0.3009
   29POPC   C1B  838   4.586  -0.251   7.794 -0.3428  0.2304 -0.2018
   29POPC   C2B  839   4.766  -0.117   7.478 -0.2083 -0.1670 -0.1160
   29POPC   C3B  840   4.897  -0.014   7.210 -0.0396  0.2301 -0.0568
   29POPC   C4B  841   5.092   0.112   6.940 -0.0520  0.2273 -0.1059
   30POPC   NC3  842   1.425   1.318  10.219  0.0951  0.2060 -0.1483
   30POPC   PO4  843   1.243   1.098   9.925  0.1067  0.0215 -0.1955
   30POPC   GL1  844   0.925   1.121   9.610  0.2239 -0.2481 -0.1187
   30POPC   GL2  845   0.607   1.262   9.716  0.1943  0.0899  0.1394
   30POPC   C1A  846   0.679   0.805   9.333 -0.1350  0.1137  0.2879
   30POPC   D2A  847   0.426   0.533   9.136 -0.1663  0.2646 -0.0460
   30POPC   C3A  848   0.320   0.170   9.476 -0.0865 -0.0770  0.0565
   30POPC   C4A  849  -0.102   0.008   9.530  0.0683 -0.0006 -0.1341
   30POPC   C1B  850   0.519   1.508   9.365 -0.0357  0.0987  0.2194
   30POPC   C2B  851   0.413   1.731   9.070 -0.1485  0.0614  0.0111
   30POPC   C3B  852   0.343   1.829   8.636 -0.2389 -0.1919  0.0024
   30POPC   C4B  853   0.478   1.959   8.255 -0.0314 -0.2826 -0.1719
   31POPC   NC3  854   7.037   4.040   8.826  0.0544  0.1588  0.0482
   31POPC   PO4  855   6.719   3.858   8.662 -0.2551 -0.1440  0.3862
   31POPC   GL1  856   7.076   3.914   8.345 -0.1857 -0.2477  0.2024
   31POPC   GL2  857   7.220   4.163   8.300  0.0011  0.1943  0.3055
   31POPC   C1A  858   7.188   3.786   7.941 -0.1727 -0.1371  0.0942
   31POPC   D2A  859   7.199   3.890   7.411 -0.1593  0.2966  0.1822
   31POPC   C3A  860   6.923   4.228   7.099  0.0566 -0.0443  0.0862
   31POPC   C4A  861   6.801   4.558   6.750  0.3265 -0.1964 -0.2683
   31POPC   C1B  862   7.382   4.325   7.973 -0.2215  0.5669 -0.2093
   31POPC   C2B  863   7.408   4.386   7.528  0.4303  0.4748 -0.0401
   31POPC   C3B  864   7.693   4.341   7.197  0.0577 -0.2716 -0.0765
   31POPC   C4B  865   7.620   4.021   7.003  0.0063  0.0053 -0.1483
   32POPC   NC3  866  10.079   6.571   8.979  0.1186  0.1563  0.2252
   32POPC   PO4  867   9.829   6.982   9.087 -0.0202  0.0085  0.0742
   32POPC   GL1  868   9.910   6.906   8.615  0.0737  0.0568 -0.0980
   32POPC   GL2  869   9.638   7.038   8.522 -0.1057  0.3292 -0.1210
   32POPC   C1A  870  10.044   6.602   8.244  0.0985  0.3778  0.0851
   32POPC   D2A  871   9.884   6.367   7.964 -0.0513  0.2427 -0.1809
   32POPC   C3A  872  10.001   6.077   7.725 -0.1877 -0.1535  0.0034
   32POPC   C4A  873   9.806   5.663   7.726 -0.3703  0.1125 -0.0638
   32POPC   C1B  874   9.740   6.893   8.079 -0.4295 -0.1116  0.1105
   32POPC   C2B  875   9.965   6.748   7.696  0.0388  0.0773 -0.0580
   32POPC   C3B  876  10.152   6.912   7.451 -0.2533 -0.1990  0.0459
   32POPC   C4B  877  10.417   6.727   7.273  0.4579  0.0558 -0.1830
   33POPC   NC3  878   1.557   7.579   9.195 -0.2802  0.0780  0.0130
   33POPC   PO4  879   1.093   7.624   9.168  0.2910  0.0226  0.1831
   33POPC   GL1  880   1.086   7.776   8.821  0.0450 -0.0018  0.0157
   33POPC   GL2  881   1.369   7.656   8.648 -0.0073  0.1892 -0.4822
   33POPC   C1A  882   0.937   7.887   8.412  0.0444 -0.0349 -0.0251
   33POPC   D2A  883   0.937   7.598   7.960 -0.3376  0.0294 -0.0566
   33POPC   C3A  884   0.621   7.264   8.138 -0.0233 -0.0927 -0.1075
   33POPC   C4A  885   0.368   7.096   8.406  0.0561 -0.0924 -0.1965
   33POPC   C1B  886   1.405   8.098   8.451  0.1176  0.1659 -0.0127
   33POPC   C2B  887   1.132   8.237   8.101 -0.1851 -0.0553  0.0115
   33POPC   C3B  888   1.047   8.249   7.620 -0.2500 -0.2427  0.0869
   33POPC   C4B  889   0.902   7.975   7.261  0.0922  0.2120  0.3294
   34POPC   NC3  890   6.173   3.622   8.256  0.1737 -0.0176 -0.0199
   34POPC   PO4  891   5.752   3.428   8.346  0.0795  0.0235 -0.0792
   34POPC   GL1  892   6.017   3.189   7.957 -0.1557 -0.0955 -0.0179
   34POPC   GL2  893   6.198   3.434   7.795  0.2126 -0.1104  0.1234
   34POPC   C1A  894   6.418   2.978   7.727  0.0824  0.1297  0.3914
   34POPC   D2A  895   6.634   2.766   7.475  0.0723  0.0453 -0.1948
   34POPC   C3A  896   6.277   2.452   7.318 -0.1465 -0.1867 -0.2166
   34POPC   C4A  897   5.841   2.363   7.375  0.0630  0.2869  0.0144
   34POPC   C1B  898   6.331   3.763   7.644  0.2662 -0.3890  0.3176
   34POPC   C2B  899   6.388   4.020   7.362 -0.0477 -0.1809  0.0347
   34POPC   C3B  900   6.259   4.080   6.956 -0.0589  0.3175 -0.0432
   34POPC   C4B  901   6.057   3.886   6.566  0.1054  0.2415 -0.0428
   35POPC   NC3  902   0.024   6.532   9.313 -0.0794  0.0838  0.4177
   35POPC   PO4  903  -0.002   6.265   8.868  0.0718 -0.1185 -0.0388
   35POPC   GL1  904   0.000   5.956   8.597 -0.1119  0.0221  0.1097
   35POPC   GL2  905  -0.160   5.715   8.571 -0.2222 -0.0797 -0.3316
   35POPC   C1A  906  -0.033   6.013   8.144 -0.1041 -0.0298 -0.0662
   35POPC   D2A  907  -0.023   5.653   7.846 -0.2752 -0.1490 -0.0310
   35POPC   C3A  908  -0.223   5.170   7.861 -0.0810 -0.2012 -0.1760
   35POPC   C4A  909  -0.361   4.876   7.930  0.0211  0.1410 -0.0246
   35POPC   C1B  910   0.104   5.400   8.294 -0.0550 -0.2428 -0.2023
   35POPC   C2B  911   0.269   5.125   7.954  0.2022 -0.3521  0.0724
   35POPC   C3B  912   0.469   5.388   7.543 -0.0080 -0.3938  0.0021
   35POPC   C4B  913   0.215   5.710   7.173  0.0260  0.2004 -0.3512
   36POPC   NC3  914   6.227   1.050   9.027  0.4204 -0.1067 -0.1362
   36POPC   PO4  915   6.428   0.736   8.674  0.1656  0.0336 -0.0344
   36POPC   GL1  916   6.579   0.727   8.277  0.2991 -0.0928  0.2365
   36POPC   GL2  917   6.847   0.834   8.085  0.0859  0.1382 -0.0993
   36POPC   C1A  918   6.366   0.771   7.815 -0.0717 -0.2545 -0.0986
   36POPC   D2A  919   6.171   0.544   7.545  0.1505  0.1513  0.3603
   36POPC   C3A  920   6.314   0.302   7.119 -0.1741 -0.2033 -0.2076
   36POPC   C4A  921   6.066  -0.009   6.827 -0.1744 -0.1586 -0.3459
   36POPC   C1B  922   6.994   0.620   7.662 -0.1074  0.0712  0.0924
   36POPC   C2B  923   7.137   0.606   7.255 -0.0474 -0.0395  0.0505
   36POPC   C3B  924   7.517   0.395   7.000  0.0592  0.1108  0.0939
   36POPC   C4B  925   7.615   0.328   6.510 -0.0483 -0.0109 -0.1509
   37POPC   NC3  926   2.498   5.726   8.868 -0.3925 -0.0534  0.0344
   37POPC   PO4  927   2.891   5.804   8.989 -0.2056 -0.2606  0.0173
   37POPC   GL1  928   2.933   5.732   8.484 -0.1147 -0.0851  0.0108
   37POPC   GL2  929   3.160   5.670   8.298 -0.3658  0.0404  0.2693
   37POPC   C1A  930   2.721   5.813   8.082 -0.1039 -0.0273  0.1397
   37POPC   D2A  931   2.852   5.726   7.734  0.3968 -0.0935  0.2709
   37POPC   C3A  932   2.980   5.415   7.440 -0.2160  0.0947 -0.3413
   37POPC   C4A  933   3.392   5.146   7.239 -0.2390 -0.0902  0.3430
   37POPC   C1B  934   3.172   6.014   7.964 -0.2527  0.0664  0.0711
   37POPC   C2B  935   3.067   6.326   7.692 -0.0945  0.1313  0.4908
   37POPC   C3B  936   2.794   6.515   7.409  0.1600  0.4190  0.1762
   37POPC   C4B  937   2.602   6.500   7.050 -0.2269  0.0165  0.0660
   38POPC   NC3  938  10.039   4.308   9.753  0.0051  0.1250 -0.0718
   38POPC   PO4  939  10.035   4.007   9.519 -0.1067  0.0065  0.0810
   38POPC   GL1  940  10.040   3.476   9.382 -0.1054  0.1685 -0.2952
   38POPC   GL2  941   9.967   3.214   9.623 -0.3955  0.1375  0.1061
   38POPC   C1A  942   9.914   3.242   9.068  0.1486  0.3092  0.1657
   38POPC   D2A  943   9.812   2.937   8.780  0.1030 -0.0649 -0.1452
   38POPC   C3A  944   9.541   3.043   8.485 -0.2656 -0.1304 -0.3864
   38POPC   C4A  945   9.348   2.808   8.253 -0.0259 -0.0656 -0.0179
   38POPC   C1B  946  10.193   2.945   9.366 -0.2252  0.1264 -0.1974
   38POPC   C2B  947  10.285   2.796   8.989 -0.1761 -0.1269 -0.1317
   38POPC   C3B  948  10.230   2.718   8.587 -0.0830 -0.0624 -0.0007
   38POPC   C4B  949  10.224   2.447   8.299 -0.2266  0.1869 -0.3869
   39POPC   NC3  950   0.841   7.523   9.713 -0.0325 -0.1048 -0.0265
   39POPC   PO4  951   0.606   7.731   9.320  0.2466  0.0544 -0.1078
   39POPC   GL1  952   0.537   7.683   8.879  0.3106  0.1316 -0.0515
   39POPC   GL2  953   0.630   7.491   8.629 -0.0313  0.1314 -0.1197
   39POPC   C1A  954   0.177   7.827   8.532 -0.1105  0.1018 -0.0380
   39POPC   D2A  955   0.160   8.084   8.166 -0.0111  0.4956  0.1795
   39POPC   C3A  956  -0.010   8.380   7.818  0.1636  0.0248 -0.0359
   39POPC   C4A  957   0.059   8.524   7.436  0.0296 -0.2535 -0.1757
   39POPC   C1B  958   0.508   7.732   8.175 -0.0761 -0.6126 -0.0672
   39POPC   C2B  959   0.299   7.623   7.800  0.0921 -0.0688 -0.0692
   39POPC   C3B  960   0.143   7.686   7.426  0.1559 -0.2197 -0.0088
   39POPC   C4B  961   0.015   7.315   7.305  0.2991 -0.3604  0.1360
   40POPC   NC3  962   1.701   5.061   8.746 -0.0475 -0.0982  0.0435
   40POPC   PO4  963   1.348   4.804   8.770  0.0049  0.1208 -0.1311
   40POPC   GL1  964   1.354   4.834   8.390  0.0614  0.0295 -0.1692
   40POPC   GL2  965   1.472   5.216   8.228 -0.3288  0.0815  0.0081
   40POPC   C1A  966   1.310   4.836   7.892  0.1980 -0.0022 -0.1917
   40POPC   D2A  967   1.241   5.007   7.458  0.0991 -0.1878 -0.0432
   40POPC   C3A  968   1.046   5.376   7.337 -0.4598 -0.1674 -0.1737
   40POPC   C4A  969   1.062   5.850   7.251  0.1136 -0.1283  0.0319
   40POPC   C1B  970   1.127   5.406   7.892 -0.1718  0.2392 -0.0771
   40POPC   C2B  971   0.898   5.697   7.730 -0.0109  0.1915  0.1266
   40POPC   C3B  972   0.851   6.099   7.715  0.0537 -0.3028  0.0046
   40POPC   C4B  973   0.995   6.508   7.681  0.0577 -0.0955 -0.2413
   41POPC   NC3  974   0.003   5.775   9.030  0.3600 -0.2713 -0.2800
   41POPC   PO4  975   0.276   5.579   9.214 -0.0746  0.1547 -0.2115
   41POPC   GL1  976   0.361   5.363   8.846  0.1051 -0.1763 -0.1603
   41POPC   GL2  977   0.695   5.507   8.743  0.0738  0.2566 -0.2287
   41POPC   C1A  978   0.397   5.099   8.545  0.0987  0.2064 -0.2592
   41POPC   D2A  979   0.068   4.859   8.390  0.1155  0.0385  0.1214
   41POPC   C3A  980   0.059   4.651   8.052  0.1327 -0.2953  0.0820
   41POPC   C4A  981   0.042   4.763   7.630  0.0139  0.4331  0.0546
   41POPC   C1B  982   0.557   5.563   8.387 -0.0368 -0.1390 -0.0626
   41POPC   C2B  983   0.436   5.791   8.003  0.0756  0.2048 -0.0954
   41POPC   C3B  984   0.410   5.943   7.612 -0.4122 -0.0663  0.3483
   41POPC   C4B  985  -0.012   6.051   7.465 -0.0160 -0.1869 -0.0182
   42POPC   NC3  986   6.025   3.520   8.784 -0.0836  0.2026 -0.1594
   42POPC   PO4  987   6.464   3.397   8.582  0.1598 -0.1753  0.5366
   42POPC   GL1  988   6.535   3.264   8.168  0.2506  0.1021 -0.0648
   42POPC   GL2  989   6.579   2.880   8.228  0.1212 -0.0142  0.0474
   42POPC   C1A  990   6.877   3.359   7.812 -0.0440  0.1739 -0.1085
   42POPC   D2A  991   7.258   3.383   7.556  0.3005  0.0788  0.0482
   42POPC   C3A  992   6.966   3.165   7.182 -0.1314 -0.0654 -0.0305
   42POPC   C4A  993   7.211   2.819   7.009 -0.0511 -0.0784 -0.2333
   42POPC   C1B  994   6.567   2.538   7.894 -0.0470 -0.0866 -0.0569
   42POPC   C2B  995   6.582   2.233   7.648 -0.0769 -0.1070  0.1925
   42POPC   C3B  996   6.700   2.109   7.256 -0.2349 -0.0797  0.1758
   42POPC   C4B  997   6.887   2.062   6.871 -0.0660  0.3184 -0.0861
   43POPC   NC3  998   1.148   5.506   9.009 -0.3610 -0.1125  0.0170
   43POPC   PO4  999   1.159   5.268   8.653  0.0110  0.1445 -0.1600
   43POPC   GL1 1000   1.112   5.620   8.355 -0.0253  0.0978  0.1227
   43POPC   GL2 1001   1.239   5.946   8.541  0.2559  0.0855  0.1343
   43POPC   C1A 1002   1.412   5.765   8.042 -0.0976 -0.2868  0.0961
   43POPC   D2A 1003   1.815   5.921   7.738 -0.0747 -0.3224 -0.2394
   43POPC   C3A 1004   1.970   5.909   7.374 -0.1417  0.0378 -0.0589
   43POPC   C4A 1005   2.097   5.737   7.018 -0.0235 -0.1741  0.0012
   43POPC   C1B 1006   0.878   6.039   8.230 -0.1917 -0.1460 -0.1986
   43POPC   C2B 1007   0.604   6.345   8.099 -0.1045 -0.1626  0.0603
   43POPC   C3B 1008   0.424   6.728   8.084 -0.2341 -0.1052  0.3484
   43POPC   C4B 1009   0.256   7.025   7.742 -0.1072 -0.0515 -0.2289
   44POPC   NC3 1010   2.744  10.098   8.445 -0.1015  0.1392  0.0824
   44POPC   PO4 1011   2.878  10.419   8.757 -0.0903  0.1768 -0.0908
   44POPC   GL1 1012   2.985  10.518   8.262 -0.0788 -0.3124  0.4435
   44POPC   GL2 1013   2.869  10.894   8.163 -0.0794  0.2418  0.0885
   44POPC   C1A 1014   2.886  10.356   7.792  0.2418  0.0234 -0.2076
   44POPC   D2A 1015   2.968  10.219   7.313  0.0482  0.0735 -0.2417
   44POPC   C3A 1016   3.116  10.568   7.044  0.2222  0.3550  0.1464
   44POPC   C4A 1017   3.484  10.796   6.948  0.3384  0.2603  0.1521
   44POPC   C1B 1018   2.712  10.797   7.812 -0.1842 -0.1184 -0.2124
   44POPC   C2B 1019   2.245  10.906   7.657 -0.2041 -0.1981 -0.0425
   44POPC   C3B 1020   1.909  10.696   7.601  0.1671  0.0683  0.2597
   44POPC   C4B 1021   1.586  10.455   7.495 -0.1744  0.2193  0.2413
   45POPC   NC3 1022   2.094   4.080   9.134  0.2105 -0.0804 -0.0184
   45POPC   PO4 1023   2.133   4.499   9.251 -0.0749  0.1061  0.1991
   45POPC   GL1 1024   2.373   4.394   8.873  0.1472  0.0124  0.2493
   45POPC   GL2 1025   2.382   4.675   8.680  0.4242 -0.1570  0.1019
   45POPC   C1A 1026   2.673   4.329   8.492  0.2328  0.0473 -0.0800
   45POPC   D2A 1027   2.779   4.340   8.125  0.0820  0.1149  0.0533
   45POPC   C3A 1028   3.135   4.638   8.036 -0.0361 -0.0374 -0.1970
   45POPC   C4A 1029   3.371   4.856   8.247  0.1163 -0.1048  0.0676
   45POPC   C1B 1030   2.240   4.869   8.328 -0.1440  0.0018  0.0387
   45POPC   C2B 1031   2.210   5.018   7.869 -0.0475 -0.0258 -0.2593
   45POPC   C3B 1032   2.249   4.784   7.428 -0.2135  0.1059  0.1636
   45POPC   C4B 1033   2.529   4.605   7.197 -0.0048 -0.3219  0.2446
   46POPC   NC3 1034   1.091   9.776   9.697  0.1311  0.2159  0.2740
   46POPC   PO4 1035   0.693   9.505   9.458  0.1174  0.0057 -0.0735
   46POPC   GL1 1036   0.805   9.372   9.016 -0.2162 -0.1113 -0.0299
   46POPC   GL2 1037   0.554   9.193   9.056 -0.0627 -0.0478  0.1894
   46POPC   C1A 1038   0.765   9.337   8.553 -0.0025  0.0711 -0.0012
   46POPC   D2A 1039   0.702   9.749   8.197  0.1696 -0.0817 -0.0257
   46POPC   C3A 1040   0.564  10.169   8.317  0.1977 -0.2364 -0.1188
   46POPC   C4A 1041   0.750  10.553   8.144  0.0222 -0.0807 -0.0248
   46POPC   C1B 1042   0.328   9.248   8.679  0.2177  0.2187  0.2234
   46POPC   C2B 1043   0.178   9.062   8.335  0.1898  0.3354  0.0278
   46POPC   C3B 1044  -0.103   9.122   8.125 -0.0988  0.1999 -0.1041
   46POPC   C4B 1045  -0.568   8.998   8.284 -0.2172  0.0401  0.0569
   47POPC   NC3 1046   9.485   1.180  10.258 -0.0597  0.0941 -0.2078
   47POPC   PO4 1047   9.381   1.629  10.357 -0.2138 -0.0702 -0.1289
   47POPC   GL1 1048   9.619   1.645  10.007  0.2236  0.2922  0.1571
   47POPC   GL2 1049   9.561   1.380   9.851 -0.0989  0.1542 -0.3039
   47POPC   C1A 1050   9.817   1.825   9.702 -0.3129  0.2122 -0.1574
   47POPC   D2A 1051  10.265   2.019   9.532 -0.0191  0.1165 -0.0156
   47POPC   C3A 1052  10.600   1.813   9.513 -0.0843 -0.3392 -0.2172
   47POPC   C4A 1053  10.615   1.426   9.752  0.2101  0.0485  0.4508
   47POPC   C1B 1054   9.352   1.641   9.592 -0.0201 -0.2149  0.0328
   47POPC   C2B 1055   9.259   1.917   9.371  0.2718 -0.0964 -0.1825
   47POPC   C3B 1056   9.131   1.861   8.892 -0.2622 -0.3841  0.0255
   47POPC   C4B 1057   9.191   1.572   8.615 -0.0359 -0.1675 -0.1806
   48POPC   NC3 1058   1.994   0.178   9.130  0.0838 -0.0746  0.0073
   48POPC   PO4 1059   2.195   0.511   9.045 -0.3379  0.0052  0.0007
   48POPC   GL1 1060   2.077   0.584   8.647  0.3132 -0.1864  0.1718
   48POPC   GL2 1061   1.884   0.247   8.620  0.1304 -0.0356  0.1264
   48POPC   C1A 1062   1.977   0.830   8.321  0.1884  0.0163 -0.1240
   48POPC   D2A 1063   1.588   1.106   8.202 -0.0273 -0.3915  0.0684
   48POPC   C3A 1064   1.164   1.133   8.219 -0.2800 -0.1602 -0.0233
   48POPC   C4A 1065   0.894   1.111   8.472  0.0062  0.0139 -0.1683
   48POPC   C1B 1066   2.049   0.305   8.171  0.1993 -0.2232  0.2165
   48POPC   C2B 1067   2.407   0.605   8.084  0.1724  0.2457 -0.1696
   48POPC   C3B 1068   2.491   1.038   7.987 -0.1891  0.0881  0.0811
   48POPC   C4B 1069   2.290   1.405   7.714  0.0479  0.4523 -0.0167
   49POPC   NC3 1070   3.908   4.986   8.685  0.1996 -0.2005  0.0094
   49POPC   PO4 1071   3.658   4.593   8.768  0.2022  0.3068 -0.2231
   49POPC   GL1 1072   3.768   4.398   8.391  0.0119  0.0052 -0.3188
   49POPC   GL2 1073   4.201   4.554   8.313  0.0525 -0.1450 -0.0377
   49POPC   C1A 1074   3.859   4.388   8.014  0.2029 -0.1058 -0.3519
   49POPC   D2A 1075   4.137   4.347   7.638 -0.1318  0.2280 -0.1918
   49POPC   C3A 1076   4.104   4.322   7.158 -0.1204  0.0692 -0.1332
   49POPC   C4A 1077   4.081   4.116   6.735 -0.0218 -0.0452 -0.3491
   49POPC   C1B 1078   4.209   4.793   7.873 -0.0204 -0.2458 -0.0115
   49POPC   C2B 1079   4.349   4.763   7.475 -0.3140  0.1217 -0.2124
   49POPC   C3B 1080   4.306   4.904   7.069  0.1900  0.0095  0.0156
   49POPC   C4B 1081   4.548   5.041   6.707 -0.0567 -0.1672 -0.2931
   50POPC   NC3 1082   7.482   4.922   9.263  0.2659  0.0623  0.0172
   50POPC   PO4 1083   7.055   5.009   9.096 -0.1013  0.0847  0.1217
   50POPC   GL1 1084   7.240   5.089   8.681  0.1473 -0.2679  0.0083
   50POPC   GL2 1085   7.368   5.330   8.516  0.0400  0.1137 -0.2504
   50POPC   C1A 1086   7.071   5.136   8.179 -0.0208  0.0190  0.2803
   50POPC   D2A 1087   7.300   5.210   7.723  0.2744  0.0426 -0.0925
   50POPC   C3A 1088   7.072   5.386   7.440  0.1866 -0.3826  0.0520
   50POPC   C4A 1089   6.838   5.239   7.190  0.1479 -0.1279  0.1055
   50POPC   C1B 1090   7.527   5.380   8.102  0.0061 -0.2292 -0.0472
   50POPC   C2B 1091   7.643   5.559   7.660 -0.0757  0.0967 -0.0716
   50POPC   C3B 1092   7.492   5.690   7.319 -0.1749 -0.1477  0.1920
   50POPC   C4B 1093   7.300   5.903   6.880 -0.3960 -0.3247  0.1060
   51POPC   NC3 1094   3.919   3.361   8.937  0.0013 -0.0989 -0.1558
   51POPC   PO4 1095   4.092   3.419   8.577  0.2728 -0.3272  0.1693
   51POPC   GL1 1096   3.752   3.382   8.317 -0.1742 -0.0155 -0.3126
   51POPC   GL2 1097   3.370   3.455   8.409 -0.2326  0.3858 -0.2453
   51POPC   C1A 1098   3.720   3.145   7.974  0.2030 -0.0917 -0.5405
   51POPC   D2A 1099   3.663   3.111   7.515  0.1701  0.0542  0.1117
   51POPC   C3A 1100   3.555   2.735   7.300  0.1096 -0.0364 -0.2327
   51POPC   C4A 1101   3.725   2.358   7.132 -0.2938 -0.0962 -0.3256
   51POPC   C1B 1102   3.443   3.546   7.966  0.2468 -0.1842  0.0800
   51POPC   C2B 1103   3.477   3.588   7.501  0.1307 -0.2821  0.0067
   51POPC   C3B 1104   3.478   3.341   7.106 -0.0385  0.1874 -0.0520
   51POPC   C4B 1105   3.306   3.024   6.776  0.0606 -0.0483 -0.0042
   52POPC   NC3 1106   9.746   9.674  10.349 -0.0815 -0.2111 -0.2163
   52POPC   PO4 1107   9.604   9.496   9.979 -0.2349 -0.2513  0.1419
   52POPC   GL1 1108   9.664   9.769   9.589  0.2533  0.0514  0.0992
   52POPC   GL2 1109   9.960   9.589   9.516 -0.1339  0.1463 -0.1389
   52POPC   C1A 1110   9.684   9.805   9.105  0.1504 -0.0412  0.4724
   52POPC   D2A 1111  10.073   9.780   8.702 -0.2509 -0.1601 -0.2874
   52POPC   C3A 1112  10.489   9.883   8.726  0.1595 -0.4544  0.1836
   52POPC   C4A 1113  10.818   9.723   8.547  0.0835 -0.2161  0.5130
   52POPC   C1B 1114   9.880   9.377   9.117  0.0213  0.0206 -0.0261
   52POPC   C2B 1115   9.842   9.374   8.746 -0.0431  0.1388 -0.1637
   52POPC   C3B 1116   9.821   9.501   8.278  0.1904 -0.1516 -0.1165
   52POPC   C4B 1117  10.077   9.569   7.917 -0.0020 -0.0717 -0.0865
   53POPC   NC3 1118   9.508   5.170   9.394 -0.2229  0.1308  0.1516
   53POPC   PO4 1119   9.236   5.430   9.234  0.1326  0.1319  0.5412
   53POPC   GL1 1120   9.071   5.039   9.018  0.1235  0.3587  0.0741
   53POPC   GL2 1121   8.797   4.893   9.082 -0.1135  0.0423 -0.2541
   53POPC   C1A 1122   9.109   4.641   8.733  0.1137 -0.3406  0.1350
   53POPC   D2A 1123   9.082   4.524   8.236 -0.0286  0.0828 -0.1604
   53POPC   C3A 1124   8.983   4.101   8.049  0.0758 -0.3663  0.0840
   53POPC   C4A 1125   9.098   3.914   7.629 -0.0432 -0.0391  0.2709
   53POPC   C1B 1126   8.784   5.062   8.614 -0.1467 -0.2562 -0.1894
   53POPC   C2B 1127   8.896   5.190   8.336 -0.2385 -0.1899 -0.1785
   53POPC   C3B 1128   9.046   5.367   8.162 -0.0098 -0.1958  0.3362
   53POPC   C4B 1129   9.057   5.735   8.159 -0.0443 -0.1432  0.2313
   54POPC   NC3 1130  10.367   5.247   9.126 -0.0162 -0.2939  0.1040
   54POPC   PO4 1131  10.011   5.573   9.060 -0.2381 -0.3614  0.1258
   54POPC   GL1 1132   9.799   5.600   8.730  0.1560 -0.2043 -0.3621
   54POPC   GL2 1133   9.574   5.331   8.826 -0.1799  0.3128  0.2833
   54POPC   C1A 1134   9.525   5.568   8.324 -0.0451 -0.0702 -0.0323
   54POPC   D2A 1135   9.511   5.357   7.994  0.1705  0.0107  0.1742
   54POPC   C3A 1136   9.771   5.175   7.735 -0.1997  0.1142 -0.0266
   54POPC   C4A 1137  10.006   4.951   7.373 -0.3418 -0.0966 -0.0145
   54POPC   C1B 1138   9.364   5.057   8.550 -0.2047 -0.6252  0.1478
   54POPC   C2B 1139   9.376   4.910   8.188  0.0625  0.2523 -0.2590
   54POPC   C3B 1140   9.140   4.902   7.818  0.0641 -0.2064 -0.1000
   54POPC   C4B 1141   8.791   5.158   7.803  0.1514  0.0935  0.0792
   55POPC   NC3 1142   1.293   4.470   9.168 -0.1804 -0.0770 -0.1006
   55POPC   PO4 1143   1.661   4.722   9.145 -0.0223  0.2855  0.1356
   55POPC   GL1 1144   1.858   4.574   8.863  0.4061 -0.0928  0.0599
   55POPC   GL2 1145   1.664   4.274   8.853  0.2788 -0.1749  0.2093
   55POPC   C1A 1146   1.824   4.490   8.466 -0.3363 -0.1085  0.0625
   55POPC   D2A 1147   1.767   4.734   8.049  0.1413 -0.1025  0.1644
   55POPC   C3A 1148   1.761   4.549   7.649  0.3794 -0.1599 -0.0786
   55POPC   C4A 1149   1.467   4.534   7.406 -0.5410 -0.0660 -0.0167
   55POPC   C1B 1150   1.648   4.023   8.372  0.0363 -0.0053 -0.1058
   55POPC   C2B 1151   1.612   4.188   7.922  0.2516  0.0238 -0.0650
   55POPC   C3B 1152   1.604   4.009   7.549 -0.0588  0.1332  0.2962
   55POPC   C4B 1153   1.596   4.158   7.057  0.0814 -0.0560  0.1464
   56POPC   NC3 1154   7.668   9.211   8.967 -0.1229 -0.2498  0.2210
   56POPC   PO4 1155   7.477   8.803   8.952 -0.0602 -0.1018  0.2735
   56POPC   GL1 1156   7.396   8.905   8.627 -0.1592  0.1169  0.0903
   56POPC   GL2 1157   7.390   9.238   8.556  0.2108  0.0157 -0.2606
   56POPC   C1A 1158   7.359   8.828   8.111  0.4783 -0.0635 -0.0552
   56POPC   D2A 1159   7.208   8.581   7.907  0.1400 -0.0299 -0.0572
   56POPC   C3A 1160   7.050   8.740   7.534  0.0880 -0.3186  0.0848
   56POPC   C4A 1161   6.883   9.089   7.226 -0.1684  0.1370 -0.1532
   56POPC   C1B 1162   7.594   9.318   8.060  0.0085  0.1878  0.1805
   56POPC   C2B 1163   7.738   9.289   7.611  0.0822 -0.0185  0.1488
   56POPC   C3B 1164   7.867   9.227   7.278  0.0492  0.0104  0.2007
   56POPC   C4B 1165   8.303   9.223   7.066  0.1206  0.1635 -0.4192
   57POPC   NC3 1166   3.055  10.052   9.059  0.3026 -0.0476  0.2347
   57POPC   PO4 1167   3.224   9.987   8.551  0.1671  0.0628  0.1568
   57POPC   GL1 1168   3.254  10.114   8.105 -0.1028 -0.3590 -0.2981
   57POPC   GL2 1169   3.410  10.428   7.899 -0.0294 -0.0593  0.2790
   57POPC   C1A 1170   3.348  10.044   7.596  0.2396 -0.2035  0.2159
   57POPC   D2A 1171   3.493   9.989   7.145 -0.1088  0.0576  0.2156
   57POPC   C3A 1172   3.275  10.115   6.798  0.2870 -0.0479 -0.0488
   57POPC   C4A 1173   3.422  10.401   6.647 -0.2225 -0.0248  0.4691
   57POPC   C1B 1174   3.173  10.716   7.601  0.3144  0.2264 -0.2278
   57POPC   C2B 1175   3.137  10.997   7.441  0.4525 -0.1920  0.0717
   57POPC   C3B 1176   3.068  11.034   6.925 -0.1448  0.5305  0.1018
   57POPC   C4B 1177   3.032  11.462   6.752  0.0077 -0.1705  0.1973
   58POPC   NC3 1178   5.445   2.291   8.772  0.0990 -0.0723  0.0649
   58POPC   PO4 1179   5.743   2.629   8.592 -0.0886  0.0489  0.1247
   58POPC   GL1 1180   5.944   2.543   8.164  0.0434  0.0037  0.2758
   58POPC   GL2 1181   6.141   2.610   8.176  0.2915 -0.0456  0.0689
   58POPC   C1A 1182   6.099   2.278   7.797 -0.0940  0.1380  0.3341
   58POPC   D2A 1183   6.115   1.895   7.619  0.1626 -0.1125 -0.0233
   58POPC   C3A 1184   6.161   1.950   7.229 -0.1106 -0.0786 -0.1783
   58POPC   C4A 1185   6.265   1.764   6.860  0.2237  0.1305  0.2682
   58POPC   C1B 1186   5.994   2.754   7.696  0.0426 -0.0642  0.0639
   58POPC   C2B 1187   6.095   3.074   7.328 -0.1328 -0.1051 -0.1209
   58POPC   C3B 1188   6.523   3.284   7.294  0.2631  0.0630  0.1981
   58POPC   C4B 1189   6.760   3.617   7.445 -0.2489  0.0441 -0.0618
   59POPC   NC3 1190   6.189   1.920   8.940 -0.0476  0.3815  0.2049
   59POPC   PO4 1191   6.082   1.517   8.698  0.0929  0.2841  0.4158
   59POPC   GL1 1192   6.119   1.701   8.209  0.0523 -0.1765 -0.2610
   59POPC   GL2 1193   6.328   1.694   8.016 -0.1946  0.1154  0.0719
   59POPC   C1A 1194   6.019   1.430   7.792 -0.0812 -0.1003 -0.1460
   59POPC   D2A 1195   5.794   1.497   7.521 -0.0848  0.1941  0.2031
   59POPC   C3A 1196   5.983   1.475   7.142  0.1251  0.0196 -0.0070
   59POPC   C4A 1197   5.911   1.108   6.786  0.1836  0.1904  0.1837
   59POPC   C1B 1198   6.510   1.257   8.004 -0.1158  0.4397  0.2588
   59POPC   C2B 1199   6.742   1.098   7.714 -0.0161 -0.0062  0.1643
   59POPC   C3B 1200   6.926   1.200   7.275 -0.2328 -0.1613  0.2123
   59POPC   C4B 1201   7.231   1.051   6.964 -0.3585 -0.0974 -0.2637
   60POPC   NC3 1202   5.481   8.323   8.673  0.1639 -0.0554  0.1093
   60POPC   PO4 1203   5.099   7.921   8.689 -0.1352  0.0764 -0.0704
   60POPC   GL1 1204   5.189   7.866   8.271  0.1845  0.0051  0.3773
   60POPC   GL2 1205   5.462   7.927   8.267  0.3371 -0.0459 -0.1291
   60POPC   C1A 1206   5.385   7.519   8.028  0.1841  0.0445  0.0311
   60POPC   D2A 1207   5.704   7.530   7.755 -0.3327 -0.0212 -0.0365
   60POPC   C3A 1208   5.617   7.851   7.459  0.3271 -0.1845 -0.1739
   60POPC   C4A 1209   5.841   8.157   7.207 -0.0688  0.0282 -0.2318
   60POPC   C1B 1210   5.613   8.012   7.945 -0.0459 -0.2844  0.2157
   60POPC   C2B 1211   5.713   8.326   7.660  0.1497  0.1996 -0.0158
   60POPC   C3B 1212   6.005   8.558   7.451 -0.2013 -0.2643  0.2165
   60POPC   C4B 1213   5.959   8.994   7.368  0.1371 -0.2359  0.0936
   61POPC   NC3 1214   7.371   2.482   9.923  0.3337 -0.3337 -0.0579
   61POPC   PO4 1215   7.399   2.486   9.408  0.0738 -0.2509 -0.0529
   61POPC   GL1 1216   7.402   2.466   8.990  0.1933 -0.1648  0.2472
   61POPC   GL2 1217   7.179   2.267   8.838 -0.2419 -0.0837  0.4368
   61POPC   C1A 1218   7.738   2.585   8.682  0.0634 -0.1782  0.0573
   61POPC   D2A 1219   8.099   2.740   8.615  0.0801 -0.0727  0.2060
   61POPC   C3A 1220   8.264   3.166   8.584 -0.4007 -0.1821  0.1152
   61POPC   C4A 1221   8.623   3.284   8.483  0.1342  0.2273 -0.0303
   61POPC   C1B 1222   7.320   2.347   8.427 -0.2341  0.1414 -0.0354
   61POPC   C2B 1223   7.525   2.435   7.973  0.0640  0.1177  0.3137
   61POPC   C3B 1224   7.773   2.628   7.611 -0.0187 -0.1682  0.2019
   61POPC   C4B 1225   7.799   2.605   7.244 -0.2201 -0.1207 -0.0094
   62POPC   NC3 1226   2.699   0.442   8.990 -0.1402 -0.0688  0.0886
   62POPC   PO4 1227   2.483   0.052   9.059 -0.2027 -0.1966  0.0268
   62POPC   GL1 1228   2.269  -0.085   8.660  0.3951 -0.1341  0.0483
   62POPC   GL2 1229   2.448   0.268   8.473  0.1609 -0.0108 -0.3968
   62POPC   C1A 1230   1.996  -0.218   8.333 -0.1053  0.0421  0.2275
   62POPC   D2A 1231   1.856  -0.603   8.107  0.3333 -0.1479 -0.0156
   62POPC   C3A 1232   2.187  -0.759   7.653 -0.0556 -0.2874  0.0068
   62POPC   C4A 1233   2.517  -0.974   7.814  0.0114  0.0875 -0.1771
   62POPC   C1B 1234   2.411   0.024   8.106 -0.2705  0.0780 -0.0841
   62POPC   C2B 1235   2.097  -0.163   7.784 -0.0946  0.1005 -0.2095
   62POPC   C3B 1236   1.956  -0.410   7.395 -0.0182 -0.2641 -0.0971
   62POPC   C4B 1237   1.706  -0.748   7.197 -0.0616  0.3856 -0.0471
   63POPC   NC3 1238   6.225   6.184   9.045 -0.2313 -0.0736  0.2321
   63POPC   PO4 1239   5.905   6.441   8.802 -0.0985  0.1915  0.1064
   63POPC   GL1 1240   6.104   6.525   8.480  0.1032  0.0842 -0.4055
   63POPC   GL2 1241   6.245   6.320   8.352  0.2046  0.0133 -0.0219
   63POPC   C1A 1242   6.149   6.821   8.219 -0.0834  0.1336  0.0222
   63POPC   D2A 1243   6.260   7.084   7.845  0.0879  0.2647 -0.2034
   63POPC   C3A 1244   6.641   7.024   7.598 -0.0413  0.0709  0.1311
   63POPC   C4A 1245   6.750   7.178   7.142 -0.1554  0.2212  0.1489
   63POPC   C1B 1246   5.943   6.126   8.147  0.2255  0.1504  0.2968
   63POPC   C2B 1247   5.589   5.869   8.024  0.1501 -0.0928 -0.0571
   63POPC   C3B 1248   5.098   5.746   7.959  0.0127 -0.0321  0.0385
   63POPC   C4B 1249   4.941   5.565   7.584 -0.3527 -0.0963  0.4018
   64POPC   NC3 1250   8.670   2.439   9.908  0.4008 -0.0802 -0.1131
   64POPC   PO4 1251   8.666   1.990   9.661 -0.1264 -0.0591  0.4362
   64POPC   GL1 1252   8.816   2.206   9.410  0.1079 -0.0460  0.0903
   64POPC   GL2 1253   8.602   2.337   9.094  0.0871  0.0698 -0.1628
   64POPC   C1A 1254   9.253   2.337   9.098  0.0351 -0.1850 -0.0859
   64POPC   D2A 1255   9.662   2.445   8.894 -0.2721  0.0059  0.1960
   64POPC   C3A 1256   9.730   2.378   8.514 -0.1136  0.0260 -0.2182
   64POPC   C4A 1257   9.838   2.755   8.189 -0.0229  0.2454 -0.3571
   64POPC   C1B 1258   8.917   2.456   8.722  0.1886 -0.0900 -0.1237
   64POPC   C2B 1259   9.261   2.321   8.528 -0.3651  0.0171 -0.3518
   64POPC   C3B 1260   9.632   1.943   8.715  0.1432  0.4831  0.1963
   64POPC   C4B 1261   9.991   1.919   8.525  0.1754 -0.1129 -0.0767
   65POPC   NC3 1262   1.118   9.001   9.309  0.2604 -0.3493  0.0039
   65POPC   PO4 1263   1.570   9.105   9.352  0.1726 -0.1361 -0.1201
   65POPC   GL1 1264   1.545   9.086   8.968  0.0293 -0.0353 -0.2297
   65POPC   GL2 1265   1.247   9.181   8.783 -0.1659 -0.1808  0.0300
   65POPC   C1A 1266   1.781   9.126   8.651 -0.2093  0.0488 -0.1564
   65POPC   D2A 1267   1.838   9.425   8.339  0.2106 -0.1616  0.0795
   65POPC   C3A 1268   1.913   9.319   7.950 -0.1156  0.1565  0.1590
   65POPC   C4A 1269   2.181   9.165   7.593 -0.3250  0.0983  0.0014
   65POPC   C1B 1270   1.313   9.329   8.331  0.2846 -0.1058  0.0651
   65POPC   C2B 1271   0.946   9.319   8.081  0.3839  0.1577  0.1268
   65POPC   C3B 1272   0.607   9.068   8.055 -0.3614 -0.2614  0.0530
   65POPC   C4B 1273   0.631   8.811   8.274 -0.0733  0.2416 -0.2089
   66POPC   NC3 1274   2.009   9.266   9.495  0.2713  0.1931  0.0533
   66POPC   PO4 1275   2.198   9.507   9.151  0.1447 -0.0488 -0.2026
   66POPC   GL1 1276   2.158   9.410   8.739 -0.0748  0.0433  0.0772
   66POPC   GL2 1277   2.300   9.233   8.638 -0.1400 -0.2990  0.3197
   66POPC   C1A 1278   2.253   9.684   8.333 -0.0590 -0.1454 -0.0384
   66POPC   D2A 1279   2.452   9.972   8.066  0.1487  0.1590  0.2250
   66POPC   C3A 1280   2.532  10.062   7.585 -0.0278  0.3661 -0.2489
   66POPC   C4A 1281   2.426   9.892   7.217  0.0819  0.0383  0.2158
   66POPC   C1B 1282   2.246   9.086   8.261 -0.2033 -0.1054  0.2832
   66POPC   C2B 1283   2.468   8.924   7.952  0.0451 -0.0626  0.0912
   66POPC   C3B 1284   2.718   8.740   7.769 -0.1200  0.1517  0.0459
   66POPC   C4B 1285   2.904   8.509   7.537  0.1329  0.1536 -0.1720
   67POPC   NC3 1286   4.707   2.999   8.052 -0.0569  0.1394 -0.0513
   67POPC   PO4 1287   4.870   3.370   8.075  0.1782  0.2541 -0.0235
   67POPC   GL1 1288   4.647   3.439   7.786  0.0350  0.1846  0.1619
   67POPC   GL2 1289   4.831   3.101   7.600 -0.1108  0.2134  0.1947
   67POPC   C1A 1290   4.369   3.664   7.487  0.0058  0.1830  0.1684
   67POPC   D2A 1291   4.342   3.797   7.050 -0.0877 -0.0023  0.3419
   67POPC   C3A 1292   4.169   3.603   6.692  0.0412  0.0736  0.1296
   67POPC   C4A 1293   3.948   3.214   6.482 -0.2526 -0.5047 -0.1641
   67POPC   C1B 1294   5.078   2.893   7.311 -0.2920 -0.1015  0.1434
   67POPC   C2B 1295   5.080   2.633   6.851  0.0393 -0.2237 -0.1598
   67POPC   C3B 1296   4.978   2.186   6.798  0.1999  0.0600  0.2433
   67POPC   C4B 1297   5.268   1.819   6.845  0.1234 -0.1213 -0.0838
   68POPC   NC3 1298   2.941   3.427   8.683 -0.0794 -0.1938 -0.2361
   68POPC   PO4 1299   3.066   2.900   8.629  0.0498 -0.1472 -0.1251
   68POPC   GL1 1300   2.914   2.746   8.283 -0.0338 -0.1892 -0.0536
   68POPC   GL2 1301   2.639   3.025   8.156 -0.0139  0.1522 -0.1383
   68POPC   C1A 1302   2.873   2.778   7.809 -0.1046 -0.1524 -0.1425
   68POPC   D2A 1303   2.605   2.809   7.476 -0.2010 -0.1977 -0.0541
   68POPC   C3A 1304   2.532   2.457   7.194 -0.0338  0.0629  0.2467
   68POPC   C4A 1305   2.793   2.087   6.994  0.0433  0.0816  0.1957
   68POPC   C1B 1306   2.774   3.377   7.993  0.3973  0.1352  0.0879
   68POPC   C2B 1307   2.880   3.514   7.537 -0.0644  0.2161 -0.0187
   68POPC   C3B 1308   2.577   3.278   7.416  0.0495  0.4409  0.0395
   68POPC   C4B 1309   2.578   3.021   7.013  0.0773  0.0492  0.0311
   69POPC   NC3 1310   1.746   2.286   9.559 -0.2379 -0.2951 -0.0315
   69POPC   PO4 1311   2.037   2.073   9.279 -0.1239 -0.3788  0.5573
   69POPC   GL1 1312   1.781   1.963   8.984  0.0501  0.1935 -0.0198
   69POPC   GL2 1313   1.852   1.711   8.924 -0.0227 -0.1327 -0.0178
   69POPC   C1A 1314   1.354   1.959   8.751  0.2309  0.1769 -0.0353
   69POPC   D2A 1315   1.065   2.100   8.477 -0.1068  0.1393 -0.3311
   69POPC   C3A 1316   0.637   2.305   8.600  0.0895  0.1601 -0.2100
   69POPC   C4A 1317   0.638   2.557   8.902  0.0024  0.0126 -0.1086
   69POPC   C1B 1318   1.788   1.811   8.476  0.1001 -0.3637 -0.1557
   69POPC   C2B 1319   1.805   1.830   8.094  0.0928 -0.1491  0.0972
   69POPC   C3B 1320   1.551   1.920   7.679 -0.0850  0.1266 -0.0839
   69POPC   C4B 1321   1.310   2.040   7.250 -0.0405 -0.1092  0.0381
   70POPC   NC3 1322   7.012   1.332   9.000 -0.0590  0.0310  0.2209
   70POPC   PO4 1323   6.735   1.002   8.971  0.2952 -0.2354 -0.2509
   70POPC   GL1 1324   7.087   0.762   8.616 -0.0411 -0.2221 -0.1141
   70POPC   GL2 1325   6.953   1.169   8.475  0.2295  0.2187  0.1508
   70POPC   C1A 1326   7.405   0.576   8.351 -0.2220 -0.1501  0.2298
   70POPC   D2A 1327   7.753   0.753   8.002 -0.0536  0.2573 -0.0436
   70POPC   C3A 1328   8.005   0.984   7.807 -0.2012 -0.4417  0.1183
   70POPC   C4A 1329   8.137   1.229   7.408 -0.4294  0.1718  0.0696
   70POPC   C1B 1330   7.014   1.482   8.091 -0.0210 -0.1510 -0.0204
   70POPC   C2B 1331   7.110   1.522   7.685 -0.0598  0.0508 -0.2421
   70POPC   C3B 1332   7.408   1.757   7.499 -0.1241  0.1611 -0.1350
   70POPC   C4B 1333   7.798   1.635   7.426 -0.0826  0.2341  0.3633
   71POPC   NC3 1334   7.180   0.357   9.198 -0.2715 -0.2929  0.1924
   71POPC   PO4 1335   6.929   0.032   8.903 -0.1300 -0.1827 -0.0653
   71POPC   GL1 1336   6.966  -0.169   8.505  0.3635 -0.0027  0.3100
   71POPC   GL2 1337   6.693  -0.274   8.335  0.0131 -0.0842 -0.1311
   71POPC   C1A 1338   7.265  -0.299   8.092  0.0888  0.1692 -0.1002
   71POPC   D2A 1339   7.458  -0.219   7.731 -0.2557  0.2970  0.0386
   71POPC   C3A 1340   7.853   0.076   7.470  0.1827  0.0543 -0.0897
   71POPC   C4A 1341   8.064   0.347   7.220 -0.2974 -0.0824 -0.3741
   71POPC   C1B 1342   6.811  -0.195   7.892 -0.0271  0.0738  0.0301
   71POPC   C2B 1343   6.927  -0.429   7.512 -0.2735 -0.2270 -0.0104
   71POPC   C3B 1344   7.250  -0.416   7.258  0.6218  0.0346  0.3882
   71POPC   C4B 1345   7.599  -0.181   7.160 -0.3273  0.0576 -0.2103
   72POPC   NC3 1346   0.397   9.788   9.934  0.1116  0.1016  0.1130
   72POPC   PO4 1347  -0.071   9.691  10.049  0.0738  0.1858 -0.1192
   72POPC   GL1 1348  -0.006   9.687   9.602  0.2608  0.3082 -0.2004
   72POPC   GL2 1349   0.168   9.500   9.406 -0.1800 -0.0529 -0.1957
   72POPC   C1A 1350   0.268   9.962   9.193 -0.1342  0.0686  0.0930
   72POPC   D2A 1351   0.617   9.945   8.885  0.1660 -0.0118  0.2350
   72POPC   C3A 1352   0.932  10.274   8.776  0.0201 -0.0854  0.0655
   72POPC   C4A 1353   1.386  10.306   8.826 -0.2853 -0.3204 -0.1074
   72POPC   C1B 1354  -0.089   9.337   8.971  0.3858  0.1145 -0.0898
   72POPC   C2B 1355  -0.149   9.383   8.576 -0.2768  0.2233  0.0591
   72POPC   C3B 1356   0.035   9.604   8.154  0.0500  0.3157  0.2118
   72POPC   C4B 1357   0.115  10.070   8.229  0.0410 -0.4455  0.3014
   73POPC   NC3 1358   5.106   6.478   8.607 -0.0073 -0.2215  0.1175
   73POPC   PO4 1359   5.419   6.139   8.802 -0.2019 -0.2907  0.0505
   73POPC   GL1 1360   5.520   6.321   8.413 -0.2447  0.2553 -0.4675
   73POPC   GL2 1361   5.610   6.658   8.358  0.0800  0.1767 -0.0548
   73POPC   C1A 1362   5.340   6.278   8.005  0.0969 -0.3111  0.0012
   73POPC   D2A 1363   5.210   6.209   7.621 -0.1265  0.1175 -0.3533
   73POPC   C3A 1364   4.815   6.072   7.503 -0.2373  0.2401 -0.2920
   73POPC   C4A 1365   4.820   6.080   7.056 -0.1953  0.0022  0.2912
   73POPC   C1B 1366   5.785   6.573   7.949 -0.1419 -0.1155 -0.0310
   73POPC   C2B 1367   5.587   6.529   7.555 -0.1050  0.0984  0.0528
   73POPC   C3B 1368   5.145   6.489   7.242  0.0769  0.3012  0.0423
   73POPC   C4B 1369   4.722   6.518   7.252 -0.0815  0.0244  0.0361
   74POPC   NC3 1370   5.491   7.103   8.928  0.1038  0.2305  0.0403
   74POPC   PO4 1371   5.128   6.981   8.734  0.2372 -0.1801 -0.1658
   74POPC   GL1 1372   4.979   6.891   8.405 -0.0757  0.0270 -0.0848
   74POPC   GL2 1373   4.976   6.640   8.153  0.3326  0.1715  0.0976
   74POPC   C1A 1374   4.891   7.080   7.989 -0.2884 -0.1383  0.5742
   74POPC   D2A 1375   4.882   7.231   7.634  0.2531  0.3782  0.2676
   74POPC   C3A 1376   4.861   7.027   7.237 -0.1793 -0.4641 -0.1401
   74POPC   C4A 1377   4.627   6.907   7.001 -0.0733 -0.0713 -0.2289
   74POPC   C1B 1378   5.341   6.758   7.983 -0.0033  0.2573 -0.1078
   74POPC   C2B 1379   5.657   7.076   7.930  0.0501 -0.1982 -0.1826
   74POPC   C3B 1380   5.937   7.269   8.221 -0.1434  0.1635  0.1257
   74POPC   C4B 1381   5.900   7.451   8.526  0.0369 -0.0211 -0.0356
   75POPC   NC3 1382   9.722   1.569  10.719 -0.2297 -0.0899  0.2103
   75POPC   PO4 1383   9.960   1.448  10.338 -0.1956 -0.0062 -0.0579
   75POPC   GL1 1384  10.076   1.344   9.798  0.2345  0.1743  0.1268
   75POPC   GL2 1385   9.915   1.090   9.846  0.1327 -0.2450 -0.2030
   75POPC   C1A 1386  10.147   1.581   9.403 -0.1265  0.1169  0.1215
   75POPC   D2A 1387  10.486   1.393   9.092 -0.2151 -0.1481  0.1184
   75POPC   C3A 1388  10.726   1.100   9.246 -0.1650  0.4243 -0.0788
   75POPC   C4A 1389  10.676   0.881   9.485  0.3040  0.3018  0.0442
   75POPC   C1B 1390  10.109   0.967   9.352 -0.2192 -0.0181 -0.2461
   75POPC   C2B 1391  10.349   0.862   9.021 -0.1577 -0.0447 -0.2382
   75POPC   C3B 1392  10.697   0.891   8.767 -0.2345 -0.0214  0.1269
   75POPC   C4B 1393  11.136   0.799   8.815 -0.3328  0.0492  0.0497
   76POPC   NC3 1394   7.415   6.671   9.400 -0.0714  0.1685  0.0900
   76POPC   PO4 1395   7.850   6.627   9.215 -0.0437 -0.2301 -0.0353
   76POPC   GL1 1396   7.957   6.750   8.826 -0.0326  0.3484 -0.0261
   76POPC   GL2 1397   7.705   6.843   8.582  0.0705 -0.1314  0.2150
   76POPC   C1A 1398   8.254   6.803   8.529 -0.1152  0.1533 -0.3191
   76POPC   D2A 1399   8.174   6.873   8.133  0.3433  0.1374 -0.4208
   76POPC   C3A 1400   8.372   7.158   7.838 -0.1787 -0.1223 -0.2614
   76POPC   C4A 1401   8.334   7.568   7.723  0.3810 -0.2371 -0.3111
   76POPC   C1B 1402   7.727   7.134   8.303  0.2658 -0.2022  0.2878
   76POPC   C2B 1403   7.479   7.261   7.988  0.0633  0.1652 -0.1484
   76POPC   C3B 1404   7.498   7.137   7.575  0.0579 -0.2281 -0.1909
   76POPC   C4B 1405   7.221   7.040   7.098  0.3334 -0.1085  0.3364
   77POPC   NC3 1406   6.710   2.033   8.864 -0.1865  0.2492 -0.1798
   77POPC   PO4 1407   7.112   1.806   8.947  0.0547  0.4563 -0.1980
   77POPC   GL1 1408   7.150   1.820   8.498 -0.1585  0.0161 -0.1267
   77POPC   GL2 1409   7.498   1.581   8.315  0.2529  0.0147 -0.0159
   77POPC   C1A 1410   7.240   1.941   8.074  0.0645 -0.2996  0.1128
   77POPC   D2A 1411   7.172   2.359   7.668  0.1231  0.1234 -0.0701
   77POPC   C3A 1412   7.398   2.252   7.294  0.0651 -0.0753  0.0265
   77POPC   C4A 1413   7.827   2.076   7.191 -0.1257  0.0578 -0.2340
   77POPC   C1B 1414   7.742   1.902   8.080  0.1556  0.0591  0.0506
   77POPC   C2B 1415   7.818   2.236   8.336  0.2330  0.0662 -0.1178
   77POPC   C3B 1416   7.884   2.699   8.173  0.0859 -0.0229 -0.0864
   77POPC   C4B 1417   7.878   3.115   8.262 -0.2163  0.2820 -0.2299
   78POPC   NC3 1418   9.513   3.117   9.863 -0.0998  0.2100  0.0762
   78POPC   PO4 1419   9.059   3.148   9.579  0.3660 -0.0684 -0.1050
   78POPC   GL1 1420   9.485   3.346   9.371  0.0131  0.2472  0.1778
   78POPC   GL2 1421   9.624   3.674   9.255 -0.0714 -0.1129 -0.2591
   78POPC   C1A 1422   9.479   3.288   8.911  0.1328 -0.0201  0.0078
   78POPC   D2A 1423   9.521   3.542   8.428  0.1625 -0.3928 -0.1170
   78POPC   C3A 1424   9.376   3.257   8.083 -0.0075 -0.2754  0.1838
   78POPC   C4A 1425   9.544   2.891   7.793 -0.1762 -0.0675  0.2040
   78POPC   C1B 1426   9.835   3.661   8.847  0.4389  0.1053  0.0437
   78POPC   C2B 1427   9.955   3.419   8.550 -0.2174 -0.0012  0.3440
   78POPC   C3B 1428  10.134   3.084   8.302 -0.2787 -0.3407  0.0099
   78POPC   C4B 1429  10.379   2.871   8.134  0.0022  0.0464 -0.0349
   79POPC   NC3 1430   6.793   0.521   8.908 -0.1910  0.0467  0.0829
   79POPC   PO4 1431   7.215   0.844   9.070  0.2664  0.0525 -0.2070
   79POPC   GL1 1432   7.639   0.666   9.025  0.1378  0.0849  0.1703
   79POPC   GL2 1433   7.973   0.653   9.139 -0.0804  0.1927 -0.3468
   79POPC   C1A 1434   7.864   0.705   8.612  0.1438 -0.4164  0.2668
   79POPC   D2A 1435   8.245   0.905   8.420  0.1680 -0.1459 -0.2002
   79POPC   C3A 1436   8.383   0.622   8.108 -0.0174  0.3348 -0.2433
   79POPC   C4A 1437   8.731   0.411   7.966  0.0566 -0.3372 -0.1375
   79POPC   C1B 1438   8.278   0.571   8.849 -0.2206 -0.2658 -0.1065
   79POPC   C2B 1439   8.674   0.500   8.518  0.0710 -0.0870 -0.0002
   79POPC   C3B 1440   9.057   0.605   8.372  0.0277 -0.0464  0.1476
   79POPC   C4B 1441   9.464   0.622   8.525  0.0266  0.2634  0.2686
   80POPC   NC3 1442   3.190   8.316   9.072  0.1610  0.0952  0.4005
   80POPC   PO4 1443   3.107   8.639   8.844  0.1980  0.0732  0.2941
   80POPC   GL1 1444   3.251   8.762   8.413  0.1244  0.0898 -0.1027
   80POPC   GL2 1445   3.660   8.795   8.420 -0.2463  0.0282 -0.1836
   80POPC   C1A 1446   3.224   8.778   7.893 -0.0128 -0.1941 -0.1350
   80POPC   D2A 1447   3.327   8.840   7.464 -0.2896 -0.0257  0.1531
   80POPC   C3A 1448   3.326   8.742   7.060  0.0421 -0.3093  0.1114
   80POPC   C4A 1449   3.618   8.528   6.695  0.4622 -0.1157  0.0266
   80POPC   C1B 1450   3.674   8.623   7.981 -0.0600  0.1176 -0.0654
   80POPC   C2B 1451   3.696   8.481   7.652 -0.2082  0.2134 -0.0561
   80POPC   C3B 1452   3.537   8.354   7.351  0.1163  0.2289  0.1305
   80POPC   C4B 1453   3.289   8.179   7.015 -0.1371 -0.1128 -0.3741
   81POPC   NC3 1454   0.642   2.216  10.236 -0.0606  0.0803 -0.1657
   81POPC   PO4 1455   0.954   2.049   9.931 -0.1970  0.0190  0.1057
   81POPC   GL1 1456   0.750   2.011   9.555 -0.0451  0.3000  0.0072
   81POPC   GL2 1457   0.942   2.218   9.414  0.0445  0.3348  0.1942
   81POPC   C1A 1458   0.437   2.238   9.443 -0.0506  0.0443 -0.1786
   81POPC   D2A 1459   0.260   2.215   9.118  0.1256 -0.2396 -0.2509
   81POPC   C3A 1460  -0.037   1.874   8.961  0.0172  0.1541  0.0098
   81POPC   C4A 1461  -0.377   1.478   8.882  0.0135  0.0075 -0.0305
   81POPC   C1B 1462   0.754   2.139   9.047 -0.3358  0.0374 -0.0829
   81POPC   C2B 1463   0.869   1.829   8.873 -0.0769  0.0936 -0.0003
   81POPC   C3B 1464   0.895   1.617   8.521  0.0553 -0.0447 -0.0512
   81POPC   C4B 1465   0.794   1.528   8.076 -0.1171  0.2626  0.0663
   82POPC   NC3 1466   5.310   3.755   8.245 -0.1642 -0.0607 -0.3462
   82POPC   PO4 1467   4.957   3.654   8.545 -0.1450  0.0154  0.2239
   82POPC   GL1 1468   4.864   3.840   8.058 -0.1028 -0.1379 -0.2812
   82POPC   GL2 1469   4.681   4.065   8.007 -0.2176 -0.0038 -0.2605
   82POPC   C1A 1470   4.870   3.829   7.611 -0.1045 -0.0685 -0.0148
   82POPC   D2A 1471   4.788   3.973   7.172 -0.0592 -0.0779 -0.0489
   82POPC   C3A 1472   4.785   3.626   6.857 -0.2024  0.2372  0.1529
   82POPC   C4A 1473   4.798   3.387   6.467  0.0208 -0.1849 -0.1636
   82POPC   C1B 1474   4.663   4.292   7.628 -0.1252 -0.1059 -0.0204
   82POPC   C2B 1475   4.680   4.497   7.189 -0.1217  0.2896 -0.1549
   82POPC   C3B 1476   4.537   4.262   6.842 -0.0193 -0.1220 -0.0685
   82POPC   C4B 1477   4.585   3.934   6.516  0.2923  0.1836  0.0046
   83POPC   NC3 1478   5.401   9.361   8.811 -0.1296 -0.2976  0.1146
   83POPC   PO4 1479   5.660   9.738   8.948 -0.1549  0.0025  0.0444
   83POPC   GL1 1480   5.538   9.694   8.491 -0.2493  0.4462  0.0907
   83POPC   GL2 1481   5.224   9.711   8.320 -0.0606  0.2818 -0.2697
   83POPC   C1A 1482   5.584   9.394   8.190 -0.1363 -0.2201 -0.2067
   83POPC   D2A 1483   5.837   9.295   7.789  0.1787  0.2300 -0.1829
   83POPC   C3A 1484   5.969   9.617   7.592  0.1235 -0.0704  0.2486
   83POPC   C4A 1485   5.924  10.102   7.654 -0.1961 -0.1568  0.1952
   83POPC   C1B 1486   5.022   9.581   7.978  0.2273  0.4859 -0.0247
   83POPC   C2B 1487   4.788   9.596   7.576 -0.1434 -0.2929  0.0143
   83POPC   C3B 1488   4.667   9.444   7.173  0.3340  0.0224 -0.2073
   83POPC   C4B 1489   4.685   9.080   6.961 -0.2222 -0.0828  0.0860
   84POPC   NC3 1490   4.855  10.028   8.423 -0.0237  0.2079 -0.1832
   84POPC   PO4 1491   4.466   9.819   8.578  0.2385 -0.1586 -0.4494
   84POPC   GL1 1492   4.197   9.736   8.225  0.0765 -0.0262  0.0155
   84POPC   GL2 1493   4.473   9.829   8.076  0.1188  0.0664 -0.1407
   84POPC   C1A 1494   4.086   9.482   7.905 -0.1953  0.0255  0.2069
   84POPC   D2A 1495   3.720   9.485   7.573  0.0599 -0.0116 -0.0233
   84POPC   C3A 1496   3.769   9.378   7.197 -0.0565 -0.0747  0.1078
   84POPC   C4A 1497   3.932   9.618   6.843 -0.1071  0.0172  0.0484
   84POPC   C1B 1498   4.291   9.841   7.651  0.0131  0.0316  0.3285
   84POPC   C2B 1499   4.160   9.567   7.388 -0.3898 -0.6546  0.0857
   84POPC   C3B 1500   4.177   9.142   7.105  0.1004  0.0052 -0.0302
   84POPC   C4B 1501   4.274   8.877   6.698  0.1632 -0.0438 -0.1389
   85POPC   NC3 1502   6.660   9.690   9.266 -0.1890  0.4440  0.1497
   85POPC   PO4 1503   6.328   9.739   9.051  0.1161  0.1783  0.1312
   85POPC   GL1 1504   6.076   9.722   8.577 -0.1006 -0.2225  0.1764
   85POPC   GL2 1505   6.288   9.851   8.347  0.0525  0.0618 -0.2959
   85POPC   C1A 1506   6.072   9.404   8.237 -0.3856 -0.0219 -0.1899
   85POPC   D2A 1507   6.353   9.314   7.908  0.0593 -0.1106  0.4119
   85POPC   C3A 1508   6.351   9.316   7.444  0.0505  0.1458 -0.2508
   85POPC   C4A 1509   6.285   9.125   6.971  0.1200 -0.1140  0.0080
   85POPC   C1B 1510   6.286   9.911   7.919  0.1390 -0.0213 -0.1388
   85POPC   C2B 1511   6.429   9.852   7.543 -0.4009  0.2122  0.1921
   85POPC   C3B 1512   6.545   9.695   7.108 -0.0241 -0.4099  0.0812
   85POPC   C4B 1513   6.735   9.501   6.734 -0.0384 -0.2606  0.1036
   86POPC   NC3 1514   5.099   0.048   8.873  0.0932  0.2743  0.2264
   86POPC   PO4 1515   5.108   0.014   8.431  0.0815 -0.1391  0.0384
   86POPC   GL1 1516   5.095  -0.108   8.021  0.1886 -0.2179 -0.1303
   86POPC   GL2 1517   5.069  -0.418   7.927 -0.2218  0.2571 -0.3912
   86POPC   C1A 1518   5.120   0.152   7.651 -0.0257 -0.3728  0.0287
   86POPC   D2A 1519   5.238   0.409   7.309 -0.1179 -0.2814 -0.0877
   86POPC   C3A 1520   5.229   0.892   7.266 -0.0482 -0.2205  0.0349
   86POPC   C4A 1521   4.933   1.296   7.114  0.0076  0.1765  0.1794
   86POPC   C1B 1522   5.208  -0.391   7.532 -0.0845 -0.1961 -0.0027
   86POPC   C2B 1523   5.532  -0.594   7.344 -0.1986  0.2253  0.0085
   86POPC   C3B 1524   5.555  -0.745   6.898  0.0696  0.0695 -0.1999
   86POPC   C4B 1525   5.390  -0.720   6.471 -0.0057 -0.2673  0.1061
   87POPC   NC3 1526   5.323   5.700   8.976  0.0382 -0.1423 -0.1046
   87POPC   PO4 1527   5.015   5.676   8.767 -0.1697 -0.1445  0.2498
   87POPC   GL1 1528   4.969   5.444   8.364  0.0887  0.0642  0.3252
   87POPC   GL2 1529   5.239   5.323   8.153  0.4331  0.0263 -0.0837
   87POPC   C1A 1530   4.749   5.381   8.060  0.1154 -0.0635  0.0996
   87POPC   D2A 1531   4.494   5.185   7.676 -0.0841  0.1697  0.1158
   87POPC   C3A 1532   4.696   5.204   7.306 -0.3405  0.1789 -0.0667
   87POPC   C4A 1533   4.991   5.377   7.035  0.2213  0.2307 -0.1879
   87POPC   C1B 1534   5.227   5.180   7.821  0.1163 -0.2512  0.1431
   87POPC   C2B 1535   5.340   5.218   7.348 -0.2173  0.2491  0.0507
   87POPC   C3B 1536   5.603   5.367   7.066 -0.0996 -0.2511 -0.2615
   87POPC   C4B 1537   5.593   5.589   6.563  0.2202 -0.0810 -0.2596
   88POPC   NC3 1538   8.432   0.324   9.957 -0.2776  0.2244  0.0315
   88POPC   PO4 1539   8.637   0.748   9.895 -0.2479 -0.3647 -0.0957
   88POPC   GL1 1540   8.509   0.898   9.483  0.1963 -0.1210  0.0733
   88POPC   GL2 1541   8.527   0.770   9.267  0.0759 -0.0957 -0.2420
   88POPC   C1A 1542   8.437   1.091   8.962 -0.1866 -0.0333 -0.2185
   88POPC   D2A 1543   8.415   1.360   8.523  0.2187 -0.1784  0.0028
   88POPC   C3A 1544   8.775   1.550   8.295 -0.1786 -0.3657 -0.0349
   88POPC   C4A 1545   9.052   1.739   7.890 -0.1613  0.1594  0.1141
   88POPC   C1B 1546   8.857   0.626   9.030 -0.0342  0.2578  0.0873
   88POPC   C2B 1547   9.140   0.409   8.857  0.0843  0.1282 -0.0795
   88POPC   C3B 1548   9.094   0.159   8.653  0.1860 -0.2061  0.2385
   88POPC   C4B 1549   8.922   0.035   8.316  0.1428 -0.1889 -0.0725
   89POPC   NC3 1550   4.468   8.331   8.643  0.0128 -0.1701  0.0179
   89POPC   PO4 1551   5.000   8.477   8.719 -0.0573 -0.4363 -0.0410
   89POPC   GL1 1552   5.078   8.323   8.362 -0.0210 -0.4109  0.1176
   89POPC   GL2 1553   4.829   8.408   8.259  0.0448  0.1189  0.3548
   89POPC   C1A 1554   4.968   8.219   7.897  0.0153 -0.0394  0.3750
   89POPC   D2A 1555   5.158   7.929   7.673  0.0333  0.1160 -0.2317
   89POPC   C3A 1556   5.250   7.483   7.514 -0.0235  0.0110  0.0396
   89POPC   C4A 1557   5.355   7.396   7.134 -0.0721  0.1821 -0.0979
   89POPC   C1B 1558   4.650   8.638   7.870  0.2491 -0.1369 -0.1425
   89POPC   C2B 1559   4.741   8.465   7.469  0.3070  0.0475  0.4088
   89POPC   C3B 1560   4.904   8.613   7.065  0.1272 -0.1194  0.1004
   89POPC   C4B 1561   5.153   8.784   6.763 -0.2866  0.1168  0.0138
   90POPC   NC3 1562   0.932   7.254   8.913 -0.0021  0.1317 -0.0247
   90POPC   PO4 1563   1.270   7.032   8.832 -0.1978  0.2256  0.1514
   90POPC   GL1 1564   1.362   6.863   8.471  0.1628 -0.0204  0.0620
   90POPC   GL2 1565   1.147   6.560   8.507  0.1167  0.0049  0.4317
   90POPC   C1A 1566   1.611   6.770   8.095 -0.2128  0.4716 -0.8148
   90POPC   D2A 1567   1.526   6.626   7.713  0.1301  0.0854 -0.3278
   90POPC   C3A 1568   1.927   6.430   7.430  0.0801  0.0192  0.1484
   90POPC   C4A 1569   2.007   6.209   6.975  0.2204  0.2629  0.1299
   90POPC   C1B 1570   1.315   6.227   8.108  0.2836  0.1007  0.3935
   90POPC   C2B 1571   1.324   6.111   7.621  0.3297 -0.1342 -0.0671
   90POPC   C3B 1572   1.432   5.658   7.519  0.2049  0.1554  0.1026
   90POPC   C4B 1573   1.690   5.508   7.231 -0.2324  0.0808 -0.0577
   91POPC   NC3 1574   6.584   2.952   8.725 -0.4093 -0.0611  0.0550
   91POPC   PO4 1575   6.302   2.427   8.711 -0.4145  0.1352 -0.1415
   91POPC   GL1 1576   6.673   2.464   8.497 -0.1577  0.3584  0.3099
   91POPC   GL2 1577   6.854   2.204   8.402  0.2515  0.1002 -0.2282
   91POPC   C1A 1578   7.006   2.565   8.102 -0.0474 -0.0078 -0.1069
   91POPC   D2A 1579   7.021   2.858   7.773 -0.2102 -0.3123  0.0526
   91POPC   C3A 1580   7.280   2.879   7.520 -0.1164  0.0316  0.1453
   91POPC   C4A 1581   7.582   3.059   7.325  0.1271  0.0166  0.2054
   91POPC   C1B 1582   6.804   2.042   8.013  0.2385 -0.0230 -0.3315
   91POPC   C2B 1583   6.698   1.761   7.733  0.0420 -0.1263  0.1748
   91POPC   C3B 1584   6.433   1.523   7.404  0.1296  0.3308 -0.4077
   91POPC   C4B 1585   6.471   1.354   7.086  0.0119 -0.2272  0.1736
   92POPC   NC3 1586   4.546   3.461   8.821  0.0910 -0.2210 -0.0844
   92POPC   PO4 1587   4.289   2.996   8.780 -0.1114  0.1395  0.1040
   92POPC   GL1 1588   4.244   2.975   8.268  0.1590  0.4285 -0.2311
   92POPC   GL2 1589   4.214   3.245   8.047 -0.1449 -0.1200  0.2456
   92POPC   C1A 1590   4.166   2.717   7.941  0.1171 -0.0163  0.4089
   92POPC   D2A 1591   4.479   2.559   7.574 -0.0868  0.2296 -0.1838
   92POPC   C3A 1592   4.552   2.909   7.205 -0.1051  0.1739  0.1773
   92POPC   C4A 1593   4.519   3.346   7.148  0.0956 -0.1488 -0.3484
   92POPC   C1B 1594   4.208   3.159   7.542  0.0713 -0.0636 -0.0954
   92POPC   C2B 1595   4.079   2.828   7.372  0.2637  0.0809  0.0337
   92POPC   C3B 1596   3.900   2.453   7.560  0.1253  0.0638 -0.1159
   92POPC   C4B 1597   3.654   2.235   7.567 -0.3082  0.1908 -0.0070
   93POPC   NC3 1598   2.092   4.971   9.021 -0.0661 -0.0796  0.0876
   93POPC   PO4 1599   2.118   5.444   8.980  0.0333 -0.0143  0.2337
   93POPC   GL1 1600   2.101   5.501   8.526  0.3864 -0.2618  0.2185
   93POPC   GL2 1601   2.368   5.615   8.430 -0.1207  0.1433  0.4287
   93POPC   C1A 1602   1.986   5.413   8.028  0.1226 -0.0168 -0.0071
   93POPC   D2A 1603   1.733   5.277   7.698 -0.0752  0.0945 -0.0313
   93POPC   C3A 1604   1.791   4.990   7.324 -0.2618  0.5260 -0.0322
   93POPC   C4A 1605   1.817   4.588   7.068  0.4379 -0.5408  0.1103
   93POPC   C1B 1606   2.566   5.345   8.162  0.0936 -0.1625  0.0117
   93POPC   C2B 1607   2.646   5.208   7.706 -0.2954 -0.3254  0.1972
   93POPC   C3B 1608   2.621   5.114   7.292 -0.1273  0.1941 -0.2048
   93POPC   C4B 1609   2.823   5.086   6.979 -0.1522 -0.1753 -0.2527
   94POPC   NC3 1610   4.799   1.619   8.642  0.0190 -0.1684  0.1064
   94POPC   PO4 1611   4.433   1.671   8.667  0.0004  0.0486  0.0813
   94POPC   GL1 1612   4.404   1.885   8.264  0.0639 -0.0625 -0.4204
   94POPC   GL2 1613   4.217   2.106   8.358  0.2258  0.1544 -0.2430
   94POPC   C1A 1614   4.574   2.207   7.965  0.0923  0.1071  0.1295
   94POPC   D2A 1615   4.590   2.135   7.421  0.2652  0.4256 -0.0081
   94POPC   C3A 1616   5.035   2.020   7.267 -0.0490  0.1953  0.2359
   94POPC   C4A 1617   5.224   1.629   7.314  0.2694  0.0021  0.2991
   94POPC   C1B 1618   4.105   2.156   7.874  0.3535  0.3589 -0.0368
   94POPC   C2B 1619   4.080   2.000   7.451  0.0937 -0.3556  0.0761
   94POPC   C3B 1620   4.320   1.810   7.067 -0.1605  0.0154  0.0408
   94POPC   C4B 1621   4.443   1.412   6.872 -0.3714  0.0339  0.1892
   95POPC   NC3 1622   8.438   5.247   9.135 -0.2547 -0.2187  0.0704
   95POPC   PO4 1623   8.307   5.746   9.050  0.2525  0.2431 -0.0780
   95POPC   GL1 1624   8.131   5.909   8.649 -0.3396 -0.2056 -0.1475
   95POPC   GL2 1625   7.866   6.259   8.776  0.0695 -0.0118  0.2980
   95POPC   C1A 1626   8.320   5.974   8.207 -0.0018  0.1027 -0.2867
   95POPC   D2A 1627   8.467   6.099   7.894 -0.2462 -0.0256  0.0270
   95POPC   C3A 1628   8.236   6.228   7.546  0.0689  0.1095  0.0079
   95POPC   C4A 1629   8.238   6.285   7.163  0.0607 -0.0842  0.0225
   95POPC   C1B 1630   8.055   6.312   8.368  0.1666  0.0707 -0.0891
   95POPC   C2B 1631   8.005   6.331   8.001 -0.2778  0.3794  0.2534
   95POPC   C3B 1632   7.964   6.616   7.761  0.3047  0.2203  0.1924
   95POPC   C4B 1633   8.006   6.991   7.600  0.0655  0.0080  0.1171
   96POPC   NC3 1634   6.548   8.017   9.407  0.2856 -0.0725 -0.1599
   96POPC   PO4 1635   6.220   7.857   9.163  0.1009  0.1600 -0.3929
   96POPC   GL1 1636   6.178   7.851   8.708  0.0315 -0.2583 -0.2725
   96POPC   GL2 1637   5.943   7.916   8.469  0.1486 -0.1807  0.1545
   96POPC   C1A 1638   6.455   7.755   8.346  0.3868 -0.2786  0.1399
   96POPC   D2A 1639   6.657   7.572   7.892 -0.1493  0.3529 -0.3474
   96POPC   C3A 1640   6.411   7.539   7.602 -0.0390 -0.0832 -0.0084
   96POPC   C4A 1641   6.041   7.647   7.324 -0.1920  0.1389 -0.1375
   96POPC   C1B 1642   6.095   7.698   8.048  0.1551 -0.0379 -0.0738
   96POPC   C2B 1643   6.146   7.990   7.692 -0.0490  0.1922 -0.0096
   96POPC   C3B 1644   6.404   8.216   7.283 -0.1003  0.1107 -0.0398
   96POPC   C4B 1645   6.580   8.679   7.285  0.0380  0.0821 -0.1415
   97POPC   NC3 1646   6.661   5.362   9.034 -0.0299  0.1439 -0.1335
   97POPC   PO4 1647   7.192   5.562   9.043  0.0195  0.0875  0.0137
   97POPC   GL1 1648   7.241   5.793   8.643 -0.0246  0.2203 -0.0652
   97POPC   GL2 1649   7.673   5.751   8.654  0.1933 -0.1645 -0.0732
   97POPC   C1A 1650   7.093   5.675   8.175 -0.0299  0.4338  0.0480
   97POPC   D2A 1651   7.214   5.777   7.796 -0.2364 -0.0097  0.1681
   97POPC   C3A 1652   7.162   6.083   7.443 -0.1068 -0.1145 -0.1991
   97POPC   C4A 1653   7.238   6.381   7.100  0.0003 -0.3322 -0.1639
   97POPC   C1B 1654   7.664   5.877   8.234 -0.1877 -0.3957  0.1754
   97POPC   C2B 1655   7.974   5.854   7.904 -0.0753 -0.2541 -0.0774
   97POPC   C3B 1656   8.281   5.762   7.584  0.0909  0.0883  0.1509
   97POPC   C4B 1657   8.519   5.880   7.195  0.0931  0.2202 -0.2007
   98POPC   NC3 1658   5.832  10.143   8.677 -0.1707  0.2541 -0.0064
   98POPC   PO4 1659   5.556  10.479   8.668  0.0146 -0.0917  0.3033
   98POPC   GL1 1660   5.523  10.196   8.269  0.2985 -0.0783  0.2772
   98POPC   GL2 1661   5.538  10.476   8.135 -0.3567 -0.3844 -0.2106
   98POPC   C1A 1662   5.582   9.860   7.886  0.4828 -0.2964 -0.1095
   98POPC   D2A 1663   5.389   9.493   7.689 -0.4273 -0.1536 -0.1909
   98POPC   C3A 1664   5.572   9.351   7.283  0.0092 -0.2528  0.2055
   98POPC   C4A 1665   5.758   9.070   6.889  0.1171 -0.0846  0.1650
   98POPC   C1B 1666   5.533  10.359   7.767  0.0317 -0.2748  0.1905
   98POPC   C2B 1667   5.424  10.439   7.268  0.0864  0.3076 -0.0269
   98POPC   C3B 1668   5.554  10.251   7.032  0.1154 -0.1561 -0.2928
   98POPC   C4B 1669   5.932  10.109   7.191 -0.0564  0.1725  0.0955
   99POPC   NC3 1670   7.762   2.986   9.213 -0.2045  0.3594 -0.0338
   99POPC   PO4 1671   7.288   2.963   9.168 -0.2649 -0.1639  0.1272
   99POPC   GL1 1672   7.431   2.969   8.798  0.0613  0.1260 -0.2885
   99POPC   GL2 1673   7.061   2.835   8.611 -0.0796 -0.0621  0.1045
   99POPC   C1A 1674   7.451   2.826   8.328 -0.1204 -0.1746  0.1150
   99POPC   D2A 1675   7.520   3.037   7.926 -0.3303  0.0029  0.0932
   99POPC   C3A 1676   8.005   3.067   7.775  0.1204 -0.0401  0.0578
   99POPC   C4A 1677   8.378   3.243   7.501  0.0458 -0.0355  0.1816
   99POPC   C1B 1678   6.999   3.154   8.280 -0.1083  0.1302  0.2163
   99POPC   C2B 1679   7.344   3.457   8.247 -0.2215  0.1936  0.1296
   99POPC   C3B 1680   7.695   3.561   7.966  0.2604 -0.1709  0.2436
   99POPC   C4B 1681   7.590   3.871   7.703  0.2609 -0.2012 -0.1711
  100POPC   NC3 1682   1.238   2.563  10.694  0.2562 -0.4125  0.0172
  100POPC   PO4 1683   0.769   2.606  10.499  0.0141 -0.1151 -0.0594
  100POPC   GL1 1684   0.631   2.793  10.051  0.1126  0.0439  0.0529
  100POPC   GL2 1685   0.540   2.528   9.828  0.1773 -0.2391  0.3182
  100POPC   C1A 1686   0.399   3.058   9.732 -0.3232 -0.0208 -0.2135
  100POPC   D2A 1687   0.396   3.227   9.351  0.1653 -0.3916 -0.0891
  100POPC   C3A 1688   0.091   3.201   9.051 -0.0413 -0.1145  0.0730
  100POPC   C4A 1689  -0.138   3.502   8.954 -0.1281 -0.4024 -0.1221
  100POPC   C1B 1690   0.650   2.675   9.481  0.0252 -0.0906 -0.1482
  100POPC   C2B 1691   0.984   2.694   9.206  0.2136  0.0450 -0.1382
  100POPC   C3B 1692   1.073   2.715   8.669  0.0383 -0.2078  0.0432
  100POPC   C4B 1693   1.121   2.569   8.307 -0.3579  0.1063  0.1725
  101POPC   NC3 1694   9.424   9.147   9.609 -0.2072 -0.2081  0.3246
  101POPC   PO4 1695   8.995   9.077   9.476  0.1295 -0.0531  0.0073
  101POPC   GL1 1696   8.975   9.328   9.252 -0.0929 -0.0242 -0.4115
  101POPC   GL2 1697   9.322   9.311   9.085 -0.0388  0.0658 -0.0236
  101POPC   C1A 1698   8.842   9.264   8.829 -0.1653 -0.0832 -0.1610
  101POPC   D2A 1699   8.967   9.317   8.454  0.1908 -0.0829 -0.6093
  101POPC   C3A 1700   8.599   9.548   8.171 -0.0216 -0.0161 -0.3563
  101POPC   C4A 1701   8.394   9.921   8.099 -0.0449  0.3294 -0.1870
  101POPC   C1B 1702   9.361   9.539   8.750  0.1261 -0.2112  0.0700
  101POPC   C2B 1703   9.566   9.831   8.564 -0.1185 -0.3058 -0.1735
  101POPC   C3B 1704   9.586   9.911   8.111 -0.0610  0.0271 -0.1207
  101POPC   C4B 1705   9.708   9.818   7.619 -0.0324 -0.0078 -0.1462
  102POPC   NC3 1706   5.606   2.907   8.202  0.0016  0.2036 -0.1599
  102POPC   PO4 1707   5.185   2.888   8.036  0.1218 -0.3114  0.0070
  102POPC   GL1 1708   5.420   2.913   7.718 -0.0224  0.6280 -0.0299
  102POPC   GL2 1709   5.531   2.517   7.747 -0.0571 -0.0857  0.1229
  102POPC   C1A 1710   5.618   2.842   7.285 -0.1274  0.1110 -0.4166
  102POPC   D2A 1711   5.848   2.703   6.946 -0.1127 -0.0297 -0.1471
  102POPC   C3A 1712   6.354   2.822   6.993 -0.1984  0.1585 -0.0294
  102POPC   C4A 1713   6.734   2.538   7.003  0.1476 -0.0191  0.1173
  102POPC   C1B 1714   5.322   2.455   7.379 -0.0689 -0.1147 -0.0269
  102POPC   C2B 1715   5.481   2.286   6.982  0.0648 -0.4111 -0.0718
  102POPC   C3B 1716   5.959   2.223   6.838  0.2180  0.1124  0.0805
  102POPC   C4B 1717   6.408   2.245   6.843  0.1268 -0.0183  0.0203
  103POPC   NC3 1718   7.693   4.746   8.791 -0.2510  0.1298 -0.3247
  103POPC   PO4 1719   7.804   4.523   9.141  0.2048 -0.1647  0.1029
  103POPC   GL1 1720   8.107   4.446   8.689  0.1781 -0.0050 -0.1540
  103POPC   GL2 1721   8.142   4.569   8.448  0.1290  0.1412 -0.0468
  103POPC   C1A 1722   8.311   4.064   8.516  0.1427 -0.1049  0.0667
  103POPC   D2A 1723   8.555   3.863   8.262 -0.0199  0.0034 -0.0039
  103POPC   C3A 1724   8.556   3.901   7.789 -0.0704  0.0576 -0.2283
  103POPC   C4A 1725   8.716   3.844   7.345  0.0246  0.1342  0.2679
  103POPC   C1B 1726   7.837   4.549   8.118  0.2385 -0.2275  0.2093
  103POPC   C2B 1727   7.945   4.393   7.686  0.1417 -0.1554  0.2500
  103POPC   C3B 1728   8.123   4.061   7.381 -0.3400  0.1431 -0.0375
  103POPC   C4B 1729   8.405   4.035   7.037 -0.0212  0.0284  0.1137
  104POPC   NC3 1730   8.232   7.650   9.035 -0.2101  0.1134 -0.0288
  104POPC   PO4 1731   7.935   7.316   9.113 -0.1726 -0.1609  0.1939
  104POPC   GL1 1732   8.083   7.312   8.640  0.0174 -0.2916  0.2386
  104POPC   GL2 1733   8.112   7.609   8.575  0.0779  0.1469 -0.0742
  104POPC   C1A 1734   8.489   7.317   8.448  0.0288 -0.1025 -0.1620
  104POPC   D2A 1735   8.788   7.504   8.027 -0.3113  0.0025  0.2811
  104POPC   C3A 1736   8.810   7.657   7.646 -0.0657 -0.4222 -0.0204
  104POPC   C4A 1737   9.065   8.018   7.497 -0.3816 -0.1337  0.4772
  104POPC   C1B 1738   8.070   7.457   8.183 -0.2991  0.3054 -0.1616
  104POPC   C2B 1739   7.870   7.439   7.812  0.0488 -0.1861  0.1645
  104POPC   C3B 1740   7.453   7.615   7.582  0.0361  0.0767 -0.1209
  104POPC   C4B 1741   7.055   7.293   7.635 -0.1701 -0.1288  0.1306
  105POPC   NC3 1742   4.369   0.919   8.342  0.0491 -0.0714 -0.4128
  105POPC   PO4 1743   4.710   1.306   8.288 -0.0830 -0.0175 -0.2830
  105POPC   GL1 1744   4.740   1.597   8.072  0.0964 -0.0212 -0.1326
  105POPC   GL2 1745   4.915   1.902   8.200 -0.0621 -0.0485  0.1164
  105POPC   C1A 1746   4.420   1.725   7.818 -0.1349  0.0677  0.0005
  105POPC   D2A 1747   4.030   1.605   7.780  0.2972  0.2216 -0.1199
  105POPC   C3A 1748   3.712   1.660   7.493  0.0239 -0.0677  0.3231
  105POPC   C4A 1749   3.685   1.772   7.122  0.1891  0.1201 -0.3200
  105POPC   C1B 1750   5.150   2.154   7.897  0.1112  0.1592 -0.2850
  105POPC   C2B 1751   4.954   2.455   7.623  0.1195 -0.0603 -0.1255
  105POPC   C3B 1752   4.793   2.484   7.188  0.2173  0.2192  0.1588
  105POPC   C4B 1753   4.274   2.333   7.108  0.0872 -0.1747 -0.0510
  106POPC   NC3 1754   4.114   1.167   9.161 -0.1435  0.0715 -0.0429
  106POPC   PO4 1755   3.892   1.407   8.833  0.0392  0.3240 -0.0570
  106POPC   GL1 1756   3.707   1.633   8.501  0.1937  0.4950  0.3220
  106POPC   GL2 1757   3.696   1.344   8.301  0.0526  0.1105  0.0361
  106POPC   C1A 1758   3.800   1.907   8.159 -0.2211  0.2363  0.0320
  106POPC   D2A 1759   3.622   2.260   8.093 -0.1717  0.1269 -0.0090
  106POPC   C3A 1760   3.176   2.195   8.043  0.0584 -0.0328  0.0711
  106POPC   C4A 1761   2.763   2.038   8.077 -0.1222 -0.2336  0.1994
  106POPC   C1B 1762   3.573   1.391   7.905  0.0912 -0.0135  0.0205
  106POPC   C2B 1763   3.164   1.293   7.561 -0.1864  0.1008 -0.0958
  106POPC   C3B 1764   3.058   0.994   7.290  0.1118 -0.1544  0.3154
  106POPC   C4B 1765   2.661   0.867   7.053 -0.0170  0.2014 -0.2718
  107POPC   NC3 1766   2.230   8.326   8.919  0.2046  0.1360 -0.3633
  107POPC   PO4 1767   1.887   8.097   8.895 -0.1478  0.0113  0.2351
  107POPC   GL1 1768   1.874   8.207   8.531  0.1113  0.1627  0.3019
  107POPC   GL2 1769   2.140   8.460   8.365 -0.1291  0.1847  0.1047
  107POPC   C1A 1770   1.696   8.338   8.069 -0.3901 -0.1396 -0.1322
  107POPC   D2A 1771   1.590   8.502   7.654  0.2987  0.3397 -0.0540
  107POPC   C3A 1772   1.784   8.402   7.272 -0.1520  0.0187 -0.1452
  107POPC   C4A 1773   2.130   8.328   6.945  0.0256  0.0666 -0.1295
  107POPC   C1B 1774   2.386   8.367   8.008  0.3232  0.1634  0.0898
  107POPC   C2B 1775   2.515   8.110   7.696 -0.0935 -0.1265 -0.0588
  107POPC   C3B 1776   2.684   7.761   7.479  0.1050 -0.2008 -0.3309
  107POPC   C4B 1777   2.552   7.476   7.213 -0.1741 -0.0749  0.2623
  108POPC   NC3 1778   7.441  10.017   9.612  0.1624  0.1234 -0.0597
  108POPC   PO4 1779   7.413  10.370   9.462  0.0270  0.1214 -0.0049
  108POPC   GL1 1780   7.570  10.557   9.005  0.3861 -0.0185 -0.2317
  108POPC   GL2 1781   7.404  10.584   8.744  0.3151  0.1823 -0.2699
  108POPC   C1A 1782   7.937  10.705   8.708  0.0593 -0.0779  0.0957
  108POPC   D2A 1783   8.110  10.729   8.275  0.2117  0.3324  0.1690
  108POPC   C3A 1784   8.453  10.458   8.095  0.0637  0.0437  0.1902
  108POPC   C4A 1785   8.850  10.107   7.996 -0.0809 -0.0664 -0.2170
  108POPC   C1B 1786   7.559  10.544   8.333  0.1124  0.0753 -0.1827
  108POPC   C2B 1787   7.582  10.780   7.903 -0.1627 -0.0252 -0.0361
  108POPC   C3B 1788   7.634  10.980   7.510 -0.0134  0.2895 -0.4471
  108POPC   C4B 1789   7.864  11.293   7.375  0.1331  0.3644  0.1353
  109POPC   NC3 1790   3.725  10.121   8.376 -0.0803  0.2328 -0.1794
  109POPC   PO4 1791   4.145  10.200   8.465  0.2874  0.0463 -0.0443
  109POPC   GL1 1792   4.057  10.248   8.031  0.1826 -0.2320  0.0917
  109POPC   GL2 1793   3.874  10.039   7.799  0.2110 -0.0959 -0.1048
  109POPC   C1A 1794   4.234  10.489   7.642 -0.1049 -0.2806  0.1661
  109POPC   D2A 1795   4.310  10.453   7.171 -0.1231 -0.0076 -0.1811
  109POPC   C3A 1796   4.189  10.541   6.804 -0.1700  0.2620  0.0514
  109POPC   C4A 1797   3.861  10.591   6.560 -0.0408 -0.3130 -0.2475
  109POPC   C1B 1798   3.891  10.080   7.369  0.0192 -0.0001 -0.0439
  109POPC   C2B 1799   4.258   9.938   7.087 -0.2432  0.0970  0.1483
  109POPC   C3B 1800   4.642  10.114   6.798 -0.0425 -0.2002 -0.1668
  109POPC   C4B 1801   4.644  10.443   6.582 -0.1783 -0.0292  0.2525
  110POPC   NC3 1802   9.224   4.055   9.419  0.0489  0.2323  0.1311
  110POPC   PO4 1803   9.567   4.321   9.381 -0.3756 -0.0867 -0.1663
  110POPC   GL1 1804   9.498   4.104   9.011 -0.1643 -0.1086  0.3595
  110POPC   GL2 1805   9.388   4.292   8.847  0.2041 -0.1878 -0.1123
  110POPC   C1A 1806   9.244   3.753   8.882  0.1349 -0.3057  0.0933
  110POPC   D2A 1807   8.963   3.514   9.176  0.1081  0.2643 -0.1593
  110POPC   C3A 1808   8.748   3.154   8.960 -0.2105 -0.1898  0.1719
  110POPC   C4A 1809   8.504   2.824   8.848  0.2756 -0.2515 -0.3036
  110POPC   C1B 1810   9.577   4.550   8.542 -0.0445 -0.0439 -0.0973
  110POPC   C2B 1811   9.756   4.574   8.130 -0.1067 -0.0712  0.1697
  110POPC   C3B 1812   9.684   4.630   7.630 -0.1592  0.0413 -0.0341
  110POPC   C4B 1813   9.969   4.427   7.274 -0.1083 -0.1795 -0.2702
  111POPC   NC3 1814   3.937   3.912   8.594  0.1035  0.0542 -0.0681
  111POPC   PO4 1815   4.327   4.094   8.314 -0.2798 -0.0434  0.0180
  111POPC   GL1 1816   4.166   3.924   7.961 -0.0186 -0.2843 -0.1402
  111POPC   GL2 1817   3.837   3.840   8.145 -0.0014 -0.0081  0.0175
  111POPC   C1A 1818   3.782   4.007   7.614  0.0109  0.1047 -0.0727
  111POPC   D2A 1819   3.797   3.963   7.127 -0.3305  0.1742  0.0070
  111POPC   C3A 1820   3.659   3.711   6.765  0.2506 -0.3530 -0.1500
  111POPC   C4A 1821   3.375   3.460   6.543 -0.1716 -0.0180 -0.1132
  111POPC   C1B 1822   3.939   3.526   7.747 -0.0205  0.0716  0.0833
  111POPC   C2B 1823   3.943   3.454   7.277 -0.0824 -0.2103  0.3414
  111POPC   C3B 1824   4.059   3.201   6.978  0.2146 -0.3454 -0.0274
  111POPC   C4B 1825   3.757   2.874   6.871 -0.0609  0.1799  0.3292
  112POPC   NC3 1826   4.932   8.980   8.783  0.0315  0.0580 -0.2072
  112POPC   PO4 1827   5.431   8.867   8.898  0.0973  0.2247  0.0771
  112POPC   GL1 1828   5.339   8.963   8.506  0.1299 -0.3701  0.1595
  112POPC   GL2 1829   5.482   8.710   8.322 -0.0368  0.0093 -0.0320
  112POPC   C1A 1830   5.333   9.039   7.988  0.1583  0.0769 -0.0124
  112POPC   D2A 1831   4.978   8.975   7.695  0.1066 -0.0903  0.0248
  112POPC   C3A 1832   5.026   9.119   7.307 -0.2596 -0.1531 -0.0405
  112POPC   C4A 1833   5.109   9.535   7.112 -0.0197 -0.0563 -0.0629
  112POPC   C1B 1834   5.294   8.532   7.972  0.0809 -0.2525 -0.0457
  112POPC   C2B 1835   5.279   8.474   7.497 -0.0738 -0.1792  0.2217
  112POPC   C3B 1836   5.162   8.188   7.247  0.0794 -0.1538  0.0587
  112POPC   C4B 1837   5.342   7.899   7.019  0.0336 -0.3122 -0.0000
  113POPC   NC3 1838   8.937   7.805   9.710  0.3613  0.2993 -0.0592
  113POPC   PO4 1839   8.830   7.365   9.700  0.1791 -0.1159  0.2677
  113POPC   GL1 1840   8.761   7.529   9.253 -0.0514  0.1367 -0.2863
  113POPC   GL2 1841   8.668   7.675   8.909  0.1138 -0.0467  0.1178
  113POPC   C1A 1842   9.139   7.467   8.897 -0.0168  0.0277 -0.1033
  113POPC   D2A 1843   9.116   7.210   8.476  0.0799 -0.2832  0.1009
  113POPC   C3A 1844   9.262   7.251   8.029 -0.3299  0.2232  0.2314
  113POPC   C4A 1845   9.486   7.145   7.675  0.0181  0.0605  0.0118
  113POPC   C1B 1846   8.820   7.696   8.471 -0.0058 -0.1160 -0.0790
  113POPC   C2B 1847   9.031   7.903   8.190  0.2395 -0.4345  0.0110
  113POPC   C3B 1848   9.185   7.785   7.947 -0.2227 -0.0214  0.1900
  113POPC   C4B 1849   9.590   7.801   7.705  0.0208 -0.2063  0.3704
  114POPC   NC3 1850   5.112   4.525   8.725  0.1901  0.1973  0.0234
  114POPC   PO4 1851   5.281   4.592   8.432  0.5225 -0.0729 -0.0029
  114POPC   GL1 1852   5.414   4.732   7.959 -0.2063 -0.0674 -0.1598
  114POPC   GL2 1853   5.610   4.559   7.853 -0.1920  0.0756 -0.0054
  114POPC   C1A 1854   5.675   5.051   7.691  0.0979  0.1762  0.2530
  114POPC   D2A 1855   5.958   5.193   7.519  0.1072  0.0461  0.0260
  114POPC   C3A 1856   5.954   4.913   7.269  0.1265 -0.2071  0.0898
  114POPC   C4A 1857   6.124   4.496   7.237 -0.3348  0.0765 -0.0647
  114POPC   C1B 1858   5.448   4.712   7.359 -0.0129  0.0156 -0.1409
  114POPC   C2B 1859   5.459   4.888   6.934 -0.4038 -0.1284  0.2154
  114POPC   C3B 1860   5.411   4.959   6.508  0.1264 -0.2532 -0.0452
  114POPC   C4B 1861   5.021   5.011   6.349 -0.0561  0.0354  0.1142
  115POPC   NC3 1862  10.462   7.654   9.319  0.1144 -0.0398 -0.1339
  115POPC   PO4 1863  10.524   7.434   8.988  0.0269 -0.1466  0.0402
  115POPC   GL1 1864  10.454   7.355   8.566 -0.1688  0.1545 -0.3259
  115POPC   GL2 1865  10.247   7.163   8.364  0.0180  0.0025  0.1720
  115POPC   C1A 1866  10.507   7.551   8.186  0.3796  0.0167 -0.0926
  115POPC   D2A 1867  10.140   7.790   8.023 -0.0408  0.0508  0.2073
  115POPC   C3A 1868  10.170   7.954   7.709 -0.1164  0.0842  0.2202
  115POPC   C4A 1869  10.168   8.035   7.274 -0.0398 -0.0505 -0.2513
  115POPC   C1B 1870  10.427   6.857   8.160  0.0624 -0.0488  0.1402
  115POPC   C2B 1871  10.548   6.497   7.833  0.4038 -0.3178 -0.3187
  115POPC   C3B 1872  10.919   6.529   7.563  0.1550 -0.1461  0.1059
  115POPC   C4B 1873  10.862   6.149   7.204 -0.0956 -0.0120  0.0785
  116POPC   NC3 1874   5.695   0.398   8.395 -0.2969 -0.0198  0.1108
  116POPC   PO4 1875   6.112   0.062   8.564 -0.0865  0.1926  0.2231
  116POPC   GL1 1876   6.234  -0.053   8.170 -0.0834  0.1488 -0.2114
  116POPC   GL2 1877   5.962   0.087   7.945 -0.3468  0.0274 -0.0033
  116POPC   C1A 1878   6.376  -0.088   7.659  0.1493 -0.1315  0.1521
  116POPC   D2A 1879   6.410  -0.172   7.246 -0.0190 -0.4130  0.1935
  116POPC   C3A 1880   6.751  -0.138   7.119  0.3002  0.1172  0.1153
  116POPC   C4A 1881   6.994  -0.356   6.787  0.0988 -0.0056 -0.2297
  116POPC   C1B 1882   5.934   0.132   7.437 -0.1005  0.1286  0.2012
  116POPC   C2B 1883   5.824   0.441   7.127  0.2398 -0.2501 -0.2195
  116POPC   C3B 1884   5.558   0.768   6.865  0.1125 -0.0318 -0.1990
  116POPC   C4B 1885   5.150   0.706   6.735  0.2078  0.0898  0.0500
  117POPC   NC3 1886   3.366   5.749   8.758 -0.1779  0.1448  0.3055
  117POPC   PO4 1887   3.329   5.255   8.715 -0.0972  0.0890  0.0417
  117POPC   GL1 1888   3.604   5.478   8.388 -0.1267 -0.0530 -0.0574
  117POPC   GL2 1889   3.657   5.771   8.369  0.1246 -0.2342 -0.1590
  117POPC   C1A 1890   3.525   5.380   7.950  0.0468  0.1238  0.1294
  117POPC   D2A 1891   3.545   5.560   7.480  0.2951 -0.2766 -0.1567
  117POPC   C3A 1892   3.531   5.750   7.035 -0.0560  0.1317  0.0164
  117POPC   C4A 1893   3.722   5.983   6.732 -0.3250  0.0596 -0.0321
  117POPC   C1B 1894   3.735   5.827   7.896 -0.0453 -0.3120 -0.2181
  117POPC   C2B 1895   3.994   5.857   7.501 -0.0115 -0.3396  0.0163
  117POPC   C3B 1896   3.835   6.204   7.186  0.1626 -0.1287  0.0824
  117POPC   C4B 1897   3.456   6.294   7.038  0.2175 -0.3510 -0.0942
  118POPC   NC3 1898   1.018   1.544   9.916  0.0764  0.2485 -0.0893
  118POPC   PO4 1899   1.518   1.601   9.798  0.5037 -0.0030 -0.2986
  118POPC   GL1 1900   1.251   1.817   9.516  0.0332  0.0762 -0.1228
  118POPC   GL2 1901   1.430   2.031   9.296 -0.0008 -0.0168 -0.1900
  118POPC   C1A 1902   0.965   1.660   9.320 -0.0578 -0.2616 -0.1191
  118POPC   D2A 1903   0.891   1.366   8.970  0.3095  0.1030 -0.2497
  118POPC   C3A 1904   0.558   1.377   8.791 -0.0077  0.0456 -0.2151
  118POPC   C4A 1905   0.392   1.395   8.378  0.0003 -0.3160 -0.0688
  118POPC   C1B 1906   1.313   2.362   9.018 -0.0087 -0.2658  0.0193
  118POPC   C2B 1907   1.525   2.429   8.627  0.1762 -0.3902  0.0388
  118POPC   C3B 1908   1.495   2.285   8.189  0.0718  0.2148 -0.0359
  118POPC   C4B 1909   1.250   2.390   7.763 -0.0812  0.2095  0.2547
  119POPC   NC3 1910   8.951   8.586   9.469  0.4563 -0.1406 -0.0873
  119POPC   PO4 1911   8.712   8.190   9.363 -0.0312 -0.2738  0.2056
  119POPC   GL1 1912   8.835   8.431   8.948  0.0542 -0.2465 -0.1201
  119POPC   GL2 1913   9.040   8.225   8.876  0.1203 -0.2704  0.1318
  119POPC   C1A 1914   8.978   8.692   8.526 -0.2543 -0.0388  0.1482
  119POPC   D2A 1915   9.037   8.820   8.069  0.0012  0.0172 -0.2153
  119POPC   C3A 1916   8.970   8.824   7.672 -0.1296 -0.1843 -0.0128
  119POPC   C4A 1917   9.123   8.646   7.356 -0.3318 -0.0396  0.3930
  119POPC   C1B 1918   9.307   7.891   8.674  0.0932  0.1983 -0.1050
  119POPC   C2B 1919   9.493   7.560   8.385  0.1669  0.0186 -0.1530
  119POPC   C3B 1920   9.776   7.429   8.042 -0.0645  0.2040 -0.2028
  119POPC   C4B 1921  10.136   7.221   7.887  0.1959  0.4734  0.2149
  120POPC   NC3 1922   6.596   8.713   9.184  0.0333  0.0447 -0.1813
  120POPC   PO4 1923   6.540   9.162   9.187  0.0028 -0.0722 -0.0547
  120POPC   GL1 1924   6.573   9.370   8.818 -0.0431 -0.1143 -0.1212
  120POPC   GL2 1925   6.896   9.397   8.704 -0.1917  0.3371 -0.2070
  120POPC   C1A 1926   6.591   9.424   8.319  0.0192  0.0276 -0.2388
  120POPC   D2A 1927   6.784   9.765   8.032  0.0115 -0.1798  0.1364
  120POPC   C3A 1928   6.927   9.501   7.722 -0.1391  0.0196  0.2085
  120POPC   C4A 1929   7.093   9.583   7.341  0.2139  0.1537  0.3469
  120POPC   C1B 1930   7.039   9.252   8.170  0.1044 -0.1594  0.2080
  120POPC   C2B 1931   7.269   9.108   7.750  0.0253 -0.1018  0.1034
  120POPC   C3B 1932   7.364   9.157   7.181 -0.0450  0.0329 -0.0629
  120POPC   C4B 1933   7.516   8.748   6.887 -0.2697  0.0028  0.0156
  121POPC   NC3 1934   8.766   4.608   9.499 -0.2304 -0.1677 -0.1678
  121POPC   PO4 1935   8.759   4.216   9.264  0.0661 -0.1328  0.1662
  121POPC   GL1 1936   8.750   4.335   8.893  0.0173 -0.1278  0.3067
  121POPC   GL2 1937   8.563   4.517   8.717 -0.0961 -0.1453  0.2188
  121POPC   C1A 1938   9.022   4.072   8.567 -0.0918  0.0194  0.0342
  121POPC   D2A 1939   9.361   3.993   8.346 -0.1971  0.1739  0.0540
  121POPC   C3A 1940   9.469   4.225   8.020 -0.0994  0.0203  0.2119
  121POPC   C4A 1941   9.205   4.400   7.697  0.3414 -0.2659 -0.0394
  121POPC   C1B 1942   8.582   4.414   8.312 -0.0180 -0.0842  0.0985
  121POPC   C2B 1943   8.314   4.267   7.986 -0.0838  0.0026 -0.0222
  121POPC   C3B 1944   7.899   4.065   8.034 -0.0742  0.0036 -0.0922
  121POPC   C4B 1945   7.786   4.050   8.452 -0.0305 -0.1136  0.2449
  122POPC   NC3 1946   4.114   9.325   9.292 -0.2184  0.0836 -0.0846
  122POPC   PO4 1947   4.383   9.133   8.886 -0.0025  0.1706  0.1455
  122POPC   GL1 1948   4.294   9.347   8.534  0.1601 -0.1598  0.1448
  122POPC   GL2 1949   3.914   9.334   8.350  0.0340 -0.1789 -0.0870
  122POPC   C1A 1950   4.521   9.318   8.075  0.0787 -0.1781  0.2426
  122POPC   D2A 1951   4.481   9.229   7.625  0.2388 -0.0957 -0.4845
  122POPC   C3A 1952   4.469   8.874   7.478 -0.3111 -0.2341 -0.0301
  122POPC   C4A 1953   4.396   8.658   7.092  0.0138 -0.1823 -0.2161
  122POPC   C1B 1954   4.132   8.948   8.152  0.1386  0.0765  0.0790
  122POPC   C2B 1955   4.155   8.579   7.847 -0.1540  0.2547 -0.1253
  122POPC   C3B 1956   4.158   8.261   7.463  0.0977 -0.2699  0.3216
  122POPC   C4B 1957   3.868   8.029   7.217  0.2062 -0.1029 -0.3152
  123POPC   NC3 1958   7.336   7.987   9.169 -0.0456  0.2051 -0.1975
  123POPC   PO4 1959   7.484   8.360   9.162 -0.2496  0.2641  0.0365
  123POPC   GL1 1960   7.592   8.293   8.676  0.0900 -0.0386 -0.1789
  123POPC   GL2 1961   7.805   8.614   8.586  0.2675 -0.1746 -0.2113
  123POPC   C1A 1962   7.847   8.039   8.417 -0.1778  0.1859 -0.4167
  123POPC   D2A 1963   8.060   7.953   8.056 -0.1042 -0.0195 -0.0650
  123POPC   C3A 1964   7.923   7.964   7.617  0.2310  0.0452 -0.2662
  123POPC   C4A 1965   7.560   7.920   7.243 -0.2630  0.0214 -0.1842
  123POPC   C1B 1966   7.852   8.918   8.289 -0.2577 -0.1524  0.0705
  123POPC   C2B 1967   8.063   8.888   7.896 -0.0917 -0.2659  0.1150
  123POPC   C3B 1968   8.191   8.935   7.500  0.3217 -0.1147 -0.2548
  123POPC   C4B 1969   7.956   8.822   7.079 -0.3989  0.0660 -0.2284
  124POPC   NC3 1970   7.978   8.527   9.101 -0.0535 -0.1258  0.3629
  124POPC   PO4 1971   8.093   8.977   9.173 -0.1048  0.4032 -0.4376
  124POPC   GL1 1972   8.317   9.088   8.834 -0.0360 -0.1095 -0.1031
  124POPC   GL2 1973   8.451   8.748   8.799  0.1541  0.0931 -0.0231
  124POPC   C1A 1974   8.463   9.206   8.449  0.1091  0.1161 -0.2988
  124POPC   D2A 1975   8.615   9.095   8.049  0.1316  0.1018  0.1645
  124POPC   C3A 1976   8.483   9.262   7.720 -0.1714  0.4654 -0.0278
  124POPC   C4A 1977   8.841   9.356   7.333 -0.0017 -0.3227 -0.1411
  124POPC   C1B 1978   8.533   8.689   8.401  0.2171 -0.1935 -0.0999
  124POPC   C2B 1979   8.671   8.492   8.064 -0.1709  0.2919 -0.1481
  124POPC   C3B 1980   8.976   8.371   7.808  0.1101 -0.1535  0.0968
  124POPC   C4B 1981   9.414   8.587   7.776 -0.0718  0.3550 -0.1227
  125POPC   NC3 1982   9.670   8.144   9.108  0.0278  0.2006  0.2392
  125POPC   PO4 1983  10.057   7.853   9.076 -0.1803  0.2684  0.0280
  125POPC   GL1 1984  10.171   8.038   8.685  0.1287  0.0409  0.1334
  125POPC   GL2 1985  10.139   7.735   8.569  0.1090 -0.1872  0.0892
  125POPC   C1A 1986  10.181   8.216   8.240 -0.1827 -0.0657 -0.1154
  125POPC   D2A 1987   9.948   8.365   7.913 -0.1708  0.2912 -0.2748
  125POPC   C3A 1988  10.010   8.440   7.532 -0.0689 -0.3191  0.2123
  125POPC   C4A 1989   9.678   8.256   7.216  0.0187  0.2191 -0.0865
  125POPC   C1B 1990   9.757   7.994   8.427 -0.0409 -0.4603 -0.2447
  125POPC   C2B 1991   9.503   8.138   8.150 -0.0840 -0.0991 -0.2367
  125POPC   C3B 1992   9.198   8.352   8.252 -0.3325  0.0643  0.2841
  125POPC   C4B 1993   8.751   8.258   8.509 -0.0255  0.1006  0.0203
  126POPC   NC3 1994   8.786  10.020   9.656 -0.0766 -0.1801 -0.0105
  126POPC   PO4 1995   8.368   9.909   9.564 -0.0254 -0.0749 -0.1528
  126POPC   GL1 1996   8.520  10.203   9.272 -0.3243 -0.1736 -0.0408
  126POPC   GL2 1997   8.293  10.091   9.064  0.2554 -0.5551  0.1777
  126POPC   C1A 1998   8.902  10.445   9.237  0.0758 -0.1458 -0.2620
  126POPC   D2A 1999   9.377  10.612   9.234 -0.0287 -0.2872 -0.2052
  126POPC   C3A 2000   9.614  10.679   8.788  0.2745  0.0411  0.0074
  126POPC   C4A 2001   9.983  10.908   8.706 -0.0130 -0.3120  0.0818
  126POPC   C1B 2002   8.060   9.882   8.790 -0.3066  0.0877 -0.0607
  126POPC   C2B 2003   7.965   9.587   8.447  0.1017  0.1157 -0.1979
  126POPC   C3B 2004   8.085   9.411   8.071  0.1065  0.0370 -0.1261
  126POPC   C4B 2005   8.141   9.612   7.586 -0.0771  0.0736  0.0305
  127POPC   NC3 2006   8.557   1.256   9.960 -0.2551 -0.1154  0.2300
  127POPC   PO4 2007   8.121   1.383   9.769  0.1379 -0.0486  0.0279
  127POPC   GL1 2008   8.379   1.413   9.364 -0.1536 -0.1467  0.1900
  127POPC   GL2 2009   8.660   1.415   9.439  0.1247 -0.0658  0.3581
  127POPC   C1A 2010   8.773   1.458   8.946 -0.0209 -0.0716  0.0137
  127POPC   D2A 2011   8.866   1.073   8.666 -0.1705  0.1255 -0.2307
  127POPC   C3A 2012   8.709   0.953   8.211 -0.3891 -0.1561  0.2498
  127POPC   C4A 2013   8.942   0.848   7.789 -0.0205  0.6548  0.0693
  127POPC   C1B 2014   8.952   1.051   9.232  0.1518 -0.1907 -0.0266
  127POPC   C2B 2015   9.227   0.895   8.847  0.3799  0.0651 -0.0140
  127POPC   C3B 2016   9.308   1.080   8.418 -0.0532 -0.2400 -0.1110
  127POPC   C4B 2017   9.128   1.215   8.039 -0.0148 -0.0439  0.1812
  128POPC   NC3 2018   0.585   8.400   9.712 -0.2109 -0.6085 -0.1817
  128POPC   PO4 2019   0.913   8.540   9.446 -0.1530  0.3169 -0.1696
  128POPC   GL1 2020   0.811   8.609   8.993 -0.0266  0.1234 -0.0062
  128POPC   GL2 2021   0.840   8.899   8.771 -0.0059  0.0487 -0.0537
  128POPC   C1A 2022   0.385   8.758   8.790 -0.0404  0.0629 -0.1591
  128POPC   D2A 2023   0.081   8.441   8.669  0.1272 -0.0170  0.0636
  128POPC   C3A 2024  -0.529   8.491   8.616  0.2849 -0.2336  0.2363
  128POPC   C4A 2025  -0.930   8.654   8.348 -0.2097 -0.1425  0.2138
  128POPC   C1B 2026   1.105   8.873   8.372 -0.1034 -0.1994 -0.0801
  128POPC   C2B 2027   1.354   8.887   7.962 -0.0123  0.0235 -0.2053
  128POPC   C3B 2028   1.591   9.017   7.704  0.1883 -0.3852  0.3544
  128POPC   C4B 2029   1.814   8.859   7.346  0.0990 -0.0812  0.0708
  129POPC   NC3 2030   5.802   8.022   8.944  0.2914 -0.3386  0.0290
  129POPC   PO4 2031   5.774   8.529   9.023  0.0771  0.1552 -0.0157
  129POPC   GL1 2032   5.900   8.785   8.637  0.1027 -0.1442  0.0517
  129POPC   GL2 2033   5.959   8.474   8.454 -0.1321  0.0900 -0.1002
  129POPC   C1A 2034   5.947   8.941   8.197 -0.1510 -0.1518 -0.1992
  129POPC   D2A 2035   5.868   8.812   7.867  0.1061  0.0244  0.2755
  129POPC   C3A 2036   5.511   8.915   7.575  0.0918  0.1373  0.2455
  129POPC   C4A 2037   5.403   8.885   7.176  0.1150  0.2165 -0.1690
  129POPC   C1B 2038   5.945   8.348   8.111  0.2114 -0.0428  0.3019
  129POPC   C2B 2039   6.247   8.486   7.897 -0.0478  0.0201  0.1487
  129POPC   C3B 2040   6.373   8.843   7.737 -0.0050  0.5061  0.3004
  129POPC   C4B 2041   6.718   9.039   7.756 -0.0377  0.2371 -0.2056
  130POPC   NC3 2042   2.792   1.930   9.241 -0.0500 -0.2467 -0.0106
  130POPC   PO4 2043   2.951   1.690   8.965  0.0629 -0.0304  0.0209
  130POPC   GL1 2044   2.706   1.711   8.486 -0.2124  0.0212  0.0380
  130POPC   GL2 2045   2.411   1.916   8.384  0.0097  0.1368  0.0290
  130POPC   C1A 2046   2.705   1.527   8.084 -0.0400 -0.0329  0.1276
  130POPC   D2A 2047   2.757   1.553   7.662  0.1443  0.1241 -0.1090
  130POPC   C3A 2048   2.582   1.849   7.387  0.3345 -0.0164  0.1850
  130POPC   C4A 2049   2.324   1.930   7.048 -0.0721  0.4026  0.4655
  130POPC   C1B 2050   2.299   1.892   7.863 -0.0798  0.3447 -0.0115
  130POPC   C2B 2051   1.988   1.748   7.456  0.0540  0.0860 -0.2556
  130POPC   C3B 2052   1.831   1.938   7.075  0.2879  0.0980 -0.0917
  130POPC   C4B 2053   1.527   2.316   6.900 -0.2755  0.2529 -0.0968
  131POPC   NC3 2054   2.096   9.902   9.533  0.2377  0.1296  0.0325
  131POPC   PO4 2055   1.648  10.110   9.510  0.0486 -0.1208 -0.1062
  131POPC   GL1 2056   1.536   9.938   9.236 -0.0644 -0.0193  0.2787
  131POPC   GL2 2057   1.693   9.559   9.149  0.3944  0.1914 -0.2032
  131POPC   C1A 2058   1.198   9.816   8.879  0.0465 -0.2363  0.1814
  131POPC   D2A 2059   0.986   9.830   8.569 -0.4439  0.0976  0.0543
  131POPC   C3A 2060   1.033  10.190   8.278 -0.0982 -0.0005 -0.0628
  131POPC   C4A 2061   1.184  10.346   7.867  0.3297 -0.0422  0.2104
  131POPC   C1B 2062   1.779   9.798   8.754 -0.1417 -0.2506 -0.1994
  131POPC   C2B 2063   1.481   9.827   8.438 -0.0348  0.0682 -0.1754
  131POPC   C3B 2064   1.339   9.862   8.039 -0.2202  0.3162  0.0209
  131POPC   C4B 2065   1.541   9.995   7.712  0.2161  0.2285 -0.1187
  132POPC   NC3 2066   2.032   6.357   9.125  0.0940  0.2796 -0.0688
  132POPC   PO4 2067   2.151   6.422   8.748  0.2179 -0.5045 -0.0258
  132POPC   GL1 2068   2.147   6.302   8.406 -0.1410 -0.0053  0.1538
  132POPC   GL2 2069   2.265   6.553   8.287  0.0644  0.1192  0.1273
  132POPC   C1A 2070   2.233   6.005   8.069 -0.2426  0.1158  0.2024
  132POPC   D2A 2071   2.253   5.697   7.735 -0.0165 -0.3130  0.1284
  132POPC   C3A 2072   2.163   5.374   7.438  0.1512 -0.1614 -0.1185
  132POPC   C4A 2073   2.256   5.243   6.994  0.0100  0.0442 -0.1579
  132POPC   C1B 2074   2.564   6.816   8.083 -0.0058  0.0541 -0.0018
  132POPC   C2B 2075   2.719   6.809   7.755  0.0248  0.1488  0.2155
  132POPC   C3B 2076   3.092   6.853   7.454  0.1141 -0.1535 -0.3468
  132POPC   C4B 2077   3.217   6.784   7.069 -0.1170 -0.2859  0.3056
  133POPC   NC3 2078   8.702   6.007   8.980  0.1023 -0.3463 -0.0640
  133POPC   PO4 2079   8.819   5.579   9.102 -0.3380 -0.0348 -0.3190
  133POPC   GL1 2080   8.657   5.521   8.694 -0.0100 -0.0806  0.1546
  133POPC   GL2 2081   8.317   5.437   8.669  0.0520  0.1974  0.0385
  133POPC   C1A 2082   8.565   5.565   8.213  0.0615  0.0899 -0.0439
  133POPC   D2A 2083   8.737   5.641   7.780  0.1340 -0.1566  0.1419
  133POPC   C3A 2084   9.127   5.481   7.645  0.0420 -0.0278  0.0073
  133POPC   C4A 2085   9.560   5.389   7.344  0.3166 -0.3720 -0.1786
  133POPC   C1B 2086   8.364   5.103   8.370  0.0846 -0.2131 -0.0372
  133POPC   C2B 2087   8.631   4.835   8.098  0.3008 -0.0279 -0.0033
  133POPC   C3B 2088   8.758   4.591   7.858  0.0618  0.1669 -0.0903
  133POPC   C4B 2089   8.535   4.310   7.527  0.1738 -0.0580 -0.1920
  134POPC   NC3 2090   3.951   9.737   8.653 -0.1810  0.2062  0.4788
  134POPC   PO4 2091   3.570   9.620   8.574  0.0345 -0.5943  0.1747
  134POPC   GL1 2092   3.250   9.441   8.328 -0.0573  0.1400 -0.1654
  134POPC   GL2 2093   3.442   9.198   8.217 -0.3176  0.0155  0.0136
  134POPC   C1A 2094   3.015   9.683   8.010  0.1728  0.3469 -0.0918
  134POPC   D2A 2095   2.981   9.713   7.551  0.0041  0.2371 -0.1230
  134POPC   C3A 2096   2.705   9.455   7.271  0.0079  0.2665  0.3517
  134POPC   C4A 2097   2.362   9.409   7.194  0.1744  0.4674  0.0685
  134POPC   C1B 2098   3.708   9.113   7.862  0.0110  0.0754 -0.2571
  134POPC   C2B 2099   3.946   8.896   7.480  0.2194 -0.0366  0.2315
  134POPC   C3B 2100   3.925   8.567   7.134  0.0721  0.0262 -0.0473
  134POPC   C4B 2101   4.109   8.282   6.793  0.2732  0.1689 -0.1566
  135POPC   NC3 2102   7.339  10.124   9.006  0.0161 -0.0571  0.0145
  135POPC   PO4 2103   7.258   9.655   9.016 -0.0004 -0.0098  0.2309
  135POPC   GL1 2104   7.444   9.765   8.648  0.1753  0.2999  0.0494
  135POPC   GL2 2105   7.214   9.683   8.361 -0.2833  0.3027 -0.1703
  135POPC   C1A 2106   7.665  10.082   8.422  0.1010  0.3587 -0.0329
  135POPC   D2A 2107   8.071  10.231   8.482 -0.2763  0.1424  0.0046
  135POPC   C3A 2108   8.543  10.035   8.591 -0.0552 -0.0520 -0.2072
  135POPC   C4A 2109   8.466   9.612   8.797  0.1835 -0.0569  0.0114
  135POPC   C1B 2110   7.360   9.694   7.873  0.0682 -0.0259 -0.1460
  135POPC   C2B 2111   7.556   9.760   7.485  0.2425 -0.0764 -0.2555
  135POPC   C3B 2112   7.922  10.033   7.506  0.0001 -0.2534  0.0212
  135POPC   C4B 2113   8.154  10.135   7.180  0.3254 -0.3212 -0.2421
  136POPC   NC3 2114   5.575   1.501   8.489  0.1252  0.0500 -0.1313
  136POPC   PO4 2115   5.274   1.877   8.533 -0.0782  0.0121 -0.4264
  136POPC   GL1 2116   5.508   1.878   8.224 -0.1420 -0.0988  0.0113
  136POPC   GL2 2117   5.711   2.075   7.936  0.1419  0.1107 -0.1253
  136POPC   C1A 2118   5.346   1.678   7.863  0.0503 -0.0527 -0.1270
  136POPC   D2A 2119   4.876   1.792   7.646  0.0484  0.0901  0.1620
  136POPC   C3A 2120   4.570   1.533   7.387 -0.0295 -0.0799 -0.2914
  136POPC   C4A 2121   4.098   1.361   7.259  0.1670  0.0386 -0.1455
  136POPC   C1B 2122   5.555   1.977   7.509 -0.1588  0.0325  0.2699
  136POPC   C2B 2123   5.673   1.880   7.152  0.4762  0.1888 -0.0956
  136POPC   C3B 2124   5.767   1.764   6.751  0.2921  0.1142 -0.0706
  136POPC   C4B 2125   5.996   1.937   6.404  0.2819 -0.0486 -0.0938
  137POPC   NC3 2126   2.362   2.960   9.168 -0.0539 -0.0735  0.3106
  137POPC   PO4 2127   1.983   3.189   9.215  0.3085 -0.0442 -0.1545
  137POPC   GL1 2128   2.020   3.055   8.761  0.0335 -0.2459 -0.0840
  137POPC   GL2 2129   1.968   2.757   8.650  0.0576 -0.3182 -0.1782
  137POPC   C1A 2130   1.758   3.368   8.396  0.2808 -0.2557 -0.0803
  137POPC   D2A 2131   1.651   3.625   7.954  0.1893  0.0348  0.0544
  137POPC   C3A 2132   1.899   3.537   7.629  0.2889 -0.2241 -0.1748
  137POPC   C4A 2133   2.098   3.369   7.289  0.0377  0.0065  0.2472
  137POPC   C1B 2134   2.085   3.005   8.261  0.0441  0.1095  0.0843
  137POPC   C2B 2135   2.259   3.438   8.136 -0.2520  0.2492 -0.2383
  137POPC   C3B 2136   2.353   3.578   7.749 -0.0521 -0.2396  0.0067
  137POPC   C4B 2137   2.402   3.758   7.385 -0.0245  0.0784  0.1075
  138POPC   NC3 2138   4.432   7.049   8.616 -0.2326 -0.2465 -0.0183
  138POPC   PO4 2139   4.484   6.656   8.311 -0.1678 -0.1361 -0.2689
  138POPC   GL1 2140   4.415   6.656   7.878 -0.4658  0.2993 -0.2194
  138POPC   GL2 2141   4.705   6.439   7.815 -0.1490  0.1648  0.3140
  138POPC   C1A 2142   4.472   6.968   7.503  0.1068 -0.1386 -0.0482
  138POPC   D2A 2143   4.409   7.351   7.247  0.2036  0.0391  0.0491
  138POPC   C3A 2144   4.435   7.342   6.893  0.1691 -0.1414  0.0266
  138POPC   C4A 2145   4.237   7.345   6.513  0.0742  0.1234 -0.1146
  138POPC   C1B 2146   4.939   6.734   7.656  0.0214  0.1608  0.0322
  138POPC   C2B 2147   5.304   6.929   7.442  0.1407  0.2428  0.0036
  138POPC   C3B 2148   5.721   7.168   7.380 -0.2540  0.0504  0.1368
  138POPC   C4B 2149   6.181   7.177   7.264  0.1806 -0.0914  0.2679
  139POPC   NC3 2150   4.987   7.435   8.516 -0.0511 -0.0105  0.0979
  139POPC   PO4 2151   4.606   7.501   8.678  0.0970 -0.3363 -0.1922
  139POPC   GL1 2152   4.488   7.391   8.249 -0.4327  0.0995  0.1825
  139POPC   GL2 2153   4.280   7.118   8.173  0.2352 -0.0659 -0.1059
  139POPC   C1A 2154   4.438   7.410   7.799  0.1368 -0.2725 -0.3044
  139POPC   D2A 2155   4.114   7.557   7.559 -0.0557 -0.0906 -0.4437
  139POPC   C3A 2156   4.300   7.805   7.315  0.1374 -0.3375  0.0856
  139POPC   C4A 2157   4.514   8.167   7.067  0.0588 -0.1098  0.1061
  139POPC   C1B 2158   4.054   7.114   7.762  0.3441 -0.0534 -0.3392
  139POPC   C2B 2159   3.931   7.187   7.359  0.0306 -0.2724  0.0067
  139POPC   C3B 2160   3.972   7.508   7.076 -0.1384 -0.0392  0.2290
  139POPC   C4B 2161   3.715   7.810   6.786  0.1147  0.1146  0.3182
  140POPC   NC3 2162   4.651   4.559   8.494  0.1334 -0.1155  0.0624
  140POPC   PO4 2163   4.855   4.911   8.509 -0.0882  0.1911 -0.0186
  140POPC   GL1 2164   4.839   4.769   8.036  0.0649  0.1911  0.0655
  140POPC   GL2 2165   5.018   4.479   7.945 -0.0643 -0.0089 -0.0998
  140POPC   C1A 2166   4.955   4.881   7.552 -0.2089  0.0660  0.1600
  140POPC   D2A 2167   5.036   4.862   7.106  0.3948 -0.0247  0.2026
  140POPC   C3A 2168   5.187   4.479   6.959 -0.1658  0.3410 -0.1987
  140POPC   C4A 2169   5.218   4.019   6.910  0.0555  0.0514  0.1895
  140POPC   C1B 2170   5.239   4.278   7.503  0.0649  0.0976 -0.0449
  140POPC   C2B 2171   5.579   4.239   7.297  0.1903  0.0653  0.1685
  140POPC   C3B 2172   5.781   4.305   6.945  0.3347  0.1461 -0.1068
  140POPC   C4B 2173   5.500   4.400   6.550  0.2574  0.1112 -0.2725
  141POPC   NC3 2174   3.917   7.037   8.547  0.0945 -0.0788  0.2063
  141POPC   PO4 2175   3.648   6.678   8.792 -0.1862 -0.1191 -0.2305
  141POPC   GL1 2176   3.479   6.680   8.367  0.0741 -0.0117  0.0178
  141POPC   GL2 2177   3.852   6.766   8.127  0.0579  0.0547 -0.3491
  141POPC   C1A 2178   3.527   6.380   7.969  0.5035 -0.2652  0.0059
  141POPC   D2A 2179   3.557   6.114   7.580 -0.2266 -0.3405 -0.2452
  141POPC   C3A 2180   3.197   5.924   7.357  0.1768 -0.0375  0.3283
  141POPC   C4A 2181   3.016   5.694   6.965  0.2382  0.0099 -0.2459
  141POPC   C1B 2182   3.931   6.592   7.753  0.0651 -0.1537 -0.1048
  141POPC   C2B 2183   4.134   6.601   7.382  0.2017  0.0551  0.1525
  141POPC   C3B 2184   4.304   6.536   6.993 -0.2205  0.1708  0.0919
  141POPC   C4B 2185   4.806   6.444   6.793  0.0542  0.2961 -0.1252
  142POPC   NC3 2186   6.595   4.325   8.833  0.0929  0.0193 -0.1078
  142POPC   PO4 2187   7.004   4.585   8.818  0.2858 -0.0838  0.0453
  142POPC   GL1 2188   7.013   4.622   8.377 -0.1830  0.1457 -0.1852
  142POPC   GL2 2189   7.308   4.695   8.398  0.1135  0.0042  0.1130
  142POPC   C1A 2190   6.908   4.629   7.943  0.2846 -0.1301 -0.2428
  142POPC   D2A 2191   7.052   4.809   7.537 -0.3871 -0.0980  0.0429
  142POPC   C3A 2192   6.827   4.725   7.196  0.3179 -0.1023  0.1475
  142POPC   C4A 2193   6.429   4.825   7.086 -0.1045 -0.2014 -0.1849
  142POPC   C1B 2194   7.420   4.846   8.043 -0.0372  0.0420  0.3543
  142POPC   C2B 2195   7.633   4.846   7.700  0.0193 -0.0850  0.2239
  142POPC   C3B 2196   7.593   4.924   7.281 -0.0334  0.1150  0.1395
  142POPC   C4B 2197   7.833   4.741   6.967  0.0934 -0.0137  0.0317
  143POPC   NC3 2198   8.039   5.517   9.393  0.0865  0.1431 -0.2414
  143POPC   PO4 2199   7.813   5.322   8.967 -0.0404 -0.1854  0.1068
  143POPC   GL1 2200   7.890   5.236   8.562  0.0652 -0.2260  0.3158
  143POPC   GL2 2201   7.748   4.993   8.379 -0.0807  0.1920  0.1983
  143POPC   C1A 2202   8.081   5.535   8.251  0.0621 -0.1345  0.0012
  143POPC   D2A 2203   8.282   5.344   7.838  0.3098 -0.0263 -0.0110
  143POPC   C3A 2204   8.029   5.327   7.519  0.1174  0.0546  0.3235
  143POPC   C4A 2205   8.069   5.046   7.305  0.0725  0.3245 -0.0030
  143POPC   C1B 2206   7.921   5.035   8.088  0.0018  0.2018  0.0569
  143POPC   C2B 2207   8.190   4.823   7.847  0.2861  0.1803 -0.1743
  143POPC   C3B 2208   8.517   4.792   7.438 -0.2030  0.1605 -0.1838
  143POPC   C4B 2209   8.542   4.966   6.996 -0.2151 -0.1420 -0.0068
  144POPC   NC3 2210   8.343   6.721   9.271 -0.0530 -0.2920  0.1482
  144POPC   PO4 2211   8.276   6.348   9.048  0.1877 -0.0150  0.1375
  144POPC   GL1 2212   8.524   6.340   8.562  0.0727 -0.2364 -0.1470
  144POPC   GL2 2213   8.790   5.970   8.495 -0.1697 -0.0458 -0.4850
  144POPC   C1A 2214   8.566   6.530   8.188 -0.1112  0.2365 -0.0505
  144POPC   D2A 2215   8.436   6.607   7.802 -0.0341 -0.1318 -0.0236
  144POPC   C3A 2216   8.378   6.787   7.347  0.4133 -0.1008 -0.0691
  144POPC   C4A 2217   8.164   7.131   7.189  0.1601  0.2018  0.3837
  144POPC   C1B 2218   8.999   6.210   8.077  0.1694  0.0290 -0.3035
  144POPC   C2B 2219   9.025   6.032   7.736 -0.1917  0.1233  0.2943
  144POPC   C3B 2220   9.023   5.982   7.279 -0.1556 -0.0588 -0.1762
  144POPC   C4B 2221   9.159   6.455   7.205  0.1186 -0.0969 -0.1741
  145POPC   NC3 2222   0.784   4.725   9.451 -0.2598  0.0047 -0.0368
  145POPC   PO4 2223   0.466   4.607   9.148 -0.0601 -0.2202  0.4235
  145POPC   GL1 2224   0.340   4.426   8.721 -0.2347 -0.0721 -0.1800
  145POPC   GL2 2225   0.414   4.495   8.342  0.0569 -0.0205 -0.1616
  145POPC   C1A 2226  -0.082   4.345   8.503  0.1564  0.0159  0.1003
  145POPC   D2A 2227  -0.308   4.298   8.168  0.0692 -0.2924  0.1423
  145POPC   C3A 2228  -0.378   4.273   7.782 -0.2094  0.0806 -0.1880
  145POPC   C4A 2229  -0.112   4.148   7.429 -0.0006  0.0758  0.0193
  145POPC   C1B 2230   0.270   4.155   8.226 -0.0750 -0.0949  0.3737
  145POPC   C2B 2231   0.121   4.115   7.843 -0.0389  0.0703 -0.0605
  145POPC   C3B 2232   0.357   3.926   7.475 -0.2176 -0.1040  0.1754
  145POPC   C4B 2233   0.731   3.972   7.326  0.0079  0.0110  0.3498
  146POPC   NC3 2234   0.523   3.882   9.862  0.1382 -0.0465  0.1114
  146POPC   PO4 2235   0.501   3.680   9.510 -0.0193  0.2383 -0.2049
  146POPC   GL1 2236   0.402   3.658   9.063 -0.0071  0.0363  0.1247
  146POPC   GL2 2237   0.212   3.907   9.027 -0.1849  0.0678  0.1200
  146POPC   C1A 2238   0.293   3.492   8.643  0.0752 -0.2543  0.0288
  146POPC   D2A 2239   0.055   3.216   8.507 -0.1452 -0.2070  0.0039
  146POPC   C3A 2240   0.267   2.853   8.605 -0.0639 -0.0964  0.2398
  146POPC   C4A 2241   0.159   2.442   8.687  0.0061  0.0785  0.1131
  146POPC   C1B 2242  -0.071   3.840   8.604 -0.0090  0.4071 -0.0979
  146POPC   C2B 2243   0.059   3.663   8.238 -0.2934 -0.0218  0.0639
  146POPC   C3B 2244   0.296   3.628   7.887  0.0421 -0.1320  0.0761
  146POPC   C4B 2245   0.375   3.330   7.541  0.1994 -0.1842  0.4606
  147POPC   NC3 2246   5.171   1.081   8.816  0.1606  0.3738  0.2352
  147POPC   PO4 2247   5.453   0.941   8.424 -0.2360 -0.0574 -0.0808
  147POPC   GL1 2248   5.302   0.753   7.966  0.1121 -0.1103 -0.0008
  147POPC   GL2 2249   5.213   0.427   8.120  0.0516  0.1681  0.0708
  147POPC   C1A 2250   4.994   0.744   7.709 -0.2713  0.1335  0.1548
  147POPC   D2A 2251   4.717   0.896   7.372 -0.1418 -0.0948 -0.1376
  147POPC   C3A 2252   4.711   0.874   6.980 -0.1990 -0.0789 -0.0739
  147POPC   C4A 2253   4.352   0.912   6.863  0.1701 -0.1186 -0.3091
  147POPC   C1B 2254   5.570   0.403   7.657  0.2450 -0.3352 -0.0184
  147POPC   C2B 2255   5.623   0.698   7.478  0.0796 -0.2115 -0.1252
  147POPC   C3B 2256   5.780   0.990   7.301 -0.0669  0.1928 -0.0352
  147POPC   C4B 2257   6.221   1.092   7.485 -0.1789  0.2017  0.0747
  148POPC   NC3 2258   2.090   0.941   9.349 -0.0235  0.1035 -0.1512
  148POPC   PO4 2259   1.750   1.136   9.643 -0.0278  0.0654 -0.0295
  148POPC   GL1 2260   1.417   1.229   9.457 -0.0977  0.1252 -0.2607
  148POPC   GL2 2261   1.426   1.505   9.128  0.2061 -0.0761  0.0913
  148POPC   C1A 2262   1.299   1.023   9.073  0.0257 -0.1475  0.0919
  148POPC   D2A 2263   1.113   0.671   9.051 -0.2693 -0.1240  0.0917
  148POPC   C3A 2264   1.420   0.382   8.779  0.2025 -0.1348  0.1251
  148POPC   C4A 2265   1.562   0.468   8.311 -0.0127  0.1137  0.0688
  148POPC   C1B 2266   1.336   1.293   8.664 -0.0885 -0.1944 -0.0743
  148POPC   C2B 2267   1.370   1.603   8.307  0.4417  0.2475  0.1424
  148POPC   C3B 2268   1.173   1.882   8.032 -0.1513  0.0560 -0.1191
  148POPC   C4B 2269   0.910   2.195   8.024 -0.2383  0.3761 -0.2956
  149POPC   NC3 2270   2.321   6.953   8.623  0.2140  0.0925 -0.2036
  149POPC   PO4 2271   2.406   7.388   8.449 -0.2330  0.1105 -0.2527
  149POPC   GL1 2272   2.116   7.727   8.348  0.1036 -0.4327  0.0034
  149POPC   GL2 2273   1.800   7.712   8.462  0.0971 -0.1220 -0.1525
  149POPC   C1A 2274   1.976   7.952   8.007  0.1781  0.1970  0.3175
  149POPC   D2A 2275   1.944   8.079   7.561  0.1613  0.2638  0.1054
  149POPC   C3A 2276   2.267   7.969   7.221 -0.1657  0.1612 -0.0982
  149POPC   C4A 2277   2.487   7.918   6.797 -0.0324 -0.1322 -0.2899
  149POPC   C1B 2278   1.451   7.737   8.101  0.2263 -0.4252  0.2150
  149POPC   C2B 2279   1.498   7.993   7.733 -0.0935 -0.2545 -0.0240
  149POPC   C3B 2280   1.505   7.976   7.246  0.2027 -0.0547 -0.0304
  149POPC   C4B 2281   1.770   7.945   6.904 -0.0186  0.0902  0.0841
  150POPC   NC3 2282   2.202   2.485   9.651 -0.1415  0.0155  0.2016
  150POPC   PO4 2283   2.445   2.369   9.307 -0.0521  0.2731  0.1030
  150POPC   GL1 2284   2.300   2.405   8.880  0.3590 -0.0931 -0.1348
  150POPC   GL2 2285   2.111   2.270   8.770 -0.1241  0.1792  0.1005
  150POPC   C1A 2286   2.449   2.553   8.474 -0.1496 -0.2218 -0.1096
  150POPC   D2A 2287   2.434   2.511   8.069 -0.0655  0.0491  0.1053
  150POPC   C3A 2288   2.104   2.762   7.846 -0.0522 -0.0892  0.0099
  150POPC   C4A 2289   1.800   3.155   7.948  0.0169  0.0116  0.1409
  150POPC   C1B 2290   1.956   2.365   8.355 -0.0835 -0.1571  0.0985
  150POPC   C2B 2291   1.949   2.307   7.940  0.2670 -0.0992  0.1739
  150POPC   C3B 2292   2.191   2.281   7.599  0.1109 -0.1815 -0.1072
  150POPC   C4B 2293   2.688   2.332   7.639  0.1754 -0.0148  0.0628
  151POPC   NC3 2294   7.470   1.215   9.324  0.0257  0.1795 -0.1169
  151POPC   PO4 2295   7.532   1.661   9.591  0.0324 -0.1620 -0.1895
  151POPC   GL1 2296   7.906   1.448   9.328 -0.2025  0.0261  0.1053
  151POPC   GL2 2297   7.885   1.124   9.070  0.0026  0.0737 -0.1237
  151POPC   C1A 2298   8.202   1.575   8.919  0.0978 -0.0522  0.0561
  151POPC   D2A 2299   7.984   1.784   8.526 -0.0179 -0.2246 -0.0933
  151POPC   C3A 2300   8.351   1.783   8.302 -0.1103  0.0322 -0.1014
  151POPC   C4A 2301   8.546   1.890   7.961  0.2122 -0.2345  0.1073
  151POPC   C1B 2302   7.898   1.242   8.672  0.2549 -0.0433  0.0674
  151POPC   C2B 2303   7.943   1.282   8.250  0.2894  0.0748 -0.0282
  151POPC   C3B 2304   8.395   1.331   8.058  0.0829  0.2465 -0.2164
  151POPC   C4B 2305   8.678   1.443   7.851 -0.1929  0.0096  0.0272
  152POPC   NC3 2306   7.475   7.374   9.829  0.1649  0.0703 -0.0073
  152POPC   PO4 2307   7.400   7.498   9.309  0.2362 -0.2323  0.2148
  152POPC   GL1 2308   7.292   7.608   8.865 -0.3014  0.0287  0.2711
  152POPC   GL2 2309   7.601   7.579   8.726 -0.2083 -0.1408  0.0424
  152POPC   C1A 2310   7.134   7.889   8.593 -0.0201  0.0894 -0.0899
  152POPC   D2A 2311   6.729   8.159   8.538 -0.2843  0.0692 -0.1249
  152POPC   C3A 2312   6.434   8.525   8.433 -0.0405  0.1013  0.1796
  152POPC   C4A 2313   6.424   8.950   8.249 -0.1700  0.0662 -0.0111
  152POPC   C1B 2314   7.506   7.602   8.382 -0.0535 -0.1873  0.3219
  152POPC   C2B 2315   7.450   7.924   7.997  0.3031 -0.0393  0.0097
  152POPC   C3B 2316   7.335   8.163   7.649  0.0058 -0.0208  0.0495
  152POPC   C4B 2317   7.056   8.260   7.349  0.1036  0.1063 -0.2199
  153POPC   NC3 2318   1.654   3.293   9.683  0.3045 -0.2353  0.3030
  153POPC   PO4 2319   1.597   2.877   9.425  0.0273  0.2057 -0.2615
  153POPC   GL1 2320   1.399   2.969   8.959 -0.1529 -0.1156  0.2053
  153POPC   GL2 2321   1.564   3.280   8.862 -0.0581  0.1632 -0.0197
  153POPC   C1A 2322   1.191   3.290   8.589  0.0400 -0.3207 -0.1942
  153POPC   D2A 2323   1.223   3.346   8.166  0.0783 -0.0318 -0.3256
  153POPC   C3A 2324   1.268   2.966   7.976 -0.1171 -0.0129 -0.0798
  153POPC   C4A 2325   0.916   2.734   7.758 -0.0588  0.0266  0.3376
  153POPC   C1B 2326   1.509   2.908   8.436 -0.1788 -0.1536  0.1484
  153POPC   C2B 2327   1.699   2.679   8.071 -0.4022 -0.0103  0.0687
  153POPC   C3B 2328   1.653   2.703   7.669 -0.0467  0.1711 -0.0959
  153POPC   C4B 2329   1.829   2.392   7.278 -0.1768  0.2528 -0.0132
  154POPC   NC3 2330   3.720   8.453   8.843  0.1337 -0.1192 -0.1598
  154POPC   PO4 2331   3.640   8.055   8.985  0.0590  0.2189  0.1401
  154POPC   GL1 2332   3.744   7.990   8.521 -0.0385 -0.1354 -0.2406
  154POPC   GL2 2333   3.930   8.216   8.439 -0.1007 -0.0920  0.0013
  154POPC   C1A 2334   3.413   8.004   8.137 -0.1591 -0.1573  0.0685
  154POPC   D2A 2335   3.301   8.209   7.750 -0.2967 -0.1486  0.1952
  154POPC   C3A 2336   3.134   7.978   7.488  0.1494 -0.0580  0.0424
  154POPC   C4A 2337   2.780   8.178   7.165  0.1761  0.0738 -0.2230
  154POPC   C1B 2338   3.859   8.151   8.092  0.2788  0.4660 -0.1664
  154POPC   C2B 2339   3.840   7.958   7.743  0.0475  0.2502 -0.3106
  154POPC   C3B 2340   3.612   7.716   7.546 -0.1923 -0.0248 -0.0600
  154POPC   C4B 2341   3.446   7.663   7.184 -0.0137 -0.0945  0.3656
  155POPC   NC3 2342   6.852   5.861   8.978  0.0999 -0.0652 -0.0616
  155POPC   PO4 2343   6.407   5.749   8.895 -0.1559  0.1382  0.0149
  155POPC   GL1 2344   6.622   5.861   8.509 -0.0256 -0.2521 -0.3236
  155POPC   GL2 2345   6.322   5.824   8.294  0.1068 -0.3001  0.0071
  155POPC   C1A 2346   6.820   6.081   8.204  0.1501  0.1526  0.3489
  155POPC   D2A 2347   7.006   6.381   8.205 -0.0201 -0.1697 -0.1143
  155POPC   C3A 2348   7.021   6.420   7.805 -0.0279  0.1822 -0.3594
  155POPC   C4A 2349   7.100   6.648   7.496  0.0113 -0.0134 -0.0932
  155POPC   C1B 2350   6.418   6.095   7.867 -0.1067 -0.0852  0.1601
  155POPC   C2B 2351   6.583   6.355   7.476  0.1446 -0.0153  0.1787
  155POPC   C3B 2352   6.380   6.722   7.226 -0.2682  0.1557 -0.0612
  155POPC   C4B 2353   5.925   6.708   7.258  0.1807 -0.0752 -0.0688
  156POPC   NC3 2354   9.551  10.055  10.081  0.2325  0.0272 -0.0556
  156POPC   PO4 2355   9.288  10.161   9.775  0.2161  0.1854 -0.1782
  156POPC   GL1 2356   9.175  10.071   9.358 -0.1348 -0.0267  0.1917
  156POPC   GL2 2357   9.139   9.758   9.200  0.1848 -0.0971  0.1937
  156POPC   C1A 2358   9.297  10.209   8.892  0.0537 -0.0515  0.0742
  156POPC   D2A 2359   9.440  10.310   8.449  0.3018 -0.0841 -0.0701
  156POPC   C3A 2360   9.865  10.228   8.386 -0.2131 -0.3484 -0.1560
  156POPC   C4A 2361  10.106   9.938   8.287  0.4676  0.1704  0.1935
  156POPC   C1B 2362   8.940   9.825   8.767 -0.1639 -0.0394  0.2540
  156POPC   C2B 2363   9.125   9.825   8.370 -0.2383  0.0485  0.4136
  156POPC   C3B 2364   9.140   9.622   7.999 -0.1396  0.1120 -0.1156
  156POPC   C4B 2365   8.976   9.359   7.806 -0.3617 -0.0023 -0.2028
  157POPC   NC3 2366   2.713   2.096   8.766  0.0918  0.0244  0.1547
  157POPC   PO4 2367   2.438   1.773   8.919 -0.1108  0.1537 -0.0667
  157POPC   GL1 2368   2.206   1.526   8.631 -0.2379  0.2000  0.1715
  157POPC   GL2 2369   2.341   1.296   8.426  0.4257 -0.1292  0.0155
  157POPC   C1A 2370   1.823   1.298   8.573 -0.1053 -0.2030  0.0375
  157POPC   D2A 2371   1.577   0.852   8.715 -0.1805  0.1801 -0.3808
  157POPC   C3A 2372   1.143   0.693   8.528  0.4807 -0.0887  0.0142
  157POPC   C4A 2373   1.025   0.617   8.123 -0.3182  0.2204  0.0783
  157POPC   C1B 2374   2.040   1.351   8.166  0.3272 -0.0820  0.0894
  157POPC   C2B 2375   1.813   1.366   7.808  0.3416 -0.0540  0.2200
  157POPC   C3B 2376   1.341   1.435   7.790  0.3754 -0.0283 -0.0028
  157POPC   C4B 2377   1.000   1.645   7.532  0.1033  0.3277  0.0887
  158POPC   NC3 2378   0.901   4.608   8.855  0.1910  0.3058  0.1533
  158POPC   PO4 2379   0.872   4.224   9.185  0.0518  0.0524  0.0576
  158POPC   GL1 2380   0.704   4.094   8.728 -0.4919 -0.3086  0.1209
  158POPC   GL2 2381   0.769   3.743   8.667  0.0180  0.0939 -0.1337
  158POPC   C1A 2382   0.758   4.143   8.274 -0.1014 -0.1557  0.0861
  158POPC   D2A 2383   0.639   4.160   7.875 -0.3864 -0.0038  0.0715
  158POPC   C3A 2384   0.555   4.669   7.768  0.1163 -0.2436  0.0003
  158POPC   C4A 2385   0.783   5.008   7.989 -0.1385  0.0495 -0.0619
  158POPC   C1B 2386   0.690   3.607   8.210 -0.2489  0.1959  0.0308
  158POPC   C2B 2387   0.735   3.616   7.732 -0.0876  0.2351  0.0202
  158POPC   C3B 2388   0.831   3.250   7.781 -0.0199  0.1982 -0.2182
  158POPC   C4B 2389   1.068   2.985   7.344 -0.3907 -0.0250  0.1404
  159POPC   NC3 2390   6.423   4.847   9.035 -0.0701  0.0397  0.0471
  159POPC   PO4 2391   6.237   5.206   8.794  0.0153 -0.2148  0.4982
  159POPC   GL1 2392   6.394   5.265   8.375  0.2786 -0.1271 -0.3923
  159POPC   GL2 2393   6.201   5.310   8.089  0.2547 -0.0006 -0.0021
  159POPC   C1A 2394   6.671   5.378   8.098  0.0352 -0.2706  0.2259
  159POPC   D2A 2395   6.690   5.728   7.812  0.0101  0.0259  0.2220
  159POPC   C3A 2396   6.604   5.703   7.477  0.1303 -0.0896  0.0836
  159POPC   C4A 2397   6.410   5.781   6.979 -0.1196  0.1001  0.1102
  159POPC   C1B 2398   6.145   5.558   7.802  0.2601 -0.2469 -0.1539
  159POPC   C2B 2399   5.913   5.687   7.353 -0.2364  0.1050  0.1382
  159POPC   C3B 2400   5.713   5.933   7.016  0.1642 -0.0426 -0.0811
  159POPC   C4B 2401   5.360   6.250   6.836  0.1321  0.0738 -0.0629
  160POPC   NC3 2402   1.382   8.494   9.358 -0.0221  0.2870  0.2166
  160POPC   PO4 2403   1.418   8.085   9.162 -0.0205 -0.0643  0.3287
  160POPC   GL1 2404   1.254   8.384   8.919 -0.0824 -0.2072 -0.0409
  160POPC   GL2 2405   1.285   8.651   8.842 -0.1738 -0.3712 -0.0511
  160POPC   C1A 2406   0.965   8.430   8.547 -0.0986 -0.1670  0.0775
  160POPC   D2A 2407   0.652   8.285   8.187 -0.0201 -0.0147  0.0090
  160POPC   C3A 2408   0.547   8.090   7.803  0.1098  0.0376 -0.0545
  160POPC   C4A 2409   0.353   8.120   7.502 -0.1324  0.0396 -0.0889
  160POPC   C1B 2410   1.564   8.613   8.507  0.2377 -0.0090 -0.5468
  160POPC   C2B 2411   1.806   8.883   8.220 -0.0561  0.0153  0.1531
  160POPC   C3B 2412   2.009   8.678   7.832  0.0367  0.3324 -0.0220
  160POPC   C4B 2413   2.304   8.579   7.510  0.0067  0.1185  0.0509
  161POPC   NC3 2414   9.776   6.335  10.120  0.0594 -0.4203  0.3317
  161POPC   PO4 2415   9.899   6.480   9.605  0.0994  0.1654  0.1019
  161POPC   GL1 2416   9.592   6.369   9.183  0.2308  0.3195 -0.2428
  161POPC   GL2 2417   9.540   6.546   8.825  0.1859  0.1761  0.2366
  161POPC   C1A 2418   9.368   6.089   8.944  0.1691 -0.1433  0.0097
  161POPC   D2A 2419   9.438   6.029   8.514  0.1752 -0.1532  0.1093
  161POPC   C3A 2420   9.467   5.973   7.947  0.3592  0.1183 -0.0481
  161POPC   C4A 2421   9.492   6.083   7.418 -0.1680 -0.3240  0.4285
  161POPC   C1B 2422   9.574   6.488   8.395  0.3518  0.2050  0.1663
  161POPC   C2B 2423   9.421   6.507   7.959  0.0215 -0.0244  0.0560
  161POPC   C3B 2424   9.500   6.653   7.558  0.0365 -0.0215  0.0404
  161POPC   C4B 2425   9.549   6.763   7.156 -0.3286  0.0290  0.0765
  162POPC   NC3 2426   7.408   2.020   9.311  0.2553 -0.1348 -0.0858
  162POPC   PO4 2427   7.871   2.204   9.427  0.0581  0.3232  0.1595
  162POPC   GL1 2428   8.181   2.018   9.125  0.2111  0.3592 -0.2303
  162POPC   GL2 2429   8.476   1.859   9.215  0.2113 -0.0508 -0.2397
  162POPC   C1A 2430   8.251   2.301   8.725 -0.0593 -0.1101 -0.1859
  162POPC   D2A 2431   8.333   2.323   8.298 -0.0811 -0.1946  0.0091
  162POPC   C3A 2432   8.121   2.287   7.940  0.0903 -0.0240  0.0685
  162POPC   C4A 2433   7.896   2.124   7.653 -0.1487 -0.0938 -0.0202
  162POPC   C1B 2434   8.574   1.974   8.755 -0.0799 -0.1492  0.0432
  162POPC   C2B 2435   8.767   2.082   8.447  0.0337 -0.0531 -0.1546
  162POPC   C3B 2436   8.967   2.272   8.142 -0.0232  0.0527 -0.2804
  162POPC   C4B 2437   9.046   2.633   7.963 -0.3002 -0.4772  0.2941
  163POPC   NC3 2438   2.209   7.653   8.840  0.1737 -0.0832  0.2218
  163POPC   PO4 2439   1.901   7.354   8.847  0.1181  0.2622 -0.3137
  163POPC   GL1 2440   1.771   7.179   8.426  0.0856 -0.1556 -0.0310
  163POPC   GL2 2441   2.016   7.010   8.257  0.0852  0.5307  0.3107
  163POPC   C1A 2442   1.798   7.366   7.997 -0.0111  0.0907 -0.1161
  163POPC   D2A 2443   1.687   7.577   7.626 -0.0540 -0.2135 -0.2923
  163POPC   C3A 2444   1.247   7.656   7.479  0.0294  0.1371  0.0085
  163POPC   C4A 2445   0.705   7.589   7.481 -0.1723  0.2739 -0.0393
  163POPC   C1B 2446   2.151   6.688   7.833  0.1197 -0.1291 -0.2393
  163POPC   C2B 2447   2.353   6.819   7.432  0.2086  0.0305  0.1618
  163POPC   C3B 2448   2.652   6.997   7.211 -0.0637 -0.3103  0.0704
  163POPC   C4B 2449   2.770   6.886   6.722 -0.2558 -0.3139 -0.0611
  164POPC   NC3 2450   0.267   8.754   9.974  0.1964 -0.3015 -0.3619
  164POPC   PO4 2451   0.109   8.483   9.639  0.3182  0.1447 -0.1389
  164POPC   GL1 2452  -0.036   8.737   9.117 -0.2905 -0.3192  0.0186
  164POPC   GL2 2453  -0.424   8.894   9.109 -0.0518  0.0446 -0.0209
  164POPC   C1A 2454  -0.179   8.896   8.679  0.1840 -0.3997 -0.0718
  164POPC   D2A 2455  -0.202   8.677   8.286 -0.2022  0.1154  0.1157
  164POPC   C3A 2456   0.244   8.563   8.205 -0.1366  0.0393 -0.1793
  164POPC   C4A 2457   0.475   8.620   7.791  0.2063  0.1004 -0.0337
  164POPC   C1B 2458  -0.745   8.938   8.858  0.2093 -0.1677 -0.2716
  164POPC   C2B 2459  -1.023   9.120   8.490 -0.1145 -0.1362 -0.1562
  164POPC   C3B 2460  -1.071   9.196   8.054 -0.0612 -0.1058  0.0599
  164POPC   C4B 2461  -1.089   9.119   7.665 -0.1244  0.0985 -0.1054
  165POPC   NC3 2462   8.379   8.365   9.709  0.0279  0.0091 -0.3646
  165POPC   PO4 2463   8.238   8.215   9.317 -0.0228 -0.0032 -0.1562
  165POPC   GL1 2464   8.365   8.202   8.916  0.2062 -0.2599  0.1391
  165POPC   GL2 2465   8.221   8.290   8.706  0.2538  0.0183 -0.0334
  165POPC   C1A 2466   8.374   7.959   8.433 -0.2114  0.1118  0.0232
  165POPC   D2A 2467   8.573   7.984   7.997 -0.1104  0.2988  0.0562
  165POPC   C3A 2468   8.486   8.059   7.589 -0.1142  0.2831  0.2098
  165POPC   C4A 2469   8.535   7.913   7.291  0.1263  0.1185  0.0403
  165POPC   C1B 2470   8.148   8.413   8.263 -0.3345  0.1855  0.0222
  165POPC   C2B 2471   8.237   8.420   7.845  0.0627 -0.3319  0.0448
  165POPC   C3B 2472   8.128   8.385   7.417  0.3071 -0.1102  0.3780
  165POPC   C4B 2473   8.030   8.049   7.068  0.1864  0.0627  0.2031
  166POPC   NC3 2474   5.737   4.543   9.255 -0.1305  0.0332 -0.2314
  166POPC   PO4 2475   6.119   4.415   8.981  0.1610  0.1960  0.2400
  166POPC   GL1 2476   6.094   4.507   8.550 -0.0878  0.3649  0.1523
  166POPC   GL2 2477   6.293   4.668   8.549 -0.2922  0.0757 -0.1824
  166POPC   C1A 2478   6.124   4.372   8.061  0.3122  0.1347 -0.1583
  166POPC   D2A 2479   5.889   4.231   7.661  0.4554  0.1207 -0.1488
  166POPC   C3A 2480   5.886   3.869   7.448 -0.1257 -0.0492 -0.2298
  166POPC   C4A 2481   6.099   3.555   7.144  0.0191  0.1227  0.1637
  166POPC   C1B 2482   6.561   4.839   8.218 -0.1216  0.1691 -0.1427
  166POPC   C2B 2483   6.593   4.996   7.774 -0.2689 -0.0733 -0.0723
  166POPC   C3B 2484   6.424   5.234   7.465 -0.1084 -0.1849 -0.0869
  166POPC   C4B 2485   6.230   5.334   7.079  0.2862 -0.1382 -0.1967
  167POPC   NC3 2486   6.346  10.165   8.753  0.0428 -0.1976 -0.2285
  167POPC   PO4 2487   6.445  10.666   8.897 -0.0870  0.0082  0.3066
  167POPC   GL1 2488   6.538  10.745   8.470  0.1165  0.3242 -0.1840
  167POPC   GL2 2489   6.834  10.772   8.411  0.1247 -0.3939  0.1125
  167POPC   C1A 2490   6.473  10.744   7.910  0.1345 -0.5284  0.0764
  167POPC   D2A 2491   6.693  10.747   7.467  0.0962  0.0314 -0.3432
  167POPC   C3A 2492   6.614  11.172   7.364  0.1749  0.1361  0.0774
  167POPC   C4A 2493   6.777  11.339   6.917 -0.2654 -0.0424  0.2480
  167POPC   C1B 2494   7.087  10.647   8.087 -0.1613 -0.0560  0.2460
  167POPC   C2B 2495   7.155  10.607   7.639  0.1284 -0.2940 -0.0792
  167POPC   C3B 2496   7.196  10.532   7.227  0.1394 -0.1038 -0.1590
  167POPC   C4B 2497   7.310  10.486   6.757  0.1408  0.1234 -0.0922
  168POPC   NC3 2498   5.936   9.300   4.820  0.0655  0.2100 -0.0059
  168POPC   PO4 2499   6.259   9.649   4.739  0.0871 -0.0456 -0.3174
  168POPC   GL1 2500   6.301   9.590   5.229 -0.3831  0.2422 -0.3423
  168POPC   GL2 2501   6.140   9.322   5.328  0.0241  0.2647 -0.1659
  168POPC   C1A 2502   6.299   9.907   5.590 -0.0467 -0.1517  0.0808
  168POPC   D2A 2503   6.303  10.259   5.752 -0.1179  0.2621 -0.0151
  168POPC   C3A 2504   6.557  10.432   6.155 -0.1090 -0.1963 -0.1877
  168POPC   C4A 2505   6.608  10.177   6.555  0.0878 -0.3882 -0.0392
  168POPC   C1B 2506   6.119   9.443   5.741 -0.0082  0.1658  0.1484
  168POPC   C2B 2507   5.690   9.477   6.012  0.0412 -0.1281 -0.2344
  168POPC   C3B 2508   5.388   9.158   6.014 -0.0666  0.0585  0.1819
  168POPC   C4B 2509   5.304   8.910   6.297  0.3728  0.1114  0.1644
  169POPC   NC3 2510   8.789   4.486   5.487 -0.1061  0.1154 -0.0703
  169POPC   PO4 2511   8.253   4.404   5.577 -0.1552  0.0272  0.3291
  169POPC   GL1 2512   8.078   4.343   5.973 -0.0538  0.2798 -0.2874
  169POPC   GL2 2513   8.115   4.009   5.837 -0.0455 -0.1434  0.3051
  169POPC   C1A 2514   8.223   4.245   6.316 -0.2004 -0.0421  0.0285
  169POPC   D2A 2515   8.393   3.904   6.542  0.2172  0.4730 -0.1782
  169POPC   C3A 2516   8.791   3.931   6.786 -0.1242  0.0660  0.1187
  169POPC   C4A 2517   9.050   3.600   7.064  0.1123  0.2982 -0.1714
  169POPC   C1B 2518   7.886   3.973   6.211 -0.0357 -0.0933  0.1949
  169POPC   C2B 2519   7.739   3.618   6.558  0.0144 -0.0399 -0.0505
  169POPC   C3B 2520   7.853   3.257   6.812 -0.2031 -0.0392  0.2532
  169POPC   C4B 2521   8.049   3.102   7.158  0.0903 -0.3003 -0.0966
  170POPC   NC3 2522   4.123   3.424   4.748  0.2129 -0.3542 -0.0306
  170POPC   PO4 2523   3.809   3.499   4.736  0.3395  0.0777  0.3294
  170POPC   GL1 2524   3.815   3.653   5.186  0.3136  0.2463 -0.1138
  170POPC   GL2 2525   4.128   3.640   5.365 -0.1118  0.1305 -0.2388
  170POPC   C1A 2526   3.694   3.586   5.574  0.0082 -0.2517  0.0221
  170POPC   D2A 2527   3.299   3.447   5.817 -0.0077  0.1534  0.0772
  170POPC   C3A 2528   3.265   3.113   6.188 -0.0278  0.0046  0.2919
  170POPC   C4A 2529   3.610   2.893   6.363  0.4819  0.0559 -0.0521
  170POPC   C1B 2530   3.926   4.025   5.504  0.1798 -0.1901  0.1060
  170POPC   C2B 2531   4.022   4.302   5.915  0.1029  0.0191 -0.1565
  170POPC   C3B 2532   3.940   4.564   6.336 -0.2187  0.2197  0.1173
  170POPC   C4B 2533   4.142   4.575   6.656 -0.4349 -0.0871  0.1331
  171POPC   NC3 2534   3.472   2.441   4.613 -0.0170 -0.1405 -0.1831
  171POPC   PO4 2535   3.680   2.116   4.648  0.0506 -0.0353 -0.1948
  171POPC   GL1 2536   3.841   1.869   5.069  0.1520  0.3904 -0.0725
  171POPC   GL2 2537   4.131   1.616   5.082  0.2619 -0.0630 -0.2558
  171POPC   C1A 2538   3.693   1.752   5.564  0.3844  0.4897  0.0823
  171POPC   D2A 2539   3.653   1.833   6.014  0.2990 -0.4802 -0.1214
  171POPC   C3A 2540   3.287   1.912   6.164 -0.1103 -0.2079 -0.1912
  171POPC   C4A 2541   3.055   2.157   6.497 -0.0633  0.1017 -0.0095
  171POPC   C1B 2542   4.211   1.546   5.487  0.0959 -0.1170  0.2160
  171POPC   C2B 2543   4.003   1.484   5.858  0.3373  0.3713 -0.3001
  171POPC   C3B 2544   3.944   1.547   6.298  0.0885  0.1686  0.2725
  171POPC   C4B 2545   4.103   1.924   6.555  0.0004 -0.0308 -0.1908
  172POPC   NC3 2546   7.400   4.772   5.223 -0.0777  0.0728 -0.0931
  172POPC   PO4 2547   7.203   5.056   5.399 -0.3142 -0.0493 -0.1704
  172POPC   GL1 2548   7.264   4.846   5.742  0.1971 -0.2730  0.0293
  172POPC   GL2 2549   7.515   4.610   5.700 -0.3396  0.0327  0.0244
  172POPC   C1A 2550   7.166   4.594   6.113  0.3250  0.2268  0.4240
  172POPC   D2A 2551   7.222   4.440   6.516  0.2194  0.0353  0.0081
  172POPC   C3A 2552   7.692   4.362   6.602 -0.3037 -0.4068  0.0012
  172POPC   C4A 2553   8.020   4.257   6.833 -0.1722 -0.0654 -0.2266
  172POPC   C1B 2554   7.654   4.627   6.119  0.3341 -0.1584  0.0811
  172POPC   C2B 2555   7.949   4.656   6.363  0.0062  0.1083  0.0291
  172POPC   C3B 2556   8.289   4.705   6.505 -0.1142 -0.3503  0.1347
  172POPC   C4B 2557   8.690   4.912   6.512 -0.3057  0.1635  0.2271
  173POPC   NC3 2558   6.790   4.712   4.982  0.0788  0.0818 -0.1760
  173POPC   PO4 2559   6.832   5.179   4.979  0.0964 -0.0856  0.3263
  173POPC   GL1 2560   6.610   5.106   5.361  0.0254  0.0984 -0.2446
  173POPC   GL2 2561   6.756   4.754   5.496 -0.3577 -0.2465  0.1941
  173POPC   C1A 2562   6.337   4.979   5.741 -0.0178 -0.0470  0.0329
  173POPC   D2A 2563   6.314   5.111   6.048 -0.0438  0.1283  0.0543
  173POPC   C3A 2564   6.036   4.843   6.283  0.3315 -0.3433  0.0066
  173POPC   C4A 2565   5.932   4.418   6.299  0.1449  0.0693  0.0876
  173POPC   C1B 2566   6.922   4.490   5.692  0.0063  0.1834  0.0173
  173POPC   C2B 2567   6.842   4.255   6.070  0.3028 -0.4148 -0.3441
  173POPC   C3B 2568   6.829   4.066   6.482  0.3129 -0.1263  0.1882
  173POPC   C4B 2569   6.610   3.770   6.640 -0.1061 -0.3591 -0.0697
  174POPC   NC3 2570   4.875   2.429   4.603 -0.0432  0.0930 -0.1606
  174POPC   PO4 2571   4.736   2.017   4.651 -0.2005  0.0882 -0.1802
  174POPC   GL1 2572   4.719   1.965   5.179 -0.1030  0.1053  0.0481
  174POPC   GL2 2573   4.339   2.017   5.268 -0.1768  0.0801 -0.1917
  174POPC   C1A 2574   4.991   1.892   5.394 -0.0957 -0.0395  0.2452
  174POPC   D2A 2575   5.051   2.063   5.819  0.2421 -0.3442 -0.2059
  174POPC   C3A 2576   5.049   2.489   5.974 -0.0843  0.0178 -0.1992
  174POPC   C4A 2577   4.993   2.510   6.397 -0.0496  0.0349 -0.1264
  174POPC   C1B 2578   4.359   1.957   5.764  0.0459  0.1538  0.0617
  174POPC   C2B 2579   4.335   1.900   6.144 -0.0056  0.3134 -0.1504
  174POPC   C3B 2580   4.563   1.765   6.570 -0.0837 -0.1837  0.1184
  174POPC   C4B 2581   4.805   1.727   6.943  0.2698 -0.1842 -0.1778
  175POPC   NC3 2582   9.315   3.618   4.758  0.2895 -0.3765 -0.1311
  175POPC   PO4 2583   9.598   3.817   5.023 -0.2228 -0.0045 -0.1351
  175POPC   GL1 2584   9.888   3.712   5.433 -0.0426 -0.2418 -0.0794
  175POPC   GL2 2585  10.204   3.800   5.347 -0.0771  0.2821 -0.2453
  175POPC   C1A 2586   9.820   3.418   5.582  0.0153 -0.0550 -0.0936
  175POPC   D2A 2587   9.819   2.976   5.727  0.0481  0.1419  0.0564
  175POPC   C3A 2588  10.142   2.759   5.493 -0.1079  0.1453  0.0819
  175POPC   C4A 2589  10.357   2.461   5.305  0.1796  0.0495  0.0611
  175POPC   C1B 2590  10.368   3.670   5.730  0.1224 -0.0405 -0.0522
  175POPC   C2B 2591  10.334   3.712   6.195 -0.0484 -0.1823  0.0566
  175POPC   C3B 2592   9.991   3.609   6.432 -0.2585  0.1186  0.4167
  175POPC   C4B 2593   9.895   3.565   6.807 -0.4035 -0.0309 -0.0218
  176POPC   NC3 2594   5.879   5.296   4.809  0.1279  0.1332  0.0872
  176POPC   PO4 2595   5.790   5.704   4.796 -0.5127 -0.0642 -0.0944
  176POPC   GL1 2596   5.778   5.688   5.245  0.1365  0.1258  0.0986
  176POPC   GL2 2597   6.016   5.799   5.433  0.0030  0.0318  0.1947
  176POPC   C1A 2598   5.540   5.458   5.667 -0.2478 -0.4375  0.0252
  176POPC   D2A 2599   5.494   5.638   6.030  0.0822 -0.3389 -0.3475
  176POPC   C3A 2600   5.067   5.555   6.349  0.1103 -0.1803 -0.2829
  176POPC   C4A 2601   4.608   5.401   6.286  0.0925  0.0494 -0.2129
  176POPC   C1B 2602   5.947   5.725   5.838 -0.0833  0.0517 -0.0467
  176POPC   C2B 2603   5.901   5.887   6.199  0.1988  0.1867  0.0201
  176POPC   C3B 2604   5.859   6.155   6.579  0.2878 -0.2313 -0.1376
  176POPC   C4B 2605   5.894   6.602   6.797 -0.1344  0.2462 -0.0451
  177POPC   NC3 2606   5.789   1.109   4.882  0.0716  0.2491  0.3123
  177POPC   PO4 2607   5.589   0.646   4.840 -0.0761  0.1771 -0.0358
  177POPC   GL1 2608   5.680   0.790   5.204  0.0463  0.0251  0.0590
  177POPC   GL2 2609   5.463   0.873   5.358 -0.2163 -0.0524  0.1386
  177POPC   C1A 2610   5.921   0.900   5.591 -0.0743  0.1667  0.0514
  177POPC   D2A 2611   6.175   1.303   5.833  0.1268  0.0685  0.1198
  177POPC   C3A 2612   6.380   1.238   6.099 -0.2083 -0.0689 -0.1273
  177POPC   C4A 2613   6.406   1.281   6.580 -0.0430  0.0377  0.0594
  177POPC   C1B 2614   5.498   0.807   5.822  0.4429 -0.1155 -0.1047
  177POPC   C2B 2615   5.549   0.929   6.306  0.1021  0.1292 -0.2777
  177POPC   C3B 2616   5.442   1.190   6.611 -0.1178 -0.1150  0.3480
  177POPC   C4B 2617   5.504   1.301   7.037 -0.2484 -0.2116  0.0540
  178POPC   NC3 2618   1.912   5.991   4.969  0.2115 -0.1345 -0.0352
  178POPC   PO4 2619   1.877   5.607   5.169 -0.0932  0.4902  0.1192
  178POPC   GL1 2620   1.877   5.902   5.522 -0.1366  0.0342 -0.0861
  178POPC   GL2 2621   1.814   5.712   5.742  0.1311  0.0149  0.0295
  178POPC   C1A 2622   1.798   6.255   5.741  0.0856 -0.0166 -0.0632
  178POPC   D2A 2623   1.682   6.660   5.715  0.0577 -0.2139 -0.1300
  178POPC   C3A 2624   1.618   6.895   5.982  0.0121  0.0189 -0.1093
  178POPC   C4A 2625   1.165   7.039   5.934 -0.1982 -0.1681 -0.0564
  178POPC   C1B 2626   1.749   5.921   6.173 -0.0636  0.0548  0.4759
  178POPC   C2B 2627   1.654   5.970   6.682 -0.0286  0.1796 -0.0354
  178POPC   C3B 2628   1.535   6.038   6.999  0.0648  0.3374  0.0904
  178POPC   C4B 2629   1.412   6.443   7.225 -0.2082  0.1629  0.0632
  179POPC   NC3 2630   2.795   3.712   5.028  0.2684 -0.2761 -0.2473
  179POPC   PO4 2631   2.341   3.610   5.226 -0.1753  0.3340  0.0629
  179POPC   GL1 2632   2.462   3.525   5.609 -0.1393 -0.3228 -0.3071
  179POPC   GL2 2633   2.353   3.182   5.561 -0.2373  0.0678 -0.3041
  179POPC   C1A 2634   2.793   3.592   5.801  0.0672  0.0087 -0.0475
  179POPC   D2A 2635   2.901   3.412   6.219 -0.0731 -0.0952  0.0090
  179POPC   C3A 2636   2.925   3.634   6.673  0.1985  0.2776  0.0398
  179POPC   C4A 2637   3.192   3.965   6.753  0.0034  0.1321  0.1655
  179POPC   C1B 2638   2.070   2.926   5.855  0.4288  0.2153 -0.0149
  179POPC   C2B 2639   2.114   2.846   6.211 -0.0276 -0.1119  0.1331
  179POPC   C3B 2640   2.106   3.079   6.618  0.1007 -0.0309  0.3952
  179POPC   C4B 2641   2.049   3.434   6.780 -0.1991  0.0693 -0.0684
  180POPC   NC3 2642   0.927   9.131   4.022  0.1101  0.1265 -0.3485
  180POPC   PO4 2643   0.514   9.115   4.357  0.1076  0.2355  0.1444
  180POPC   GL1 2644   0.215   9.411   4.581  0.1486  0.0386  0.4343
  180POPC   GL2 2645   0.506   9.553   4.804 -0.1566 -0.0482 -0.0188
  180POPC   C1A 2646  -0.020   9.535   5.001 -0.2510  0.3097  0.2271
  180POPC   D2A 2647  -0.006   9.818   5.352  0.0225 -0.2482  0.0634
  180POPC   C3A 2648  -0.314  10.023   5.633  0.2601  0.1003 -0.0829
  180POPC   C4A 2649  -0.296  10.076   6.120  0.0129  0.3339  0.0378
  180POPC   C1B 2650   0.625   9.456   5.222  0.0805 -0.0438  0.1400
  180POPC   C2B 2651   0.711   9.303   5.610 -0.0473 -0.1096 -0.0314
  180POPC   C3B 2652   0.929   9.202   5.886  0.3274  0.1728 -0.0003
  180POPC   C4B 2653   1.185   8.966   5.962 -0.4764  0.0064  0.0421
  181POPC   NC3 2654   3.647   5.173   4.308  0.3781  0.0230 -0.0895
  181POPC   PO4 2655   3.593   4.756   4.481 -0.0917  0.1432  0.1337
  181POPC   GL1 2656   3.710   4.750   4.975  0.4079 -0.1415  0.3512
  181POPC   GL2 2657   3.523   4.952   5.057  0.1295  0.0886 -0.0534
  181POPC   C1A 2658   4.117   4.928   5.242 -0.0971  0.1609  0.2190
  181POPC   D2A 2659   4.443   5.046   5.565  0.1253 -0.1044 -0.4975
  181POPC   C3A 2660   4.418   4.948   6.031 -0.2201 -0.1288 -0.0546
  181POPC   C4A 2661   4.516   4.749   6.287  0.1145 -0.1444 -0.4497
  181POPC   C1B 2662   3.517   4.851   5.456  0.0326 -0.0662  0.0125
  181POPC   C2B 2663   3.588   4.989   5.809  0.0053  0.2590 -0.1706
  181POPC   C3B 2664   3.964   4.824   5.795 -0.2762  0.1345  0.0865
  181POPC   C4B 2665   4.364   4.586   5.652 -0.0409  0.2333  0.0573
  182POPC   NC3 2666   4.236   5.385   4.814  0.0870 -0.2980 -0.1162
  182POPC   PO4 2667   3.818   5.189   4.731  0.0499  0.0263 -0.0315
  182POPC   GL1 2668   3.757   5.401   5.142 -0.0739 -0.1590 -0.0912
  182POPC   GL2 2669   3.564   5.437   5.144 -0.2462  0.1391 -0.1814
  182POPC   C1A 2670   3.980   5.267   5.586  0.3373  0.1777 -0.1766
  182POPC   D2A 2671   3.996   5.373   6.049  0.1722 -0.0441  0.2102
  182POPC   C3A 2672   3.686   5.134   6.281 -0.1757  0.0321  0.4526
  182POPC   C4A 2673   3.539   4.765   6.492 -0.1303  0.1074 -0.2237
  182POPC   C1B 2674   3.215   5.419   5.440  0.0497 -0.1264  0.3672
  182POPC   C2B 2675   3.013   5.305   5.761 -0.0950 -0.0723 -0.1803
  182POPC   C3B 2676   3.118   5.200   6.158 -0.0361  0.0937 -0.0412
  182POPC   C4B 2677   2.911   4.961   6.516  0.0412 -0.1430  0.0711
  183POPC   NC3 2678   0.087   5.697   5.454  0.1887 -0.1517 -0.4298
  183POPC   PO4 2679  -0.190   5.406   5.556 -0.0948 -0.2246  0.0002
  183POPC   GL1 2680  -0.102   5.538   5.926  0.0016 -0.0247 -0.1244
  183POPC   GL2 2681  -0.173   5.848   5.979  0.0519 -0.0929  0.2569
  183POPC   C1A 2682  -0.073   5.432   6.372  0.0400  0.0932  0.0827
  183POPC   D2A 2683   0.137   5.081   6.626  0.1873  0.0683 -0.0212
  183POPC   C3A 2684  -0.196   4.855   6.870 -0.0328 -0.3794 -0.0464
  183POPC   C4A 2685  -0.092   4.662   7.157  0.0744 -0.0099 -0.2066
  183POPC   C1B 2686   0.152   5.922   6.304 -0.1910 -0.1584 -0.1891
  183POPC   C2B 2687   0.390   6.107   6.690  0.1642 -0.1689 -0.1203
  183POPC   C3B 2688   0.822   6.128   6.917  0.1475  0.0255 -0.0880
  183POPC   C4B 2689   0.850   6.412   7.232 -0.1953 -0.1647 -0.1001
  184POPC   NC3 2690   6.254   8.789   4.352 -0.2880 -0.0347  0.3794
  184POPC   PO4 2691   5.929   8.773   4.574  0.0700 -0.0273 -0.4228
  184POPC   GL1 2692   6.092   8.533   4.909 -0.1569  0.0057 -0.1770
  184POPC   GL2 2693   6.431   8.596   4.822  0.0729 -0.1192 -0.1896
  184POPC   C1A 2694   5.951   8.338   5.353  0.0829 -0.3588  0.1135
  184POPC   D2A 2695   5.940   8.567   5.740 -0.1647 -0.3562 -0.4767
  184POPC   C3A 2696   5.771   8.512   6.115 -0.0617 -0.1237 -0.0191
  184POPC   C4A 2697   5.703   8.669   6.550  0.2559  0.0310  0.1596
  184POPC   C1B 2698   6.347   8.718   5.266  0.1208  0.0391 -0.1827
  184POPC   C2B 2699   6.283   8.913   5.680 -0.2004 -0.0658 -0.1569
  184POPC   C3B 2700   6.269   8.706   6.053  0.1470  0.2721 -0.2251
  184POPC   C4B 2701   6.205   8.851   6.510  0.1995  0.1466 -0.0426
  185POPC   NC3 2702   5.990   9.954   5.007  0.0891 -0.0589  0.2197
  185POPC   PO4 2703   5.596  10.131   5.045  0.2170  0.0434 -0.1289
  185POPC   GL1 2704   5.610  10.025   5.372 -0.1095  0.0705  0.2264
  185POPC   GL2 2705   5.825   9.779   5.447  0.3396 -0.2524 -0.4683
  185POPC   C1A 2706   5.640  10.264   5.683 -0.0117  0.3157 -0.2774
  185POPC   D2A 2707   5.906  10.474   5.974 -0.2034 -0.0616  0.1246
  185POPC   C3A 2708   5.791  10.627   6.322  0.1880 -0.1948  0.0255
  185POPC   C4A 2709   5.877  11.010   6.580  0.2519  0.2036  0.2124
  185POPC   C1B 2710   5.961   9.872   5.954  0.0719  0.4173 -0.1318
  185POPC   C2B 2711   5.906   9.751   6.398  0.0241  0.4278 -0.1165
  185POPC   C3B 2712   6.158   9.844   6.784  0.1727 -0.3199 -0.1773
  185POPC   C4B 2713   6.039   9.544   7.079 -0.0066 -0.0743 -0.4201
  186POPC   NC3 2714   3.374   1.769   4.762 -0.0444  0.0573 -0.0886
  186POPC   PO4 2715   3.100   2.128   4.780  0.0489 -0.4040  0.1645
  186POPC   GL1 2716   3.312   2.142   5.146  0.1855  0.0381  0.1476
  186POPC   GL2 2717   3.573   2.251   5.130 -0.1257  0.1961 -0.1509
  186POPC   C1A 2718   3.299   2.094   5.608  0.0497 -0.0717  0.1006
  186POPC   D2A 2719   3.334   2.376   5.930 -0.1319  0.0748 -0.2736
  186POPC   C3A 2720   3.251   2.774   5.788  0.3958  0.1341 -0.1017
  186POPC   C4A 2721   3.034   2.648   5.501 -0.1352  0.1181  0.2714
  186POPC   C1B 2722   3.554   2.576   5.474  0.1951  0.1379  0.0923
  186POPC   C2B 2723   3.862   2.743   5.753  0.1381 -0.2024 -0.0130
  186POPC   C3B 2724   4.103   2.662   6.167  0.2186  0.2784 -0.1361
  186POPC   C4B 2725   4.125   2.577   6.670  0.2899  0.0280 -0.0488
  187POPC   NC3 2726   8.168   0.817   3.909  0.1465  0.0601 -0.2221
  187POPC   PO4 2727   7.918   0.714   4.217  0.1887 -0.0391 -0.0849
  187POPC   GL1 2728   8.071   0.649   4.602  0.0498 -0.0630  0.2844
  187POPC   GL2 2729   8.462   0.571   4.575 -0.0248 -0.0060  0.0575
  187POPC   C1A 2730   8.265   0.801   4.955  0.0777  0.0978  0.0156
  187POPC   D2A 2731   8.649   0.479   5.029 -0.2282  0.0900 -0.0658
  187POPC   C3A 2732   8.645   0.223   5.411  0.0329  0.0621 -0.2317
  187POPC   C4A 2733   8.625   0.087   5.785  0.2812 -0.1907 -0.1719
  187POPC   C1B 2734   8.860   0.431   4.599  0.0550  0.0234  0.0790
  187POPC   C2B 2735   9.129   0.227   4.672  0.1726  0.1530  0.0142
  187POPC   C3B 2736   9.205  -0.195   4.705  0.0632 -0.0796 -0.1495
  187POPC   C4B 2737   9.008  -0.616   4.794  0.0423  0.0100  0.1045
  188POPC   NC3 2738   7.167   8.775   4.529  0.0136 -0.0012  0.0207
  188POPC   PO4 2739   6.784   8.885   4.705  0.0079  0.0701 -0.3151
  188POPC   GL1 2740   6.824   8.898   5.107  0.1435 -0.2298  0.1480
  188POPC   GL2 2741   6.897   9.239   5.341  0.2718  0.3271 -0.0005
  188POPC   C1A 2742   6.737   8.791   5.520 -0.0705  0.0948 -0.1109
  188POPC   D2A 2743   6.738   8.879   5.941 -0.0044  0.2338  0.0141
  188POPC   C3A 2744   6.411   9.203   6.168 -0.1088  0.0569  0.1427
  188POPC   C4A 2745   6.170   9.372   6.496 -0.0582 -0.3107  0.1338
  188POPC   C1B 2746   6.591   9.390   5.616 -0.1588  0.0712  0.1542
  188POPC   C2B 2747   6.721   9.668   5.940 -0.0019 -0.3541  0.1644
  188POPC   C3B 2748   6.403   9.897   6.140  0.3539  0.1181  0.0263
  188POPC   C4B 2749   6.117  10.272   6.373 -0.0350 -0.0054 -0.1024
  189POPC   NC3 2750   0.632   8.197   5.084 -0.1907 -0.1021 -0.2870
  189POPC   PO4 2751   1.061   7.984   4.923 -0.0852 -0.1352  0.0790
  189POPC   GL1 2752   1.041   8.085   5.403  0.0354 -0.0560 -0.0681
  189POPC   GL2 2753   1.342   7.932   5.550  0.0551  0.0609  0.2911
  189POPC   C1A 2754   1.008   7.906   5.898 -0.0973  0.0153  0.3325
  189POPC   D2A 2755   1.095   8.065   6.401  0.3343 -0.0022 -0.0390
  189POPC   C3A 2756   1.213   8.004   6.785 -0.0135 -0.0560 -0.1681
  189POPC   C4A 2757   1.237   8.363   7.070  0.0092  0.0936 -0.0314
  189POPC   C1B 2758   1.577   7.867   5.990  0.2730 -0.3525 -0.2310
  189POPC   C2B 2759   1.506   7.766   6.469  0.1224 -0.2242  0.2246
  189POPC   C3B 2760   1.311   7.525   6.714  0.0132  0.1478  0.0264
  189POPC   C4B 2761   1.564   7.410   7.173  0.0434  0.0364  0.3123
  190POPC   NC3 2762   6.165   4.599   5.054 -0.0014  0.2912 -0.0373
  190POPC   PO4 2763   6.335   4.960   4.955 -0.0244  0.1848  0.2849
  190POPC   GL1 2764   6.123   5.129   5.217  0.1866  0.0199  0.1052
  190POPC   GL2 2765   5.974   4.894   5.445  0.1521 -0.0420  0.3506
  190POPC   C1A 2766   6.271   5.415   5.525  0.1588  0.1636 -0.0798
  190POPC   D2A 2767   6.471   5.659   5.854  0.2050 -0.0049 -0.2283
  190POPC   C3A 2768   6.430   5.601   6.334 -0.2910  0.3497 -0.0889
  190POPC   C4A 2769   6.096   5.643   6.614 -0.2630  0.0618  0.0195
  190POPC   C1B 2770   5.858   5.113   5.808 -0.1423 -0.2453 -0.2615
  190POPC   C2B 2771   5.930   5.320   6.218  0.0916  0.0213 -0.1939
  190POPC   C3B 2772   5.853   5.161   6.642  0.0112 -0.1941 -0.2539
  190POPC   C4B 2773   5.902   4.834   6.771  0.2475 -0.1713  0.1192
  191POPC   NC3 2774   1.837   8.439   5.107 -0.0930  0.0594 -0.1003
  191POPC   PO4 2775   1.452   8.348   5.103  0.0681 -0.3755  0.0625
  191POPC   GL1 2776   1.504   8.516   5.463 -0.1660  0.1447 -0.0269
  191POPC   GL2 2777   1.301   8.376   5.748 -0.0239  0.4158  0.0172
  191POPC   C1A 2778   1.652   8.810   5.870 -0.0284  0.2201  0.0349
  191POPC   D2A 2779   2.003   8.880   6.019 -0.0693 -0.1607 -0.3025
  191POPC   C3A 2780   2.218   8.627   6.365 -0.0041  0.0465  0.1200
  191POPC   C4A 2781   2.486   8.387   6.634 -0.1470 -0.0849  0.0232
  191POPC   C1B 2782   1.193   8.518   6.141 -0.5641  0.0827  0.2470
  191POPC   C2B 2783   1.108   8.548   6.633  0.0823  0.3313  0.2133
  191POPC   C3B 2784   1.000   8.828   6.964 -0.4012 -0.1800  0.1141
  191POPC   C4B 2785   1.289   8.786   7.406  0.1535 -0.2445  0.0074
  192POPC   NC3 2786   2.290   5.237   4.383 -0.1555  0.2947  0.1403
  192POPC   PO4 2787   2.735   5.169   4.668 -0.1252  0.3352 -0.1320
  192POPC   GL1 2788   2.760   5.077   5.119 -0.3004  0.1753 -0.0885
  192POPC   GL2 2789   2.713   5.392   5.361  0.2517  0.1920 -0.0155
  192POPC   C1A 2790   3.003   4.973   5.371  0.2747 -0.0258 -0.3226
  192POPC   D2A 2791   3.126   4.726   5.752  0.2088 -0.0090 -0.3872
  192POPC   C3A 2792   3.161   4.674   6.217  0.0231 -0.2771 -0.0039
  192POPC   C4A 2793   3.231   4.412   6.557 -0.0412  0.1117  0.1319
  192POPC   C1B 2794   2.515   5.553   5.793  0.3615 -0.0168  0.1607
  192POPC   C2B 2795   2.617   5.829   6.098  0.1492 -0.0515 -0.0684
  192POPC   C3B 2796   2.702   5.999   6.538 -0.0637 -0.0377  0.1061
  192POPC   C4B 2797   2.514   6.008   6.976  0.2284 -0.1846  0.0459
  193POPC   NC3 2798   6.984   1.195   4.479  0.3537  0.1472 -0.1773
  193POPC   PO4 2799   7.031   0.779   4.616 -0.2255  0.0333  0.0550
  193POPC   GL1 2800   7.258   0.532   4.882  0.1170 -0.0876 -0.0681
  193POPC   GL2 2801   7.623   0.581   4.799  0.1560  0.1197  0.2615
  193POPC   C1A 2802   7.524   0.303   5.194 -0.2032  0.0828 -0.1927
  193POPC   D2A 2803   7.612  -0.187   5.217  0.1385 -0.1668  0.1159
  193POPC   C3A 2804   7.464  -0.435   5.617 -0.2252 -0.3162 -0.4050
  193POPC   C4A 2805   7.068  -0.482   5.651  0.3696 -0.3646 -0.0621
  193POPC   C1B 2806   7.758   0.754   5.168  0.3353  0.2244 -0.3165
  193POPC   C2B 2807   7.787   0.659   5.606  0.0891 -0.0053 -0.0308
  193POPC   C3B 2808   7.513   0.524   5.881  0.0931 -0.4250 -0.2261
  193POPC   C4B 2809   7.231   0.686   6.224  0.0409  0.1900 -0.1257
  194POPC   NC3 2810   9.904   7.287   5.305 -0.2332  0.1606 -0.1089
  194POPC   PO4 2811   9.832   7.635   5.072  0.1286  0.1727  0.2451
  194POPC   GL1 2812   9.938   7.957   5.349 -0.0420 -0.2573  0.0240
  194POPC   GL2 2813   9.717   8.103   5.426 -0.1663  0.3186 -0.0363
  194POPC   C1A 2814  10.210   8.031   5.788  0.1007 -0.3615  0.3030
  194POPC   D2A 2815  10.192   8.423   6.013  0.0588 -0.1105  0.1432
  194POPC   C3A 2816   9.934   8.486   6.429  0.1212 -0.1027  0.5277
  194POPC   C4A 2817   9.758   8.667   6.789 -0.2735 -0.1832  0.0467
  194POPC   C1B 2818   9.770   8.492   5.726 -0.1374 -0.3577 -0.1418
  194POPC   C2B 2819   9.577   8.507   6.112  0.0233 -0.1128 -0.4594
  194POPC   C3B 2820   9.378   8.763   6.392 -0.0216  0.1573 -0.1448
  194POPC   C4B 2821   9.208   9.195   6.457  0.1223 -0.1563  0.3889
  195POPC   NC3 2822   1.313   5.540   5.513  0.1224 -0.0524 -0.0490
  195POPC   PO4 2823   0.928   5.788   5.569  0.1821 -0.1356  0.2076
  195POPC   GL1 2824   0.975   5.630   6.032 -0.1936  0.2467 -0.1679
  195POPC   GL2 2825   1.228   5.765   6.150  0.0471  0.0069  0.0553
  195POPC   C1A 2826   0.659   5.634   6.445  0.1349  0.0146  0.2202
  195POPC   D2A 2827   0.309   5.524   6.736  0.0250  0.1738  0.2193
  195POPC   C3A 2828   0.198   5.232   7.072 -0.0165  0.1275 -0.1274
  195POPC   C4A 2829  -0.022   5.251   7.402  0.1584 -0.1851 -0.1969
  195POPC   C1B 2830   1.530   5.504   6.359  0.0054 -0.1093  0.2083
  195POPC   C2B 2831   1.903   5.382   6.662  0.1288  0.2345  0.2240
  195POPC   C3B 2832   2.222   5.100   6.466  0.0775  0.0501 -0.1177
  195POPC   C4B 2833   2.541   5.230   6.250 -0.2108 -0.2234 -0.0915
  196POPC   NC3 2834   7.653   2.580   4.665 -0.2493 -0.1080 -0.2085
  196POPC   PO4 2835   7.241   2.336   4.624 -0.3990  0.3692 -0.2036
  196POPC   GL1 2836   7.339   2.238   5.072 -0.1856  0.1706  0.3418
  196POPC   GL2 2837   7.576   2.452   5.103  0.1892  0.0241 -0.3092
  196POPC   C1A 2838   7.100   2.055   5.398 -0.2228 -0.0408  0.2084
  196POPC   D2A 2839   6.873   1.911   5.707  0.0725 -0.0276 -0.0745
  196POPC   C3A 2840   6.963   2.020   6.129  0.1070  0.0379  0.0041
  196POPC   C4A 2841   6.919   2.293   6.427 -0.1097  0.1358  0.2711
  196POPC   C1B 2842   7.512   2.419   5.555 -0.4709  0.4213 -0.3533
  196POPC   C2B 2843   7.427   2.167   5.927  0.0015  0.0370 -0.0709
  196POPC   C3B 2844   7.568   1.946   6.305  0.0485 -0.0591  0.0107
  196POPC   C4B 2845   7.851   1.630   6.480 -0.0667 -0.2822 -0.2017
  197POPC   NC3 2846   6.745   6.339   5.169 -0.2996  0.2032  0.2658
  197POPC   PO4 2847   6.561   6.795   5.044 -0.1483  0.3982  0.0732
  197POPC   GL1 2848   6.478   6.779   5.526  0.1075  0.2419 -0.4062
  197POPC   GL2 2849   6.464   7.081   5.605  0.2183  0.0118  0.0356
  197POPC   C1A 2850   6.474   6.579   5.930 -0.2271  0.0217 -0.3328
  197POPC   D2A 2851   6.570   6.677   6.349 -0.0593  0.2991  0.1140
  197POPC   C3A 2852   6.657   6.474   6.633  0.2459  0.1067 -0.0033
  197POPC   C4A 2853   6.823   6.660   7.075 -0.2144 -0.2675 -0.0472
  197POPC   C1B 2854   6.196   7.466   5.622 -0.1153  0.0352 -0.0030
  197POPC   C2B 2855   6.048   7.546   5.983  0.0276  0.0517  0.1885
  197POPC   C3B 2856   6.048   7.748   6.373  0.1387  0.0110  0.1055
  197POPC   C4B 2857   6.012   7.875   6.806  0.1349 -0.0331 -0.3564
  198POPC   NC3 2858   4.281  10.189   5.164  0.0158 -0.0488 -0.2641
  198POPC   PO4 2859   4.109  10.615   4.967 -0.0831 -0.2091 -0.2547
  198POPC   GL1 2860   3.929  10.441   5.415  0.1083  0.1983 -0.3075
  198POPC   GL2 2861   3.549  10.337   5.460 -0.0015  0.0587  0.1357
  198POPC   C1A 2862   3.959  10.183   5.811 -0.4147  0.1023 -0.3435
  198POPC   D2A 2863   3.831  10.059   6.212 -0.1815 -0.0959 -0.1441
  198POPC   C3A 2864   3.582   9.809   6.520 -0.3283 -0.2708 -0.2167
  198POPC   C4A 2865   3.408   9.592   6.815  0.1768  0.1981 -0.1941
  198POPC   C1B 2866   3.221  10.432   5.642 -0.0543 -0.0516  0.1745
  198POPC   C2B 2867   2.866  10.410   5.891 -0.1090 -0.0748 -0.0430
  198POPC   C3B 2868   2.755  10.641   6.300  0.2131 -0.2609 -0.3369
  198POPC   C4B 2869   2.693  10.723   6.723  0.1636  0.2648 -0.0428
  199POPC   NC3 2870   5.569   8.591   4.931 -0.0857  0.0562  0.1840
  199POPC   PO4 2871   5.530   9.034   4.856  0.1396  0.0079  0.2045
  199POPC   GL1 2872   5.147   8.756   5.063  0.0306  0.0155 -0.0451
  199POPC   GL2 2873   4.861   8.872   5.092  0.0278  0.1560 -0.0365
  199POPC   C1A 2874   4.944   8.703   5.532  0.3105 -0.0414  0.4033
  199POPC   D2A 2875   4.589   8.912   5.727 -0.0571 -0.2527 -0.2130
  199POPC   C3A 2876   4.448   8.702   6.201  0.1025 -0.0018  0.3725
  199POPC   C4A 2877   4.138   8.543   6.335  0.0718 -0.1518  0.0798
  199POPC   C1B 2878   4.735   9.177   5.348 -0.1683 -0.0195  0.3092
  199POPC   C2B 2879   4.783   9.427   5.761 -0.0946 -0.1053 -0.1587
  199POPC   C3B 2880   5.038   9.491   6.130 -0.3723  0.1060 -0.1036
  199POPC   C4B 2881   4.924   9.683   6.671  0.3073 -0.0299 -0.1689
  200POPC   NC3 2882   9.743   6.491   5.322  0.1940  0.1488  0.1269
  200POPC   PO4 2883  10.074   6.814   5.277  0.1928  0.2311 -0.0245
  200POPC   GL1 2884   9.865   6.911   5.706 -0.3086  0.2892 -0.0529
  200POPC   GL2 2885   9.700   6.709   5.745 -0.1884  0.2269 -0.1730
  200POPC   C1A 2886  10.028   7.246   6.014 -0.0901  0.3842 -0.1551
  200POPC   D2A 2887  10.216   7.615   6.063 -0.0062 -0.3126  0.1047
  200POPC   C3A 2888  10.078   7.942   6.379  0.4025 -0.1073  0.2779
  200POPC   C4A 2889   9.867   8.030   6.770 -0.3044 -0.1695 -0.1368
  200POPC   C1B 2890   9.552   6.541   6.121  0.2213  0.1144  0.0038
  200POPC   C2B 2891   9.509   6.590   6.698  0.1232 -0.0392  0.0683
  200POPC   C3B 2892   9.082   6.505   6.713 -0.0441  0.0246  0.2633
  200POPC   C4B 2893   8.703   6.644   6.785 -0.0072 -0.3042  0.2075
  201POPC   NC3 2894   0.036   8.660   4.499  0.2660  0.1348  0.2478
  201POPC   PO4 2895  -0.222   8.280   4.596 -0.0172  0.0749  0.4539
  201POPC   GL1 2896  -0.253   8.524   4.967 -0.0992 -0.0059  0.0624
  201POPC   GL2 2897  -0.604   8.528   5.061  0.0371  0.0101  0.0355
  201POPC   C1A 2898   0.036   8.685   5.186  0.0407  0.3734  0.1316
  201POPC   D2A 2899   0.211   8.960   5.300 -0.2607 -0.1608 -0.1795
  201POPC   C3A 2900   0.496   8.707   5.517  0.0117  0.2201 -0.1552
  201POPC   C4A 2901   0.689   8.276   5.686 -0.3458  0.0706 -0.0726
  201POPC   C1B 2902  -0.571   8.790   5.298  0.0824  0.2140 -0.2796
  201POPC   C2B 2903  -0.597   9.001   5.713  0.1460 -0.0181  0.0662
  201POPC   C3B 2904  -0.553   8.923   6.103 -0.0406 -0.0864 -0.0621
  201POPC   C4B 2905  -0.617   9.036   6.420  0.3429  0.0251 -0.1027
  202POPC   NC3 2906   7.848   4.575   5.267 -0.0507  0.1620  0.1054
  202POPC   PO4 2907   7.530   4.246   5.171 -0.1589  0.2517 -0.1541
  202POPC   GL1 2908   7.690   4.127   5.578 -0.0125 -0.0651 -0.0478
  202POPC   GL2 2909   7.630   3.779   5.715  0.1743 -0.1222 -0.0593
  202POPC   C1A 2910   7.412   4.188   5.982 -0.4029 -0.1385  0.0367
  202POPC   D2A 2911   7.432   3.947   6.304  0.1951  0.0801 -0.1644
  202POPC   C3A 2912   7.247   3.741   6.594  0.2034  0.2946  0.1721
  202POPC   C4A 2913   7.026   3.699   6.967  0.0490  0.0659  0.0918
  202POPC   C1B 2914   7.564   3.370   5.990 -0.2321  0.1563  0.0415
  202POPC   C2B 2915   7.454   3.238   6.442 -0.1034 -0.0503 -0.4293
  202POPC   C3B 2916   7.356   3.296   6.927 -0.2567  0.2441 -0.0315
  202POPC   C4B 2917   7.570   3.547   7.183 -0.0246 -0.0371 -0.0408
  203POPC   NC3 2918   9.525   8.878   4.400 -0.2516 -0.1568 -0.1112
  203POPC   PO4 2919   9.765   9.221   4.228 -0.3616  0.1293 -0.3288
  203POPC   GL1 2920   9.883   9.341   4.625 -0.1750  0.2972  0.1343
  203POPC   GL2 2921  10.134   9.288   4.671  0.0680  0.0412  0.0812
  203POPC   C1A 2922   9.981   9.729   4.936  0.0765 -0.0554 -0.1602
  203POPC   D2A 2923  10.231  10.115   4.988  0.2265 -0.1337 -0.0828
  203POPC   C3A 2924  10.157  10.507   5.270 -0.1315  0.1952  0.0306
  203POPC   C4A 2925   9.883  10.615   5.466  0.2186  0.0705  0.0724
  203POPC   C1B 2926  10.252   9.034   4.956 -0.1474 -0.3110 -0.0355
  203POPC   C2B 2927  10.237   9.224   5.380  0.0056 -0.0442 -0.0702
  203POPC   C3B 2928  10.275   9.305   5.874  0.1059  0.1409 -0.1871
  203POPC   C4B 2929  10.440   9.202   6.252  0.1697  0.3498 -0.0365
  204POPC   NC3 2930   7.544   6.068   4.710 -0.2308  0.0355  0.0921
  204POPC   PO4 2931   7.128   6.151   4.902  0.1673  0.0982  0.1258
  204POPC   GL1 2932   7.274   6.181   5.333 -0.0389 -0.1520  0.4463
  204POPC   GL2 2933   7.073   6.565   5.433 -0.3632 -0.1148  0.0439
  204POPC   C1A 2934   7.368   5.966   5.800  0.1634  0.3460 -0.0972
  204POPC   D2A 2935   7.256   5.919   6.274  0.0102 -0.3940 -0.1452
  204POPC   C3A 2936   6.836   6.006   6.544 -0.3275  0.0337 -0.1597
  204POPC   C4A 2937   6.829   6.146   6.998  0.1062  0.3124  0.3385
  204POPC   C1B 2938   6.968   6.562   5.806 -0.1376  0.0861  0.0045
  204POPC   C2B 2939   6.901   6.355   6.175 -0.3091 -0.1746 -0.0409
  204POPC   C3B 2940   7.213   6.282   6.552 -0.0599 -0.1019 -0.0425
  204POPC   C4B 2941   7.427   6.668   6.733 -0.0149 -0.0746 -0.0560
  205POPC   NC3 2942   6.597  10.162   4.033 -0.1700  0.1941  0.0330
  205POPC   PO4 2943   6.638  10.328   4.514 -0.3305 -0.0121 -0.1435
  205POPC   GL1 2944   6.722  10.426   4.954 -0.0235  0.1924 -0.0183
  205POPC   GL2 2945   7.041  10.326   4.882  0.0399  0.1759  0.0246
  205POPC   C1A 2946   6.632  10.211   5.367  0.3389 -0.0612 -0.0760
  205POPC   D2A 2947   6.834  10.382   5.750 -0.1583 -0.2158  0.2179
  205POPC   C3A 2948   7.008  10.154   6.184  0.1087  0.1968 -0.0521
  205POPC   C4A 2949   6.991   9.740   6.397  0.1305 -0.0727 -0.1042
  205POPC   C1B 2950   7.115  10.371   5.295 -0.2599  0.0247 -0.0164
  205POPC   C2B 2951   7.083  10.790   5.413 -0.1635  0.2132 -0.1344
  205POPC   C3B 2952   7.316  11.157   5.436  0.1300 -0.1271  0.1240
  205POPC   C4B 2953   7.360  11.503   5.783 -0.1270  0.0551 -0.2126
  206POPC   NC3 2954   6.243   7.784   4.814  0.3547  0.2690  0.0613
  206POPC   PO4 2955   6.167   7.408   4.848 -0.0881  0.2795  0.0530
  206POPC   GL1 2956   5.948   7.738   5.260 -0.0498 -0.2095 -0.0327
  206POPC   GL2 2957   5.627   7.823   5.290 -0.2102 -0.0674 -0.2385
  206POPC   C1A 2958   6.025   7.946   5.661  0.0396 -0.0963 -0.3111
  206POPC   D2A 2959   6.160   8.174   6.024 -0.2007 -0.0299  0.3034
  206POPC   C3A 2960   6.046   8.321   6.523 -0.0666 -0.1933  0.0823
  206POPC   C4A 2961   6.074   8.542   6.956 -0.1183 -0.0846  0.0489
  206POPC   C1B 2962   5.543   7.738   5.704 -0.0133 -0.0281  0.0832
  206POPC   C2B 2963   5.590   7.551   6.155 -0.0206 -0.1951 -0.1428
  206POPC   C3B 2964   5.687   7.516   6.598  0.3095  0.1537  0.0319
  206POPC   C4B 2965   5.929   7.253   6.858 -0.1059 -0.2121 -0.1582
  207POPC   NC3 2966   0.066   9.559   4.128 -0.0828 -0.0626  0.3859
  207POPC   PO4 2967   0.375   9.849   4.399 -0.0046 -0.0078 -0.1898
  207POPC   GL1 2968   0.249  10.002   4.700 -0.0491  0.1412 -0.0452
  207POPC   GL2 2969   0.409  10.287   4.670 -0.0037 -0.1092  0.0524
  207POPC   C1A 2970   0.441   9.934   5.116 -0.1509 -0.0932  0.3072
  207POPC   D2A 2971   0.561   9.815   5.637  0.0502  0.1184  0.2282
  207POPC   C3A 2972   0.254   9.699   5.971 -0.0893 -0.1883 -0.2414
  207POPC   C4A 2973   0.090   9.699   6.431 -0.1645 -0.2071 -0.2025
  207POPC   C1B 2974   0.812  10.454   4.501  0.1899 -0.1126 -0.1462
  207POPC   C2B 2975   1.215  10.866   4.470 -0.3074  0.1145  0.1845
  207POPC   C3B 2976   1.590  11.127   4.416  0.1775  0.0231 -0.1591
  207POPC   C4B 2977   1.803  11.475   4.517  0.1894  0.0721 -0.1017
  208POPC   NC3 2978   0.888   9.110   4.671  0.0191  0.2502  0.1622
  208POPC   PO4 2979   1.279   9.274   4.416 -0.1003  0.0464  0.1255
  208POPC   GL1 2980   1.279   9.381   4.888 -0.0747  0.1213  0.1104
  208POPC   GL2 2981   1.575   9.471   5.091  0.3579  0.0272 -0.2372
  208POPC   C1A 2982   1.070   9.759   5.026 -0.0248 -0.1942 -0.2175
  208POPC   D2A 2983   0.925  10.006   5.304  0.1159  0.1036 -0.4063
  208POPC   C3A 2984   0.728  10.359   5.259  0.0723 -0.1477  0.3677
  208POPC   C4A 2985   0.476  10.717   5.309  0.0278 -0.1671 -0.0323
  208POPC   C1B 2986   1.690   9.340   5.418 -0.0447 -0.1030 -0.0983
  208POPC   C2B 2987   1.524   9.283   5.694  0.1169 -0.0503  0.0508
  208POPC   C3B 2988   1.575   9.159   6.240  0.5046 -0.1270 -0.0164
  208POPC   C4B 2989   1.820   8.905   6.487  0.1485 -0.2802  0.1563
  209POPC   NC3 2990   8.685   3.456   4.705  0.0195 -0.0175 -0.3800
  209POPC   PO4 2991   8.828   3.903   4.771  0.2593 -0.1964 -0.2168
  209POPC   GL1 2992   8.832   3.776   5.237 -0.1758 -0.0354 -0.3087
  209POPC   GL2 2993   9.111   3.391   5.143 -0.1057  0.3284  0.1246
  209POPC   C1A 2994   8.959   3.515   5.624  0.1873  0.0325  0.0201
  209POPC   D2A 2995   9.062   3.472   6.035 -0.0173 -0.3925  0.0016
  209POPC   C3A 2996   9.068   3.101   6.275  0.1386  0.2796  0.0656
  209POPC   C4A 2997   9.304   2.793   6.528  0.0236  0.0458  0.2990
  209POPC   C1B 2998   8.960   3.028   5.343 -0.2241  0.2412 -0.2234
  209POPC   C2B 2999   9.022   2.899   5.752 -0.1074  0.2286 -0.1898
  209POPC   C3B 3000   9.249   2.673   5.991  0.0753 -0.2767  0.2883
  209POPC   C4B 3001   9.682   2.747   6.177 -0.0096 -0.0957  0.3307
  210POPC   NC3 3002   9.163   6.876   5.541 -0.1843  0.3688 -0.1724
  210POPC   PO4 3003   9.557   6.963   5.240  0.1368  0.0476  0.2335
  210POPC   GL1 3004   9.522   7.293   5.646 -0.2419 -0.0997 -0.1440
  210POPC   GL2 3005   9.404   7.195   5.899 -0.2594  0.0024 -0.3013
  210POPC   C1A 3006   9.740   7.693   5.818  0.0988  0.1527  0.1874
  210POPC   D2A 3007   9.565   8.032   5.911  0.1656 -0.1458 -0.2163
  210POPC   C3A 3008   9.559   7.992   6.378  0.0810  0.3769  0.0849
  210POPC   C4A 3009   9.451   8.277   6.659 -0.1147 -0.0649  0.2104
  210POPC   C1B 3010   9.605   7.105   6.395 -0.0366 -0.3533 -0.1044
  210POPC   C2B 3011   9.676   7.102   6.756 -0.1364 -0.2916 -0.0764
  210POPC   C3B 3012   9.791   7.233   7.256  0.0167  0.1814  0.0006
  210POPC   C4B 3013   9.944   7.496   7.555 -0.1168  0.0340  0.0923
  211POPC   NC3 3014   3.310   9.155   4.295 -0.3903 -0.3798 -0.0538
  211POPC   PO4 3015   3.090   8.906   4.594  0.0738 -0.0487 -0.1452
  211POPC   GL1 3016   2.880   9.038   4.979  0.1749  0.2194 -0.1329
  211POPC   GL2 3017   3.012   9.272   5.024  0.1954 -0.3161 -0.0552
  211POPC   C1A 3018   2.858   9.074   5.417 -0.2367  0.0187 -0.2223
  211POPC   D2A 3019   3.011   9.216   5.917 -0.6062 -0.2718  0.3472
  211POPC   C3A 3020   2.843   9.326   6.283  0.0194  0.0392 -0.1315
  211POPC   C4A 3021   2.633   9.347   6.764 -0.2151  0.0008  0.0680
  211POPC   C1B 3022   3.275   9.412   5.516  0.0996  0.0336 -0.2074
  211POPC   C2B 3023   3.548   9.347   5.908 -0.3920 -0.0347 -0.2707
  211POPC   C3B 3024   3.399   9.239   6.404  0.0498 -0.0371 -0.1260
  211POPC   C4B 3025   3.621   9.039   6.796  0.1721 -0.1202 -0.0706
  212POPC   NC3 3026   8.340   3.720   4.941  0.1659  0.0073  0.1166
  212POPC   PO4 3027   8.307   3.170   4.891  0.0954  0.1198  0.0148
  212POPC   GL1 3028   8.142   3.096   5.290 -0.2558 -0.2902  0.1574
  212POPC   GL2 3029   8.020   3.434   5.402 -0.2494  0.0135  0.0937
  212POPC   C1A 3030   8.376   3.143   5.689  0.3211 -0.0970  0.1536
  212POPC   D2A 3031   8.123   2.924   6.045  0.0110  0.3825 -0.0440
  212POPC   C3A 3032   7.868   2.974   6.357 -0.0249  0.1500  0.2389
  212POPC   C4A 3033   7.570   2.835   6.631 -0.0154 -0.0301  0.0448
  212POPC   C1B 3034   8.006   3.484   5.736 -0.1296  0.0706  0.0996
  212POPC   C2B 3035   8.127   3.448   6.214 -0.2023 -0.1525  0.2960
  212POPC   C3B 3036   8.203   3.489   6.620  0.1641 -0.0165  0.0674
  212POPC   C4B 3037   8.010   3.726   7.026  0.1644  0.1798  0.1466
  213POPC   NC3 3038   5.369   3.727   4.911  0.0961  0.0493 -0.0774
  213POPC   PO4 3039   4.979   3.846   4.704 -0.0645  0.2353 -0.2162
  213POPC   GL1 3040   4.972   3.804   5.162  0.1403  0.2700  0.0116
  213POPC   GL2 3041   4.978   3.506   5.192  0.1294 -0.1445 -0.2292
  213POPC   C1A 3042   5.203   3.872   5.511  0.1428  0.1890 -0.2204
  213POPC   D2A 3043   5.328   3.742   5.881 -0.0197 -0.3749  0.2584
  213POPC   C3A 3044   5.310   3.464   6.265  0.0382  0.1154  0.2776
  213POPC   C4A 3045   5.242   3.478   6.744  0.0766  0.1430 -0.3768
  213POPC   C1B 3046   4.711   3.257   5.589  0.3522 -0.0311  0.1390
  213POPC   C2B 3047   4.535   3.286   6.022 -0.0036  0.2226  0.1584
  213POPC   C3B 3048   4.335   3.563   6.252 -0.0123  0.0364 -0.0389
  213POPC   C4B 3049   4.058   3.945   6.269 -0.0731 -0.1131  0.1639
  214POPC   NC3 3050   1.984   4.096   5.154 -0.0616 -0.1720 -0.0802
  214POPC   PO4 3051   1.820   4.554   5.232  0.1764 -0.3855  0.2240
  214POPC   GL1 3052   1.946   4.798   5.648  0.1056  0.3055 -0.0879
  214POPC   GL2 3053   1.694   4.728   5.910 -0.0290  0.0855  0.0153
  214POPC   C1A 3054   2.131   5.066   5.956 -0.0174 -0.2811  0.1075
  214POPC   D2A 3055   2.063   5.499   6.143 -0.0097  0.0409  0.2753
  214POPC   C3A 3056   2.315   5.608   6.474  0.0966  0.0209  0.0520
  214POPC   C4A 3057   2.595   5.442   6.716  0.1936 -0.1014 -0.1510
  214POPC   C1B 3058   1.645   4.454   6.271 -0.0175  0.1410 -0.1078
  214POPC   C2B 3059   1.621   4.009   6.416 -0.0670 -0.2291 -0.1954
  214POPC   C3B 3060   1.570   3.622   6.750 -0.0795  0.0989 -0.0125
  214POPC   C4B 3061   1.396   3.706   7.207  0.0833 -0.0955 -0.3315
  215POPC   NC3 3062   6.873   7.921   4.386  0.4831 -0.1123  0.0323
  215POPC   PO4 3063   6.627   8.074   4.785 -0.1454 -0.1584  0.3893
  215POPC   GL1 3064   6.432   8.194   5.195  0.0455  0.0437 -0.2936
  215POPC   GL2 3065   6.461   7.793   5.376 -0.0689 -0.1840  0.1809
  215POPC   C1A 3066   6.374   8.359   5.572 -0.1406 -0.0185 -0.1601
  215POPC   D2A 3067   6.655   8.356   5.981  0.2630  0.2741  0.2830
  215POPC   C3A 3068   6.699   8.464   6.351 -0.3487 -0.3199  0.1110
  215POPC   C4A 3069   6.558   8.447   6.866  0.2556 -0.0625  0.1968
  215POPC   C1B 3070   6.558   7.934   5.763 -0.0176  0.0960 -0.0793
  215POPC   C2B 3071   6.521   7.905   6.214  0.0019 -0.0159  0.1659
  215POPC   C3B 3072   6.565   7.996   6.722 -0.1026 -0.1086  0.2691
  215POPC   C4B 3073   6.935   8.122   6.904 -0.1751  0.2043  0.0695
  216POPC   NC3 3074   1.206   8.357   4.626 -0.1229 -0.0257 -0.0155
  216POPC   PO4 3075   0.975   8.515   4.896 -0.2458 -0.1108 -0.3196
  216POPC   GL1 3076   0.990   8.701   5.163 -0.1856  0.0145  0.1170
  216POPC   GL2 3077   0.857   9.019   5.175 -0.0099  0.2827 -0.3200
  216POPC   C1A 3078   0.991   8.771   5.566  0.0373  0.2014 -0.1752
  216POPC   D2A 3079   0.605   8.795   5.983 -0.0250  0.0082 -0.2900
  216POPC   C3A 3080   0.677   8.458   6.302  0.2265  0.0120  0.2011
  216POPC   C4A 3081   0.557   8.183   6.449 -0.1504 -0.1552  0.1020
  216POPC   C1B 3082   1.106   9.376   5.315  0.0329 -0.2910  0.1310
  216POPC   C2B 3083   1.051   9.636   5.673  0.0499  0.1461 -0.2550
  216POPC   C3B 3084   1.039  10.007   5.760 -0.0572 -0.0864  0.1044
  216POPC   C4B 3085   0.902  10.424   5.804 -0.0244 -0.0029 -0.0251
  217POPC   NC3 3086   4.501   1.295   4.361 -0.1322  0.3985 -0.0691
  217POPC   PO4 3087   4.598   0.892   4.565  0.2095 -0.1686 -0.0814
  217POPC   GL1 3088   4.578   0.972   5.000  0.0573  0.0209  0.0669
  217POPC   GL2 3089   4.318   1.172   5.033 -0.2041  0.0906  0.1615
  217POPC   C1A 3090   4.396   1.041   5.492  0.4371 -0.2840  0.0628
  217POPC   D2A 3091   4.186   0.929   5.772  0.0101 -0.0748 -0.2777
  217POPC   C3A 3092   4.240   0.689   6.074  0.2473 -0.2778  0.2524
  217POPC   C4A 3093   4.346   0.386   6.446 -0.1806 -0.1699 -0.3249
  217POPC   C1B 3094   3.912   1.145   5.310 -0.3154  0.3468  0.0550
  217POPC   C2B 3095   3.661   1.075   5.751 -0.2276  0.1746  0.0742
  217POPC   C3B 3096   3.837   1.052   6.147 -0.0660  0.1574  0.1633
  217POPC   C4B 3097   4.212   0.983   6.406 -0.0366 -0.2837 -0.1026
  218POPC   NC3 3098   2.192   3.167   4.994 -0.3578  0.0759  0.0322
  218POPC   PO4 3099   1.703   3.079   4.968 -0.0429 -0.0797 -0.0546
  218POPC   GL1 3100   1.756   3.128   5.368 -0.1874 -0.4538 -0.0013
  218POPC   GL2 3101   1.691   2.881   5.528  0.2231 -0.1960 -0.2500
  218POPC   C1A 3102   1.541   3.338   5.755 -0.1087 -0.1841 -0.2016
  218POPC   D2A 3103   1.127   3.129   6.017 -0.1401 -0.0883  0.0072
  218POPC   C3A 3104   1.225   2.903   6.382  0.1982 -0.0430 -0.0829
  218POPC   C4A 3105   1.231   2.701   6.628 -0.0810 -0.2716 -0.0764
  218POPC   C1B 3106   1.620   2.803   6.026  0.3148  0.2932 -0.1683
  218POPC   C2B 3107   1.703   2.726   6.504  0.3252  0.0565  0.2099
  218POPC   C3B 3108   1.981   2.616   6.877 -0.0618  0.1800  0.0483
  218POPC   C4B 3109   2.119   2.885   7.321 -0.0488 -0.0776  0.1230
  219POPC   NC3 3110   1.020   6.271   5.118 -0.1722  0.2487 -0.1334
  219POPC   PO4 3111   0.863   6.698   5.258 -0.1759 -0.0824 -0.4811
  219POPC   GL1 3112   0.768   6.692   5.744  0.1844  0.3387  0.2110
  219POPC   GL2 3113   0.471   6.781   5.854  0.3438 -0.1740 -0.2368
  219POPC   C1A 3114   0.985   6.595   6.127 -0.1748  0.2233  0.0403
  219POPC   D2A 3115   1.348   6.760   6.368  0.1449 -0.0910  0.3438
  219POPC   C3A 3116   1.268   6.947   6.735  0.0487  0.1202  0.0802
  219POPC   C4A 3117   1.303   6.967   7.206  0.2116 -0.0086  0.1011
  219POPC   C1B 3118   0.264   6.852   6.264  0.0004  0.0934 -0.1645
  219POPC   C2B 3119  -0.063   7.019   6.384  0.0808 -0.2010 -0.0791
  219POPC   C3B 3120  -0.319   7.357   6.472 -0.2543  0.0263 -0.3241
  219POPC   C4B 3121  -0.677   7.580   6.590 -0.1479  0.0291 -0.0332
  220POPC   NC3 3122   4.168   0.677   4.892 -0.0199 -0.1646 -0.2981
  220POPC   PO4 3123   4.614   0.477   5.051 -0.0901  0.3475  0.2118
  220POPC   GL1 3124   4.499   0.560   5.414 -0.0930  0.0702 -0.1019
  220POPC   GL2 3125   4.136   0.552   5.371  0.0177  0.0231 -0.1177
  220POPC   C1A 3126   4.600   0.438   5.856 -0.0826 -0.0855  0.1124
  220POPC   D2A 3127   4.792   0.418   6.192  0.1190 -0.0701  0.2438
  220POPC   C3A 3128   4.680   0.738   6.437 -0.2501  0.0755  0.2676
  220POPC   C4A 3129   4.738   1.099   6.589 -0.2073 -0.0172 -0.0129
  220POPC   C1B 3130   4.119   0.330   5.725 -0.3134  0.3034 -0.2145
  220POPC   C2B 3131   4.026   0.193   6.073  0.1449 -0.1797  0.2054
  220POPC   C3B 3132   3.610   0.006   5.989  0.0061  0.1005  0.1969
  220POPC   C4B 3133   3.315  -0.272   6.121 -0.1282  0.2693 -0.2834
  221POPC   NC3 3134   9.391   5.810   4.724 -0.2360 -0.0005 -0.2802
  221POPC   PO4 3135   9.399   5.639   5.112 -0.1891 -0.1761 -0.1354
  221POPC   GL1 3136   9.073   5.697   5.521 -0.2167 -0.1374  0.0799
  221POPC   GL2 3137   9.054   5.986   5.755 -0.1326 -0.0266  0.2100
  221POPC   C1A 3138   9.047   5.535   5.966  0.1613  0.0094  0.2939
  221POPC   D2A 3139   9.005   5.472   6.459  0.0216 -0.0358 -0.0321
  221POPC   C3A 3140   9.018   5.930   6.653  0.0470 -0.3020 -0.0374
  221POPC   C4A 3141   8.759   6.116   6.875 -0.1689  0.1774  0.4681
  221POPC   C1B 3142   9.036   6.281   6.121  0.1132 -0.1135  0.1094
  221POPC   C2B 3143   8.683   6.433   6.339 -0.0822  0.0145  0.0103
  221POPC   C3B 3144   8.390   6.198   6.541 -0.1268  0.0217  0.0719
  221POPC   C4B 3145   8.238   5.968   6.778 -0.1342  0.1379 -0.0373
  222POPC   NC3 3146   4.789   5.624   4.696 -0.0624  0.3098  0.2173
  222POPC   PO4 3147   4.766   6.093   4.777  0.0839 -0.1924  0.0261
  222POPC   GL1 3148   4.765   5.997   5.210 -0.0123  0.1077 -0.2439
  222POPC   GL2 3149   4.583   5.735   5.098 -0.1306 -0.0473  0.0797
  222POPC   C1A 3150   4.574   6.097   5.520 -0.0154  0.0106 -0.2636
  222POPC   D2A 3151   4.163   6.206   5.869 -0.1954 -0.1145 -0.2281
  222POPC   C3A 3152   4.008   6.334   6.336  0.3610 -0.0719  0.0947
  222POPC   C4A 3153   3.878   6.498   6.694  0.1126 -0.1515 -0.1569
  222POPC   C1B 3154   4.611   5.429   5.340 -0.1397  0.0448  0.1812
  222POPC   C2B 3155   4.883   5.134   5.408 -0.4259  0.4644  0.1212
  222POPC   C3B 3156   5.240   5.074   5.670  0.0969 -0.1726  0.0791
  222POPC   C4B 3157   5.459   5.167   6.070 -0.1000  0.0653  0.3379
  223POPC   NC3 3158   3.541   0.773   4.323 -0.2189 -0.1451 -0.2818
  223POPC   PO4 3159   3.314   0.937   4.681 -0.1707  0.0539  0.1550
  223POPC   GL1 3160   3.083   1.064   5.043 -0.3636 -0.2664 -0.2028
  223POPC   GL2 3161   3.149   1.450   5.093  0.2545 -0.0788  0.0039
  223POPC   C1A 3162   2.976   1.170   5.491 -0.2564 -0.0265  0.3679
  223POPC   D2A 3163   2.896   1.042   5.939 -0.1693 -0.2973  0.1481
  223POPC   C3A 3164   2.837   0.719   6.134  0.2669 -0.1993  0.0436
  223POPC   C4A 3165   2.598   0.728   6.518 -0.0381  0.1346 -0.0492
  223POPC   C1B 3166   3.468   1.393   5.329  0.1945  0.0768  0.0691
  223POPC   C2B 3167   3.281   1.383   5.818 -0.3550  0.3639  0.0880
  223POPC   C3B 3168   3.456   1.392   6.184 -0.3486 -0.0306  0.0310
  223POPC   C4B 3169   3.423   1.479   6.595 -0.1441 -0.0434 -0.0463
  224POPC   NC3 3170   5.137   2.460   4.075  0.2120  0.0927 -0.2203
  224POPC   PO4 3171   5.033   2.869   4.384  0.0313 -0.3292 -0.1463
  224POPC   GL1 3172   5.148   2.848   4.883 -0.0888 -0.0868  0.4988
  224POPC   GL2 3173   5.447   2.735   5.068  0.2307  0.0589 -0.1150
  224POPC   C1A 3174   5.104   3.045   5.300  0.0147 -0.0211 -0.0499
  224POPC   D2A 3175   5.030   2.863   5.631  0.2215  0.3332 -0.1009
  224POPC   C3A 3176   4.671   2.796   5.744 -0.0069  0.0907  0.2606
  224POPC   C4A 3177   4.296   2.683   5.653  0.2251 -0.1466 -0.4238
  224POPC   C1B 3178   5.496   2.798   5.448  0.1289  0.1277 -0.2208
  224POPC   C2B 3179   5.511   2.927   5.988 -0.2135 -0.0555 -0.1645
  224POPC   C3B 3180   5.750   2.965   6.362 -0.2613 -0.0315  0.2995
  224POPC   C4B 3181   6.051   2.996   6.594  0.0524 -0.0776  0.0962
  225POPC   NC3 3182   1.986   7.057   4.835  0.1509  0.2221 -0.2609
  225POPC   PO4 3183   2.346   6.814   4.944 -0.2719 -0.0978  0.3241
  225POPC   GL1 3184   2.507   6.611   5.223 -0.2499 -0.0932 -0.2106
  225POPC   GL2 3185   2.205   6.408   5.289 -0.0336  0.0140  0.0645
  225POPC   C1A 3186   2.681   6.589   5.686  0.1803 -0.3696 -0.0126
  225POPC   D2A 3187   2.632   6.401   6.056  0.2896  0.0863 -0.1849
  225POPC   C3A 3188   2.995   6.169   6.157 -0.2956 -0.2417  0.1867
  225POPC   C4A 3189   3.288   6.016   6.469  0.1657  0.0242  0.2075
  225POPC   C1B 3190   2.188   6.585   5.654 -0.4992  0.1938 -0.0005
  225POPC   C2B 3191   2.108   6.625   6.080 -0.0645  0.0834  0.0731
  225POPC   C3B 3192   1.712   6.421   6.216 -0.1135 -0.2235  0.1884
  225POPC   C4B 3193   1.341   6.266   6.166  0.2683  0.3562 -0.4118
  226POPC   NC3 3194   1.745  10.024   4.446  0.1199  0.4161  0.0812
  226POPC   PO4 3195   1.914   9.656   4.614 -0.1995 -0.0023 -0.2683
  226POPC   GL1 3196   2.052   9.639   5.012 -0.1118  0.0486  0.0026
  226POPC   GL2 3197   2.312   9.597   5.152  0.3464 -0.1180  0.0235
  226POPC   C1A 3198   1.968   9.829   5.499  0.0278 -0.0442 -0.2343
  226POPC   D2A 3199   1.963  10.049   5.917 -0.3965  0.4160 -0.2562
  226POPC   C3A 3200   2.118  10.015   6.324 -0.0523 -0.0142 -0.0012
  226POPC   C4A 3201   1.821  10.140   6.718 -0.1837 -0.2722 -0.0506
  226POPC   C1B 3202   2.450   9.497   5.516  0.0774 -0.1539 -0.1068
  226POPC   C2B 3203   2.612   9.611   5.921  0.1834  0.2549 -0.2701
  226POPC   C3B 3204   2.459   9.614   6.364 -0.2480  0.0355 -0.1832
  226POPC   C4B 3205   2.522   9.898   6.659 -0.2374 -0.3999 -0.2295
  227POPC   NC3 3206   1.721   9.145   4.794 -0.2262  0.1171  0.1280
  227POPC   PO4 3207   1.904   8.893   4.983  0.0775  0.0670  0.1730
  227POPC   GL1 3208   1.909   8.894   5.333  0.0993  0.0164  0.1907
  227POPC   GL2 3209   1.978   8.692   5.497 -0.1549 -0.0766 -0.0299
  227POPC   C1A 3210   2.088   9.182   5.639  0.1529 -0.0993 -0.0176
  227POPC   D2A 3211   1.964   9.496   5.895 -0.3023  0.1675  0.1273
  227POPC   C3A 3212   1.965   9.514   6.331 -0.1563  0.0173  0.0030
  227POPC   C4A 3213   2.103   9.629   6.766  0.1968  0.0285  0.1432
  227POPC   C1B 3214   2.102   8.454   5.856 -0.1712  0.0902  0.2693
  227POPC   C2B 3215   1.725   8.345   6.079 -0.1882  0.1896 -0.1082
  227POPC   C3B 3216   1.666   8.411   6.478  0.3247  0.3076 -0.0291
  227POPC   C4B 3217   1.559   8.753   6.913  0.1865  0.0038 -0.0109
  228POPC   NC3 3218   2.722   8.555   4.876  0.3293  0.0918 -0.0125
  228POPC   PO4 3219   2.368   8.418   5.237  0.1053  0.0711  0.2063
  228POPC   GL1 3220   2.560   8.625   5.530  0.0415 -0.2495  0.3122
  228POPC   GL2 3221   2.911   8.678   5.754  0.0691 -0.2604  0.2581
  228POPC   C1A 3222   2.500   9.005   5.748  0.1694  0.1496 -0.1407
  228POPC   D2A 3223   2.352   9.235   6.110 -0.3365  0.0432  0.0997
  228POPC   C3A 3224   2.217   9.156   6.584  0.2501  0.1332 -0.3975
  228POPC   C4A 3225   2.271   8.896   6.952 -0.1830 -0.3425 -0.0433
  228POPC   C1B 3226   3.200   8.834   6.118 -0.0688  0.4052 -0.0650
  228POPC   C2B 3227   3.241   8.741   6.451  0.3556  0.0484 -0.0938
  228POPC   C3B 3228   3.024   8.458   6.642 -0.1624 -0.0624 -0.1067
  228POPC   C4B 3229   2.892   8.102   6.641 -0.1395  0.0881 -0.0551
  229POPC   NC3 3230  10.035   5.072   5.878  0.0840  0.2002  0.3896
  229POPC   PO4 3231  10.480   5.011   5.793 -0.0101 -0.2210 -0.2424
  229POPC   GL1 3232  10.501   4.845   6.208 -0.3510 -0.1440 -0.1437
  229POPC   GL2 3233  10.214   4.976   6.350 -0.0474 -0.2830  0.3131
  229POPC   C1A 3234  10.314   4.496   6.464 -0.0455 -0.0655 -0.0238
  229POPC   D2A 3235  10.291   4.254   6.870  0.1073 -0.4294 -0.2413
  229POPC   C3A 3236  10.317   3.899   7.022 -0.0786  0.1739  0.1235
  229POPC   C4A 3237  10.422   3.625   7.431  0.1768 -0.1464  0.0821
  229POPC   C1B 3238   9.886   5.050   6.590  0.0141 -0.4503  0.3963
  229POPC   C2B 3239   9.712   4.976   6.978 -0.4274  0.0501  0.2586
  229POPC   C3B 3240   9.368   4.960   7.226 -0.1691  0.0076  0.1415
  229POPC   C4B 3241   8.990   5.108   7.302 -0.3461  0.0652 -0.2720
  230POPC   NC3 3242   0.572   0.867   3.558 -0.1579  0.0557  0.1888
  230POPC   PO4 3243   0.777   1.264   3.764  0.3612 -0.1215  0.2563
  230POPC   GL1 3244   0.731   1.198   4.188 -0.1122 -0.0651 -0.0418
  230POPC   GL2 3245   0.991   1.357   4.443 -0.1335 -0.1727 -0.0024
  230POPC   C1A 3246   0.407   1.184   4.465  0.1739 -0.4337 -0.1901
  230POPC   D2A 3247   0.309   1.009   4.956 -0.1001  0.1417 -0.2729
  230POPC   C3A 3248   0.013   0.795   5.165  0.0951 -0.3139  0.0069
  230POPC   C4A 3249  -0.002   0.367   5.237  0.1575  0.2187  0.1358
  230POPC   C1B 3250   0.688   1.365   4.847  0.1902 -0.2530 -0.0901
  230POPC   C2B 3251   0.518   1.268   5.275  0.1559  0.0626  0.4023
  230POPC   C3B 3252   0.053   1.361   5.295 -0.0373 -0.3853  0.0668
  230POPC   C4B 3253  -0.303   1.587   5.211  0.2057  0.0327 -0.1105
  231POPC   NC3 3254   7.537   8.501   4.285  0.0559  0.0098  0.1013
  231POPC   PO4 3255   7.594   8.512   4.704 -0.4366 -0.3469 -0.1442
  231POPC   GL1 3256   7.696   8.599   5.143 -0.0310  0.2192  0.0055
  231POPC   GL2 3257   7.796   8.315   5.422 -0.2145  0.1670 -0.1179
  231POPC   C1A 3258   7.660   8.738   5.606  0.3548  0.1790  0.1916
  231POPC   D2A 3259   7.711   8.739   6.083 -0.1708 -0.0534 -0.0950
  231POPC   C3A 3260   7.791   9.018   6.413 -0.4253  0.3465 -0.2966
  231POPC   C4A 3261   7.724   9.216   6.815  0.3065  0.0075  0.1570
  231POPC   C1B 3262   8.031   8.465   5.710 -0.0258  0.3654 -0.4118
  231POPC   C2B 3263   8.184   8.572   6.016 -0.1778  0.4334  0.5613
  231POPC   C3B 3264   8.290   8.775   6.433 -0.0268  0.1360  0.0976
  231POPC   C4B 3265   8.452   9.005   6.660 -0.0084 -0.0162  0.0272
  232POPC   NC3 3266   9.675   2.783   3.673  0.1004  0.1634  0.2958
  232POPC   PO4 3267   9.827   2.474   4.035  0.1390  0.0005  0.1194
  232POPC   GL1 3268   9.764   2.313   4.431 -0.1298  0.1550 -0.0853
  232POPC   GL2 3269   9.906   2.170   4.518  0.3496  0.2648  0.1563
  232POPC   C1A 3270   9.497   2.216   4.798  0.1724  0.2980 -0.2034
  232POPC   D2A 3271   9.316   2.082   5.160  0.1159  0.1879  0.2473
  232POPC   C3A 3272   8.884   2.096   5.243 -0.2295 -0.2270 -0.0100
  232POPC   C4A 3273   8.538   1.854   5.353  0.4143 -0.7206 -0.0758
  232POPC   C1B 3274   9.618   1.845   4.470  0.0210 -0.1352 -0.1704
  232POPC   C2B 3275   9.441   1.493   4.418  0.1620  0.3002  0.0193
  232POPC   C3B 3276   9.364   1.250   4.721  0.0827  0.1116 -0.4903
  232POPC   C4B 3277   9.062   1.166   4.941 -0.2621  0.0234 -0.1421
  233POPC   NC3 3278   9.089   5.164   5.241 -0.3107 -0.2904 -0.3157
  233POPC   PO4 3279   9.379   5.136   5.413 -0.1842 -0.3087  0.1036
  233POPC   GL1 3280   9.468   5.358   5.808 -0.1035  0.0664  0.0344
  233POPC   GL2 3281   9.586   5.572   5.697 -0.2373 -0.0722  0.1213
  233POPC   C1A 3282   9.489   5.328   6.298  0.3832  0.1822  0.0676
  233POPC   D2A 3283   9.535   5.669   6.584 -0.0852  0.0713 -0.1784
  233POPC   C3A 3284   9.728   5.457   6.878 -0.4753 -0.1550 -0.0475
  233POPC   C4A 3285  10.082   5.306   6.967 -0.3443 -0.0886  0.1212
  233POPC   C1B 3286   9.868   5.730   6.159  0.4107 -0.1189  0.1942
  233POPC   C2B 3287  10.054   5.769   6.551 -0.4908 -0.0322 -0.0775
  233POPC   C3B 3288  10.357   5.892   6.801 -0.0431  0.3729  0.1064
  233POPC   C4B 3289  10.427   6.282   6.994 -0.0036  0.1193  0.1014
  234POPC   NC3 3290   1.357   4.637   5.445 -0.2120  0.0991  0.1433
  234POPC   PO4 3291   1.199   5.032   5.431 -0.3298 -0.2134 -0.1554
  234POPC   GL1 3292   1.342   5.105   5.813  0.0881  0.0327 -0.1493
  234POPC   GL2 3293   1.661   5.255   5.964 -0.0436  0.0851  0.3006
  234POPC   C1A 3294   1.166   5.232   6.252  0.2016 -0.0979 -0.1367
  234POPC   D2A 3295   1.143   5.172   6.582 -0.2961 -0.2603 -0.0725
  234POPC   C3A 3296   0.908   5.267   6.891  0.0255  0.3623 -0.2776
  234POPC   C4A 3297   0.706   5.558   7.060  0.1729  0.0334 -0.1026
  234POPC   C1B 3298   1.734   4.998   6.374  0.1601  0.1927  0.1073
  234POPC   C2B 3299   1.547   4.774   6.650 -0.1537 -0.0805  0.2035
  234POPC   C3B 3300   1.154   4.737   7.025 -0.0871 -0.3842 -0.0227
  234POPC   C4B 3301   0.880   4.552   7.399 -0.2326 -0.2359  0.1880
  235POPC   NC3 3302   9.349   7.739   5.214  0.0225  0.3254  0.3492
  235POPC   PO4 3303   9.120   7.300   5.266 -0.0982  0.1043  0.2461
  235POPC   GL1 3304   9.045   7.418   5.639  0.0935 -0.2488 -0.0125
  235POPC   GL2 3305   8.787   7.481   5.807 -0.1083  0.1258  0.2022
  235POPC   C1A 3306   9.216   7.650   5.984  0.3628  0.0213 -0.1238
  235POPC   D2A 3307   8.885   7.787   6.249 -0.0387  0.0155  0.1072
  235POPC   C3A 3308   9.104   7.867   6.667  0.1245  0.0016  0.0652
  235POPC   C4A 3309   9.093   8.236   7.018  0.0335  0.0485  0.2680
  235POPC   C1B 3310   8.932   7.273   6.151 -0.1530  0.0435 -0.1985
  235POPC   C2B 3311   9.298   7.477   6.501  0.1678 -0.0445  0.3732
  235POPC   C3B 3312   9.492   7.492   6.967 -0.2289 -0.1831 -0.0177
  235POPC   C4B 3313   9.485   7.719   7.251  0.2990  0.0810 -0.0089
  236POPC   NC3 3314  10.151   4.561   5.221 -0.0571  0.0837  0.0145
  236POPC   PO4 3315  10.404   4.247   5.357 -0.0514 -0.1609 -0.0287
  236POPC   GL1 3316  10.466   4.215   5.734 -0.2674  0.0826 -0.0488
  236POPC   GL2 3317  10.709   4.023   5.786 -0.1814  0.0372 -0.0583
  236POPC   C1A 3318  10.207   4.178   6.141 -0.2879  0.0232  0.2055
  236POPC   D2A 3319  10.002   4.090   6.550 -0.2331  0.0599 -0.0939
  236POPC   C3A 3320   9.588   4.064   6.577 -0.0479 -0.1600  0.1137
  236POPC   C4A 3321   9.254   4.018   6.365  0.1667  0.1012 -0.1079
  236POPC   C1B 3322  10.734   4.330   6.123  0.0034  0.1796  0.0143
  236POPC   C2B 3323  10.782   4.553   6.546 -0.0157 -0.0995  0.2001
  236POPC   C3B 3324  10.822   4.641   6.871 -0.3412  0.1834 -0.1912
  236POPC   C4B 3325  11.083   4.939   7.156 -0.0926  0.1246 -0.1708
  237POPC   NC3 3326   0.374   5.283   5.535 -0.1963 -0.3300 -0.1367
  237POPC   PO4 3327   0.484   5.695   5.747  0.0572  0.2445  0.0827
  237POPC   GL1 3328   0.596   6.042   5.945 -0.1602 -0.0485 -0.0403
  237POPC   GL2 3329   0.921   6.170   5.912 -0.3335 -0.3352 -0.2025
  237POPC   C1A 3330   0.448   6.388   6.215  0.0015  0.0055 -0.0238
  237POPC   D2A 3331   0.700   6.498   6.603  0.1048  0.2804  0.2246
  237POPC   C3A 3332   0.799   6.903   6.948 -0.0745 -0.1449 -0.2985
  237POPC   C4A 3333   0.968   7.346   7.088 -0.0272  0.3049 -0.1871
  237POPC   C1B 3334   0.849   6.064   6.386 -0.2094 -0.0229  0.1379
  237POPC   C2B 3335   1.112   5.803   6.597  0.3211  0.3089 -0.1348
  237POPC   C3B 3336   1.355   5.567   6.806 -0.4035 -0.0472  0.0742
  237POPC   C4B 3337   1.464   5.164   7.002  0.1069  0.3421  0.2030
  238POPC   NC3 3338   3.534   9.698   5.039 -0.0160 -0.4997 -0.0946
  238POPC   PO4 3339   3.245  10.003   4.888  0.2662  0.3192  0.0060
  238POPC   GL1 3340   3.187  10.011   5.325 -0.2581  0.1762 -0.4934
  238POPC   GL2 3341   3.043  10.379   5.172  0.1204  0.1515  0.0101
  238POPC   C1A 3342   3.014   9.968   5.691  0.0714 -0.0575 -0.0824
  238POPC   D2A 3343   2.748   9.956   6.188  0.1613  0.1906 -0.0139
  238POPC   C3A 3344   2.838  10.225   6.545 -0.0956  0.1624 -0.0252
  238POPC   C4A 3345   2.565  10.318   6.970  0.0418 -0.2475 -0.0931
  238POPC   C1B 3346   2.581  10.511   5.500 -0.2311 -0.2555  0.1006
  238POPC   C2B 3347   2.405  10.765   5.753 -0.2371 -0.0781  0.2390
  238POPC   C3B 3348   2.300  10.935   6.191 -0.0425 -0.1359  0.2232
  238POPC   C4B 3349   2.163  11.001   6.592 -0.0175 -0.2545 -0.3572
  239POPC   NC3 3350   3.152   7.845   5.327 -0.0487 -0.0643  0.0309
  239POPC   PO4 3351   2.715   8.086   5.236 -0.0328  0.0241 -0.1137
  239POPC   GL1 3352   2.846   8.177   5.678 -0.0189 -0.1117  0.0292
  239POPC   GL2 3353   2.577   8.249   5.876 -0.0672 -0.0012  0.1252
  239POPC   C1A 3354   3.050   8.348   6.131 -0.1567  0.1925 -0.0854
  239POPC   D2A 3355   3.541   8.490   6.050 -0.2202 -0.1698  0.0688
  239POPC   C3A 3356   3.665   8.732   5.723 -0.1251  0.2141 -0.3097
  239POPC   C4A 3357   3.323   8.903   5.534  0.0438 -0.0872 -0.0003
  239POPC   C1B 3358   2.681   8.670   6.201  0.1405 -0.1284 -0.1713
  239POPC   C2B 3359   2.663   8.927   6.535 -0.0701  0.0315  0.0275
  239POPC   C3B 3360   2.731   8.749   6.927  0.1537  0.3484 -0.4028
  239POPC   C4B 3361   2.828   8.984   7.350  0.0912 -0.2289  0.1648
  240POPC   NC3 3362   8.262   5.861   5.228  0.1078 -0.0814  0.2456
  240POPC   PO4 3363   8.149   5.452   5.276 -0.0465  0.0316 -0.0142
  240POPC   GL1 3364   8.265   5.351   5.667  0.2581 -0.0942  0.1087
  240POPC   GL2 3365   8.466   5.637   5.771 -0.1792 -0.0106  0.1252
  240POPC   C1A 3366   8.145   5.582   6.157 -0.0210  0.1261 -0.0438
  240POPC   D2A 3367   7.902   6.078   6.263 -0.0879 -0.0029  0.1659
  240POPC   C3A 3368   7.678   6.107   6.643 -0.1582  0.0297  0.0661
  240POPC   C4A 3369   7.759   6.352   6.962  0.2748 -0.0796  0.0102
  240POPC   C1B 3370   8.608   5.325   6.119  0.2935  0.0242 -0.1845
  240POPC   C2B 3371   8.357   5.217   6.605 -0.0363 -0.2928  0.4109
  240POPC   C3B 3372   8.243   5.455   7.065 -0.2531  0.2377  0.1009
  240POPC   C4B 3373   8.503   5.328   7.407  0.1686  0.2599  0.0622
  241POPC   NC3 3374   6.205   2.463   4.774 -0.1937  0.0043 -0.1455
  241POPC   PO4 3375   5.781   2.487   4.758 -0.1886 -0.2487 -0.0088
  241POPC   GL1 3376   5.935   2.640   5.151 -0.0814 -0.0078  0.0320
  241POPC   GL2 3377   6.230   2.890   5.149 -0.2144 -0.1953 -0.0933
  241POPC   C1A 3378   6.246   2.495   5.408  0.1390 -0.3602  0.1413
  241POPC   D2A 3379   6.586   2.338   5.603  0.1148  0.2253  0.3823
  241POPC   C3A 3380   6.486   2.275   6.034  0.1776  0.1231  0.1955
  241POPC   C4A 3381   6.517   2.005   6.427  0.3033 -0.0914  0.1708
  241POPC   C1B 3382   5.956   2.940   5.567  0.0859  0.2080  0.2002
  241POPC   C2B 3383   5.871   2.544   5.749  0.2103 -0.0213  0.2992
  241POPC   C3B 3384   6.000   2.156   5.909  0.0783  0.0377  0.0799
  241POPC   C4B 3385   5.999   1.708   5.984  0.3022 -0.3331 -0.1520
  242POPC   NC3 3386   3.941   2.514   4.672 -0.0636  0.1533 -0.0124
  242POPC   PO4 3387   4.209   2.930   4.784  0.1138  0.0287 -0.1506
  242POPC   GL1 3388   4.197   2.750   5.125  0.3369 -0.1404 -0.0098
  242POPC   GL2 3389   4.037   2.452   5.236 -0.0073 -0.1117  0.1595
  242POPC   C1A 3390   4.097   3.130   5.547  0.1642 -0.1045 -0.1384
  242POPC   D2A 3391   4.092   3.512   5.831  0.0171 -0.1666  0.2439
  242POPC   C3A 3392   4.288   3.892   5.838  0.0490 -0.0962 -0.2067
  242POPC   C4A 3393   4.471   4.205   6.092 -0.2446 -0.1763  0.1806
  242POPC   C1B 3394   3.924   2.190   5.568 -0.0453  0.1676 -0.0019
  242POPC   C2B 3395   3.924   2.269   5.956 -0.0073  0.0050 -0.0002
  242POPC   C3B 3396   3.759   2.233   6.334 -0.1569 -0.0198 -0.0464
  242POPC   C4B 3397   3.669   2.031   6.580 -0.1047 -0.2366  0.3127
  243POPC   NC3 3398   2.605   0.586   4.188  0.0396 -0.3503 -0.2711
  243POPC   PO4 3399   2.438   0.988   3.966  0.1374  0.1563 -0.0019
  243POPC   GL1 3400   2.277   0.847   4.464 -0.1395 -0.0683 -0.2840
  243POPC   GL2 3401   2.092   0.488   4.422 -0.1175 -0.3839 -0.0730
  243POPC   C1A 3402   2.049   0.746   4.919 -0.1830 -0.0253 -0.2567
  243POPC   D2A 3403   2.089   0.849   5.351  0.0829  0.4531 -0.1035
  243POPC   C3A 3404   1.872   1.267   5.470  0.1900 -0.0254  0.2455
  243POPC   C4A 3405   1.677   1.642   5.631  0.0454 -0.0341 -0.2228
  243POPC   C1B 3406   1.792   0.235   4.680 -0.2598  0.0226 -0.0637
  243POPC   C2B 3407   1.476   0.347   4.970  0.4620 -0.1113 -0.0345
  243POPC   C3B 3408   1.481   0.590   5.283  0.2911  0.0954  0.2200
  243POPC   C4B 3409   1.640   0.856   5.587  0.1921  0.0615  0.1548
  244POPC   NC3 3410   7.930   9.800   4.171  0.1514  0.0785  0.1980
  244POPC   PO4 3411   8.279   9.580   4.038 -0.2925  0.0190  0.2277
  244POPC   GL1 3412   8.614   9.520   4.355  0.1453 -0.1083  0.2131
  244POPC   GL2 3413   8.489   9.831   4.517 -0.1978 -0.1445 -0.2158
  244POPC   C1A 3414   8.473   9.416   4.730  0.1636  0.0636 -0.1762
  244POPC   D2A 3415   8.749   9.506   5.070  0.0091 -0.2740 -0.1405
  244POPC   C3A 3416   8.985   9.658   5.459 -0.3387 -0.0739  0.0373
  244POPC   C4A 3417   9.032   9.518   5.829  0.0110 -0.1471 -0.1368
  244POPC   C1B 3418   8.547  10.026   4.987  0.0907  0.1981  0.1771
  244POPC   C2B 3419   8.311  10.258   5.236  0.0272  0.0218  0.0512
  244POPC   C3B 3420   8.196  10.308   5.690 -0.2025 -0.2008 -0.1148
  244POPC   C4B 3421   8.235  10.337   6.176 -0.2109  0.1716  0.3877
  245POPC   NC3 3422   2.901   1.321   4.029  0.1099 -0.1302 -0.0615
  245POPC   PO4 3423   2.930   0.977   4.356  0.0588  0.0146  0.0638
  245POPC   GL1 3424   2.741   0.986   4.693 -0.3569 -0.1546  0.2502
  245POPC   GL2 3425   2.661   1.313   4.873  0.2783 -0.0680  0.0039
  245POPC   C1A 3426   2.512   0.775   5.075 -0.1835 -0.2541  0.3672
  245POPC   D2A 3427   2.586   0.666   5.450  0.2164  0.0039 -0.0808
  245POPC   C3A 3428   2.427   0.834   5.890 -0.0484  0.2304 -0.0949
  245POPC   C4A 3429   2.019   0.813   5.895 -0.1766  0.2341 -0.0665
  245POPC   C1B 3430   2.470   1.300   5.337 -0.2436  0.1537 -0.1893
  245POPC   C2B 3431   2.249   1.393   5.852 -0.0908  0.1172  0.0038
  245POPC   C3B 3432   2.457   1.216   6.246 -0.1329 -0.4205  0.0705
  245POPC   C4B 3433   2.365   1.230   6.728 -0.3375  0.1424 -0.0592
  246POPC   NC3 3434   4.121   5.988   4.162 -0.0589 -0.1664  0.1324
  246POPC   PO4 3435   3.769   5.994   4.457  0.2727 -0.1420  0.5129
  246POPC   GL1 3436   3.760   6.034   4.914 -0.0007 -0.1333 -0.2468
  246POPC   GL2 3437   3.948   5.926   4.945 -0.1225 -0.0142 -0.1339
  246POPC   C1A 3438   3.894   6.189   5.336  0.1261 -0.1015 -0.1810
  246POPC   D2A 3439   4.025   6.554   5.409 -0.0527 -0.2359  0.0610
  246POPC   C3A 3440   4.162   6.703   5.878 -0.1354  0.2312  0.1970
  246POPC   C4A 3441   4.409   6.986   6.138 -0.0964 -0.1853  0.0033
  246POPC   C1B 3442   3.970   5.754   5.401 -0.2334  0.1481  0.3552
  246POPC   C2B 3443   4.244   5.693   5.657  0.3864 -0.0916 -0.0391
  246POPC   C3B 3444   4.486   5.531   5.868  0.3394  0.0576  0.0603
  246POPC   C4B 3445   4.834   5.262   5.904 -0.0073  0.1772  0.4726
  247POPC   NC3 3446   6.620   7.294   5.049 -0.1270 -0.1124  0.2916
  247POPC   PO4 3447   6.840   7.720   5.058  0.0643 -0.1698  0.0475
  247POPC   GL1 3448   7.114   7.931   5.362 -0.1254  0.1384  0.2653
  247POPC   GL2 3449   7.469   7.888   5.518 -0.0314 -0.1501 -0.0216
  247POPC   C1A 3450   7.067   7.965   5.890  0.0848 -0.0120  0.0906
  247POPC   D2A 3451   7.049   8.076   6.313  0.0559  0.1514  0.2909
  247POPC   C3A 3452   7.120   8.435   6.570  0.0549  0.0457 -0.0485
  247POPC   C4A 3453   7.061   8.645   6.975  0.2307 -0.1816 -0.1819
  247POPC   C1B 3454   7.545   8.164   5.827 -0.1872  0.3468 -0.1704
  247POPC   C2B 3455   7.505   8.267   6.282 -0.3763  0.0267  0.3874
  247POPC   C3B 3456   7.475   8.188   6.800 -0.0646  0.1864 -0.0357
  247POPC   C4B 3457   7.527   8.443   7.225  0.2237 -0.0269  0.0861
  248POPC   NC3 3458   5.102   1.682   4.811  0.1203  0.0238  0.2836
  248POPC   PO4 3459   5.530   1.469   4.661  0.0141 -0.1538 -0.0569
  248POPC   GL1 3460   5.496   1.494   5.118  0.2628 -0.2441  0.1921
  248POPC   GL2 3461   5.419   1.754   5.235 -0.0146 -0.2044 -0.0038
  248POPC   C1A 3462   5.571   1.297   5.511 -0.1361  0.0434 -0.0337
  248POPC   D2A 3463   5.649   1.286   5.899 -0.0157  0.1450 -0.2966
  248POPC   C3A 3464   5.350   1.572   6.210  0.0091  0.2485 -0.3599
  248POPC   C4A 3465   5.081   1.452   6.476  0.2221  0.1128  0.3429
  248POPC   C1B 3466   5.345   1.733   5.673 -0.2247 -0.0278 -0.1004
  248POPC   C2B 3467   5.526   2.046   5.993 -0.0948  0.2482 -0.0553
  248POPC   C3B 3468   5.571   2.432   6.170 -0.2663  0.3333  0.0883
  248POPC   C4B 3469   5.445   2.590   6.506  0.2443 -0.1554 -0.0132
  249POPC   NC3 3470   8.443   0.679   3.102 -0.1101  0.0510  0.2203
  249POPC   PO4 3471   8.246   0.604   3.455 -0.0003  0.0182 -0.2806
  249POPC   GL1 3472   8.560   0.468   3.793  0.1473 -0.2279  0.1936
  249POPC   GL2 3473   8.494   0.396   4.115 -0.0596  0.1625 -0.1520
  249POPC   C1A 3474   9.004   0.341   3.895 -0.0927 -0.3709 -0.0200
  249POPC   D2A 3475   9.231   0.025   4.240 -0.2059  0.0296 -0.0853
  249POPC   C3A 3476   9.608   0.007   4.485  0.1247 -0.0662 -0.1874
  249POPC   C4A 3477   9.885  -0.428   4.436 -0.1370 -0.2195 -0.2580
  249POPC   C1B 3478   8.765   0.753   4.199  0.0769 -0.1232 -0.0514
  249POPC   C2B 3479   9.061   0.898   4.406 -0.2535  0.1184 -0.1004
  249POPC   C3B 3480   9.249   0.757   4.785  0.2871 -0.0017 -0.1017
  249POPC   C4B 3481   9.502   0.969   5.136  0.1465 -0.0263  0.1307
  250POPC   NC3 3482   6.134   6.995   5.131  0.2018 -0.1026  0.0991
  250POPC   PO4 3483   5.783   6.630   4.989 -0.0721 -0.1571 -0.0471
  250POPC   GL1 3484   5.453   6.704   5.264 -0.0067 -0.1762 -0.2385
  250POPC   GL2 3485   5.416   6.462   5.435  0.1753  0.2215  0.2748
  250POPC   C1A 3486   5.184   6.925   5.614  0.0168  0.0875  0.0634
  250POPC   D2A 3487   5.168   7.398   5.802 -0.1186  0.1041  0.1043
  250POPC   C3A 3488   5.060   7.525   6.251  0.1388 -0.3418  0.0598
  250POPC   C4A 3489   5.168   7.649   6.599 -0.1318 -0.1424  0.1083
  250POPC   C1B 3490   5.559   6.575   5.752  0.1542 -0.1406 -0.3438
  250POPC   C2B 3491   5.834   6.421   6.136  0.0009 -0.0184 -0.3553
  250POPC   C3B 3492   6.045   6.736   6.357  0.1148  0.3902  0.3590
  250POPC   C4B 3493   5.952   7.197   6.309  0.3348  0.1344 -0.1726
  251POPC   NC3 3494   1.506   0.053   3.778 -0.1501  0.3306 -0.2826
  251POPC   PO4 3495   1.333  -0.229   4.156 -0.1092  0.2104 -0.0610
  251POPC   GL1 3496   1.391  -0.073   4.572  0.3091 -0.2303  0.3153
  251POPC   GL2 3497   1.644  -0.193   4.904 -0.0090 -0.2059  0.0301
  251POPC   C1A 3498   1.113  -0.086   4.876  0.1159 -0.2760  0.0424
  251POPC   D2A 3499   1.272  -0.086   5.405  0.1542 -0.1544  0.2487
  251POPC   C3A 3500   1.383   0.263   5.646 -0.0042 -0.0403 -0.0469
  251POPC   C4A 3501   1.486   0.541   5.987  0.1020  0.3352 -0.2792
  251POPC   C1B 3502   1.545  -0.497   5.119 -0.1806 -0.2852  0.1830
  251POPC   C2B 3503   1.426  -0.643   5.472  0.5943  0.1931  0.0143
  251POPC   C3B 3504   1.537  -0.712   5.866  0.0585  0.1058 -0.0701
  251POPC   C4B 3505   1.574  -0.484   6.326  0.1344  0.2851 -0.0207
  252POPC   NC3 3506   4.881   0.286   4.633  0.0847  0.2145  0.0803
  252POPC   PO4 3507   4.589   0.010   4.877  0.1833  0.0431  0.4025
  252POPC   GL1 3508   4.702  -0.067   5.288 -0.1078  0.1859  0.0725
  252POPC   GL2 3509   4.481   0.056   5.458  0.4600 -0.1497  0.2241
  252POPC   C1A 3510   4.925  -0.064   5.734 -0.3826 -0.1623 -0.0294
  252POPC   D2A 3511   5.246   0.007   5.964 -0.0766  0.0427 -0.1516
  252POPC   C3A 3512   5.147   0.056   6.335  0.1161  0.2759 -0.0836
  252POPC   C4A 3513   5.460   0.193   6.638  0.0195 -0.1448 -0.2573
  252POPC   C1B 3514   4.452  -0.161   5.793 -0.1090  0.2814  0.1801
  252POPC   C2B 3515   4.355  -0.312   6.203  0.1365  0.0406  0.1663
  252POPC   C3B 3516   4.184  -0.413   6.607  0.1723  0.1358  0.0757
  252POPC   C4B 3517   3.844  -0.312   6.788  0.2488  0.0433 -0.0432
  253POPC   NC3 3518   8.448   7.452   5.474  0.1834  0.1899 -0.2814
  253POPC   PO4 3519   8.160   7.149   5.662  0.1380 -0.1778 -0.0335
  253POPC   GL1 3520   8.300   7.262   6.076  0.0718 -0.1110 -0.0493
  253POPC   GL2 3521   8.356   7.644   5.987  0.0724  0.0177  0.1984
  253POPC   C1A 3522   8.528   7.517   6.419 -0.0605 -0.0875 -0.0246
  253POPC   D2A 3523   8.850   7.404   6.641  0.0861 -0.0029 -0.2231
  253POPC   C3A 3524   8.845   7.527   7.073  0.1268 -0.1057 -0.1419
  253POPC   C4A 3525   8.569   7.315   7.370 -0.1165 -0.0041 -0.1008
  253POPC   C1B 3526   8.075   7.499   6.449 -0.2599  0.3666 -0.0472
  253POPC   C2B 3527   7.870   7.108   6.720  0.0203 -0.1682 -0.1562
  253POPC   C3B 3528   7.736   6.896   7.177 -0.0753  0.0641  0.0775
  253POPC   C4B 3529   7.597   6.643   7.404 -0.2003  0.2803  0.0894
  254POPC   NC3 3530   2.055   9.686   4.103  0.0033 -0.4944 -0.1278
  254POPC   PO4 3531   2.434   9.802   4.341  0.0190  0.0664 -0.0568
  254POPC   GL1 3532   2.462  10.047   4.695  0.4205 -0.2185  0.0275
  254POPC   GL2 3533   2.743   9.960   4.967 -0.2644 -0.1229 -0.1724
  254POPC   C1A 3534   2.162  10.114   5.126  0.2806 -0.2261 -0.0837
  254POPC   D2A 3535   2.105  10.357   5.416 -0.1700  0.1089  0.1736
  254POPC   C3A 3536   1.708  10.259   5.538 -0.2407 -0.1679 -0.1374
  254POPC   C4A 3537   1.537  10.246   5.887 -0.2210 -0.1376 -0.2157
  254POPC   C1B 3538   2.695   9.918   5.369 -0.0608  0.0924  0.0784
  254POPC   C2B 3539   2.449   9.997   5.699 -0.2736 -0.2573  0.1798
  254POPC   C3B 3540   2.394  10.335   6.046  0.0464  0.0587  0.1408
  254POPC   C4B 3541   2.324  10.439   6.461 -0.1271 -0.1390  0.0379
  255POPC   NC3 3542   6.144   3.610   4.755 -0.1245 -0.2567 -0.0029
  255POPC   PO4 3543   5.785   3.451   4.573  0.1376 -0.0365  0.1226
  255POPC   GL1 3544   5.762   3.308   4.947  0.0279 -0.1922 -0.0610
  255POPC   GL2 3545   5.559   3.209   5.157  0.0582  0.0782  0.3234
  255POPC   C1A 3546   6.054   3.312   5.306  0.0144  0.2600  0.1133
  255POPC   D2A 3547   6.074   3.620   5.743 -0.1220 -0.0351 -0.0170
  255POPC   C3A 3548   5.784   3.641   6.039  0.0161  0.0007  0.0053
  255POPC   C4A 3549   5.819   3.453   6.423  0.1017 -0.0391  0.0259
  255POPC   C1B 3550   5.592   3.351   5.583  0.2042 -0.2217 -0.0169
  255POPC   C2B 3551   5.186   3.270   5.837 -0.1504  0.2783  0.0275
  255POPC   C3B 3552   4.939   2.978   6.156 -0.1756  0.0702 -0.0882
  255POPC   C4B 3553   4.579   2.726   6.245 -0.0086  0.0106  0.0224
  256POPC   NC3 3554   0.629   3.347   5.228 -0.1947 -0.2597  0.0880
  256POPC   PO4 3555   0.178   3.381   5.182 -0.0294  0.0399  0.1036
  256POPC   GL1 3556   0.179   2.930   5.233 -0.2348 -0.1021 -0.3955
  256POPC   GL2 3557   0.317   2.605   4.910  0.1350 -0.0939  0.3677
  256POPC   C1A 3558   0.170   2.791   5.617  0.0856  0.1007 -0.0317
  256POPC   D2A 3559   0.302   2.694   5.968 -0.2719  0.1909  0.1166
  256POPC   C3A 3560   0.133   2.850   6.364  0.1443  0.2027  0.2421
  256POPC   C4A 3561  -0.141   3.165   6.485  0.0419 -0.4299  0.1421
  256POPC   C1B 3562   0.358   2.309   5.302  0.3636 -0.1373 -0.0655
  256POPC   C2B 3563   0.248   2.215   5.705 -0.1733  0.1131  0.1063
  256POPC   C3B 3564   0.336   1.900   5.984  0.0440 -0.2284  0.0971
  256POPC   C4B 3565   0.555   1.865   6.376  0.1214 -0.1246 -0.5065
  257POPC   NC3 3566   5.991   0.343   4.960 -0.2402 -0.4413 -0.3014
  257POPC   PO4 3567   6.100   0.693   4.854 -0.0153  0.0026  0.0802
  257POPC   GL1 3568   6.265   0.675   5.215 -0.3116 -0.0040 -0.2410
  257POPC   GL2 3569   6.122   0.491   5.448  0.1811  0.0828  0.1742
  257POPC   C1A 3570   6.367   0.878   5.649 -0.2121 -0.4736 -0.0791
  257POPC   D2A 3571   6.551   0.768   6.060  0.0733  0.3171  0.2869
  257POPC   C3A 3572   6.306   0.788   6.509 -0.0441 -0.3738  0.2889
  257POPC   C4A 3573   6.323   0.885   7.012 -0.2086 -0.2653  0.1626
  257POPC   C1B 3574   6.357   0.347   5.812 -0.3439  0.0021 -0.1122
  257POPC   C2B 3575   6.249   0.328   6.281  0.4825 -0.2371 -0.3904
  257POPC   C3B 3576   6.599   0.171   6.670  0.1089  0.1266 -0.1316
  257POPC   C4B 3577   6.846   0.343   6.954 -0.0679 -0.0234 -0.1846
  258POPC   NC3 3578   0.567   4.212   5.442  0.2355 -0.1731 -0.0271
  258POPC   PO4 3579   0.771   3.782   5.499 -0.2045 -0.0866  0.2427
  258POPC   GL1 3580   0.834   3.828   5.919  0.3220  0.0253 -0.0072
  258POPC   GL2 3581   0.812   3.513   6.069  0.2258 -0.3531  0.0029
  258POPC   C1A 3582   0.471   3.913   6.216 -0.2148 -0.1329  0.2457
  258POPC   D2A 3583   0.124   4.044   6.534  0.0988 -0.3269 -0.2198
  258POPC   C3A 3584   0.119   3.581   6.720 -0.0506 -0.4747 -0.1937
  258POPC   C4A 3585  -0.088   3.250   6.975  0.0469  0.3048 -0.1108
  258POPC   C1B 3586   0.868   3.274   6.486  0.1463  0.1789 -0.0370
  258POPC   C2B 3587   0.836   2.923   6.800  0.1111  0.1219 -0.1763
  258POPC   C3B 3588   0.675   2.665   7.079 -0.0804 -0.0915 -0.2404
  258POPC   C4B 3589   0.539   2.908   7.338  0.1512  0.2896 -0.0605
  259POPC   NC3 3590   6.907   1.986   4.781  0.1036  0.1887  0.0729
  259POPC   PO4 3591   6.650   1.549   4.616  0.1383  0.0465 -0.1715
  259POPC   GL1 3592   6.579   1.648   4.985 -0.1412  0.0487  0.1459
  259POPC   GL2 3593   6.587   1.876   5.214  0.3941 -0.0377 -0.1012
  259POPC   C1A 3594   6.551   1.387   5.337 -0.1156  0.2321 -0.1156
  259POPC   D2A 3595   6.798   1.361   5.774  0.0382 -0.0451 -0.0148
  259POPC   C3A 3596   6.944   1.133   6.120  0.0463  0.1375 -0.0786
  259POPC   C4A 3597   6.953   1.144   6.536  0.0826  0.0788  0.1815
  259POPC   C1B 3598   6.349   1.826   5.558 -0.0477  0.2186  0.1232
  259POPC   C2B 3599   6.462   1.744   5.967  0.1474  0.4335 -0.0286
  259POPC   C3B 3600   6.730   1.573   6.332  0.1700 -0.0324 -0.0815
  259POPC   C4B 3601   6.835   1.551   6.739  0.2492  0.0064  0.0120
  260POPC   NC3 3602   7.842   2.092   3.252 -0.0360 -0.0326 -0.1329
  260POPC   PO4 3603   8.013   1.869   3.652  0.0122 -0.2928 -0.1031
  260POPC   GL1 3604   8.130   1.887   4.198 -0.0292  0.0223 -0.2080
  260POPC   GL2 3605   8.381   2.116   4.398 -0.1752  0.0729  0.0339
  260POPC   C1A 3606   7.869   1.731   4.538 -0.0924 -0.0868  0.2015
  260POPC   D2A 3607   7.832   1.546   4.950  0.1348 -0.0534 -0.0299
  260POPC   C3A 3608   7.492   1.684   5.217  0.3714  0.1584  0.2382
  260POPC   C4A 3609   7.564   1.878   5.534 -0.5046 -0.1683  0.3189
  260POPC   C1B 3610   8.276   1.940   4.824 -0.0834 -0.0464 -0.0331
  260POPC   C2B 3611   8.067   1.923   5.292  0.0790 -0.1380  0.0691
  260POPC   C3B 3612   7.976   1.660   5.664  0.3471 -0.0275 -0.0238
  260POPC   C4B 3613   7.769   1.408   5.972 -0.3320 -0.2064  0.0882
  261POPC   NC3 3614   9.865   0.127   3.714 -0.0379 -0.1653  0.1902
  261POPC   PO4 3615  10.093  -0.183   3.822  0.4450  0.1130  0.1405
  261POPC   GL1 3616  10.086   0.123   4.156 -0.0753  0.0242  0.1548
  261POPC   GL2 3617  10.365   0.357   4.246 -0.1482  0.0045 -0.1174
  261POPC   C1A 3618   9.908   0.412   4.421  0.2925  0.1614 -0.1831
  261POPC   D2A 3619   9.546   0.521   4.451 -0.0100  0.0233  0.1468
  261POPC   C3A 3620   9.314   0.552   4.204  0.2681 -0.1486  0.0373
  261POPC   C4A 3621   9.186   0.857   3.816  0.3206  0.2782  0.1572
  261POPC   C1B 3622  10.502   0.156   4.639 -0.2164 -0.1884 -0.1564
  261POPC   C2B 3623  10.672  -0.091   5.066 -0.0887 -0.3189  0.1172
  261POPC   C3B 3624  10.694  -0.197   5.508 -0.2870 -0.1014  0.1452
  261POPC   C4B 3625  10.679  -0.229   5.920  0.1154  0.0820 -0.6294
  262POPC   NC3 3626   4.515   4.671   4.329  0.3421  0.0374 -0.1237
  262POPC   PO4 3627   4.445   4.301   4.574  0.2203  0.0445  0.2280
  262POPC   GL1 3628   4.301   4.234   5.012 -0.0142  0.0674  0.2059
  262POPC   GL2 3629   4.114   4.442   5.047  0.1049  0.0596 -0.1878
  262POPC   C1A 3630   4.491   4.101   5.382  0.2003  0.0841 -0.1193
  262POPC   D2A 3631   4.686   3.781   5.584  0.2491 -0.2457 -0.0262
  262POPC   C3A 3632   4.856   3.652   6.089 -0.2929  0.1448  0.0127
  262POPC   C4A 3633   5.053   3.869   6.404 -0.0302 -0.3079 -0.1288
  262POPC   C1B 3634   3.901   4.481   5.391  0.3089  0.1086  0.3833
  262POPC   C2B 3635   3.586   4.432   5.690  0.0303  0.0344 -0.0217
  262POPC   C3B 3636   3.543   4.384   6.127  0.3864  0.4989  0.0654
  262POPC   C4B 3637   3.577   3.999   6.398  0.2517  0.0748  0.1762
  263POPC   NC3 3638   7.093   3.878   4.964 -0.1881  0.3100  0.0789
  263POPC   PO4 3639   7.327   3.508   4.797 -0.1148 -0.0359 -0.1818
  263POPC   GL1 3640   7.249   3.482   5.297 -0.1679 -0.0094  0.0316
  263POPC   GL2 3641   7.553   3.306   5.470  0.3517 -0.2409 -0.1809
  263POPC   C1A 3642   6.959   3.485   5.661  0.0238 -0.0046  0.0406
  263POPC   D2A 3643   7.102   3.539   6.109  0.2081 -0.2384 -0.0713
  263POPC   C3A 3644   6.810   3.388   6.432 -0.1337 -0.2575 -0.0085
  263POPC   C4A 3645   6.608   3.278   6.799  0.0534  0.0361 -0.0643
  263POPC   C1B 3646   7.773   2.955   5.718  0.1721 -0.0637 -0.0547
  263POPC   C2B 3647   7.768   2.603   5.989  0.1744  0.1742  0.0313
  263POPC   C3B 3648   7.772   2.455   6.324  0.4160  0.3311 -0.0997
  263POPC   C4B 3649   7.899   2.143   6.617  0.0518 -0.3472 -0.1852
  264POPC   NC3 3650   3.942   8.061   4.786 -0.2340 -0.0620  0.3157
  264POPC   PO4 3651   3.625   8.108   5.064 -0.0337 -0.0374 -0.1791
  264POPC   GL1 3652   3.621   8.004   5.469  0.1249  0.3487  0.2887
  264POPC   GL2 3653   3.706   7.635   5.421  0.0633 -0.0384  0.0163
  264POPC   C1A 3654   3.444   8.005   5.955 -0.1738  0.3615  0.0570
  264POPC   D2A 3655   3.475   7.675   6.382  0.0949 -0.2870  0.2907
  264POPC   C3A 3656   3.267   7.719   6.702  0.2514 -0.0673 -0.4165
  264POPC   C4A 3657   2.899   7.748   7.011 -0.1924  0.0193  0.0021
  264POPC   C1B 3658   3.809   7.495   5.734 -0.0500 -0.1319 -0.0089
  264POPC   C2B 3659   3.970   7.702   6.201  0.0946 -0.0673  0.0081
  264POPC   C3B 3660   3.820   8.129   6.383  0.3170  0.0161 -0.0157
  264POPC   C4B 3661   3.349   8.127   6.488  0.0678 -0.1893  0.0755
  265POPC   NC3 3662   3.436   3.369   4.408 -0.2859  0.0503 -0.0351
  265POPC   PO4 3663   3.261   3.143   4.821 -0.0617 -0.1534 -0.1858
  265POPC   GL1 3664   3.420   3.365   5.187  0.0072  0.1582  0.1144
  265POPC   GL2 3665   3.182   3.628   5.355  0.2002  0.1848  0.0641
  265POPC   C1A 3666   3.482   3.127   5.502 -0.1446  0.0298  0.2356
  265POPC   D2A 3667   3.645   3.155   5.890  0.1155  0.2666  0.2192
  265POPC   C3A 3668   3.686   3.586   6.147 -0.2988 -0.1758  0.0143
  265POPC   C4A 3669   3.701   3.892   5.917  0.0934 -0.2019 -0.1026
  265POPC   C1B 3670   2.920   3.169   5.535 -0.0549  0.0352  0.3124
  265POPC   C2B 3671   2.841   3.007   5.874 -0.3479  0.1347 -0.3748
  265POPC   C3B 3672   2.764   2.859   6.221 -0.0124  0.0507  0.1568
  265POPC   C4B 3673   2.479   2.763   6.602 -0.3872  0.3673 -0.2648
  266POPC   NC3 3674   5.282   1.083   4.901 -0.0598 -0.1942  0.1885
  266POPC   PO4 3675   4.930   1.225   4.658 -0.0686 -0.2018 -0.1952
  266POPC   GL1 3676   4.882   1.296   5.184  0.0660 -0.1521 -0.2362
  266POPC   GL2 3677   4.707   1.468   5.286  0.2375 -0.1327  0.0293
  266POPC   C1A 3678   5.080   1.226   5.600  0.1922 -0.1641 -0.1124
  266POPC   D2A 3679   5.048   1.227   6.004  0.0351  0.2730  0.0950
  266POPC   C3A 3680   5.117   0.807   6.132  0.1493 -0.1499 -0.2884
  266POPC   C4A 3681   5.400   0.486   6.205  0.0258  0.3258 -0.1416
  266POPC   C1B 3682   4.690   1.599   5.749 -0.0241  0.1243  0.0642
  266POPC   C2B 3683   4.829   1.722   6.120 -0.2020  0.3458  0.0865
  266POPC   C3B 3684   5.092   2.023   6.295 -0.0117  0.0745  0.1197
  266POPC   C4B 3685   5.411   2.106   6.490 -0.2909 -0.1896  0.0299
  267POPC   NC3 3686  10.298   0.920   2.955  0.0148  0.3497 -0.0330
  267POPC   PO4 3687  10.254   0.554   3.183  0.3852  0.1782  0.0791
  267POPC   GL1 3688  10.108   0.607   3.592 -0.5278  0.0096 -0.0984
  267POPC   GL2 3689  10.312   0.645   3.865 -0.1469 -0.0481 -0.3075
  267POPC   C1A 3690   9.736   0.730   3.866  0.1962  0.0631  0.0817
  267POPC   D2A 3691   9.563   0.971   4.204 -0.0345  0.3097  0.0626
  267POPC   C3A 3692   9.727   0.941   4.656 -0.0646 -0.0827 -0.3318
  267POPC   C4A 3693   9.648   0.520   4.933  0.0088  0.1062 -0.1842
  267POPC   C1B 3694  10.181   0.869   4.151 -0.1536 -0.1165 -0.2873
  267POPC   C2B 3695  10.282   0.965   4.614  0.1346  0.1006 -0.0400
  267POPC   C3B 3696  10.400   1.299   4.832 -0.2703 -0.0659  0.0767
  267POPC   C4B 3697  10.693   1.596   4.802 -0.1469  0.1699 -0.0985
  268POPC   NC3 3698   8.356   4.812   5.147 -0.0093  0.2431  0.1489
  268POPC   PO4 3699   8.612   4.977   5.510  0.1653 -0.1993 -0.0906
  268POPC   GL1 3700   8.999   4.981   5.755 -0.1754  0.3285 -0.1606
  268POPC   GL2 3701   9.046   4.561   5.894 -0.2107 -0.0952 -0.6299
  268POPC   C1A 3702   9.092   4.994   6.147 -0.0114  0.0877 -0.2234
  268POPC   D2A 3703   9.297   4.984   6.556 -0.1513  0.0811 -0.2309
  268POPC   C3A 3704   9.089   4.869   6.841 -0.0430 -0.1951  0.1750
  268POPC   C4A 3705   8.915   4.565   7.276  0.0563  0.1530  0.1315
  268POPC   C1B 3706   9.228   4.465   6.388 -0.0497 -0.1403  0.1197
  268POPC   C2B 3707   9.170   4.320   6.816 -0.1355  0.1713  0.0667
  268POPC   C3B 3708   9.236   4.089   7.172 -0.1052  0.1237  0.1328
  268POPC   C4B 3709   9.568   4.114   7.540  0.3052 -0.1197 -0.0033
  269POPC   NC3 3710   1.308   2.810   4.775  0.1499 -0.2686 -0.3132
  269POPC   PO4 3711   0.800   2.752   4.986 -0.2905 -0.0721 -0.0182
  269POPC   GL1 3712   0.780   2.884   5.308  0.3421 -0.0960 -0.1016
  269POPC   GL2 3713   1.170   2.851   5.419 -0.5229 -0.1984  0.1459
  269POPC   C1A 3714   0.687   2.600   5.681 -0.0100 -0.1097  0.1272
  269POPC   D2A 3715   0.705   2.371   5.985  0.1563 -0.0585 -0.3616
  269POPC   C3A 3716   0.463   2.334   6.251  0.1735  0.0248  0.3104
  269POPC   C4A 3717   0.369   2.444   6.666  0.2378  0.2995 -0.0515
  269POPC   C1B 3718   1.233   2.673   5.655 -0.1082  0.6483  0.2904
  269POPC   C2B 3719   1.272   2.454   6.067 -0.1506 -0.1206  0.0553
  269POPC   C3B 3720   1.399   2.231   6.383  0.2054  0.0261  0.0710
  269POPC   C4B 3721   1.587   1.910   6.630 -0.2795 -0.0178 -0.2070
  270POPC   NC3 3722   7.012   3.205   4.680  0.2466 -0.2418  0.0824
  270POPC   PO4 3723   6.572   3.298   4.709 -0.0137 -0.1091  0.0277
  270POPC   GL1 3724   6.475   3.335   5.087 -0.1248 -0.0586  0.0264
  270POPC   GL2 3725   6.748   3.304   5.185  0.1237 -0.1730 -0.0140
  270POPC   C1A 3726   6.445   3.361   5.608 -0.1937 -0.3242 -0.0462
  270POPC   D2A 3727   6.677   3.231   6.003 -0.0127 -0.0347  0.2854
  270POPC   C3A 3728   6.434   3.044   6.298  0.2686  0.3077  0.0739
  270POPC   C4A 3729   6.505   2.618   6.499  0.0015 -0.0812 -0.4053
  270POPC   C1B 3730   6.696   2.871   5.455 -0.0753  0.1734 -0.0112
  270POPC   C2B 3731   6.332   2.785   5.822  0.0061 -0.0234  0.0273
  270POPC   C3B 3732   6.152   2.661   6.124  0.3562  0.1690  0.0336
  270POPC   C4B 3733   6.013   2.529   6.458 -0.0205  0.0066 -0.1161
  271POPC   NC3 3734   6.528   4.563   4.573 -0.2156 -0.1891 -0.4275
  271POPC   PO4 3735   6.516   4.273   4.983  0.0486 -0.0962 -0.0944
  271POPC   GL1 3736   6.515   4.241   5.352 -0.1252  0.0590  0.1116
  271POPC   GL2 3737   6.341   4.456   5.473 -0.3644 -0.2308 -0.1077
  271POPC   C1A 3738   6.597   4.009   5.744  0.1603  0.2533  0.2918
  271POPC   D2A 3739   6.587   3.748   6.041  0.0273 -0.2845  0.2212
  271POPC   C3A 3740   6.293   3.523   6.210 -0.0140 -0.0372 -0.0678
  271POPC   C4A 3741   6.062   3.173   5.990  0.1081 -0.2047  0.1140
  271POPC   C1B 3742   6.380   4.515   5.903  0.2427  0.0155  0.0203
  271POPC   C2B 3743   6.521   4.680   6.287  0.0447 -0.3726 -0.0254
  271POPC   C3B 3744   6.414   5.017   6.628 -0.0544  0.0480  0.1136
  271POPC   C4B 3745   6.589   5.297   6.761 -0.0887 -0.0776 -0.0097
  272POPC   NC3 3746  10.212   6.398   5.019  0.3017 -0.0230  0.0511
  272POPC   PO4 3747  10.172   6.173   5.369 -0.0194 -0.2058  0.5205
  272POPC   GL1 3748   9.922   6.087   5.643 -0.1714 -0.2044 -0.1270
  272POPC   GL2 3749   9.994   6.298   5.889 -0.0329 -0.1891  0.0327
  272POPC   C1A 3750   9.566   6.083   5.898 -0.5996 -0.1446  0.0355
  272POPC   D2A 3751   9.361   5.857   6.179 -0.2486 -0.0378  0.0741
  272POPC   C3A 3752   9.426   6.164   6.469  0.0484 -0.1327 -0.0662
  272POPC   C4A 3753   9.424   6.094   6.895 -0.1656 -0.0803 -0.0958
  272POPC   C1B 3754   9.915   6.247   6.351 -0.2901  0.2309  0.1568
  272POPC   C2B 3755   9.835   6.268   6.738  0.0959  0.0582  0.1309
  272POPC   C3B 3756   9.907   5.949   7.023 -0.1062 -0.1420 -0.2585
  272POPC   C4B 3757  10.157   5.666   7.337 -0.2868  0.3283 -0.1087
  273POPC   NC3 3758   8.847   8.195   4.936  0.0878 -0.0849 -0.0760
  273POPC   PO4 3759   8.464   7.834   4.965  0.0252  0.1884  0.0331
  273POPC   GL1 3760   8.404   8.156   5.209  0.0041 -0.3059  0.0377
  273POPC   GL2 3761   8.385   8.001   5.511  0.0529 -0.0137 -0.1435
  273POPC   C1A 3762   8.344   8.562   5.279 -0.1484  0.1761  0.2818
  273POPC   D2A 3763   8.368   8.879   5.588  0.1250  0.0235 -0.0126
  273POPC   C3A 3764   7.964   9.065   5.739  0.3691 -0.2418 -0.0343
  273POPC   C4A 3765   7.542   9.225   5.882 -0.1581 -0.2204 -0.1598
  273POPC   C1B 3766   8.537   8.383   5.668  0.1228 -0.0975 -0.0278
  273POPC   C2B 3767   8.652   8.646   6.149  0.1472 -0.1604  0.1453
  273POPC   C3B 3768   8.916   8.790   6.532  0.0261 -0.1555 -0.0539
  273POPC   C4B 3769   9.155   8.747   6.815 -0.0441 -0.1365 -0.0557
  274POPC   NC3 3770   1.381   3.554   5.154 -0.0232 -0.0990 -0.0248
  274POPC   PO4 3771   1.870   3.533   5.026  0.0472  0.0651  0.1267
  274POPC   GL1 3772   1.824   3.632   5.456  0.0513 -0.1786  0.0248
  274POPC   GL2 3773   2.047   3.849   5.626  0.1624  0.2343 -0.1051
  274POPC   C1A 3774   2.047   3.423   5.867 -0.1040  0.3972  0.0699
  274POPC   D2A 3775   2.432   3.217   6.129  0.1039  0.3002  0.1520
  274POPC   C3A 3776   2.437   3.448   6.425 -0.0408 -0.1361 -0.2956
  274POPC   C4A 3777   2.504   3.499   6.912 -0.0723  0.1028  0.0455
  274POPC   C1B 3778   1.720   3.792   5.904  0.0082  0.1596  0.2140
  274POPC   C2B 3779   1.353   3.635   6.076 -0.1513  0.0197  0.2836
  274POPC   C3B 3780   1.318   3.396   6.407  0.1908  0.0183  0.0398
  274POPC   C4B 3781   1.341   3.220   6.829  0.0432 -0.0311 -0.0131
  275POPC   NC3 3782   8.671   7.330   5.046  0.0221 -0.0219 -0.1384
  275POPC   PO4 3783   8.657   7.025   5.362  0.1106  0.0528  0.1304
  275POPC   GL1 3784   8.625   6.958   5.845  0.1104 -0.1136  0.0446
  275POPC   GL2 3785   8.839   6.655   5.865 -0.0264  0.3374  0.1358
  275POPC   C1A 3786   8.651   6.992   6.374  0.0008  0.2033  0.0918
  275POPC   D2A 3787   8.397   7.147   6.717  0.0176 -0.1069 -0.0321
  275POPC   C3A 3788   8.384   7.569   6.942 -0.0520  0.1938  0.1604
  275POPC   C4A 3789   8.543   7.921   6.749  0.1863 -0.0515 -0.1662
  275POPC   C1B 3790   9.107   6.815   6.193 -0.5221 -0.1448 -0.0603
  275POPC   C2B 3791   9.110   6.950   6.565  0.0399  0.2070 -0.1153
  275POPC   C3B 3792   8.967   7.051   6.916  0.1949  0.1519 -0.4523
  275POPC   C4B 3793   8.818   6.837   7.314 -0.2029 -0.1844 -0.0028
  276POPC   NC3 3794   4.354   9.713   4.575 -0.0111  0.2382 -0.1430
  276POPC   PO4 3795   4.590   9.927   4.907  0.2886  0.2129 -0.1820
  276POPC   GL1 3796   4.610   9.775   5.261 -0.0017 -0.1142 -0.1486
  276POPC   GL2 3797   4.715   9.918   5.523 -0.0824  0.2320  0.0063
  276POPC   C1A 3798   4.338   9.541   5.487 -0.0267 -0.0995 -0.0693
  276POPC   D2A 3799   4.399   9.787   5.877  0.1254  0.0755  0.0708
  276POPC   C3A 3800   4.581   9.580   6.188  0.1274 -0.1361 -0.3031
  276POPC   C4A 3801   4.467   9.508   6.632 -0.2221  0.1744 -0.0064
  276POPC   C1B 3802   4.862   9.963   5.870  0.3082 -0.0029  0.0704
  276POPC   C2B 3803   5.035   9.980   6.244 -0.2828 -0.0050  0.2011
  276POPC   C3B 3804   5.119  10.134   6.701  0.0345 -0.0840 -0.1863
  276POPC   C4B 3805   5.072   9.977   7.021  0.0515 -0.0036 -0.2099
  277POPC   NC3 3806   0.905   2.379   3.425 -0.2668 -0.4000  0.0739
  277POPC   PO4 3807   1.014   2.048   3.707 -0.5068  0.1364  0.3176
  277POPC   GL1 3808   0.828   1.923   4.162 -0.4100  0.2676  0.0315
  277POPC   GL2 3809   1.135   1.896   4.343 -0.2241  0.1169  0.1544
  277POPC   C1A 3810   0.582   1.881   4.521  0.2443  0.1994  0.0061
  277POPC   D2A 3811   0.495   2.181   4.856 -0.0573 -0.1796  0.0864
  277POPC   C3A 3812   0.033   2.020   4.959  0.0009 -0.0407 -0.1538
  277POPC   C4A 3813  -0.256   1.761   4.737  0.0491  0.0300 -0.2429
  277POPC   C1B 3814   1.019   1.756   4.786 -0.0872 -0.1366  0.1273
  277POPC   C2B 3815   0.857   1.796   5.117 -0.2428  0.3989  0.1792
  277POPC   C3B 3816   0.398   1.814   5.262 -0.3177  0.2718 -0.0858
  277POPC   C4B 3817   0.043   1.866   5.475  0.2272  0.1422  0.2776
  278POPC   NC3 3818   5.400   5.920   4.559 -0.2490 -0.1101 -0.0844
  278POPC   PO4 3819   5.384   5.377   4.709  0.1658  0.0950  0.0903
  278POPC   GL1 3820   5.223   5.621   5.094  0.1465 -0.3128 -0.1921
  278POPC   GL2 3821   5.308   5.926   5.047  0.0018  0.1153  0.2402
  278POPC   C1A 3822   5.042   5.618   5.534 -0.2095  0.1498  0.0978
  278POPC   D2A 3823   5.013   5.840   5.901 -0.2448 -0.1467  0.0980
  278POPC   C3A 3824   4.639   5.946   6.073 -0.0911  0.0869 -0.2779
  278POPC   C4A 3825   4.207   5.787   6.210 -0.0451 -0.0569  0.3897
  278POPC   C1B 3826   5.441   5.980   5.447  0.1500 -0.0710 -0.0298
  278POPC   C2B 3827   5.494   6.125   5.835 -0.2084 -0.1707 -0.2597
  278POPC   C3B 3828   5.351   6.045   6.314  0.1121  0.1615  0.1427
  278POPC   C4B 3829   4.974   6.012   6.481 -0.1613  0.0012 -0.2752
  279POPC   NC3 3830   0.557   6.314   5.362  0.2597  0.0207 -0.0831
  279POPC   PO4 3831   0.073   6.556   5.348  0.1594  0.1578  0.2773
  279POPC   GL1 3832  -0.176   6.599   5.651 -0.2066 -0.1298  0.2750
  279POPC   GL2 3833  -0.071   6.858   5.866  0.3969  0.1366  0.0433
  279POPC   C1A 3834  -0.015   6.400   6.112  0.0769  0.0279 -0.0238
  279POPC   D2A 3835  -0.148   6.455   6.517  0.1606 -0.0357 -0.0719
  279POPC   C3A 3836   0.038   6.679   6.710  0.1225 -0.2929 -0.2646
  279POPC   C4A 3837   0.385   6.627   6.918  0.0158  0.0410 -0.1361
  279POPC   C1B 3838  -0.434   6.723   6.182  0.0471  0.0977 -0.1884
  279POPC   C2B 3839  -0.483   6.774   6.580 -0.1990  0.4513  0.3651
  279POPC   C3B 3840  -0.460   6.720   6.988  0.1817 -0.0146 -0.0449
  279POPC   C4B 3841  -0.432   6.398   7.341 -0.2016 -0.0239  0.3029
  280POPC   NC3 3842   7.681   7.303   5.213 -0.0203  0.0189 -0.2055
  280POPC   PO4 3843   7.369   7.505   5.180  0.3257  0.5272  0.3047
  280POPC   GL1 3844   7.229   7.414   5.634  0.0123  0.0397 -0.1560
  280POPC   GL2 3845   6.860   7.488   5.604 -0.0387  0.1157 -0.1377
  280POPC   C1A 3846   7.103   7.353   6.069 -0.2392 -0.2725 -0.0051
  280POPC   D2A 3847   6.935   7.552   6.438 -0.0424  0.0936 -0.0576
  280POPC   C3A 3848   6.974   7.532   6.800 -0.1378 -0.0991 -0.2209
  280POPC   C4A 3849   7.048   7.627   7.243  0.3641  0.2156  0.1744
  280POPC   C1B 3850   6.638   7.496   6.028  0.2069 -0.1856 -0.0685
  280POPC   C2B 3851   6.432   7.506   6.482  0.2404  0.3502  0.0754
  280POPC   C3B 3852   6.416   7.513   6.912  0.4706 -0.5117 -0.3051
  280POPC   C4B 3853   6.556   7.779   7.169  0.1434 -0.0735  0.1250
  281POPC   NC3 3854  10.120   1.662   3.575  0.3193 -0.2477 -0.2886
  281POPC   PO4 3855  10.407   1.366   3.728 -0.1167  0.0677 -0.2543
  281POPC   GL1 3856  10.171   1.386   4.033  0.1464  0.2317 -0.1344
  281POPC   GL2 3857  10.472   1.353   4.261  0.2010  0.1828 -0.2002
  281POPC   C1A 3858   9.991   1.388   4.439 -0.0161  0.1928 -0.2160
  281POPC   D2A 3859   9.800   1.440   4.842 -0.0409 -0.3054  0.1129
  281POPC   C3A 3860   9.799   1.881   5.008 -0.1573  0.2304 -0.1003
  281POPC   C4A 3861  10.048   2.195   5.050 -0.0221 -0.1041  0.2368
  281POPC   C1B 3862  10.482   1.783   4.322  0.1386 -0.0909 -0.3816
  281POPC   C2B 3863  10.621   2.191   4.470  0.2016 -0.0956 -0.1213
  281POPC   C3B 3864  10.326   2.540   4.683  0.1762  0.5829  0.0568
  281POPC   C4B 3865  10.075   2.755   4.957 -0.1046 -0.0219  0.2141
  282POPC   NC3 3866   5.366   6.984   4.849 -0.3954 -0.5047  0.0749
  282POPC   PO4 3867   5.600   7.240   5.111  0.0245 -0.1521 -0.1558
  282POPC   GL1 3868   5.863   7.158   5.499  0.1208  0.0770  0.0044
  282POPC   GL2 3869   5.665   7.270   5.753  0.3042  0.0564 -0.4024
  282POPC   C1A 3870   6.059   6.974   5.867 -0.0350  0.0483  0.0567
  282POPC   D2A 3871   6.381   7.077   6.206 -0.2030  0.3906  0.1350
  282POPC   C3A 3872   6.742   6.992   5.983  0.1271  0.2430 -0.0181
  282POPC   C4A 3873   6.940   7.018   5.572 -0.0218 -0.1572  0.1838
  282POPC   C1B 3874   5.527   7.018   6.062  0.1914  0.1245  0.1239
  282POPC   C2B 3875   5.325   7.078   6.457  0.2372  0.2214  0.2688
  282POPC   C3B 3876   5.042   7.176   6.769  0.3472 -0.0594 -0.1091
  282POPC   C4B 3877   4.699   7.141   6.527  0.1772 -0.1287  0.2783
  283POPC   NC3 3878   5.335   9.393   4.540  0.1309 -0.0135 -0.2732
  283POPC   PO4 3879   5.593   9.592   4.978 -0.3293 -0.2143 -0.1855
  283POPC   GL1 3880   5.514   9.270   5.342 -0.0725  0.1748  0.2926
  283POPC   GL2 3881   5.264   9.178   5.521  0.0599  0.0808 -0.1783
  283POPC   C1A 3882   5.738   9.046   5.665  0.0402 -0.3235  0.0319
  283POPC   D2A 3883   5.910   8.995   6.055  0.1460  0.1306  0.3771
  283POPC   C3A 3884   5.695   9.155   6.395  0.1588 -0.2505 -0.1035
  283POPC   C4A 3885   5.344   9.261   6.785  0.1125  0.0166  0.1769
  283POPC   C1B 3886   5.274   9.595   5.622 -0.0835 -0.0611  0.1538
  283POPC   C2B 3887   5.357   9.936   5.893 -0.2539  0.3420  0.3354
  283POPC   C3B 3888   5.534  10.194   6.219 -0.2738 -0.5718  0.1336
  283POPC   C4B 3889   5.664  10.112   6.587  0.0125 -0.1692 -0.1350
  284POPC   NC3 3890   0.644   6.999   4.933  0.0277 -0.1857  0.1049
  284POPC   PO4 3891   0.796   7.296   5.209 -0.1148  0.2271 -0.2765
  284POPC   GL1 3892   0.770   7.241   5.710 -0.0321 -0.3149 -0.2353
  284POPC   GL2 3893   0.758   7.523   5.850  0.0429  0.3512 -0.2541
  284POPC   C1A 3894   0.671   7.144   6.176  0.2586 -0.0553  0.0453
  284POPC   D2A 3895   0.554   7.237   6.646 -0.2147  0.0111  0.1294
  284POPC   C3A 3896   0.165   7.225   6.836  0.2639  0.1212 -0.3173
  284POPC   C4A 3897  -0.244   7.119   6.867  0.0844  0.0604 -0.0759
  284POPC   C1B 3898   0.699   7.692   6.202  0.0649 -0.1795  0.2240
  284POPC   C2B 3899   0.673   7.690   6.701 -0.3355  0.1800 -0.1393
  284POPC   C3B 3900   0.452   7.842   7.002 -0.3600 -0.0999 -0.0301
  284POPC   C4B 3901   0.109   8.167   7.051  0.0090  0.2962  0.0315
  285POPC   NC3 3902   0.531   4.979   5.153  0.1117 -0.0816 -0.0754
  285POPC   PO4 3903   0.790   4.703   5.430  0.2019 -0.2193  0.4035
  285POPC   GL1 3904   0.971   4.628   5.818 -0.0219 -0.4538  0.3046
  285POPC   GL2 3905   0.816   4.338   5.875 -0.2041  0.1859 -0.2505
  285POPC   C1A 3906   1.261   4.677   6.129 -0.3228 -0.2004 -0.1255
  285POPC   D2A 3907   1.161   4.505   6.557  0.1202  0.0308  0.2219
  285POPC   C3A 3908   0.823   4.721   6.645 -0.2266 -0.1811 -0.1985
  285POPC   C4A 3909   0.674   5.048   6.431  0.1307  0.2423 -0.1409
  285POPC   C1B 3910   0.736   4.395   6.286 -0.0762  0.3432 -0.2735
  285POPC   C2B 3911   0.580   4.185   6.708 -0.1844  0.2190  0.0078
  285POPC   C3B 3912   0.342   4.101   7.015 -0.0208 -0.0261 -0.0583
  285POPC   C4B 3913   0.373   4.407   7.378  0.3261 -0.3031  0.3232
  286POPC   NC3 3914   4.208   0.644   4.369  0.1626  0.1105 -0.1703
  286POPC   PO4 3915   3.949   0.959   4.584  0.0708  0.1239 -0.0715
  286POPC   GL1 3916   3.666   0.819   5.004  0.1982 -0.1393 -0.1184
  286POPC   GL2 3917   3.691   0.424   5.159 -0.4929  0.1533 -0.2016
  286POPC   C1A 3918   3.446   0.839   5.366 -0.0068  0.0257  0.2120
  286POPC   D2A 3919   3.281   0.761   5.664  0.2611  0.2072  0.1739
  286POPC   C3A 3920   3.327   0.907   6.118  0.0933 -0.0069  0.0084
  286POPC   C4A 3921   3.462   0.941   6.511  0.3027 -0.0091  0.1849
  286POPC   C1B 3922   3.680   0.399   5.589 -0.1699  0.3584 -0.2092
  286POPC   C2B 3923   3.660   0.569   6.005  0.4022 -0.0284  0.2126
  286POPC   C3B 3924   3.843   0.616   6.492  0.1373 -0.0825  0.0683
  286POPC   C4B 3925   4.009   0.573   6.873  0.0964 -0.1895  0.2948
  287POPC   NC3 3926   4.654   3.297   4.731 -0.0565  0.3585 -0.0650
  287POPC   PO4 3927   4.656   2.816   4.826 -0.1889  0.2488 -0.4494
  287POPC   GL1 3928   4.838   2.465   5.062 -0.1846 -0.1025  0.3152
  287POPC   GL2 3929   4.633   2.595   5.295  0.1472 -0.0508 -0.3033
  287POPC   C1A 3930   5.084   2.392   5.373 -0.0849 -0.2577  0.0970
  287POPC   D2A 3931   5.418   2.349   5.594  0.1292  0.0177  0.2883
  287POPC   C3A 3932   5.743   2.159   5.467  0.2450  0.0392  0.4500
  287POPC   C4A 3933   5.867   1.775   5.445 -0.1143 -0.1210 -0.2454
  287POPC   C1B 3934   4.659   2.287   5.624  0.1912  0.0188  0.0228
  287POPC   C2B 3935   4.609   2.277   6.023 -0.0461  0.3624 -0.0537
  287POPC   C3B 3936   4.529   2.279   6.503 -0.2736 -0.0940 -0.1651
  287POPC   C4B 3937   4.636   2.628   6.710 -0.2149  0.1225 -0.1932
  288POPC   NC3 3938   2.120   2.483   4.508 -0.1526  0.3045  0.1176
  288POPC   PO4 3939   2.156   2.139   4.808  0.2101 -0.2957 -0.0989
  288POPC   GL1 3940   2.406   2.233   5.160 -0.3618  0.1699 -0.0505
  288POPC   GL2 3941   2.810   2.268   5.232  0.1048 -0.0326 -0.2271
  288POPC   C1A 3942   2.215   2.194   5.635 -0.1357 -0.0112  0.2450
  288POPC   D2A 3943   2.008   1.873   6.001 -0.1393 -0.0538 -0.2384
  288POPC   C3A 3944   2.009   1.695   6.444  0.0873  0.0452 -0.0719
  288POPC   C4A 3945   1.921   1.486   6.846 -0.0531 -0.1303  0.0914
  288POPC   C1B 3946   2.803   2.197   5.681 -0.2992 -0.4951  0.0309
  288POPC   C2B 3947   2.826   2.327   6.130 -0.0169  0.0582  0.3551
  288POPC   C3B 3948   3.144   2.645   6.450  0.0253 -0.1408 -0.0491
  288POPC   C4B 3949   3.395   2.552   6.713 -0.1180 -0.0444  0.0436
  289POPC   NC3 3950   2.448   6.515   4.592 -0.2663 -0.1845  0.1617
  289POPC   PO4 3951   2.339   6.266   4.753  0.0515 -0.0393  0.1448
  289POPC   GL1 3952   2.536   6.094   5.079  0.1678  0.1413 -0.1527
  289POPC   GL2 3953   2.304   5.850   5.234 -0.0461  0.0218 -0.0779
  289POPC   C1A 3954   2.934   5.909   5.443  0.0879  0.0585  0.1585
  289POPC   D2A 3955   2.985   5.838   5.789 -0.1679  0.1343 -0.0547
  289POPC   C3A 3956   3.119   5.691   6.096  0.0423 -0.1661  0.2780
  289POPC   C4A 3957   2.962   5.543   6.445 -0.0521 -0.1150 -0.0546
  289POPC   C1B 3958   2.395   6.075   5.672 -0.0393 -0.0541 -0.1064
  289POPC   C2B 3959   2.195   6.057   6.036  0.0013 -0.1897 -0.2585
  289POPC   C3B 3960   2.151   6.227   6.388  0.0810  0.1301  0.3458
  289POPC   C4B 3961   2.426   6.675   6.467 -0.0292  0.0279 -0.1724
  290POPC   NC3 3962   2.549   1.353   4.403  0.0383  0.3305 -0.0185
  290POPC   PO4 3963   2.777   1.692   4.432  0.1430  0.1313 -0.1205
  290POPC   GL1 3964   2.545   1.795   4.839 -0.1482  0.1837  0.2333
  290POPC   GL2 3965   2.252   1.658   4.892 -0.1274 -0.2507 -0.2121
  290POPC   C1A 3966   2.709   1.786   5.257 -0.0444  0.1853 -0.2862
  290POPC   D2A 3967   2.956   1.676   5.578  0.0729 -0.1453  0.0973
  290POPC   C3A 3968   2.861   1.638   6.021 -0.3932  0.0029  0.2067
  290POPC   C4A 3969   3.002   1.474   6.314  0.0119 -0.3003  0.0067
  290POPC   C1B 3970   2.131   1.215   4.951  0.1000  0.2225 -0.1498
  290POPC   C2B 3971   1.664   1.047   5.024  0.0223 -0.2600 -0.0272
  290POPC   C3B 3972   1.196   0.772   4.916 -0.0058  0.2529 -0.1027
  290POPC   C4B 3973   0.769   0.874   4.727 -0.0874 -0.2464  0.1005
  291POPC   NC3 3974   2.691   4.455   4.763 -0.0963  0.1200 -0.1691
  291POPC   PO4 3975   2.264   4.467   5.026  0.1274  0.0644  0.0481
  291POPC   GL1 3976   2.503   4.658   5.251  0.3152 -0.3790  0.4291
  291POPC   GL2 3977   2.727   4.518   5.267 -0.2314 -0.0445  0.1401
  291POPC   C1A 3978   2.454   4.928   5.550 -0.0413  0.3021 -0.0339
  291POPC   D2A 3979   2.621   4.979   5.816 -0.2522  0.1949  0.1228
  291POPC   C3A 3980   2.502   4.748   6.204 -0.2505  0.0742 -0.2175
  291POPC   C4A 3981   2.070   4.609   6.425 -0.2566 -0.0869 -0.3004
  291POPC   C1B 3982   2.734   4.496   5.667  0.0282 -0.1168 -0.1655
  291POPC   C2B 3983   2.816   4.368   6.011  0.4001 -0.0075 -0.0992
  291POPC   C3B 3984   2.702   4.445   6.540 -0.0739  0.4005 -0.0822
  291POPC   C4B 3985   2.471   4.746   6.725 -0.2134  0.1624  0.1336
  292POPC   NC3 3986   3.711   8.881   4.605 -0.0445 -0.0828  0.0265
  292POPC   PO4 3987   3.848   9.306   4.656 -0.0251 -0.2261 -0.1033
  292POPC   GL1 3988   4.011   9.060   4.962 -0.3962 -0.0611 -0.0413
  292POPC   GL2 3989   3.922   9.175   5.243 -0.3270 -0.3473  0.2341
  292POPC   C1A 3990   4.105   8.730   5.298  0.2947  0.0264 -0.2946
  292POPC   D2A 3991   4.203   8.579   5.703 -0.0268 -0.1752 -0.0694
  292POPC   C3A 3992   4.517   8.196   5.639 -0.1028 -0.0051 -0.1265
  292POPC   C4A 3993   4.964   8.181   5.516 -0.3347 -0.1101 -0.0058
  292POPC   C1B 3994   4.077   9.126   5.612 -0.2066  0.1784  0.4630
  292POPC   C2B 3995   4.279   9.233   6.065 -0.0632 -0.0370  0.0384
  292POPC   C3B 3996   4.566   9.126   6.402 -0.3213 -0.2714 -0.3654
  292POPC   C4B 3997   4.943   9.197   6.505  0.3411 -0.1088  0.0777
  293POPC   NC3 3998   3.075   7.245   4.887  0.0864  0.0407 -0.0471
  293POPC   PO4 3999   2.914   7.057   5.206  0.1386  0.0532  0.2580
  293POPC   GL1 4000   3.079   6.809   5.456 -0.0307 -0.0341  0.0708
  293POPC   GL2 4001   3.051   6.514   5.315  0.2005  0.0095  0.0175
  293POPC   C1A 4002   3.237   6.770   5.862  0.3428 -0.1660  0.1108
  293POPC   D2A 4003   3.393   6.983   6.126 -0.0197  0.3330  0.0275
  293POPC   C3A 4004   3.193   7.236   6.413 -0.0994  0.1700  0.1811
  293POPC   C4A 4005   2.786   7.519   6.564  0.0878  0.1562  0.1246
  293POPC   C1B 4006   3.087   6.308   5.695 -0.1788 -0.1558 -0.4568
  293POPC   C2B 4007   3.420   6.051   5.887 -0.1036  0.1445  0.0848
  293POPC   C3B 4008   3.683   5.732   6.220 -0.2204  0.3257 -0.2467
  293POPC   C4B 4009   3.998   5.584   6.566  0.1789  0.3334 -0.0077
  294POPC   NC3 4010   5.351   4.205   4.579 -0.3799 -0.1434 -0.0425
  294POPC   PO4 4011   5.701   4.374   4.852  0.1450  0.1884 -0.0348
  294POPC   GL1 4012   5.689   4.472   5.404 -0.0740  0.0876 -0.3927
  294POPC   GL2 4013   5.377   4.632   5.594 -0.3123  0.2684  0.1528
  294POPC   C1A 4014   6.047   4.136   5.614  0.0256  0.0658 -0.0942
  294POPC   D2A 4015   6.159   4.023   6.055  0.0409 -0.4036 -0.1581
  294POPC   C3A 4016   6.371   4.142   6.313 -0.1447  0.2443 -0.0396
  294POPC   C4A 4017   6.286   4.488   6.673 -0.1625  0.0119 -0.0674
  294POPC   C1B 4018   5.502   4.210   5.729  0.2520 -0.1267 -0.0863
  294POPC   C2B 4019   5.580   4.072   6.165  0.1795  0.0626  0.1060
  294POPC   C3B 4020   5.523   3.866   6.581 -0.1593  0.1697 -0.0653
  294POPC   C4B 4021   5.700   3.840   6.932 -0.1262  0.1466 -0.0246
  295POPC   NC3 4022   1.656   4.217   4.789  0.2562 -0.1877  0.1448
  295POPC   PO4 4023   1.488   4.011   5.203 -0.1648 -0.0897 -0.0213
  295POPC   GL1 4024   1.668   4.222   5.568 -0.0636 -0.0184 -0.1276
  295POPC   GL2 4025   1.360   4.284   5.831 -0.1970 -0.3077 -0.1543
  295POPC   C1A 4026   2.059   4.211   5.946  0.3733 -0.0608  0.0686
  295POPC   D2A 4027   2.214   4.149   6.389 -0.0301 -0.0789  0.1516
  295POPC   C3A 4028   2.011   4.008   6.766  0.2161  0.0160 -0.2374
  295POPC   C4A 4029   1.856   3.774   7.178  0.1013  0.2078 -0.0194
  295POPC   C1B 4030   1.121   4.096   6.160 -0.1969  0.0907 -0.0112
  295POPC   C2B 4031   1.055   3.848   6.466 -0.0590  0.2284 -0.0533
  295POPC   C3B 4032   1.043   3.641   6.828 -0.1441  0.0708 -0.1283
  295POPC   C4B 4033   0.912   3.443   7.242  0.2707  0.0549  0.0173
  296POPC   NC3 4034   1.734   1.547   3.653  0.1090 -0.0385 -0.3773
  296POPC   PO4 4035   1.522   1.065   3.779  0.0898  0.2432 -0.1874
  296POPC   GL1 4036   1.501   1.231   4.209 -0.1759  0.0199 -0.1004
  296POPC   GL2 4037   1.528   1.571   4.235  0.2569 -0.2169 -0.2418
  296POPC   C1A 4038   1.406   1.260   4.630 -0.0031 -0.4385  0.0148
  296POPC   D2A 4039   1.159   1.314   4.984  0.2416  0.1558  0.1011
  296POPC   C3A 4040   1.387   1.352   5.276  0.2297 -0.2825 -0.4728
  296POPC   C4A 4041   1.252   1.367   5.707 -0.1636 -0.1289 -0.0819
  296POPC   C1B 4042   1.863   1.525   4.641 -0.0937  0.0166  0.1005
  296POPC   C2B 4043   1.810   1.549   5.064  0.0684 -0.1783  0.1306
  296POPC   C3B 4044   2.153   1.709   5.402  0.0499  0.0850 -0.0737
  296POPC   C4B 4045   2.500   1.770   5.715 -0.1461  0.1630  0.1905
  297POPC   NC3 4046   6.798   9.460   4.920  0.1336 -0.0607 -0.1034
  297POPC   PO4 4047   7.137   9.328   4.709 -0.0028  0.0111  0.1547
  297POPC   GL1 4048   7.337   9.540   4.901  0.1778 -0.1750  0.2045
  297POPC   GL2 4049   7.613   9.490   4.812 -0.3695 -0.1702  0.3444
  297POPC   C1A 4050   7.643   9.799   5.208  0.0978  0.1546 -0.1418
  297POPC   D2A 4051   8.050   9.889   5.245 -0.3043  0.1549  0.1590
  297POPC   C3A 4052   8.318   9.800   5.625 -0.1063 -0.0442 -0.1163
  297POPC   C4A 4053   8.680  10.034   5.826 -0.1646  0.3180 -0.2804
  297POPC   C1B 4054   7.932   9.416   5.020 -0.1029  0.1394 -0.0866
  297POPC   C2B 4055   8.160   9.407   5.364 -0.4229  0.1185 -0.2519
  297POPC   C3B 4056   8.511   9.347   5.483 -0.3739  0.0890  0.1110
  297POPC   C4B 4057   8.563   9.433   5.894 -0.0399 -0.2734 -0.0299
  298POPC   NC3 4058   9.741   3.794   4.427 -0.0221 -0.3056  0.0201
  298POPC   PO4 4059   9.921   3.333   4.510 -0.0668  0.1250 -0.1368
  298POPC   GL1 4060   9.859   3.348   4.950  0.3234  0.0867 -0.1162
  298POPC   GL2 4061  10.120   3.180   5.214  0.0190  0.0585  0.1145
  298POPC   C1A 4062   9.535   3.142   5.267 -0.1485 -0.1536 -0.0952
  298POPC   D2A 4063   9.374   3.311   5.515 -0.0748  0.1168  0.0713
  298POPC   C3A 4064   9.450   3.146   5.960  0.1495 -0.1488  0.1336
  298POPC   C4A 4065   9.690   3.169   6.403 -0.0430  0.1032  0.1040
  298POPC   C1B 4066  10.303   3.184   5.654  0.1493 -0.0289  0.2723
  298POPC   C2B 4067  10.581   3.292   6.009  0.1571  0.0007 -0.0227
  298POPC   C3B 4068  10.872   3.289   6.333  0.1145  0.0357 -0.1124
  298POPC   C4B 4069  11.063   3.660   6.626  0.1850  0.0242 -0.2415
  299POPC   NC3 4070   2.061   8.081   4.867 -0.1993 -0.1414 -0.0630
  299POPC   PO4 4071   2.378   7.770   5.003 -0.2181  0.2707 -0.0051
  299POPC   GL1 4072   2.332   7.908   5.462 -0.1059  0.0031  0.1332
  299POPC   GL2 4073   2.461   7.736   5.713  0.1871  0.1114 -0.1771
  299POPC   C1A 4074   2.096   7.915   5.920  0.0280  0.1569  0.1180
  299POPC   D2A 4075   1.932   7.610   6.250 -0.0507 -0.4165 -0.0263
  299POPC   C3A 4076   2.287   7.512   6.543 -0.0306  0.0427 -0.1572
  299POPC   C4A 4077   2.429   7.202   6.826  0.0148  0.2135 -0.0543
  299POPC   C1B 4078   2.529   7.394   6.045  0.0303  0.2634  0.0988
  299POPC   C2B 4079   2.750   6.965   6.219 -0.4924 -0.1146 -0.0362
  299POPC   C3B 4080   3.013   6.627   6.318  0.1623  0.1583 -0.3538
  299POPC   C4B 4081   2.979   6.378   6.709  0.2159 -0.2441  0.1405
  300POPC   NC3 4082   6.865   1.965   4.277 -0.2122  0.0623  0.0227
  300POPC   PO4 4083   7.138   1.643   4.430  0.2343 -0.2821  0.3343
  300POPC   GL1 4084   7.046   1.531   4.916  0.1156  0.4073  0.1352
  300POPC   GL2 4085   6.879   1.251   4.998 -0.2804 -0.1540  0.1062
  300POPC   C1A 4086   7.065   1.553   5.398  0.2017  0.1920  0.1573
  300POPC   D2A 4087   7.333   1.536   5.749  0.4802  0.2430  0.2454
  300POPC   C3A 4088   7.240   1.561   6.130 -0.0462 -0.1564  0.0526
  300POPC   C4A 4089   7.171   1.833   6.520 -0.1276  0.0149 -0.0077
  300POPC   C1B 4090   6.909   1.012   5.375  0.0419  0.1270  0.2927
  300POPC   C2B 4091   6.945   0.707   5.711  0.2492  0.0447 -0.0729
  300POPC   C3B 4092   6.915   0.390   6.019  0.1151 -0.1730  0.1898
  300POPC   C4B 4093   7.052   0.144   6.346  0.2803 -0.2205  0.2396
  301POPC   NC3 4094   1.011   2.436   4.583 -0.3228  0.1228 -0.2211
  301POPC   PO4 4095   1.501   2.458   4.578 -0.4635 -0.0528 -0.0090
  301POPC   GL1 4096   1.331   2.417   5.072  0.1329  0.2065  0.1945
  301POPC   GL2 4097   1.582   2.532   5.249  0.0601 -0.0869  0.1594
  301POPC   C1A 4098   0.930   2.217   5.353 -0.0626  0.0456  0.0835
  301POPC   D2A 4099   0.701   1.989   5.698  0.0947 -0.1669  0.1029
  301POPC   C3A 4100   0.985   2.001   6.061 -0.0474  0.2780  0.1561
  301POPC   C4A 4101   1.043   1.787   6.496 -0.1006  0.1427 -0.0133
  301POPC   C1B 4102   1.417   2.214   5.567  0.1070  0.1794 -0.1728
  301POPC   C2B 4103   1.513   2.025   5.930  0.2614 -0.6715 -0.0016
  301POPC   C3B 4104   1.335   1.648   6.155 -0.2904  0.4200  0.2195
  301POPC   C4B 4105   0.987   1.391   6.156 -0.4321  0.1755 -0.0010
  302POPC   NC3 4106   9.490   2.749   4.245 -0.0788 -0.1436 -0.0163
  302POPC   PO4 4107   9.013   2.738   4.349  0.0779  0.2860  0.0618
  302POPC   GL1 4108   9.206   2.647   4.752 -0.3588 -0.3280 -0.0528
  302POPC   GL2 4109   9.539   2.941   4.746 -0.2185 -0.3045 -0.1539
  302POPC   C1A 4110   9.178   2.559   5.189  0.0021  0.0283  0.2998
  302POPC   D2A 4111   9.434   2.698   5.543 -0.2820 -0.3431  0.0602
  302POPC   C3A 4112   9.782   2.455   5.749 -0.2752 -0.0856  0.1171
  302POPC   C4A 4113   9.857   2.156   6.170  0.0888 -0.1704  0.1510
  302POPC   C1B 4114   9.627   2.636   4.994  0.0955 -0.0925 -0.1153
  302POPC   C2B 4115   9.667   2.356   5.273 -0.1472  0.1146 -0.3132
  302POPC   C3B 4116   9.357   2.144   5.620 -0.1523 -0.1385 -0.1327
  302POPC   C4B 4117   8.983   2.449   5.678  0.1694 -0.0171 -0.2438
  303POPC   NC3 4118   8.166   9.990   3.748  0.4477  0.1749  0.1124
  303POPC   PO4 4119   8.475  10.096   4.102  0.0776  0.1262 -0.0522
  303POPC   GL1 4120   8.461  10.410   4.454  0.0103 -0.0031 -0.1495
  303POPC   GL2 4121   8.790  10.248   4.518  0.0404 -0.1972  0.1284
  303POPC   C1A 4122   8.256  10.636   4.749 -0.2012  0.3268  0.0893
  303POPC   D2A 4123   7.986  10.621   5.068 -0.6038 -0.0340 -0.3249
  303POPC   C3A 4124   8.125  10.818   5.398  0.0053 -0.0870  0.1489
  303POPC   C4A 4125   8.241  10.873   5.747  0.0038 -0.0529  0.0469
  303POPC   C1B 4126   8.732  10.456   4.935 -0.1091  0.3392  0.2104
  303POPC   C2B 4127   9.077  10.600   5.201  0.0113 -0.0227 -0.0935
  303POPC   C3B 4128   9.429  10.469   5.344 -0.0943  0.4788 -0.1047
  303POPC   C4B 4129   9.804  10.130   5.364 -0.0511  0.0261  0.1436
  304POPC   NC3 4130   4.014   6.813   4.744  0.1158  0.0883  0.1818
  304POPC   PO4 4131   4.030   7.269   4.702  0.2171 -0.0824 -0.2458
  304POPC   GL1 4132   4.082   7.108   5.178  0.1479 -0.3942  0.0881
  304POPC   GL2 4133   3.752   6.919   5.165  0.2174 -0.0029 -0.0470
  304POPC   C1A 4134   4.202   7.139   5.592  0.0446  0.0219  0.0497
  304POPC   D2A 4135   3.954   7.101   6.052 -0.0031 -0.0458  0.0152
  304POPC   C3A 4136   3.970   6.843   6.342 -0.1618 -0.1020 -0.0077
  304POPC   C4A 4137   4.367   6.692   6.549  0.4006 -0.0677 -0.0476
  304POPC   C1B 4138   3.555   6.529   5.278  0.0760 -0.0944 -0.0130
  304POPC   C2B 4139   3.431   6.172   5.247  0.0385  0.3388 -0.2812
  304POPC   C3B 4140   3.440   5.823   5.448 -0.1748 -0.0283  0.0217
  304POPC   C4B 4141   3.492   5.511   5.804 -0.0268  0.2886 -0.0940
  305POPC   NC3 4142   9.188   8.160   4.583  0.0662 -0.0679 -0.1790
  305POPC   PO4 4143   9.139   8.643   4.642  0.0440  0.2986 -0.0903
  305POPC   GL1 4144   9.381   8.725   5.028  0.1065 -0.1631 -0.2427
  305POPC   GL2 4145   9.607   8.943   4.913 -0.0287  0.0142 -0.1171
  305POPC   C1A 4146   9.379   8.782   5.506 -0.1773 -0.2017  0.1359
  305POPC   D2A 4147   9.391   8.875   5.912  0.3201  0.1479  0.0760
  305POPC   C3A 4148   9.543   9.235   6.054 -0.1658  0.0460  0.0125
  305POPC   C4A 4149   9.458   9.605   6.113 -0.1809 -0.0781 -0.2116
  305POPC   C1B 4150   9.814   9.318   5.094 -0.4287 -0.1401  0.2437
  305POPC   C2B 4151   9.942   9.616   5.427 -0.0602 -0.3116 -0.2012
  305POPC   C3B 4152   9.876   9.640   5.875 -0.1600  0.2362  0.0830
  305POPC   C4B 4153  10.014   9.548   6.332 -0.3583 -0.1482 -0.3589
  306POPC   NC3 4154   0.029   7.850   4.596  0.2347  0.1475 -0.1059
  306POPC   PO4 4155  -0.063   7.968   5.004 -0.1809 -0.1758  0.1234
  306POPC   GL1 4156  -0.063   8.154   5.280 -0.1058  0.0376  0.3038
  306POPC   GL2 4157   0.273   8.081   5.453  0.2058  0.0051  0.1222
  306POPC   C1A 4158  -0.271   8.466   5.537  0.1566 -0.3154  0.0639
  306POPC   D2A 4159  -0.145   8.845   5.739 -0.1736  0.2408  0.2716
  306POPC   C3A 4160   0.226   9.069   5.803  0.1797 -0.0742  0.2125
  306POPC   C4A 4161   0.213   9.413   5.535  0.1061  0.0784 -0.3236
  306POPC   C1B 4162   0.170   8.402   5.738  0.0049 -0.0234 -0.4429
  306POPC   C2B 4163   0.135   8.632   6.130  0.0616 -0.0644  0.5624
  306POPC   C3B 4164  -0.149   8.756   6.446 -0.1142  0.0479 -0.3004
  306POPC   C4B 4165  -0.022   8.917   6.820 -0.0140  0.1867 -0.1614
  307POPC   NC3 4166   9.596   4.328   5.148 -0.2233  0.0354 -0.1804
  307POPC   PO4 4167   9.296   4.632   5.265 -0.3590  0.1343 -0.2799
  307POPC   GL1 4168   9.251   4.230   5.566 -0.1849  0.0479  0.0412
  307POPC   GL2 4169   9.385   3.947   5.483  0.2160  0.3899  0.0939
  307POPC   C1A 4170   9.025   3.972   5.926  0.0932 -0.0641  0.1542
  307POPC   D2A 4171   8.761   3.784   6.195  0.2522  0.5154  0.0005
  307POPC   C3A 4172   8.705   3.483   6.636  0.2672  0.2384  0.3308
  307POPC   C4A 4173   8.495   3.505   7.031  0.4053 -0.1940  0.0763
  307POPC   C1B 4174   9.483   3.708   5.802  0.0712 -0.0221  0.1117
  307POPC   C2B 4175   9.502   3.636   6.201  0.1615 -0.2637 -0.0501
  307POPC   C3B 4176   9.235   3.494   6.482 -0.1052  0.2341 -0.1749
  307POPC   C4B 4177   9.161   3.153   6.832  0.0372  0.3050 -0.0352
  308POPC   NC3 4178   6.703   5.941   4.761 -0.0168  0.1179  0.3487
  308POPC   PO4 4179   6.288   5.910   4.984  0.0630  0.1232 -0.0056
  308POPC   GL1 4180   6.357   6.188   5.478 -0.3013 -0.0429  0.1520
  308POPC   GL2 4181   6.686   6.221   5.641 -0.0117 -0.0911  0.2338
  308POPC   C1A 4182   6.133   6.275   5.805  0.1208 -0.2507 -0.0186
  308POPC   D2A 4183   6.337   6.155   6.222  0.1384 -0.1751  0.2381
  308POPC   C3A 4184   6.359   6.084   6.538  0.1086 -0.3322  0.1548
  308POPC   C4A 4185   6.252   6.222   7.047 -0.2243  0.0864  0.0364
  308POPC   C1B 4186   6.880   5.958   5.876  0.0788 -0.0111  0.0453
  308POPC   C2B 4187   6.940   5.602   6.196 -0.0090 -0.2140  0.2525
  308POPC   C3B 4188   7.058   5.549   6.641  0.3182  0.0450 -0.2597
  308POPC   C4B 4189   6.907   5.698   7.074  0.1344 -0.0247 -0.2034
  309POPC   NC3 4190   3.495   0.021   4.877 -0.2661 -0.1138 -0.2131
  309POPC   PO4 4191   3.768  -0.301   5.034  0.1870  0.0563 -0.1351
  309POPC   GL1 4192   3.849  -0.536   5.373 -0.1073  0.2209 -0.3165
  309POPC   GL2 4193   3.835  -0.852   5.472 -0.1056  0.1883 -0.2531
  309POPC   C1A 4194   3.547  -0.609   5.802 -0.1448  0.2149  0.0435
  309POPC   D2A 4195   3.268  -0.781   6.139  0.0407 -0.3291  0.0080
  309POPC   C3A 4196   3.015  -0.715   6.541  0.1127  0.1127 -0.2579
  309POPC   C4A 4197   2.968  -0.690   6.997  0.0183 -0.1190  0.1403
  309POPC   C1B 4198   3.961  -0.828   5.935  0.2302  0.0796 -0.0048
  309POPC   C2B 4199   4.067  -0.853   6.336 -0.2595  0.0287  0.1481
  309POPC   C3B 4200   3.985  -1.244   6.505  0.0658 -0.1667 -0.1704
  309POPC   C4B 4201   3.752  -1.550   6.232  0.1241 -0.3238 -0.0149
  310POPC   NC3 4202   2.645  10.261   4.335 -0.1842  0.3650  0.1560
  310POPC   PO4 4203   2.437  10.598   4.216  0.2422  0.1783 -0.0282
  310POPC   GL1 4204   2.443  10.625   4.719  0.2173  0.0192 -0.1028
  310POPC   GL2 4205   2.474  10.923   4.727  0.0240  0.1917 -0.0946
  310POPC   C1A 4206   2.243  10.828   5.212 -0.1250 -0.0101  0.0239
  310POPC   D2A 4207   1.908  10.890   5.554 -0.0173  0.1948 -0.1456
  310POPC   C3A 4208   1.888  10.603   5.878 -0.1843 -0.0681 -0.0295
  310POPC   C4A 4209   1.834  10.484   6.401 -0.1290  0.0707  0.3192
  310POPC   C1B 4210   2.779  10.791   5.036 -0.2378 -0.1290 -0.2371
  310POPC   C2B 4211   2.973  10.848   5.470 -0.0562  0.5107 -0.1717
  310POPC   C3B 4212   3.162  10.838   5.933 -0.1846 -0.0263  0.2375
  310POPC   C4B 4213   3.303  10.873   6.421  0.3940  0.2202 -0.1214
  311POPC   NC3 4214   8.020   2.963   4.566 -0.0586 -0.0842  0.1884
  311POPC   PO4 4215   8.046   2.537   4.420  0.1484  0.0633  0.1969
  311POPC   GL1 4216   8.312   2.617   4.798 -0.2527 -0.1387  0.0872
  311POPC   GL2 4217   8.113   2.657   5.025 -0.0428 -0.1232  0.3726
  311POPC   C1A 4218   8.431   2.323   5.152  0.4525 -0.0553 -0.2581
  311POPC   D2A 4219   8.504   2.289   5.639  0.1041  0.1979  0.0140
  311POPC   C3A 4220   8.462   2.577   5.809  0.1988 -0.0287  0.1712
  311POPC   C4A 4221   8.702   2.778   6.130 -0.0605  0.3571 -0.0235
  311POPC   C1B 4222   7.970   2.491   5.402 -0.0508  0.0163  0.3591
  311POPC   C2B 4223   8.007   2.208   5.753  0.0096  0.1309 -0.0803
  311POPC   C3B 4224   8.048   1.987   6.138 -0.0652  0.0576 -0.1166
  311POPC   C4B 4225   8.294   1.843   6.363  0.0470 -0.0014  0.0710
  312POPC   NC3 4226   7.035   2.858   3.914 -0.1768  0.1253 -0.0203
  312POPC   PO4 4227   7.047   2.810   4.383 -0.3027  0.4285  0.0024
  312POPC   GL1 4228   7.156   2.722   4.850  0.0531  0.0948 -0.1486
  312POPC   GL2 4229   7.185   3.012   5.149 -0.0472 -0.1682  0.3508
  312POPC   C1A 4230   7.079   2.553   5.328 -0.3578 -0.2453  0.1369
  312POPC   D2A 4231   7.031   2.404   5.814 -0.1583 -0.1774  0.0995
  312POPC   C3A 4232   6.826   2.725   6.125 -0.1502 -0.0011 -0.4995
  312POPC   C4A 4233   6.983   2.886   6.481  0.1421  0.2131  0.2665
  312POPC   C1B 4234   7.213   2.930   5.621  0.1328  0.2042 -0.6032
  312POPC   C2B 4235   7.355   2.893   6.094 -0.3183  0.1369 -0.0564
  312POPC   C3B 4236   7.318   2.517   6.405  0.1272 -0.1841  0.1053
  312POPC   C4B 4237   7.374   2.320   6.756 -0.4441  0.0497  0.1031
  313POPC   NC3 4238   8.980   1.638   3.851  0.2241 -0.1274 -0.1486
  313POPC   PO4 4239   8.553   1.382   3.855 -0.3727  0.2742 -0.2759
  313POPC   GL1 4240   8.469   1.492   4.266 -0.0356 -0.3187  0.0853
  313POPC   GL2 4241   8.530   1.668   4.473 -0.1176 -0.0906 -0.0833
  313POPC   C1A 4242   8.166   1.389   4.591  0.1377 -0.0546  0.6325
  313POPC   D2A 4243   7.938   1.068   4.778 -0.1762 -0.0144  0.1534
  313POPC   C3A 4244   7.549   1.150   4.803 -0.4013 -0.2332  0.1771
  313POPC   C4A 4245   7.316   1.113   5.123 -0.1163  0.0326 -0.2663
  313POPC   C1B 4246   8.669   1.683   4.896 -0.0402 -0.1553  0.0542
  313POPC   C2B 4247   8.843   1.491   5.232 -0.2509 -0.1657 -0.3594
  313POPC   C3B 4248   8.502   1.381   5.552 -0.0533 -0.1281  0.0027
  313POPC   C4B 4249   8.418   1.702   5.904  0.1015 -0.2504 -0.0713
  314POPC   NC3 4250   0.733   0.188   3.353 -0.2652 -0.1570  0.2611
  314POPC   PO4 4251   0.768   0.422   3.667 -0.0265 -0.4409  0.1641
  314POPC   GL1 4252   0.356   0.494   3.994  0.0048  0.1626  0.1974
  314POPC   GL2 4253   0.560   0.690   4.073  0.2664 -0.0109 -0.1833
  314POPC   C1A 4254   0.209   0.687   4.470 -0.5097  0.1510  0.3451
  314POPC   D2A 4255   0.346   0.489   4.890  0.3281 -0.0105  0.2419
  314POPC   C3A 4256   0.592   0.706   5.224 -0.0022  0.1006  0.5365
  314POPC   C4A 4257   0.981   1.029   5.336 -0.1296  0.0795 -0.0079
  314POPC   C1B 4258   0.768   0.513   4.432  0.1174  0.0877  0.1438
  314POPC   C2B 4259   0.877   0.399   4.886  0.0506 -0.0631  0.0971
  314POPC   C3B 4260   0.980   0.353   5.218 -0.3490  0.0470  0.2405
  314POPC   C4B 4261   0.922   0.512   5.504 -0.1782  0.2991  0.1206
  315POPC   NC3 4262   6.998   5.621   5.060 -0.0676 -0.1722 -0.1850
  315POPC   PO4 4263   6.757   5.844   5.301 -0.1779  0.4171 -0.1862
  315POPC   GL1 4264   6.800   5.541   5.537  0.2215 -0.1472  0.0334
  315POPC   GL2 4265   7.101   5.606   5.624 -0.0554 -0.0571  0.0193
  315POPC   C1A 4266   6.770   5.247   5.803  0.0171 -0.2378 -0.3435
  315POPC   D2A 4267   6.789   4.901   5.974 -0.3476  0.1428  0.1091
  315POPC   C3A 4268   6.819   5.065   6.279 -0.1310 -0.5448  0.1120
  315POPC   C4A 4269   7.002   5.042   6.712 -0.1017  0.1008 -0.4927
  315POPC   C1B 4270   7.192   5.249   5.995  0.1101 -0.2373  0.4174
  315POPC   C2B 4271   7.320   5.126   6.330  0.1195  0.2485  0.0670
  315POPC   C3B 4272   7.506   4.842   6.554 -0.1979  0.3500 -0.2444
  315POPC   C4B 4273   7.362   4.670   6.915  0.2345  0.1189  0.1169
  316POPC   NC3 4274   9.850   8.062   4.895 -0.2026  0.2932  0.0700
  316POPC   PO4 4275   9.401   8.185   5.033 -0.2203 -0.2301 -0.2021
  316POPC   GL1 4276   9.146   8.347   5.382 -0.2864  0.1602  0.0377
  316POPC   GL2 4277   9.211   8.068   5.571  0.2216  0.1524 -0.0723
  316POPC   C1A 4278   9.000   8.431   5.838 -0.1344  0.0687 -0.0365
  316POPC   D2A 4279   9.089   8.246   6.230 -0.2130 -0.0612 -0.0726
  316POPC   C3A 4280   8.848   8.282   6.549  0.0953 -0.0310 -0.1089
  316POPC   C4A 4281   8.505   8.478   6.870  0.1486 -0.2315 -0.1456
  316POPC   C1B 4282   8.798   7.950   5.793  0.0062  0.0473 -0.0247
  316POPC   C2B 4283   8.513   8.159   6.123 -0.0220  0.0350 -0.2207
  316POPC   C3B 4284   8.281   8.286   6.424 -0.1178  0.2354  0.0199
  316POPC   C4B 4285   7.910   8.500   6.659  0.0254 -0.1586 -0.2287
  317POPC   NC3 4286   7.698   7.855   5.037  0.3627 -0.3406 -0.0175
  317POPC   PO4 4287   8.085   7.693   5.217  0.1635  0.0229  0.0308
  317POPC   GL1 4288   7.929   7.646   5.638 -0.0109 -0.1169  0.1663
  317POPC   GL2 4289   7.950   7.895   5.703 -0.0160 -0.0063 -0.1723
  317POPC   C1A 4290   7.674   7.585   6.077 -0.0435  0.0555 -0.1450
  317POPC   D2A 4291   7.371   7.730   6.369  0.0155  0.1878  0.1336
  317POPC   C3A 4292   7.422   7.693   6.755  0.0514  0.3910 -0.0351
  317POPC   C4A 4293   7.487   7.427   7.081 -0.2193 -0.0994  0.0033
  317POPC   C1B 4294   7.985   7.991   6.044  0.0943 -0.2974 -0.1921
  317POPC   C2B 4295   7.824   7.929   6.511 -0.2778  0.1588 -0.0116
  317POPC   C3B 4296   7.902   7.605   6.868  0.2919  0.1000  0.2144
  317POPC   C4B 4297   7.884   7.537   7.335 -0.2055  0.1110  0.2236
  318POPC   NC3 4298   3.963   7.666   5.032 -0.1362 -0.0404 -0.0017
  318POPC   PO4 4299   3.457   7.605   4.973 -0.1254  0.0072 -0.2279
  318POPC   GL1 4300   3.358   7.219   5.287 -0.0257  0.1075 -0.1000
  318POPC   GL2 4301   3.291   7.287   5.580 -0.1637  0.2858 -0.2531
  318POPC   C1A 4302   3.633   6.974   5.634  0.1428 -0.0629 -0.0511
  318POPC   D2A 4303   3.694   6.579   5.933  0.0174  0.0943  0.1823
  318POPC   C3A 4304   3.497   6.455   6.268 -0.0356 -0.1923 -0.2700
  318POPC   C4A 4305   3.384   6.734   6.610 -0.1550  0.2643 -0.0337
  318POPC   C1B 4306   3.132   7.608   5.947  0.1997  0.0456  0.0875
  318POPC   C2B 4307   2.934   7.818   6.244 -0.3023 -0.0835 -0.0271
  318POPC   C3B 4308   2.477   7.952   6.292  0.1641 -0.1194  0.1157
  318POPC   C4B 4309   2.097   7.979   6.523 -0.2165  0.0417  0.0549
  319POPC   NC3 4310   9.629   9.464   3.832 -0.0459  0.1053 -0.3090
  319POPC   PO4 4311   9.185   9.321   4.188  0.3114  0.0838  0.1927
  319POPC   GL1 4312   9.295   9.318   4.575 -0.1854 -0.1820 -0.0285
  319POPC   GL2 4313   9.093   9.238   4.847 -0.1120  0.0860 -0.2394
  319POPC   C1A 4314   9.485   9.615   4.751 -0.1099  0.2644  0.0427
  319POPC   D2A 4315   9.545   9.782   5.105 -0.0767 -0.0053 -0.1653
  319POPC   C3A 4316   9.209  10.079   5.224 -0.0269  0.3828 -0.1370
  319POPC   C4A 4317   8.821  10.184   5.383 -0.0256 -0.3052 -0.1334
  319POPC   C1B 4318   9.332   9.219   5.279 -0.0079 -0.2077  0.3931
  319POPC   C2B 4319   9.515   9.359   5.508 -0.2708  0.0612  0.1621
  319POPC   C3B 4320   9.481   9.766   5.598 -0.3136 -0.2111  0.0118
  319POPC   C4B 4321   9.554  10.114   5.890 -0.0409  0.0703  0.0607
  320POPC   NC3 4322   4.645   6.491   4.579 -0.0099 -0.2833 -0.1859
  320POPC   PO4 4323   5.027   6.798   4.458  0.1377  0.1499  0.0780
  320POPC   GL1 4324   4.901   6.878   4.901 -0.0388 -0.0710 -0.2707
  320POPC   GL2 4325   4.630   6.958   5.111  0.1771 -0.1752  0.0607
  320POPC   C1A 4326   4.948   6.582   5.226 -0.0887  0.1677 -0.1243
  320POPC   D2A 4327   5.008   6.249   5.612 -0.3297  0.0224  0.1428
  320POPC   C3A 4328   5.063   6.390   6.005  0.0553 -0.1830 -0.0909
  320POPC   C4A 4329   5.364   6.503   6.276  0.0185  0.0833 -0.2239
  320POPC   C1B 4330   4.589   6.731   5.524 -0.0706  0.3353  0.2653
  320POPC   C2B 4331   4.624   6.430   5.909  0.3538 -0.1797  0.1843
  320POPC   C3B 4332   4.557   6.281   6.359  0.2238  0.1627  0.0195
  320POPC   C4B 4333   4.277   6.079   6.625  0.1654  0.0472  0.0409
  321POPC   NC3 4334   0.400   7.002   5.397 -0.0881  0.0532 -0.0860
  321POPC   PO4 4335   0.288   7.399   5.214  0.1539 -0.4743  0.0744
  321POPC   GL1 4336   0.260   7.518   5.636  0.1491 -0.2636 -0.0647
  321POPC   GL2 4337   0.241   7.252   5.886 -0.0691  0.0769  0.0045
  321POPC   C1A 4338   0.337   7.847   5.948 -0.0337 -0.1049  0.4215
  321POPC   D2A 4339   0.080   8.069   6.124 -0.1493  0.3334 -0.2248
  321POPC   C3A 4340   0.002   8.242   6.510  0.2895 -0.1215  0.0448
  321POPC   C4A 4341  -0.281   8.462   6.824 -0.1286  0.4602 -0.1528
  321POPC   C1B 4342   0.282   7.446   6.264  0.2852 -0.0927 -0.1556
  321POPC   C2B 4343   0.151   7.740   6.530 -0.0733  0.0088 -0.0540
  321POPC   C3B 4344  -0.143   7.743   6.769 -0.1589  0.3901 -0.1502
  321POPC   C4B 4345  -0.361   7.532   7.042  0.0018 -0.0309 -0.0327
  322POPC   NC3 4346   4.798   7.755   4.946 -0.1387 -0.0169  0.0868
  322POPC   PO4 4347   4.461   8.100   4.861  0.1727  0.6974 -0.1421
  322POPC   GL1 4348   4.377   7.983   5.245 -0.1331  0.3304  0.0727
  322POPC   GL2 4349   4.052   8.179   5.295  0.3856  0.1959 -0.0915
  322POPC   C1A 4350   4.240   7.706   5.598 -0.0395 -0.0527 -0.3272
  322POPC   D2A 4351   4.358   7.463   5.937  0.0032  0.0133 -0.3177
  322POPC   C3A 4352   4.538   7.640   6.329  0.0690 -0.2576  0.3344
  322POPC   C4A 4353   4.332   7.834   6.718 -0.1037  0.1478  0.0388
  322POPC   C1B 4354   4.064   8.146   5.813  0.5085 -0.3551  0.0848
  322POPC   C2B 4355   4.300   8.025   6.108  0.2608  0.0866  0.3974
  322POPC   C3B 4356   4.621   8.135   6.407 -0.0695 -0.0015  0.0809
  322POPC   C4B 4357   4.730   8.560   6.638 -0.3043  0.0296  0.2288
  323POPC   NC3 4358   8.426   6.577   5.602  0.1498 -0.0941  0.0498
  323POPC   PO4 4359   8.534   6.142   5.510  0.1065  0.0346  0.0679
  323POPC   GL1 4360   8.539   6.167   5.919 -0.0217 -0.0227 -0.2490
  323POPC   GL2 4361   8.322   6.264   6.019  0.2826 -0.1171 -0.1575
  323POPC   C1A 4362   8.709   5.884   6.230 -0.1703 -0.2252  0.2333
  323POPC   D2A 4363   8.556   5.619   6.597  0.2171  0.0966 -0.0543
  323POPC   C3A 4364   8.781   5.504   6.925  0.1387  0.0515  0.0091
  323POPC   C4A 4365   9.236   5.427   6.926 -0.0726 -0.4403  0.0911
  323POPC   C1B 4366   8.251   6.721   6.224  0.0676 -0.4973 -0.1150
  323POPC   C2B 4367   7.825   7.084   6.189 -0.0983  0.0094 -0.0863
  323POPC   C3B 4368   7.524   7.252   6.385 -0.0656 -0.0919 -0.1419
  323POPC   C4B 4369   7.333   7.172   6.600  0.0298  0.3935 -0.1507
  324POPC   NC3 4370   8.313   9.026   4.108  0.1679 -0.3261  0.1046
  324POPC   PO4 4371   8.485   8.686   4.200 -0.0974 -0.3595  0.0878
  324POPC   GL1 4372   8.312   8.937   4.631  0.2135  0.1610 -0.0594
  324POPC   GL2 4373   8.119   8.673   4.872  0.4077 -0.2471  0.0369
  324POPC   C1A 4374   8.505   9.002   5.047  0.1543 -0.3115 -0.0872
  324POPC   D2A 4375   8.872   8.750   5.190 -0.0217 -0.0589  0.1139
  324POPC   C3A 4376   8.860   8.866   5.649 -0.1015  0.1879  0.3852
  324POPC   C4A 4377   8.928   9.103   6.059 -0.0471 -0.0624 -0.1043
  324POPC   C1B 4378   7.959   8.936   5.265 -0.1831  0.1524 -0.1410
  324POPC   C2B 4379   7.656   9.220   5.350 -0.1966  0.1545  0.0857
  324POPC   C3B 4380   7.339   9.496   5.515  0.0428 -0.3475  0.6217
  324POPC   C4B 4381   7.281   9.769   6.006  0.3091 -0.0937  0.4284
  325POPC   NC3 4382   4.905   4.750   4.662 -0.0658  0.1484 -0.2283
  325POPC   PO4 4383   5.237   4.607   4.851  0.0976  0.0193 -0.1319
  325POPC   GL1 4384   5.022   4.709   5.212  0.2830  0.0508  0.1175
  325POPC   GL2 4385   4.670   4.517   5.286 -0.1055  0.0453  0.0654
  325POPC   C1A 4386   4.925   4.689   5.783 -0.2883  0.0903 -0.1316
  325POPC   D2A 4387   5.213   4.638   6.128  0.0815 -0.0114 -0.1043
  325POPC   C3A 4388   5.567   4.692   6.111  0.0986  0.2104 -0.1920
  325POPC   C4A 4389   5.896   4.633   5.819  0.1422 -0.0550  0.2231
  325POPC   C1B 4390   4.941   4.282   5.542  0.0168  0.1493 -0.1925
  325POPC   C2B 4391   5.075   4.205   6.034  0.0106  0.0073  0.2987
  325POPC   C3B 4392   4.968   4.349   6.437 -0.2263  0.0671 -0.1964
  325POPC   C4B 4393   4.856   4.655   6.697  0.0667 -0.0963  0.0647
  326POPC   NC3 4394   3.407   4.373   4.769  0.0455 -0.0098  0.1060
  326POPC   PO4 4395   3.054   4.114   5.030  0.2231  0.1616  0.0236
  326POPC   GL1 4396   2.948   4.085   5.476 -0.1740  0.1272 -0.2993
  326POPC   GL2 4397   2.647   4.062   5.457  0.0583  0.1058  0.6923
  326POPC   C1A 4398   3.232   3.999   5.835  0.0662  0.3186 -0.2614
  326POPC   D2A 4399   3.132   3.838   6.138  0.0717  0.0492  0.1373
  326POPC   C3A 4400   2.711   3.939   6.327 -0.2176  0.1442 -0.2482
  326POPC   C4A 4401   2.667   4.019   6.828 -0.1766 -0.2086 -0.0463
  326POPC   C1B 4402   2.512   4.011   5.841 -0.2408 -0.2069 -0.1787
  326POPC   C2B 4403   2.287   3.773   6.053  0.0469  0.0105 -0.5417
  326POPC   C3B 4404   1.980   3.642   6.372  0.1089 -0.2376  0.0196
  326POPC   C4B 4405   1.805   3.245   6.242  0.1312 -0.2291  0.2321
  327POPC   NC3 4406   4.739   7.381   4.690 -0.1813  0.2202  0.1509
  327POPC   PO4 4407   4.420   7.444   5.071  0.1490 -0.0479 -0.1109
  327POPC   GL1 4408   4.726   7.489   5.433 -0.1693 -0.0758  0.0971
  327POPC   GL2 4409   4.694   7.219   5.661  0.0096 -0.4299 -0.1809
  327POPC   C1A 4410   4.772   7.749   5.778 -0.1842  0.0188  0.2122
  327POPC   D2A 4411   5.039   8.054   6.024 -0.0376 -0.1935  0.4378
  327POPC   C3A 4412   4.855   8.488   6.029 -0.1525 -0.0492  0.0275
  327POPC   C4A 4413   4.917   8.979   6.043  0.1814 -0.0002  0.0979
  327POPC   C1B 4414   4.917   7.006   6.053  0.0089  0.0333  0.2356
  327POPC   C2B 4415   4.905   6.742   6.420  0.2585 -0.2164 -0.2931
  327POPC   C3B 4416   5.213   6.717   6.765 -0.0939 -0.2791 -0.0278
  327POPC   C4B 4417   5.540   6.968   6.920 -0.1077  0.3609 -0.1720
  328POPC   NC3 4418   8.051   6.710   4.829  0.2293  0.1206 -0.2883
  328POPC   PO4 4419   7.633   6.510   4.935 -0.4961  0.1948 -0.1199
  328POPC   GL1 4420   7.606   6.537   5.327 -0.1580  0.0914  0.0635
  328POPC   GL2 4421   7.448   6.913   5.440 -0.5651 -0.0254  0.2996
  328POPC   C1A 4422   7.446   6.455   5.738  0.4102  0.1873 -0.2163
  328POPC   D2A 4423   7.518   6.341   6.171 -0.0447 -0.1044  0.0899
  328POPC   C3A 4424   7.822   6.520   6.351  0.0891 -0.1878 -0.3791
  328POPC   C4A 4425   8.101   6.581   6.688 -0.1271  0.1190 -0.0104
  328POPC   C1B 4426   7.411   7.000   5.876  0.1088 -0.1940  0.2133
  328POPC   C2B 4427   7.155   6.792   6.297 -0.2146  0.0472 -0.3091
  328POPC   C3B 4428   6.867   7.004   6.548  0.0603  0.0005 -0.4811
  328POPC   C4B 4429   6.364   6.893   6.760 -0.3159  0.2296 -0.2172
  329POPC   NC3 4430   8.488   1.875   3.854 -0.2488  0.2353 -0.0658
  329POPC   PO4 4431   8.819   2.087   4.126  0.3902 -0.1811 -0.2476
  329POPC   GL1 4432   9.033   1.721   4.325 -0.1716 -0.0856 -0.2708
  329POPC   GL2 4433   8.997   1.911   4.644  0.0492 -0.1645 -0.0147
  329POPC   C1A 4434   8.930   1.379   4.503  0.1473 -0.1726 -0.0810
  329POPC   D2A 4435   8.682   1.080   4.705 -0.2625 -0.3976  0.0191
  329POPC   C3A 4436   8.434   1.262   5.008 -0.0472 -0.1108  0.0844
  329POPC   C4A 4437   8.136   1.275   5.222  0.1820  0.0172  0.2839
  329POPC   C1B 4438   9.264   1.695   4.843 -0.0600  0.1831  0.0285
  329POPC   C2B 4439   9.397   1.501   5.183 -0.0268  0.0311 -0.0163
  329POPC   C3B 4440   9.676   1.686   5.466  0.1534  0.1005  0.1393
  329POPC   C4B 4441  10.024   2.043   5.560  0.1913  0.0694  0.1241
  330POPC   NC3 4442   5.369   7.990   4.585  0.2590 -0.3166  0.2966
  330POPC   PO4 4443   5.376   8.126   5.019 -0.1967  0.0044 -0.1735
  330POPC   GL1 4444   5.426   8.305   5.364  0.2298 -0.1597 -0.2224
  330POPC   GL2 4445   5.496   8.717   5.452  0.0164 -0.1207 -0.1886
  330POPC   C1A 4446   5.477   8.275   5.817 -0.0596  0.3844  0.1264
  330POPC   D2A 4447   5.710   8.035   6.134 -0.1432 -0.2925  0.0781
  330POPC   C3A 4448   5.575   8.038   6.548 -0.0551 -0.1801 -0.0479
  330POPC   C4A 4449   5.505   8.394   6.906 -0.2063 -0.0370 -0.0185
  330POPC   C1B 4450   5.270   8.685   5.873  0.2080 -0.0578  0.4709
  330POPC   C2B 4451   5.296   8.393   6.269  0.2617 -0.1552 -0.2459
  330POPC   C3B 4452   5.144   8.221   6.592 -0.0318  0.0041 -0.0623
  330POPC   C4B 4453   4.822   7.929   6.813 -0.0465 -0.2471 -0.1199
  331POPC   NC3 4454   7.665   3.791   5.177 -0.0586  0.2505  0.0463
  331POPC   PO4 4455   8.064   4.011   5.259  0.1632  0.3735  0.1504
  331POPC   GL1 4456   8.400   3.836   5.444 -0.0559 -0.0676  0.2298
  331POPC   GL2 4457   8.616   4.016   5.649  0.2227  0.1006  0.0391
  331POPC   C1A 4458   8.518   3.585   5.844  0.0717  0.1639  0.1551
  331POPC   D2A 4459   8.633   3.247   6.165 -0.3680 -0.2566 -0.0277
  331POPC   C3A 4460   8.410   3.084   6.414  0.0904 -0.1441 -0.0261
  331POPC   C4A 4461   8.435   3.031   6.871 -0.0316  0.0727 -0.0924
  331POPC   C1B 4462   8.671   4.284   6.113 -0.1938  0.2973 -0.2055
  331POPC   C2B 4463   8.745   4.395   6.553  0.2256  0.0647 -0.1666
  331POPC   C3B 4464   8.461   4.479   6.900 -0.3765  0.1565 -0.0795
  331POPC   C4B 4465   8.193   4.513   7.229  0.4188 -0.0797 -0.2564
  332POPC   NC3 4466   5.748   0.343   4.463 -0.0159  0.3209 -0.2214
  332POPC   PO4 4467   5.452   0.138   4.832 -0.1741 -0.0362 -0.2854
  332POPC   GL1 4468   5.538   0.195   5.288  0.1520 -0.2149 -0.1241
  332POPC   GL2 4469   5.340   0.009   5.420  0.1524 -0.0891 -0.0509
  332POPC   C1A 4470   5.699   0.346   5.657 -0.0228 -0.0813  0.1785
  332POPC   D2A 4471   5.948   0.572   5.992  0.3109 -0.0181 -0.0683
  332POPC   C3A 4472   5.989   0.966   6.127  0.1373  0.3265  0.1951
  332POPC   C4A 4473   5.878   1.366   6.383  0.0417 -0.0343  0.0125
  332POPC   C1B 4474   5.181   0.451   5.578  0.1290  0.1369 -0.4232
  332POPC   C2B 4475   4.853   0.787   5.722  0.4613 -0.2486  0.0305
  332POPC   C3B 4476   4.596   1.056   6.028  0.2081 -0.1504 -0.1558
  332POPC   C4B 4477   4.426   1.395   6.283 -0.0826 -0.0853  0.0833
  333POPC   NC3 4478   6.973   8.273   5.088  0.3066 -0.2246  0.0589
  333POPC   PO4 4479   7.395   8.243   5.097  0.1296  0.1935  0.1136
  333POPC   GL1 4480   7.237   8.570   5.373 -0.1563  0.3204 -0.3280
  333POPC   GL2 4481   6.959   8.382   5.578 -0.0830 -0.0827 -0.2648
  333POPC   C1A 4482   7.206   8.986   5.562  0.2394 -0.1702 -0.0291
  333POPC   D2A 4483   7.044   9.309   5.867 -0.2336 -0.0703 -0.0881
  333POPC   C3A 4484   6.852   9.218   6.286 -0.2656 -0.1945  0.0734
  333POPC   C4A 4485   6.677   8.921   6.560 -0.0056 -0.0545 -0.0381
  333POPC   C1B 4486   7.227   8.610   5.881  0.1030 -0.0802 -0.0284
  333POPC   C2B 4487   7.232   8.938   6.167 -0.2157  0.0638  0.2413
  333POPC   C3B 4488   7.213   9.177   6.584  0.4109 -0.1762  0.0592
  333POPC   C4B 4489   7.222   9.609   6.868 -0.1449 -0.0283 -0.0749
  334POPC   NC3 4490   2.624   2.282   4.703 -0.0354  0.1105 -0.0021
  334POPC   PO4 4491   2.504   2.698   4.857  0.2907 -0.2693 -0.2897
  334POPC   GL1 4492   2.515   2.718   5.340  0.0683  0.0265  0.3675
  334POPC   GL2 4493   2.127   2.641   5.435  0.2168 -0.2520 -0.2250
  334POPC   C1A 4494   2.507   2.601   5.762  0.0043 -0.2710 -0.1623
  334POPC   D2A 4495   2.355   2.417   6.199 -0.0974  0.1205 -0.2357
  334POPC   C3A 4496   2.413   1.981   6.213 -0.1907 -0.2431 -0.2473
  334POPC   C4A 4497   2.550   1.685   6.493  0.0626  0.2207  0.0866
  334POPC   C1B 4498   1.835   2.427   5.788 -0.0340 -0.2319  0.0334
  334POPC   C2B 4499   1.831   2.372   6.198 -0.2532  0.1864 -0.0069
  334POPC   C3B 4500   1.950   2.264   6.490 -0.2919 -0.0210 -0.2787
  334POPC   C4B 4501   2.332   2.311   6.749  0.1035 -0.1119  0.1974
  335POPC   NC3 4502   7.430   5.490   5.255 -0.1139 -0.3787 -0.2494
  335POPC   PO4 4503   7.737   5.228   5.107 -0.0405 -0.2395  0.4384
  335POPC   GL1 4504   7.805   5.039   5.483  0.2178  0.0218  0.0294
  335POPC   GL2 4505   8.060   4.842   5.675 -0.3369  0.1620  0.3023
  335POPC   C1A 4506   7.667   5.089   5.876 -0.1498 -0.2248 -0.2437
  335POPC   D2A 4507   7.603   5.568   6.077  0.0001 -0.0143  0.0127
  335POPC   C3A 4508   7.612   5.643   6.491  0.4741  0.1249 -0.2273
  335POPC   C4A 4509   7.828   5.695   6.860 -0.0040  0.3439  0.0836
  335POPC   C1B 4510   8.143   5.068   6.078  0.0720 -0.1952 -0.1451
  335POPC   C2B 4511   7.852   5.198   6.396  0.1771 -0.0542  0.0156
  335POPC   C3B 4512   7.704   5.189   6.865  0.2334  0.2932  0.0024
  335POPC   C4B 4513   7.323   5.303   7.059  0.2925  0.1183  0.0768
  336POPC   NC3 4514   2.198   7.382   5.275 -0.0871 -0.0121  0.1956
  336POPC   PO4 4515   1.771   7.349   5.156  0.0856 -0.4663  0.0942
  336POPC   GL1 4516   1.776   7.652   5.537 -0.0470  0.1869  0.1756
  336POPC   GL2 4517   2.055   7.449   5.751 -0.2243  0.1337 -0.0815
  336POPC   C1A 4518   1.539   7.396   5.883 -0.0735 -0.2343 -0.1086
  336POPC   D2A 4519   1.555   7.242   6.393 -0.2798  0.3302 -0.0197
  336POPC   C3A 4520   1.797   7.413   6.742  0.0972  0.3161  0.2399
  336POPC   C4A 4521   2.067   7.530   7.110 -0.0870  0.3102 -0.2100
  336POPC   C1B 4522   2.019   7.176   6.057  0.0295 -0.0446  0.1373
  336POPC   C2B 4523   1.902   6.917   6.485  0.0229 -0.1938 -0.0950
  336POPC   C3B 4524   1.659   6.562   6.753  0.0226 -0.2556  0.4524
  336POPC   C4B 4525   1.169   6.383   6.747  0.2178 -0.0598 -0.3967
  337POPC   NC3 4526   9.825   5.259   5.312  0.0957 -0.2141 -0.1458
  337POPC   PO4 4527   9.774   4.857   5.414 -0.1452  0.0117  0.0569
  337POPC   GL1 4528   9.718   4.460   5.596  0.3599 -0.1598  0.0562
  337POPC   GL2 4529   9.852   4.142   5.639  0.0583 -0.0533 -0.0005
  337POPC   C1A 4530   9.662   4.280   6.099 -0.1095  0.0371  0.0893
  337POPC   D2A 4531   9.736   4.517   6.344  0.1464 -0.3860 -0.0845
  337POPC   C3A 4532   9.708   4.502   6.822 -0.0129  0.0875  0.2320
  337POPC   C4A 4533   9.494   4.496   7.164  0.0349 -0.2439 -0.0590
  337POPC   C1B 4534   9.913   3.827   5.942  0.5486 -0.1019 -0.2414
  337POPC   C2B 4535  10.020   3.285   6.052  0.0867 -0.3082  0.1488
  337POPC   C3B 4536  10.231   2.877   6.031  0.1305 -0.2169 -0.0344
  337POPC   C4B 4537  10.285   2.491   5.971 -0.0128  0.2718 -0.1410
  338W        W 4538   4.906   9.614  11.392 -0.2781  0.0459  0.5090
  339W        W 4539   4.355   1.760  11.148 -0.0105  0.0198 -0.1826
  340W        W 4540   1.391   2.298  12.992  0.1715  0.1789  0.0211
  341W        W 4541   3.087   9.161   3.321 -0.0952  0.1140 -0.2219
  342W        W 4542   9.914   1.172  12.000  0.0959 -0.0727  0.2257
  343W        W 4543   5.142   8.198  11.548 -0.1477 -0.1318  0.2076
  344W        W 4544   9.271   1.868  12.973 -0.1667 -0.0464  0.0397
  345W        W 4545   5.168   0.789   3.835  0.2617  0.2217 -0.0079
  346W        W 4546   5.205   6.197  11.537 -0.2022  0.2123 -0.2171
  347W        W 4547   7.665   9.758  11.939  0.1924  0.1174 -0.1609
  348W        W 4548   3.755   7.648   4.508 -0.0581 -0.0026 -0.1273
  349W        W 4549   9.711   6.032   4.050 -0.0330 -0.3498  0.0788
  350W        W 4550   1.582   5.264  12.978 -0.1559  0.3249 -0.0148
  351W        W 4551   5.294   8.709  12.711 -0.2336 -0.1364 -0.0735
  352W        W 4552  10.169   8.618  12.199  0.1288  0.0065 -0.1236
  353W        W 4553   2.592   4.996   1.707 -0.0794  0.0570  0.0739
  354W        W 4554   5.384   0.624   9.485  0.3283 -0.0222 -0.1790
  355W        W 4555   1.101   2.028   2.034  0.4479  0.1343 -0.3429
  356W        W 4556   8.045   3.822   3.256  0.2211 -0.1569 -0.4358
  357W        W 4557   6.774   5.279   1.381 -0.3292 -0.0255 -0.2166
  358W        W 4558   4.340   2.494   3.897 -0.1508  0.1368 -0.1139
  359W        W 4559   1.509   1.428   2.804 -0.2276 -0.1074  0.2916
  360W        W 4560   8.004   8.523   3.963 -0.3033  0.0345 -0.1006
  361W        W 4561   3.053   3.755  11.330 -0.0856  0.1683 -0.1083
  362W        W 4562   5.946   5.986   8.629  0.0960 -0.0755  0.3262
  363W        W 4563   7.829   4.190  12.284 -0.0201 -0.3400  0.1022
  364W        W 4564   3.825   6.966   1.628 -0.2958  0.0566 -0.1774
  365W        W 4565   8.008   0.177  10.222  0.3044 -0.1034 -0.1543
  366W        W 4566   1.219   4.101  12.279 -0.1681 -0.1654  0.1486
  367W        W 4567   8.782   5.468  13.119  0.0795  0.0074 -0.0480
  368W        W 4568   7.999   8.687   9.730 -0.2181  0.3778  0.0320
  369W        W 4569   2.491   1.880  12.141  0.1683  0.0248 -0.0655
  370W        W 4570   1.721   0.902  11.038 -0.0155 -0.1588 -0.0536
  371W        W 4571   6.956   1.500   3.592  0.0094 -0.0034 -0.0711
  372W        W 4572   6.307  10.137  10.653 -0.1963 -0.0209  0.0571
  373W        W 4573   3.644   8.845   3.391  0.0165  0.1850 -0.0681
  374W        W 4574   3.099   9.589   8.844 -0.0983  0.1248  0.0247
  375W        W 4575   0.015   2.799   3.379 -0.4709  0.1414  0.3260
  376W        W 4576   6.811   1.758  10.149 -0.0185  0.0999 -0.0650
  377W        W 4577   5.317   6.107   9.342  0.2736 -0.1917 -0.0659
  378W        W 4578   8.715   8.109   0.271 -0.1233  0.0217 -0.0021
  379W        W 4579   5.423   0.906  10.355  0.1209  0.3170  0.0695
  380W        W 4580   3.081   2.141   3.287 -0.0395 -0.1325  0.0607
  381W        W 4581   4.760   5.768   2.878  0.1889 -0.0439 -0.1814
  382W        W 4582   3.468   3.969  10.551  0.1681  0.1461 -0.0192
  383W        W 4583  10.326   2.391  11.248  0.0440  0.0617 -0.0442
  384W        W 4584   1.188   9.677   2.309 -0.0557  0.1203  0.0369
  385W        W 4585   2.144   2.386   0.677 -0.1759  0.0733  0.3800
  386W        W 4586   4.437   4.114   9.659 -0.0144  0.3512 -0.2591
  387W        W 4587   0.590   2.776   3.565 -0.0601  0.1916  0.1739
  388W        W 4588  10.307   3.578   3.395  0.0342 -0.3527  0.1975
  389W        W 4589   2.723   9.700   3.944  0.1696 -0.0433  0.0428
  390W        W 4590   0.194   4.803  11.875  0.1664 -0.1080  0.0430
  391W        W 4591   1.697   2.269  10.522  0.2963 -0.1261  0.1310
  392W        W 4592   3.639   6.598   0.076  0.2487  0.0231  0.0100
  393W        W 4593   2.882   3.898   1.784  0.0599 -0.0662 -0.1746
  394W        W 4594   0.927   4.707  11.466  0.1177 -0.0839 -0.1088
  395W        W 4595   8.274   2.631  11.579  0.2261 -0.0983 -0.0552
  396W        W 4596   3.693   8.658   2.641  0.0907  0.0377  0.0047
  397W        W 4597   0.438   7.484   1.024  0.0208  0.1313 -0.2144
  398W        W 4598   1.812   5.931  12.260 -0.0243  0.0790 -0.0512
  399W        W 4599   8.641   0.286  12.982  0.0361  0.0358 -0.0222
  400W        W 4600   3.887   6.291   0.582 -0.0891 -0.0320 -0.0075
  401W        W 4601   7.663   9.701  13.379  0.0318  0.1930 -0.0969
  402W        W 4602   1.364   6.569   9.037 -0.0774 -0.2748  0.1299
  403W        W 4603   9.129   4.558  12.135 -0.0850 -0.1632  0.1290
  404W        W 4604  10.068   3.593   1.145  0.0831 -0.1339 -0.2429
  405W        W 4605  10.341   3.217   0.340  0.2216  0.1863 -0.0616
  406W        W 4606   7.450   7.453  13.144 -0.2937 -0.2342  0.2320
  407W        W 4607   4.878   1.184  11.160 -0.1927  0.1570  0.4063
  408W        W 4608   7.447   1.456   2.715  0.0465 -0.2522 -0.2682
  409W        W 4609   9.316   4.877  13.211  0.0164  0.1056 -0.0007
  410W        W 4610   2.208   2.033  10.858 -0.3163  0.0681 -0.0411
  411W        W 4611   8.957   8.011  10.262  0.1324 -0.0683 -0.1566
  412W        W 4612   4.979   1.952   9.038  0.1976 -0.0231 -0.0768
  413W        W 4613   2.728   9.759   2.127  0.0747  0.0054 -0.2704
  414W        W 4614  10.425   0.148   3.777  0.2478 -0.2285  0.0254
  415W        W 4615   6.951   5.901   2.874  0.0022 -0.4613  0.1649
  416W        W 4616   9.945  10.287   2.368 -0.0921 -0.2555  0.0657
  417W        W 4617   2.520   8.300  10.278  0.0229 -0.1162  0.4460
  418W        W 4618   4.151   2.246   9.253 -0.0355 -0.0669 -0.5002
  419W        W 4619   0.347   3.025  12.666 -0.1686  0.1440 -0.0051
  420W        W 4620   3.118   2.433   8.636  0.1594 -0.0612 -0.2007
  421W        W 4621   7.450   0.833  12.244  0.1361  0.2657  0.2481
  422W        W 4622   5.850   8.224  12.188 -0.0806 -0.1030 -0.0528
  423W        W 4623   5.962   6.434   0.208 -0.1801 -0.0634 -0.1560
  424W        W 4624   0.221   5.394   2.505 -0.1813  0.1968  0.0138
  425W        W 4625   2.722   8.561   9.919  0.1291 -0.0011 -0.0093
  426W        W 4626   1.028   8.434  12.592 -0.1605  0.0208 -0.1225
  427W        W 4627   9.540   6.589   0.944 -0.2180  0.0264 -0.1943
  428W        W 4628   1.838   8.532  11.073 -0.3188 -0.2482  0.3403
  429W        W 4629   2.938   6.955  12.505 -0.3916  0.0634 -0.2127
  430W        W 4630   1.783   1.756  11.410  0.0727  0.1428 -0.2285
  431W        W 4631   8.296   5.054   3.642  0.1242  0.0083 -0.0599
  432W        W 4632   8.063   3.434  11.174  0.2423  0.1168 -0.0037
  433W        W 4633   0.360   6.204   9.202 -0.0427  0.1753  0.5301
  434W        W 4634   1.087   3.023   1.747  0.1874  0.1156 -0.1593
  435W        W 4635   2.421   9.122  11.705  0.2887  0.0600  0.1234
  436W        W 4636   4.586   4.870  11.309  0.1667 -0.2451 -0.2267
  437W        W 4637   4.456   6.246   9.113  0.2119  0.2804 -0.0265
  438W        W 4638   9.627   5.119   3.325 -0.1868  0.0233 -0.0582
  439W        W 4639   6.478   1.186   9.427 -0.3591  0.0922  0.0837
  440W        W 4640   3.692   8.441  10.938 -0.4501 -0.0448 -0.0591
  441W        W 4641   7.446   0.078   4.605  0.1931 -0.0339  0.0665
  442W        W 4642  10.382   5.088  12.201  0.3360  0.1676  0.0063
  443W        W 4643   0.716   6.909   1.148 -0.5624 -0.3282 -0.3571
  444W        W 4644   2.117   7.418  11.464  0.2115 -0.0156  0.2078
  445W        W 4645   2.300   4.125  11.078  0.2595 -0.0436  0.0526
  446W        W 4646   0.331   5.072   9.369 -0.1177  0.0233  0.0143
  447W        W 4647   6.127   5.725   3.513  0.1857  0.1960 -0.0233
  448W        W 4648   2.352   4.673  13.444 -0.1069 -0.2364  0.1514
  449W        W 4649   3.105  10.179  10.507  0.1324 -0.0291 -0.3817
  450W        W 4650   8.995   2.839   1.505 -0.2844 -0.1433  0.2317
  451W        W 4651   8.126   9.130  10.086  0.0084 -0.2183  0.1145
  452W        W 4652   1.708   2.492   0.363  0.0965 -0.1973 -0.3646
  453W        W 4653   3.023   7.634  10.808  0.1474 -0.2581  0.2308
  454W        W 4654   9.365   6.375  12.150  0.0416  0.1392 -0.2517
  455W        W 4655   4.526   1.451   0.057 -0.1016  0.0625 -0.0147
  456W        W 4656   1.074   6.592  13.329  0.0764 -0.0811 -0.0218
  457W        W 4657   7.726   3.532   1.348  0.3304  0.1982 -0.3594
  458W        W 4658   3.505   2.286   1.899  0.2192  0.2286  0.0251
  459W        W 4659  10.321   5.527   3.333  0.0107  0.1665 -0.0999
  460W        W 4660   1.462   9.189   3.913  0.4066 -0.0350  0.0504
  461W        W 4661   2.323   9.208   2.152 -0.2007 -0.1578 -0.0892
  462W        W 4662   1.091   5.084   0.006  0.1405 -0.3256  0.1266
  463W        W 4663   4.751   9.336   1.104 -0.0657 -0.1039  0.0257
  464W        W 4664   4.378   5.770   9.403 -0.3119 -0.0459 -0.1294
  465W        W 4665   2.603   9.372   3.382 -0.1098  0.1623  0.0148
  466W        W 4666   6.984   7.468   9.887  0.0867  0.0571  0.2504
  467W        W 4667   2.675   7.125   3.149  0.1545  0.1941  0.1140
  468W        W 4668   3.825   6.331   3.256  0.0216 -0.0824  0.0540
  469W        W 4669   9.265   6.144   0.313 -0.0408  0.0935 -0.2257
  470W        W 4670   1.402   6.315  10.416  0.0988  0.2669 -0.2067
  471W        W 4671   0.532   3.547   4.058 -0.0454 -0.0112 -0.0959
  472W        W 4672   2.170   2.647   0.197 -0.2307  0.0834  0.0418
  473W        W 4673  10.340   8.359   2.427  0.1375 -0.3714  0.0546
  474W        W 4674   8.765   6.339   4.181 -0.1828  0.0532  0.2438
  475W        W 4675   3.034   4.723   3.354  0.0011 -0.2422 -0.3373
  476W        W 4676   1.732   5.191   5.416 -0.1203 -0.0707 -0.0111
  477W        W 4677   2.862   6.926  11.552  0.0107 -0.0067 -0.1146
  478W        W 4678   6.946   7.415   9.148  0.3757 -0.0473 -0.2393
  479W        W 4679   3.192   0.476   2.148  0.1504 -0.0091  0.1187
  480W        W 4680   3.169   9.679   2.230 -0.0374  0.1065  0.2206
  481W        W 4681   1.427   3.792   0.042 -0.2545  0.1272  0.0773
  482W        W 4682   3.016   9.888   1.293 -0.1376 -0.0959  0.1868
  483W        W 4683   8.277   5.346  13.188 -0.2093 -0.0172  0.2454
  484W        W 4684   2.940   6.605   3.831 -0.1371  0.0875  0.1107
  485W        W 4685   9.326   7.445   9.855 -0.0081 -0.3091  0.2710
  486W        W 4686   4.047   1.139  10.557  0.1838 -0.2886 -0.2620
  487W        W 4687   3.389   4.794   4.031 -0.0339  0.1742 -0.2350
  488W        W 4688   7.693   4.313  10.029 -0.1215  0.0422 -0.2389
  489W        W 4689   4.732   0.919   8.695 -0.3056 -0.2819 -0.0461
  490W        W 4690   1.627   3.501   2.901  0.0091 -0.1022 -0.0686
  491W        W 4691   1.616  10.227  13.293  0.0524  0.1063  0.0519
  492W        W 4692   9.020   6.183  13.353  0.0778 -0.0848 -0.2045
  493W        W 4693   1.149   9.359   3.050  0.0144 -0.0810 -0.1610
  494W        W 4694  10.265   0.752   1.155  0.1508  0.2426 -0.3439
  495W        W 4695   6.281   3.773   5.340 -0.1110  0.3194 -0.4190
  496W        W 4696   1.595   0.151  10.399 -0.1336 -0.3465  0.4064
  497W        W 4697   1.301   4.688   3.015 -0.1921  0.0883  0.2236
  498W        W 4698   8.469   4.084   9.823 -0.0909 -0.3708  0.1141
  499W        W 4699   6.072   5.097   0.595 -0.0018 -0.3299 -0.1807
  500W        W 4700   5.185   3.142   0.458  0.3617  0.4019  0.0446
  501W        W 4701   2.777   5.778   9.981 -0.0313  0.3879  0.0840
  502W        W 4702   1.433   5.363  10.565 -0.0035  0.2502  0.0768
  503W        W 4703   6.010   2.621   9.429 -0.1862 -0.1385  0.1339
  504W        W 4704   7.748   8.628  13.086  0.0285 -0.1813  0.0288
  505W        W 4705   0.075   7.477  11.178  0.1420  0.4942 -0.2224
  506W        W 4706   6.796   3.707   4.030 -0.1487 -0.2375  0.0999
  507W        W 4707   2.689   3.682   2.885  0.1281 -0.1205  0.1649
  508W        W 4708   2.503   0.975  13.089 -0.1460 -0.2716  0.1126
  509W        W 4709   3.805   9.822  10.638  0.0457 -0.3588  0.0799
  510W        W 4710   4.261   5.496   1.288 -0.1110  0.2052 -0.0296
  511W        W 4711  10.245   4.449   3.884 -0.0738 -0.1643 -0.0529
  512W        W 4712   2.111  10.192  13.110  0.1227  0.1381  0.0984
  513W        W 4713   2.229   8.493   2.630  0.4014 -0.1641  0.2256
  514W        W 4714   8.700   4.304   4.215 -0.2019  0.1186  0.0508
  515W        W 4715   6.213   5.694  11.013  0.0228 -0.3631  0.1915
  516W        W 4716   6.081   1.770   3.395 -0.0332  0.3147 -0.0709
  517W        W 4717   7.313   6.717  10.872 -0.2250  0.3024 -0.2572
  518W        W 4718  10.224   7.108  12.263 -0.2336  0.3127 -0.0895
  519W        W 4719   2.886  10.199   0.829 -0.2034  0.1664 -0.1661
  520W        W 4720   8.342   1.505   0.509  0.1684  0.1638 -0.1714
  521W        W 4721   7.985   7.595   2.467  0.2161  0.0938  0.0762
  522W        W 4722   2.104   0.030   3.089  0.0674  0.2156 -0.0440
  523W        W 4723   1.239   8.905  13.269 -0.1060 -0.2146  0.0783
  524W        W 4724   2.548   9.661  10.746 -0.4745 -0.1861 -0.0507
  525W        W 4725   9.895   4.214   3.415 -0.1234 -0.2472 -0.0306
  526W        W 4726   0.906   7.076  13.440  0.0291 -0.6603 -0.4209
  527W        W 4727   7.419   4.529   0.416 -0.0179 -0.1151  0.5058
  528W        W 4728   4.188   6.811  11.836 -0.1357 -0.1792 -0.1063
  529W        W 4729   8.354   3.806   1.896  0.0437 -0.0794  0.0459
  530W        W 4730   7.663   4.687   9.688 -0.3968 -0.2256  0.1407
  531W        W 4731   9.742   7.047   1.782  0.1414  0.2638 -0.3200
  532W        W 4732   8.353   6.824  13.012  0.0733  0.1268  0.1181
  533W        W 4733   5.373   1.557  11.215  0.2292 -0.1842  0.0275
  534W        W 4734   0.161   2.607  10.888 -0.1806 -0.2005 -0.0763
  535W        W 4735   5.114   0.241   4.058  0.1786 -0.0519  0.2786
  536W        W 4736   9.628  10.190   4.023 -0.0306 -0.5280 -0.0095
  537W        W 4737   9.325   1.406  11.026  0.0245 -0.1536 -0.1302
  538W        W 4738  10.004   4.483   0.842  0.1008 -0.1486 -0.0164
  539W        W 4739   1.940   0.427   2.847 -0.1137 -0.2584 -0.0884
  540W        W 4740   7.683   3.158  13.493 -0.1340 -0.2310  0.1817
  541W        W 4741   8.085   6.326  13.313  0.0737 -0.2102  0.3498
  542W        W 4742   4.112   1.900   1.366 -0.1848 -0.2133 -0.1006
  543W        W 4743   3.650   9.327   3.267  0.0276  0.0886 -0.2639
  544W        W 4744   3.375   4.992   2.504  0.0368  0.0921  0.4703
  545W        W 4745   9.906   8.761   4.044 -0.0997 -0.3954 -0.0412
  546W        W 4746   1.417   9.100  11.842 -0.3860 -0.0809  0.0525
  547W        W 4747   6.604   3.287  11.019 -0.1416 -0.1417  0.1095
  548W        W 4748   2.546   1.257   0.949 -0.1855  0.1710  0.4846
  549W        W 4749   6.330   5.098   2.965  0.0811 -0.1376 -0.0632
  550W        W 4750   9.841   7.127   4.343  0.1619 -0.0477 -0.0374
  551W        W 4751   8.335   6.240  11.057 -0.1177  0.2485 -0.1196
  552W        W 4752   6.461   2.845   3.546 -0.0688  0.1391  0.1184
  553W        W 4753   8.075   2.420  10.649  0.0817  0.0418 -0.2023
  554W        W 4754   9.954   2.765   4.463  0.2227 -0.1139 -0.0066
  555W        W 4755   1.388   6.324  11.927  0.1366  0.1594  0.0211
  556W        W 4756   7.266   3.103   2.876  0.1065 -0.0402  0.0742
  557W        W 4757   0.919   7.671  10.573  0.2486  0.0530  0.4198
  558W        W 4758   3.601   4.478   3.736 -0.3481 -0.4840 -0.1287
  559W        W 4759   0.340   3.185  10.377  0.0227  0.2163  0.2318
  560W        W 4760   3.035   1.608   3.138 -0.0475 -0.0440 -0.0485
  561W        W 4761   7.368   0.076  12.788  0.0639 -0.1385 -0.1392
  562W        W 4762   8.458   4.532   0.523 -0.0890  0.0284 -0.0080
  563W        W 4763   5.410   9.073   1.504 -0.1568  0.2258 -0.0925
  564W        W 4764   8.178   1.219  11.683  0.1642  0.0921  0.2428
  565W        W 4765   4.548   5.671   3.339  0.3033 -0.0536 -0.0670
  566W        W 4766   6.548   6.983  11.825 -0.4576  0.2264  0.0254
  567W        W 4767  10.188   2.336   0.873 -0.2339  0.1690 -0.0927
  568W        W 4768   5.649   6.266   4.185 -0.0787  0.0821  0.1020
  569W        W 4769   8.716  10.037   1.155  0.2305  0.0803  0.1045
  570W        W 4770   8.877   9.927   0.680  0.1772 -0.0575  0.0540
  571W        W 4771   2.669   1.556  12.504  0.0623 -0.1638 -0.0719
  572W        W 4772   1.509   3.743   4.600 -0.2788 -0.3011  0.1475
  573W        W 4773  10.071   9.283   1.410 -0.1805 -0.1537 -0.1435
  574W        W 4774   5.830   6.987   1.518  0.1313 -0.0704  0.1249
  575W        W 4775   3.243   4.487   5.273 -0.2316 -0.1075  0.3468
  576W        W 4776  10.445   6.440  13.209 -0.0135 -0.1632  0.1387
  577W        W 4777   4.048   2.196   4.246  0.1180 -0.3142  0.3763
  578W        W 4778   5.268   7.307  11.427 -0.2258 -0.1406  0.0372
  579W        W 4779   2.174   8.713   1.677  0.0997  0.1721  0.0437
  580W        W 4780   5.916   2.289  11.765 -0.2160 -0.0608  0.0231
  581W        W 4781   6.903   1.405  12.718 -0.1055  0.0002  0.0003
  582W        W 4782   3.027   4.532   9.426  0.1544 -0.1612 -0.4001
  583W        W 4783   7.947   6.956   3.148 -0.3821 -0.0320  0.4127
  584W        W 4784   3.826   9.430  12.371  0.1750  0.3766  0.2308
  585W        W 4785   7.691   6.150   9.498  0.0422 -0.0727 -0.0740
  586W        W 4786   7.175   7.638  12.153 -0.2133 -0.0498  0.1064
  587W        W 4787   1.628   9.084   1.575  0.1992  0.1951  0.0790
  588W        W 4788   0.040   9.015  10.742 -0.1981 -0.0928  0.2607
  589W        W 4789   7.534   9.997   4.772 -0.1631  0.1726  0.1225
  590W        W 4790   1.798   6.181  12.735  0.2175 -0.2301 -0.0687
  591W        W 4791   5.996   6.224  10.208  0.0451 -0.2707 -0.1598
  592W        W 4792   7.475   0.084   2.005  0.3179  0.0575 -0.1573
  593W        W 4793   8.033   2.551   0.327 -0.3612  0.0565 -0.3603
  594W        W 4794   1.619   5.223   9.232  0.1262 -0.2484 -0.2335
  595W        W 4795   0.213   2.895  11.302 -0.0849 -0.3202 -0.2965
  596W        W 4796   5.095   5.162   1.027  0.0053 -0.0461 -0.0921
  597W        W 4797   0.221   0.588  10.381 -0.0194  0.4368  0.0660
  598W        W 4798  10.122   4.955   0.732 -0.4563 -0.1600 -0.1827
  599W        W 4799   4.640   1.441  12.184  0.1939 -0.1871  0.0432
  600W        W 4800   6.414   3.079  12.737 -0.1688  0.2006 -0.1544
  601W        W 4801   3.064   3.243  11.252  0.1497  0.0075  0.2197
  602W        W 4802   5.462   0.072   1.178 -0.1052 -0.2764 -0.0040
  603W        W 4803   8.318   3.875   0.559  0.2087 -0.0618  0.0456
  604W        W 4804   8.074   3.986   2.307 -0.3474 -0.0115  0.0589
  605W        W 4805   9.808   0.174   0.412  0.1812  0.3194 -0.2004
  606W        W 4806   4.689   7.085   9.086  0.4264 -0.0396  0.1547
  607W        W 4807   5.842   9.300   3.193 -0.0820 -0.1110 -0.2372
  608W        W 4808   4.958   0.571   9.741  0.0842 -0.0247 -0.1072
  609W        W 4809   3.769   2.213   2.695  0.1007 -0.1173  0.2909
  610W        W 4810   1.403   5.993   4.241  0.2741  0.1595 -0.4958
  611W        W 4811   2.112   7.992  13.395  0.0606 -0.1498  0.0083
  612W        W 4812   2.224   2.040   1.393  0.2781  0.0739 -0.0616
  613W        W 4813   8.624   6.430   3.646 -0.1767  0.2922  0.4186
  614W        W 4814   7.143   1.853   1.049  0.2315  0.1303 -0.2388
  615W        W 4815   3.325   9.123   3.837 -0.0045  0.2084  0.0430
  616W        W 4816   6.321   1.330   4.305  0.1924 -0.1293  0.4938
  617W        W 4817   4.292   6.020  13.403  0.2764  0.3296 -0.0705
  618W        W 4818   3.737   3.926   1.997  0.0435 -0.0919  0.1290
  619W        W 4819   5.461   5.203   5.280  0.1637  0.1277  0.0418
  620W        W 4820   7.455   3.419   1.791 -0.1811 -0.0521 -0.2424
  621W        W 4821   1.581   1.295  10.707  0.1335  0.1256  0.1718
  622W        W 4822   1.614   8.852  10.367 -0.0830  0.2414  0.1119
  623W        W 4823   7.122   1.206  12.217 -0.1667  0.0270 -0.0119
  624W        W 4824   4.070   1.363   3.150 -0.0077 -0.2035  0.1209
  625W        W 4825   9.612   9.063   1.677  0.3068  0.1919 -0.2033
  626W        W 4826   0.792   7.111  11.467 -0.0022 -0.1260  0.0860
  627W        W 4827   1.085   4.902   2.588 -0.0575  0.1873  0.1519
  628W        W 4828   9.906   1.856   0.653 -0.0601  0.1876  0.0967
  629W        W 4829   3.871   0.259  12.704 -0.0259  0.1691 -0.4318
  630W        W 4830   8.368   6.985   0.946 -0.1855  0.2337  0.0345
  631W        W 4831   0.448   6.819   2.473 -0.3364  0.3289  0.1303
  632W        W 4832  10.461   4.598  12.902  0.0079 -0.0715  0.1524
  633W        W 4833   9.326   1.507  11.542 -0.5064 -0.1231 -0.1419
  634W        W 4834   0.409   5.622  11.323  0.2431  0.0615  0.1866
  635W        W 4835   0.361   9.337   9.865 -0.0067 -0.1933  0.1319
  636W        W 4836   1.299   8.726   0.585 -0.0403  0.0856 -0.3263
  637W        W 4837   2.071   3.492   9.928 -0.0219 -0.0224 -0.1926
  638W        W 4838   0.034   1.154   0.304 -0.2141  0.3012  0.0696
  639W        W 4839   0.399   8.557   2.305 -0.2479 -0.0862  0.0605
  640W        W 4840   8.879   8.150  10.742  0.3395 -0.3128 -0.2688
  641W        W 4841   2.769   6.761   0.144  0.5069 -0.1138  0.1426
  642W        W 4842   4.421   4.243   4.042 -0.0878 -0.0649 -0.0737
  643W        W 4843   8.543   7.470  12.197  0.2828 -0.0555  0.0871
  644W        W 4844   2.740   5.916  11.661  0.2155  0.0199  0.3367
  645W        W 4845   9.131   9.710  13.346  0.0234  0.1437  0.0788
  646W        W 4846   7.935   9.591  10.213 -0.0005  0.2885  0.4683
  647W        W 4847   2.939   5.643   3.934  0.1479 -0.1169 -0.1493
  648W        W 4848   9.607   9.589   2.601  0.1255 -0.0172  0.1335
  649W        W 4849   9.581   7.926   0.722 -0.1949  0.2345 -0.1061
  650W        W 4850   6.520   1.192   1.110 -0.1045  0.1695  0.3020
  651W        W 4851   3.362   4.860  12.461 -0.2104 -0.0264 -0.3019
  652W        W 4852   8.930   0.807   0.165 -0.3763  0.0409  0.0468
  653W        W 4853   6.741   7.425  12.804  0.2890  0.0408  0.1180
  654W        W 4854   8.076   4.381   4.846  0.1640  0.1527  0.1409
  655W        W 4855   9.611   4.665  12.015 -0.2416  0.2915  0.0123
  656W        W 4856   0.732   6.829  12.428  0.1924  0.0388  0.0058
  657W        W 4857   8.494   2.475   1.643  0.0771 -0.0489 -0.1859
  658W        W 4858   2.201   4.345   5.535 -0.0254 -0.3080 -0.0367
  659W        W 4859   2.136   8.738   3.050 -0.0368  0.0999 -0.1734
  660W        W 4860   2.386   7.274   0.703 -0.0774  0.2158  0.1404
  661W        W 4861   3.814   1.693   9.213 -0.1760 -0.0646 -0.0660
  662W        W 4862   2.867   5.595   9.458  0.0708 -0.2168 -0.0342
  663W        W 4863   7.434   9.537   3.281  0.2650  0.3629 -0.1008
  664W        W 4864   7.396   6.559   4.489 -0.0810 -0.3061 -0.0173
  665W        W 4865   9.940   2.384  13.429  0.0750 -0.0195  0.2096
  666W        W 4866   3.289   6.055  12.471 -0.3836  0.1597  0.1432
  667W        W 4867   9.927   7.511   0.053  0.3510  0.1948  0.2553
  668W        W 4868   8.386   4.236   3.809 -0.0611 -0.0002 -0.0831
  669W        W 4869   5.495  10.135  11.999  0.1156 -0.1592 -0.2555
  670W        W 4870   3.140   6.678   8.771 -0.1282  0.0524 -0.1032
  671W        W 4871   1.659   2.765  10.472  0.0475  0.0899  0.3324
  672W        W 4872   1.377   6.783   0.251 -0.1527  0.1940 -0.3531
  673W        W 4873   5.195   1.273   8.157 -0.0239 -0.2120 -0.1348
  674W        W 4874   7.690   3.382  12.050  0.0433  0.0864  0.0606
  675W        W 4875   8.013   9.356   4.481  0.1351  0.0660  0.0228
  676W        W 4876   9.759   4.373   2.278  0.0165  0.0007  0.1496
  677W        W 4877   7.978   4.955  13.126  0.4886 -0.1385 -0.1952
  678W        W 4878   7.300   6.077   9.115 -0.1737 -0.1762 -0.1783
  679W        W 4879   1.923   6.546  11.677  0.0738 -0.1096  0.1282
  680W        W 4880   4.614   9.038  12.951  0.2398  0.0039  0.3234
  681W        W 4881   1.256  10.275   1.483 -0.1205 -0.0540  0.1036
  682W        W 4882   2.511   6.230   9.133  0.2242  0.1995  0.0362
  683W        W 4883   9.949   7.735   4.047  0.2566 -0.3964  0.2784
  684W        W 4884   4.775   9.153   1.575  0.0602 -0.0664  0.0506
  685W        W 4885   9.330   4.665   4.699  0.2378  0.0273  0.3582
  686W        W 4886   1.393   7.716  10.471  0.1057 -0.1096 -0.2327
  687W        W 4887   8.335   2.697  12.476 -0.1319  0.2046 -0.1681
  688W        W 4888   1.981   5.800   1.406 -0.0745  0.2604  0.2681
  689W        W 4889   2.976   0.186   2.871  0.1302 -0.0827  0.3084
  690W        W 4890   9.253   9.596   1.886 -0.1570 -0.0337  0.0170
  691W        W 4891   4.651   0.580   1.397 -0.2758  0.1591  0.2644
  692W        W 4892   9.639   9.059   1.196  0.1424  0.2010  0.1844
  693W        W 4893   5.735   9.743  11.771  0.0771  0.0799  0.1076
  694W        W 4894   1.299   6.029  12.428 -0.2692 -0.2091  0.3438
  695W        W 4895   4.641   2.371  13.440 -0.1814 -0.2215  0.1185
  696W        W 4896   3.624   8.611   5.246 -0.1110 -0.0938  0.1790
  697W        W 4897   7.256   1.714  12.450 -0.2505  0.2117 -0.0784
  698W        W 4898   1.974   6.852   5.319 -0.4385  0.0688 -0.1071
  699W        W 4899   3.369   6.851  11.592 -0.1049  0.1086 -0.0596
  700W        W 4900   4.464   9.931   9.990 -0.2990  0.1368 -0.0937
  701W        W 4901   0.050   9.887  11.753 -0.0343 -0.1672  0.4214
  702W        W 4902   1.603   8.731  11.446 -0.2094  0.1171  0.1433
  703W        W 4903   0.108   2.789  13.048  0.2293 -0.2559  0.2235
  704W        W 4904   6.514   1.276   2.207 -0.0950  0.2390  0.1395
  705W        W 4905   9.207   9.167  10.940 -0.0584  0.6069  0.3333
  706W        W 4906   6.807   4.933   2.303  0.0355  0.0526 -0.1437
  707W        W 4907   1.465   5.669  11.023  0.1728 -0.0671 -0.2026
  708W        W 4908  10.454   8.973   9.593 -0.1147 -0.1836 -0.0143
  709W        W 4909   4.416   3.450   1.601  0.0621 -0.4218 -0.1096
  710W        W 4910   8.153   0.993   1.629  0.0507 -0.3039 -0.1126
  711W        W 4911   2.477   5.157   8.723  0.0364 -0.0350  0.0487
  712W        W 4912   6.875   3.324  11.479  0.0780  0.1705  0.0231
  713W        W 4913   0.260   7.869  13.504 -0.0303 -0.0898  0.2150
  714W        W 4914   0.185   3.758   1.936 -0.0428 -0.3028 -0.0796
  715W        W 4915   1.593   3.669  10.121 -0.2839 -0.1189 -0.0177
  716W        W 4916   2.588   0.325   0.531  0.0581 -0.2291 -0.1852
  717W        W 4917   4.177   8.103   1.840  0.0014  0.4542 -0.3558
  718W        W 4918   9.841   3.605  11.498 -0.1351  0.2020 -0.0386
  719W        W 4919   0.931   6.211   4.303 -0.0832 -0.2323  0.1254
  720W        W 4920   1.925   7.671   1.686  0.2248  0.1337  0.0644
  721W        W 4921   6.259   9.923   1.673  0.0242 -0.1064 -0.0890
  722W        W 4922   9.830   6.692   1.333 -0.1148 -0.2702 -0.0039
  723W        W 4923   4.302   0.005  11.911 -0.0026  0.1752  0.1524
  724W        W 4924   5.059   3.697  11.104 -0.0104 -0.1600  0.2336
  725W        W 4925   1.811   9.004   2.096 -0.0894  0.0109  0.1191
  726W        W 4926   2.647   2.572  11.623  0.0527 -0.0845  0.1605
  727W        W 4927   9.044   4.378   3.540  0.0044  0.1106  0.1160
  728W        W 4928   4.390   0.452  11.688 -0.5240 -0.0332  0.0226
  729W        W 4929   2.767   4.838   9.850 -0.0162  0.0302 -0.3976
  730W        W 4930   0.240   4.315  11.436 -0.0625 -0.0194  0.0863
  731W        W 4931   7.806   2.394  12.086  0.3142  0.0140  0.1856
  732W        W 4932   8.954   3.886   3.388 -0.1782  0.6594 -0.0419
  733W        W 4933   8.140   0.216   3.147 -0.0674  0.1814  0.0628
  734W        W 4934   0.527   6.565   1.557 -0.0517  0.0525 -0.1127
  735W        W 4935   3.012   8.041   2.819  0.0169 -0.0096 -0.2813
  736W        W 4936   6.872   6.724   3.073 -0.0835 -0.0905  0.1707
  737W        W 4937   0.474   7.556  10.827 -0.1298  0.2063 -0.0663
  738W        W 4938  10.156   4.800   9.902 -0.1559 -0.0252 -0.0118
  739W        W 4939   8.678   9.415  10.823  0.3146 -0.0022  0.0891
  740W        W 4940   4.469   2.383  12.236  0.1772  0.1203  0.1966
  741W        W 4941   1.968   6.385   3.448 -0.1398 -0.2189 -0.0350
  742W        W 4942   9.743   6.659  13.374 -0.2202 -0.1733 -0.0758
  743W        W 4943   9.152   3.702  13.218  0.0202  0.1564  0.0884
  744W        W 4944   1.665   9.652   1.375  0.2324 -0.2945  0.1404
  745W        W 4945   7.919   9.413   2.136 -0.0711  0.1888  0.0532
  746W        W 4946   4.231   0.442  10.665  0.0056 -0.0631 -0.0059
  747W        W 4947   3.278   8.086  12.225 -0.0673  0.0694  0.1844
  748W        W 4948   9.856   9.978   2.808 -0.3244 -0.0284  0.0793
  749W        W 4949   2.589   2.322   0.912 -0.2406 -0.1764  0.1996
  750W        W 4950   3.706   4.814  12.845  0.1010  0.0033  0.0861
  751W        W 4951   0.299   4.669   3.188  0.1595  0.2100 -0.0960
  752W        W 4952   2.785   9.443  11.161 -0.2801 -0.0832  0.1613
  753W        W 4953   6.401   4.433  10.565 -0.0182  0.1966 -0.0506
  754W        W 4954   5.157   6.566   0.027  0.0818 -0.0546  0.0972
  755W        W 4955   7.204   6.580  13.073 -0.0076 -0.1467  0.1150
  756W        W 4956   0.121   5.515  10.910 -0.3160 -0.0226  0.3714
  757W        W 4957   1.027   3.588  10.257 -0.1107  0.0461  0.1169
  758W        W 4958   8.472   3.546   2.331  0.1593 -0.0882  0.0748
  759W        W 4959   6.204   4.987   3.968 -0.0191 -0.1067  0.2121
  760W        W 4960   5.832   7.242  13.213 -0.0895 -0.0207  0.2606
  761W        W 4961   1.498   7.288  12.325 -0.0254  0.1438  0.0060
  762W        W 4962   2.047   9.183  12.534  0.0011  0.3171  0.0615
  763W        W 4963   3.800   0.075  13.194  0.0158 -0.0473 -0.3132
  764W        W 4964   8.574   0.734   1.654 -0.0058 -0.2026 -0.0064
  765W        W 4965   4.889   8.524  11.897  0.1108 -0.1064 -0.0693
  766W        W 4966   1.778   7.277   0.383  0.1255  0.1428 -0.0171
  767W        W 4967  10.305   4.641  10.606  0.1841  0.3510  0.1389
  768W        W 4968   5.010   1.001  10.620 -0.0519  0.2638  0.1919
  769W        W 4969   6.187   1.471   1.401  0.3093  0.0249  0.0293
  770W        W 4970   5.423   5.489   4.229 -0.2348 -0.3046 -0.1968
  771W        W 4971   0.537   2.666   3.116  0.1547 -0.1408 -0.0231
  772W        W 4972   6.159   6.033   3.871 -0.1011  0.1129 -0.1623
  773W        W 4973   3.816   5.553   9.525  0.0036 -0.0935 -0.1805
  774W        W 4974   6.041   8.990   9.124 -0.1835 -0.0305  0.0085
  775W        W 4975   0.112   1.452  10.858 -0.1229  0.3248 -0.3145
  776W        W 4976   8.308   5.647   3.454 -0.2163 -0.1590  0.4576
  777W        W 4977   0.321   1.034  11.482  0.0296 -0.0653 -0.2699
  778W        W 4978  10.225   4.313   2.979 -0.2211  0.1574  0.0359
  779W        W 4979   5.852   4.470   1.809 -0.0091  0.2098 -0.0244
  780W        W 4980   7.790   8.768  12.215 -0.0403 -0.1804  0.0595
  781W        W 4981   3.821   0.230  10.959  0.0377  0.0504 -0.1477
  782W        W 4982   8.415   6.762   2.396 -0.0038 -0.1752 -0.0212
  783W        W 4983   1.044   1.215   3.302 -0.0252 -0.0653  0.1242
  784W        W 4984   5.253   3.012   1.578  0.0153 -0.3109 -0.1332
  785W        W 4985   3.276   1.002   1.889 -0.2047  0.0235  0.2349
  786W        W 4986   5.129   4.517   9.229  0.0306 -0.0535  0.1078
  787W        W 4987   6.097   9.332   0.588 -0.0593 -0.0068  0.2584
  788W        W 4988   8.044   4.598   3.833 -0.0923 -0.0238 -0.2092
  789W        W 4989   3.550   2.317  13.354 -0.1760  0.4089  0.0619
  790W        W 4990   3.627   0.800  12.787 -0.0242 -0.0151  0.1509
  791W        W 4991  10.280   4.157  12.089 -0.0369 -0.1631  0.1600
  792W        W 4992   0.848   3.469   4.591  0.0684  0.1877  0.1958
  793W        W 4993   2.712   7.784   8.739 -0.1175  0.0170  0.2286
  794W        W 4994   2.423  10.305   2.067 -0.0317  0.2216 -0.0338
  795W        W 4995   4.018   4.564   4.086  0.1206  0.1566 -0.1119
  796W        W 4996   0.604   3.033   1.713  0.1527  0.1383  0.0867
  797W        W 4997   3.803   2.649   1.729  0.1474 -0.0335 -0.0572
  798W        W 4998   2.876   0.363   9.812  0.1193  0.1665  0.0144
  799W        W 4999   1.049   3.367   5.526  0.1028  0.0815  0.2854
  800W        W 5000   9.021   5.993   9.363 -0.1375  0.3149  0.1573
  801W        W 5001   5.450   3.739  12.415 -0.2611 -0.0937 -0.0597
  802W        W 5002   3.886   3.941  10.346  0.0416  0.2647  0.0986
  803W        W 5003   4.675   4.490   9.471  0.0055  0.1669  0.0045
  804W        W 5004   5.740   5.645  11.185 -0.1052 -0.2392  0.1642
  805W        W 5005   9.551   2.399   0.743 -0.1789 -0.2721  0.1488
  806W        W 5006   1.795   9.671  11.663 -0.2891 -0.2462 -0.2728
  807W        W 5007   4.666   4.337   3.395  0.2240  0.0611  0.1058
  808W        W 5008   0.495   1.992  12.764 -0.1476  0.0313  0.0350
  809W        W 5009   7.907   5.529   3.708  0.0306  0.1454 -0.0344
  810W        W 5010   2.719   5.602   1.022 -0.0523 -0.1373  0.0278
  811W        W 5011   8.985   0.707  13.173 -0.1576  0.2078  0.0484
  812W        W 5012   4.132   6.351   9.644 -0.0090 -0.1383  0.0858
  813W        W 5013   6.354   6.191  12.041 -0.2148  0.1692 -0.0782
  814W        W 5014   8.206   0.983  10.611 -0.1004 -0.1963  0.2216
  815W        W 5015   5.665   2.539   4.045  0.4339  0.0949  0.1880
  816W        W 5016   5.080   7.935   0.865 -0.0425  0.2623 -0.2602
  817W        W 5017   7.747   4.262   1.543 -0.1534  0.1975 -0.0515
  818W        W 5018   6.140   5.278   2.004 -0.0944  0.2748  0.1143
  819W        W 5019   8.450   7.210   3.218 -0.0844  0.3667 -0.1203
  820W        W 5020   1.920   4.056   3.777  0.0043 -0.0149 -0.0177
  821W        W 5021   7.725   4.088   1.075  0.1131  0.1394 -0.2809
  822W        W 5022   4.864   6.858   9.582  0.2618 -0.2767 -0.0141
  823W        W 5023   7.783   4.004  10.565  0.1141  0.2657 -0.1370
  824W        W 5024   9.616   5.412   0.043  0.2078 -0.1443  0.0318
  825W        W 5025   4.850   0.127  12.684 -0.1567  0.2973  0.2745
  826W        W 5026   8.318   5.709  12.216  0.4035 -0.0216  0.0466
  827W        W 5027   5.117   0.827   2.434  0.2863  0.3051 -0.1355
  828W        W 5028   2.824   7.104  10.712 -0.1259 -0.0907  0.0054
  829W        W 5029   6.295   2.642   0.739  0.1325  0.0441 -0.0117
  830W        W 5030   6.650   4.932   3.680  0.1379  0.0747  0.0318
  831W        W 5031   9.412   2.299   2.034  0.2230 -0.1656  0.1514
  832W        W 5032   0.065   1.924   0.002 -0.0231  0.0797  0.1429
  833W        W 5033   6.425   5.661   2.158  0.1100  0.2156 -0.1239
  834W        W 5034   8.337   7.573   2.833 -0.0823  0.4003 -0.0649
  835W        W 5035   7.605   6.443   9.912 -0.2821  0.1255  0.1546
  836W        W 5036   2.072   6.899  11.344 -0.1086  0.1300 -0.1842
  837W        W 5037   0.119   5.946   9.546  0.2073 -0.0430  0.1841
  838W        W 5038   8.736   4.249  12.201 -0.3131 -0.3969 -0.1221
  839W        W 5039   9.848   4.629  10.355 -0.1951 -0.0823 -0.0952
  840W        W 5040   1.426   2.965   0.356  0.0173  0.2518  0.1010
  841W        W 5041   7.829   8.649   1.453 -0.0681  0.0889  0.0889
  842W        W 5042   1.855   2.104  13.034 -0.2480 -0.0740 -0.1141
  843W        W 5043   5.722   7.658  11.956 -0.0482  0.2410  0.0522
  844W        W 5044   9.223   2.672   9.576  0.1900 -0.0698  0.0983
  845W        W 5045   3.103   8.629   3.246 -0.2080  0.2221 -0.1110
  846W        W 5046   0.933   3.222   2.247  0.2199  0.2544  0.0015
  847W        W 5047   3.762   7.943  10.624  0.0146 -0.0482  0.0340
  848W        W 5048   1.769   9.809   1.883 -0.1054 -0.1342  0.3681
  849W        W 5049   6.865   1.608  11.919 -0.0812  0.0763 -0.1889
  850W        W 5050   4.712   5.156   0.098  0.1035 -0.1826  0.1390
  851W        W 5051   4.449   8.452   0.853  0.3021  0.2225 -0.0121
  852W        W 5052   7.045   8.553   4.043 -0.0333 -0.1543 -0.2208
  853W        W 5053   9.564   0.745  11.097  0.0376 -0.1009  0.1276
  854W        W 5054   6.747   6.442  12.949  0.0986  0.3363 -0.4071
  855W        W 5055   8.749   8.799   0.801  0.0184 -0.1861  0.1422
  856W        W 5056   0.874   2.961   0.249 -0.0532  0.1726  0.0154
  857W        W 5057   8.017   2.555   3.545 -0.6366  0.1561 -0.0948
  858W        W 5058   9.536   4.340  12.931 -0.1457 -0.1333  0.5189
  859W        W 5059  10.151   5.451   0.490 -0.3497  0.1087  0.1965
  860W        W 5060   3.239   1.895   1.400 -0.1946 -0.2869  0.0065
  861W        W 5061   8.606   9.203  11.825 -0.0052 -0.1898  0.1044
  862W        W 5062   2.071   9.007   9.094 -0.0474  0.0256 -0.1705
  863W        W 5063   4.807   8.734   1.289 -0.0698  0.0312  0.3100
  864W        W 5064   7.092   3.660   3.117  0.0574  0.0941 -0.2138
  865W        W 5065   0.043   4.109   9.772 -0.0524  0.0716 -0.0403
  866W        W 5066   2.300   4.871   4.735 -0.2061 -0.0139  0.2201
  867W        W 5067  10.290   1.488   1.911  0.0159  0.4240  0.1516
  868W        W 5068   1.153   9.748   0.425  0.2388  0.0035  0.2712
  869W        W 5069  10.198   6.722  10.635 -0.0527  0.3749  0.1053
  870W        W 5070   4.081   3.263   2.439 -0.4822  0.3866  0.2621
  871W        W 5071   9.580   9.216  10.568  0.1801 -0.2244 -0.0423
  872W        W 5072   9.886   3.108   1.161 -0.0515  0.1427 -0.0466
  873W        W 5073  10.440   4.155  12.572  0.0910 -0.0691  0.3656
  874W        W 5074   2.313   9.554  11.452  0.3235 -0.4936 -0.0151
  875W        W 5075   3.870   5.749   3.451 -0.0904 -0.1347  0.2534
  876W        W 5076   0.799   9.807   1.949  0.0593  0.2533  0.2363
  877W        W 5077   5.798   7.210   2.146 -0.1578  0.1208  0.0498
  878W        W 5078   7.900   3.593   9.197  0.3202 -0.1803 -0.0143
  879W        W 5079   4.975   1.365   9.967 -0.0640 -0.0460 -0.1589
  880W        W 5080   5.972   7.995  11.082  0.2069  0.0171 -0.1311
  881W        W 5081   5.436   3.707   4.352 -0.1793  0.0553  0.3373
  882W        W 5082   8.666   5.428   5.309  0.0969  0.1748  0.3657
  883W        W 5083   4.900   7.151   4.121 -0.1733  0.3480 -0.0343
  884W        W 5084   5.055   5.252   2.453 -0.1136 -0.0200 -0.2096
  885W        W 5085   6.089   2.103   5.111  0.0149 -0.2335 -0.3679
  886W        W 5086   9.814   2.269   2.851  0.0721 -0.1198  0.0185
  887W        W 5087   9.697   4.141   1.787 -0.1656  0.0422 -0.0941
  888W        W 5088   8.414   9.785   1.562 -0.1040  0.2719 -0.0204
  889W        W 5089   4.524   6.969   4.426  0.3421  0.0123 -0.0298
  890W        W 5090   3.703   2.262   1.434 -0.0310 -0.2578 -0.1785
  891W        W 5091   9.504   6.139   0.729  0.0299  0.0298  0.0864
  892W        W 5092   8.379   0.007   3.676 -0.2214  0.1407 -0.2429
  893W        W 5093   8.121   0.456   1.570  0.0702  0.0408 -0.1896
  894W        W 5094   2.743   6.480   1.075  0.1814 -0.0625 -0.1890
  895W        W 5095   0.534   8.228   8.742  0.0223  0.0001 -0.1363
  896W        W 5096   3.156   4.067  12.515 -0.3716  0.2834  0.1053
  897W        W 5097   8.921   1.797   3.310  0.5011 -0.2759  0.2634
  898W        W 5098   5.560   5.233   2.269 -0.0060  0.1699 -0.1606
  899W        W 5099   0.469   7.183  12.684  0.2177 -0.4138 -0.2053
  900W        W 5100   3.094   9.581   9.474 -0.2410  0.0299  0.2830
  901W        W 5101   0.762   7.298   0.692  0.1307  0.3154  0.3629
  902W        W 5102   4.055   8.801   9.173 -0.1793  0.1468 -0.0809
  903W        W 5103   7.590   2.722   2.736  0.0594  0.1199 -0.0995
  904W        W 5104   2.898   7.876  10.402 -0.0232  0.3266 -0.0770
  905W        W 5105   3.047   4.282  11.992 -0.0316 -0.1221 -0.3305
  906W        W 5106   7.128   0.109   3.043  0.0227  0.0005 -0.2190
  907W        W 5107   2.686   8.092   2.050  0.1619  0.2680  0.1037
  908W        W 5108   8.924   1.814   0.992  0.1132  0.0206  0.0813
  909W        W 5109   1.872   9.025  10.889  0.1653  0.2238  0.0606
  910W        W 5110   8.489   7.363  11.612  0.0590 -0.0687  0.0264
  911W        W 5111   6.292   6.245   1.718 -0.0555  0.5443  0.1983
  912W        W 5112   4.822   0.762  11.432  0.1464  0.2047  0.0381
  913W        W 5113   0.479   6.857   1.911  0.0568 -0.3319 -0.2730
  914W        W 5114   5.139   6.686  11.820  0.1532  0.0387  0.1669
  915W        W 5115   7.227   7.992  10.068  0.0632 -0.0690 -0.0815
  916W        W 5116   1.809   3.142  12.827  0.1606 -0.0424 -0.2708
  917W        W 5117   8.838   6.543   0.282 -0.1559 -0.1604  0.1149
  918W        W 5118   4.545   3.756  10.990 -0.0163  0.1167 -0.1582
  919W        W 5119   4.498   9.224  10.198 -0.1378 -0.0234  0.0830
  920W        W 5120   4.651   3.734  12.053  0.1347  0.0538  0.0360
  921W        W 5121   3.445   8.690   4.260  0.0524  0.0282 -0.2255
  922W        W 5122   0.767   1.677   3.378  0.0534 -0.2537  0.2253
  923W        W 5123   2.688   1.275   8.835  0.1579 -0.1347  0.1338
  924W        W 5124   6.368   6.498  11.675  0.3066 -0.0436 -0.1471
  925W        W 5125   4.063   7.437  11.386  0.2407 -0.0335  0.3356
  926W        W 5126   3.372   1.043   3.973 -0.2399  0.1006 -0.0561
  927W        W 5127   5.553   1.324  10.778  0.4276  0.0029  0.0595
  928W        W 5128   1.978   0.757   9.964 -0.2714  0.0818 -0.0511
  929W        W 5129   4.305   9.986   0.255  0.0257 -0.1461 -0.0856
  930W        W 5130  10.284   9.793   4.531  0.0970  0.0943 -0.2363
  931W        W 5131   4.686   9.715   0.621 -0.1351 -0.1368  0.3789
  932W        W 5132   6.184   7.732   0.489 -0.2206  0.0423  0.0396
  933W        W 5133  10.435   7.382  12.622  0.1044 -0.0465 -0.0116
  934W        W 5134   3.188   2.571  13.149  0.0964  0.2120  0.0999
  935W        W 5135   1.414   4.847   4.095 -0.1012 -0.1668 -0.0794
  936W        W 5136   9.045   5.583   9.701  0.1835  0.3727 -0.1121
  937W        W 5137   3.459   9.817   2.696  0.0176 -0.1561  0.1141
  938W        W 5138   5.478   2.139   0.965 -0.0749 -0.0442 -0.1428
  939W        W 5139  10.388   1.326  12.546 -0.3916  0.0711  0.2307
  940W        W 5140   0.735   3.096   2.838 -0.2930  0.4569  0.1935
  941W        W 5141   5.951   5.174  11.240 -0.3611  0.3748  0.5109
  942W        W 5142   0.248   2.460  12.559 -0.1590  0.1184  0.3259
  943W        W 5143   7.245   8.738   3.412  0.2260  0.2353 -0.1386
  944W        W 5144   4.211   9.443   4.185 -0.2622 -0.1174 -0.0038
  945W        W 5145   5.586   0.175   2.072 -0.0597  0.1481 -0.1308
  946W        W 5146   3.379   0.318  12.600 -0.5107  0.0149 -0.2294
  947W        W 5147   3.509   7.953   3.674  0.0879  0.1553  0.3047
  948W        W 5148   0.119   5.575  12.039 -0.1880  0.0301 -0.0484
  949W        W 5149   3.823  10.098   2.786  0.1047 -0.1052  0.4989
  950W        W 5150   2.813   2.351  12.902  0.2134 -0.2800 -0.2769
  951W        W 5151   5.366   6.219   1.765  0.1267  0.0728  0.0447
  952W        W 5152   5.506  10.207   9.144  0.1924  0.1601 -0.0583
  953W        W 5153   1.963   8.904   2.596  0.1669  0.2265 -0.2413
  954W        W 5154   1.222   6.068   1.952 -0.0463 -0.0028 -0.1506
  955W        W 5155   8.222   4.997  11.466  0.3836 -0.1064  0.3014
  956W        W 5156   6.258   9.442  11.594 -0.0471 -0.1228  0.4259
  957W        W 5157   4.001   0.027   2.302 -0.3108  0.3443 -0.3104
  958W        W 5158   6.277   9.581   2.977  0.0943  0.0277  0.1312
  959W        W 5159   5.668   5.439   0.385  0.0884  0.0963 -0.2336
  960W        W 5160   1.920   6.149   1.807 -0.0983 -0.0151 -0.1926
  961W        W 5161   3.780   5.242  11.955  0.3813  0.3486 -0.1269
  962W        W 5162   2.304   3.966   4.114 -0.0584  0.2231  0.1038
  963W        W 5163   4.273   7.793  12.538 -0.0076  0.2349  0.1411
  964W        W 5164   6.120   6.996  11.508 -0.1383 -0.0434  0.1419
  965W        W 5165   3.626   1.310   4.841 -0.1828  0.0905 -0.0179
  966W        W 5166   0.703   4.771  10.219  0.1212  0.0227 -0.0511
  967W        W 5167   5.227   9.865   1.837 -0.3466  0.0575  0.1305
  968W        W 5168   8.498   8.117   4.557  0.0984 -0.1651  0.3044
  969W        W 5169   6.526   9.335   9.666 -0.1802  0.3217 -0.2136
  970W        W 5170   8.448   7.331   4.119 -0.2149  0.1128  0.1876
  971W        W 5171   2.991   5.906  12.966  0.1134  0.0726 -0.1481
  972W        W 5172   9.590   2.684   0.332  0.0568 -0.0907 -0.1432
  973W        W 5173  10.371   2.271  10.561  0.2008 -0.2807  0.0180
  974W        W 5174   6.826   4.756  12.746 -0.3583 -0.0968  0.0223
  975W        W 5175   5.136   1.862  12.680 -0.2241 -0.1551 -0.4419
  976W        W 5176   5.703   4.833   5.017 -0.1716  0.2026  0.0575
  977W        W 5177   0.449   3.887  13.426 -0.0347  0.2237 -0.1431
  978W        W 5178   1.991   7.169  10.801 -0.0746  0.3402  0.1098
  979W        W 5179   0.247   9.366  11.068 -0.0772  0.3190  0.1948
  980W        W 5180   2.088   5.471  13.207 -0.1874 -0.1280 -0.1591
  981W        W 5181   7.422   6.962  13.342 -0.2657 -0.0248 -0.1066
  982W        W 5182   4.836   3.927   3.677  0.0658 -0.3415 -0.1850
  983W        W 5183   0.824   8.846   0.694  0.0693  0.0016  0.0236
  984W        W 5184   2.434   6.475   9.593 -0.0433  0.3061  0.0085
  985W        W 5185   0.236   6.277   4.583 -0.2954  0.5790  0.2579
  986W        W 5186   8.407   7.176  12.574  0.0513  0.1223 -0.0398
  987W        W 5187   4.228  10.258  11.401 -0.0840 -0.1772 -0.0035
  988W        W 5188   1.047   0.346  10.563 -0.0948  0.1226  0.1608
  989W        W 5189   9.188   2.533   3.895 -0.2612 -0.2676  0.2551
  990W        W 5190   0.859  10.226   0.326 -0.1220 -0.1698 -0.2093
  991W        W 5191   1.437   3.039  10.754  0.0030  0.1652  0.2144
  992W        W 5192  10.161   7.183  10.387  0.0546  0.0054  0.0741
  993W        W 5193   6.102   6.740   3.500 -0.1362 -0.0783 -0.1394
  994W        W 5194   4.981  10.273   2.169  0.0679  0.2468 -0.2292
  995W        W 5195   4.774   9.512  12.611  0.3041  0.0809 -0.2285
  996W        W 5196   6.133   8.784   2.197 -0.1006  0.1373 -0.0572
  997W        W 5197   1.822   6.799  12.981 -0.2230  0.1489 -0.2174
  998W        W 5198   7.297   3.282   1.254 -0.1469 -0.0462 -0.0988
  999W        W 5199   4.952   1.524  13.192  0.3841 -0.3034 -0.2827
 1000W        W 5200   0.052   3.405   1.164 -0.0767  0.4353  0.0214
 1001W        W 5201   5.082   6.304   2.543 -0.5821 -0.2088  0.0021
 1002W        W 5202   9.908   5.928   1.934  0.1141 -0.0008 -0.1179
 1003W        W 5203   9.917   3.424   2.634  0.1593  0.0435 -0.0941
 1004W        W 5204   0.094   2.237  12.965  0.3686  0.0365 -0.0771
 1005W        W 5205   6.667   7.169  12.350  0.1781 -0.2643 -0.2703
 1006W        W 5206   8.675   8.368  13.333 -0.0394  0.0297  0.0909
 1007W        W 5207   4.114   4.887  11.226 -0.2921  0.1950  0.0119
 1008W        W 5208   9.948   9.760   0.607  0.1024 -0.1231 -0.1323
 1009W        W 5209   5.648   3.521   1.070  0.1453  0.1661  0.4623
 1010W        W 5210   5.993   6.864   1.008  0.1569 -0.0701 -0.1696
 1011W        W 5211   7.380   1.392  10.312  0.0146 -0.0567  0.1547
 1012W        W 5212   1.194   9.488   9.254 -0.0828  0.0676 -0.0183
 1013W        W 5213   5.088   3.399  12.202 -0.0788 -0.0536 -0.0371
 1014W        W 5214   3.194   5.250   1.981  0.0173 -0.1780 -0.1541
 1015W        W 5215   8.854   7.926   1.282  0.0319 -0.4053 -0.2529
 1016W        W 5216   4.399   3.243   5.126 -0.1202  0.3619 -0.1195
 1017W        W 5217  10.364  10.223  10.994  0.1266  0.2069  0.0978
 1018W        W 5218   9.365   2.257   2.610 -0.1994  0.0750  0.3614
 1019W        W 5219   6.292   5.545   4.098  0.1803 -0.1160 -0.1206
 1020W        W 5220   7.700   0.131   0.413 -0.1020  0.0714 -0.1321
 1021W        W 5221   1.308   1.918  12.645  0.1272  0.0069 -0.0642
 1022W        W 5222   4.171   8.396  11.203 -0.4420 -0.0180  0.2115
 1023W        W 5223   1.029   1.196  10.865 -0.0908  0.1398  0.0804
 1024W        W 5224   8.737   0.283  11.991 -0.0698  0.2520 -0.1936
 1025W        W 5225   7.148   7.051   9.385  0.1695 -0.0247 -0.2064
 1026W        W 5226   2.234   0.500   1.517  0.2013  0.0072  0.0937
 1027W        W 5227   3.204   8.207  13.153 -0.1737  0.0369  0.0006
 1028W        W 5228   9.634   5.348  11.788  0.0060 -0.1064  0.1274
 1029W        W 5229   5.093   8.514   2.088  0.2930 -0.1991  0.1386
 1030W        W 5230   2.168   4.267  12.216 -0.1930  0.1940  0.2824
 1031W        W 5231   8.413   1.988   1.668  0.2527 -0.3042 -0.1899
 1032W        W 5232   4.055   7.708  10.187  0.0321  0.2157  0.1365
 1033W        W 5233   1.617   7.786  12.278 -0.3136  0.1015  0.2007
 1034W        W 5234   7.651   0.241   3.029 -0.2660 -0.1161 -0.1002
 1035W        W 5235   6.245   4.691  13.291 -0.0052 -0.2399  0.0535
 1036W        W 5236   8.970   1.482   2.250  0.2472 -0.0283  0.1016
 1037W        W 5237   0.980   3.452   1.596 -0.0613  0.1853 -0.0602
 1038W        W 5238   0.652   2.796   0.683 -0.0592 -0.1678 -0.0001
 1039W        W 5239   7.304   8.373  10.981 -0.0996  0.1169 -0.0204
 1040W        W 5240   0.011   7.261   2.286 -0.1401 -0.0237  0.0116
 1041W        W 5241   4.750   8.302   9.735 -0.1783  0.0721  0.1389
 1042W        W 5242   8.329   1.092   3.448 -0.2336  0.2225 -0.1509
 1043W        W 5243   8.912   2.884   0.857  0.2016  0.0181 -0.1204
 1044W        W 5244   9.136   6.284  11.312 -0.3612 -0.0386  0.0975
 1045W        W 5245   4.565   2.265  10.903  0.4257 -0.0670  0.0451
 1046W        W 5246   2.736  10.279  11.967  0.0131 -0.2442  0.0950
 1047W        W 5247   9.308   9.317  12.396 -0.1360  0.3930  0.1417
 1048W        W 5248   6.232   7.822  12.055  0.1377 -0.0303 -0.3442
 1049W        W 5249   5.120   3.528  11.706  0.0741 -0.1355 -0.0505
 1050W        W 5250   7.672   3.169  12.529 -0.1873 -0.1323  0.0221
 1051W        W 5251   2.433   8.063   4.111  0.3034 -0.0972 -0.4238
 1052W        W 5252   7.661   7.512  12.634 -0.2708  0.0273 -0.2994
 1053W        W 5253   2.170   0.769  10.960 -0.2039 -0.1692  0.0415
 1054W        W 5254   5.218   9.639  11.891  0.0682 -0.0058 -0.0196
 1055W        W 5255   5.478   7.633   8.661  0.0741  0.0959  0.3925
 1056W        W 5256   1.420   5.835  10.545  0.3348  0.1493 -0.1873
 1057W        W 5257   8.333  10.136   2.573  0.0887 -0.0372 -0.5334
 1058W        W 5258   6.653   2.971   2.524 -0.2586  0.1326 -0.0769
 1059W        W 5259   8.183   4.172   9.350  0.1326  0.0001  0.1758
 1060W        W 5260   2.168   3.135   2.225 -0.0163 -0.3408 -0.4012
 1061W        W 5261   4.485  10.083  12.234 -0.1600 -0.2113 -0.0424
 1062W        W 5262   8.800   3.250   0.558 -0.0976 -0.1685  0.1160
 1063W        W 5263   1.337   6.276   1.486  0.0839  0.0874 -0.1470
 1064W        W 5264   4.955   8.411  10.544 -0.0484  0.0237  0.0013
 1065W        W 5265   7.311   6.113   1.757  0.0043  0.1857  0.2873
 1066W        W 5266   8.496   8.659   9.337  0.0515  0.2291  0.0978
 1067W        W 5267   3.492   1.884   8.825  0.2006 -0.1865 -0.1514
 1068W        W 5268   3.398   7.644   1.546 -0.2061 -0.1536  0.0921
 1069W        W 5269   5.988   7.111   0.316  0.1202 -0.1601  0.0887
 1070W        W 5270   3.376  10.281   2.986  0.2721 -0.0430  0.0963
 1071W        W 5271   5.712   3.214  10.209  0.0098 -0.0941  0.1741
 1072W        W 5272   1.532   8.240   4.229 -0.0165 -0.1214  0.2045
 1073W        W 5273   0.878   9.321   2.158  0.3171  0.2219 -0.0498
 1074W        W 5274   0.292   9.895  13.172  0.0668 -0.1603 -0.0162
 1075W        W 5275   1.008   2.907  10.958 -0.2659  0.0462 -0.2172
 1076W        W 5276   2.593   7.919   3.670 -0.1752 -0.1334  0.2933
 1077W        W 5277   9.282   3.523   3.409  0.1656 -0.0500  0.3032
 1078W        W 5278   8.541   6.507  13.390  0.0326  0.0786 -0.0621
 1079W        W 5279   5.322   9.659  12.860 -0.2035 -0.1747  0.1277
 1080W        W 5280   1.080   1.985   3.120 -0.0954 -0.0975 -0.0258
 1081W        W 5281   7.922   6.257  12.863 -0.0568  0.3772 -0.0137
 1082W        W 5282   0.037   7.048   2.738  0.0627 -0.1063  0.0106
 1083W        W 5283   4.392   5.166   1.762  0.2102 -0.0054 -0.2192
 1084W        W 5284   9.863   2.154  12.021  0.1135 -0.0690 -0.1401
 1085W        W 5285   2.666   7.981  12.249  0.1680 -0.0854  0.0753
 1086W        W 5286   4.755   6.648   4.025  0.1297 -0.2049 -0.0280
 1087W        W 5287   2.032   3.319   3.258 -0.1597  0.0382  0.0689
 1088W        W 5288   4.811   9.253   0.500 -0.1267 -0.0149 -0.4636
 1089W        W 5289   0.971  10.416   3.799 -0.0982  0.0262 -0.0329
 1090W        W 5290   9.237   1.353  13.388  0.1781 -0.0962  0.4426
 1091W        W 5291   7.477   8.410  11.490  0.2512 -0.0839  0.0417
 1092W        W 5292   4.133   2.341   2.408  0.0441  0.2061  0.0222
 1093W        W 5293   0.208   0.994   3.903 -0.1768  0.0933  0.0223
 1094W        W 5294   0.633   7.914   1.479 -0.1325 -0.0412  0.0670
 1095W        W 5295   4.112   5.891   0.359  0.1890  0.0414 -0.0047
 1096W        W 5296   4.464   8.397   2.262  0.0953  0.3566  0.1454
 1097W        W 5297   0.800   1.753  10.421  0.1777  0.0750  0.2325
 1098W        W 5298   2.989   3.562   4.478  0.1018 -0.1480 -0.1750
 1099W        W 5299   5.745   4.475   2.408 -0.2923  0.0563  0.0164
 1100W        W 5300   3.582   0.431   8.713  0.2283 -0.1195 -0.1095
 1101W        W 5301   5.455   8.073  11.898 -0.1024  0.0202  0.0912
 1102W        W 5302   3.378   7.964   4.621  0.4311  0.1783  0.4870
 1103W        W 5303   5.216   3.867   2.924  0.1971  0.1124  0.0382
 1104W        W 5304   3.750   1.230  13.097  0.0469 -0.0918  0.0552
 1105W        W 5305   7.566   4.453  10.504  0.1486 -0.1384 -0.0101
 1106W        W 5306   3.426   1.799   2.988 -0.0440 -0.0709  0.0401
 1107W        W 5307  10.044   7.334   8.880 -0.0651  0.0360 -0.0641
 1108W        W 5308   8.404   4.614   9.137 -0.0303 -0.1988 -0.0903
 1109W        W 5309   1.760   3.811   9.565 -0.0760 -0.0628 -0.0792
 1110W        W 5310   0.957   1.244  10.332  0.1110  0.3613 -0.2620
 1111W        W 5311   7.074   3.377   9.472 -0.1897 -0.4133 -0.0367
 1112W        W 5312   9.836   3.631   1.662  0.2438 -0.0870  0.2309
 1113W        W 5313   2.808   2.231  11.986  0.0127  0.1934 -0.1788
 1114W        W 5314   7.085   4.973  10.395 -0.0672  0.1897  0.1218
 1115W        W 5315   9.528   4.046   9.817 -0.1050  0.1117 -0.0833
 1116W        W 5316   7.589   1.370  11.491  0.0656  0.1950 -0.0243
 1117W        W 5317   0.020   8.506  10.890  0.2663 -0.2908 -0.1074
 1118W        W 5318   6.173   9.811  13.309 -0.0771 -0.0291  0.0046
 1119W        W 5319   9.999   6.092   8.846  0.0909 -0.2504 -0.0018
 1120W        W 5320   3.269   1.838  10.034  0.2329  0.2594  0.1581
 1121W        W 5321   4.640   8.495  10.203  0.3840 -0.3213 -0.2153
 1122W        W 5322   8.354   9.599  10.503  0.1454 -0.0874  0.4347
 1123W        W 5323  10.170   9.540  13.104  0.0757 -0.0696 -0.2311
 1124W        W 5324   1.102   1.766  11.919 -0.0029 -0.0459 -0.2806
 1125W        W 5325   5.353   1.133   4.268 -0.0673  0.0418 -0.1880
 1126W        W 5326   0.897   3.721  12.091 -0.1948  0.0021  0.3216
 1127W        W 5327   7.895   7.042  12.550 -0.2374 -0.3393 -0.0463
 1128W        W 5328   0.856   8.158   9.081 -0.3072  0.1708 -0.2783
 1129W        W 5329   5.548   8.317  12.625  0.0032  0.2652  0.1609
 1130W        W 5330   2.668   3.541  10.614  0.0858 -0.1335 -0.1241
 1131W        W 5331   4.389   7.621   3.192 -0.0405  0.3097 -0.2134
 1132W        W 5332   9.762   9.892   3.596 -0.0226  0.4133 -0.2176
 1133W        W 5333   8.945   4.242  11.210  0.0445 -0.1835  0.0615
 1134W        W 5334   6.098   0.965   3.896 -0.0275 -0.1447  0.2765
 1135W        W 5335   0.291   7.505   9.806 -0.1196 -0.2278 -0.0341
 1136W        W 5336   9.296   1.339   1.947 -0.0853  0.0642 -0.2359
 1137W        W 5337  10.145   7.503   1.325 -0.0441  0.1276 -0.0010
 1138W        W 5338   5.977   3.674  11.331  0.0495  0.2068 -0.2874
 1139W        W 5339  10.183   5.055   3.560 -0.0038 -0.2331 -0.2392
 1140W        W 5340   3.481   4.465   2.412  0.0340  0.3013  0.5045
 1141W        W 5341  10.048   3.113  11.296  0.1463 -0.0223  0.0384
 1142W        W 5342   9.349   6.823   1.411  0.1905 -0.4816 -0.0380
 1143W        W 5343   6.127   7.817   2.793 -0.0755  0.1033  0.1871
 1144W        W 5344   9.201   9.337   3.632 -0.2946  0.1552  0.1419
 1145W        W 5345   4.380   3.051  11.518 -0.2242  0.1182  0.1374
 1146W        W 5346   2.256   8.387   3.730 -0.3112 -0.2599 -0.3283
 1147W        W 5347   2.805   6.714  11.995  0.1605  0.0565 -0.1863
 1148W        W 5348   6.250   5.250  10.734  0.1790  0.3031 -0.3113
 1149W        W 5349   9.615   3.632  12.332 -0.1254 -0.1649  0.0188
 1150W        W 5350   0.731   9.449  12.063 -0.1883 -0.2223 -0.1156
 1151W        W 5351   6.301  10.303  13.094  0.0357 -0.5573 -0.1404
 1152W        W 5352   7.815   9.131   0.170 -0.1172 -0.4981 -0.0499
 1153W        W 5353   1.457   5.459   4.267  0.0993 -0.2493 -0.1004
 1154W        W 5354   7.408   3.843   1.565  0.0549 -0.2456  0.2933
 1155W        W 5355   7.270   3.947   2.032  0.2518 -0.0733 -0.0138
 1156W        W 5356   7.917   3.255   9.641 -0.0788 -0.3266  0.1411
 1157W        W 5357   6.930   5.934  12.123 -0.1918  0.1099  0.1008
 1158W        W 5358   5.551   5.162   0.837  0.0560  0.2960 -0.1168
 1159W        W 5359   5.846   4.503   3.758 -0.1185 -0.1695 -0.2386
 1160W        W 5360   2.226   1.024   8.840 -0.2606 -0.3896 -0.0966
 1161W        W 5361   8.993   2.815  10.841 -0.0327  0.3279 -0.1211
 1162W        W 5362   1.496   2.496   2.329  0.1318 -0.4942 -0.2277
 1163W        W 5363   7.965   6.149   0.815 -0.1386  0.0155  0.4145
 1164W        W 5364   5.251   2.747   8.576 -0.0497  0.1720 -0.0252
 1165W        W 5365   2.899   7.709   4.860  0.1919 -0.1544 -0.2427
 1166W        W 5366   1.465   3.369   1.538  0.0688 -0.1387  0.1157
 1167W        W 5367   7.671   3.567   4.423  0.4393  0.2589 -0.1127
 1168W        W 5368   7.519   1.880   0.746 -0.0121 -0.1244  0.3303
 1169W        W 5369   7.372   4.673  12.564 -0.0899  0.2324  0.0199
 1170W        W 5370   1.602   0.671  11.489 -0.1589  0.0988 -0.0425
 1171W        W 5371   9.519   4.840   8.948  0.1532  0.0036  0.2855
 1172W        W 5372   2.620   2.489   1.958 -0.0387  0.1127  0.0733
 1173W        W 5373   8.881   8.987  10.572  0.3341 -0.2634 -0.1989
 1174W        W 5374   6.754   5.308   1.880 -0.0395  0.2015  0.0586
 1175W        W 5375   1.813   9.544   0.205 -0.0243 -0.4537 -0.1953
 1176W        W 5376   0.381   5.546   2.074 -0.1256  0.2528  0.0179
 1177W        W 5377   3.452   3.386  12.579 -0.1282  0.1830 -0.2632
 1178W        W 5378   3.941   8.196   3.863 -0.1769  0.1785  0.1165
 1179W        W 5379   9.036   8.951  13.260 -0.0631 -0.4975  0.0657
 1180W        W 5380   0.622   5.103   4.626 -0.1025  0.2059 -0.0052
 1181W        W 5381   5.535   4.333  11.486  0.1599  0.2715  0.0935
 1182W        W 5382   2.268   8.701  10.840 -0.1659 -0.1204 -0.1486
 1183W        W 5383   0.959   9.760  12.457 -0.0375 -0.2303  0.1453
 1184W        W 5384   4.215   1.944   4.704  0.1143 -0.0823 -0.4790
 1185W        W 5385   7.383   1.905  10.226 -0.0627  0.0382  0.0536
 1186W        W 5386   9.847   5.469   4.836  0.0744 -0.2004 -0.0644
 1187W        W 5387   7.064   2.399   1.825 -0.0889  0.0082  0.0207
 1188W        W 5388   9.355   9.873  10.652  0.2421  0.1321  0.3250
 1189W        W 5389   7.410   9.666   1.436 -0.2216  0.1214 -0.3798
 1190W        W 5390   0.987   1.465   0.369 -0.0629  0.2329  0.0270
 1191W        W 5391   6.672   3.378  11.972 -0.2186 -0.5357 -0.0286
 1192W        W 5392   8.323   6.140   2.771  0.0597 -0.1155 -0.3469
 1193W        W 5393   6.637   8.464   9.641  0.0617  0.5369 -0.0103
 1194W        W 5394   0.438  10.318  11.843 -0.1509 -0.0173 -0.1848
 1195W        W 5395   5.208   4.813  10.621  0.0343 -0.0021  0.1406
 1196W        W 5396   9.526   4.885   4.214  0.3725 -0.0204 -0.1484
 1197W        W 5397   3.646   2.454   4.081  0.1511 -0.0333  0.1026
 1198W        W 5398   5.175   4.229   3.301  0.3483 -0.1531 -0.1907
 1199W        W 5399   0.312   3.555   0.302 -0.0480 -0.0135 -0.0883
 1200W        W 5400   3.046   3.131  10.709 -0.2548 -0.2803 -0.1515
 1201W        W 5401   0.748   8.890   3.493 -0.0783 -0.1086 -0.2090
 1202W        W 5402   2.842   5.836  12.452 -0.2605  0.2436  0.1609
 1203W        W 5403   9.059   5.719  13.440  0.4731 -0.3155 -0.0051
 1204W        W 5404   0.332   8.670  13.013  0.1719  0.0125  0.3632
 1205W        W 5405   0.527   8.080   2.123  0.2146  0.0832 -0.3146
 1206W        W 5406   3.133   4.999   4.429 -0.0617  0.0856  0.1015
 1207W        W 5407   4.888   0.677  12.867 -0.1028 -0.1332  0.0772
 1208W        W 5408   9.210   6.015   1.891  0.1546 -0.0318  0.0993
 1209W        W 5409   5.867   0.431   1.726 -0.1476  0.1484 -0.2895
 1210W        W 5410   2.051   0.449   3.878  0.2411 -0.0999  0.1831
 1211W        W 5411   1.488   3.957  13.085 -0.3171  0.3279  0.0184
 1212W        W 5412   1.134   9.364  13.210 -0.0167  0.2409  0.1831
 1213W        W 5413   8.648   8.408  12.168 -0.0451  0.0556  0.0969
 1214W        W 5414   4.832   7.110  11.255  0.1816  0.1614  0.0124
 1215W        W 5415   1.349   0.430  11.073 -0.1554 -0.1817  0.0124
 1216W        W 5416   1.576   4.261   0.110  0.1845  0.0360  0.0490
 1217W        W 5417   1.951   9.666  12.523  0.1434  0.2486 -0.0354
 1218W        W 5418   5.409   3.121   4.164 -0.1075  0.1794  0.0523
 1219W        W 5419   5.465  10.367   0.256  0.2230 -0.0427  0.4410
 1220W        W 5420   0.074   9.307   3.106 -0.0635 -0.6439 -0.1649
 1221W        W 5421   3.187   7.901   9.781  0.1116 -0.4756 -0.1149
 1222W        W 5422   2.758   7.388   4.462  0.0561 -0.2001  0.0092
 1223W        W 5423   6.641   2.089   0.739 -0.2177 -0.1276 -0.0070
 1224W        W 5424   5.190  10.356   4.424  0.0539  0.0375  0.1855
 1225W        W 5425   0.149   8.186  12.483 -0.3090 -0.0803  0.3209
 1226W        W 5426   6.082   0.675   3.387  0.2212 -0.1174  0.1151
 1227W        W 5427   9.059   9.005   2.218 -0.2381  0.0625 -0.2863
 1228W        W 5428   0.460   4.607   4.637 -0.2180 -0.1836  0.2096
 1229W        W 5429   1.720  10.417  11.990 -0.0387 -0.0687  0.0676
 1230W        W 5430   6.985   7.798   9.440  0.0905  0.1331  0.4398
 1231W        W 5431   1.479   4.289   3.334  0.0103 -0.0331 -0.2226
 1232W        W 5432   9.140   0.350   2.408 -0.1622  0.0008  0.2695
 1233W        W 5433   8.596   6.354  10.003 -0.4085 -0.0245  0.3096
 1234W        W 5434   0.196   0.237  10.024  0.0396 -0.1007 -0.0299
 1235W        W 5435   8.223  10.034   1.039 -0.0707 -0.1817  0.2311
 1236W        W 5436   8.337   3.292  11.869  0.2885 -0.3137  0.2288
 1237W        W 5437  10.332   0.308  12.090 -0.2329  0.1295 -0.2869
 1238W        W 5438   4.432   6.050  10.914  0.1981 -0.2026  0.1970
 1239W        W 5439   2.234   8.171   2.255 -0.1026  0.4612 -0.2812
 1240W        W 5440   3.891  10.203   1.919 -0.0481 -0.0243  0.0188
 1241W        W 5441   3.858   1.168   2.687  0.2286 -0.0308 -0.0855
 1242W        W 5442   1.482   9.354  10.529 -0.2580 -0.1040  0.1511
 1243W        W 5443   2.817   2.960   3.501  0.1654  0.3310  0.3088
 1244W        W 5444   0.575   2.413   1.819 -0.3062  0.1723 -0.0881
 1245W        W 5445   6.341   3.866   2.247 -0.1113 -0.3543 -0.1677
 1246W        W 5446   6.994   9.593   9.648  0.0903 -0.0634 -0.0489
 1247W        W 5447   5.351   4.449   1.562  0.0528 -0.2540 -0.0036
 1248W        W 5448   3.863   8.961  11.010  0.0350  0.0338 -0.4116
 1249W        W 5449   8.223  10.196   3.286  0.2194 -0.0316  0.3624
 1250W        W 5450   9.703   7.174   9.564  0.0600 -0.1689 -0.3331
 1251W        W 5451   0.397   0.910   2.576 -0.0336 -0.1972 -0.1733
 1252W        W 5452   4.619   7.639   2.715 -0.1621  0.2070 -0.0356
 1253W        W 5453   0.284   3.237  12.193 -0.0916  0.1326 -0.4993
 1254W        W 5454   0.134   4.598  11.015  0.0433 -0.3478  0.4750
 1255W        W 5455   9.474   3.934   3.608  0.1242 -0.1059  0.0184
 1256W        W 5456  10.388   5.250  13.059  0.0014 -0.2753  0.2291
 1257W        W 5457   3.092   2.050  10.604  0.3068  0.0532 -0.2334
 1258W        W 5458   0.412   8.074   3.866  0.2847 -0.1208 -0.3008
 1259W        W 5459   1.392  10.115  11.699  0.0056 -0.0161 -0.0406
 1260W        W 5460   6.120   5.213  12.581  0.2090 -0.2138 -0.1913
 1261W        W 5461   7.389   2.021  10.708  0.3774 -0.2800 -0.1105
 1262W        W 5462   9.362   4.450   0.052 -0.3355 -0.1201 -0.2389
 1263W        W 5463   1.703   2.780   0.845 -0.0389 -0.1361  0.2486
 1264W        W 5464   5.316   5.792  10.420 -0.3512  0.1000  0.0675
 1265W        W 5465   9.860   5.659  12.265 -0.1083 -0.1868 -0.1775
 1266W        W 5466   3.784  10.294   9.286 -0.0455  0.3230 -0.2112
 1267W        W 5467   0.130  10.338  11.399  0.3214  0.1535  0.0285
 1268W        W 5468   5.540   2.615  11.715  0.2555 -0.0827  0.2728
 1269W        W 5469   9.799   7.695  10.897  0.1086  0.1380  0.0839
 1270W        W 5470   9.384  10.375   0.513 -0.0467  0.1206 -0.0194
 1271W        W 5471   2.629  10.393   9.814  0.1118  0.1239  0.0893
 1272W        W 5472   9.445   7.579   3.979  0.1954  0.0720  0.0122
 1273W        W 5473   4.306   8.057   2.689  0.0828  0.2059  0.2787
 1274W        W 5474   9.555   2.750   2.423  0.4179  0.0456 -0.0400
 1275W        W 5475   3.739   0.404   0.128 -0.1925 -0.1788  0.0654
 1276W        W 5476   3.551   0.861   1.509 -0.0179 -0.0887 -0.0833
 1277W        W 5477   6.936   9.233  10.000 -0.0977  0.1128  0.3474
 1278W        W 5478   8.348   9.664   0.608  0.3313 -0.0990  0.0473
 1279W        W 5479   6.436  10.387   3.606 -0.1639  0.1188 -0.0684
 1280W        W 5480   4.233   8.307  12.453 -0.0308  0.0094  0.1221
 1281W        W 5481   2.971   5.358  13.170  0.1369 -0.0674  0.0056
 1282W        W 5482   3.268   1.827   9.384  0.2593 -0.1831  0.1694
 1283W        W 5483   9.914   3.003   2.254 -0.0946 -0.4707 -0.0071
 1284W        W 5484   1.811   3.125   4.044 -0.1600  0.1875  0.0888
 1285W        W 5485   7.584   6.905   1.402  0.3540 -0.2001 -0.2454
 1286W        W 5486   4.970   8.995   4.568  0.0605  0.0452  0.0224
 1287W        W 5487   0.159   0.215  11.745 -0.1185  0.2297 -0.0651
 1288W        W 5488   4.486  10.298   2.036 -0.1720  0.0316 -0.2609
 1289W        W 5489   7.672   1.322  12.509  0.0780 -0.2169  0.1329
 1290W        W 5490   1.061   1.414  11.487  0.4311 -0.1578  0.2479
 1291W        W 5491   2.325   1.227  10.882  0.2110  0.1145 -0.3347
 1292W        W 5492   5.893   0.893   4.441 -0.1153  0.4199  0.0815
 1293W        W 5493   6.448   7.787  13.447  0.1381 -0.1254  0.0038
 1294W        W 5494   3.021   6.004   0.034  0.1204  0.2585  0.1140
 1295W        W 5495   3.685   2.463   2.277  0.1064  0.1369  0.1153
 1296W        W 5496   2.002   2.640   4.972 -0.0415 -0.0883  0.0088
 1297W        W 5497   7.895  10.012   9.374 -0.1859 -0.0756 -0.1633
 1298W        W 5498   7.220   8.306  10.470  0.0509  0.4225 -0.3019
 1299W        W 5499   8.919   3.481   3.047 -0.1024 -0.0714  0.1915
 1300W        W 5500   7.980   2.029  10.322  0.1091  0.2262  0.1615
 1301W        W 5501   1.902   9.939  12.069  0.1981  0.0425  0.1400
 1302W        W 5502   9.596   0.556  11.576 -0.0610 -0.0825  0.1736
 1303W        W 5503   6.112   9.542   9.992  0.2979 -0.3073 -0.0468
 1304W        W 5504   2.407   7.394   3.482 -0.2709  0.0458 -0.0750
 1305W        W 5505   3.424   1.369   0.878 -0.1267  0.1454 -0.5284
 1306W        W 5506   7.964   5.863   9.817  0.0728 -0.0045 -0.0133
 1307W        W 5507   3.860   1.881  10.229  0.1128 -0.1276  0.4243
 1308W        W 5508   0.759   8.484   2.672 -0.1170 -0.0747  0.1696
 1309W        W 5509   1.310   3.156  12.574 -0.0844 -0.1227  0.0716
 1310W        W 5510   0.189   8.538  12.151  0.0508  0.1452 -0.1304
 1311W        W 5511   0.851   7.229   3.352  0.1964  0.3372  0.2648
 1312W        W 5512   5.635   1.959  11.442 -0.2358 -0.0204  0.0664
 1313W        W 5513   8.411   3.413  12.876  0.1515 -0.0188  0.0146
 1314W        W 5514   3.609   6.203   1.050 -0.2029  0.1840 -0.1539
 1315W        W 5515   5.852   5.777   4.309  0.3962  0.1083  0.2606
 1316W        W 5516  10.170   9.704   1.079  0.1977  0.2539 -0.4076
 1317W        W 5517   8.585   8.882   1.366 -0.2194  0.4467 -0.3217
 1318W        W 5518   2.616   3.482  11.159  0.0749 -0.0380  0.1433
 1319W        W 5519   4.867   6.487  13.008 -0.3007 -0.2153 -0.1711
 1320W        W 5520   0.116   0.041  10.461  0.0917  0.0540 -0.0413
 1321W        W 5521   9.962   4.196  10.609  0.0897 -0.1246 -0.1090
 1322W        W 5522   6.598   8.093   3.972 -0.0571  0.1132  0.1159
 1323W        W 5523   4.570   0.909   9.153  0.0687  0.1481 -0.0234
 1324W        W 5524   7.252   9.565  11.709 -0.1641 -0.3039 -0.0269
 1325W        W 5525   3.244   7.479  13.038 -0.2227  0.0335 -0.1602
 1326W        W 5526   3.763  10.389   9.791  0.0846 -0.2052 -0.3486
 1327W        W 5527   5.871   5.249   4.313  0.1950  0.0187 -0.0649
 1328W        W 5528   9.461   5.773   3.685  0.0323 -0.0358 -0.1110
 1329W        W 5529   4.709   1.209   1.541  0.1033  0.1210 -0.2639
 1330W        W 5530  10.297   0.393   0.483 -0.0698  0.0903 -0.0265
 1331W        W 5531   5.268   6.623   3.965 -0.1757  0.0839 -0.0366
 1332W        W 5532   6.044   1.165   1.026  0.0533  0.0774 -0.5132
 1333W        W 5533   2.098   5.130  12.721 -0.0008 -0.1287  0.2268
 1334W        W 5534   2.636   1.405  13.363 -0.0331 -0.2574 -0.0096
 1335W        W 5535   3.332   3.017   2.748 -0.0770  0.0093  0.1644
 1336W        W 5536   6.433   6.018   3.068  0.3409  0.2543  0.1124
 1337W        W 5537   5.178   8.635   1.629  0.1040 -0.2937 -0.1915
 1338W        W 5538   6.154   2.658  10.312  0.2011 -0.0081 -0.0318
 1339W        W 5539   0.191   2.487   0.679 -0.1164  0.0740 -0.0264
 1340W        W 5540   3.963   9.523  11.005 -0.1857 -0.0110 -0.1705
 1341W        W 5541   2.605  10.232  10.312 -0.0404 -0.2103  0.2659
 1342W        W 5542   6.226   4.235   1.325 -0.0076  0.1891  0.0465
 1343W        W 5543   3.400   6.141   1.940 -0.0042  0.3862  0.0725
 1344W        W 5544   7.370   0.481   4.308 -0.2449  0.1607  0.2750
 1345W        W 5545  10.264   0.980  13.351 -0.3748 -0.0476 -0.1042
 1346W        W 5546   2.138   5.905  10.374 -0.0027  0.3600 -0.0659
 1347W        W 5547   7.204   3.295   4.216  0.0424 -0.1236 -0.0664
 1348W        W 5548   5.173   6.135   3.871  0.0716  0.1246 -0.0633
 1349W        W 5549   5.509   3.420   0.140  0.2692  0.0148 -0.1670
 1350W        W 5550   7.119   2.502   1.350  0.0756  0.3012  0.2044
 1351W        W 5551   6.066   0.041   4.217 -0.3602  0.1701 -0.1373
 1352W        W 5552   7.088   7.682   0.995  0.2334  0.1809 -0.0262
 1353W        W 5553   8.490   7.595  10.069 -0.0045 -0.1632  0.1315
 1354W        W 5554   1.023   8.553  11.177  0.2925 -0.0399 -0.4080
 1355W        W 5555   2.018   9.449   9.947  0.0490  0.3840 -0.1592
 1356W        W 5556   2.514   6.300   3.635  0.2458 -0.0122 -0.0089
 1357W        W 5557   5.015   4.424   1.209 -0.0227  0.0414 -0.2277
 1358W        W 5558   7.237   5.725  11.136 -0.1424 -0.1050  0.2014
 1359W        W 5559  10.181   0.885  10.253  0.1141 -0.1522 -0.0458
 1360W        W 5560   7.790   6.689  13.102 -0.0330  0.0525  0.2028
 1361W        W 5561   3.655   3.562  12.990 -0.2371 -0.1416  0.3040
 1362W        W 5562   4.515   4.277   1.242  0.0730  0.0765  0.1378
 1363W        W 5563   9.048   6.069   9.885  0.3040  0.1564  0.0942
 1364W        W 5564   4.862   6.651   1.333 -0.1194 -0.0241 -0.0959
 1365W        W 5565   0.480  10.156   2.145 -0.1795  0.3018 -0.1783
 1366W        W 5566   0.228   8.094   1.622  0.1368 -0.0143 -0.0165
 1367W        W 5567   6.334   6.612   9.197 -0.0702 -0.0370 -0.1152
 1368W        W 5568   6.534  10.125   1.238 -0.1226 -0.0973  0.0446
 1369W        W 5569   2.760   3.147   0.983 -0.1489 -0.2721 -0.0780
 1370W        W 5570   7.035  10.290   3.707 -0.0261  0.1160 -0.0106
 1371W        W 5571   1.112   8.512   3.255  0.3563 -0.1740 -0.0111
 1372W        W 5572   9.497   5.663   2.132 -0.1846  0.2703  0.0195
 1373W        W 5573   0.158   8.974   0.473 -0.0556  0.1902 -0.0022
 1374W        W 5574   0.364   5.160   1.244  0.0877 -0.1684 -0.1912
 1375W        W 5575   3.065   6.634   3.030 -0.2112  0.0914  0.0189
 1376W        W 5576   5.647   4.924  11.720  0.2364  0.1052 -0.0492
 1377W        W 5577  10.422   5.297   0.953  0.0122  0.1473  0.0506
 1378W        W 5578   5.848   7.969  10.484  0.0439  0.1301  0.0765
 1379W        W 5579   9.990   5.194   9.463 -0.1341 -0.0926 -0.0673
 1380W        W 5580   8.007   2.215   1.561  0.2435 -0.0658  0.1200
 1381W        W 5581   5.198   4.907  12.069 -0.0918  0.2422  0.1266
 1382W        W 5582   7.963   4.372   0.414  0.0957 -0.0627 -0.0057
 1383W        W 5583   0.687   9.650  11.081  0.1652  0.5241  0.0921
 1384W        W 5584   2.986   7.262  13.356  0.1413 -0.2505  0.1857
 1385W        W 5585   4.859   2.214   3.159 -0.0543  0.1455 -0.0032
 1386W        W 5586   5.721   0.506   0.729 -0.0256 -0.2412  0.0535
 1387W        W 5587   1.776   5.693   9.286  0.0990 -0.1410 -0.2088
 1388W        W 5588   1.814   5.954   8.278  0.0051  0.0191 -0.0799
 1389W        W 5589   0.404   5.852   1.695  0.0734  0.1505 -0.2360
 1390W        W 5590   1.010   3.923  13.286 -0.1578  0.1752 -0.0725
 1391W        W 5591   2.789   2.062   1.295  0.1929  0.2232  0.0591
 1392W        W 5592   5.698   9.595  12.447  0.3427  0.2240 -0.4591
 1393W        W 5593   2.163   2.197   0.025  0.1230 -0.0227  0.4945
 1394W        W 5594   5.155   4.328  11.021 -0.0704 -0.2698  0.3842
 1395W        W 5595   7.784   1.147  10.812  0.1188 -0.1509 -0.0387
 1396W        W 5596   5.543  10.099  10.690 -0.1274  0.1052 -0.0008
 1397W        W 5597   9.673   4.138   0.407 -0.1595 -0.1058 -0.2411
 1398W        W 5598   4.156   5.060   0.551 -0.1277 -0.0903 -0.1747
 1399W        W 5599   0.680   9.567   0.397 -0.0399  0.1125  0.1807
 1400W        W 5600   2.518   2.624   3.813 -0.1194  0.0421  0.3541
 1401W        W 5601   9.097   4.035   0.121  0.0980 -0.0824  0.2302
 1402W        W 5602   3.128   1.886   1.881 -0.1245 -0.0784  0.0373
 1403W        W 5603   3.902   0.142  10.230 -0.0072 -0.1049 -0.4070
 1404W        W 5604   8.966  10.191  13.242  0.0149 -0.3766  0.2720
 1405W        W 5605   3.062   0.142   1.690 -0.0887 -0.1089  0.2779
 1406W        W 5606   2.066  10.006  10.443 -0.3304  0.2090  0.0521
 1407W        W 5607   4.434   7.067   3.872 -0.0101  0.0168 -0.1328
 1408W        W 5608   7.788   3.627   3.844 -0.2751  0.2136  0.1523
 1409W        W 5609   7.110   9.646   2.963  0.0564  0.2248  0.1533
 1410W        W 5610   4.015   8.261  10.248  0.1139  0.1852  0.1006
 1411W        W 5611   4.223   1.868  12.540  0.1121 -0.3831  0.0463
 1412W        W 5612   3.597   1.347   3.110  0.3960 -0.3519  0.0986
 1413W        W 5613   8.913   4.893   4.461 -0.0784 -0.2997  0.2532
 1414W        W 5614   1.880  10.302   4.023  0.0387 -0.2308  0.0323
 1415W        W 5615   8.878   8.981   3.897 -0.2056 -0.0748  0.1063
 1416W        W 5616   5.617   6.814   0.068  0.0507  0.1593 -0.0215
 1417W        W 5617   6.208   5.126   3.496  0.1996 -0.0895 -0.1437
 1418W        W 5618   9.027   0.404   1.772  0.1663  0.0330 -0.1385
 1419W        W 5619   7.966   2.924  11.202 -0.0303 -0.0889 -0.0187
 1420W        W 5620   7.315   2.278   2.658 -0.0582 -0.0039  0.1689
 1421W        W 5621   6.802  10.013   0.469  0.1191 -0.2473 -0.1036
 1422W        W 5622   3.762   1.198   1.245 -0.0522 -0.1603  0.2404
 1423W        W 5623   7.471   6.413  13.483  0.1339 -0.4404  0.3172
 1424W        W 5624   8.713   6.958  13.384 -0.1298 -0.0414 -0.2314
 1425W        W 5625   2.185   1.669   1.737 -0.1917 -0.0167  0.2417
 1426W        W 5626   5.857   3.775  10.755  0.1492  0.2965 -0.1980
 1427W        W 5627   6.624   5.119   9.469  0.3493  0.0075 -0.3356
 1428W        W 5628   4.775   6.774   0.258  0.3860  0.2497 -0.1990
 1429W        W 5629   1.714   6.359   5.289 -0.2319  0.3000 -0.1691
 1430W        W 5630   8.324   2.685  13.415 -0.0937 -0.0660  0.0401
 1431W        W 5631   4.159   3.690  12.244  0.1171 -0.1677  0.2045
 1432W        W 5632   5.327   4.436  12.840 -0.2398 -0.0034 -0.2708
 1433W        W 5633   1.482   8.614   2.608 -0.0163 -0.2285 -0.0503
 1434W        W 5634   3.769   2.069   0.233 -0.1627 -0.3505  0.2310
 1435W        W 5635   1.829   6.450   1.392 -0.1287 -0.1537 -0.0764
 1436W        W 5636  10.086   5.652  11.805 -0.0564  0.1514  0.1647
 1437W        W 5637   1.190   8.551  10.362 -0.0480  0.0507  0.2365
 1438W        W 5638   2.560   7.307   4.902  0.1387  0.2931  0.3822
 1439W        W 5639   0.497   1.622   2.987  0.1063 -0.1206 -0.1799
 1440W        W 5640   6.189   1.633   0.786 -0.1022  0.0543  0.0716
 1441W        W 5641   8.175   5.168   4.754 -0.4356  0.2400  0.0649
 1442W        W 5642   1.636   7.521  12.810 -0.0065  0.3585  0.1917
 1443W        W 5643   0.826   8.956   1.168  0.2788  0.1405 -0.4445
 1444W        W 5644   6.144   2.392   4.274 -0.1052 -0.1569 -0.4486
 1445W        W 5645   4.392   5.075  10.792 -0.3130  0.4872 -0.0994
 1446W        W 5646   1.024   5.615   0.304  0.2867  0.2344  0.3022
 1447W        W 5647   4.329   3.817  12.737  0.1822 -0.1473 -0.1491
 1448W        W 5648   4.811   5.133   0.578  0.2315  0.1992  0.0848
 1449W        W 5649   0.978   1.555   2.891 -0.1611 -0.0729  0.0209
 1450W        W 5650   1.690   0.125   2.466 -0.1812  0.2619 -0.0247
 1451W        W 5651   1.271   7.717  11.005 -0.0556  0.3003 -0.2065
 1452W        W 5652  10.434   5.125   3.050  0.3878 -0.3236 -0.0087
 1453W        W 5653   8.221   3.241  10.482  0.0002 -0.1391  0.0163
 1454W        W 5654   9.873   3.793   0.098 -0.0804  0.2885 -0.0336
 1455W        W 5655   2.660   5.399  12.212 -0.0200 -0.1063  0.2288
 1456W        W 5656   6.185   4.373   2.180  0.0374  0.0181  0.1649
 1457W        W 5657   3.747   0.606  10.559  0.0989 -0.2005 -0.0450
 1458W        W 5658   6.406   4.014  11.351  0.0443 -0.2757  0.1663
 1459W        W 5659   2.193   7.937   2.748  0.0959 -0.2699  0.1845
 1460W        W 5660   6.117   4.477   0.834 -0.0468 -0.0059  0.0936
 1461W        W 5661   9.980   2.429   0.451  0.0335  0.0036 -0.0444
 1462W        W 5662   4.338   5.761  11.548 -0.1575  0.2575  0.3656
 1463W        W 5663  10.080   9.194   3.866  0.1548  0.1024  0.1515
 1464W        W 5664   2.959   2.544   0.672 -0.2100  0.1651 -0.0813
 1465W        W 5665   3.962   1.285  11.119 -0.0572  0.0223  0.0018
 1466W        W 5666   1.028   7.181  10.327  0.3213 -0.3508 -0.0388
 1467W        W 5667   5.159   7.052   0.387  0.0273  0.1014  0.1462
 1468W        W 5668   8.817   5.602   3.730 -0.4005  0.0317 -0.1414
 1469W        W 5669   9.251   1.471   3.089 -0.1773  0.2218  0.1485
 1470W        W 5670   8.625   3.365   1.890 -0.0639 -0.0576 -0.1772
 1471W        W 5671   6.759   9.605  11.743  0.0213  0.2615 -0.3761
 1472W        W 5672   7.250   9.862   0.666 -0.0338  0.0077 -0.0298
 1473W        W 5673   7.298   3.224   0.249  0.1064 -0.2458 -0.0644
 1474W        W 5674   8.166   4.252   1.814  0.2388  0.0057  0.0484
 1475W        W 5675   1.980   6.743   4.340  0.2389  0.0115  0.3513
 1476W        W 5676   9.157   7.028   3.056 -0.1112 -0.0676 -0.1911
 1477W        W 5677   9.697   1.460   3.980 -0.2368  0.3390 -0.2260
 1478W        W 5678   8.112   8.486  11.341  0.2406 -0.3277 -0.1068
 1479W        W 5679   0.691  10.153  12.971  0.3882 -0.1288  0.1557
 1480W        W 5680   8.121   4.990   4.216 -0.0783 -0.0005 -0.2283
 1481W        W 5681   7.963   0.898   9.559  0.0365  0.0342  0.2103
 1482W        W 5682   7.930   9.324   3.151  0.0571 -0.1468  0.0462
 1483W        W 5683   4.820   6.338   0.918 -0.4371  0.2679  0.6094
 1484W        W 5684   5.984  10.074   9.234  0.0680 -0.0982 -0.1937
 1485W        W 5685   9.071   5.509  11.759 -0.0692 -0.0044 -0.0290
 1486W        W 5686   4.196   6.509   0.934 -0.2767  0.3248 -0.1544
 1487W        W 5687   5.079   0.182   9.399  0.0689 -0.2538  0.1260
 1488W        W 5688   1.743   1.821  10.786 -0.0278  0.1405  0.1641
 1489W        W 5689   2.347   1.667  11.196  0.1216  0.4755 -0.4134
 1490W        W 5690   1.215   4.165   1.191  0.2381  0.5334 -0.2990
 1491W        W 5691   2.041   0.299  12.407 -0.1280  0.2506  0.2681
 1492W        W 5692  10.332   4.720   2.763  0.0523  0.0338 -0.0015
 1493W        W 5693   2.916   6.158  12.088 -0.0777 -0.0895 -0.0071
 1494W        W 5694  10.081   8.519  13.089 -0.2762 -0.0460 -0.0111
 1495W        W 5695   9.458   6.878   3.898  0.2707  0.1480  0.3451
 1496W        W 5696   5.074   8.294  11.057 -0.0789 -0.0187  0.1065
 1497W        W 5697   6.661   5.595   0.728  0.2307  0.2739  0.0408
 1498W        W 5698   2.714   8.289   2.574  0.2626  0.0559  0.2010
 1499W        W 5699   7.689   5.210   4.501  0.1358  0.1087  0.0716
 1500W        W 5700   3.899   1.340  10.059 -0.0221  0.0187  0.3208
 1501W        W 5701   9.288   0.391  11.938 -0.0890  0.1101  0.1317
 1502W        W 5702   8.702   3.719   1.536 -0.1641 -0.0451 -0.1455
 1503W        W 5703   7.731   8.126  10.420  0.2693  0.1614 -0.0361
 1504W        W 5704   2.195   8.904  13.205  0.2196 -0.0435 -0.0582
 1505W        W 5705   9.120   0.184   3.153 -0.0956 -0.2028  0.1267
 1506W        W 5706   5.483   3.555   8.748  0.0350  0.3611 -0.1279
 1507W        W 5707   5.636   0.045   9.493 -0.0266  0.1489 -0.1401
 1508W        W 5708   6.280   2.574  12.860 -0.1023  0.1401  0.0148
 1509W        W 5709   3.969   5.639  13.429  0.0450 -0.2801  0.2172
 1510W        W 5710   3.650   3.941   4.483  0.0378  0.0968  0.2622
 1511W        W 5711   2.087   4.703   4.240 -0.1003  0.1012  0.2435
 1512W        W 5712   4.286  10.442   9.927 -0.0749 -0.2409  0.1346
 1513W        W 5713   5.179   4.340  10.314 -0.1217  0.1128  0.0836
 1514W        W 5714   0.999   6.121   2.748 -0.1599  0.0399 -0.1346
 1515W        W 5715   5.842   2.122   9.483  0.2088  0.1014 -0.1766
 1516W        W 5716   3.994   0.465   9.815 -0.0928  0.1100  0.0849
 1517W        W 5717   6.196   7.224   1.308  0.1762  0.0576 -0.0834
 1518W        W 5718   2.554   7.914   9.175 -0.1287 -0.1881  0.0272
 1519W        W 5719   1.394   5.986  11.393 -0.1456 -0.2016  0.3108
 1520W        W 5720   2.025   3.309   2.668 -0.0665  0.2611 -0.1152
 1521W        W 5721   7.885   8.087   2.272 -0.0099  0.0060  0.4105
 1522W        W 5722   8.963   6.023   4.650  0.2212 -0.0655 -0.0315
 1523W        W 5723   9.181   3.478  10.623 -0.3714  0.1111  0.0887
 1524W        W 5724   5.689   4.074   3.231  0.3172 -0.1288 -0.0402
 1525W        W 5725   0.532   2.062   3.632 -0.0401 -0.1005  0.3093
 1526W        W 5726   9.751  10.388  11.796 -0.1505 -0.2511  0.2545
 1527W        W 5727   5.756   0.002   0.778  0.0491 -0.0954 -0.0004
 1528W        W 5728   2.157   9.545   3.371 -0.1630  0.0808 -0.0527
 1529W        W 5729   8.435   8.983   9.733  0.1852  0.0006 -0.0123
 1530W        W 5730   8.599   5.644  11.730  0.0738  0.1757 -0.4049
 1531W        W 5731   6.519   1.567   2.800 -0.1056 -0.2614 -0.1488
 1532W        W 5732   1.084  10.244  12.563  0.1000  0.1704  0.1014
 1533W        W 5733   5.476   2.822  13.024  0.3737 -0.0493  0.2731
 1534W        W 5734   8.982   2.320   1.729 -0.2663 -0.2651 -0.0355
 1535W        W 5735   7.724   0.362  13.428  0.2750  0.4314  0.0187
 1536W        W 5736   2.146   1.541   0.642  0.1999 -0.3780 -0.0483
 1537W        W 5737   0.826   4.136   0.757  0.0701  0.2698 -0.2376
 1538W        W 5738   2.753   8.758   2.297  0.0442  0.1580  0.3313
 1539W        W 5739   9.347   6.286  10.366 -0.0296  0.0158  0.0454
 1540W        W 5740   4.019   9.106  10.226  0.1416 -0.0747 -0.1565
 1541W        W 5741   1.522   8.640  12.013 -0.2893  0.1170 -0.0000
 1542W        W 5742   2.222   6.872   3.476 -0.3430 -0.0139 -0.1027
 1543W        W 5743   9.004   8.282   2.968  0.0069 -0.0100 -0.1216
 1544W        W 5744   6.488   6.608   9.717  0.0331 -0.1522 -0.0209
 1545W        W 5745   9.402   3.361   4.344  0.1547 -0.0040 -0.1258
 1546W        W 5746   9.409   3.867   0.859 -0.0170 -0.0044  0.1703
 1547W        W 5747   7.718   0.325  12.383  0.3425  0.2241  0.0514
 1548W        W 5748   7.089   2.740   3.318  0.0112  0.1052 -0.2663
 1549W        W 5749   3.998   8.621   4.250 -0.0890  0.2275 -0.1673
 1550W        W 5750   5.580   2.597   1.130 -0.0431  0.0046  0.0304
 1551W        W 5751   7.592   9.368  12.991 -0.1602  0.1395 -0.1177
 1552W        W 5752   2.153   5.597   0.901 -0.0713  0.0293 -0.2322
 1553W        W 5753   2.572   7.645   1.825  0.1722 -0.1985  0.0157
 1554W        W 5754   6.776   0.063   0.484 -0.2153 -0.1980 -0.2980
 1555W        W 5755  10.059   7.474   9.439 -0.0837 -0.1762 -0.1254
 1556W        W 5756  10.143   3.976   1.584 -0.1091  0.1108  0.1283
 1557W        W 5757   8.160   2.224   9.875 -0.1542 -0.0819  0.0048
 1558W        W 5758   1.918   2.921   3.551  0.0984 -0.1018  0.0185
 1559W        W 5759   3.635   5.015  11.432  0.0464  0.3382  0.0178
 1560W        W 5760   3.732   9.016  11.901  0.1653 -0.0281  0.3213
 1561W        W 5761   2.107   0.067  10.354 -0.1392  0.0036  0.1811
 1562W        W 5762   7.919   1.549   3.281  0.0684 -0.2291  0.0874
 1563W        W 5763  10.202   7.820  11.078 -0.3672 -0.0620  0.0830
 1564W        W 5764   5.988   6.217   3.449  0.2975  0.1110  0.2388
 1565W        W 5765   4.789   8.667   2.565 -0.0633  0.1124  0.2865
 1566W        W 5766   5.247   4.976   2.873 -0.1241 -0.3087  0.0897
 1567W        W 5767   0.510   4.807   5.938  0.0756 -0.1955 -0.0667
 1568W        W 5768   7.341   3.725   0.979  0.1044  0.0111 -0.0583
 1569W        W 5769   3.666   1.062   2.232  0.0684 -0.1209 -0.0474
 1570W        W 5770   2.289   1.566   3.316 -0.0426 -0.2169 -0.0862
 1571W        W 5771   0.856   1.135  12.565 -0.1883 -0.1724  0.4152
 1572W        W 5772   1.400   0.019   2.026 -0.1030  0.1979 -0.0754
 1573W        W 5773   3.592   9.384   2.064  0.1589 -0.0661 -0.0681
 1574W        W 5774   3.320   0.857   1.043  0.2178 -0.4330 -0.2033
 1575W        W 5775   0.185   6.227   1.472 -0.2479  0.2323 -0.2467
 1576W        W 5776   0.950   8.918   2.952  0.0339 -0.2250 -0.1752
 1577W        W 5777   3.828   7.029  12.247 -0.0716  0.0728 -0.2331
 1578W        W 5778   7.359   7.815   0.563  0.0232  0.3344  0.0875
 1579W        W 5779   4.556   5.792   8.903 -0.0648  0.0458 -0.0954
 1580W        W 5780   0.455   7.827   4.911 -0.0699  0.0368  0.0816
 1581W        W 5781   6.662   7.329  10.387  0.1976 -0.1192 -0.0283
 1582W        W 5782   9.691   4.563  10.880  0.3357 -0.3822 -0.2354
 1583W        W 5783   4.649  10.378   2.536 -0.1340  0.1398 -0.1559
 1584W        W 5784   5.985   6.869  12.831 -0.0986 -0.2588 -0.0491
 1585W        W 5785   2.344   8.886   9.558  0.0245  0.2502 -0.0249
 1586W        W 5786   7.247   4.109   0.184  0.2440  0.0876 -0.1851
 1587W        W 5787   9.113   5.894  12.961  0.1040 -0.2326  0.0945
 1588W        W 5788   0.677   3.387  10.992 -0.2198  0.1156  0.1820
 1589W        W 5789   6.408   5.453  13.244 -0.0031  0.0016 -0.0256
 1590W        W 5790   0.280   4.518   2.388  0.1519 -0.0034 -0.1278
 1591W        W 5791   9.779   7.574   0.987  0.3187  0.0058  0.1868
 1592W        W 5792   9.796   1.500  13.476 -0.1299  0.0264  0.0026
 1593W        W 5793   1.782   1.164   9.045  0.1234  0.0970 -0.0446
 1594W        W 5794  10.323   3.692   4.295  0.2372  0.1086  0.0840
 1595W        W 5795   2.726   1.250   2.581  0.2141  0.3822 -0.0227
 1596W        W 5796   0.024   2.022   3.785  0.0816  0.0110  0.1553
 1597W        W 5797   9.376   8.768  12.557  0.0421 -0.0033 -0.1568
 1598W        W 5798   2.636   9.723  11.931 -0.2280  0.0507  0.2124
 1599W        W 5799   9.817   3.231   0.286 -0.1059  0.0503  0.0071
 1600W        W 5800   3.775   4.187   3.341 -0.0724 -0.0222  0.1704
 1601W        W 5801  10.074   4.155  11.630 -0.1930  0.0226 -0.2773
 1602W        W 5802  10.296   4.066   0.533  0.3669 -0.2615  0.0908
 1603W        W 5803   7.925   4.808  10.718 -0.3033 -0.3942  0.4099
 1604W        W 5804   5.805   8.779   9.462  0.1289 -0.3128 -0.0351
 1605W        W 5805   7.620   7.733   3.681  0.0267  0.3076 -0.5015
 1606W        W 5806   1.591   4.589   2.477  0.2207 -0.1182 -0.0658
 1607W        W 5807  10.018   5.411  12.653 -0.3687 -0.2942 -0.0687
 1608W        W 5808   1.873   3.635   9.063  0.0537 -0.5066  0.3404
 1609W        W 5809   1.821   7.718   2.994 -0.0031  0.0869  0.2299
 1610W        W 5810   4.850   9.397   3.241 -0.1142  0.1024  0.0884
 1611W        W 5811   1.357   3.364   3.320  0.2108  0.0288  0.2404
 1612W        W 5812  10.291   3.087   4.149  0.1217 -0.2580 -0.1906
 1613W        W 5813   9.225   8.013  12.627 -0.2720 -0.1010 -0.0138
 1614W        W 5814   4.551   9.610   1.614  0.2469  0.0314  0.1280
 1615W        W 5815   1.685   0.003  11.070  0.1166 -0.0427 -0.3733
 1616W        W 5816   3.060   8.626   5.219 -0.4426  0.0576  0.0367
 1617W        W 5817   8.030   3.360   2.431  0.0516  0.0871  0.0251
 1618W        W 5818   7.098   4.158   3.795 -0.1230  0.0529  0.4470
 1619W        W 5819   9.023   5.895   1.431 -0.3953  0.3620  0.2269
 1620W        W 5820   0.902   1.099   0.858  0.1123  0.0035  0.2327
 1621W        W 5821   9.972   9.481   0.039  0.4858 -0.0840 -0.0766
 1622W        W 5822   5.214   0.638   2.970 -0.0168 -0.3310 -0.1006
 1623W        W 5823   7.908   4.571   2.358 -0.1321 -0.0788  0.0624
 1624W        W 5824  10.407   8.154  12.937 -0.0962 -0.1218 -0.1544
 1625W        W 5825   7.893  10.137   0.356  0.1750  0.3935 -0.2527
 1626W        W 5826   3.668   1.937  12.444 -0.0064  0.0625  0.2299
 1627W        W 5827   8.440   3.387   2.833 -0.3682  0.1788  0.2952
 1628W        W 5828   9.423   0.144   1.462  0.1009  0.0354 -0.0164
 1629W        W 5829   5.554   3.482  11.983 -0.1677  0.0509  0.0249
 1630W        W 5830   5.875   5.438   3.819  0.0298  0.1262  0.0245
 1631W        W 5831   3.533   0.695   9.676  0.0377 -0.2007 -0.2948
 1632W        W 5832   9.531   5.862  11.551 -0.0596  0.0139 -0.0445
 1633W        W 5833   1.386   7.073   2.104 -0.0997  0.2015  0.0504
 1634W        W 5834   8.334   6.700  10.268  0.2483 -0.3818  0.2571
 1635W        W 5835   8.737   2.638  12.821  0.2513  0.1254 -0.0699
 1636W        W 5836   1.859   8.234   9.376 -0.0499  0.0535  0.0880
 1637W        W 5837   1.322   6.649   2.436  0.0721  0.0275  0.0357
 1638W        W 5838   7.210   3.357  12.223 -0.3266 -0.2827  0.0533
 1639W        W 5839   4.157   6.451   0.128 -0.0789  0.1082 -0.1340
 1640W        W 5840   2.013   3.792  11.390  0.0613 -0.0962 -0.0357
 1641W        W 5841   5.358   2.415  12.735  0.0619  0.0796 -0.1284
 1642W        W 5842   5.448   1.100   9.296  0.1540 -0.1213  0.1860
 1643W        W 5843   3.557   2.165  10.483  0.2443 -0.1455 -0.0334
 1644W        W 5844   3.255   0.467   4.987  0.1438  0.0481  0.0670
 1645W        W 5845   4.857   0.426  11.823 -0.1087  0.1841 -0.5225
 1646W        W 5846   4.918   3.332   0.013  0.1606 -0.1943 -0.0026
 1647W        W 5847   0.964   3.823  11.241  0.0793  0.1875  0.2078
 1648W        W 5848  10.298   0.525   7.931 -0.0978  0.2846 -0.2467
 1649W        W 5849   5.701   6.039   9.708 -0.1240 -0.1033 -0.1663
 1650W        W 5850   3.021   6.038  10.563 -0.0223 -0.1244  0.1686
 1651W        W 5851   4.974   7.504   9.077  0.0940 -0.1186  0.4441
 1652W        W 5852   5.876   6.834   9.120  0.1818  0.0687  0.2241
 1653W        W 5853   8.623   1.451   3.008 -0.3019 -0.0159 -0.2493
 1654W        W 5854   6.066   3.955   0.320  0.1059 -0.1320  0.0706
 1655W        W 5855   3.252   7.478   4.477 -0.1465  0.0626 -0.0673
 1656W        W 5856   5.545   6.705   4.511 -0.1692 -0.1636  0.1047
 1657W        W 5857   7.435   5.259   0.868 -0.2327 -0.3678  0.0339
 1658W        W 5858   7.904   1.055  11.285  0.2305  0.1677  0.1692
 1659W        W 5859   4.843   1.637   1.229  0.3333  0.2336  0.1486
 1660W        W 5860   2.578   3.071   8.656  0.3520 -0.2564 -0.2559
 1661W        W 5861   3.385   5.040   3.598  0.0487  0.0444  0.1650
 1662W        W 5862   0.898   7.172   1.846  0.2482  0.2882  0.0034
 1663W        W 5863   3.545   0.070   0.488  0.0738  0.0234 -0.1044
 1664W        W 5864   6.829   4.723   3.265  0.1429  0.0970  0.1925
 1665W        W 5865   2.624  10.098   9.368 -0.1454  0.0260 -0.0510
 1666W        W 5866   9.936   6.047   3.582  0.2693 -0.1749 -0.0597
 1667W        W 5867   6.744   4.046   2.127 -0.3755  0.1784 -0.1261
 1668W        W 5868   1.840   8.823  12.826 -0.2322 -0.1713 -0.2004
 1669W        W 5869   5.221   7.872   3.598 -0.2908  0.0345  0.0143
 1670W        W 5870   8.690   6.453   2.669 -0.1460  0.0220  0.0953
 1671W        W 5871   9.569   7.769   3.561 -0.0211  0.2025  0.2189
 1672W        W 5872  10.352   3.274   2.984  0.1497 -0.0839  0.0013
 1673W        W 5873   3.103   5.228   9.922 -0.1334 -0.2613  0.0327
 1674W        W 5874   8.789   3.634  11.890  0.0864 -0.4600 -0.0528
 1675W        W 5875   8.231   6.398  11.634  0.1565  0.1859 -0.2688
 1676W        W 5876   2.890   1.504   1.712 -0.2815  0.1492  0.0185
 1677W        W 5877   6.398   0.299   4.578 -0.3049  0.2908 -0.2859
 1678W        W 5878   7.101   5.462   2.922 -0.2548 -0.1293  0.0079
 1679W        W 5879   2.825   8.320  12.638 -0.2120 -0.0895 -0.2244
 1680W        W 5880   6.748   3.225   3.590  0.1515  0.2230 -0.0749
 1681W        W 5881   1.671   0.231   4.233  0.1463 -0.2990  0.0226
 1682W        W 5882   0.859   6.901   0.388  0.4221 -0.3192 -0.2505
 1683W        W 5883   3.052   7.862   9.229  0.1165 -0.1376 -0.1294
 1684W        W 5884   5.517   5.229  11.324 -0.0125  0.0504  0.2573
 1685W        W 5885   6.492   3.724   2.709 -0.0790 -0.1787  0.0329
 1686W        W 5886   5.633   9.991  13.192  0.2318 -0.2564  0.0877
 1687W        W 5887   4.786  10.158   0.363 -0.2719 -0.0619 -0.0461
 1688W        W 5888   3.417   3.026  12.074 -0.0805 -0.0895  0.0633
 1689W        W 5889   7.291   4.006  10.607 -0.1671  0.0588  0.1047
 1690W        W 5890   8.809   3.154  13.022  0.2617 -0.2180 -0.2053
 1691W        W 5891   0.415   8.818  10.986 -0.0431 -0.0629 -0.2350
 1692W        W 5892   2.973   2.043   0.616  0.1074 -0.0963  0.0464
 1693W        W 5893   3.803   7.991   9.860  0.3961 -0.1044  0.1274
 1694W        W 5894   1.089   5.759   5.056 -0.1351 -0.3413  0.0335
 1695W        W 5895   3.965   6.249   2.790  0.2480  0.2639  0.4099
 1696W        W 5896   5.953   9.641  10.862 -0.5862 -0.3056  0.0195
 1697W        W 5897   8.115   5.267   2.576  0.0858 -0.0733 -0.2656
 1698W        W 5898   5.696  10.369   2.495  0.0503 -0.1408 -0.0865
 1699W        W 5899   1.617   6.156   8.907  0.0055  0.2012  0.1217
 1700W        W 5900   1.711   7.866  10.833  0.1481 -0.2729 -0.1659
 1701W        W 5901   8.400   1.338   2.585 -0.2674 -0.0853  0.1188
 1702W        W 5902   3.560   2.965   2.122 -0.1952  0.2820 -0.2440
 1703W        W 5903  10.430   8.631  12.621  0.0109  0.1169 -0.0368
 1704W        W 5904   8.588   5.919  13.235 -0.2439 -0.0652 -0.1254
 1705W        W 5905   2.174   7.907   1.325 -0.0083  0.3118  0.2886
 1706W        W 5906   1.753   7.781   2.458  0.0135 -0.3271 -0.0978
 1707W        W 5907   1.664   7.253   0.855 -0.2677 -0.1225 -0.4225
 1708W        W 5908   4.241   6.776   2.435 -0.0308  0.0836 -0.0090
 1709W        W 5909   1.746   1.024   2.453 -0.0311 -0.2626 -0.0307
 1710W        W 5910   3.548   7.298   2.033 -0.0369 -0.0669 -0.0812
 1711W        W 5911   6.149   6.521   3.942 -0.0284  0.1856  0.3755
 1712W        W 5912   0.342   3.635   4.760  0.0706 -0.2063 -0.0003
 1713W        W 5913   8.016   6.756   2.080 -0.0063  0.0126  0.0598
 1714W        W 5914   5.012   0.160   0.126 -0.0055 -0.0290  0.1198
 1715W        W 5915   1.066   4.258   5.356  0.0737  0.0468  0.0386
 1716W        W 5916   2.757   6.871   4.712 -0.1810 -0.1626  0.3007
 1717W        W 5917   6.923   9.188  13.178  0.3303 -0.1025 -0.1493
 1718W        W 5918   4.509   0.729   9.786  0.1198  0.2530 -0.0918
 1719W        W 5919   4.218   6.778   3.452 -0.3490  0.5735  0.0707
 1720W        W 5920   5.414   6.836  12.263 -0.2904  0.2898  0.1326
 1721W        W 5921   1.856   2.793   2.054  0.0445 -0.3769 -0.1472
 1722W        W 5922   5.048   2.917  11.363 -0.2516  0.1115  0.0934
 1723W        W 5923   3.232   6.518  10.726 -0.2277  0.2952  0.1721
 1724W        W 5924   8.653   6.288   9.471 -0.1448 -0.0168  0.1165
 1725W        W 5925   9.658   1.819  11.188  0.1873 -0.3324 -0.2606
 1726W        W 5926   0.104   4.320   1.945 -0.0076  0.2005 -0.0011
 1727W        W 5927   7.986   4.578  11.983  0.0913 -0.2347  0.2790
 1728W        W 5928   5.151   9.895  10.426  0.0634 -0.2956  0.0906
 1729W        W 5929   6.981   6.992  10.625  0.0021  0.0956 -0.1525
 1730W        W 5930   7.476   6.014  12.761 -0.2316 -0.1606  0.2288
 1731W        W 5931   2.622   7.466   1.177 -0.0005  0.1656  0.0154
 1732W        W 5932   5.089   1.349   3.046  0.2447  0.0881  0.1892
 1733W        W 5933   7.363   1.575  13.079 -0.1527 -0.2199 -0.0237
 1734W        W 5934   2.633   7.433  11.083 -0.2798  0.0716 -0.1763
 1735W        W 5935   9.736   0.145   1.905  0.1271 -0.2310 -0.2407
 1736W        W 5936   8.456   1.556  13.445  0.1107  0.0112  0.3079
 1737W        W 5937  10.089   1.213   0.974 -0.1294  0.0513  0.2605
 1738W        W 5938   9.632   7.887   0.217  0.0294  0.2192  0.0723
 1739W        W 5939   8.178   6.009   9.414  0.1187  0.2550 -0.0701
 1740W        W 5940   7.575  10.457  10.378  0.0065  0.2554 -0.2522
 1741W        W 5941   5.793   3.189   9.149 -0.0862  0.1040 -0.0482
 1742W        W 5942   8.705   4.370   2.638 -0.2238  0.1067 -0.0701
 1743W        W 5943   5.070   5.155   4.438 -0.0026  0.2769  0.0239
 1744W        W 5944   4.475   8.522   5.119  0.1517 -0.0231  0.2964
 1745W        W 5945   6.758   7.976   9.871  0.2314  0.1549  0.1510
 1746W        W 5946   9.105   5.106  11.351 -0.1196  0.1398  0.0670
 1747W        W 5947   8.275   7.409  10.853 -0.0490  0.0231  0.0235
 1748W        W 5948   9.560   6.960   2.675 -0.1008 -0.2161  0.0158
 1749W        W 5949   1.525   9.656   4.076  0.1587 -0.1437  0.4742
 1750W        W 5950   9.393   3.794   1.694 -0.0774 -0.0138 -0.0893
 1751W        W 5951   0.063   3.819  10.293  0.0522  0.1285  0.0913
 1752W        W 5952  10.138   9.758   2.434 -0.1704  0.1194 -0.0778
 1753W        W 5953   6.176   2.255  10.739  0.0577 -0.2248 -0.0837
 1754W        W 5954   7.586   0.547  11.428 -0.0553  0.2794 -0.2463
 1755W        W 5955   2.706   6.206   4.079 -0.0238  0.0234 -0.2565
 1756W        W 5956   7.908   6.199  11.299  0.1518  0.1305  0.2359
 1757W        W 5957   7.287   8.571   0.730  0.1664 -0.0151 -0.0286
 1758W        W 5958   8.338   9.049   0.782 -0.2404 -0.1137 -0.1192
 1759W        W 5959   7.380   9.716   2.309  0.1097 -0.1843  0.0354
 1760W        W 5960   6.507   1.278   8.643 -0.2414  0.1540  0.2492
 1761W        W 5961   2.721   3.703   4.082  0.0523  0.2278  0.4035
 1762W        W 5962   1.863   7.049  13.433 -0.2229 -0.0777 -0.2270
 1763W        W 5963  10.319   8.169  12.004  0.0553  0.1423 -0.1135
 1764W        W 5964   4.880   4.622   2.577 -0.2315  0.3901  0.0722
 1765W        W 5965   4.477   9.522  11.088 -0.0970 -0.2818 -0.0670
 1766W        W 5966   1.616   3.892   0.957 -0.0304  0.0160 -0.0161
 1767W        W 5967   0.592   5.571   3.535  0.1093 -0.0615  0.0273
 1768W        W 5968   8.852   9.502   1.505 -0.0542 -0.0589 -0.2915
 1769W        W 5969   5.831   1.312   4.175  0.3082 -0.1102  0.2864
 1770W        W 5970   3.957   5.414  11.488 -0.0131 -0.1176  0.0157
 1771W        W 5971   6.158   4.069   3.461  0.1733 -0.1899  0.2221
 1772W        W 5972   3.984   3.261   2.928  0.1320  0.1143  0.1575
 1773W        W 5973   3.899   6.327   1.863  0.0024 -0.0645  0.4108
 1774W        W 5974   5.554   1.097   3.847  0.2260  0.2681  0.1581
 1775W        W 5975   5.420   6.037   3.426 -0.2669  0.2112  0.0259
 1776W        W 5976   1.322   7.615   2.188  0.2159  0.0597 -0.0938
 1777W        W 5977   7.019  10.121   2.774 -0.0899 -0.0403  0.0245
 1778W        W 5978   2.908   1.230   1.278  0.0360 -0.0856 -0.4155
 1779W        W 5979   0.211   4.646   9.685  0.1854 -0.1024 -0.2183
 1780W        W 5980   5.410   7.407   3.379  0.1392 -0.1991  0.0730
 1781W        W 5981   9.523   5.036   4.974  0.0741  0.4787  0.1267
 1782W        W 5982   9.954   9.520  10.805 -0.5922 -0.0449  0.2664
 1783W        W 5983   8.355   7.265   0.058  0.2682  0.3732 -0.0855
 1784W        W 5984   5.432   2.041   9.241 -0.1109  0.3291  0.3022
 1785W        W 5985   4.517   6.226   2.790  0.3760 -0.1590 -0.2185
 1786W        W 5986   3.951   0.579  13.181  0.2931  0.0438 -0.1870
 1787W        W 5987   5.478   4.640  12.377  0.0621 -0.1481 -0.2152
 1788W        W 5988  10.151   8.280   9.971  0.1118  0.2449 -0.1839
 1789W        W 5989   5.610   1.409   0.259  0.3127 -0.0987  0.2176
 1790W        W 5990   3.764  10.343  11.698 -0.2912  0.0596 -0.1795
 1791W        W 5991   2.725   2.444   3.341  0.2907  0.0302  0.3177
 1792W        W 5992   6.909   0.581   2.822 -0.0842 -0.0606  0.1594
 1793W        W 5993   7.669   1.043   3.899 -0.3449 -0.5559 -0.2948
 1794W        W 5994   5.593   7.758   9.604  0.2584 -0.0962  0.0141
 1795W        W 5995   6.899   5.657   2.402  0.2191 -0.1140 -0.1676
 1796W        W 5996   4.217   0.704   3.566  0.4517  0.1380 -0.0564
 1797W        W 5997   8.017   4.936   9.265  0.3054  0.1389 -0.1732
 1798W        W 5998  10.211   7.936   0.019 -0.0575  0.1239  0.1484
 1799W        W 5999   5.142   9.244   9.992  0.0310 -0.0065 -0.2211
 1800W        W 6000   8.768   9.431   0.677 -0.1001 -0.1969  0.1494
 1801W        W 6001   3.255   6.635  10.269 -0.0061  0.2282 -0.2128
 1802W        W 6002   7.227   8.636   2.821 -0.0096  0.0603 -0.0517
 1803W        W 6003   0.784   0.967  13.471  0.1656  0.0949  0.2225
 1804W        W 6004   5.539   8.619  12.200 -0.0753 -0.1244 -0.2423
 1805W        W 6005   8.134   3.696  12.073 -0.0677 -0.0713 -0.0467
 1806W        W 6006   7.180   3.335  13.100 -0.2510  0.4103 -0.0352
 1807W        W 6007   8.798   8.397   1.121  0.1731 -0.0154 -0.2005
 1808W        W 6008   5.793   1.725   1.726  0.2251  0.0818  0.0051
 1809W        W 6009   1.848   1.872   0.352 -0.0066  0.0701 -0.1651
 1810W        W 6010   3.557   7.515  13.427  0.2675  0.0022  0.1359
 1811W        W 6011   2.549   6.057   2.280  0.0130 -0.0238 -0.1785
 1812W        W 6012   7.536   8.249   0.456  0.0057  0.1684 -0.0044
 1813W        W 6013   1.303   7.984   1.882  0.3583 -0.1661 -0.0944
 1814W        W 6014   2.593   8.552  12.266  0.0066  0.0687  0.0663
 1815W        W 6015  10.038   3.684  11.925 -0.2197  0.4095  0.0729
 1816W        W 6016   4.203   2.734  13.412 -0.4942 -0.4784 -0.0390
 1817W        W 6017   6.285   6.820   0.588 -0.2301  0.2444  0.0172
 1818W        W 6018   3.081   6.141   2.356  0.0328 -0.0751 -0.0695
 1819W        W 6019   9.970   7.717   4.570  0.2775  0.2172 -0.0412
 1820W        W 6020   9.533   8.750   2.568  0.1812 -0.0334 -0.0231
 1821W        W 6021   3.606   7.548  10.447 -0.1457 -0.1539  0.1654
 1822W        W 6022   6.987   2.025   1.546  0.0426 -0.0386  0.0414
 1823W        W 6023   7.754   8.144   1.309 -0.1435  0.1704 -0.0846
 1824W        W 6024   1.550   7.104   4.255  0.4186 -0.1203  0.1649
 1825W        W 6025   5.756   8.251  13.292  0.0533 -0.0149 -0.0961
 1826W        W 6026   3.338   0.818   8.404  0.0719  0.0146 -0.0430
 1827W        W 6027   0.331   6.719  12.836  0.0162 -0.1368 -0.1275
 1828W        W 6028   0.866   6.008  12.182  0.0399  0.2192 -0.2120
 1829W        W 6029   0.109   2.793   4.391  0.0257  0.1527 -0.0139
 1830W        W 6030   5.035   7.431   0.083  0.1189 -0.1215  0.1683
 1831W        W 6031   3.655   3.834  11.241  0.2120  0.0405  0.0364
 1832W        W 6032   2.708   0.424   1.443  0.0090  0.0280  0.1133
 1833W        W 6033  10.057   3.612   0.517 -0.1800 -0.0517 -0.2625
 1834W        W 6034   4.894   1.865   3.880 -0.0867  0.0475  0.2322
 1835W        W 6035   3.075   7.457   3.965 -0.1662 -0.1362 -0.0989
 1836W        W 6036   4.803   8.560  12.538 -0.1833 -0.1014 -0.0879
 1837W        W 6037   6.593   9.154   1.606  0.0477 -0.0294  0.1353
 1838W        W 6038   7.663   1.897  12.793  0.0350 -0.0900  0.0505
 1839W        W 6039   2.630   5.023   3.224  0.0464  0.1499  0.0905
 1840W        W 6040   6.582   6.861   0.999 -0.3450 -0.2325  0.1359
 1841W        W 6041  10.345   6.281  10.768 -0.2386  0.0694  0.0555
 1842W        W 6042   7.758   1.653  10.639  0.0577  0.2790  0.2898
 1843W        W 6043   2.519   4.316   1.733  0.2794  0.4900  0.2711
 1844W        W 6044   9.461   1.604  12.522 -0.1183  0.1084 -0.0561
 1845W        W 6045   3.145   6.508  13.352 -0.2413  0.0355  0.0040
 1846W        W 6046   5.006   0.825   5.289 -0.1942  0.1322  0.1344
 1847W        W 6047   9.514   4.108  11.543  0.0460 -0.0496  0.1716
 1848W        W 6048   4.083   8.623   1.889 -0.2037  0.2686 -0.1522
 1849W        W 6049   0.202   8.997   4.789 -0.0993  0.2055  0.0976
 1850W        W 6050   6.239   7.442  12.402  0.2055  0.0676 -0.0434
 1851W        W 6051   6.127   7.315   3.560  0.2501  0.2834 -0.0179
 1852W        W 6052   1.633   6.014   3.438 -0.0756 -0.0706 -0.1851
 1853W        W 6053   7.550   0.141   3.973 -0.0479  0.0191 -0.1168
 1854W        W 6054   5.849   2.553  12.609 -0.1766  0.2957  0.0020
 1855W        W 6055   4.580   5.643   1.605 -0.0368  0.0464 -0.2260
 1856W        W 6056   9.262   8.278   3.424  0.1792  0.0994  0.1746
 1857W        W 6057   7.263   0.963   9.971 -0.1671 -0.0174 -0.1114
 1858W        W 6058   9.400   7.144  12.759 -0.1832  0.4480 -0.3830
 1859W        W 6059   8.656   7.856   0.749  0.0522 -0.3505 -0.1299
 1860W        W 6060   1.004   0.587   0.384  0.1086  0.0339 -0.1484
 1861W        W 6061   8.507   1.179   1.351 -0.0547  0.1556 -0.1658
 1862W        W 6062   2.019   7.863  11.734  0.0489  0.1158 -0.0199
 1863W        W 6063   9.885   0.642   2.813  0.0065 -0.0251 -0.0913
 1864W        W 6064   6.581   4.083   3.052  0.2529 -0.0356 -0.0363
 1865W        W 6065   1.693   8.511   4.611 -0.3295 -0.0595  0.0133
 1866W        W 6066   8.989   6.554  13.025 -0.4237  0.2354 -0.0868
 1867W        W 6067   8.732   9.353  13.303  0.0214  0.1449 -0.1615
 1868W        W 6068   2.906   0.095   9.294  0.1268  0.0031 -0.1065
 1869W        W 6069   2.465   9.965  11.180  0.1630  0.0047 -0.0415
 1870W        W 6070   4.292   0.851   0.122  0.1568  0.0788 -0.0812
 1871W        W 6071   2.031   2.685  11.277 -0.0986  0.3413  0.0343
 1872W        W 6072   5.168   2.004   2.375 -0.0280 -0.1241 -0.0489
 1873W        W 6073   4.899   9.821  12.991  0.0076  0.1438  0.1647
 1874W        W 6074   4.004   1.866   0.830 -0.4216 -0.2182  0.0214
 1875W        W 6075   7.796   5.849   9.099  0.0658  0.0188  0.2094
 1876W        W 6076   4.807   2.331  12.623 -0.4111  0.2310  0.1353
 1877W        W 6077   6.474  10.461  12.590 -0.2529  0.3327 -0.3271
 1878W        W 6078   1.199   6.166   3.840  0.0263  0.0851 -0.1466
 1879W        W 6079   6.523   2.748  10.016  0.1698 -0.1990  0.1161
 1880W        W 6080   3.842   4.993   9.582  0.1613  0.2312  0.2156
 1881W        W 6081  10.231  10.193   0.921 -0.2005 -0.0228 -0.2771
 1882W        W 6082   3.336  10.267  13.035  0.1873 -0.0998 -0.1106
 1883W        W 6083   3.204   8.567  10.961  0.0718 -0.0871  0.0584
 1884W        W 6084   7.088   2.665  12.156 -0.2207 -0.1379 -0.4197
 1885W        W 6085   1.647   9.908  12.882 -0.2622 -0.0233  0.0851
 1886W        W 6086   9.716   8.139   3.851 -0.0951  0.2082 -0.0485
 1887W        W 6087   5.426   9.217  12.076  0.2255 -0.1433 -0.3829
 1888W        W 6088   0.739   3.779   1.188 -0.0040  0.1248  0.0450
 1889W        W 6089   9.007   1.496  12.777  0.0156 -0.1214 -0.0229
 1890W        W 6090   5.425   4.855   1.870  0.0190 -0.0215 -0.2041
 1891W        W 6091   6.277   8.297   2.691 -0.0012  0.0705 -0.0184
 1892W        W 6092   2.541   0.134  11.613 -0.2000  0.0925 -0.1006
 1893W        W 6093   0.623   9.063  10.216 -0.1727  0.0477 -0.1386
 1894W        W 6094   1.369   9.427  12.715 -0.0132 -0.0679 -0.3701
 1895W        W 6095   8.546   8.383   0.661 -0.2446 -0.1781 -0.2111
 1896W        W 6096   5.174   7.796   5.365  0.1522  0.1405 -0.0620
 1897W        W 6097   4.268   5.228   3.475  0.3173 -0.1329  0.3549
 1898W        W 6098   1.330   3.324   9.304  0.0986  0.0225  0.1730
 1899W        W 6099   2.050   0.108  13.387  0.2537  0.0149 -0.0206
 1900W        W 6100   2.261   4.332   4.526 -0.0787  0.0579 -0.0345
 1901W        W 6101   7.761   4.751   4.779 -0.2107  0.2174  0.3512
 1902W        W 6102  10.307   7.701   1.790 -0.3212  0.0812  0.0608
 1903W        W 6103   3.545   7.123  10.727  0.5287 -0.2528 -0.0340
 1904W        W 6104   2.189   2.577   1.095  0.1297 -0.2655  0.0144
 1905W        W 6105  10.167   0.033   3.301  0.0456  0.4932 -0.2171
 1906W        W 6106   6.989   3.105   9.962  0.1022  0.0562  0.2981
 1907W        W 6107   5.871   0.881   9.888  0.2647  0.0197 -0.2377
 1908W        W 6108   3.436   4.816   1.992 -0.0976 -0.0898  0.1949
 1909W        W 6109   0.247   0.435   3.468  0.1287 -0.0869  0.0569
 1910W        W 6110   7.911   5.960   4.428  0.1797 -0.1899  0.4774
 1911W        W 6111   1.116   3.743   0.733 -0.4045 -0.2275  0.1856
 1912W        W 6112   8.467   6.180   2.232  0.1538  0.1377  0.3547
 1913W        W 6113   5.024   6.039   2.080  0.2950  0.0091  0.0016
 1914W        W 6114   1.788   2.610  13.232 -0.3092 -0.1077 -0.1762
 1915W        W 6115   0.159   1.031  10.551  0.1744  0.2302  0.0421
 1916W        W 6116   5.092   3.132  13.040  0.0571  0.1010 -0.0873
 1917W        W 6117   2.552   9.968   1.175  0.0553 -0.0183  0.0670
 1918W        W 6118   7.908   3.045  10.142 -0.1725 -0.3121  0.2132
 1919W        W 6119   9.736   9.262   0.416 -0.0247  0.0599 -0.1594
 1920W        W 6120   4.368   7.536   0.894 -0.0681  0.0720  0.0826
 1921W        W 6121   3.345   5.740  13.273  0.1971  0.1079  0.1666
 1922W        W 6122   1.385   3.239   4.629 -0.0765 -0.0644  0.0283
 1923W        W 6123   3.218  10.281   4.374 -0.2293  0.2349 -0.1195
 1924W        W 6124  10.222   9.285   0.419 -0.0963 -0.2066 -0.0508
 1925W        W 6125   5.024   3.241  10.855  0.1530  0.1851 -0.0205
 1926W        W 6126   2.455   2.185   9.989 -0.0091  0.1195 -0.0914
 1927W        W 6127   3.792   9.855   4.577  0.0545 -0.0867 -0.0776
 1928W        W 6128   9.777   6.844  10.364 -0.2645 -0.0151 -0.2142
 1929W        W 6129   9.532   8.889  13.007 -0.0085  0.0663  0.3884
 1930W        W 6130   4.589   7.814   9.879 -0.2186  0.0191 -0.1558
 1931W        W 6131   7.985   3.945  11.092  0.0364  0.1293  0.0479
 1932W        W 6132   6.891   6.694  11.577  0.0133 -0.0821 -0.1546
 1933W        W 6133   6.297   4.797   2.548 -0.2267  0.0959 -0.0777
 1934W        W 6134   4.956   5.546   0.178  0.2409 -0.0110  0.1019
 1935W        W 6135  10.340   3.229  13.013 -0.4931  0.3297 -0.1716
 1936W        W 6136   1.371  10.162   0.273 -0.1060  0.1242  0.0402
 1937W        W 6137   0.689   2.708  11.322  0.3996 -0.0477  0.2535
 1938W        W 6138   1.921   6.548   4.883 -0.2539 -0.0469  0.0747
 1939W        W 6139   4.411   7.613   3.727 -0.1045 -0.0311 -0.0770
 1940W        W 6140   3.200   5.157   1.125  0.3163 -0.0503 -0.1428
 1941W        W 6141   6.167   2.836   0.297 -0.1914 -0.0820 -0.0257
 1942W        W 6142   5.647   1.638   9.454 -0.0049 -0.0208 -0.0002
 1943W        W 6143   5.657   8.918  13.411  0.1533  0.1440  0.3547
 1944W        W 6144   2.297   7.666  10.092 -0.0847 -0.0328 -0.1085
 1945W        W 6145   9.940   6.846   3.876 -0.1111  0.0370 -0.0096
 1946W        W 6146   5.692   5.046   9.456  0.2681 -0.0393  0.0836
 1947W        W 6147   1.801   2.918   3.056 -0.4640 -0.3068  0.0940
 1948W        W 6148   6.849   4.142   4.598 -0.3833 -0.0625 -0.0015
 1949W        W 6149   0.429  10.460   3.749 -0.4505  0.2331  0.1625
 1950W        W 6150   5.284   8.754   1.115  0.2970  0.0828  0.1619
 1951W        W 6151   4.687   2.103  11.446  0.0722  0.4705 -0.1172
 1952W        W 6152   2.182   7.572   0.229 -0.2235 -0.1296  0.1130
 1953W        W 6153   8.557   8.628  12.899 -0.0540 -0.0064 -0.0288
 1954W        W 6154   6.668   7.112   2.055  0.0825  0.1704  0.0799
 1955W        W 6155   1.051  10.029  10.979 -0.0340 -0.0100  0.0650
 1956W        W 6156   8.214   4.497   1.331 -0.2316  0.1380 -0.3988
 1957W        W 6157   1.388   9.565   3.505  0.1335  0.3747 -0.1989
 1958W        W 6158   1.888   0.211   0.728  0.3462 -0.2410  0.0658
 1959W        W 6159   4.654   7.345   9.593 -0.3257 -0.0859  0.2449
 1960W        W 6160   7.118   6.026   1.254 -0.1762  0.0123 -0.3704
 1961W        W 6161   1.565   7.244  10.611 -0.0143  0.0272  0.0776
 1962W        W 6162   4.349   6.336  10.131 -0.2021  0.3442 -0.1026
 1963W        W 6163   6.487   0.285   9.787 -0.2871  0.2434 -0.2014
 1964W        W 6164  10.368   5.229  11.743 -0.2616 -0.0653 -0.1189
 1965W        W 6165   8.050   9.846  12.987 -0.1346 -0.1287 -0.3583
 1966W        W 6166   5.581   0.961  12.151 -0.0145  0.0453 -0.0869
 1967W        W 6167   2.889   9.756   0.335  0.1243  0.2747  0.2129
 1968W        W 6168   9.309   0.727   1.064  0.0928  0.0459  0.3350
 1969W        W 6169   3.138   0.798  12.693 -0.0562  0.2817  0.0345
 1970W        W 6170   6.618   8.540  13.128  0.0173  0.3483 -0.1645
 1971W        W 6171   5.545   7.023  12.730 -0.1079 -0.0907  0.1051
 1972W        W 6172   0.197   1.722   3.428  0.1897 -0.2871 -0.0061
 1973W        W 6173   6.641   6.868  10.229 -0.2565 -0.1760  0.3542
 1974W        W 6174   2.713   8.532   1.582  0.1878 -0.0609 -0.0532
 1975W        W 6175   1.357   2.156  12.190 -0.1203  0.2560 -0.0092
 1976W        W 6176   8.620   7.271  10.494  0.0738 -0.0951  0.0917
 1977W        W 6177   0.829   2.264  11.591  0.1438 -0.2569 -0.1492
 1978W        W 6178   8.499   4.655   4.611  0.2199 -0.4020 -0.0570
 1979W        W 6179   9.426   7.407   2.913 -0.0449 -0.0141  0.0596
 1980W        W 6180  10.329   8.080   3.582 -0.0040 -0.0957  0.2970
 1981W        W 6181   8.687   6.090  11.445 -0.0151  0.2119  0.0997
 1982W        W 6182   4.430   2.452   1.895  0.1082 -0.1330 -0.2081
 1983W        W 6183   4.606   3.645   9.283 -0.1365 -0.0758 -0.0295
 1984W        W 6184   0.578   1.068   1.655  0.2080 -0.0742 -0.3282
 1985W        W 6185   1.284   6.999   5.495 -0.0384  0.1333 -0.2597
 1986W        W 6186   3.010   9.779   1.748  0.0548  0.0945 -0.0229
 1987W        W 6187   7.471   7.946  11.212 -0.3191 -0.0500 -0.5062
 1988W        W 6188   7.998   4.491  11.441  0.2060 -0.0709 -0.0071
 1989W        W 6189   7.480   2.956   9.657  0.2624 -0.2423 -0.0384
 1990W        W 6190   8.905   3.267   4.194  0.2937 -0.3707 -0.7789
 1991W        W 6191   2.849   9.305  11.624 -0.0239  0.0926  0.1304
 1992W        W 6192   2.523   2.118   3.705 -0.3833  0.0657 -0.0300
 1993W        W 6193   8.761   4.019   2.241 -0.0162  0.0612 -0.0071
 1994W        W 6194   9.431   9.004   3.942  0.2925  0.1606 -0.0241
 1995W        W 6195  10.263   1.334   3.230 -0.2962 -0.0039  0.0899
 1996W        W 6196   6.115   6.331   1.144  0.1257 -0.0950 -0.0429
 1997W        W 6197   2.874   6.253   1.799  0.2042 -0.2451 -0.1692
 1998W        W 6198   3.558   7.874   9.427 -0.0898  0.1372  0.1459
 1999W        W 6199   2.078   2.481   3.680 -0.0408 -0.0864  0.1436
 2000W        W 6200   7.513   9.509   0.934  0.0746 -0.0338  0.1469
 2001W        W 6201   7.787   1.327  13.138  0.3085 -0.2106 -0.1082
 2002W        W 6202   8.704   4.765   3.506 -0.0278  0.0907  0.2185
 2003W        W 6203   9.552   6.241   1.613 -0.0187  0.0877  0.1183
 2004W        W 6204   3.498   7.722   4.134  0.2375  0.0098 -0.0337
 2005W        W 6205   6.100   1.191   5.278  0.2328 -0.0611 -0.1476
 2006W        W 6206   5.599   0.953   1.604 -0.0743  0.1637 -0.0634
 2007W        W 6207   8.925   3.147   3.429 -0.3992  0.2300  0.1279
 2008W        W 6208   9.000   4.002   3.875  0.1735  0.0165 -0.3954
 2009W        W 6209   7.602   9.620   2.834  0.0839 -0.0848  0.0360
 2010W        W 6210   6.225   9.557  12.679 -0.0660 -0.2701  0.1564
 2011W        W 6211   5.180   3.776   9.519  0.1706  0.1069  0.2605
 2012W        W 6212   8.262   8.934   2.721 -0.0452 -0.0442  0.1147
 2013W        W 6213   5.672   9.258   9.778  0.2884 -0.2099  0.1574
 2014W        W 6214   1.284   5.620   3.433  0.0238  0.1781  0.3040
 2015W        W 6215   9.049   7.376  13.242  0.3851 -0.0680  0.0874
 2016W        W 6216   7.720   6.473   1.530 -0.1170 -0.0220 -0.0257
 2017W        W 6217   9.375   4.043   4.170 -0.1493 -0.0393 -0.0382
 2018W        W 6218   2.489   9.451   1.743 -0.3713 -0.1702  0.2059
 2019W        W 6219   7.679   9.569   9.345 -0.2302 -0.2737 -0.2022
 2020W        W 6220   6.500   9.808   0.823  0.0302  0.1489  0.0881
 2021W        W 6221   1.646   6.881  11.035  0.1191 -0.1026 -0.1917
 2022W        W 6222   5.099   7.126   1.944 -0.0455  0.0067  0.0710
 2023W        W 6223   1.409   9.979  12.292  0.0788 -0.1487  0.1872
 2024W        W 6224   6.117   3.635  11.890  0.0594  0.0847 -0.0678
 2025W        W 6225   0.413   2.798   1.195  0.2310  0.1548  0.0356
 2026W        W 6226   6.284  10.423   1.570  0.1796 -0.1968  0.0751
 2027W        W 6227   8.150   2.079   1.126  0.3114  0.0968  0.0113
 2028W        W 6228   0.594   6.640  11.678 -0.2564 -0.1745  0.1492
 2029W        W 6229   2.697   4.017  12.408 -0.0634  0.0212  0.3461
 2030W        W 6230   4.917   8.401   9.242 -0.0360  0.1851 -0.0388
 2031W        W 6231   7.048  10.228  11.111 -0.2554 -0.1085  0.1019
 2032W        W 6232   2.478   7.973  11.187  0.2009 -0.1574 -0.1100
 2033W        W 6233   7.186  10.036  12.104 -0.0933  0.1850  0.4111
 2034W        W 6234   1.292   0.209   0.656 -0.2597  0.3203  0.0444
 2035W        W 6235   6.089   8.687  13.226  0.1541  0.2231 -0.0937
 2036W        W 6236   0.531   5.067   9.817  0.2051  0.0026  0.0329
 2037W        W 6237   9.502   8.184  10.728 -0.2177  0.1386  0.2945
 2038W        W 6238   1.859   6.332   7.980 -0.3266  0.3660  0.4428
 2039W        W 6239   8.663   5.136  11.654  0.0408  0.1986 -0.3208
 2040W        W 6240   0.190   4.145   3.355  0.0438 -0.4699  0.0700
 2041W        W 6241   0.711   1.972   1.619  0.1452 -0.2673 -0.0526
 2042W        W 6242   7.521   1.919   2.945 -0.3223 -0.3714 -0.2289
 2043W        W 6243   4.422   4.531   2.460  0.1683 -0.0068  0.0823
 2044W        W 6244   9.829   1.404   2.238  0.1896 -0.0166  0.1590
 2045W        W 6245   1.546   7.637   1.199  0.2399  0.1051 -0.3615
 2046W        W 6246   6.036   1.060   2.400 -0.2236 -0.2060 -0.1584
 2047W        W 6247   6.726   0.741   0.939 -0.0118 -0.3099 -0.1751
 2048W        W 6248   9.224   8.222  13.439 -0.0932 -0.0908 -0.1832
 2049W        W 6249   6.788   8.372  10.693  0.0087 -0.0536 -0.1054
 2050W        W 6250   2.439   0.131  13.028 -0.0300  0.0251 -0.0997
 2051W        W 6251   5.117   6.418   9.721 -0.1177 -0.1728 -0.1666
 2052W        W 6252   1.128   6.741  11.674 -0.3981  0.1649 -0.3345
 2053W        W 6253   0.165   5.317  10.189  0.2895 -0.5362 -0.0596
 2054W        W 6254   5.576   0.925   1.051  0.3076  0.1675 -0.4471
 2055W        W 6255   6.335   2.941  13.308  0.0235 -0.0228 -0.0178
 2056W        W 6256   5.628   2.725   9.093  0.1863  0.0845 -0.1327
 2057W        W 6257   4.812   1.436   0.751  0.0250 -0.1490  0.1534
 2058W        W 6258   0.103  10.226   3.486 -0.1243  0.1517  0.1326
 2059W        W 6259   8.668   9.313  10.242  0.2751  0.0132 -0.1136
 2060W        W 6260   5.319   7.177   4.385 -0.0599  0.1134 -0.2907
 2061W        W 6261   1.182   3.924   1.696  0.2760  0.0571  0.0940
 2062W        W 6262   1.209   8.283   2.835  0.2052 -0.0440  0.1749
 2063W        W 6263   7.181   1.011  12.727 -0.1187  0.0981  0.0478
 2064W        W 6264   6.089   0.882   1.554  0.0121 -0.0059  0.0404
 2065W        W 6265   4.902   8.663   0.285  0.0690 -0.5022 -0.1996
 2066W        W 6266   2.427   4.609  10.879 -0.2175 -0.1622  0.2245
 2067W        W 6267   9.391   4.219  12.382 -0.1629  0.0792  0.0579
 2068W        W 6268   1.443   6.637   1.102 -0.1235  0.1921 -0.0033
 2069W        W 6269   0.421   0.088   1.168 -0.0303 -0.2087 -0.1328
 2070W        W 6270   3.227   2.502  11.820  0.1241 -0.1964  0.1045
 2071W        W 6271   5.522   3.913   1.866  0.0813  0.0844 -0.1124
 2072W        W 6272   3.840   9.882   9.912  0.0647 -0.0205  0.1570
 2073W        W 6273   7.595   7.505   4.700 -0.2792 -0.0388  0.0409
 2074W        W 6274   5.201   8.925  13.170 -0.0811  0.0367  0.2568
 2075W        W 6275   5.286   1.374  10.339 -0.2247 -0.0278 -0.0955
 2076W        W 6276   5.937   0.427   9.579 -0.3475  0.0888  0.3104
 2077W        W 6277   0.277  10.045  10.330  0.1523  0.4328 -0.1348
 2078W        W 6278   1.087   9.838   3.142 -0.1518 -0.0987 -0.1920
 2079W        W 6279   2.262   2.413  12.935 -0.0936 -0.1994  0.0437
 2080W        W 6280   9.878   0.954   3.178 -0.0648  0.0805 -0.2039
 2081W        W 6281   7.340   9.185   9.565 -0.1546  0.0294 -0.3628
 2082W        W 6282   9.404   1.990  12.238  0.3674  0.1644  0.5333
 2083W        W 6283   6.430   4.132   0.824 -0.2552 -0.1717 -0.2959
 2084W        W 6284   6.480   6.878  13.052  0.1265  0.1719  0.4996
 2085W        W 6285   0.536   7.373   3.741 -0.1743 -0.0243  0.1011
 2086W        W 6286   1.045   0.608   9.783 -0.1533 -0.1032  0.0353
 2087W        W 6287   4.419   4.709  10.433 -0.0974 -0.1226 -0.1982
 2088W        W 6288   5.305   3.430   9.924  0.1177  0.1105 -0.5887
 2089W        W 6289   5.639   3.813   9.805  0.0540  0.2717  0.0593
 2090W        W 6290   2.879   8.549   1.102 -0.0263 -0.2096  0.2854
 2091W        W 6291   0.773   4.123  10.264 -0.1269 -0.0544 -0.0469
 2092W        W 6292   9.389   8.693   1.989  0.1300  0.0123 -0.1113
 2093W        W 6293   0.330   2.997   0.312 -0.3605  0.3384  0.0656
 2094W        W 6294   0.099   7.631   3.533  0.2409  0.2501 -0.2225
 2095W        W 6295   6.887  10.137   3.270  0.2028 -0.0393 -0.1883
 2096W        W 6296   9.297   7.836  13.114  0.0632 -0.0323  0.0822
 2097W        W 6297   1.141   9.712   1.474 -0.1026 -0.0347  0.2411
 2098W        W 6298   3.972   9.459  11.842 -0.0215 -0.2739 -0.3168
 2099W        W 6299  10.315   5.824  13.026 -0.2674 -0.1177  0.1379
 2100W        W 6300   5.164   8.993   1.982  0.0327 -0.0370 -0.0617
 2101W        W 6301   5.793   2.594   9.957  0.2979  0.1066  0.2398
 2102W        W 6302   5.784   8.330   2.308  0.1333  0.1690  0.0783
 2103W        W 6303   8.384   7.803   2.101 -0.0629  0.2012  0.2565
 2104W        W 6304   5.042   0.490  12.372  0.1236  0.0156  0.0727
 2105W        W 6305   6.941   8.900   2.507 -0.1173 -0.2431 -0.1211
 2106W        W 6306   9.685   2.258   9.947  0.0556 -0.1145 -0.1259
 2107W        W 6307   8.627   2.132  11.155  0.1105 -0.1443 -0.4194
 2108W        W 6308   7.094   9.972  12.581 -0.1416  0.0754 -0.2789
 2109W        W 6309   6.506   1.515   3.396  0.3265 -0.3592  0.0621
 2110W        W 6310   7.356   7.720   4.261  0.1371  0.0523 -0.0229
 2111W        W 6311   5.723   3.326   9.631  0.1440 -0.0046 -0.2611
 2112W        W 6312   7.126   5.233   9.519  0.0748 -0.2941  0.0344
 2113W        W 6313  10.461   0.917   3.451  0.0773 -0.0396 -0.2067
 2114W        W 6314   9.894   8.572  10.392 -0.0192 -0.0181  0.1672
 2115W        W 6315   8.025   6.423   3.105 -0.0012 -0.0903  0.1344
 2116W        W 6316   6.807   4.946   2.806  0.2610 -0.2513  0.0668
 2117W        W 6317   6.546   5.533   9.846  0.2868 -0.0521  0.0478
 2118W        W 6318   0.248   0.691   0.413 -0.0489  0.2623 -0.1400
 2119W        W 6319   8.340   2.866   2.162 -0.0742  0.0595 -0.1592
 2120W        W 6320   0.038   6.446   0.647  0.2665  0.0315  0.1118
 2121W        W 6321   5.578   1.030   3.015 -0.2880 -0.0169  0.4290
 2122W        W 6322   9.070   6.832   2.534 -0.3076 -0.1044  0.1339
 2123W        W 6323   9.923   6.339   3.115 -0.1775  0.1729  0.2728
 2124W        W 6324   6.971   6.247   4.359 -0.1329 -0.0121  0.2014
 2125W        W 6325   1.814   3.307  10.537  0.1259 -0.0716  0.0069
 2126W        W 6326   3.072   4.495   4.380 -0.0486 -0.1163  0.0258
 2127W        W 6327   9.765  10.396   9.578  0.2710  0.1933 -0.0717
 2128W        W 6328   6.493   8.982  13.281  0.2693  0.4241 -0.3130
 2129W        W 6329   1.855   2.153  11.184 -0.5314 -0.0610  0.0675
 2130W        W 6330   3.177   8.760   9.619  0.0296 -0.1958 -0.0577
 2131W        W 6331   7.533   5.940  11.524 -0.1069 -0.2800 -0.1809
 2132W        W 6332   6.006   9.407   3.645  0.1646  0.0039 -0.0058
 2133W        W 6333   0.591   3.776   2.495 -0.0755 -0.1844  0.0957
 2134W        W 6334   5.393   5.249  10.369 -0.0532 -0.0455  0.0167
 2135W        W 6335   5.366   8.540   9.394 -0.1570 -0.0094  0.1904
 2136W        W 6336   0.082   8.314  13.366 -0.0581 -0.0370  0.0600
 2137W        W 6337   9.464   1.954   4.004  0.2665 -0.0288  0.1698
 2138W        W 6338   1.473   7.283   2.551 -0.3579  0.1603 -0.0693
 2139W        W 6339   5.078   5.657   3.243 -0.0701 -0.1601  0.1478
 2140W        W 6340   2.466   8.596   0.177  0.0226 -0.3243  0.0481
 2141W        W 6341   6.659   7.881  12.958 -0.0487 -0.1433 -0.2784
 2142W        W 6342   3.746   3.782  12.523  0.0200 -0.1864 -0.1924
 2143W        W 6343   4.726   0.850  12.378  0.0974 -0.0206 -0.1792
 2144W        W 6344   5.260   0.623  11.570 -0.0111 -0.0901 -0.1306
 2145W        W 6345   0.810   4.783  13.258 -0.1773  0.1637 -0.0083
 2146W        W 6346   0.324   6.493   9.710 -0.2024 -0.0042  0.2014
 2147W        W 6347   3.671   6.086   9.568 -0.2251  0.2869  0.0817
 2148W        W 6348   4.524   7.043  10.828 -0.1574  0.0166 -0.2651
 2149W        W 6349   5.196   1.208   0.591 -0.0899 -0.1559 -0.1702
 2150W        W 6350   0.648   0.637  13.099 -0.1844 -0.1063 -0.4734
 2151W        W 6351   8.740   8.226   2.493  0.0866  0.1370 -0.1554
 2152W        W 6352   9.948   4.412   1.339  0.2830  0.0466 -0.5277
 2153W        W 6353   3.809   3.701   0.932 -0.3991 -0.2211  0.1929
 2154W        W 6354   6.525   1.166   1.668 -0.1569  0.2676 -0.2396
 2155W        W 6355   6.303   1.621  10.301 -0.3178  0.0337  0.1019
 2156W        W 6356   6.813   3.824   5.359 -0.1863 -0.0833  0.2300
 2157W        W 6357   7.780   9.893   3.319  0.0316  0.0150 -0.0411
 2158W        W 6358   3.210   1.537  11.625 -0.0054  0.2966 -0.0433
 2159W        W 6359   4.926   8.954   8.245 -0.0011 -0.1123  0.0252
 2160W        W 6360   9.613   7.279   2.219  0.0093 -0.1202 -0.1173
 2161W        W 6361  10.339   9.835   3.781 -0.3082  0.0053  0.0476
 2162W        W 6362   3.419   3.547  10.848  0.1011 -0.1030 -0.0467
 2163W        W 6363   6.985   7.963  10.962 -0.0277  0.1907 -0.0043
 2164W        W 6364   8.892   5.087  13.440 -0.3327  0.2617 -0.0044
 2165W        W 6365   9.855   3.964  11.093  0.2933  0.2058 -0.0377
 2166W        W 6366   0.388   6.036   0.714  0.3035 -0.4453  0.1611
 2167W        W 6367   4.777   4.767  10.912 -0.1560  0.3298  0.0836
 2168W        W 6368   8.860  10.377   0.461  0.0574 -0.3161 -0.1379
 2169W        W 6369   1.782   8.268   3.405  0.0672 -0.0814  0.2528
 2170W        W 6370   1.155   5.508  11.623 -0.0811  0.0977  0.1889
 2171W        W 6371   3.820   7.421   9.448 -0.0369 -0.1083  0.1096
 2172W        W 6372   1.934   4.618  10.915 -0.1167 -0.2175 -0.3387
 2173W        W 6373   2.717   7.297  12.064 -0.1982 -0.1101  0.0817
 2174W        W 6374   7.256   9.032   3.953 -0.1580  0.2421 -0.0215
 2175W        W 6375   1.095   9.554   3.895 -0.3456 -0.0834  0.2605
 2176W        W 6376   9.788   7.310   3.202  0.0845 -0.1123  0.1067
 2177W        W 6377   7.881   8.060  13.418 -0.3788 -0.1485 -0.1429
 2178W        W 6378   4.775   9.864   3.096 -0.0732  0.0209 -0.1614
 2179W        W 6379   7.516   3.604   2.841  0.3225  0.4124  0.1430
 2180W        W 6380   2.899  10.359  11.301  0.1256  0.0486 -0.0799
 2181W        W 6381   7.965   1.349   2.130 -0.1667 -0.1765  0.2243
 2182W        W 6382   1.234   1.623  10.601  0.0115  0.2659 -0.1774
 2183W        W 6383  10.339   2.362   4.164  0.0352 -0.0558  0.2559
 2184W        W 6384   8.916   2.630  12.216  0.1764  0.1858  0.1528
 2185W        W 6385   5.561   7.126  11.771 -0.3260 -0.3046 -0.0036
 2186W        W 6386   6.179   6.674  10.164  0.0391  0.2020 -0.0716
 2187W        W 6387   4.875   3.378   1.707 -0.0595 -0.0176 -0.0335
 2188W        W 6388   5.781   3.064   1.318 -0.0760 -0.2708 -0.0025
 2189W        W 6389   1.165   4.874  12.878 -0.2282  0.1367 -0.6074
 2190W        W 6390   4.800   4.138  12.937  0.0491 -0.0644  0.1603
 2191W        W 6391   2.127   9.720  13.219 -0.1908  0.3413 -0.0015
 2192W        W 6392   9.602   4.668   1.808  0.2206  0.0012 -0.4550
 2193W        W 6393   7.889   8.017   8.940  0.1055 -0.2432  0.0407
 2194W        W 6394   7.046   1.929  12.844 -0.1680  0.1258  0.1213
 2195W        W 6395   1.505   4.439   1.651 -0.1916  0.0188 -0.0846
 2196W        W 6396   7.680   6.335  11.802  0.0767  0.2198  0.0530
 2197W        W 6397   0.567   1.768   0.129 -0.0717 -0.1757  0.0271
 2198W        W 6398   1.530   0.621   0.775 -0.1072 -0.0184  0.0558
 2199W        W 6399   0.940   8.417   2.169  0.1578 -0.2671  0.1073
 2200W        W 6400  10.299  10.038  13.019  0.2055  0.0440  0.0964
 2201W        W 6401   8.332   6.295   0.340 -0.1579  0.2366 -0.0660
 2202W        W 6402   0.395   9.043   2.001  0.0854 -0.2039 -0.1328
 2203W        W 6403   2.872   2.399   9.626  0.0988  0.1367  0.0159
 2204W        W 6404   4.774   6.895  13.272  0.0319  0.1951  0.0410
 2205W        W 6405   4.609   8.729   9.052 -0.0016  0.1124  0.0878
 2206W        W 6406   9.211   3.411   0.855  0.1606  0.0039  0.0558
 2207W        W 6407   7.456   6.988  12.803  0.2507 -0.0663  0.0004
 2208W        W 6408   7.030   4.350   5.145 -0.1671  0.0108  0.0422
 2209W        W 6409   9.351   8.514   4.086 -0.0754 -0.1716  0.0597
 2210W        W 6410   3.012  10.388   3.258  0.4128 -0.0185 -0.0606
 2211W        W 6411   9.100  10.161   3.335  0.0338  0.0257  0.0971
 2212W        W 6412   2.004   3.747  12.898  0.2754 -0.2584 -0.4014
 2213W        W 6413   3.729   0.630   2.002  0.2524  0.2515 -0.1043
 2214W        W 6414   0.907   6.031  10.118 -0.0123  0.0822  0.1796
 2215W        W 6415   4.121   2.667  10.884  0.1649  0.2861  0.3225
 2216W        W 6416   9.061   6.087   3.739 -0.2673  0.0792  0.0521
 2217W        W 6417   4.098   2.639  11.628  0.1979 -0.0269  0.0033
 2218W        W 6418   6.795   4.683   9.326  0.4364  0.0611 -0.2777
 2219W        W 6419   4.641   3.798  11.522 -0.0734 -0.2263  0.1592
 2220W        W 6420   9.099   7.414  10.628  0.0097 -0.1436  0.1801
 2221W        W 6421   5.298   7.114   3.847 -0.3554  0.0366 -0.3845
 2222W        W 6422   6.690  10.022  12.071  0.2848  0.0429  0.1142
 2223W        W 6423   4.555   7.397  13.419  0.0934  0.0612 -0.1206
 2224W        W 6424   0.956   7.078   2.784 -0.2004 -0.0151  0.3104
 2225W        W 6425   1.857   5.503  10.197  0.1010 -0.0606 -0.1862
 2226W        W 6426   3.910   2.612   9.576 -0.0802 -0.1204 -0.2380
 2227W        W 6427   8.353   2.146   3.431 -0.0133  0.2679  0.0748
 2228W        W 6428   5.827   5.784   0.738 -0.1535 -0.0984 -0.1330
 2229W        W 6429   8.950   4.447  10.260 -0.1464  0.1903 -0.2303
 2230W        W 6430  10.200   6.531   3.454  0.0069  0.0451 -0.1235
 2231W        W 6431   7.943   3.726   2.740  0.1211  0.2960 -0.0809
 2232W        W 6432   4.546   1.466   3.868 -0.0340  0.0366 -0.0571
 2233W        W 6433   6.733   7.886   8.982  0.1649 -0.0533  0.1490
 2234W        W 6434   8.414   8.330   2.088 -0.0575  0.0615  0.1335
 2235W        W 6435   9.435   3.273   2.462 -0.1117  0.0846  0.1101
 2236W        W 6436   6.628   0.106   3.128  0.0646  0.1600 -0.0931
 2237W        W 6437   3.578   8.681   0.319  0.1454  0.4891  0.0833
 2238W        W 6438   0.656   4.075   4.649 -0.0387  0.0605  0.0122
 2239W        W 6439   9.842   3.992   3.922  0.0603 -0.4993  0.0685
 2240W        W 6440   7.021   2.599  10.695 -0.2146  0.2497 -0.0849
 2241W        W 6441   7.097   7.066   5.093 -0.0952 -0.3219  0.3154
 2242W        W 6442   4.668   9.292   4.270  0.0541  0.0295  0.4185
 2243W        W 6443   2.262   6.102   4.223  0.4286 -0.1598 -0.1078
 2244W        W 6444   8.508   8.147  11.097  0.3722  0.0651  0.2857
 2245W        W 6445   8.335   8.932  11.504 -0.2662 -0.3143 -0.0726
 2246W        W 6446   2.929   9.640   2.639 -0.1413  0.3298 -0.1839
 2247W        W 6447   9.573   0.629   1.586  0.0767 -0.0894  0.0578
 2248W        W 6448   6.947   4.484   0.753 -0.0871 -0.1541 -0.2095
 2249W        W 6449  10.451   9.308  13.442  0.2734 -0.2096  0.1983
 2250W        W 6450   7.194   6.258  11.710 -0.0095 -0.0247 -0.1581
 2251W        W 6451   3.429   5.685   9.241 -0.0490  0.2630  0.0610
 2252W        W 6452  10.053   2.539   2.477  0.0406 -0.2912  0.0681
 2253W        W 6453   7.412   1.150   8.681 -0.3337 -0.1468 -0.1841
 2254W        W 6454   0.350   0.803   3.110  0.0447  0.1562 -0.1026
 2255W        W 6455   7.146   1.975   9.829  0.3601  0.2519  0.4148
 2256W        W 6456   1.480   0.642   2.647  0.0316  0.0829  0.0782
 2257W        W 6457   1.214   9.060   3.455  0.0003  0.1981  0.1213
 2258W        W 6458   3.424   3.385   9.773  0.3625 -0.1042 -0.0964
 2259W        W 6459   3.366   6.104  11.001  0.1993 -0.0816  0.0979
 2260W        W 6460   6.185   8.510   9.930 -0.0970  0.0579  0.1626
 2261W        W 6461   3.100   2.445   4.305  0.1019  0.0804  0.3465
 2262W        W 6462   0.888   2.932  12.821 -0.1622 -0.0898  0.2624
 2263W        W 6463   2.010   5.973   0.526 -0.1884  0.2392 -0.0280
 2264W        W 6464   6.157   5.884  10.537  0.3563 -0.1020  0.0321
 2265W        W 6465   4.027   9.637   5.014  0.0571  0.0398  0.0444
 2266W        W 6466   7.043   7.092  11.165 -0.0873  0.2722  0.0550
 2267W        W 6467   7.102   6.104  13.015  0.2478 -0.0196  0.1944
 2268W        W 6468   3.104   7.022   2.126 -0.0718 -0.0668  0.0190
 2269W        W 6469   7.389   0.643   2.078  0.0606  0.2122 -0.1405
 2270W        W 6470   6.222   8.421  11.878  0.0774  0.3325 -0.1376
 2271W        W 6471   2.079   7.148  11.979 -0.1198  0.2596 -0.1692
 2272W        W 6472  10.072   7.090   1.039 -0.0667  0.0334 -0.3411
 2273W        W 6473   5.405   6.760   9.471 -0.3062  0.0070  0.2781
 2274W        W 6474   9.665   1.101   0.757  0.2665  0.0599  0.0157
 2275W        W 6475   5.607   0.100   4.032 -0.1018 -0.2076  0.5023
 2276W        W 6476   4.041   8.165   0.993 -0.2288  0.0598  0.2028
 2277W        W 6477   7.260   4.128  11.809 -0.2872  0.2316  0.3327
 2278W        W 6478   0.046   6.752   8.668  0.3112 -0.1663 -0.2202
 2279W        W 6479   9.720   7.302   3.746  0.0328  0.1522  0.2877
 2280W        W 6480   2.524   1.684   4.009 -0.1752 -0.1630 -0.0551
 2281W        W 6481   8.639   4.784   1.239 -0.3746  0.0998 -0.0424
 2282W        W 6482   1.357   1.635   3.369  0.3846 -0.1518 -0.0759
 2283W        W 6483   4.382   7.331   2.424 -0.1223  0.1287 -0.2791
 2284W        W 6484   1.821   2.328   1.374  0.1949 -0.3395 -0.0180
 2285W        W 6485   6.220   1.644  12.036 -0.1368 -0.2518  0.0519
 2286W        W 6486   3.742   5.202   0.919 -0.0650  0.0252 -0.0966
 2287W        W 6487   8.922   3.911   2.746  0.0591 -0.2937 -0.0543
 2288W        W 6488   1.555   9.036  12.429 -0.0588  0.0105  0.1542
 2289W        W 6489   2.428   7.108  11.625 -0.2119 -0.0292  0.1408
 2290W        W 6490  10.376   8.952   1.655  0.1566 -0.0157  0.0592
 2291W        W 6491   2.666   9.555   0.900 -0.0854 -0.1104 -0.0436
 2292W        W 6492   1.136   2.204   0.907 -0.1427 -0.1527 -0.3542
 2293W        W 6493   6.476   7.430   2.681  0.2436  0.0493 -0.0094
 2294W        W 6494   8.701   4.064  13.256  0.0933 -0.3139  0.0242
 2295W        W 6495   0.773   6.183   1.670  0.0795 -0.2642  0.0131
 2296W        W 6496   8.774   7.934  12.453 -0.0155 -0.1077 -0.1195
 2297W        W 6497   0.224   2.580   3.866  0.0693  0.2537  0.2514
 2298W        W 6498   2.806   8.967  12.460 -0.0281  0.0537  0.1614
 2299W        W 6499   6.804   5.739  13.306 -0.2340  0.1119 -0.1726
 2300W        W 6500   0.342   9.954   3.920  0.2734  0.0199 -0.0786
 2301W        W 6501   6.543   7.226  11.372  0.2246 -0.0517 -0.2194
 2302W        W 6502  10.331   8.201   1.953  0.2046 -0.1330  0.2269
 2303W        W 6503   5.400   3.102   0.968 -0.0153  0.0997  0.3100
 2304W        W 6504   5.151   3.347   4.571  0.2514  0.2867  0.1623
 2305W        W 6505   1.970   7.318   4.392  0.3771  0.2281 -0.0048
 2306W        W 6506   9.560   8.230   2.916 -0.2691 -0.1656  0.1593
 2307W        W 6507   4.554   1.273   3.240  0.0248 -0.0525  0.3147
 2308W        W 6508   6.431   9.963  12.506  0.1853  0.1272  0.2167
 2309W        W 6509   2.935   5.777   1.958  0.1642  0.0791  0.1119
 2310W        W 6510   2.414   0.894  11.800 -0.0080 -0.0649 -0.0394
 2311W        W 6511   3.007   2.216  13.392 -0.3034 -0.0902  0.1301
 2312W        W 6512   4.062  10.402   0.264  0.2049  0.1288 -0.0422
 2313W        W 6513   8.812   0.807   1.186 -0.3688 -0.0916  0.0107
 2314W        W 6514   2.092   4.176   9.638 -0.1407  0.1417 -0.1773
 2315W        W 6515   9.230   4.795   3.721 -0.2707 -0.0104  0.1600
 2316W        W 6516   1.990   1.859   9.845 -0.2120  0.4246  0.4726
 2317W        W 6517   4.425   3.260  12.241 -0.0649 -0.0568  0.1185
 2318W        W 6518   9.607   1.486   7.912  0.0560  0.1700  0.0037
 2319W        W 6519   7.513   8.415  10.028 -0.1387 -0.0172  0.0510
 2320W        W 6520   4.349   9.633  10.613  0.2574 -0.3601 -0.0100
 2321W        W 6521   2.012   0.257  11.720 -0.0787 -0.0269 -0.1889
 2322W        W 6522   1.398   6.456   3.449  0.0006 -0.1295 -0.4596
 2323W        W 6523   6.568   1.653  11.543 -0.0252 -0.1073  0.2730
 2324W        W 6524  10.003   5.871   4.569 -0.0148  0.0514 -0.0032
 2325W        W 6525   2.381   8.027   0.846 -0.1310  0.3881 -0.4552
 2326W        W 6526   7.539   7.852   9.712  0.3144  0.1756  0.2784
 2327W        W 6527   1.559   7.346  10.119 -0.0784 -0.0827  0.1922
 2328W        W 6528   4.241   3.121   0.688  0.0456  0.2352 -0.1668
 2329W        W 6529   1.088   8.019  12.896  0.3291  0.0355  0.0446
 2330W        W 6530   2.976   9.828   4.463  0.1455 -0.2261 -0.0137
 2331W        W 6531   0.711   5.277   0.492  0.0122  0.2698  0.1589
 2332W        W 6532   1.521   1.500  11.813  0.2049  0.0068 -0.0464
 2333W        W 6533   6.886   2.616   9.029 -0.2821  0.2935 -0.1959
 2334W        W 6534   5.261   4.650   4.291  0.1858 -0.2130 -0.1427
 2335W        W 6535   1.986   7.885  12.868 -0.1629  0.0386 -0.1368
 2336W        W 6536   8.605   3.339   5.340 -0.1396 -0.0441  0.0765
 2337W        W 6537   3.823   4.462  13.172  0.0889 -0.2086 -0.1992
 2338W        W 6538   1.649   5.499   2.508 -0.0671  0.1004  0.2684
 2339W        W 6539   8.003   0.337   3.886 -0.3069 -0.0678  0.2803
 2340W        W 6540   0.248   7.981  11.086  0.0137  0.1498 -0.2827
 2341W        W 6541   5.724   7.836   1.415  0.2993  0.0645  0.0744
 2342W        W 6542   5.185   6.840  11.326  0.1180 -0.0510  0.1788
 2343W        W 6543   4.146   0.162   4.391  0.0957  0.2415  0.4109
 2344W        W 6544   7.458   7.397   1.208 -0.2225 -0.0352  0.0752
 2345W        W 6545   8.022   7.252   0.450  0.1560 -0.2128 -0.0339
 2346W        W 6546   5.543   1.070  11.668  0.2989 -0.1357 -0.0046
 2347W        W 6547   1.290   2.551  11.210 -0.0285  0.1538 -0.2813
 2348W        W 6548   3.524   4.491   1.520 -0.0766 -0.3240  0.1320
 2349W        W 6549   8.068   8.304   0.309  0.3259  0.0855  0.0682
 2350W        W 6550   2.708   2.662   8.931 -0.0651 -0.1491 -0.0060
 2351W        W 6551   1.884   6.900   1.176 -0.2889 -0.1178 -0.2746
 2352W        W 6552   0.091   9.287   3.644 -0.1111 -0.0355  0.0580
 2353W        W 6553   4.624  10.083  10.587  0.1779  0.1376  0.1066
 2354W        W 6554   0.984  10.420   1.843  0.3691  0.0013 -0.1190
 2355W        W 6555   2.268   7.025   3.949  0.4416  0.2448 -0.0464
 2356W        W 6556   5.934   3.462   1.610  0.1775  0.2043 -0.2293
 2357W        W 6557   2.478   8.086   0.195  0.3345 -0.1621  0.2870
 2358W        W 6558   5.600   9.816   2.227 -0.0319  0.0869 -0.1360
 2359W        W 6559   4.419   9.294   1.972 -0.0984 -0.0049  0.4343
 2360W        W 6560   6.845   5.086   9.917  0.0910 -0.0274 -0.0469
 2361W        W 6561   9.747   4.218   2.891  0.1505 -0.1465 -0.0720
 2362W        W 6562   0.652   4.440   9.820 -0.3912 -0.4605 -0.2294
 2363W        W 6563   3.368   0.764  12.260 -0.1563  0.1250 -0.0180
 2364W        W 6564   8.901   6.929   1.699 -0.1957  0.1340  0.1608
 2365W        W 6565  10.092   7.955   0.975  0.0620 -0.1571  0.0666
 2366W        W 6566   7.311   4.988   2.956  0.2036  0.2057 -0.1266
 2367W        W 6567   1.614   1.026  12.229  0.1932  0.2295  0.1250
 2368W        W 6568  10.327   9.464   2.073  0.1728 -0.3677  0.2531
 2369W        W 6569   9.107   1.972  11.396  0.0759  0.0469 -0.1057
 2370W        W 6570   9.437   3.808  12.766 -0.1456  0.3755  0.0324
 2371W        W 6571   6.569  10.023  13.493  0.0390  0.2442  0.2568
 2372W        W 6572   4.872  10.230  10.166 -0.0433 -0.0678  0.0395
 2373W        W 6573   8.761   7.068   2.239 -0.1771 -0.2491 -0.0444
 2374W        W 6574   6.582   5.095   0.539  0.0355 -0.4863 -0.3384
 2375W        W 6575   8.088   7.627   4.721 -0.0079  0.1524 -0.1009
 2376W        W 6576   4.473   4.802  12.433 -0.0424  0.0120  0.0361
 2377W        W 6577   6.169   3.384   1.069  0.1244  0.2879  0.1250
 2378W        W 6578   2.266   8.998   3.523 -0.0652 -0.0203 -0.1263
 2379W        W 6579   1.394   3.217  10.180  0.0543 -0.0900  0.1359
 2380W        W 6580   1.525   6.557   1.984 -0.2278  0.2591 -0.1965
 2381W        W 6581   3.634   3.111   1.657 -0.1902  0.4049 -0.0058
 2382W        W 6582   5.445  10.060   3.217  0.2026  0.1216  0.0402
 2383W        W 6583   0.142   7.168   1.245 -0.2517  0.1166  0.0681
 2384W        W 6584  10.299   2.781   0.568 -0.1527  0.1985  0.3573
 2385W        W 6585   4.156   9.170  10.684  0.3058  0.0511 -0.0119
 2386W        W 6586   6.415   0.558   1.457  0.3587  0.0660  0.5626
 2387W        W 6587   4.575   8.832   3.509  0.0013 -0.0562 -0.0354
 2388W        W 6588   9.792   8.593  11.759  0.2172 -0.1532 -0.1297
 2389W        W 6589  10.103   2.154   2.063  0.1807 -0.3426  0.2216
 2390W        W 6590   0.566   1.394  10.683 -0.0237  0.0407 -0.1845
 2391W        W 6591   9.029   9.849   4.247  0.0134  0.0190  0.0002
 2392W        W 6592  10.429   3.793   9.430 -0.1848 -0.0110 -0.0476
 2393W        W 6593   4.668   5.490   0.955 -0.0713 -0.2018 -0.0578
 2394W        W 6594   9.539   9.184   2.208  0.0962  0.1147 -0.0824
 2395W        W 6595   5.819   2.016  12.924  0.3042 -0.0765 -0.1480
 2396W        W 6596   7.975   0.905  12.204  0.1489 -0.1762 -0.1755
 2397W        W 6597   7.058   6.142   3.747  0.0524 -0.0520 -0.0101
 2398W        W 6598   3.148   4.281  13.351  0.1196 -0.0917  0.1687
 2399W        W 6599   2.805   2.726  10.491  0.1344 -0.0215  0.0550
 2400W        W 6600   4.362   4.081  10.592  0.1327 -0.0043 -0.0551
 2401W        W 6601   1.069   7.134   4.575  0.0428  0.1772 -0.0763
 2402W        W 6602   8.682   4.654  11.376 -0.1735 -0.0264 -0.4156
 2403W        W 6603   5.915   7.984  11.614  0.2327 -0.2859  0.0477
 2404W        W 6604   3.772   0.817   9.082 -0.0794 -0.1825 -0.1880
 2405W        W 6605   7.560   3.788  10.177  0.0550 -0.3437 -0.0510
 2406W        W 6606   5.762   1.025  12.706  0.1817 -0.1651  0.1616
 2407W        W 6607   9.677   6.915  12.370  0.0079  0.0374  0.0979
 2408W        W 6608   6.049   7.865  12.558 -0.0195  0.2493 -0.2902
 2409W        W 6609   3.911   4.368   4.589  0.1189  0.1395  0.0584
 2410W        W 6610   5.766   5.714  10.107 -0.0683 -0.2335  0.0420
 2411W        W 6611   3.383   2.452   2.892  0.0611  0.1012  0.2381
 2412W        W 6612   1.869   3.228   1.802 -0.1475  0.0565 -0.0368
 2413W        W 6613   9.823   5.278  13.114  0.4307 -0.1144 -0.2230
 2414W        W 6614   5.377   5.269   1.501  0.0181 -0.2134  0.2168
 2415W        W 6615   8.485   6.987   3.781 -0.2254  0.2093  0.2461
 2416W        W 6616   0.417   2.778   2.165  0.0560  0.3486  0.1933
 2417W        W 6617   8.632   0.135   3.270 -0.0317 -0.1314 -0.1523
 2418W        W 6618   4.491   0.643  13.186 -0.0866 -0.1971 -0.0257
 2419W        W 6619   5.294   3.263   2.833  0.1595  0.3212  0.1286
 2420W        W 6620  10.252   1.029   2.035 -0.1435  0.2227  0.0387
 2421W        W 6621   5.201   7.134  10.917 -0.2630  0.0993 -0.1409
 2422W        W 6622   3.949  10.386  12.255 -0.0508 -0.0626 -0.1494
 2423W        W 6623   0.439   9.829  12.166 -0.3107 -0.2078  0.2484
 2424W        W 6624   7.102   3.130   2.214  0.1877 -0.3350 -0.1711
 2425W        W 6625   6.413   7.768  11.037  0.0389  0.1497 -0.1470
 2426W        W 6626   2.489   3.402   0.505 -0.0259  0.2607  0.2458
 2427W        W 6627   4.041   3.191   3.406 -0.2696  0.2158  0.1526
 2428W        W 6628   9.349   8.416  10.343  0.1943  0.0008  0.0342
 2429W        W 6629   6.976   4.140   3.308 -0.0012  0.1459  0.0142
 2430W        W 6630   4.954   9.442   1.903  0.0304 -0.0559 -0.1875
 2431W        W 6631   4.101   7.293  12.585  0.1674  0.0956  0.1947
 2432W        W 6632   4.209   9.475   2.341 -0.4686  0.1509 -0.2300
 2433W        W 6633   3.123   0.979  11.136 -0.2314 -0.2517  0.0013
 2434W        W 6634   4.375   3.628   3.401 -0.1652  0.0961  0.1424
 2435W        W 6635   9.808   8.234   2.411 -0.1843  0.0141  0.0529
 2436W        W 6636   2.554   2.338   2.762  0.0827  0.1315 -0.1724
 2437W        W 6637   9.542   4.358   0.945 -0.0320 -0.3128 -0.0070
 2438W        W 6638   4.238   1.271  12.531 -0.1962 -0.1538  0.1475
 2439W        W 6639   9.631  10.260  10.555 -0.1922  0.1183 -0.3860
 2440W        W 6640   1.532   0.615   0.241  0.2907 -0.0782 -0.4766
 2441W        W 6641   3.182   1.004   2.386 -0.0272  0.1736 -0.0584
 2442W        W 6642   7.247   7.692   1.928  0.1403  0.2859 -0.3410
 2443W        W 6643   0.162   2.502   2.508 -0.2162 -0.1475 -0.1246
 2444W        W 6644   4.466   2.899   2.532 -0.0859  0.0066 -0.2060
 2445W        W 6645   1.613   6.457  13.290  0.0502  0.1725 -0.0039
 2446W        W 6646   4.330   6.987  11.349  0.1453 -0.0881 -0.0697
 2447W        W 6647   8.155   3.103   0.283  0.1052 -0.1179 -0.1239
 2448W        W 6648   8.357   0.712   1.140 -0.1010 -0.3176 -0.2555
 2449W        W 6649   7.906   9.503   1.638 -0.0626 -0.0680 -0.1257
 2450W        W 6650   4.208   5.708  12.481  0.1102  0.0414  0.0966
 2451W        W 6651   0.591   4.017  11.615 -0.1103  0.2050 -0.2330
 2452W        W 6652   8.921   0.608   3.443  0.1161  0.0036  0.0280
 2453W        W 6653   1.798   6.813   3.759  0.0924  0.3125 -0.2929
 2454W        W 6654   3.025   3.316  12.112  0.0251  0.0479 -0.0418
 2455W        W 6655   2.409   2.564  10.937 -0.0656 -0.0485  0.2270
 2456W        W 6656   0.085   3.880  11.605  0.1052  0.0015  0.4643
 2457W        W 6657   0.387   8.940  11.802 -0.0638  0.1858  0.4128
 2458W        W 6658   1.559   7.906  13.194  0.1671 -0.1045 -0.1175
 2459W        W 6659   2.113   5.301   9.487  0.0960  0.1182  0.2169
 2460W        W 6660   3.811   2.947   8.638 -0.1940  0.1435  0.2763
 2461W        W 6661   6.558   6.620   1.875 -0.0253 -0.1251 -0.0069
 2462W        W 6662   8.096   7.173  12.004 -0.0115 -0.0246  0.1414
 2463W        W 6663   1.014   3.493  12.993  0.0772  0.1571  0.0155
 2464W        W 6664   1.473   6.894  10.281  0.0427 -0.0346 -0.0973
 2465W        W 6665   6.999   8.597  12.218 -0.2829  0.2776 -0.1425
 2466W        W 6666   1.117   9.113   1.566  0.0169  0.1948  0.1930
 2467W        W 6667   2.731   4.265   3.002  0.0091 -0.1329  0.0220
 2468W        W 6668   9.132   0.359   0.521  0.0010  0.0646  0.0586
 2469W        W 6669   5.347   4.673   9.621 -0.2758 -0.2007  0.4085
 2470W        W 6670   9.654   8.427  12.279 -0.2221  0.0323  0.0889
 2471W        W 6671   6.654   7.061   1.522  0.2745  0.2566  0.1919
 2472W        W 6672   6.323   9.926   2.170 -0.0080 -0.1132  0.0172
 2473W        W 6673   7.498   5.799   0.969 -0.0970 -0.0101 -0.3784
 2474W        W 6674   1.601   3.905  11.833 -0.0319 -0.0043  0.0767
 2475W        W 6675   7.272   4.835   0.037  0.0138  0.2390 -0.1893
 2476W        W 6676   4.042   7.331   8.936 -0.0273 -0.1381  0.1444
 2477W        W 6677   9.124   2.375  11.040  0.0588  0.2847  0.2746
 2478W        W 6678   2.324   7.262   9.172  0.1128 -0.0031 -0.0882
 2479W        W 6679   4.417   5.299  12.475  0.1681 -0.3487  0.1220
 2480W        W 6680   7.606   6.901   3.601 -0.0598  0.0469  0.2463
 2481W        W 6681   1.340   8.109  11.732 -0.0610  0.2152  0.0768
 2482W        W 6682   5.019  10.078  12.592  0.2631 -0.0112 -0.3472
 2483W        W 6683   7.018   6.342   0.347 -0.1634  0.0365 -0.0306
 2484W        W 6684   7.649   9.250  11.839 -0.1152  0.1587  0.1371
 2485W        W 6685   6.631   3.841   8.105 -0.1228 -0.0835  0.1681
 2486W        W 6686   6.709   0.242   9.307  0.4508  0.1790 -0.3692
 2487W        W 6687   4.765   9.124  11.299 -0.0771 -0.1515 -0.1400
 2488W        W 6688   1.794   4.622   2.986  0.2909 -0.0097  0.1278
 2489W        W 6689   2.900   9.437   9.923  0.1831 -0.2256 -0.0568
 2490W        W 6690   2.029   6.396  10.336  0.2826 -0.2382  0.1233
 2491W        W 6691   4.325   0.226  12.983 -0.1935  0.0454  0.3780
 2492W        W 6692   8.715   4.189  11.666 -0.2097 -0.2961 -0.0881
 2493W        W 6693   8.447   8.173  10.182 -0.2709  0.0301  0.2660
 2494W        W 6694   0.223   2.053   2.809  0.1070 -0.1064  0.0647
 2495W        W 6695   7.296  10.339   0.530 -0.1230 -0.0659 -0.1509
 2496W        W 6696   0.403   2.128   4.110 -0.0057 -0.2783  0.0774
 2497W        W 6697   7.804   0.085  11.437  0.0485  0.3115  0.0888
 2498W        W 6698   4.194   4.929  10.037  0.0834  0.1655  0.3398
 2499W        W 6699   1.486   9.253   0.656  0.1317  0.0135 -0.0456
 2500W        W 6700   4.380   6.859   0.638  0.1019 -0.2331  0.1405
 2501W        W 6701   7.952   8.000  11.434 -0.0862 -0.0259 -0.1629
 2502W        W 6702   7.504   3.675   9.615 -0.0168 -0.1666 -0.1237
 2503W        W 6703  10.273   0.249   2.702  0.0415 -0.0826  0.0554
 2504W        W 6704   2.923   0.578   3.254  0.1463  0.0153 -0.0074
 2505W        W 6705   6.505   8.444   0.713 -0.2670 -0.0849  0.1258
 2506W        W 6706  10.109   5.040   4.980 -0.1893 -0.0616  0.0927
 2507W        W 6707   5.646   8.436   0.900 -0.1272  0.1666  0.0147
 2508W        W 6708   5.969   1.216   9.491  0.3865 -0.0361  0.1659
 2509W        W 6709   9.967   1.710  12.229  0.0595 -0.0916  0.2215
 2510W        W 6710   1.007   3.246   4.139  0.1243  0.1423  0.0491
 2511W        W 6711   2.401   8.101  12.750 -0.1025  0.2456 -0.1232
 2512W        W 6712   4.908   6.264  11.036  0.3717  0.0051 -0.2439
 2513W        W 6713   5.915   4.535   2.881  0.2276  0.0451 -0.2628
 2514W        W 6714   2.503   4.528   2.161 -0.4251 -0.0590  0.4856
 2515W        W 6715   8.437   2.994   1.611 -0.0311 -0.0803 -0.2726
 2516W        W 6716   3.923   4.535  10.515  0.1455 -0.2584 -0.2591
 2517W        W 6717   6.004   9.204   4.304  0.1380 -0.0100 -0.0543
 2518W        W 6718   9.431   7.211  11.623 -0.2943  0.2307 -0.3432
 2519W        W 6719   2.510   4.168   2.518  0.0860 -0.0649 -0.0908
 2520W        W 6720   9.397   3.677  11.177  0.1863 -0.0062  0.1159
 2521W        W 6721   6.759   4.987   8.691 -0.2078  0.0893 -0.0928
 2522W        W 6722   3.582   1.416  10.389 -0.1522  0.0118 -0.3952
 2523W        W 6723   2.994   4.261  11.458 -0.4163 -0.0158 -0.3947
 2524W        W 6724   2.281   6.675  13.371  0.0753 -0.1648  0.2299
 2525W        W 6725   5.394   3.355   7.871 -0.0683  0.1619 -0.3015
 2526W        W 6726   4.456   2.226  12.948 -0.1670  0.2968 -0.3880
 2527W        W 6727   7.469   9.541  10.436 -0.1207 -0.0049 -0.0203
 2528W        W 6728   6.650   5.834   4.178 -0.0273 -0.0154  0.0878
 2529W        W 6729   2.441   7.683  13.106  0.0027  0.1804 -0.0020
 2530W        W 6730   0.976  10.171   2.300  0.1913  0.1205  0.2560
 2531W        W 6731   1.550   7.709  11.470  0.1840 -0.0050  0.0745
 2532W        W 6732   5.959   5.452   8.507  0.0506 -0.3073  0.2025
 2533W        W 6733   3.793   3.991   1.431  0.3367  0.4443  0.0191
 2534W        W 6734   6.403   2.171   9.342  0.2864 -0.1729 -0.0800
 2535W        W 6735  10.100   2.596  13.066 -0.0326 -0.3292  0.3531
 2536W        W 6736   5.608   4.612  10.926 -0.1514 -0.2903 -0.0919
 2537W        W 6737   4.534   7.533  11.144  0.0869 -0.4007 -0.1014
 2538W        W 6738   6.004   6.577  11.283  0.1415 -0.0595 -0.1400
 2539W        W 6739   1.919   7.070   2.904 -0.3207 -0.1357 -0.0268
 2540W        W 6740   5.554   6.660  11.525 -0.0515 -0.2108  0.0958
 2541W        W 6741   2.537   8.130   4.655 -0.1440  0.4412 -0.0487
 2542W        W 6742   6.496   2.827   4.267 -0.1018  0.1372  0.2606
 2543W        W 6743   5.283   3.470   2.066 -0.2376 -0.1604 -0.1182
 2544W        W 6744   3.839   5.594  10.236 -0.0184  0.1635 -0.0673
 2545W        W 6745   2.095   9.829   2.311  0.2435 -0.0272 -0.0232
 2546W        W 6746   6.200   0.022   9.443  0.1798  0.0239  0.4389
 2547W        W 6747   4.100   1.644   1.833  0.1177 -0.0836 -0.1075
 2548W        W 6748   4.007   7.239   9.959  0.2052  0.1096 -0.2188
 2549W        W 6749   9.171   9.499   2.386  0.0195  0.0774 -0.0953
 2550W        W 6750   2.057   6.505  11.081 -0.1920  0.2461 -0.4944
 2551W        W 6751   5.321   8.734  11.764 -0.1717  0.0039  0.0537
 2552W        W 6752   4.198   9.309  12.694  0.2262  0.0732 -0.1949
 2553W        W 6753   7.059   6.608  10.056  0.1749  0.1058 -0.0625
 2554W        W 6754   9.405   9.829  12.478 -0.0492  0.0925  0.0659
 2555W        W 6755   2.969   2.357   3.726  0.0391  0.0624  0.0082
 2556W        W 6756   8.345   4.542  12.345 -0.3713 -0.0142  0.2248
 2557W        W 6757  10.085   0.301  11.588 -0.1855 -0.3008  0.1901
 2558W        W 6758   3.123   2.312   9.178 -0.2071  0.2072  0.1578
 2559W        W 6759   2.658   9.643   8.619 -0.2143  0.1205  0.0580
 2560W        W 6760   3.344   9.615  10.921 -0.3734 -0.4292 -0.0006
 2561W        W 6761   4.164   9.576  10.158  0.2448 -0.2408 -0.1868
 2562W        W 6762   6.013  10.061  12.732 -0.5016  0.0618  0.0564
 2563W        W 6763   4.738   4.149  10.130 -0.1535 -0.5533 -0.0173
 2564W        W 6764   0.208   2.568  11.621  0.2756 -0.5903 -0.4353
 2565W        W 6765   1.063   5.059  10.379  0.2694 -0.0911 -0.0616
 2566W        W 6766   3.284   2.885   4.371 -0.0199 -0.2314 -0.0713
 2567W        W 6767   7.598   6.011  13.220  0.0912 -0.0155  0.0683
 2568W        W 6768   0.771   5.719  13.155 -0.1758 -0.2250 -0.2649
 2569W        W 6769  10.058   7.914   0.472  0.0459  0.2633  0.0775
 2570W        W 6770   3.870   7.849   0.202 -0.0702 -0.0746  0.0792
 2571W        W 6771   5.554   9.471  10.205 -0.1469  0.0599  0.4842
 2572W        W 6772   8.368   9.316   0.216 -0.1726 -0.0187  0.1471
 2573W        W 6773   1.627   2.245   0.796  0.3005  0.1212 -0.4592
 2574W        W 6774   4.878   6.047  10.088  0.5046  0.1593  0.0884
 2575W        W 6775   2.171   4.730   1.608  0.3201 -0.1908  0.1404
 2576W        W 6776   8.174   0.662  11.408 -0.0651  0.0294  0.0052
 2577W        W 6777   5.874   6.272  11.735  0.2728 -0.1761  0.3008
 2578W        W 6778   1.902   9.356   3.755  0.2154  0.0745 -0.0366
 2579W        W 6779   7.617   0.364   1.593  0.1761 -0.0803 -0.0103
 2580W        W 6780   1.190   4.074   4.665 -0.4615 -0.1549  0.1714
 2581W        W 6781   3.816   9.210   3.884  0.1218 -0.1345 -0.0819
 2582W        W 6782   4.639   6.395  13.458  0.0785  0.0005  0.2859
 2583W        W 6783   9.528   7.421   0.516 -0.3664  0.0973 -0.1531
 2584W        W 6784   8.527   2.291   0.330  0.2623 -0.0931  0.0662
 2585W        W 6785   2.367   3.867   1.559  0.1753 -0.0268 -0.2539
 2586W        W 6786   3.556   4.792   1.112  0.2289  0.0564 -0.3841
 2587W        W 6787   3.985   5.431   1.715  0.0582  0.0193 -0.4604
 2588W        W 6788   1.469   1.821   1.811 -0.2368 -0.0280  0.1358
 2589W        W 6789   6.046   4.734   4.575 -0.1941  0.2172  0.0468
 2590W        W 6790   4.705  10.045  11.159 -0.2463 -0.4345 -0.1197
 2591W        W 6791   4.097   2.202  13.351  0.1416 -0.1526 -0.4961
 2592W        W 6792   2.639   3.891   0.301  0.1118  0.0098 -0.1786
 2593W        W 6793   3.893   6.086  12.216  0.1143 -0.2021  0.0621
 2594W        W 6794   4.872   0.943   0.923 -0.3357  0.0162 -0.4591
 2595W        W 6795   1.158   2.073  10.490 -0.2313 -0.1052  0.2853
 2596W        W 6796   4.940   2.168   0.276 -0.0503 -0.0686 -0.0407
 2597W        W 6797   1.184   6.190   1.050 -0.0758 -0.0552  0.0359
 2598W        W 6798   8.278   2.487   0.877  0.0835 -0.1736 -0.1988
 2599W        W 6799   2.450   3.057   1.360 -0.2287 -0.1023  0.0172
 2600W        W 6800   0.870   0.791   2.546  0.0789  0.3120 -0.2283
 2601W        W 6801   6.088   0.100   0.384 -0.0581 -0.0857  0.0336
 2602W        W 6802   9.092   7.096   0.186 -0.1264 -0.3258  0.0826
 2603W        W 6803   5.029   2.936   2.029 -0.3671 -0.0997 -0.2198
 2604W        W 6804   1.454   8.524   0.063  0.0591 -0.0602  0.1475
 2605W        W 6805   4.305   2.672   3.455  0.0702  0.2152 -0.0545
 2606W        W 6806   3.102   3.895   3.839 -0.0155  0.0309 -0.2944
 2607W        W 6807   2.786   9.047   0.983 -0.0182 -0.1445 -0.3260
 2608W        W 6808   0.292   9.908  11.207  0.0324  0.0703  0.2227
 2609W        W 6809   6.491   3.798   4.410  0.3264 -0.2081  0.0702
 2610W        W 6810   6.879   5.713   1.608 -0.2360  0.1352  0.0983
 2611W        W 6811   4.890   9.649   0.180 -0.3751 -0.0378 -0.0998
 2612W        W 6812   5.170   2.499   9.118 -0.1261  0.0408  0.0110
 2613W        W 6813   1.412   2.817  12.938 -0.1623  0.2083  0.0750
 2614W        W 6814   0.071   9.030  12.155 -0.1897  0.0594  0.0405
 2615W        W 6815   7.096   7.244   0.089  0.0255  0.1553  0.0193
 2616W        W 6816   5.883   2.964   4.205 -0.1035 -0.3065 -0.0436
 2617W        W 6817   2.568   9.712   3.019  0.0188  0.0040  0.1721
 2618W        W 6818   5.116   0.840  11.998 -0.1503  0.1057  0.0649
 2619W        W 6819   7.765   2.379  12.920  0.1760 -0.1304 -0.1056
 2620W        W 6820   6.712  10.274   9.781 -0.1885  0.0541  0.0265
 2621W        W 6821   0.145   0.961   0.779 -0.1487  0.0435 -0.0288
 2622W        W 6822   0.882   6.227   8.839  0.0800 -0.1068  0.4166
 2623W        W 6823   8.112   4.142  10.208  0.1409  0.2258 -0.0107
 2624W        W 6824   2.327   2.077   2.263 -0.0139 -0.0879  0.0202
 2625W        W 6825   0.373   9.741   3.490 -0.0440 -0.0842  0.0589
 2626W        W 6826   1.803   1.563  12.874  0.1482 -0.1506  0.3757
 2627W        W 6827   7.101   3.625  10.171 -0.2969 -0.2022  0.2789
 2628W        W 6828   8.979   5.801   3.271 -0.1298  0.0005 -0.2051
 2629W        W 6829   5.275   6.762   2.480 -0.1636 -0.4077 -0.4531
 2630W        W 6830   2.526   2.547  13.339 -0.0630  0.0236 -0.2145
 2631W        W 6831   2.147   5.098   9.990  0.1165  0.1952 -0.0499
 2632W        W 6832   6.215   1.294   3.091 -0.0119 -0.0381 -0.1535
 2633W        W 6833   2.002   7.473  13.213 -0.0736 -0.3324 -0.0550
 2634W        W 6834   1.865   8.399  13.199 -0.0781 -0.0501  0.0042
 2635W        W 6835   2.387   4.024   0.730 -0.0964 -0.0614 -0.0176
 2636W        W 6836   5.825   7.130   4.617  0.1781 -0.4148 -0.0299
 2637W        W 6837   9.911   9.381  11.435  0.1626 -0.2342  0.1451
 2638W        W 6838   3.754   3.643   0.261  0.1231  0.0711  0.0428
 2639W        W 6839   6.098   2.665   3.821 -0.1716 -0.1988 -0.1960
 2640W        W 6840   3.875   7.665   3.772  0.2154 -0.3529  0.0792
 2641W        W 6841   5.012   7.839  13.131 -0.2450  0.1668 -0.0232
 2642W        W 6842   6.146   1.690   0.251 -0.2040 -0.1297 -0.1360
 2643W        W 6843   7.592   5.344  10.769 -0.0656  0.0120  0.2330
 2644W        W 6844   4.263   8.366   9.090  0.0475 -0.1356  0.1074
 2645W        W 6845   2.962   7.984   0.371 -0.1756 -0.0815  0.0751
 2646W        W 6846   9.406   3.687   0.405 -0.0177 -0.0417  0.0608
 2647W        W 6847   9.652   2.376  12.977 -0.1170 -0.2536  0.1785
 2648W        W 6848   1.989   4.269   1.585  0.2069 -0.1514  0.0093
 2649W        W 6849   1.168   0.773  12.356 -0.0435  0.0563 -0.1385
 2650W        W 6850   3.208   6.611   2.559  0.0145  0.5035 -0.0403
 2651W        W 6851   5.909   8.849   3.963 -0.2723 -0.2096 -0.2230
 2652W        W 6852   6.680   3.501  10.499 -0.0785 -0.4591 -0.4525
 2653W        W 6853  10.021   9.074  10.524  0.2059 -0.1071  0.1221
 2654W        W 6854   4.656   1.771  12.884 -0.2182  0.1457  0.1246
 2655W        W 6855   8.580   7.581   4.557  0.1821  0.1694  0.0711
 2656W        W 6856   0.134   2.322   1.160 -0.0492 -0.1462 -0.3116
 2657W        W 6857   6.774   9.605  12.600  0.2049 -0.3051 -0.3479
 2658W        W 6858   0.377   2.249  11.204  0.1229 -0.1140 -0.0436
 2659W        W 6859   6.675   6.147  10.750 -0.1319  0.2351  0.2847
 2660W        W 6860   7.894   5.384  12.249 -0.0388 -0.2152 -0.0757
 2661W        W 6861   1.970  10.121   0.625  0.0475 -0.2693  0.0304
 2662W        W 6862   1.404   9.725   2.734 -0.0619 -0.0322  0.2056
 2663W        W 6863   3.669   6.410  12.549  0.1063  0.1991 -0.0325
 2664W        W 6864   4.418   6.100  12.154  0.2027  0.4533 -0.0322
 2665W        W 6865   0.461   8.330   0.764 -0.1588  0.1998  0.2971
 2666W        W 6866   7.916   9.266   2.642  0.0339  0.2121 -0.0097
 2667W        W 6867   6.672   3.027   3.125 -0.0334 -0.0547  0.1128
 2668W        W 6868   4.687   5.369   9.355  0.0850  0.2420  0.0741
 2669W        W 6869   7.133   3.663  11.769 -0.2097 -0.0485  0.1365
 2670W        W 6870   4.307   2.278   0.318 -0.0674  0.2628 -0.1735
 2671W        W 6871   5.113   4.157   0.494 -0.0807  0.0532 -0.2144
 2672W        W 6872   1.953   2.990  10.091 -0.2918  0.2036 -0.1060
 2673W        W 6873   2.834   9.100   9.571 -0.0564 -0.0172  0.2682
 2674W        W 6874   7.207   1.822   3.917  0.2865  0.1248  0.0715
 2675W        W 6875   6.045   6.769   9.575 -0.0993  0.1864 -0.2862
 2676W        W 6876   0.487   6.541   4.931  0.0223 -0.0439 -0.0055
 2677W        W 6877   2.207   8.173  10.771  0.1072 -0.0458  0.0751
 2678W        W 6878   9.607   7.424  13.158  0.1188 -0.0455  0.4394
 2679W        W 6879   7.375   4.215   0.774  0.1373  0.0274  0.1204
 2680W        W 6880   9.473   8.615   9.351 -0.1107 -0.1797 -0.3341
 2681W        W 6881   9.083  10.292   0.918 -0.1373 -0.0940 -0.4903
 2682W        W 6882   6.398   9.625   0.233 -0.1199 -0.0360 -0.0915
 2683W        W 6883   1.816   6.661  10.687 -0.1020  0.2640  0.1093
 2684W        W 6884   5.711   8.691  12.949 -0.2054 -0.2450 -0.0193
 2685W        W 6885   7.542   2.539  13.432  0.1507  0.1025 -0.1777
 2686W        W 6886   7.025   0.237   2.177  0.1235 -0.1139  0.2381
 2687W        W 6887   5.387   7.662   2.097 -0.1110 -0.2554 -0.0508
 2688W        W 6888   0.686   9.339   1.692 -0.0716  0.1342  0.0275
 2689W        W 6889   6.547   8.694  11.288 -0.1433  0.0415 -0.3797
 2690W        W 6890   1.088   1.054  13.038  0.0521  0.1530  0.1546
 2691W        W 6891   2.127   7.936  12.376 -0.0580 -0.0564 -0.2322
 2692W        W 6892   6.067   8.326  12.835 -0.0682 -0.0747 -0.0157
 2693W        W 6893   2.931   1.428  11.145 -0.0739 -0.4847 -0.0940
 2694W        W 6894   5.720   1.402   9.910 -0.1508 -0.2994  0.0259
 2695W        W 6895   2.162   9.047   0.379  0.4108 -0.1582  0.1720
 2696W        W 6896   6.593   8.585   0.183  0.2670 -0.2397 -0.2060
 2697W        W 6897   6.210   9.606   4.051 -0.2393 -0.0232 -0.0662
 2698W        W 6898   0.348   9.460  11.814  0.1814 -0.1329 -0.2212
 2699W        W 6899   1.358   2.095  10.960 -0.4107  0.0419 -0.1146
 2700W        W 6900   9.174   4.527   4.187  0.2319  0.3829 -0.2751
 2701W        W 6901   7.735   5.543  12.938  0.1982 -0.2120  0.0760
 2702W        W 6902   2.468   0.405   9.476 -0.2835 -0.1718  0.1839
 2703W        W 6903   9.230   8.667  11.488  0.2020  0.1262  0.0269
 2704W        W 6904   5.107   1.073   2.034 -0.1645 -0.2858  0.0452
 2705W        W 6905   9.025   3.824  12.351 -0.3327  0.2070  0.3340
 2706W        W 6906   1.680   6.458   8.573 -0.0244 -0.0384  0.2894
 2707W        W 6907   6.585   6.289   3.991 -0.2110  0.2383 -0.4127
 2708W        W 6908   7.850   4.856   0.609  0.0959  0.3036  0.4249
 2709W        W 6909   0.287   8.299   4.767  0.0677 -0.0481 -0.1618
 2710W        W 6910   1.775   2.397  11.598 -0.1049  0.1093  0.0339
 2711W        W 6911   7.697   5.228   9.599 -0.0541 -0.0609  0.1453
 2712W        W 6912   2.230   6.422   1.048  0.3835 -0.1034  0.0813
 2713W        W 6913   4.378   4.085  13.193  0.0125 -0.0410  0.0902
 2714W        W 6914   8.719  10.409   2.295  0.0736  0.0881  0.0796
 2715W        W 6915   1.271   6.039  13.411 -0.0059 -0.1026 -0.0953
 2716W        W 6916   9.806   4.775   2.603  0.0461 -0.0331 -0.0466
 2717W        W 6917   6.848   3.772  11.298 -0.1915  0.0509  0.0484
 2718W        W 6918   5.318   3.342  12.657 -0.3605 -0.1273  0.0136
 2719W        W 6919   1.683   4.351  10.520 -0.1610 -0.0803  0.1478
 2720W        W 6920   7.752   3.198   0.984 -0.0513  0.6197  0.1978
 2721W        W 6921   0.512   4.497   1.796 -0.0892 -0.0088  0.0374
 2722W        W 6922   5.934   4.062   9.383 -0.0966  0.0156 -0.2118
 2723W        W 6923   8.648   6.871   4.241  0.1759 -0.0510 -0.0502
 2724W        W 6924   7.081   5.625   9.906  0.0455  0.0388  0.0073
 2725W        W 6925  10.118   4.624   0.343  0.2732  0.0383 -0.0737
 2726W        W 6926   5.108   1.966   1.764 -0.0216 -0.4029  0.1770
 2727W        W 6927   2.985   6.769   0.746  0.0458  0.1621 -0.0402
 2728W        W 6928   3.327   2.698   1.570 -0.1310  0.1469 -0.4059
 2729W        W 6929   5.429   9.913   2.752  0.0353  0.2399  0.0239
 2730W        W 6930   8.604   4.765   5.982 -0.0357 -0.2699  0.0460
 2731W        W 6931   2.192   1.318   3.746  0.0058  0.1193  0.2037
 2732W        W 6932   6.272   8.313  13.433  0.3919 -0.0638 -0.0575
 2733W        W 6933   4.461   7.359  10.054 -0.0454 -0.1412 -0.0255
 2734W        W 6934   8.944   1.295   3.476  0.0106 -0.2043 -0.2723
 2735W        W 6935   7.157   6.419   2.771 -0.3557 -0.0735 -0.0181
 2736W        W 6936   2.422   4.130  10.146 -0.1454 -0.1422 -0.2137
 2737W        W 6937   9.415   8.209  11.683 -0.0407  0.0705  0.0140
 2738W        W 6938   9.093   9.857  12.843  0.0307 -0.1686  0.1062
 2739W        W 6939   4.654   4.442   9.003  0.2831 -0.2296  0.2766
 2740W        W 6940   1.574   6.807  11.979  0.0260 -0.3031 -0.2471
 2741W        W 6941   2.932   4.983  12.104 -0.4584 -0.1209  0.0068
 2742W        W 6942   7.891   1.779   1.791 -0.2066 -0.0529  0.1143
 2743W        W 6943   5.898   5.073  10.271  0.2686  0.2530 -0.6416
 2744W        W 6944   5.698   3.091   8.675  0.3340  0.0900  0.1087
 2745W        W 6945   9.932   7.136   4.857 -0.0268  0.2006  0.0218
 2746W        W 6946   1.098   7.106   9.860 -0.3626  0.0626  0.1188
 2747W        W 6947   1.564   3.411   0.743 -0.3349 -0.1656 -0.1313
 2748W        W 6948   7.342   0.694   3.859 -0.0723  0.1199  0.1119
 2749W        W 6949   3.755   5.353   2.805 -0.0772 -0.0787  0.0435
 2750W        W 6950   6.335   5.877   0.026  0.0084 -0.2168 -0.0956
 2751W        W 6951   2.328   5.095   0.786 -0.0481 -0.2657 -0.1322
 2752W        W 6952   7.142   2.260   0.789 -0.1527 -0.0144 -0.2539
 2753W        W 6953   1.498   8.515   1.079  0.1827 -0.1890 -0.2752
 2754W        W 6954   5.318   5.746   9.851  0.2934  0.1376 -0.1654
 2755W        W 6955   1.757   8.517  10.034 -0.0265  0.2110  0.1297
 2756W        W 6956   5.677   5.897   3.832  0.2525  0.1879  0.2877
 2757W        W 6957  10.372  10.231   2.870 -0.0571  0.2169  0.3603
 2758W        W 6958   5.354   4.789   2.370 -0.2970 -0.1784 -0.1081
 2759W        W 6959   0.588   7.081  10.984  0.2457  0.2437 -0.0932
 2760W        W 6960  10.098   6.920   2.399  0.0908 -0.2077  0.0159
 2761W        W 6961   8.843   5.898  12.149  0.0359 -0.1657  0.2960
 2762W        W 6962   0.104   3.449  12.628  0.3329  0.2175 -0.0580
 2763W        W 6963   2.128   6.625   3.017  0.2844 -0.1504  0.1535
 2764W        W 6964   9.061   2.253  11.803  0.4468  0.3269 -0.4340
 2765W        W 6965   2.126   1.993  10.319 -0.1426 -0.1552  0.0092
 2766W        W 6966   0.992   5.055  12.408  0.2565 -0.1377  0.6397
 2767W        W 6967   0.098   9.428   1.440  0.2408 -0.2161  0.2655
 2768W        W 6968   9.100   7.165   1.154  0.4048 -0.2003 -0.0251
 2769W        W 6969   5.042   7.983   3.012 -0.1048 -0.1155 -0.2043
 2770W        W 6970   4.879   8.414   3.636 -0.0614  0.3099 -0.3432
 2771W        W 6971   7.786   4.331   3.136  0.1287  0.1162  0.2905
 2772W        W 6972   1.346   6.057   5.693  0.1038  0.1642 -0.0554
 2773W        W 6973   4.586   9.885  13.404 -0.5383 -0.1030  0.2671
 2774W        W 6974   4.690   6.681   2.648  0.2588 -0.2015 -0.0097
 2775W        W 6975   2.983   6.311   8.988  0.1363  0.0821 -0.2123
 2776W        W 6976   9.235   9.586   9.660  0.2275 -0.0552 -0.2067
 2777W        W 6977   0.286   0.934  12.569 -0.0676 -0.0361 -0.0923
 2778W        W 6978   0.736   6.591  10.719 -0.2079  0.3306 -0.1647
 2779W        W 6979   1.942   4.652  12.474 -0.0051 -0.1409 -0.0292
 2780W        W 6980   6.040   0.487  10.135 -0.1402  0.0773  0.1801
 2781W        W 6981   7.611   4.061   2.574  0.2923  0.1162  0.0291
 2782W        W 6982   4.005  10.409   3.146 -0.1775  0.0996  0.0998
 2783W        W 6983  10.432   1.389  10.247 -0.0383 -0.1289  0.0178
 2784W        W 6984   3.727   7.225  12.964 -0.3882 -0.2150  0.3583
 2785W        W 6985   7.034   9.118  11.847  0.2330  0.0352 -0.1258
 2786W        W 6986   4.239   3.457  11.809 -0.0960  0.0764  0.2033
 2787W        W 6987   1.682   9.519  12.109 -0.1213 -0.0325  0.2763
 2788W        W 6988   4.711   1.020  13.396  0.1170 -0.1705 -0.0793
 2789W        W 6989   2.987   3.796  11.992  0.1909  0.1597 -0.0928
 2790W        W 6990   1.990   8.941   1.174 -0.0532  0.1159  0.3063
 2791W        W 6991   3.319   1.370   1.553  0.1250  0.1001  0.1495
 2792W        W 6992   0.526   6.891   3.508  0.0573 -0.0711  0.3132
 2793W        W 6993   3.850   2.838  11.273 -0.0711 -0.1155 -0.0416
 2794W        W 6994   6.008   7.820  13.092  0.1696  0.2369 -0.2642
 2795W        W 6995   0.985   5.605   2.575  0.0911 -0.0703  0.2124
 2796W        W 6996   7.469   7.797  11.743 -0.4726  0.1126 -0.0686
 2797W        W 6997   3.666   6.081   3.792 -0.0335 -0.3158 -0.0336
 2798W        W 6998   7.049   1.667  10.592  0.1448  0.2404  0.0029
 2799W        W 6999   1.660   1.372   1.530  0.1980 -0.0522  0.1191
 2800W        W 7000   4.990   3.223   2.478 -0.0588  0.0088  0.1360
 2801W        W 7001   0.631   9.722   3.006  0.2153  0.0802  0.2697
 2802W        W 7002   2.001   3.890   4.674  0.2131  0.0101  0.2603
 2803W        W 7003   8.374   6.708   2.930  0.0392 -0.1326  0.1043
 2804W        W 7004   0.225   3.234   4.321 -0.0459 -0.1348  0.3738
 2805W        W 7005   7.304   2.689  11.662  0.0032  0.2223  0.0028
 2806W        W 7006   0.242   0.061  12.293  0.1987  0.0973  0.2470
 2807W        W 7007   0.516   8.148   0.298 -0.0259  0.2587 -0.4106
 2808W        W 7008   7.396   0.477  10.827 -0.3330 -0.0253 -0.2489
 2809W        W 7009   0.610   6.493   0.308  0.0555  0.2853  0.1828
 2810W        W 7010   6.237   6.070  11.366  0.1000  0.2514  0.0015
 2811W        W 7011   2.814   6.053   4.523  0.1518  0.0378  0.3329
 2812W        W 7012   5.540  10.025   4.169 -0.0645 -0.0086 -0.0455
 2813W        W 7013   7.331   3.772   4.065  0.0020 -0.0775 -0.2681
 2814W        W 7014   0.717   8.027  12.444  0.0546  0.4440  0.1572
 2815W        W 7015   1.090   2.988   9.796  0.4138  0.0832 -0.6354
 2816W        W 7016   6.726   8.558  11.773 -0.1740 -0.1403  0.2272
 2817W        W 7017   7.202   3.210   0.732  0.1828  0.1732 -0.0312
 2818W        W 7018   1.573   2.035   4.732  0.3053 -0.1722  0.1300
 2819W        W 7019   6.387   8.542  10.391 -0.5407  0.0632 -0.0233
 2820W        W 7020   4.548   8.826   8.510 -0.0599  0.4841 -0.1138
 2821W        W 7021   1.991   2.380   2.830 -0.1996  0.0205 -0.0075
 2822W        W 7022   1.993   1.579   1.224  0.1010 -0.1245 -0.4001
 2823W        W 7023   8.475   5.943   3.878 -0.0291  0.0423  0.0225
 2824W        W 7024   7.112   7.350   4.676 -0.1247  0.0121 -0.1572
 2825W        W 7025  10.322   9.487  12.067 -0.0049 -0.0385  0.0336
 2826W        W 7026   1.583   7.842   5.099 -0.0212  0.2147  0.1641
 2827W        W 7027   7.010   1.832  13.378 -0.1856  0.2319  0.1568
 2828W        W 7028   7.372   0.979  11.124 -0.1874  0.3124 -0.0177
 2829W        W 7029   1.161   0.606  13.418  0.0217  0.4102 -0.0474
 2830W        W 7030   6.937   1.424   0.854 -0.0605 -0.5203 -0.2610
 2831W        W 7031   5.812   8.191   9.461  0.1387  0.1631  0.0262
 2832W        W 7032   1.193   1.666   0.890  0.3171  0.0629  0.2808
 2833W        W 7033   8.272   6.716  11.211  0.2436 -0.0115  0.4278
 2834W        W 7034   7.473   3.068   4.575 -0.3104 -0.2232 -0.0634
 2835W        W 7035   8.407   7.718   9.588  0.1344 -0.1721 -0.0871
 2836W        W 7036   0.022   3.657   0.763  0.1905  0.1893 -0.0917
 2837W        W 7037   1.230   3.595  11.701  0.1304  0.0125  0.1473
 2838W        W 7038   8.774   4.376  10.791  0.1138  0.2047  0.4180
 2839W        W 7039   2.909   9.333   1.983 -0.1247 -0.1125 -0.0950
 2840W        W 7040   4.271   0.448   2.618  0.0348 -0.0921 -0.3544
 2841W        W 7041   5.778   8.260   3.552 -0.1457  0.1733 -0.0312
 2842W        W 7042  10.136   1.446  12.963  0.0086  0.0327  0.0781
 2843W        W 7043   7.340   8.662   1.783 -0.0953 -0.1918 -0.1614
 2844W        W 7044   4.336   9.940   2.928 -0.0527 -0.0999  0.5084
 2845W        W 7045  10.383   9.283  11.588 -0.1025 -0.0687  0.2661
 2846W        W 7046   3.297  10.015  11.293  0.1042  0.2457 -0.3211
 2847W        W 7047   3.903   9.634   0.093 -0.1248  0.1813 -0.1550
 2848W        W 7048   4.887   8.211  13.503  0.0113  0.1664 -0.1268
 2849W        W 7049   7.676   5.102  12.658  0.1285 -0.2079  0.1638
 2850W        W 7050   0.074   6.887  10.254 -0.2399 -0.1566 -0.1585
 2851W        W 7051   9.730   6.768  12.901 -0.1344 -0.1485 -0.3100
 2852W        W 7052   5.686   1.867   8.866  0.1067 -0.3653  0.1914
 2853W        W 7053   3.848   0.015   8.793  0.0983  0.0558  0.1735
 2854W        W 7054   8.709   4.864   3.008 -0.2205 -0.2626 -0.0060
 2855W        W 7055   4.432   1.383   2.751  0.0434 -0.1545 -0.0965
 2856W        W 7056   3.450   4.457  10.303 -0.1352 -0.0488  0.5695
 2857W        W 7057   3.676   6.633  11.929  0.1403  0.0035 -0.0443
 2858W        W 7058   6.504   5.291   2.504  0.6200 -0.1546  0.1108
 2859W        W 7059   0.328   5.935  13.347  0.0450  0.1772  0.0259
 2860W        W 7060   3.205  10.373   1.231  0.1025 -0.3886  0.0615
 2861W        W 7061   6.251  10.157   3.155  0.0368 -0.2159  0.2328
 2862W        W 7062   1.779   0.316   3.445 -0.0899 -0.1040  0.0064
 2863W        W 7063   2.803   0.518  13.138  0.0006  0.1200  0.0170
 2864W        W 7064   6.364   4.991  10.305  0.0627 -0.1261 -0.1450
 2865W        W 7065   7.152   1.033   1.073  0.0949 -0.0602 -0.3371
 2866W        W 7066   1.607   2.052   3.157  0.0584 -0.2552  0.0142
 2867W        W 7067   6.540   8.212  11.105 -0.3564 -0.3424 -0.1542
 2868W        W 7068   3.193   8.936  10.601  0.3625  0.1364 -0.1976
 2869W        W 7069   0.825   9.144  11.083 -0.1914 -0.1085 -0.1401
 2870W        W 7070  10.006   8.173  10.743  0.1126  0.0369 -0.1435
 2871W        W 7071   7.322   7.553   2.891  0.3941 -0.2248 -0.0292
 2872W        W 7072   9.087   6.303  10.803  0.1067  0.3982 -0.0614
 2873W        W 7073   7.034   3.010  10.994  0.3620  0.2211  0.0051
 2874W        W 7074   8.262   5.882  11.494  0.0226 -0.1485 -0.1036
 2875W        W 7075   3.362   4.338   0.748 -0.3768 -0.1070  0.0897
 2876W        W 7076   6.446   6.387   3.406  0.1513 -0.1368  0.1346
 2877W        W 7077  10.453   6.939  13.212  0.0082  0.0580  0.0658
 2878W        W 7078   0.101   0.659  13.022  0.0332  0.0394  0.3081
 2879W        W 7079   9.802   3.551   3.605  0.0911  0.0493  0.0888
 2880W        W 7080   3.928   9.363   0.996  0.3969  0.1422 -0.2489
 2881W        W 7081   3.136   0.313   3.593 -0.0344 -0.1707  0.0032
 2882W        W 7082   9.791   1.093  13.112  0.1084 -0.2047 -0.2069
 2883W        W 7083  10.198   7.597   5.565 -0.1240 -0.1048  0.1298
 2884W        W 7084   5.425   0.165  13.326  0.1598 -0.0250 -0.0562
 2885W        W 7085   3.813   5.847  12.841 -0.1108 -0.0611  0.0455
 2886W        W 7086   3.207   3.841  12.966 -0.0420  0.1170 -0.0252
 2887W        W 7087   8.353   9.043  10.526 -0.0723  0.2493  0.0164
 2888W        W 7088   3.602  10.076   8.869  0.1605 -0.0354  0.0968
 2889W        W 7089   8.009   7.422   3.399 -0.0266  0.1378  0.1011
 2890W        W 7090   3.311   7.155   1.640 -0.2023  0.1286  0.0422
 2891W        W 7091   6.954   7.104  13.119  0.2063 -0.2700 -0.0641
 2892W        W 7092   1.550   0.090  12.466  0.4000 -0.1115  0.2258
 2893W        W 7093   7.409   1.531   3.267 -0.0006 -0.0185  0.0066
 2894W        W 7094   9.571   6.103   2.812  0.1181 -0.1159 -0.2778
 2895W        W 7095   5.635   2.432  12.169 -0.0090  0.1465 -0.1148
 2896W        W 7096   4.996   1.772  10.271  0.4078 -0.2479  0.0827
 2897W        W 7097   7.675   8.544   0.989  0.1559  0.2091 -0.0698
 2898W        W 7098   4.877   2.415   2.490  0.2397 -0.1359  0.0769
 2899W        W 7099   4.948   3.495   0.785  0.0542  0.2936  0.0762
 2900W        W 7100   2.110   4.970   5.161  0.0409  0.1596 -0.3557
 2901W        W 7101   6.060   9.010  10.003 -0.0362 -0.2209 -0.2613
 2902W        W 7102   6.182   6.276  12.869  0.0521 -0.0781  0.1570
 2903W        W 7103   6.834   2.656   2.211 -0.3441  0.2651  0.2809
 2904W        W 7104   7.827   0.909   0.048 -0.0055 -0.1772  0.2215
 2905W        W 7105   7.406   2.776   0.810 -0.1365 -0.3424 -0.0706
 2906W        W 7106   3.877   8.916  12.483  0.2618  0.1500 -0.2598
 2907W        W 7107   4.912   6.281   0.447 -0.1716 -0.1428 -0.0545
 2908W        W 7108   0.873   9.967   4.012 -0.2487  0.0272 -0.0508
 2909W        W 7109   9.339   4.713   2.214  0.0222 -0.1094  0.0183
 2910W        W 7110   0.698   5.521   4.127  0.1034 -0.0969 -0.1443
 2911W        W 7111   5.210   0.073   9.935  0.1482 -0.1021 -0.0637
 2912W        W 7112   5.341   2.155  11.781  0.2997 -0.1888 -0.2747
 2913W        W 7113   4.914  10.153   4.000  0.2657  0.1973  0.0510
 2914W        W 7114   0.502   0.597  11.664  0.1504 -0.0349  0.0721
 2915W        W 7115   7.679   0.600   9.863  0.1152  0.1279  0.0790
 2916W        W 7116   7.079   9.299   3.617 -0.3656  0.0250  0.0515
 2917W        W 7117   3.304   4.353   1.946 -0.2326 -0.1301 -0.0828
 2918W        W 7118   2.710   6.692   3.398 -0.2946 -0.2736  0.2265
 2919W        W 7119   0.372  10.319  10.837 -0.0541  0.1437  0.0463
 2920W        W 7120   5.746   6.431   1.526 -0.0516 -0.2263  0.4001
 2921W        W 7121   7.840   6.714   2.720 -0.0466  0.0118 -0.0571
 2922W        W 7122   2.388  10.128   3.898 -0.1950  0.2376  0.0561
 2923W        W 7123   9.975   8.406   1.209 -0.2220  0.2015  0.1121
 2924W        W 7124   7.840   6.025   1.443 -0.0985  0.0737  0.1416
 2925W        W 7125   6.358   0.162  10.306  0.0604 -0.0254 -0.1616
 2926W        W 7126   6.762  10.025   1.854 -0.2278  0.1348  0.0346
 2927W        W 7127   4.297   2.464   1.438  0.4489 -0.0456 -0.2278
 2928W        W 7128   4.233   7.126   9.378 -0.1915  0.4449 -0.0968
 2929W        W 7129   3.736   9.277  12.875  0.0941 -0.1906  0.0149
 2930W        W 7130   3.727   6.063  13.501  0.3120 -0.0827 -0.2760
 2931W        W 7131   8.933   5.940   5.146  0.0158 -0.3569  0.1259
 2932W        W 7132   3.462   5.327   0.037 -0.2223  0.0525 -0.4382
 2933W        W 7133   8.134   0.741  10.057 -0.1624  0.1132 -0.1246
 2934W        W 7134   3.020   9.998  13.400 -0.0829 -0.1469  0.0491
 2935W        W 7135   7.126   7.737  12.849 -0.2082  0.2513 -0.2104
 2936W        W 7136   7.071   7.072   3.643 -0.1432 -0.5120  0.0037
 2937W        W 7137   7.730   8.071   4.046 -0.0559  0.1440 -0.1454
 2938W        W 7138   4.137   0.649   9.353  0.1971 -0.0820  0.1283
 2939W        W 7139   9.093   7.647   4.281  0.3748 -0.0910  0.0461
 2940W        W 7140   9.144   8.048   0.920 -0.4186 -0.2538  0.2457
 2941W        W 7141   1.675   1.312   0.172 -0.2948 -0.0270  0.4711
 2942W        W 7142   3.938   9.785   9.141 -0.3840  0.1484 -0.1801
 2943W        W 7143   0.642   9.775   0.860 -0.1124 -0.1110 -0.0752
 2944W        W 7144   0.014   8.075   0.677 -0.3857  0.1027  0.2794
 2945W        W 7145   2.957   4.543   0.247  0.3570 -0.2282 -0.0205
 2946W        W 7146  10.454   3.181  10.924 -0.5724 -0.0876 -0.0553
 2947W        W 7147   8.315   2.768  10.319  0.2023 -0.2521  0.1953
 2948W        W 7148   6.978   0.245  11.068  0.0389 -0.2041 -0.1389
 2949W        W 7149   0.201   5.342   0.514 -0.2763 -0.1699 -0.0440
 2950W        W 7150   9.261   7.624   2.129 -0.2483  0.1966 -0.3493
 2951W        W 7151   5.185   9.161   4.007 -0.1396  0.3794  0.1437
 2952W        W 7152   4.383   8.205   3.556 -0.2138 -0.1328  0.0818
 2953W        W 7153   2.596   6.084   0.749 -0.2548 -0.0407  0.1285
 2954W        W 7154   2.516   0.335   0.071 -0.0832  0.1598 -0.2070
 2955W        W 7155   6.899   5.370  11.421  0.1243 -0.2621  0.1301
 2956W        W 7156   4.832   6.864   3.594 -0.2095  0.0017 -0.0451
 2957W        W 7157   1.222   3.410   0.341  0.3388 -0.1612  0.1528
 2958W        W 7158   2.414   9.497   2.573 -0.0082 -0.0742 -0.1347
 2959W        W 7159   0.377   1.478  11.783 -0.0101 -0.4676 -0.0966
 2960W        W 7160   6.179   2.109  13.279 -0.1982 -0.1765  0.2852
 2961W        W 7161   2.054   5.897   8.795  0.1967 -0.0862 -0.2182
 2962W        W 7162   5.517   2.887  12.423 -0.3411  0.2653 -0.1484
 2963W        W 7163   1.809   2.571  12.756 -0.0054 -0.0593  0.0021
 2964W        W 7164   0.181   6.700   1.122 -0.1766  0.0761  0.1802
 2965W        W 7165   6.295   9.863   3.569  0.0131 -0.1142 -0.0345
 2966W        W 7166   0.491   6.711   9.305  0.3216  0.1028  0.2520
 2967W        W 7167   0.620   5.372  13.499  0.0477 -0.3104  0.0945
 2968W        W 7168   5.232   1.803  12.124  0.0653 -0.0356  0.1346
 2969W        W 7169   0.609   8.567   3.143  0.2414 -0.2009  0.0745
 2970W        W 7170   5.275   0.356  12.812 -0.2458 -0.2714 -0.0497
 2971W        W 7171   2.471   9.183  10.583  0.2418  0.1733 -0.0066
 2972W        W 7172   2.248   5.421  10.510 -0.3403  0.2480 -0.0013
 2973W        W 7173   2.078   2.545   2.368  0.1580 -0.4105  0.1631
 2974W        W 7174   4.927   2.440   1.832  0.1880  0.1392 -0.0235
 2975W        W 7175   9.219   0.740   2.687 -0.0140  0.0961 -0.1509
 2976W        W 7176   2.805   6.312   2.709  0.0745  0.0283  0.2379
 2977W        W 7177   7.657   2.100   9.864  0.0785 -0.1486 -0.2165
 2978W        W 7178   3.737   1.354   3.624 -0.0687 -0.1017  0.0364
 2979W        W 7179   3.567   7.242   4.158 -0.0147 -0.1343 -0.0698
 2980W        W 7180   2.214  10.112   9.957 -0.0522 -0.3342 -0.0653
 2981W        W 7181   4.390   4.243   0.233 -0.2410 -0.0151  0.0859
 2982W        W 7182   3.030   8.215   4.889 -0.5001  0.2427  0.0060
 2983W        W 7183   6.101   9.188   2.758  0.1067  0.3440 -0.1357
 2984W        W 7184   0.924   6.020  12.770  0.0237  0.4084 -0.2523
 2985W        W 7185   1.258   7.956   3.280  0.0028 -0.1870  0.3998
 2986W        W 7186   8.095   4.456   9.754  0.0132 -0.2524  0.1945
 2987W        W 7187   5.445   6.640   8.927  0.0175  0.0613 -0.1343
 2988W        W 7188   4.407   0.018  10.404  0.0852 -0.2605  0.0717
 2989W        W 7189   7.536   5.190   0.329  0.1537  0.0699  0.1086
 2990W        W 7190   6.388   6.166   2.175 -0.2870 -0.1539  0.2924
 2991W        W 7191   3.543   3.515   1.323 -0.0201  0.0577 -0.2578
 2992W        W 7192   8.832   3.683  12.796  0.1415 -0.0425  0.3052
 2993W        W 7193   1.871   6.141   2.952 -0.1077  0.0851 -0.0635
 2994W        W 7194   8.701   6.533  10.950 -0.0728 -0.1167  0.0904
 2995W        W 7195   7.352   4.816  10.791 -0.1860 -0.2898  0.0066
 2996W        W 7196   3.261  10.093   0.334 -0.0898 -0.2521  0.0611
 2997W        W 7197   0.686   7.066  11.964 -0.1783 -0.2376  0.1634
 2998W        W 7198  10.035   9.687   4.132 -0.1760  0.1968  0.0100
 2999W        W 7199   3.983   8.487  12.045  0.2798  0.0811  0.1033
 3000W        W 7200   2.130   0.593  12.853 -0.0977 -0.1161 -0.0119
 3001W        W 7201   1.986   3.096   0.579 -0.2155  0.3194  0.0062
 3002W        W 7202   2.260   3.031   4.537 -0.0415  0.3881 -0.3235
 3003W        W 7203   4.418   1.313  10.858 -0.0924  0.1634 -0.1719
 3004W        W 7204   6.740  10.072  11.478 -0.0699  0.1423  0.0916
 3005W        W 7205   0.115   2.505  13.467  0.0625 -0.2560 -0.2773
 3006W        W 7206   4.186   9.716  11.481 -0.0134 -0.1110  0.0018
 3007W        W 7207   2.354   1.908  12.640 -0.0678 -0.0210  0.2662
 3008W        W 7208  10.348   9.507  10.520 -0.0729  0.0654 -0.1871
 3009W        W 7209   3.951   5.877   9.154  0.2121  0.1954 -0.0431
 3010W        W 7210   5.827   4.978  12.171 -0.1420  0.0045  0.1826
 3011W        W 7211   7.845   2.772   2.325 -0.1093 -0.1046 -0.2529
 3012W        W 7212   7.765  10.095  11.268 -0.0338 -0.1717 -0.1586
 3013W        W 7213   7.140   5.475  12.145 -0.2100 -0.1719  0.0640
 3014W        W 7214   6.402   7.485   3.188 -0.1191 -0.1189 -0.3228
 3015W        W 7215   7.153   1.864  11.460  0.1219 -0.0519  0.0790
 3016W        W 7216   1.780   2.496  12.067  0.1222 -0.0471  0.1273
 3017W        W 7217   6.338   7.734  10.535  0.1217  0.0440  0.0606
 3018W        W 7218   6.841   7.948  10.363 -0.2278  0.2351 -0.0651
 3019W        W 7219   6.395   9.105   4.946  0.0311 -0.2711  0.0246
 3020W        W 7220   2.836   9.844  12.528  0.0196  0.3037 -0.1302
 3021W        W 7221   0.808  10.056   1.277  0.2558 -0.2179  0.0144
 3022W        W 7222   1.386   0.207  11.614 -0.2632  0.0839 -0.1347
 3023W        W 7223   9.211   8.875   3.523 -0.0378  0.3603  0.1158
 3024W        W 7224   6.980  10.040   9.399  0.1883 -0.2230 -0.0736
 3025W        W 7225   2.730   1.861   0.120 -0.0701  0.3236 -0.2507
 3026W        W 7226   9.842   5.761   5.323  0.1769  0.1470  0.2852
 3027W        W 7227   1.620   5.402  11.543  0.2193  0.0838  0.2421
 3028W        W 7228   2.214   7.143   2.073  0.1077  0.0968  0.0154
 3029W        W 7229   4.445   1.826   3.018 -0.2881  0.1705 -0.4857
 3030W        W 7230   1.804   2.885   4.508 -0.0956  0.3133 -0.0101
 3031W        W 7231   3.977   3.692  10.781 -0.3887 -0.2614 -0.2411
 3032W        W 7232   5.243   5.898  10.967 -0.2208 -0.1613  0.4030
 3033W        W 7233   6.655   6.450   4.671  0.2340 -0.5726 -0.1925
 3034W        W 7234   0.028   6.328  12.736  0.1399  0.1634  0.0150
 3035W        W 7235   1.321   8.827   4.788  0.2565 -0.1357 -0.3021
 3036W        W 7236   2.286   3.682   3.633  0.1423  0.1071  0.1928
 3037W        W 7237   2.545   5.006  11.746  0.0725  0.2181  0.2770
 3038W        W 7238   3.732   8.979   1.300 -0.2764  0.2389 -0.0991
 3039W        W 7239   6.133   4.195  11.782  0.2298 -0.0454  0.0016
 3040W        W 7240   0.339   4.128   1.011 -0.1274 -0.0358 -0.0941
 3041W        W 7241   1.113   4.600   0.155  0.0998 -0.0138  0.4824
 3042W        W 7242   9.298   4.677  12.577  0.0580 -0.0010  0.0799
 3043W        W 7243   6.649   2.836  12.311  0.1965 -0.1011  0.1671
 3044W        W 7244   2.878   5.915   1.373  0.0849  0.0003 -0.1643
 3045W        W 7245   9.351   1.519   1.512 -0.0365  0.2078  0.0478
 3046W        W 7246   9.273   3.262  13.108  0.1353 -0.1235  0.2176
 3047W        W 7247   8.787   6.623  11.545 -0.0764 -0.1676  0.1192
 3048W        W 7248   0.879   9.996   4.655  0.1462  0.0062  0.1672
 3049W        W 7249   1.830   7.151   1.667 -0.4549 -0.3159  0.1067
 3050W        W 7250   0.084   4.342   4.301  0.3647 -0.3488  0.1246
 3051W        W 7251   8.840  10.384  11.255  0.1059  0.0798  0.0833
 3052W        W 7252   6.761   8.327  12.669  0.0655 -0.1742 -0.0978
 3053W        W 7253   5.780   2.459   0.615 -0.0685 -0.1785 -0.1192
 3054W        W 7254   4.005   4.787   2.351 -0.0805  0.0345  0.0534
 3055W        W 7255   2.554   9.446  12.504  0.5905 -0.2383 -0.1173
 3056W        W 7256   2.876   7.890   4.356  0.1587 -0.0217 -0.2597
 3057W        W 7257   2.228   0.343   2.398 -0.4083  0.7870 -0.0360
 3058W        W 7258   7.117   6.612   4.903 -0.0917  0.0557  0.1963
 3059W        W 7259  10.127   7.128  10.903 -0.0298 -0.1081  0.0903
 3060W        W 7260   2.063   5.032   3.193 -0.3631  0.2120  0.1650
 3061W        W 7261   6.910   0.621   4.182  0.0294 -0.3818 -0.0118
 3062W        W 7262   6.283   8.172  10.718 -0.1750  0.0462  0.1896
 3063W        W 7263   0.650   5.899   1.271  0.0515 -0.0923 -0.3227
 3064W        W 7264   4.479   2.827   0.395 -0.3062  0.0994 -0.1433
 3065W        W 7265   4.745   3.937   3.083 -0.1371  0.0798 -0.0902
 3066W        W 7266   5.790   8.769   3.296  0.1363  0.1159  0.1958
 3067W        W 7267  10.225   2.879  11.672 -0.2777 -0.1872 -0.2129
 3068W        W 7268   5.293   9.011   3.204 -0.0210 -0.2387  0.1944
 3069W        W 7269   2.938   0.727   2.728 -0.2339  0.0796  0.0319
 3070W        W 7270   8.815   1.282   1.732  0.0523 -0.0263  0.3853
 3071W        W 7271   7.720   4.834  11.203  0.1694  0.0660 -0.1130
 3072W        W 7272  10.021   8.373   0.672 -0.1761  0.1884  0.1010
 3073W        W 7273   7.285   0.559   1.232  0.0609 -0.0601  0.1566
 3074W        W 7274   8.105   6.109   3.521  0.1657 -0.3084  0.2880
 3075W        W 7275   8.386   5.148   0.443 -0.1220  0.1289  0.0663
 3076W        W 7276   3.311   2.003   0.190 -0.2242  0.0017 -0.0484
 3077W        W 7277   9.316   2.170   3.165  0.2316 -0.2261  0.3569
 3078W        W 7278   3.250   5.342  12.296 -0.0234 -0.1074  0.0788
 3079W        W 7279   6.575   4.693  12.293  0.0046 -0.1905  0.0228
 3080W        W 7280   3.452   8.328   9.543 -0.1310  0.0588  0.0125
 3081W        W 7281   6.343   0.867  11.563 -0.0530  0.0036 -0.0256
 3082W        W 7282   9.162   7.848   3.190 -0.0964 -0.2022 -0.0059
 3083W        W 7283   3.536   2.592  12.281  0.1351 -0.0810 -0.2513
 3084W        W 7284   4.467   5.920   0.731 -0.0060 -0.0060 -0.0936
 3085W        W 7285   5.222   0.298   3.416 -0.0820 -0.0558 -0.0595
 3086W        W 7286   3.880   9.510   2.795 -0.1225  0.1671 -0.3048
 3087W        W 7287   3.969   4.683   9.151  0.2165 -0.2471 -0.1699
 3088W        W 7288  10.023   0.449  12.637 -0.1172  0.5046  0.0802
 3089W        W 7289   7.912   2.927  10.640 -0.0002  0.1699 -0.3239
 3090W        W 7290   3.776   9.983   0.453  0.1931 -0.1469 -0.2013
 3091W        W 7291   8.109   8.137   1.765  0.0697  0.1014 -0.1233
 3092W        W 7292   7.018   6.220  12.478  0.0107  0.0874 -0.0649
 3093W        W 7293   1.844   5.480   3.476  0.2244  0.2983 -0.1854
 3094W        W 7294   3.086   3.339   4.037  0.1848  0.3013 -0.2459
 3095W        W 7295   8.599   8.952  11.031 -0.2969  0.1653  0.0641
 3096W        W 7296   0.923   4.817   3.926  0.0091  0.0484  0.2546
 3097W        W 7297   5.036   5.123   1.948 -0.1202 -0.0502  0.1068
 3098W        W 7298   5.222   2.711   0.722  0.1307  0.1683 -0.2775
 3099W        W 7299   4.896   8.255   5.060  0.1200  0.1967  0.0181
 3100W        W 7300   9.630   7.707   2.560  0.3337  0.1290 -0.0825
 3101W        W 7301   7.507   9.705   4.390  0.0715  0.2879  0.0025
 3102W        W 7302   9.783   2.010  10.365  0.5035  0.0930  0.1804
 3103W        W 7303   4.083   1.753  11.567  0.2638 -0.2473 -0.0713
 3104W        W 7304   8.027   6.314  12.194 -0.3483  0.2397  0.0771
 3105W        W 7305   5.775   4.531  11.986  0.0242  0.0631 -0.0136
 3106W        W 7306   9.623   5.065  11.187  0.0092  0.0788  0.3901
 3107W        W 7307   1.289   7.738   2.749  0.4133 -0.0800  0.1367
 3108W        W 7308   1.587   2.218  13.443  0.0063 -0.2049 -0.0474
 3109W        W 7309   3.721   6.798   1.042 -0.3855  0.0355 -0.0111
 3110W        W 7310   2.199   4.663  12.902  0.0987  0.1899  0.0829
 3111W        W 7311   1.238   6.976   0.701 -0.1011 -0.0201 -0.2493
 3112W        W 7312   8.923   7.568  12.797  0.1537 -0.1601 -0.1218
 3113W        W 7313   6.274   5.249   1.527  0.4972 -0.0938 -0.2642
 3114W        W 7314   7.567   2.946   3.268  0.1371  0.0017  0.1488
 3115W        W 7315   9.917   1.491  11.594 -0.2019  0.1306  0.0760
 3116W        W 7316   5.215   0.611  13.248 -0.1072  0.1552 -0.0292
 3117W        W 7317   8.751   5.687   4.252 -0.0952  0.1030 -0.0793
 3118W        W 7318   5.764   2.283  10.390  0.2198 -0.0703 -0.0857
 3119W        W 7319   2.655   8.499  11.163  0.2589 -0.0543  0.1785
 3120W        W 7320   7.285   4.584  10.108 -0.2640 -0.1900 -0.0901
 3121W        W 7321   7.959   5.643   4.836 -0.0466  0.0311  0.1152
 3122W        W 7322   4.146   6.829   8.975 -0.1506 -0.1176  0.2406
 3123W        W 7323   7.259   0.342   0.210  0.0879  0.1754  0.1141
 3124W        W 7324   1.117   8.954  12.701  0.0707 -0.0659  0.1763
 3125W        W 7325   3.968   5.532   4.335 -0.1772  0.0021  0.1627
 3126W        W 7326   0.932   1.975  12.995 -0.1337  0.1766  0.0090
 3127W        W 7327   0.140   0.375  12.649 -0.3271 -0.2185 -0.0770
 3128W        W 7328   3.464   0.583   0.622  0.3752  0.1149 -0.1708
 3129W        W 7329   2.389   8.764   8.832 -0.1917 -0.0305 -0.1367
 3130W        W 7330   0.057  10.339  13.386  0.0467  0.0088 -0.0515
 3131W        W 7331   4.595   2.716  12.852  0.1242  0.4815  0.2300
 3132W        W 7332   6.727   3.259   4.171 -0.1244  0.0650 -0.0022
 3133W        W 7333   6.333   8.063  10.208  0.1067 -0.2104  0.2015
 3134W        W 7334   5.531   8.058   3.970  0.1652 -0.2255 -0.3991
 3135W        W 7335   3.789   2.804   2.642 -0.0646 -0.2477  0.0952
 3136W        W 7336   2.998   0.693   0.468  0.0406  0.0687  0.1528
 3137W        W 7337   6.221   3.375   4.341  0.2091 -0.1489  0.2583
 3138W        W 7338   5.442   1.850   9.925  0.0496 -0.2599 -0.4240
 3139W        W 7339   1.305   6.526   5.498 -0.0783 -0.0923 -0.0413
 3140W        W 7340   1.274   5.311   2.787  0.0837 -0.0879  0.2114
 3141W        W 7341   3.979   7.482  10.900 -0.0359  0.3838  0.0564
 3142W        W 7342   8.230   2.298   3.918  0.0836  0.2901  0.2011
 3143W        W 7343   9.514   2.538  10.745 -0.1254  0.2017 -0.1370
 3144W        W 7344   3.073   9.625   3.512 -0.2371  0.3595 -0.2489
 3145W        W 7345   9.522   5.047  12.763 -0.1781  0.0915 -0.0278
 3146W        W 7346   1.357   8.795   9.810 -0.1937  0.0520 -0.4740
 3147W        W 7347   3.197   7.434   0.358  0.1699  0.0375 -0.1013
 3148W        W 7348   2.125   2.936   9.623  0.0044 -0.1392 -0.1541
 3149W        W 7349  10.088   8.295   2.888 -0.1162  0.1826  0.0530
 3150W        W 7350   6.980   3.578   1.805 -0.1919  0.1226  0.0602
 3151W        W 7351   6.538   9.064   2.219 -0.3130  0.0227  0.0760
 3152W        W 7352   2.657   8.364   0.631 -0.0218  0.0520 -0.1390
 3153W        W 7353   6.896   4.990   0.938  0.0996 -0.0487 -0.0308
 3154W        W 7354  10.230   8.150   4.076  0.3344 -0.2046 -0.0769
 3155W        W 7355   8.928   7.094   3.478  0.0972  0.0315 -0.0117
 3156W        W 7356   3.045   5.600  11.264  0.3910  0.0054  0.1483
 3157W        W 7357   1.766   0.322   9.545 -0.0778 -0.1781  0.0666
 3158W        W 7358   9.490   7.726   4.700  0.1080  0.0151  0.2061
 3159W        W 7359   9.892  10.457   2.900  0.1160 -0.0492 -0.0952
 3160W        W 7360   4.886   3.164   9.872 -0.0602  0.0662 -0.1104
 3161W        W 7361   3.841   2.801   0.774 -0.1170 -0.1604  0.1018
 3162W        W 7362   8.263   2.379  12.933  0.3185  0.0391  0.0128
 3163W        W 7363   2.698   1.199  11.491  0.0671 -0.2650  0.0190
 3164W        W 7364   3.017   3.621  12.500 -0.0721  0.3305 -0.2183
 3165W        W 7365  10.020   6.597   1.910 -0.0252 -0.2285  0.2612
 3166W        W 7366   5.709   1.400   0.768  0.0391  0.1169 -0.2289
 3167W        W 7367   8.640   7.422   1.084 -0.4146 -0.2222  0.0458
 3168W        W 7368   9.189   4.209   1.966  0.4088 -0.1815  0.2485
 3169W        W 7369   0.976   1.781  11.034  0.0604  0.4211  0.1601
 3170W        W 7370   6.349   1.167   4.811 -0.1686  0.1537 -0.2249
 3171W        W 7371   2.078   1.394   4.226  0.3968 -0.2520 -0.0076
 3172W        W 7372  10.187  10.398   1.762 -0.0698  0.2596 -0.0293
 3173W        W 7373   3.222   4.084   1.203 -0.0185 -0.0642 -0.0779
 3174W        W 7374   3.466   2.903  11.578  0.0795 -0.0198  0.1331
 3175W        W 7375   1.042   6.029  10.818 -0.2683  0.0678  0.1203
 3176W        W 7376   0.557   2.920  10.862 -0.0746 -0.0661 -0.2568
 3177W        W 7377   6.261   8.449   3.487  0.0981  0.2660 -0.1674
 3178W        W 7378   6.194   4.183   4.628 -0.4209 -0.4647  0.1264
 3179W        W 7379   0.903   2.394   0.355  0.0127 -0.1135 -0.0812
 3180W        W 7380   5.775  10.280   1.459 -0.0106  0.1349  0.0586
 3181W        W 7381   0.677  10.074   9.654 -0.0538  0.0688 -0.2619
 3182W        W 7382   1.786   5.306   0.909 -0.2456 -0.2139  0.0272
 3183W        W 7383   5.808   1.190   8.136 -0.1874  0.1121 -0.3619
 3184W        W 7384   0.609   8.426  13.446 -0.0238 -0.0994  0.1388
 3185W        W 7385   9.964  10.009  13.370  0.0355 -0.0160  0.3172
 3186W        W 7386   9.022   8.655   2.581 -0.4392  0.1338  0.1380
 3187W        W 7387   1.820   2.500   3.290 -0.0526  0.6130 -0.3712
 3188W        W 7388   0.833   3.855  12.749  0.1586  0.2168  0.0164
 3189W        W 7389   2.336   4.189  13.032  0.0978 -0.1034  0.1070
 3190W        W 7390   3.224   2.789   3.240  0.1472  0.1820  0.1188
 3191W        W 7391   2.150   3.819  11.956  0.0830  0.0397  0.3379
 3192W        W 7392   1.517   4.261  12.700  0.1121 -0.0323  0.3218
 3193W        W 7393   7.504  10.222  12.433  0.1299  0.3289 -0.1037
 3194W        W 7394   1.728   5.342   1.368  0.0150  0.2364  0.3127
 3195W        W 7395   5.108   2.928  12.111  0.0258  0.1221 -0.0364
 3196W        W 7396   0.525   8.875   1.566 -0.1442 -0.0035  0.1518
 3197W        W 7397   0.597   5.256  10.357 -0.0724 -0.3018  0.0001
 3198W        W 7398   5.944   7.674   2.222  0.2380  0.1206  0.1367
 3199W        W 7399   7.427   7.042   2.623  0.0140 -0.1093 -0.1129
 3200W        W 7400   1.410   4.714   0.926 -0.0719 -0.1561  0.2781
 3201W        W 7401   3.435   1.238  12.713  0.1724 -0.1973  0.0489
 3202W        W 7402   6.229   7.068   1.799  0.0760  0.1607 -0.0840
 3203W        W 7403   6.153   1.535   2.386  0.0433 -0.1542  0.0745
 3204W        W 7404   2.146   5.723   0.116 -0.3001 -0.0107  0.1080
 3205W        W 7405   7.323   4.211   9.686  0.1985  0.0869 -0.1103
 3206W        W 7406   9.368   2.796   1.939 -0.1060  0.1614 -0.0634
 3207W        W 7407   7.680   3.377   0.533  0.0137 -0.1286 -0.1418
 3208W        W 7408   9.254   8.226   1.363  0.0176 -0.1820  0.1594
 3209W        W 7409   6.796   6.148   1.804 -0.0746  0.0816  0.0705
 3210W        W 7410   5.108   0.728   0.485 -0.0861 -0.2788  0.4032
 3211W        W 7411   6.256   3.258   3.393 -0.1453 -0.1111 -0.0322
 3212W        W 7412   8.012  10.344  12.190  0.2760  0.0796  0.2383
 3213W        W 7413   5.303   7.283  10.371  0.5185 -0.0226 -0.1386
 3214W        W 7414   5.154   5.255   9.103 -0.3789 -0.3541 -0.0544
 3215W        W 7415   1.992   4.212  12.699  0.3459 -0.0397 -0.0717
 3216W        W 7416   9.771   5.789  13.106  0.1814  0.0643 -0.1461
 3217W        W 7417   1.181   7.432   4.166 -0.0896  0.0631  0.0305
 3218W        W 7418   7.739   1.624  10.058  0.3013 -0.0303 -0.0474
 3219W        W 7419   3.809  10.025  11.208 -0.1444  0.0264  0.1393
 3220W        W 7420   6.161   0.685   0.418 -0.1585  0.3328  0.0202
 3221W        W 7421   8.085   7.730   3.787  0.1470  0.0092 -0.3370
 3222W        W 7422   0.355   2.191  10.648 -0.0041  0.3755 -0.4065
 3223W        W 7423   2.796   5.187   4.143 -0.2996  0.1225  0.0355
 3224W        W 7424   0.270   7.236   3.208 -0.0153 -0.0607  0.0838
 3225W        W 7425   7.913   2.560   3.067 -0.1053  0.1118 -0.0734
 3226W        W 7426   7.309   3.374  11.215 -0.0249  0.2690  0.1853
 3227W        W 7427   4.798  10.016   8.937 -0.1102 -0.0798 -0.1511
 3228W        W 7428   6.354   3.581  12.625  0.1836  0.1259  0.2528
 3229W        W 7429   1.979   7.595  10.496  0.2164  0.0980  0.1580
 3230W        W 7430   9.285   7.059  12.085 -0.4253  0.0981  0.2118
 3231W        W 7431  10.156   4.028   2.095  0.0194 -0.1587  0.0821
 3232W        W 7432   4.499   0.445  12.201 -0.0912  0.0151  0.0694
 3233W        W 7433   9.554   7.082   0.921  0.1410  0.0059  0.1190
 3234W        W 7434   3.779   4.546   9.965  0.1133 -0.0319 -0.3030
 3235W        W 7435   4.649   9.874   2.566 -0.0464  0.2546 -0.1722
 3236W        W 7436   0.834   0.941  11.605 -0.0422  0.3613  0.1512
 3237W        W 7437   3.090   2.659   0.127  0.1857  0.1516 -0.2781
 3238W        W 7438   6.575   3.385   9.508  0.5343  0.1539 -0.0631
 3239W        W 7439   5.227   9.150   0.132  0.0486  0.0636  0.2805
 3240W        W 7440   8.090   8.123   2.987 -0.2454  0.1412 -0.0669
 3241W        W 7441   8.973   1.006   0.788 -0.1097  0.2363  0.3709
 3242W        W 7442   2.711   3.162   5.043 -0.0112 -0.2730 -0.1734
 3243W        W 7443   9.458   0.336   3.618 -0.0099 -0.1149  0.1737
 3244W        W 7444   3.876   4.076   9.846 -0.1007 -0.1484 -0.4768
 3245W        W 7445   3.710   0.482  11.416  0.2107  0.0516 -0.0199
 3246W        W 7446   7.920   9.809   2.510 -0.1649 -0.0881  0.3253
 3247W        W 7447   5.449   7.591   9.174  0.2728  0.0557 -0.1648
 3248W        W 7448   6.861   2.894  11.726  0.0242 -0.0176 -0.1317
 3249W        W 7449   0.191   3.481   9.944 -0.2192 -0.0467 -0.1101
 3250W        W 7450   8.703   6.735  12.521 -0.0150  0.1802  0.1385
 3251W        W 7451   5.596   1.171  13.256  0.0826  0.0761 -0.0880
 3252W        W 7452   1.007   4.958   9.891 -0.0428 -0.0115  0.0259
 3253W        W 7453   8.914   7.233   3.966 -0.0605 -0.0433 -0.2677
 3254W        W 7454   4.817   1.677  11.705 -0.1229 -0.1420  0.3822
 3255W        W 7455   6.949   3.738   1.313 -0.0495 -0.3482 -0.1290
 3256W        W 7456   4.885   8.663  11.392 -0.0571  0.1203 -0.1936
 3257W        W 7457   3.325   6.273   4.149  0.2299 -0.2476 -0.3310
 3258W        W 7458   8.334   7.805   3.285 -0.0688 -0.0187 -0.2811
 3259W        W 7459   5.484   9.635   1.302  0.2747 -0.0437 -0.1153
 3260W        W 7460   8.131   9.133   3.557  0.0750  0.0488  0.1362
 3261W        W 7461   8.940   0.025   9.841  0.0458 -0.5412  0.0965
 3262W        W 7462   5.944  10.227  11.664 -0.0518  0.0215 -0.2023
 3263W        W 7463   0.467   6.391   2.085  0.1416  0.0209  0.1869
 3264W        W 7464   4.436   2.540  10.469 -0.1791 -0.0620  0.1988
 3265W        W 7465   1.919   1.192  13.203 -0.0167 -0.0936 -0.2541
 3266W        W 7466   3.401   5.081   3.040 -0.0648  0.2962 -0.4159
 3267W        W 7467   0.023   3.488   2.526  0.0033 -0.1157  0.0769
 3268W        W 7468   7.141   5.835   4.478  0.1577 -0.0665  0.0086
 3269W        W 7469   7.290   5.438  10.360 -0.2044  0.1063  0.2403
 3270W        W 7470   9.551   5.233   3.839 -0.1063 -0.1355 -0.0788
 3271W        W 7471   8.510   9.824  11.574  0.3743 -0.6180  0.0725
 3272W        W 7472   2.063   7.639   0.687 -0.2175 -0.0343 -0.0802
 3273W        W 7473   4.249   1.174   3.596  0.1769  0.0112 -0.2512
 3274W        W 7474   5.818   9.556   2.746 -0.0237  0.1683 -0.3697
 3275W        W 7475   3.853   7.829  11.736  0.0625  0.4196 -0.1397
 3276W        W 7476   6.930   0.016   1.673 -0.0263 -0.2074  0.1309
 3277W        W 7477   5.948   4.306  10.685 -0.1597  0.1592 -0.3969
 3278W        W 7478   5.161   3.768  13.358 -0.0756  0.0908  0.2742
 3279W        W 7479   9.919   4.877   1.512 -0.0213  0.0472 -0.0906
 3280W        W 7480   0.150   6.128   5.643 -0.0122  0.1311 -0.1112
 3281W        W 7481   6.189   5.740   1.656  0.0759  0.2595 -0.1826
 3282W        W 7482   9.242   7.021   2.018  0.1440 -0.1624 -0.1013
 3283W        W 7483   3.669   2.407  11.491 -0.1649 -0.0157  0.4065
 3284W        W 7484   9.893   8.775  12.588 -0.0942  0.0750 -0.0883
 3285W        W 7485   9.288   6.810   0.577  0.0905 -0.4210 -0.0803
 3286W        W 7486   3.776   7.191  11.723  0.3169  0.1811 -0.0724
 3287W        W 7487   8.736   2.354   3.723 -0.1759  0.0393 -0.1554
 3288W        W 7488   6.397   5.090   4.451  0.3067  0.1139  0.3350
 3289W        W 7489   4.924   9.188  11.859  0.1928  0.0085 -0.1945
 3290W        W 7490   3.593   1.697   2.517  0.2800 -0.1163 -0.4007
 3291W        W 7491   4.250   0.880   2.996 -0.1789 -0.0286  0.1704
 3292W        W 7492   9.232   2.993   0.010  0.1322  0.0272  0.0632
 3293W        W 7493   8.207   0.351  12.135  0.0006 -0.0470  0.0580
 3294W        W 7494   2.354   1.334   9.703 -0.1170  0.0717 -0.0354
 3295W        W 7495   5.311   1.747   0.605  0.1903 -0.0384 -0.3064
 3296W        W 7496   2.453   4.560   3.302  0.2235  0.0595 -0.1717
 3297W        W 7497   5.949   0.513   8.860  0.3630 -0.0757  0.0696
 3298W        W 7498   6.357   1.975   4.666  0.0720  0.1045  0.0457
 3299W        W 7499   4.782   2.304   9.322 -0.0865 -0.1773  0.0751
 3300W        W 7500  10.221   3.198  12.218 -0.0202 -0.0432 -0.3023
 3301W        W 7501   3.000   7.810  11.868  0.2286 -0.1536 -0.1816
 3302W        W 7502   4.832   3.759  12.576  0.0560  0.0437 -0.0901
 3303W        W 7503   6.652   0.403   1.814 -0.1205  0.3288 -0.0068
 3304W        W 7504   9.827   4.801   3.817 -0.5758 -0.0361  0.0156
 3305W        W 7505   0.799   5.010   1.046  0.0190 -0.2477 -0.0838
 3306W        W 7506   8.187   0.643   0.245 -0.0996 -0.1933  0.0489
 3307W        W 7507   3.444   1.533   3.978  0.2479 -0.1800  0.2415
 3308W        W 7508   0.991   1.527  12.849 -0.2385  0.2630  0.0349
 3309W        W 7509   2.998   6.317   3.373 -0.1023 -0.1148 -0.0728
 3310W        W 7510   2.978   8.363  11.513 -0.1488  0.0285  0.0315
 3311W        W 7511   4.172   5.970   1.587 -0.0755 -0.0579  0.0252
 3312W        W 7512   5.533   9.021   3.627  0.0984  0.0508 -0.1175
 3313W        W 7513   1.020   5.120   3.160 -0.1346 -0.0970  0.1618
 3314W        W 7514   6.249   4.528   4.153  0.0800 -0.0037  0.0970
 3315W        W 7515   8.031   0.110   9.133  0.0766  0.0728  0.0836
 3316W        W 7516   3.220   1.089   9.379 -0.0287 -0.2090  0.0817
 3317W        W 7517   0.621   5.962   9.680 -0.0879  0.0310 -0.0329
 3318W        W 7518   4.078   3.584  11.303  0.2764 -0.1764 -0.2326
 3319W        W 7519   5.300   2.802  10.880  0.0467  0.1575  0.2536
 3320W        W 7520   2.499   5.525   0.545  0.0840  0.0909 -0.0096
 3321W        W 7521   3.629   8.347   3.394  0.0073  0.1188  0.0529
 3322W        W 7522   8.562   9.378  11.308 -0.1645  0.1504 -0.1159
 3323W        W 7523   7.695   5.518  10.148 -0.1866 -0.0543 -0.0866
 3324W        W 7524   1.557   8.040  12.705 -0.1559 -0.1606  0.2316
 3325W        W 7525   4.540   4.928   4.939  0.1043 -0.2061  0.0485
 3326W        W 7526  10.072   8.591   9.586 -0.0988  0.0858 -0.0647
 3327W        W 7527   8.512   3.603  11.463  0.1024 -0.2134  0.1430
 3328W        W 7528   2.314   1.099  10.123 -0.2544  0.0685  0.0237
 3329W        W 7529   8.492   4.774   4.025  0.5256 -0.0087 -0.3030
 3330W        W 7530   1.528   2.844   1.647 -0.1835  0.2208 -0.1318
 3331W        W 7531   1.437   0.682   9.510 -0.0208 -0.0459  0.0073
 3332W        W 7532   8.156   8.282  12.970 -0.0973  0.2567  0.5884
 3333W        W 7533   6.023   9.646   1.108 -0.4265 -0.2726  0.1997
 3334W        W 7534   1.393   4.804  10.662  0.1334 -0.3134  0.0147
 3335W        W 7535   6.764   5.452   4.577 -0.1257  0.1815  0.3043
 3336W        W 7536   4.075   6.327   3.681  0.0428  0.2444  0.0355
 3337W        W 7537   1.747   4.345   1.129 -0.4149 -0.3837  0.0392
 3338W        W 7538   8.667   2.271   2.091 -0.1791  0.0292 -0.1130
 3339W        W 7539   0.702   7.672  12.075 -0.0809  0.0383 -0.1129
 3340W        W 7540   3.722   1.276   9.444  0.3804 -0.1778 -0.0991
 3341W        W 7541   4.471  10.422   1.138  0.0895 -0.1913 -0.0478
 3342W        W 7542   6.147   8.439  11.386 -0.2680  0.0781 -0.2233
 3343W        W 7543   5.845   7.556   3.188 -0.0248 -0.1179  0.0635
 3344W        W 7544   3.554   5.511  11.232 -0.1838 -0.1394 -0.1125
 3345W        W 7545   5.260   1.321   1.620  0.0710 -0.0611  0.3030
 3346W        W 7546   0.696   1.142   2.915 -0.0750 -0.0637  0.2130
 3347W        W 7547   7.170   8.826  10.865 -0.1665 -0.0087 -0.1522
 3348W        W 7548   6.433   3.461  11.450 -0.2744 -0.1697 -0.1187
 3349W        W 7549   9.095   2.545   2.284  0.1877  0.4245 -0.1209
 3350W        W 7550   2.968   1.717  12.039 -0.1900  0.0532  0.2263
 3351W        W 7551   3.449   8.984  10.143 -0.1483 -0.1436 -0.2619
 3352W        W 7552   6.573   2.421  11.039  0.2937 -0.3073  0.2141
 3353W        W 7553   3.699   7.315   1.271  0.0044 -0.0562 -0.1337
 3354W        W 7554   3.642   8.850   1.791 -0.2235  0.2925  0.1816
 3355W        W 7555   4.697   2.059   2.141 -0.0986  0.2167  0.0547
 3356W        W 7556   1.512   7.453  13.343  0.0307  0.1265  0.2934
 3357W        W 7557   5.176   9.681   4.122  0.1043  0.0810 -0.1699
 3358W        W 7558   2.583   8.554  11.730  0.2238 -0.0029 -0.1356
 3359W        W 7559   3.080   4.591   1.112 -0.2841 -0.2031 -0.0074
 3360W        W 7560   2.660   5.826   3.502  0.0160  0.2182 -0.1978
 3361W        W 7561   7.737   7.663   2.004 -0.1530 -0.3973  0.1373
 3362W        W 7562   2.435   5.620  12.784  0.0870  0.2843 -0.0414
 3363W        W 7563   0.001   5.856   2.364  0.1123 -0.3604  0.1125
 3364W        W 7564   8.649   9.762  12.072  0.3182  0.0283  0.0179
 3365W        W 7565   2.670   3.150   2.014  0.0775  0.2392  0.4250
 3366W        W 7566   4.560   6.453   2.160 -0.1553  0.2017  0.0298
 3367W        W 7567  10.140   8.884   1.164 -0.0861  0.2440 -0.0147
 3368W        W 7568   4.528   1.755  10.577  0.0239 -0.1363  0.2009
 3369W        W 7569   7.597   5.689   0.511 -0.0733  0.1029 -0.0453
 3370W        W 7570   2.709   8.128  10.788 -0.2620 -0.0195  0.1507
 3371W        W 7571   5.051   9.582   2.754  0.1929 -0.0349 -0.1538
 3372W        W 7572   8.112   3.572  10.154  0.2086  0.0943 -0.1792
 3373W        W 7573   3.379   6.188   0.428 -0.4007 -0.1365  0.1271
 3374W        W 7574  10.447   5.785   9.990 -0.0908 -0.3578 -0.0801
 3375W        W 7575   0.607   0.685   0.768 -0.0528  0.1385  0.0851
 3376W        W 7576   5.367   6.576  12.988  0.0626  0.1530 -0.0569
 3377W        W 7577   4.368   0.475  10.203  0.1271 -0.0269 -0.1534
 3378W        W 7578   2.208   8.482   9.828 -0.0327  0.2437 -0.0803
 3379W        W 7579   2.070  10.110   9.073  0.1144 -0.0281 -0.0078
 3380W        W 7580   0.465   9.765   1.450  0.2030  0.0125 -0.0586
 3381W        W 7581   9.763   5.598  10.721  0.2137  0.3422  0.0449
 3382W        W 7582   7.908   2.801  13.191 -0.1054 -0.2433 -0.0221
 3383W        W 7583   0.453   5.704   0.319 -0.3830 -0.4203 -0.0301
 3384W        W 7584   9.073   7.793   2.706  0.1493  0.0985 -0.1128
 3385W        W 7585   3.068   7.776  13.406 -0.3592  0.1086  0.1121
 3386W        W 7586   3.378   4.894  11.923 -0.1811  0.5551  0.1525
 3387W        W 7587   7.442   9.405   1.894  0.2491  0.0141 -0.0724
 3388W        W 7588   2.652   1.814   2.626 -0.1758  0.1352 -0.1621
 3389W        W 7589   8.673   9.712   9.239 -0.0449  0.2685  0.0685
 3390W        W 7590   8.243   5.562   1.570 -0.3007  0.4742  0.0216
 3391W        W 7591   5.527   5.228  13.306 -0.2420 -0.2337 -0.0367
 3392W        W 7592   8.325   7.680  11.303  0.2786 -0.1863  0.0256
 3393W        W 7593   8.784   6.692   3.180  0.1884  0.1187 -0.2118
 3394W        W 7594  10.447   7.592   0.359 -0.0284  0.3990  0.3337
 3395W        W 7595   0.306   8.903   1.098  0.0079 -0.1274  0.1403
 3396W        W 7596   5.076   7.746   2.500 -0.2972  0.0815  0.1324
 3397W        W 7597   3.980   2.312   3.599  0.2005 -0.1468  0.0949
 3398W        W 7598   7.871   2.700  12.597 -0.1961  0.2323  0.0860
 3399W        W 7599   2.348   7.619  11.972  0.2584  0.0241 -0.2639
 3400W        W 7600   6.733   8.449   4.432 -0.0527 -0.1435 -0.1654
 3401W        W 7601  10.436  10.164   4.187  0.0498 -0.0198  0.1386
 3402W        W 7602   8.903   1.191  11.216 -0.0926 -0.1130 -0.1020
 3403W        W 7603   7.711   1.093   3.078 -0.0557 -0.0103  0.2850
 3404W        W 7604   6.784   7.710  11.345  0.0358  0.0347  0.1238
 3405W        W 7605   3.359   0.065   2.506 -0.4271  0.1477 -0.2185
 3406W        W 7606   5.525   5.677   8.483 -0.0749 -0.1044 -0.2226
 3407W        W 7607   5.264   5.213   8.647 -0.0870  0.0624  0.0812
 3408W        W 7608   5.524   8.449   1.885  0.1308 -0.1999 -0.1694
 3409W        W 7609   7.922   6.682   0.863  0.2403  0.0228  0.0323
 3410W        W 7610   7.979   8.068   9.941  0.0656  0.1734  0.1212
 3411W        W 7611   1.126   7.722  10.062  0.4710 -0.1112  0.4597
 3412W        W 7612   0.055   4.924   0.297 -0.3329 -0.0840  0.2412
 3413W        W 7613   6.008   8.230   1.255  0.2397  0.0432 -0.1357
 3414W        W 7614   4.121   5.254   2.478 -0.1967  0.3430 -0.0584
 3415W        W 7615   2.824   9.101   8.659 -0.1066 -0.1957  0.1242
 3416W        W 7616   5.940   7.491   1.703  0.1246  0.4546  0.0252
 3417W        W 7617   4.612   9.970   1.230  0.1436 -0.2122 -0.2487
 3418W        W 7618   8.399   6.066   4.359  0.2079 -0.1904 -0.1056
 3419W        W 7619   1.899   3.657   4.151  0.3412  0.0453 -0.0262
 3420W        W 7620   7.490   2.831   1.336  0.0507  0.0544 -0.0146
 3421W        W 7621   5.955   9.379  12.076 -0.2570 -0.1775 -0.0057
 3422W        W 7622   0.001   7.832   2.235 -0.1910  0.0052 -0.0226
 3423W        W 7623   4.235   6.096   3.199 -0.1216 -0.1428 -0.1074
 3424W        W 7624   1.312   0.853  10.694 -0.1908 -0.0168 -0.0482
 3425W        W 7625   5.558   9.183   9.243  0.1085  0.1744 -0.1735
 3426W        W 7626   6.788   3.432   0.935 -0.1486  0.4469 -0.0313
 3427W        W 7627   4.473   2.575   8.430 -0.3563  0.3770 -0.0247
 3428W        W 7628   4.995   5.203  11.219 -0.0676 -0.1904  0.0735
 3429W        W 7629   4.614   1.166  12.928  0.2257 -0.0037 -0.2048
 3430W        W 7630   3.815   5.472   0.448 -0.4321  0.0374  0.3260
 3431W        W 7631   4.228  10.192   8.969  0.1290  0.2638  0.3465
 3432W        W 7632   5.568   7.928   0.906 -0.1375 -0.1522 -0.1202
 3433W        W 7633   9.908   5.685   0.879 -0.0153 -0.0892  0.0726
 3434W        W 7634   0.674   8.400   1.724 -0.0637  0.0016  0.1392
 3435W        W 7635   8.900   8.475   3.796 -0.4086 -0.4376  0.3525
 3436W        W 7636   5.151   6.326   4.391  0.0961  0.3075 -0.0763
 3437W        W 7637   7.443   7.946  10.721  0.0842 -0.0864  0.2735
 3438W        W 7638   6.038   6.616   1.959 -0.2653 -0.0140 -0.1130
 3439W        W 7639  10.045   5.554   2.257  0.2104 -0.3171  0.0068
 3440W        W 7640   6.944   6.756  12.624  0.2790  0.1041 -0.2981
 3441W        W 7641   1.486   1.976   2.680  0.3222  0.2423  0.0513
 3442W        W 7642   9.526   0.602   2.233 -0.0989 -0.0878  0.1507
 3443W        W 7643   6.632   5.606  11.891  0.2204 -0.1301  0.1539
 3444W        W 7644   4.310   3.161   4.338  0.3582  0.1405  0.0880
 3445W        W 7645   3.658  10.069  12.092  0.2947 -0.0342 -0.0256
 3446W        W 7646   8.185   3.953   1.374 -0.1035 -0.2604 -0.3710
 3447W        W 7647   6.089   6.546   2.436 -0.0969 -0.0768  0.3026
 3448W        W 7648   3.736   7.462   2.516 -0.2027  0.2556  0.3272
 3449W        W 7649   6.170   1.942  11.545  0.0706  0.0509 -0.1678
 3450W        W 7650   4.844   1.241   2.485 -0.3282  0.1124 -0.0736
 3451W        W 7651   9.530   5.780   1.165  0.1673 -0.0597  0.1432
 3452W        W 7652   2.225   5.070  12.213 -0.0068 -0.2309 -0.1179
 3453W        W 7653   8.222   8.634   1.008 -0.5123 -0.1223 -0.1164
 3454W        W 7654   8.647   3.594  13.290 -0.2298  0.2167 -0.2632
 3455W        W 7655   4.708   0.567   3.211 -0.0894  0.4210 -0.1118
 3456W        W 7656   5.916   6.778  11.894 -0.0618 -0.0239 -0.0958
 3457W        W 7657   6.803   6.836   0.467 -0.0357 -0.0099  0.1848
 3458W        W 7658   6.374   8.925   0.612 -0.3113  0.0470  0.1581
 3459W        W 7659   6.037   1.800   2.853 -0.2122  0.1220  0.0835
 3460W        W 7660   1.417   6.841   2.860  0.4311 -0.0838  0.0919
 3461W        W 7661   2.964   6.356  11.207  0.0037  0.0502  0.0933
 3462W        W 7662   4.503   4.927   9.340  0.1172  0.0855 -0.0829
 3463W        W 7663  10.373   6.197   1.077  0.0785  0.0208 -0.2489
 3464W        W 7664   0.464   3.483   1.648 -0.0180 -0.1963  0.1900
 3465W        W 7665   9.264   1.068  12.903  0.1308  0.0512  0.0603
 3466W        W 7666  10.071   0.539  13.158  0.1714 -0.0473 -0.2367
 3467W        W 7667   9.835  10.162   0.361 -0.0163 -0.0977  0.0847
 3468W        W 7668   7.551   6.974   4.872  0.0197 -0.2380  0.1879
 3469W        W 7669   1.872   0.452  11.165 -0.1100  0.3330 -0.2255
 3470W        W 7670   9.992   1.979   4.108 -0.1571 -0.2011  0.1238
 3471W        W 7671   6.162   0.498   8.290 -0.3061  0.1362  0.1830
 3472W        W 7672   3.959   3.779   2.736 -0.0209  0.1050  0.1355
 3473W        W 7673   5.677   2.276   2.482  0.0012  0.2470  0.1568
 3474W        W 7674   4.741   1.058   0.376 -0.1875 -0.2797  0.1761
 3475W        W 7675   4.042   6.362  11.717  0.0706 -0.1280 -0.1502
 3476W        W 7676  10.109   5.122   0.113  0.1615 -0.1702 -0.1444
 3477W        W 7677   0.438   7.112   8.853  0.0049 -0.0556 -0.3334
 3478W        W 7678   2.264   8.258  12.041 -0.0352  0.0259 -0.1426
 3479W        W 7679   1.907   1.403  10.107  0.0460 -0.0642  0.0134
 3480W        W 7680   7.506   2.324  12.525 -0.0054 -0.0409  0.0268
 3481W        W 7681   6.133   0.201   3.229 -0.1238 -0.1837 -0.1080
 3482W        W 7682   5.959   3.229  11.593  0.1402 -0.0486  0.1292
 3483W        W 7683   1.368   9.741  13.481  0.2421  0.1135 -0.0510
 3484W        W 7684   0.955   2.686   2.031 -0.0003  0.1200 -0.1759
 3485W        W 7685   1.622   1.624   2.296 -0.2536  0.0415 -0.0812
 3486W        W 7686   1.660   6.045   9.997 -0.1715 -0.1525  0.1639
 3487W        W 7687   2.174   4.318   2.885  0.1313  0.0511 -0.2300
 3488W        W 7688   0.596   5.677  12.565 -0.1500 -0.1917  0.3183
 3489W        W 7689   4.665   1.641   1.801  0.4737 -0.1641  0.0063
 3490W        W 7690   9.643   3.873   2.176 -0.1982  0.0310  0.0434
 3491W        W 7691   7.219   2.380   4.088  0.2201 -0.1813  0.0577
 3492W        W 7692   9.497   2.547   1.514  0.0586 -0.1527  0.2265
 3493W        W 7693  10.302   4.273  10.202  0.2510 -0.1392  0.2155
 3494W        W 7694   7.069   0.281   9.732  0.0581  0.1767 -0.0213
 3495W        W 7695   4.420   8.807  10.528  0.0993 -0.0985 -0.1691
 3496W        W 7696   7.754   1.349   1.515  0.0756  0.0925  0.0155
 3497W        W 7697  10.348   7.962   3.100 -0.1603 -0.0049 -0.3859
 3498W        W 7698   7.604   7.336   0.734 -0.0829  0.0918  0.0405
 3499W        W 7699   4.310   1.817  12.030 -0.1106  0.2191  0.0473
 3500W        W 7700   3.546   2.735   4.980  0.5891  0.1372 -0.0222
 3501W        W 7701   4.858   0.281  13.193  0.2863  0.1408 -0.0713
 3502W        W 7702   6.015   9.111  12.805 -0.0738  0.1016 -0.1093
 3503W        W 7703   1.273   9.670  11.847  0.0256  0.1913  0.0393
 3504W        W 7704   7.941   7.124   4.633 -0.0351  0.1951 -0.4832
 3505W        W 7705   7.456   6.227   4.107 -0.1035  0.1662 -0.0212
 3506W        W 7706   5.366   7.969   0.007  0.1533  0.4990  0.1783
 3507W        W 7707   7.201   4.941   1.730  0.0677  0.1552 -0.3972
 3508W        W 7708   5.061   2.834   1.194  0.0657  0.2642 -0.1952
 3509W        W 7709   8.938   2.193  13.503 -0.3725  0.1491 -0.1847
 3510W        W 7710   3.821   2.090  12.916 -0.3815 -0.0965 -0.0032
 3511W        W 7711   7.040   6.238   8.713 -0.1264  0.0250  0.4756
 3512W        W 7712   7.701   4.213   2.076 -0.1153 -0.3795 -0.1531
 3513W        W 7713   7.639   5.807  10.579  0.0114  0.0791  0.0306
 3514W        W 7714   2.622   6.750   4.188  0.0510 -0.3607  0.2067
 3515W        W 7715   0.867   3.814  10.694  0.3336 -0.0781  0.2250
 3516W        W 7716   5.288   9.901   4.682  0.2938 -0.1934 -0.3689
 3517W        W 7717   4.633   3.342   0.405  0.1946 -0.1887 -0.2033
 3518W        W 7718   4.216   0.375   1.030 -0.1729 -0.0450  0.0649
 3519W        W 7719   7.773   7.495   4.159  0.0252 -0.0932 -0.1542
 3520W        W 7720   9.310   7.378   3.374  0.2941 -0.1207 -0.4723
 3521W        W 7721   4.706   2.497   0.693 -0.0938  0.2169 -0.0096
 3522W        W 7722   6.030   0.214   3.775  0.0560  0.2317 -0.1024
 3523W        W 7723   1.300  10.452  10.807 -0.0927  0.1232  0.1406
 3524W        W 7724   4.026   8.975   2.863  0.1428 -0.0268 -0.1166
 3525W        W 7725   4.399   1.977   3.874 -0.0278  0.5388  0.0236
 3526W        W 7726   8.244   8.029  12.096  0.2140  0.2758  0.2902
 3527W        W 7727   1.719   2.919   2.541  0.1648 -0.5368  0.2703
 3528W        W 7728   4.817   8.810  10.848  0.2087  0.0635  0.0113
 3529W        W 7729   0.021   6.214   1.960  0.4051 -0.1892  0.2019
 3530W        W 7730   1.106   3.138   0.757  0.2121  0.2053  0.0663
 3531W        W 7731   5.875   5.413  11.681  0.2259  0.2653 -0.1084
 3532W        W 7732   1.343   9.060   2.037 -0.0895 -0.1455  0.0453
 3533W        W 7733   5.389   1.846   1.393 -0.0894 -0.0753 -0.2571
 3534W        W 7734   4.275  10.148   9.493 -0.1675  0.0420 -0.1866
 3535W        W 7735   8.667   2.441  10.812  0.1513 -0.1099  0.5254
 3536W        W 7736   0.472   4.177   9.468 -0.0772  0.0711 -0.0581
 3537W        W 7737   1.291  10.027   3.678  0.0848 -0.2179  0.1400
 3538W        W 7738   7.781   0.386   2.194 -0.3776  0.1969 -0.1317
 3539W        W 7739   8.844   5.064   3.866 -0.1612  0.3094 -0.0223
 3540W        W 7740   8.760   2.874   3.894  0.1563 -0.0156 -0.0614
 3541W        W 7741   6.169   7.310  11.899 -0.1499  0.0266 -0.1326
 3542W        W 7742   1.928  10.305   2.111 -0.0626  0.2721 -0.1925
 3543W        W 7743   5.438   1.613   4.173 -0.0190 -0.0448  0.2864
 3544W        W 7744   3.270   9.445   4.686 -0.0668 -0.0724  0.2530
 3545W        W 7745   1.910   7.297   3.388  0.0787 -0.1331 -0.0235
 3546W        W 7746   6.919   2.184   9.323  0.0521 -0.2833  0.0766
 3547W        W 7747   3.655   0.901  13.478 -0.0506 -0.2245  0.0305
 3548W        W 7748   7.677   0.418  12.896 -0.2921 -0.0791 -0.1796
 3549W        W 7749   5.048   0.706   9.170 -0.2641 -0.0371  0.0570
 3550W        W 7750   6.279   9.866   9.602 -0.1431  0.1882  0.2240
 3551W        W 7751   3.783   1.051  12.348  0.1735  0.1406  0.2524
 3552W        W 7752   0.543   1.509   0.776  0.0519  0.1504 -0.2610
 3553W        W 7753   0.721   2.676  11.828 -0.1518  0.0304  0.0841
 3554W        W 7754   6.288   9.107  12.335 -0.1289 -0.0189  0.1673
 3555W        W 7755   2.868   4.232   0.748 -0.2759 -0.0017  0.0241
 3556W        W 7756   3.235   2.431  11.295  0.0755 -0.0320  0.3264
 3557W        W 7757   3.886   4.755  12.366  0.1602 -0.0647  0.0462
 3558W        W 7758   3.173   2.525  10.720 -0.0331  0.1134  0.0684
 3559W        W 7759   9.533   0.822  12.053 -0.0405  0.1612 -0.1165
 3560W        W 7760   3.718   2.962  12.542 -0.0094  0.0468 -0.1783
 3561W        W 7761   5.457   6.331  12.004 -0.1368  0.0401 -0.0635
 3562W        W 7762   7.076   0.108  10.567  0.0175 -0.1479  0.0747
 3563W        W 7763   6.814   2.901   0.618  0.1501 -0.3389 -0.2867
 3564W        W 7764   3.582   7.018  10.182  0.2090 -0.1092 -0.2679
 3565W        W 7765   1.496   2.306  10.051  0.1740 -0.2579  0.2585
 3566W        W 7766   2.327   8.424  13.254  0.0031  0.2357  0.2700
 3567W        W 7767   8.427   3.114  11.441 -0.1759 -0.0659 -0.2347
 3568W        W 7768   5.157   9.315   9.477 -0.0019  0.0274 -0.0167
 3569W        W 7769   2.164   6.560  12.640 -0.2135  0.1271  0.1053
 3570W        W 7770   3.676   6.470   4.627  0.3685 -0.0284  0.0321
 3571W        W 7771   0.485   6.354   2.618 -0.3031  0.2832  0.0222
 3572W        W 7772   0.222  10.298  12.786 -0.2161  0.1017 -0.2237
 3573W        W 7773   7.348   5.340   3.784 -0.1858 -0.3353  0.1004
 3574W        W 7774   4.902   3.450   3.104 -0.0588  0.0404  0.1315
 3575W        W 7775   0.960   2.977   3.339  0.0079 -0.2201  0.0749
 3576W        W 7776   2.171   5.165   1.277 -0.0689  0.2765  0.4621
 3577W        W 7777   4.259   8.038   0.448  0.2283 -0.2960  0.0845
 3578W        W 7778   8.960  10.157  10.211  0.3108  0.0097 -0.2322
 3579W        W 7779   5.643   0.542  11.222  0.1515 -0.1715 -0.1583
 3580W        W 7780   3.565   2.530  12.798 -0.0929 -0.5243  0.2242
 3581W        W 7781   7.389   1.608   0.086 -0.5301  0.2738  0.1281
 3582W        W 7782   5.959   2.705   2.456  0.1035 -0.0703 -0.1147
 3583W        W 7783   3.769   0.500   4.683 -0.1712  0.2747  0.0554
 3584W        W 7784   9.504   2.041  11.671  0.3334 -0.1333  0.0753
 3585W        W 7785   3.083   1.669   2.368  0.0153  0.0793 -0.4395
 3586W        W 7786   4.532   5.700   4.264 -0.1110 -0.4224  0.4290
 3587W        W 7787  10.146   5.038  10.343  0.1039  0.1672 -0.1007
 3588W        W 7788   5.655   6.523  12.573 -0.1561 -0.0445 -0.3331
 3589W        W 7789   8.433   4.707  11.806  0.2803 -0.1840 -0.5256
 3590W        W 7790   4.208   9.195  11.387  0.1239 -0.1571  0.4665
 3591W        W 7791   2.333   3.468   4.242  0.1539  0.1023  0.3211
 3592W        W 7792   2.758   6.551  10.796  0.2928  0.0690 -0.3952
 3593W        W 7793   6.140   6.671   4.435 -0.2176  0.0297  0.1715
 3594W        W 7794   9.916   6.109  12.084 -0.2383 -0.1440 -0.1441
 3595W        W 7795   6.207   5.323  12.035  0.1830 -0.1737 -0.3279
 3596W        W 7796   8.659   7.777   4.080  0.0764  0.2585 -0.2638
 3597W        W 7797   2.610   5.796  13.317 -0.2414  0.2619  0.1652
 3598W        W 7798   8.797   8.748  11.811 -0.0938 -0.1211 -0.1186
 3599W        W 7799   7.051   4.694   1.262 -0.3397  0.0738  0.0012
 3600W        W 7800   6.194   3.918  13.150 -0.0977 -0.0200  0.3859
 3601W        W 7801   1.273   9.260   0.237  0.2736  0.0064  0.0762
 3602W        W 7802   1.825   4.578   2.009  0.1881 -0.1209 -0.2075
 3603W        W 7803   8.126   0.261  13.129  0.2772 -0.1141  0.1358
 3604W        W 7804   9.707   8.996  10.062  0.2182 -0.2578 -0.2699
 3605W        W 7805   2.130   4.683  10.427  0.2187 -0.0726  0.0908
 3606W        W 7806   9.685   7.279  10.586 -0.0751  0.3081 -0.2126
 3607W        W 7807   8.568   8.709   2.441  0.0370  0.0430 -0.0284
 3608W        W 7808   1.368   6.334   2.980 -0.0273 -0.0659  0.2627
 3609W        W 7809   3.101   9.182   9.143 -0.1063  0.1218 -0.6461
 3610W        W 7810   5.510   6.804   2.008 -0.3383  0.2642  0.0478
 3611W        W 7811   9.020   0.284   0.009 -0.0168  0.1148 -0.0008
 3612W        W 7812   2.588   5.943   0.272 -0.1932  0.0320  0.2005
 3613W        W 7813   9.593   7.018   0.172  0.0336  0.3821 -0.1396
 3614W        W 7814   8.272   4.214  11.880  0.3845 -0.0148  0.1662
 3615W        W 7815   7.241   3.884   9.243 -0.3087 -0.0605 -0.1935
 3616W        W 7816   8.710   7.577   2.449 -0.0757  0.0628  0.0150
 3617W        W 7817   5.344  10.418   1.705  0.0285 -0.2054  0.1472
 3618W        W 7818   2.077   8.620  11.756  0.3143  0.2639 -0.2414
 3619W        W 7819   7.165   3.550   2.450  0.2965 -0.2221 -0.2505
 3620W        W 7820   0.393   8.745  10.474  0.2236  0.2519 -0.1721
 3621W        W 7821   4.864   3.429   3.622 -0.0006 -0.0936  0.1416
 3622W        W 7822   3.909   4.300  12.623  0.2566  0.1781  0.0787
 3623W        W 7823   9.841   9.737   1.597 -0.2425 -0.2192  0.2100
 3624W        W 7824   3.965   5.085  10.492  0.2400 -0.0058 -0.1402
 3625W        W 7825   7.190   6.624   3.508 -0.3155  0.2374  0.1271
 3626W        W 7826   5.640   5.872   1.542  0.0875  0.1144  0.0840
 3627W        W 7827   7.586   8.619   0.102 -0.0823 -0.2421  0.2853
 3628W        W 7828   5.768   1.876  12.003  0.2507  0.1560  0.0189
 3629W        W 7829   6.370   9.343  10.705 -0.1555  0.1992 -0.0310
 3630W        W 7830   5.755   1.324   9.010 -0.1758 -0.2958  0.1102
 3631W        W 7831   1.528   6.539  12.531 -0.0501 -0.2703 -0.2528
 3632W        W 7832   4.485   7.397   1.837 -0.3379 -0.1877 -0.0781
 3633W        W 7833   6.583   1.609   0.492  0.0196 -0.1043 -0.3711
 3634W        W 7834   1.879   8.026   3.847 -0.1235 -0.0597  0.1994
 3635W        W 7835   3.358   5.390   0.631  0.3549 -0.0801 -0.2141
 3636W        W 7836   4.331   7.103  12.204 -0.3676 -0.0233 -0.1163
 3637W        W 7837   9.028   0.473  10.584  0.2657 -0.3050 -0.2542
 3638W        W 7838   6.922   2.379  12.611  0.1566  0.4409  0.1882
 3639W        W 7839   0.472   3.181   2.418  0.2700  0.1844 -0.0177
 3640W        W 7840   2.151   7.795   3.431  0.1005 -0.0143  0.1133
 3641W        W 7841   5.458   5.553   9.434  0.1946  0.1474  0.0240
 3642W        W 7842   6.920   2.476  13.468 -0.0459 -0.1268  0.1302
 3643W        W 7843   2.193   7.690   2.144 -0.1004  0.0574 -0.2850
 3644W        W 7844   2.304   0.605  11.396 -0.4224  0.1914  0.1888
 3645W        W 7845   9.752   3.587   9.794  0.3214 -0.1073  0.0139
 3646W        W 7846   0.748   3.329   3.645 -0.0820  0.0491 -0.3204
 3647W        W 7847   5.195   3.846  10.168 -0.0117 -0.2380  0.1223
 3648W        W 7848   0.571   5.822   2.701 -0.0696 -0.1849  0.0832
 3649W        W 7849  10.069   7.320   2.012 -0.0423 -0.0369  0.1210
 3650W        W 7850   5.010   4.839   1.550  0.1240  0.3721  0.3875
 3651W        W 7851   9.038   3.462   0.128 -0.1673 -0.5047 -0.1126
 3652W        W 7852   9.833   4.054  12.486 -0.1062 -0.0443 -0.2266
 3653W        W 7853   5.193   9.724   9.202 -0.1007 -0.3802 -0.0697
 3654W        W 7854   6.520   6.569  11.148  0.1760  0.0191 -0.1043
 3655W        W 7855   4.948   4.934   9.476 -0.1362  0.1966  0.1664
 3656W        W 7856   4.710   4.259  12.414 -0.0618  0.1483 -0.1142
 3657W        W 7857   5.014   1.566   2.124  0.0972  0.1277  0.0805
 3658W        W 7858   5.665   9.424   4.044  0.1962 -0.0568  0.0413
 3659W        W 7859   0.282   3.846   5.323 -0.1480  0.1717  0.0411
 3660W        W 7860   7.410   1.078   0.173  0.0283 -0.2116  0.0200
 3661W        W 7861  10.117   7.680  11.998 -0.1675 -0.0349 -0.0164
 3662W        W 7862   9.474  10.460   2.321 -0.2903  0.2467 -0.1174
 3663W        W 7863  10.295   2.214  12.201  0.0058  0.3144 -0.0261
 3664W        W 7864   7.172   1.211   3.952  0.0461 -0.1450  0.1603
 3665W        W 7865   2.223   5.335   5.492  0.0134 -0.1284  0.0895
 3666W        W 7866   2.341   3.202   3.691  0.4557  0.0578  0.0529
 3667W        W 7867   6.548   8.102   0.323 -0.1533 -0.0088  0.4340
 3668W        W 7868   3.852   0.912   0.406 -0.0930 -0.1069 -0.0690
 3669W        W 7869   4.214   4.936  12.040 -0.2150  0.0620 -0.2377
 3670W        W 7870   9.424   6.054  12.555  0.3028  0.1015 -0.2199
 3671W        W 7871   8.025   7.201  11.434  0.0801  0.1151  0.0480
 3672W        W 7872   3.647   5.435  13.073 -0.2093  0.3261 -0.4352
 3673W        W 7873   7.868   2.168   4.722  0.1616  0.1342 -0.0569
 3674W        W 7874   5.275   4.117   4.084  0.0813  0.1062 -0.0201
 3675W        W 7875   2.193   9.523  11.962 -0.3260  0.3741 -0.1063
 3676W        W 7876   6.971   6.735  13.477  0.1189  0.2997 -0.0126
 3677W        W 7877   7.981   1.578  11.109 -0.0038  0.1008 -0.2780
 3678W        W 7878   9.840   4.711   9.480 -0.0028 -0.2955 -0.2704
 3679W        W 7879   3.783   5.456   3.823 -0.3951  0.0558 -0.0517
 3680W        W 7880  10.174   8.764  10.007  0.0611  0.5366 -0.0313
 3681W        W 7881   4.632   7.892   1.635  0.2428  0.0231 -0.5461
 3682W        W 7882   2.283   2.700  12.105  0.1495  0.1747 -0.1345
 3683W        W 7883   7.139   1.481   9.871  0.0891 -0.0438  0.0548
 3684W        W 7884   4.144   1.757   0.348  0.0623 -0.0659 -0.0070
 3685W        W 7885   1.552   0.480  12.138 -0.3615 -0.0656  0.3051
 3686W        W 7886   1.478   5.183  11.023 -0.0224 -0.2254  0.4465
 3687W        W 7887   1.955   1.248  11.845  0.0384  0.1512 -0.4138
 3688W        W 7888   3.246   9.459   3.009  0.1101  0.1693  0.2659
 3689W        W 7889   6.830   5.264   4.055 -0.1286 -0.4342  0.0225
 3690W        W 7890   1.854   7.223   9.373  0.1607 -0.1651  0.0003
 3691W        W 7891   5.652   6.429   2.684 -0.1137  0.2513  0.3968
 3692W        W 7892   9.230   5.878   4.197 -0.0551 -0.2894 -0.0319
 3693W        W 7893   3.020   0.876   8.928  0.1176  0.2809  0.0096
 3694W        W 7894   8.513   2.583   4.249  0.1644 -0.1983  0.3789
 3695W        W 7895   7.513   6.433   1.069 -0.0547 -0.2419 -0.0006
 3696W        W 7896   4.809   3.723   9.810  0.1576  0.5140 -0.0529
 3697W        W 7897   8.047   5.736   2.805 -0.0929  0.0191 -0.2655
 3698W        W 7898   8.792   9.566   3.894  0.1471  0.2704  0.0521
 3699W        W 7899   6.445   4.739   1.053  0.0267 -0.0243  0.2100
 3700W        W 7900   8.546   5.581   9.555  0.0224 -0.2788  0.3509
 3701W        W 7901   4.528   6.052   1.218  0.2422  0.1499  0.0168
 3702W        W 7902   3.755   3.462  10.409 -0.0186  0.1680 -0.2555
 3703W        W 7903   3.419   8.152  11.233 -0.0433 -0.0545  0.1728
 3704W        W 7904   6.846   5.217  13.304 -0.0757  0.0045  0.0386
 3705W        W 7905   2.845   9.882  11.480  0.1442 -0.0322 -0.0955
 3706W        W 7906   6.218  10.383   4.895 -0.0053 -0.4336  0.1909
 3707W        W 7907   1.110   4.353  11.151 -0.1993  0.1357  0.2990
 3708W        W 7908   0.381   7.640   1.840 -0.3132 -0.0536 -0.2404
 3709W        W 7909   2.229   1.720  11.703 -0.0086 -0.2232  0.0465
 3710W        W 7910   0.645   6.436   3.682  0.0233 -0.1718  0.1391
 3711W        W 7911   3.745   2.715   3.210 -0.0442  0.2708 -0.0615
 3712W        W 7912   0.442   6.007  12.861 -0.4655 -0.0701 -0.2354
 3713W        W 7913   4.816   5.052  10.405 -0.0047 -0.1608  0.0297
 3714W        W 7914   2.371   9.611  10.225  0.1401  0.2637  0.1237
 3715W        W 7915   0.559   6.315  12.472  0.2852 -0.1838  0.1966
 3716W        W 7916   2.140  10.009   3.211 -0.2852 -0.3817  0.0360
 3717W        W 7917   7.824  10.456   3.534 -0.0796 -0.1612 -0.1391
 3718W        W 7918   2.701   4.076   1.238 -0.1861  0.1320  0.2976
 3719W        W 7919   1.781   8.284  11.596 -0.0534 -0.1599  0.1056
 3720W        W 7920   3.906   8.298   2.968 -0.2080 -0.0986  0.1445
 3721W        W 7921   7.308   0.521  13.221  0.2383  0.0260 -0.2829
 3722W        W 7922   5.991   4.709  11.460  0.2780  0.5226  0.1523
 3723W        W 7923   1.053   5.167   4.312  0.1496 -0.0209  0.1074
 3724W        W 7924   3.860   6.269  10.063 -0.1661  0.0114  0.2483
 3725W        W 7925   3.239   7.889   8.810  0.4570 -0.0360 -0.0710
 3726W        W 7926   3.646   9.668   8.095 -0.0881 -0.2187  0.0330
 3727W        W 7927   3.596   2.823  13.332 -0.0605 -0.0135  0.0525
 3728W        W 7928   7.188  10.290  10.023 -0.0411  0.1353 -0.1392
 3729W        W 7929   2.993   2.975  11.613 -0.1538  0.0563 -0.2917
 3730W        W 7930   0.706   4.710   2.353 -0.1967  0.1796 -0.0297
 3731W        W 7931   1.665   5.091  12.465 -0.0246 -0.1845  0.3597
 3732W        W 7932  10.006   0.541   0.152  0.1267  0.0954  0.0580
 3733W        W 7933   5.516   7.370   9.864 -0.2095 -0.3115  0.1376
 3734W        W 7934   6.350   7.689  11.493  0.0034 -0.0621 -0.1603
 3735W        W 7935   6.948   3.952   2.652  0.1550  0.0168  0.0887
 3736W        W 7936   3.472   1.386   0.049  0.0008 -0.0161  0.2153
 3737W        W 7937   7.461   5.596  12.499 -0.1134  0.0261  0.0293
 3738W        W 7938   0.631   2.637  13.480  0.0645 -0.0018 -0.0344
 3739W        W 7939   6.745   0.150   2.627 -0.1246  0.0996  0.0101
 3740W        W 7940   7.730   2.082   8.843  0.1182  0.2192 -0.2285
 3741W        W 7941   7.746   6.811  12.066 -0.3302 -0.2430  0.0468
 3742W        W 7942   3.327   2.813   0.858  0.1000 -0.0658 -0.0469
 3743W        W 7943   2.846   6.616   9.321  0.3326 -0.2664  0.0429
 3744W        W 7944  10.130   3.485   2.117  0.0386 -0.3533 -0.2289
 3745W        W 7945   0.479  10.211   3.149 -0.1496  0.4998  0.2425
 3746W        W 7946   1.850   0.108  12.893  0.3854  0.0829  0.0660
 3747W        W 7947  10.401   5.893   0.292 -0.1247  0.0654  0.0289
 3748W        W 7948   3.863  10.038   3.564 -0.0037 -0.1812  0.1265
 3749W        W 7949  10.201   2.347  12.639  0.2715 -0.0282 -0.2145
 3750W        W 7950   2.305   3.297  12.730 -0.0605 -0.1125  0.1559
 3751W        W 7951   9.175   0.251  12.988 -0.1626  0.2909  0.1276
 3752W        W 7952   8.107   5.742   1.066  0.2856  0.0736  0.1023
 3753W        W 7953   0.559   6.402   1.073 -0.0175  0.2332  0.0447
 3754W        W 7954   2.083   9.175   1.677 -0.1139 -0.1956 -0.1178
 3755W        W 7955   8.564   1.686   2.060  0.0105  0.0344  0.3016
 3756W        W 7956   1.184   1.363   1.311  0.0374  0.0813 -0.2214
 3757W        W 7957   9.612   1.515  12.997 -0.3670 -0.1269 -0.0301
 3758W        W 7958   1.730   5.042   1.753  0.0834  0.0116  0.1666
 3759W        W 7959   0.669   1.415  12.207  0.0541  0.1752 -0.0169
 3760W        W 7960   1.131   2.012   1.389 -0.0830  0.0561  0.0900
 3761W        W 7961   6.592   6.252   0.886 -0.0516  0.3833 -0.1973
 3762W        W 7962   6.053   5.644  12.417 -0.1930 -0.0840  0.0640
 3763W        W 7963   6.682   3.440   2.312  0.1746  0.1078  0.1726
 3764W        W 7964   3.075   6.406  12.739 -0.0932 -0.1382  0.0422
 3765W        W 7965   9.954   5.233   4.129 -0.1002 -0.0552  0.0920
 3766W        W 7966   6.273   9.219   1.045 -0.0050 -0.1825 -0.2324
 3767W        W 7967   4.373   1.196   8.768  0.1122 -0.1131  0.1675
 3768W        W 7968   3.458   4.794   9.324  0.2783 -0.0483 -0.1298
 3769W        W 7969   6.327   3.162   3.892  0.2133  0.1821 -0.0022
 3770W        W 7970   6.621   8.453   2.313  0.1423  0.1125  0.1065
 3771W        W 7971  10.432   4.441   1.492  0.1068  0.1268 -0.2400
 3772W        W 7972   1.074   8.608   1.523 -0.2002  0.1022  0.0387
 3773W        W 7973   5.881   1.074  11.291 -0.2080  0.1959 -0.0796
 3774W        W 7974   7.515   4.536   2.728 -0.1254 -0.4694  0.0028
 3775W        W 7975   9.203   4.474  11.665 -0.0930 -0.3979  0.0950
 3776W        W 7976   0.792   5.178  11.356 -0.5039  0.0877  0.0660
 3777W        W 7977   7.522   9.265  10.876 -0.2060  0.2809 -0.2739
 3778W        W 7978   9.255   1.808   0.082 -0.3068  0.0028  0.0303
 3779W        W 7979   5.237   4.059   8.745 -0.5066  0.0513  0.4037
 3780W        W 7980   9.447   5.144   2.866  0.2441 -0.0371 -0.0049
 3781W        W 7981   0.771   9.542   4.353  0.4182 -0.1899  0.0125
 3782W        W 7982   2.552   3.063   4.134  0.1127  0.1923  0.2690
 3783W        W 7983   9.203   9.493   0.340  0.0192  0.1507  0.2522
 3784W        W 7984   9.814   1.063   0.222 -0.1416  0.0202 -0.1618
 3785W        W 7985  10.161   5.150   2.556  0.1357  0.0200  0.1694
 3786W        W 7986   7.772   5.398   1.298 -0.1681 -0.0060 -0.3726
 3787W        W 7987   3.458   4.425  12.243 -0.3262 -0.0449  0.0725
 3788W        W 7988   5.927   8.505   0.266  0.4240 -0.1904  0.1044
 3789W        W 7989   3.851   3.539   9.940  0.0942 -0.3059 -0.0431
 3790W        W 7990   1.125  10.205   9.342 -0.1275  0.1798  0.3524
 3791W        W 7991   3.961   6.819   9.620 -0.1923 -0.0324  0.2191
 3792W        W 7992   8.339   2.413   9.475  0.0515  0.0099 -0.3582
 3793W        W 7993   4.919   7.269  12.423  0.1159 -0.0799  0.2217
 3794W        W 7994   1.761   4.048   2.943 -0.0181  0.0576 -0.2674
 3795W        W 7995   2.160   5.944  13.132 -0.0784  0.0669  0.3327
 3796W        W 7996   3.249   3.530   9.215 -0.1909 -0.0388  0.0772
 3797W        W 7997   1.480   8.121  10.254 -0.0702  0.2128  0.1427
 3798W        W 7998   4.730   3.317  11.216  0.3256  0.0011 -0.2783
 3799W        W 7999   8.898   0.961   3.042 -0.2822  0.0398  0.3397
 3800W        W 8000  10.110   9.948  10.523  0.2047  0.3051 -0.2823
 3801W        W 8001   6.556   8.230   3.171  0.0381 -0.2696 -0.0496
 3802W        W 8002   6.167   7.123  10.532  0.1270  0.0279 -0.0289
 3803W        W 8003   1.455   4.710  11.198  0.0075  0.3395 -0.1028
 3804W        W 8004   0.301   0.253  13.163 -0.3090  0.2830 -0.1128
 3805W        W 8005   0.588   5.190  10.846 -0.0874  0.0228 -0.3679
 3806W        W 8006   8.103   9.683  11.231  0.0865 -0.4272  0.2459
 3807W        W 8007   2.185   0.035   3.594 -0.0193 -0.0135 -0.1446
 3808W        W 8008   7.709   1.969   0.226 -0.0590 -0.0546 -0.1878
 3809W        W 8009   1.894   5.118  10.712  0.2189 -0.1536  0.2493
 3810W        W 8010   3.326   5.602   3.017 -0.3003  0.0522  0.0035
 3811W        W 8011   5.098   9.736   9.867  0.0604 -0.2596  0.0442
 3812W        W 8012   2.667   4.284   4.155  0.0810 -0.0610 -0.1632
 3813W        W 8013   8.476   2.876   0.596 -0.2030  0.1587  0.1103
 3814W        W 8014   4.776   2.673  10.036  0.0747  0.2171  0.1049
 3815W        W 8015   4.986   2.250   8.661  0.0246 -0.4003 -0.0916
 3816W        W 8016   8.334   5.270   1.167 -0.1220  0.0147 -0.0152
 3817W        W 8017  10.028   8.351   0.139 -0.0815  0.0333  0.0924
 3818W        W 8018   1.539  10.045   2.316 -0.1185 -0.1802  0.1685
 3819W        W 8019   6.488   4.446  11.538 -0.1477  0.0904  0.2281
 3820W        W 8020   8.478   7.083   4.662  0.1358 -0.3919 -0.1004
 3821W        W 8021   6.768   4.023  10.436  0.1450 -0.1551  0.0218
 3822W        W 8022   4.854   4.178   4.351  0.0365 -0.2217  0.2548
 3823W        W 8023   7.988   2.866   0.785  0.0447  0.0912 -0.0769
 3824W        W 8024   3.303   4.906   0.725 -0.0433 -0.2312  0.0684
 3825W        W 8025   6.664   0.512  12.701  0.0928  0.0911  0.0731
 3826W        W 8026   5.259   2.979  13.484 -0.0382 -0.2680  0.2427
 3827W        W 8027   9.059   5.618  12.534  0.3594  0.1078 -0.0621
 3828W        W 8028   5.775   8.773  10.961 -0.0816  0.2081  0.2063
 3829W        W 8029   4.246   3.991   3.054 -0.0487 -0.0056  0.0999
 3830W        W 8030   0.993   6.666   1.859  0.1234  0.4619 -0.1366
 3831W        W 8031   3.509   8.717   9.197  0.0922 -0.3539 -0.0919
 3832W        W 8032   2.577   4.011  10.622  0.0770 -0.1567 -0.1767
 3833W        W 8033  10.321   5.574  11.381 -0.1259  0.0908  0.0380
 3834W        W 8034   4.097   0.829   2.266  0.0826  0.1881 -0.0059
 3835W        W 8035   8.279   4.078  12.400  0.1957  0.3292  0.0965
 3836W        W 8036   8.011   1.829  13.255  0.0981  0.2639 -0.1756
 3837W        W 8037   7.611   8.775   9.438  0.4422  0.0631  0.2181
 3838W        W 8038   5.652   2.673   2.862 -0.1877  0.0121 -0.2066
 3839W        W 8039   1.372   7.130   9.291 -0.0987  0.2839  0.0167
 3840W        W 8040   6.866   4.510   2.047 -0.1125 -0.2154 -0.2481
 3841W        W 8041   8.938   1.435  12.215 -0.2245 -0.3977 -0.1701
 3842W        W 8042   1.144   0.316   2.379 -0.1188  0.2671 -0.1354
 3843W        W 8043   5.826   0.836   2.025  0.2980  0.0412 -0.0002
 3844W        W 8044   0.492   5.241   1.699  0.2900 -0.2412  0.0775
 3845W        W 8045   0.643   2.350   0.866 -0.2510  0.0226 -0.0380
 3846W        W 8046   7.642   1.902  11.375  0.0286  0.3018  0.1648
 3847W        W 8047   7.514   8.592   3.783 -0.0083 -0.0908  0.1087
 3848W        W 8048   9.317   5.086  10.780  0.2258  0.4988  0.1907
 3849W        W 8049   6.319   1.026  10.199  0.0676 -0.3411  0.3876
 3850W        W 8050  10.405   8.481   3.228 -0.3015  0.3119 -0.0535
 3851W        W 8051   4.091   1.449   4.613  0.2344  0.0677 -0.2186
 3852W        W 8052   5.245   2.883   3.749 -0.0174 -0.0034  0.1890
 3853W        W 8053   9.167   9.132  11.837 -0.2311  0.1205 -0.2228
 3854W        W 8054   0.506   0.602   9.719 -0.2602 -0.3547 -0.1049
 3855W        W 8055   0.534   2.610  12.923  0.0929  0.2117  0.1850
 3856W        W 8056   7.837   2.069  10.918  0.2645 -0.0892 -0.0063
 3857W        W 8057   5.677   9.400   0.823 -0.0231  0.1677 -0.0413
 3858W        W 8058   5.231  10.375  12.933 -0.2686  0.2656  0.0121
 3859W        W 8059   7.143   6.732   4.076 -0.5495  0.0007 -0.0578
 3860W        W 8060   2.759   2.127   4.179 -0.0785  0.0312 -0.3093
 3861W        W 8061   4.983   9.927   3.549  0.2143  0.0195  0.1073
 3862W        W 8062   2.553   0.485  12.649  0.2317  0.5233  0.0937
 3863W        W 8063   4.718   7.998  11.685  0.2944 -0.1173 -0.2019
 3864W        W 8064   2.401   6.136  11.264  0.0377 -0.0631 -0.3883
 3865W        W 8065   4.926   7.896   9.391  0.0051  0.0648  0.0612
 3866W        W 8066   6.923   4.087   1.676 -0.2418 -0.0396  0.0875
 3867W        W 8067   8.086   5.768  10.339  0.2766 -0.0156 -0.0155
 3868W        W 8068   7.298   8.595   2.286  0.1237  0.1173  0.0412
 3869W        W 8069   5.660   2.179   3.009  0.0552  0.1372 -0.2563
 3870W        W 8070   2.006   4.373   3.387  0.1150  0.3517 -0.1750
 3871W        W 8071   5.298   6.796  10.497 -0.5178  0.0433 -0.3200
 3872W        W 8072   7.860   8.239   3.591  0.0726  0.0391  0.3594
 3873W        W 8073   5.623   4.347   8.711  0.0286 -0.3310 -0.3418
 3874W        W 8074   9.362   6.924  13.192 -0.1227  0.0442  0.1420
 3875W        W 8075   3.885   6.777  11.473  0.2298 -0.1071 -0.2816
 3876W        W 8076   9.684   4.403   4.400  0.1584 -0.0114  0.2382
 3877W        W 8077   1.055   7.243  10.857  0.0735 -0.1712 -0.1680
 3878W        W 8078   6.569   5.936  12.872 -0.0010  0.0818  0.0219
 3879W        W 8079   8.637   0.921   3.794 -0.2305 -0.0849  0.3238
 3880W        W 8080   9.752   1.988   2.400  0.0267  0.2579  0.0565
 3881W        W 8081   7.195   9.923   4.050  0.1335  0.2886  0.0316
 3882W        W 8082   0.193   8.265   4.274 -0.2235 -0.0413  0.0418
 3883W        W 8083   0.882   9.401   2.678 -0.0347 -0.1024 -0.1213
 3884W        W 8084   5.865   7.040  10.031 -0.2457 -0.1417  0.3561
 3885W        W 8085   8.764   2.809   4.925 -0.0121  0.1705  0.3300
 3886W        W 8086   4.823   5.786   3.722  0.0747 -0.0383  0.0669
 3887W        W 8087  10.339   1.666  11.872  0.1982  0.1885 -0.1159
 3888W        W 8088   1.729   9.074  13.424  0.0842 -0.1904  0.4383
 3889W        W 8089   7.821  10.434   1.330  0.2537 -0.1012 -0.0717
 3890W        W 8090   3.869   2.551   0.318 -0.1111  0.0627  0.0748
 3891W        W 8091   3.522   0.117  10.544  0.1824 -0.1467 -0.1933
 3892W        W 8092   0.101   4.820   4.333 -0.1554 -0.3450  0.1968
 3893W        W 8093   1.485   5.224   3.816 -0.0989 -0.1473 -0.0568
 3894W        W 8094   8.758   4.883  12.293  0.0597  0.0856 -0.1619
 3895W        W 8095   3.455   8.596  11.959 -0.1689 -0.1718  0.1475
 3896W        W 8096   1.393   2.538   1.179  0.4669  0.1251  0.0646
 3897W        W 8097   3.306   3.807   0.766 -0.3750  0.1051 -0.1924
 3898W        W 8098   3.026   6.510   4.438 -0.1084 -0.3124  0.0066
 3899W        W 8099   5.595   9.489  13.411  0.0101 -0.0448 -0.2897
 3900W        W 8100   7.165   0.489  12.690 -0.1619 -0.1485  0.0045
 3901W        W 8101   5.206   8.598   4.554  0.2838  0.1852  0.3113
 3902W        W 8102   4.755   0.383   0.916  0.1128  0.2078  0.1648
 3903W        W 8103   1.986   2.950  10.840  0.1254 -0.0121 -0.0073
 3904W        W 8104   5.339   8.714  11.212  0.1209 -0.1618  0.0639
 3905W        W 8105   1.689   6.713   9.374 -0.0610 -0.0238 -0.0372
 3906W        W 8106   7.212   4.292   2.434  0.0191  0.2556 -0.1815
 3907W        W 8107   2.450   4.881   9.444 -0.1702  0.0664 -0.0945
 3908W        W 8108   7.204   8.048   2.748 -0.0709  0.0602 -0.1197
 3909W        W 8109   4.274   7.975   4.176 -0.3001  0.3281  0.2075
 3910W        W 8110   8.929   8.513   2.100 -0.1080  0.2458 -0.3411
 3911W        W 8111   9.923   2.215  10.868  0.0446  0.1113  0.0326
 3912W        W 8112   2.665   7.309   2.214 -0.1704  0.0412 -0.3962
 3913W        W 8113   4.637   0.439   9.373  0.1365  0.0107 -0.3752
 3914W        W 8114   6.146   2.267   3.192  0.2663 -0.1735  0.0886
 3915W        W 8115   1.180   5.980   9.110  0.2233 -0.6984  0.2297
 3916W        W 8116   0.757   7.637  12.686  0.2691  0.0599 -0.1398
 3917W        W 8117   3.039   1.182   0.127  0.2168  0.0709  0.0355
 3918W        W 8118   3.912   7.398   3.298 -0.3088 -0.3322 -0.0554
 3919W        W 8119   2.601   1.036  12.575 -0.1300 -0.0799  0.1807
 3920W        W 8120   3.279  10.426  10.017  0.0771  0.0399 -0.2880
 3921W        W 8121   8.934   5.117   9.506 -0.3170 -0.2868 -0.1195
 3922W        W 8122   1.630   1.545  12.300 -0.0949 -0.0964 -0.3986
 3923W        W 8123   4.800   5.261   3.575  0.2664 -0.4717 -0.0469
 3924W        W 8124   8.304   1.314  12.997 -0.2932  0.0880 -0.1560
 3925W        W 8125   7.640   7.713  10.177 -0.0219 -0.0503 -0.0633
 3926W        W 8126   4.873   9.692  10.795 -0.0440 -0.0189 -0.2415
 3927W        W 8127  10.372   9.049   4.256 -0.2415  0.4388  0.0970
 3928W        W 8128   2.389   8.584   1.017 -0.0283 -0.1505  0.1061
 3929W        W 8129   4.182   6.191  12.612  0.2276  0.1652  0.2318
 3930W        W 8130   9.853   7.751   9.928  0.0446 -0.1846 -0.2207
 3931W        W 8131   1.637  10.279   3.286  0.0142 -0.1302 -0.1133
 3932W        W 8132   9.988   5.013   9.014  0.2391  0.1617 -0.2995
 3933W        W 8133   9.955   0.607   1.950  0.0245  0.1227 -0.0891
 3934W        W 8134   9.081   1.994   2.292 -0.1236 -0.3821  0.1542
 3935W        W 8135   0.601   9.223   3.081  0.1839  0.0622 -0.0183
 3936W        W 8136   0.278   0.669  11.046 -0.0476 -0.0438 -0.0834
 3937W        W 8137   8.238   3.074   1.180 -0.1974  0.2066 -0.0445
 3938W        W 8138   0.604   0.164  12.739 -0.2780 -0.1209  0.0825
 3939W        W 8139   5.716   0.538  12.996  0.1808 -0.0281 -0.3528
 3940W        W 8140   1.393   5.356   0.588 -0.0373 -0.0352  0.0486
 3941W        W 8141   7.060   7.573   3.764 -0.0071  0.1505 -0.1552
 3942W        W 8142   7.716   5.014   2.364  0.1644 -0.0514 -0.0493
 3943W        W 8143   5.002  10.343  10.845 -0.1298  0.0794  0.0981
 3944W        W 8144  10.157   4.607   5.759  0.0720  0.2041 -0.2334
 3945W        W 8145   0.496   3.053  13.145  0.2589  0.0164 -0.3835
 3946W        W 8146   6.433   9.516  12.137 -0.1549 -0.0863  0.1734
 3947W        W 8147   6.913   1.459   3.103  0.0741 -0.0872 -0.1532
 3948W        W 8148   3.008   5.318   2.460 -0.0137 -0.2651  0.0083
 3949W        W 8149   6.099   0.246  11.303  0.2726  0.0714  0.0075
 3950W        W 8150   5.878   8.923   5.193  0.0508  0.1451  0.0753
 3951W        W 8151   7.585   1.634   8.933 -0.0086  0.2111 -0.0115
 3952W        W 8152   9.066   3.201   4.681 -0.2504  0.3365  0.1053
 3953W        W 8153   8.258   2.460  11.097 -0.0329 -0.2650 -0.0247
 3954W        W 8154   7.708   6.369   2.038 -0.0341 -0.1032  0.0175
 3955W        W 8155   7.103   3.536  10.760 -0.2198  0.0578 -0.0725
 3956W        W 8156   4.591   2.652  11.843  0.0069  0.2125 -0.0633
 3957W        W 8157   2.785   9.239   2.904 -0.1470 -0.0823  0.0012
 3958W        W 8158   4.439   0.338   2.154 -0.0103  0.0984  0.1856
 3959W        W 8159   4.022   6.903   4.259  0.1633  0.1368  0.1566
 3960W        W 8160   5.255   0.003  10.453 -0.1605  0.1268  0.1214
 3961W        W 8161   7.833   2.654   9.588 -0.0630  0.0818  0.2121
 3962W        W 8162   2.028   5.298  11.176  0.3219 -0.2755 -0.0305
 3963W        W 8163   3.178   1.268   3.594  0.1409 -0.0589  0.0753
 3964W        W 8164   1.254   5.475   9.510 -0.1234  0.1095  0.6312
 3965W        W 8165   0.277   3.911   4.352 -0.0056  0.0192  0.2725
 3966W        W 8166   1.588   0.819   1.707  0.2313  0.3160  0.0394
 3967W        W 8167   7.090   3.098   1.684 -0.0148 -0.1473  0.2304
 3968W        W 8168   9.455   8.534   8.850 -0.0647  0.0568  0.1584
 3969W        W 8169   1.617   0.793  13.193  0.0366 -0.1775 -0.0152
 3970W        W 8170   1.051   3.020  13.288  0.2387  0.1212 -0.1417
 3971W        W 8171   6.657   0.490   4.953  0.3393  0.2989 -0.0611
 3972W        W 8172   9.543   6.922   3.425  0.0607  0.1962 -0.0892
 3973W        W 8173   6.198   8.972   0.159  0.0959 -0.3680  0.2475
 3974W        W 8174   4.277   8.780  12.669 -0.2087  0.0352 -0.3026
 3975W        W 8175   7.711   9.862   1.975  0.0037  0.0628 -0.1613
 3976W        W 8176   2.488   7.547  12.449 -0.2619  0.0440  0.0097
 3977W        W 8177   2.666   0.639   2.296 -0.3417  0.2177 -0.1969
 3978W        W 8178   2.825   7.359   9.261 -0.1818 -0.0782  0.4162
 3979W        W 8179   3.066   2.756   9.341  0.1046  0.0410  0.0652
 3980W        W 8180   5.281   5.056   3.884  0.4289  0.0794 -0.0935
 3981W        W 8181   9.094   9.978   0.251 -0.0399 -0.0906 -0.1891
 3982W        W 8182   1.069   8.864   2.414  0.5234  0.0570 -0.1427
 3983W        W 8183   0.762   1.912   0.580  0.0160 -0.0366  0.0096
 3984W        W 8184   9.302   5.035   0.244  0.0982 -0.1824 -0.2167
 3985W        W 8185   5.415   4.349   2.037  0.2051  0.0786  0.3719
 3986W        W 8186   0.994   5.513  12.259  0.0697  0.1496  0.1129
 3987W        W 8187   1.063   8.750   4.377  0.1783  0.1032  0.0903
 3988W        W 8188   0.202   6.361   8.369  0.0307 -0.0733 -0.1994
 3989W        W 8189   6.669   4.169   4.084  0.2607  0.2323  0.0293
 3990W        W 8190   0.184   3.227   2.004 -0.0680  0.0591  0.0488
 3991W        W 8191   2.632  10.287   2.975 -0.0939  0.0291 -0.2467
 3992W        W 8192   5.816   9.608  12.949  0.0893 -0.1025 -0.0021
 3993W        W 8193   4.876   5.919  10.673 -0.1402  0.0589 -0.4255
 3994W        W 8194   0.587   8.967  12.297 -0.1290  0.1635 -0.1189
 3995W        W 8195   8.215   9.229  10.978  0.0344  0.0562  0.0623
 3996W        W 8196   8.002   5.235   0.133 -0.1346 -0.2338  0.0635
 3997W        W 8197   6.532  10.004   4.929 -0.0737  0.0379  0.0310
 3998W        W 8198   7.442   1.583  11.004  0.0475  0.0838 -0.0574
 3999W        W 8199   1.203  10.245   2.748 -0.0361 -0.0828  0.0423
 4000W        W 8200   5.111   3.899  12.059  0.0593 -0.0041 -0.2125
 4001W        W 8201   4.143   3.677   2.205  0.2570  0.0796 -0.1822
 4002W        W 8202   8.363  10.268  11.349  0.1350  0.0152 -0.1813
 4003W        W 8203   1.493   3.459  13.052 -0.1776 -0.0627  0.2925
 4004W        W 8204   4.430   3.739   5.004  0.0187 -0.1494  0.0416
 4005W        W 8205   6.322   0.576   9.238 -0.1467 -0.1658 -0.1367
 4006W        W 8206   2.960   1.128   0.695 -0.0563 -0.0946 -0.0240
 4007W        W 8207   4.764   3.227  11.822  0.0963  0.5022  0.0531
 4008W        W 8208   6.112   7.711   1.033  0.0100  0.0932  0.2357
 4009W        W 8209   3.291   8.087  10.788  0.0141  0.0778 -0.1427
 4010W        W 8210   8.034   9.094   1.196 -0.2117 -0.1660 -0.2313
 4011W        W 8211   4.593   1.392   9.639 -0.1070  0.0862  0.1822
 4012W        W 8212   4.404   4.817   3.842 -0.1706 -0.2955 -0.2966
 4013W        W 8213   1.502   0.754   3.363  0.1943  0.0295  0.0582
 4014W        W 8214   3.373   3.167  10.266 -0.1049  0.0120  0.0326
 4015W        W 8215  10.248   5.380   4.545 -0.2075 -0.1408 -0.2143
 4016W        W 8216   8.444   1.636   3.415 -0.0722  0.2278 -0.0580
 4017W        W 8217   0.665   7.217   4.326  0.0255 -0.1646 -0.1772
 4018W        W 8218   4.979   2.670  10.481 -0.2513 -0.0920 -0.0889
 4019W        W 8219   9.619   7.594   8.982  0.0440  0.0271  0.3158
 4020W        W 8220   8.100   6.690   3.719 -0.2470 -0.1050  0.1957
 4021W        W 8221   5.922   8.872  11.982  0.1439  0.0039  0.2164
 4022W        W 8222   1.981   7.994   4.372  0.0451 -0.0154  0.2682
 4023W        W 8223   6.123   5.189   9.884 -0.1555  0.0375  0.1239
 4024W        W 8224   2.811   1.149   2.041 -0.2067 -0.0056 -0.3868
 4025W        W 8225   4.146  10.174   4.677 -0.3947 -0.0702 -0.0586
 4026W        W 8226   5.764   4.793   9.873 -0.1655  0.4449  0.2597
 4027W        W 8227   3.872   7.918  11.172  0.0866 -0.4061 -0.0285
 4028W        W 8228   2.610   2.240  10.577  0.3957  0.5610  0.2288
 4029W        W 8229   5.228   9.236   1.033  0.0058  0.1368 -0.1201
 4030W        W 8230   9.686   3.136  12.334 -0.1085 -0.1025 -0.0781
 4031W        W 8231   8.128   9.015  13.237  0.0714 -0.1568  0.2828
 4032W        W 8232   6.949   8.861  12.827  0.1653  0.0539  0.1552
 4033W        W 8233   2.705   1.731  10.872  0.2850  0.0749  0.2387
 4034W        W 8234   5.719   5.391  12.826 -0.2645 -0.3758  0.0865
 4035W        W 8235   6.647   5.519   3.093  0.1154 -0.0887 -0.1770
 4036W        W 8236   4.609   2.083   1.569  0.0643  0.2016  0.0828
 4037W        W 8237   7.619   0.689   2.651  0.1335  0.0819 -0.1463
 4038W        W 8238   7.503   1.987  13.252 -0.0174 -0.1056  0.0247
 4039W        W 8239   6.351   6.445  13.392  0.1529 -0.1386  0.0589
 4040W        W 8240   2.708   0.132   2.412  0.1292 -0.0039 -0.0934
 4041W        W 8241   3.829   4.573   0.662  0.1287 -0.2562 -0.0560
 4042W        W 8242   0.132   6.541   3.868 -0.1092 -0.1324 -0.1773
 4043W        W 8243   3.735   0.912  11.821 -0.0229 -0.2306  0.2759
 4044W        W 8244   0.835   8.878   9.803  0.0324  0.0878  0.2863
 4045W        W 8245   3.010   3.081  13.367  0.1122  0.1149  0.1801
 4046W        W 8246   2.537   0.745   1.828  0.2788  0.0497 -0.4242
 4047W        W 8247   2.589   5.611   4.369  0.2703  0.2720  0.2947
 4048W        W 8248   3.441   9.073   4.970 -0.5438 -0.0481 -0.3227
 4049W        W 8249   0.111   7.199   1.789  0.0045  0.1491  0.1008
 4050W        W 8250   0.147   2.541   1.611 -0.0931  0.1848 -0.1788
 4051W        W 8251   2.498   6.760   0.742 -0.4148  0.1174 -0.2446
 4052W        W 8252   8.262   5.775  10.883 -0.1684  0.1488 -0.0072
 4053W        W 8253   8.521   4.709   1.726  0.0997 -0.0409 -0.1250
 4054W        W 8254   3.000   6.267   4.906  0.1449  0.0245 -0.1338
 4055W        W 8255   0.908   9.461  10.513 -0.4201  0.2213  0.2441
 4056W        W 8256   7.212   2.653   0.319 -0.1274 -0.1443  0.0485
 4057W        W 8257   4.729   7.557   1.264  0.4022 -0.0536  0.2887
 4058W        W 8258   0.725   3.662   2.005 -0.0559 -0.1688  0.1977
 4059W        W 8259   4.029   5.976   1.000 -0.1005 -0.0076 -0.0211
 4060W        W 8260   4.054   4.501   1.525  0.3034 -0.3611 -0.3700
 4061W        W 8261   9.321   6.431   4.101 -0.2218  0.5424  0.1486
 4062W        W 8262   2.873   5.227   0.718 -0.0754  0.0810 -0.3084
 4063W        W 8263  10.067   2.259   3.678  0.0713  0.1985  0.0072
 4064W        W 8264   5.626   9.886   0.329  0.2515  0.1306  0.0560
 4065W        W 8265   0.740   4.745   2.925  0.2553  0.0325 -0.1060
 4066W        W 8266   0.434   5.149   3.211 -0.1066 -0.0615  0.3926
 4067W        W 8267   6.687   1.919   3.654  0.1225  0.3363 -0.1785
 4068W        W 8268   4.471   2.145   8.794  0.0649  0.3289  0.2525
 4069W        W 8269   4.247   3.571   9.575 -0.0707  0.0392 -0.3368
 4070W        W 8270   7.811   3.851  13.075 -0.2089  0.1796 -0.0836
 4071W        W 8271   5.468   5.720  13.401  0.1275  0.1088  0.4267
 4072W        W 8272   4.745   8.547   4.679 -0.3321  0.1300 -0.0033
 4073W        W 8273   0.045   4.484   0.803  0.0738  0.0417  0.1679
 4074W        W 8274   5.367   0.371   2.500 -0.0434 -0.0796 -0.1715
 4075W        W 8275   7.141   5.977   0.649  0.1521 -0.2060 -0.1134
 4076W        W 8276   5.955   9.983  12.211  0.0343 -0.1048  0.3236
 4077W        W 8277   2.513   4.412  11.443  0.2396 -0.1269  0.1029
 4078W        W 8278   2.763   3.424   0.078 -0.1632  0.0641 -0.0674
 4079W        W 8279   8.092   5.448   2.095 -0.0217 -0.2228 -0.1925
 4080W        W 8280   7.347   0.383  10.193  0.3263 -0.0390 -0.1295
 4081W        W 8281   4.375   6.649  13.088  0.1666  0.2718 -0.1525
 4082W        W 8282   6.542   6.541  10.592  0.0016 -0.3087 -0.3075
 4083W        W 8283   4.167   6.544  10.610 -0.3748  0.0415 -0.1377
 4084W        W 8284   5.551   1.941  10.918  0.1347  0.3735  0.0579
 4085W        W 8285   3.837   5.192  10.942 -0.1145  0.0557 -0.3747
 4086W        W 8286   3.441   3.608  12.157 -0.1574  0.1801  0.4378
 4087W        W 8287   7.834   7.792   0.455 -0.2138  0.2632  0.0755
 4088W        W 8288   7.589   3.409  10.482 -0.1620 -0.1516 -0.0033
 4089W        W 8289   1.276   3.794   5.608  0.0646  0.0053 -0.2126
 4090W        W 8290   9.544   1.119   2.886  0.0657  0.0959  0.0210
 4091W        W 8291   3.196   5.807   5.011 -0.1687  0.0546 -0.1136
 4092W        W 8292   9.408   6.388   2.450  0.1560 -0.0351 -0.2072
 4093W        W 8293   9.702   0.787  12.495 -0.0362 -0.3487  0.2782
 4094W        W 8294   4.203   7.594   9.662  0.0986 -0.1567 -0.4319
 4095W        W 8295   1.441   6.848   1.603  0.0058 -0.0022 -0.2055
 4096W        W 8296   5.059   8.878   3.616  0.0760  0.3117 -0.1698
 4097W        W 8297   8.240   0.108   2.258 -0.2238 -0.1182 -0.0743
 4098W        W 8298   8.291   2.909   2.677  0.1299  0.1768  0.1044
 4099W        W 8299   7.356  10.369  13.217  0.2245  0.0664  0.1159
 4100W        W 8300   3.751   5.298  12.599  0.2039  0.0366  0.0273
 4101W        W 8301   2.925   2.627   1.158 -0.0859  0.0246 -0.1979
 4102W        W 8302  10.172   6.564   0.172  0.0228  0.1158  0.0420
 4103W        W 8303   7.190   8.903   1.153  0.0160  0.0442 -0.2660
 4104W        W 8304   0.327   5.532  12.990 -0.2491  0.1329  0.2192
 4105W        W 8305   7.557   9.982  10.184 -0.2184  0.2266  0.0884
 4106W        W 8306   4.718   0.542   4.225  0.1912  0.0914  0.0076
 4107W        W 8307   5.018   2.501  11.656  0.2303 -0.0005 -0.0124
 4108W        W 8308   2.704   5.678  10.481 -0.0252  0.1966  0.1176
 4109W        W 8309   1.296   4.048  10.325  0.1231  0.0288  0.0090
 4110W        W 8310   3.093  10.292  12.309 -0.0340 -0.2752 -0.1675
 4111W        W 8311   2.721   9.622   9.185  0.2567 -0.0206  0.1906
 4112W        W 8312   9.605   6.745   2.221 -0.1698  0.1678 -0.1733
 4113W        W 8313  10.193   6.340   2.314  0.2079  0.3445  0.1852
 4114W        W 8314   1.349   4.393   0.575  0.0802  0.0654 -0.0546
 4115W        W 8315   2.751   7.072   3.824  0.0045  0.0867 -0.0520
 4116W        W 8316   9.671   7.631   1.674  0.1990  0.0483  0.2361
 4117W        W 8317   5.303   0.879  12.603 -0.0019  0.0762 -0.0730
 4118W        W 8318  10.136   6.091  13.411 -0.3322  0.0838  0.3942
 4119W        W 8319   1.768   7.397   2.081  0.1532 -0.3319  0.0973
 4120W        W 8320   8.313   6.477   4.089  0.0366 -0.0625  0.1694
 4121W        W 8321   8.331   8.230   1.309  0.1060  0.0518 -0.1431
 4122W        W 8322   5.218   4.921  10.016 -0.0528 -0.0978 -0.0780
 4123W        W 8323   6.772   2.153   2.582  0.0234 -0.0364  0.1749
 4124W        W 8324   9.658   3.387   0.749 -0.2460  0.0417  0.1742
 4125W        W 8325   6.433   2.468  13.469  0.0039 -0.1881 -0.2167
 4126W        W 8326   3.718   2.329  10.036 -0.1861 -0.0127  0.0648
 4127W        W 8327   2.760   3.520   3.608 -0.1480  0.1739 -0.3265
 4128W        W 8328   8.336   1.024   4.355  0.0328 -0.1950  0.0364
 4129W        W 8329   8.949  10.401   1.468 -0.0649 -0.0594  0.0241
 4130W        W 8330   0.095   1.637   0.403 -0.0663  0.2934  0.1789
 4131W        W 8331   7.636   8.764  11.150  0.0516  0.0898 -0.0302
 4132W        W 8332   6.625   7.659   0.743  0.0373  0.2399  0.0260
 4133W        W 8333  10.378   7.841   9.936 -0.0711 -0.3316  0.1633
 4134W        W 8334   4.947   2.075   0.847 -0.2929 -0.1537 -0.2573
 4135W        W 8335   4.274   0.797  12.703  0.1861 -0.2065  0.1461
 4136W        W 8336   7.635   8.860   2.565  0.1676 -0.2343  0.2213
 4137W        W 8337   6.094   2.135  12.272 -0.1352  0.0188  0.1208
 4138W        W 8338   2.361   3.519   1.946  0.0775  0.0530  0.0312
 4139W        W 8339   6.587   7.478   9.530 -0.1891 -0.2212 -0.1850
 4140W        W 8340   4.874   7.591   7.978 -0.0819  0.1048 -0.0284
 4141W        W 8341   2.622   9.508   4.731  0.2488  0.1173 -0.1665
 4142W        W 8342   6.602  10.428   2.145 -0.0507  0.1670 -0.2847
 4143W        W 8343   4.775   9.286   2.411  0.1147 -0.2124  0.1898
 4144W        W 8344   5.849   4.873   2.099  0.0586 -0.1069 -0.3829
 4145W        W 8345   9.744   6.010   2.362  0.1521 -0.1034 -0.2416
 4146W        W 8346   5.714   3.981   3.883  0.1744 -0.1523 -0.0750
 4147W        W 8347   7.060   9.799   4.603 -0.2239 -0.0895 -0.2010
 4148W        W 8348   9.379   9.939   2.305  0.0510  0.0040  0.3018
 4149W        W 8349   2.383   8.374   9.379 -0.0294  0.1320 -0.0263
 4150W        W 8350   8.758   6.307   1.154 -0.0852  0.1572  0.2437
 4151W        W 8351   2.456   8.647  12.722 -0.2701 -0.1358 -0.1364
 4152W        W 8352   8.094   3.653  10.699  0.0408 -0.2021  0.1328
 4153W        W 8353   6.038   3.965   1.805 -0.1359 -0.1729 -0.2344
 4154W        W 8354   8.711   1.758   2.551  0.0713  0.1480 -0.1804
 4155W        W 8355   3.925   3.103   9.685  0.1177  0.1381 -0.0703
 4156W        W 8356   1.158   0.847   4.297 -0.0113  0.0505 -0.1079
 4157W        W 8357   5.150   4.743   0.808 -0.4521  0.0409 -0.3110
 4158W        W 8358   1.312   2.416  11.763 -0.2409 -0.2150 -0.0723
 4159W        W 8359   0.852   9.450   3.429  0.1233  0.1867  0.1604
 4160W        W 8360   5.537   7.285   0.203  0.0775 -0.2080 -0.1761
 4161W        W 8361   9.828   7.782   3.055  0.1861 -0.2782  0.2207
 4162W        W 8362   1.901   0.538   1.135  0.3511  0.0516 -0.2193
 4163W        W 8363   5.105   8.599  10.037  0.0455  0.0282  0.0281
 4164W        W 8364   2.840   9.029  12.951  0.2453 -0.0732 -0.0454
 4165W        W 8365   5.856   1.339  10.387  0.0014  0.1998 -0.1032
 4166W        W 8366   0.217   1.283   1.111 -0.0449  0.2665 -0.1427
 4167W        W 8367   2.196   0.575   3.274 -0.2693  0.1088 -0.0967
 4168W        W 8368   9.208   0.957  10.759 -0.0207  0.1451 -0.0027
 4169W        W 8369   5.031   8.285   4.159 -0.1480  0.0414  0.4428
 4170W        W 8370   7.512   4.014   3.413  0.0462  0.0626  0.0640
 4171W        W 8371   9.190   7.873   9.201 -0.1458  0.1236  0.2109
 4172W        W 8372   2.727   6.326  10.272 -0.0373  0.2059 -0.2230
 4173W        W 8373   1.346   6.753   3.965 -0.5839  0.2149  0.1759
 4174W        W 8374   7.035   8.293   0.272  0.1387 -0.1607 -0.2181
 4175W        W 8375   5.580   5.310   9.893 -0.0273  0.1427 -0.0711
 4176W        W 8376   0.870   0.167  10.970  0.3111  0.2178 -0.0791
 4177W        W 8377   9.141   9.969  11.504  0.0461 -0.1828  0.0594
 4178W        W 8378   9.011  10.269   3.877  0.2982 -0.0064  0.5043
 4179W        W 8379   1.016   4.299   4.195  0.0013 -0.2008 -0.2514
 4180W        W 8380   4.259   4.818  13.210 -0.1233  0.1004  0.2740
 4181W        W 8381   1.674   7.118  11.532 -0.2910 -0.2136 -0.1076
 4182W        W 8382   0.235   0.124   1.874  0.0967 -0.1853  0.0025
 4183W        W 8383   5.993   7.070   3.124 -0.0375 -0.3217  0.0506
 4184W        W 8384   5.881   1.814   1.164  0.1247  0.1488 -0.1336
 4185W        W 8385   0.147   5.947  10.517 -0.2395 -0.2355  0.1034
 4186W        W 8386   0.520   4.234  10.688 -0.2454  0.3738  0.4752
 4187W        W 8387   2.144   1.473  12.376  0.0824  0.2066  0.0664
 4188W        W 8388   8.619   0.196  10.892  0.0652 -0.2036  0.0290
 4189W        W 8389   8.493   3.925  10.789 -0.0757 -0.1200 -0.1462
 4190W        W 8390   7.868   1.482   0.166 -0.1652  0.0085 -0.0408
 4191W        W 8391   5.830   3.558   2.165 -0.0577  0.1084  0.0245
 4192W        W 8392   1.714   6.345   3.981 -0.2353  0.0412  0.1170
 4193W        W 8393   7.488   5.712   9.483 -0.1715  0.0182  0.1365
 4194W        W 8394   0.995   2.057   0.035 -0.0292 -0.0575  0.0160
 4195W        W 8395   4.952   8.062  10.180  0.0720  0.1273 -0.1190
 4196W        W 8396   8.159   7.821   4.266 -0.0715  0.0797  0.2065
 4197W        W 8397   4.088   9.646   3.742  0.2401 -0.1536  0.0426
 4198W        W 8398   5.878   3.658  13.452  0.1791  0.2304  0.0265
 4199W        W 8399   9.615   6.460   3.656 -0.0679  0.1747 -0.0149
 4200W        W 8400   2.046   5.166  11.749  0.1454  0.2406  0.1312
 4201W        W 8401   4.966   1.595   0.286  0.1640  0.0769  0.2869
 4202W        W 8402   9.594   8.374   4.588 -0.0468  0.1227 -0.1265
 4203W        W 8403   9.724   6.039  11.087 -0.0084 -0.3095  0.0629
 4204W        W 8404   0.655   0.227   2.214 -0.6636  0.0221  0.1111
 4205W        W 8405   5.365   7.240   0.794 -0.1324  0.0875 -0.0141
 4206W        W 8406   0.698   5.407   9.419 -0.4437  0.2210 -0.0780
 4207W        W 8407   3.046   7.020   4.307 -0.0592  0.2230  0.2788
 4208W        W 8408  10.213   3.671   9.916  0.1811 -0.2755 -0.1430
 4209W        W 8409   0.255   4.644   5.516  0.2048 -0.1266  0.1966
 4210W        W 8410  10.329   4.763   2.260 -0.2309 -0.1543  0.2431
 4211W        W 8411   0.971   0.726   3.291  0.0543 -0.1116 -0.3102
 4212W        W 8412   2.446   7.735  10.645  0.1180  0.0724  0.1396
 4213W        W 8413   7.971   2.094   0.641 -0.1767  0.0916 -0.1357
 4214W        W 8414   5.840   4.545   1.308  0.0610  0.0140 -0.2654
 4215W        W 8415   7.640   1.545   3.726 -0.0663 -0.0365 -0.3002
 4216W        W 8416   1.413   9.489   1.847  0.0091  0.1199  0.1858
 4217W        W 8417   1.348   7.317   3.098  0.1080  0.3328 -0.1000
 4218W        W 8418   0.363   7.186   0.402 -0.0002 -0.0636 -0.1526
 4219W        W 8419   7.482   5.044  12.154 -0.2118 -0.3301  0.0409
 4220W        W 8420   3.229   1.002  13.122 -0.1691  0.0014  0.0017
 4221W        W 8421   4.544   8.190  12.829 -0.1995  0.0722 -0.2797
 4222W        W 8422   9.421   9.337   0.829 -0.0417 -0.1020  0.0598
 4223W        W 8423   8.929   8.288  11.751  0.2716  0.3091 -0.1383
 4224W        W 8424   7.531   9.039   0.839  0.0980 -0.1736  0.0821
 4225W        W 8425   2.839   8.551  13.126 -0.0482 -0.2249 -0.0741
 4226W        W 8426  10.200   9.001   3.402  0.1991 -0.0378 -0.1708
 4227W        W 8427   4.244   2.954  12.646  0.2645 -0.0516  0.0895
 4228W        W 8428   3.600   8.309   1.978 -0.1400  0.3574  0.3306
 4229W        W 8429   7.484   2.487  10.401  0.1717 -0.1202  0.2586
 4230W        W 8430   8.892   1.965  10.633  0.0521 -0.1898 -0.2532
 4231W        W 8431   9.392  10.147  11.012  0.0597  0.0896 -0.2988
 4232W        W 8432   6.206   8.673   3.040  0.0926 -0.0845  0.0430
 4233W        W 8433   3.465  10.206   0.844 -0.1739  0.1036 -0.2353
 4234W        W 8434   6.448   3.793   1.223 -0.0790 -0.1409 -0.1046
 4235W        W 8435   8.947   5.041   1.989  0.0073  0.2419  0.5489
 4236W        W 8436   9.208   3.744   2.368 -0.1106 -0.2500  0.2427
 4237W        W 8437   0.803   8.520  10.712 -0.1330  0.0043 -0.0954
 4238W        W 8438   8.444   5.156  10.803 -0.4065 -0.3186  0.1784
 4239W        W 8439   0.802   3.263   9.496 -0.2863  0.0636  0.0948
 4240W        W 8440   2.637   3.691  10.133 -0.4182  0.0582  0.0185
 4241W        W 8441   4.587   1.586   4.812 -0.4466  0.2486  0.0321
 4242W        W 8442   0.961   7.297  12.382  0.3405  0.3195 -0.0761
 4243W        W 8443   1.885   4.781   0.835  0.1653 -0.0218  0.1025
 4244W        W 8444   8.315   2.906  12.909  0.0790 -0.0858  0.1827
 4245W        W 8445   2.345   7.677   4.448  0.1104 -0.0620 -0.0596
 4246W        W 8446   5.317   8.163   2.403  0.1572 -0.0303  0.3439
 4247W        W 8447   2.983   3.107   0.537 -0.3964 -0.0887 -0.0382
 4248W        W 8448   6.603   8.835   1.110  0.0552  0.2940  0.2078
 4249W        W 8449   6.957   1.700   1.887 -0.1816 -0.0128 -0.0549
 4250W        W 8450   2.828   3.066   4.562  0.3355 -0.1440  0.2001
 4251W        W 8451   0.995   4.441  10.588  0.1230  0.0363 -0.0664
 4252W        W 8452   2.762   0.694  12.062 -0.0951  0.1863  0.0882
 4253W        W 8453   9.439   9.261  13.463  0.1593  0.2888  0.0484
 4254W        W 8454  10.125   4.143   4.383  0.0110  0.3674 -0.2956
 4255W        W 8455   5.938  10.157   1.962 -0.0264 -0.0334  0.0988
 4256W        W 8456   0.508   9.251   0.790  0.2274 -0.0765 -0.1309
 4257W        W 8457   5.883   5.453   1.256 -0.5117  0.0473 -0.0583
 4258W        W 8458   5.671   2.140   4.371 -0.0609  0.3044 -0.0275
 4259W        W 8459  10.440   3.985   3.869 -0.2990 -0.0749 -0.1304
 4260W        W 8460   9.044   0.840   2.037 -0.0903  0.1373  0.1282
 4261W        W 8461   1.903   4.255   0.576 -0.2612 -0.0494 -0.3372
 4262W        W 8462   2.214   6.693   2.354  0.0616  0.2179 -0.0033
 4263W        W 8463   3.866   5.541   8.790 -0.0702 -0.2173  0.0916
 4264W        W 8464   2.701   8.094  13.204  0.2859 -0.1398 -0.4649
 4265W        W 8465   0.511   5.728  10.160  0.0991 -0.0502 -0.2933
 4266W        W 8466   1.128   4.394   9.709  0.2815  0.1902  0.2608
 4267W        W 8467   0.838   8.136  10.392 -0.0749  0.0810  0.1757
 4268W        W 8468  10.323   6.442  10.254 -0.1100 -0.3386  0.0052
 4269W        W 8469   2.585   4.950  12.502  0.0854 -0.1376 -0.5285
 4270W        W 8470   4.909   1.584   4.314  0.0012  0.4309  0.0141
 4271W        W 8471   3.056   6.832  11.078  0.0817 -0.3181  0.2952
 4272W        W 8472   8.288  10.018   0.021 -0.1890  0.0009 -0.1746
 4273W        W 8473   3.957   8.682  10.535 -0.2276 -0.0045 -0.0464
 4274W        W 8474   0.217   3.590  10.797  0.1387  0.1636  0.0710
 4275W        W 8475   3.187   1.993   8.450 -0.0381 -0.0736 -0.1184
 4276W        W 8476   0.495   8.885   9.423  0.3539  0.1591  0.2730
 4277W        W 8477   3.767   1.250   1.766  0.0811 -0.3841 -0.0247
 4278W        W 8478   3.361   4.230   9.830  0.2175  0.0524 -0.3221
 4279W        W 8479   3.263   9.837   9.939 -0.1169 -0.0408  0.0049
 4280W        W 8480   5.927   1.417  12.950 -0.3555 -0.4464  0.0568
 4281W        W 8481   5.263   5.162   3.331  0.0689 -0.0282  0.0851
 4282W        W 8482   3.023   7.949   8.397 -0.1532  0.3124  0.1802
 4283W        W 8483   9.963   8.732   4.621 -0.2054 -0.2286  0.0237
 4284W        W 8484   4.572   6.031   1.869 -0.1521  0.0032  0.0514
 4285W        W 8485   8.756   3.602  10.516  0.1692  0.1370  0.1491
 4286W        W 8486   4.598   6.511   3.221  0.0292  0.0284 -0.0501
 4287W        W 8487   3.545   7.163   4.687 -0.0917 -0.1014  0.3331
 4288W        W 8488   7.159   0.926   0.582  0.0021 -0.1819 -0.2249
 4289W        W 8489   5.558   0.879   2.463 -0.2156 -0.2010 -0.1641
 4290W        W 8490   8.583   3.318   9.465 -0.2426 -0.2169 -0.0984
 4291W        W 8491   4.789   8.886   0.803 -0.0547 -0.0924  0.0767
 4292W        W 8492   5.476   7.762  11.523 -0.2786 -0.1404 -0.2621
 4293W        W 8493  10.437   6.853   3.162 -0.0875 -0.0256  0.1123
 4294W        W 8494   8.182   1.982  11.303  0.0077  0.1620 -0.0862
 4295W        W 8495   9.455   5.579   3.137 -0.3021 -0.1245 -0.0438
 4296W        W 8496   6.885   8.839   0.661 -0.0894  0.1428 -0.1397
 4297W        W 8497   3.092   1.674  13.396  0.0799 -0.3591 -0.1851
 4298W        W 8498   5.407   5.607   1.098 -0.2307 -0.2395  0.1578
 4299W        W 8499   2.328   7.281   1.627 -0.0143  0.1228  0.0343
 4300W        W 8500   7.560   9.512   0.375  0.1111  0.2660 -0.0570
 4301W        W 8501   3.390   3.415  13.406 -0.2217 -0.3284 -0.3314
 4302W        W 8502   6.953   4.471   2.857  0.1841  0.0189 -0.2181
 4303W        W 8503   2.289   2.248   4.119 -0.0455 -0.0273 -0.0490
 4304W        W 8504   5.497  10.128  10.098 -0.1940 -0.1570 -0.0319
 4305W        W 8505   9.528   7.664  11.859  0.3374 -0.1829 -0.0170
 4306W        W 8506   6.538   2.617   1.646  0.0642 -0.2166 -0.0122
 4307W        W 8507   4.465   8.305   1.343 -0.2342 -0.3413 -0.4639
 4308W        W 8508   2.843   6.567   9.839 -0.0072  0.1542  0.2878
 4309W        W 8509   6.742  10.149  10.343 -0.1348  0.2703 -0.0892
 4310W        W 8510   0.110   5.782   4.678 -0.2404  0.2640 -0.0210
 4311W        W 8511   5.744   8.611   1.455 -0.0514 -0.2157  0.1660
 4312W        W 8512   6.145   7.279  10.991  0.2716 -0.1896 -0.1523
 4313W        W 8513   1.282   5.230   1.064 -0.0891 -0.0918  0.0614
 4314W        W 8514   6.516   7.051   4.626 -0.3141  0.2249 -0.1850
 4315W        W 8515   0.379   4.632   1.209 -0.1472 -0.1681  0.4166
 4316W        W 8516   5.606   1.481   3.182 -0.1766  0.2053 -0.1313
 4317W        W 8517   3.995   7.140   0.822 -0.0172 -0.3347 -0.1697
 4318W        W 8518   9.596   0.232   0.912  0.3015  0.0189 -0.2158
 4319W        W 8519   8.203   8.543  11.966 -0.1945 -0.1547 -0.1105
 4320W        W 8520  10.055   4.794  11.099 -0.0906  0.1964  0.0436
 4321W        W 8521   3.442  10.094   2.163 -0.0020  0.1925 -0.1258
 4322W        W 8522   7.319   3.882  11.345 -0.0632 -0.1936 -0.2549
 4323W        W 8523   6.394   3.664   0.625  0.0153  0.2224  0.2816
 4324W        W 8524   9.492   3.665  11.853  0.1752  0.0929  0.1049
 4325W        W 8525   6.198   3.034   1.620 -0.2391  0.0826  0.2194
 4326W        W 8526   0.962   0.188   1.143  0.1343  0.2995 -0.0140
 4327W        W 8527   8.270   3.831  13.110  0.0478 -0.3482 -0.0347
 4328W        W 8528   8.524   0.904   0.480  0.2524  0.1528 -0.4890
 4329W        W 8529   3.933   3.552   4.249  0.1783 -0.0011 -0.0253
 4330W        W 8530   8.958   1.338   1.204  0.1545  0.0174  0.1535
 4331W        W 8531   6.849   7.448  10.854  0.1937 -0.1863  0.3435
 4332W        W 8532   0.859   8.076  11.854 -0.0432  0.0795 -0.1531
 4333W        W 8533   0.214   0.079   0.306  0.0073  0.0429  0.0579
 4334W        W 8534   9.432   7.216   4.820 -0.5553 -0.0723 -0.0027
 4335W        W 8535   0.494   8.365  11.270 -0.1124 -0.0271  0.3151
 4336W        W 8536   6.870   0.725  12.261 -0.0335 -0.0904 -0.0946
 4337W        W 8537   6.985   9.521   0.288 -0.0368 -0.1481 -0.0717
 4338W        W 8538   8.731   8.227   1.679 -0.0734 -0.0094 -0.0559
 4339W        W 8539   4.755  10.288   9.720 -0.0075  0.1144  0.0552
 4340W        W 8540   2.076   1.925   2.695 -0.0282  0.1188  0.1556
 4341W        W 8541   8.498   8.582  10.682 -0.0448  0.4646  0.0402
 4342W        W 8542   2.363   5.083  10.821 -0.1296 -0.0578 -0.2681
 4343W        W 8543   6.125   1.177  12.374  0.1713 -0.0782 -0.0945
 4344W        W 8544   1.685   3.360  11.573  0.2295  0.2267  0.1115
 4345W        W 8545   2.561   5.892   2.907 -0.0209  0.0040 -0.0323
 4346W        W 8546   3.888  10.299   1.261 -0.0321  0.0511  0.5107
 4347W        W 8547   0.873   6.265   9.343 -0.2138 -0.2198  0.0109
 4348W        W 8548   4.776   8.020   4.476  0.0700 -0.1005 -0.3548
 4349W        W 8549   2.707   8.941  10.949 -0.0300  0.0286 -0.3498
 4350W        W 8550   6.124   3.381  10.464 -0.1167  0.3217 -0.2364
 4351W        W 8551   7.893   6.908  10.060 -0.2821  0.0465  0.0493
 4352W        W 8552   5.788   4.038   2.237  0.1702  0.2558 -0.1391
 4353W        W 8553   1.425   4.785   9.640  0.0908  0.6092 -0.1528
 4354W        W 8554   1.935   1.127  12.701 -0.4630 -0.0160  0.1016
 4355W        W 8555   6.879   9.600   1.562 -0.1032  0.0929 -0.2007
 4356W        W 8556   4.541   3.113   3.100  0.0654 -0.2024  0.3096
 4357W        W 8557   8.899   7.235  12.429  0.0145 -0.1262  0.0003
 4358W        W 8558   8.468   6.722   5.065 -0.0776 -0.3481  0.2748
 4359W        W 8559   3.516   6.561   9.856 -0.1064 -0.0407 -0.0303
 4360W        W 8560   0.440   6.174  12.009  0.0282 -0.3638 -0.2850
 4361W        W 8561  10.229  10.298  11.979  0.3277 -0.2553 -0.0808
 4362W        W 8562   8.767   1.267   0.249  0.0360 -0.2274  0.3450
 4363W        W 8563   7.541   6.829   1.890 -0.1713  0.0842  0.0132
 4364W        W 8564   0.663   9.859  10.595  0.4065 -0.2025  0.1580
 4365W        W 8565   9.602   1.051   1.286  0.2206 -0.5195  0.0247
 4366W        W 8566   4.647   5.962   2.386  0.2026 -0.2446 -0.0172
 4367W        W 8567   2.352   5.696   3.913 -0.1235 -0.0258 -0.0761
 4368W        W 8568   8.019   1.147   1.079  0.0117 -0.0082  0.1084
 4369W        W 8569   5.973   4.989   1.067  0.0679 -0.4882 -0.2522
 4370W        W 8570   8.723   2.839   2.503 -0.1871 -0.6069 -0.0638
 4371W        W 8571   7.170   8.045  12.430 -0.0427 -0.3522 -0.4894
 4372W        W 8572   2.830   5.414   3.032 -0.1410 -0.1303  0.0755
 4373W        W 8573   9.940   1.442   2.744  0.3675 -0.0299 -0.0632
 4374W        W 8574   0.892   2.910   4.525  0.1908 -0.1019 -0.1061
 4375W        W 8575   1.944   7.051  10.294  0.0142 -0.0479 -0.0488
 4376W        W 8576   1.004   6.471  12.514 -0.6540 -0.1547  0.2846
 4377W        W 8577   0.375   8.109  12.066 -0.0973 -0.0166  0.0390
 4378W        W 8578   9.694   5.185   2.407  0.1117 -0.0628 -0.1372
 4379W        W 8579   7.845   0.789  11.753  0.1294 -0.1953  0.2107
 4380W        W 8580   4.936   7.122   9.996  0.3105 -0.1888 -0.0270
 4381W        W 8581   1.622  10.046  10.787 -0.3352 -0.0372  0.0997
 4382W        W 8582   6.674   2.488   0.458  0.3504 -0.0593 -0.1633
 4383W        W 8583   0.185   7.356  10.271 -0.0373 -0.1769 -0.1765
 4384W        W 8584   4.135   9.646   0.564 -0.2590 -0.2193 -0.1668
 4385W        W 8585   8.060   2.652   1.340 -0.1185  0.0054 -0.2480
 4386W        W 8586  10.019   7.347   0.633 -0.1123  0.1036  0.0300
 4387W        W 8587   4.387   1.751   4.318  0.1265 -0.0606  0.0050
 4388W        W 8588   2.563   5.430   1.961 -0.0555  0.0658 -0.0390
 4389W        W 8589   1.529   3.275  12.063  0.0642  0.0073 -0.0847
 4390W        W 8590   3.066   9.749  12.918 -0.2090 -0.2319  0.0967
 4391W        W 8591   7.906   4.912   1.140  0.2985 -0.0490  0.0135
 4392W        W 8592   2.611   6.184  12.806 -0.0080 -0.4188 -0.0648
 4393W        W 8593  10.242   0.007  12.517  0.1706 -0.0929  0.1715
 4394W        W 8594   7.574  10.309  11.879  0.0467  0.1322  0.0931
 4395W        W 8595   9.741   4.190  11.963 -0.0270 -0.3878 -0.1910
 4396W        W 8596   9.267   5.669   2.643  0.1535  0.1857 -0.0314
 4397W        W 8597   8.458   7.354  13.038 -0.0754  0.5325 -0.1636
 4398W        W 8598   9.269   2.717  10.043  0.2925 -0.0841 -0.2044
 4399W        W 8599   9.390   2.934   1.041 -0.0627 -0.0219  0.0628
 4400W        W 8600   1.910   7.540   9.753 -0.0362  0.2500 -0.0295
 4401W        W 8601   1.260   1.193   2.521  0.0191  0.0029 -0.0367
 4402W        W 8602   0.446   3.172   3.275 -0.1197 -0.2084 -0.0697
 4403W        W 8603   4.431   0.945   1.164 -0.1935 -0.2028 -0.1153
 4404W        W 8604   7.568   2.451   1.627  0.1977  0.2029  0.1131
 4405W        W 8605   2.990   8.447   4.425 -0.1285 -0.2375  0.2327
 4406W        W 8606   4.705   0.998   3.653 -0.0701 -0.1392  0.2921
 4407W        W 8607   5.883   9.811   3.218  0.2060 -0.2315  0.1332
 4408W        W 8608   1.800   2.067   2.234  0.2624 -0.0309 -0.1753
 4409W        W 8609   5.433   6.074   0.835  0.1925 -0.1699 -0.1414
 4410W        W 8610   0.118   4.875   1.634 -0.1058 -0.1865  0.0284
 4411W        W 8611   9.745   9.123   2.908 -0.1024 -0.1378  0.1098
 4412W        W 8612   4.099   5.530   0.844  0.0197 -0.1076 -0.0742
 4413W        W 8613   5.689   0.555  12.437 -0.0637  0.3554  0.1044
 4414W        W 8614   9.002   3.788  11.466 -0.1752 -0.1497  0.1470
 4415W        W 8615   6.991  10.335   0.057  0.0841  0.2656 -0.0548
 4416W        W 8616   5.299   3.119   8.900 -0.1559  0.2564  0.0347
 4417W        W 8617   6.991   2.199  10.437  0.1179 -0.0541  0.1851
 4418W        W 8618   6.554   0.552  11.200  0.3624  0.0229  0.0567
 4419W        W 8619   8.795   2.239   2.623  0.0527 -0.0548  0.0947
 4420W        W 8620   9.632   2.818  12.779  0.4684 -0.0289 -0.0043
 4421W        W 8621   3.230   0.416   1.269  0.5856 -0.2079 -0.0232
 4422W        W 8622   9.032   4.125  12.742 -0.0644 -0.1728  0.1224
 4423W        W 8623   4.330   3.672   3.916  0.0851 -0.3684  0.2672
 4424W        W 8624   8.893   2.192  12.976  0.1058 -0.2888  0.1634
 4425W        W 8625   5.480   6.557  10.942 -0.0571 -0.2541  0.0111
 4426W        W 8626   8.722   1.967  12.112 -0.0980 -0.3208 -0.2501
 4427W        W 8627   9.200   6.928   8.836  0.3373  0.3909 -0.0863
 4428W        W 8628   1.792   6.213   4.462 -0.2396 -0.0035  0.0023
 4429W        W 8629   2.724   4.208   3.639 -0.3089  0.0486 -0.0581
 4430W        W 8630   7.012   6.966  12.072  0.1128 -0.0890  0.2370
 4431W        W 8631   5.814   5.559  10.656  0.1960 -0.2189  0.1573
 4432W        W 8632   4.279   8.733   9.971 -0.0722  0.1264 -0.2907
 4433W        W 8633   4.836   7.974  10.726 -0.0939 -0.0413  0.0232
 4434W        W 8634   8.626   9.231   2.436 -0.5934  0.2725  0.1374
 4435W        W 8635   6.474   0.351   0.740  0.3428  0.1544  0.2677
 4436W        W 8636   1.281   5.036  11.530  0.0403  0.1505  0.1376
 4437W        W 8637   4.810   2.874   3.491  0.1904  0.1475 -0.0347
 4438W        W 8638   0.983   2.512  13.154 -0.0257  0.2092  0.2417
 4439W        W 8639   5.310   4.405   2.831  0.0481  0.2082  0.0231
 4440W        W 8640   5.314   8.982   0.621 -0.0843  0.2059  0.1338
 4441W        W 8641   2.952   5.917   3.128 -0.0819 -0.1022 -0.1365
 4442W        W 8642   9.205  10.293  11.917  0.2116 -0.1437 -0.1404
 4443W        W 8643   5.400   7.174   8.360 -0.3098  0.0820 -0.0163
 4444W        W 8644   4.020   7.195   2.054  0.1342  0.1089 -0.1251
 4445W        W 8645   5.711   8.072   0.450 -0.1234 -0.0205 -0.0499
 4446W        W 8646   4.094   9.654   3.266 -0.4039 -0.2261  0.1402
 4447W        W 8647   4.977   4.793   3.549  0.0525 -0.2691  0.2452
 4448W        W 8648   7.082   9.283   0.780 -0.2271  0.2238  0.4746
 4449W        W 8649   9.545   8.768  10.726  0.1944 -0.0109 -0.0819
 4450W        W 8650   5.333   9.565   0.556 -0.1017  0.0955  0.0038
 4451W        W 8651   1.940   0.868   4.123 -0.0324 -0.0315  0.0407
 4452W        W 8652   0.043   3.064   1.517  0.0086 -0.2762 -0.2948
 4453W        W 8653   8.122   9.106  11.957  0.1701 -0.1411 -0.1005
 4454W        W 8654   2.244   2.232  11.906 -0.1193 -0.0786 -0.2821
 4455W        W 8655   1.483  10.032   1.133  0.0302  0.2496 -0.2600
 4456W        W 8656   7.862   3.201   2.928  0.1513 -0.0236 -0.0032
 4457W        W 8657   3.270   8.447   9.988 -0.0353 -0.1502 -0.0376
 4458W        W 8658   8.243   2.916   9.412 -0.1554 -0.1166 -0.1901
 4459W        W 8659   7.889   2.546  10.190 -0.1801 -0.3488 -0.0372
 4460W        W 8660   6.554   9.073  11.919  0.0600 -0.0164  0.2057
 4461W        W 8661   0.734   3.266   1.213 -0.1067 -0.4022  0.0913
 4462W        W 8662   6.586   7.301   3.724 -0.0634  0.0435  0.1010
 4463W        W 8663   6.952   6.576   9.564  0.1510  0.1754  0.2624
 4464W        W 8664   6.937   7.657   0.390 -0.1310  0.0726  0.1355
 4465W        W 8665   3.772   4.425   1.998 -0.0754 -0.2210 -0.0439
 4466W        W 8666   5.795   7.491  12.726  0.0325  0.1976 -0.0127
 4467W        W 8667   7.518   6.595   3.143  0.1904  0.0958  0.0692
 4468W        W 8668   1.201   1.379  12.304  0.2069 -0.1340  0.1801
 4469W        W 8669   6.619   7.794  12.470  0.0223  0.4056 -0.2360
 4470W        W 8670   0.680  10.220  11.255 -0.0986  0.0140  0.2020
 4471W        W 8671   7.919   6.212  10.723 -0.4963 -0.1820 -0.1177
 4472W        W 8672   2.887   4.683  11.671  0.1821 -0.0890 -0.2879
 4473W        W 8673   9.178   7.295   2.477  0.0128  0.0805 -0.1936
 4474W        W 8674   7.042   1.649   9.393  0.3020  0.0035 -0.1345
 4475W        W 8675   6.559   6.319  12.515  0.1986  0.3504 -0.5098
 4476W        W 8676  10.286   0.706  10.761 -0.0259  0.3180  0.1138
 4477W        W 8677   8.040   1.351   4.077 -0.2063 -0.2140 -0.0485
 4478W        W 8678   7.547   9.141   1.372 -0.2653  0.1224  0.2342
 4479W        W 8679   6.957   9.279  10.971  0.1921 -0.3178  0.0458
 4480W        W 8680   9.597   8.595   3.657 -0.1965 -0.0632 -0.0962
 4481W        W 8681   1.396   6.952  13.274 -0.0080 -0.2513  0.3403
 4482W        W 8682   2.340   4.590   9.941 -0.0137 -0.4459 -0.2021
 4483W        W 8683   4.556   1.373  11.467  0.4223 -0.1034  0.1767
 4484W        W 8684   9.626   8.979  11.580  0.3507  0.1963 -0.1481
 4485W        W 8685   8.304   6.904  11.681 -0.0841  0.1953  0.5379
 4486W        W 8686   4.454   6.440   1.566  0.0022  0.0719  0.0764
 4487W        W 8687   1.826   8.419  10.572 -0.1084  0.0549  0.0305
 4488W        W 8688  10.302   2.068   2.530 -0.2946 -0.1070  0.1384
 4489W        W 8689   8.767   5.939  10.908  0.0372 -0.0948 -0.0700
 4490W        W 8690  10.128   5.983  10.406  0.0018 -0.1127 -0.0343
 4491W        W 8691   8.781   4.604   2.174  0.2597  0.2613 -0.1559
 4492W        W 8692   8.328   3.331   0.775  0.0500  0.0115  0.3744
 4493W        W 8693   3.494   2.911   0.335 -0.2299 -0.0041  0.2422
 4494W        W 8694   6.175   0.169  10.768  0.0182  0.4229 -0.0513
 4495W        W 8695   9.867  10.258  12.732  0.3399 -0.0746 -0.0390
 4496W        W 8696   2.699   5.136   1.180 -0.2688  0.1173 -0.2327
 4497W        W 8697   8.946   4.679   0.512  0.0961 -0.2053  0.0792
 4498W        W 8698   2.202   2.762  12.596 -0.3346 -0.1061  0.0778
 4499W        W 8699   0.667   4.292   0.179 -0.0639 -0.0157  0.2909
 4500W        W 8700   8.076   6.820   1.488 -0.2659 -0.2418  0.1698
 4501W        W 8701   6.707   9.098   0.237  0.1819  0.0540  0.1069
 4502W        W 8702   6.689   6.693   2.364  0.2685 -0.2503 -0.0132
 4503W        W 8703   5.792  10.418  10.426 -0.1988 -0.0767 -0.0454
 4504W        W 8704  10.182   4.015   9.058 -0.0777  0.0923  0.3264
 4505W        W 8705   2.735   0.011   3.736 -0.3413 -0.1320  0.1593
 4506W        W 8706   5.971   0.035   9.915  0.3430  0.3008  0.0881
 4507W        W 8707   1.287   6.949   3.475  0.2865 -0.3456  0.3252
 4508W        W 8708   4.580   7.983   0.944 -0.1942 -0.2802  0.3689
 4509W        W 8709   8.098   5.731   0.493  0.1910 -0.0419  0.1811
 4510W        W 8710   1.696   0.578   9.100 -0.0002 -0.0750  0.2695
 4511W        W 8711   6.057   1.150  10.807  0.3533 -0.0093  0.2748
 4512W        W 8712   6.565   0.400  10.699 -0.1944 -0.1737  0.0176
 4513W        W 8713   6.482   9.622   1.280  0.0150 -0.1167  0.0028
 4514W        W 8714   5.195   1.381   3.580 -0.1583 -0.0166 -0.0166
 4515W        W 8715   6.468   5.485   5.077  0.0976 -0.0225  0.0355
 4516W        W 8716   0.588   0.367   1.639  0.1203  0.0834  0.1065
 4517W        W 8717   6.253   1.534   3.843  0.3214 -0.1407 -0.1892
 4518W        W 8718   1.695   0.514  10.694 -0.0253  0.1655  0.0586
 4519W        W 8719   4.273   5.842   9.884 -0.3055 -0.0856 -0.1539
 4520W        W 8720   2.043   5.542   2.192  0.0916 -0.1544  0.0042
 4521W        W 8721   6.941   2.831   9.502 -0.0288  0.0012 -0.2168
 4522W        W 8722   9.529   0.281  12.601  0.1791 -0.2651 -0.2023
 4523W        W 8723   8.388   9.377  12.300 -0.1526 -0.1216 -0.0048
 4524W        W 8724   6.955  10.423  11.890 -0.0031  0.0946  0.2127
 4525W        W 8725   8.715   0.472   2.238  0.0367 -0.1066  0.2143
 4526W        W 8726   5.165   8.199   0.393 -0.1196 -0.1361 -0.0853
 4527W        W 8727   6.458   2.901  11.304 -0.0352  0.0845 -0.1212
 4528W        W 8728   7.103   5.865  10.601 -0.3290  0.0078  0.0899
 4529W        W 8729   8.813   7.047   0.645 -0.0739  0.2282 -0.1174
 4530W        W 8730   9.207   1.012   1.579  0.1087  0.0307  0.0895
 4531W        W 8731   2.245   3.694  10.394 -0.2160  0.0878 -0.2844
 4532W        W 8732   9.123   6.787  11.144  0.2229  0.3912  0.1591
 4533W        W 8733   5.380   8.754   2.417 -0.0704 -0.5660  0.1797
 4534W        W 8734   4.713   6.027   8.039  0.0962  0.2166 -0.1641
 4535W        W 8735   0.641   7.539   0.185 -0.1995  0.2191 -0.0168
 4536W        W 8736   1.928   8.347  12.669  0.0132  0.1142 -0.1328
 4537W        W 8737   3.454   0.537   2.585  0.0852  0.0992  0.3317
 4538W        W 8738   7.209   5.254   2.459  0.2045  0.1227 -0.0752
 4539W        W 8739   0.259   8.926   3.325  0.2481 -0.0308  0.2726
 4540W        W 8740   6.208   7.683   3.839  0.2623 -0.4275 -0.2629
 4541W        W 8741   4.989   4.674  12.479  0.0000  0.0197  0.2429
 4542W        W 8742   9.273   1.115   0.413  0.0094 -0.1227 -0.2100
 4543W        W 8743   4.496   9.384   4.986 -0.1153  0.3486 -0.0359
 4544W        W 8744   8.506   5.587  10.518 -0.0620  0.1979  0.0008
 4545W        W 8745   5.830   1.748  13.387  0.0609  0.1994  0.0979
 4546W        W 8746   3.359   5.414  11.719 -0.0402 -0.0432  0.1053
 4547W        W 8747   3.306   8.544   1.474  0.1491  0.2263 -0.1719
 4548W        W 8748   5.117   9.744   5.185 -0.2526 -0.0123 -0.0041
 4549W        W 8749   3.579   3.420   2.573  0.0981  0.1258 -0.1213
 4550W        W 8750   1.395   8.110   2.354  0.0209  0.0882 -0.0007
 4551W        W 8751   0.118   0.187   3.039 -0.0471 -0.0620 -0.5317
 4552W        W 8752  10.021   4.181   4.932  0.2767 -0.0175 -0.0938
 4553W        W 8753   2.610   2.358   0.316 -0.0626 -0.1264 -0.1312
 4554W        W 8754   7.847   4.486   0.870  0.1355  0.0922  0.4316
 4555W        W 8755   9.313   9.781   2.948 -0.0844 -0.1047 -0.2053
 4556W        W 8756  10.145   8.553   3.652 -0.0829  0.1386  0.1138
 4557W        W 8757   0.860   5.395   1.371  0.0965  0.0568  0.2298
 4558W        W 8758   3.204   4.515   8.494 -0.1473  0.2336  0.0114
 4559W        W 8759   7.816   8.778   0.533 -0.2584 -0.1615 -0.2885
 4560W        W 8760   8.105   2.870  11.986 -0.2509 -0.0319 -0.3335
 4561W        W 8761   1.078   0.411   2.944 -0.0292 -0.1753 -0.0210
 4562W        W 8762   3.405   8.070  10.267  0.0413  0.4270  0.0808
 4563W        W 8763   8.505   3.589   0.238  0.3573  0.0929  0.1459
 4564W        W 8764   5.793   7.769   4.294 -0.0200  0.0780 -0.0326
 4565W        W 8765   5.761   7.436   0.595  0.1549 -0.0194  0.1880
 4566W        W 8766   6.546   5.307  11.095 -0.0960 -0.1736  0.0428
 4567W        W 8767   8.500   6.329  12.892  0.5091  0.2306 -0.1364
 4568W        W 8768   2.480   1.355  12.022 -0.0598 -0.1915  0.1007
 4569W        W 8769   4.835   3.911  10.556 -0.0282 -0.0154  0.0721
 4570W        W 8770   9.575   2.336   3.551 -0.1322  0.5360 -0.0233
 4571W        W 8771   5.924   3.497   0.586  0.0367  0.2323  0.3406
 4572W        W 8772   2.781   4.998  13.424 -0.0183 -0.3193 -0.2933
 4573W        W 8773   7.243   5.927   0.138 -0.1151  0.2681 -0.0050
 4574W        W 8774   1.020   9.847  11.424  0.1448  0.0665  0.0644
 4575W        W 8775   4.773   7.716   0.387  0.1219 -0.2503 -0.4048
 4576W        W 8776   7.775   8.294  10.950  0.0291  0.1134 -0.0113
 4577W        W 8777   5.776   5.119   3.136 -0.3063 -0.0767 -0.1469
 4578W        W 8778   2.843   7.853   0.927  0.0695 -0.2909 -0.1768
 4579W        W 8779   0.161   3.152   3.766 -0.1573 -0.1574 -0.2383
 4580W        W 8780   3.689   4.993   0.435  0.0499  0.1503 -0.2460
 4581W        W 8781   8.235   6.392   1.261 -0.0712 -0.0158 -0.0853
 4582W        W 8782   2.792   1.210   9.917  0.2376  0.1241 -0.0113
 4583W        W 8783   3.403   1.622  13.047  0.0623  0.1417  0.1534
 4584W        W 8784   0.543   7.087   9.914  0.0723 -0.1167  0.0536
 4585W        W 8785   5.690   9.271   0.318  0.1707  0.4585 -0.2631
 4586W        W 8786   4.658   0.510   0.230 -0.1215  0.0452 -0.2219
 4587W        W 8787   6.058   8.409   1.804  0.3699 -0.2321  0.0144
 4588W        W 8788   4.464   9.649   9.051 -0.1992  0.0957  0.1858
 4589W        W 8789   6.056   3.543   9.943  0.0014  0.0932  0.5430
 4590W        W 8790   4.258   4.224   9.239  0.0209  0.0472 -0.0239
 4591W        W 8791   2.987   8.947  10.100 -0.0036 -0.4476 -0.0899
 4592W        W 8792   6.380   3.059  11.767  0.0245 -0.4429  0.0632
 4593W        W 8793   4.236   4.344   8.768  0.2110  0.2184  0.0280
 4594W        W 8794   8.548   7.737  10.567  0.0666  0.0673 -0.2319
 4595W        W 8795   6.624   8.012   2.521  0.1052 -0.0805  0.2757
 4596W        W 8796  10.248   9.115  12.561 -0.1298 -0.1067 -0.3624
 4597W        W 8797   7.850   1.167   0.562  0.2856 -0.0232  0.0848
 4598W        W 8798   4.542   5.669   8.411  0.2118 -0.0508 -0.0681
 4599W        W 8799   1.932   0.745  11.909 -0.2369  0.2442  0.1174
 4600W        W 8800   8.232   0.474   9.525 -0.0365 -0.1654 -0.1124
 4601W        W 8801   8.250   0.240   0.599  0.0009 -0.0674  0.0648
 4602W        W 8802   3.516   6.576   1.581  0.3211  0.1766 -0.0526
 4603W        W 8803   6.702   2.275  13.069  0.1670  0.0240  0.0772
 4604W        W 8804   0.451   4.850  11.425 -0.0726 -0.2645 -0.1065
 4605W        W 8805   1.595   7.297   3.770  0.0873 -0.2604 -0.0123
 4606W        W 8806  10.228   7.342   3.992 -0.0814  0.2182  0.0356
 4607W        W 8807   5.718   4.188  10.215 -0.1408 -0.2551  0.0550
 4608W        W 8808   5.075   0.915   3.356  0.1946  0.0238 -0.1437
 4609W        W 8809   8.232   5.008  12.362 -0.1004  0.0057  0.0456
 4610W        W 8810   3.603   3.326  11.352  0.0997 -0.1914 -0.0044
 4611W        W 8811   6.251   6.079   4.397  0.4356 -0.0482  0.1491
 4612W        W 8812   3.244   1.324   2.721  0.1758  0.0729  0.2898
 4613W        W 8813   0.186   6.034   5.097  0.0039 -0.0307 -0.1367
 4614W        W 8814   6.734   4.296  12.042 -0.1973 -0.0005 -0.0617
 4615W        W 8815   5.449   4.827   8.926  0.2379 -0.0908 -0.0394
 4616W        W 8816   1.164   6.885  12.233 -0.1064 -0.0897 -0.4516
 4617W        W 8817   7.688   2.315   2.230 -0.4723 -0.1787 -0.0861
 4618W        W 8818   6.612   9.522  13.309 -0.0017  0.4095 -0.1777
 4619W        W 8819   0.288   6.212  10.057 -0.0376 -0.1264 -0.2919
 4620W        W 8820   2.507   2.560   1.475  0.0256 -0.1371 -0.0198
 4621W        W 8821   4.723   4.612  12.004 -0.1192 -0.0354  0.0202
 4622W        W 8822   8.924   5.613   2.305  0.4116  0.3154 -0.0348
 4623W        W 8823   4.528   7.645  12.953  0.1520  0.0697 -0.3517
 4624W        W 8824   3.431   7.007  13.365 -0.1249  0.1556  0.3162
 4625W        W 8825   1.262   7.101   1.217 -0.2904 -0.0647  0.1696
 4626W        W 8826   0.871   0.213  13.103  0.1181 -0.0756  0.0580
 4627W        W 8827   3.409   3.240   8.839  0.0293  0.1013 -0.0263
 4628W        W 8828   5.464   6.140  10.117 -0.0769  0.1675  0.0489
 4629W        W 8829   5.049   4.752  13.431 -0.2438 -0.0232 -0.0062
 4630W        W 8830   9.565   3.042   1.528  0.7310  0.2706 -0.0355
 4631W        W 8831   7.940   1.601   0.881  0.0968 -0.0253  0.2361
 4632W        W 8832   7.010   2.248   3.039  0.1386 -0.4283  0.3523
 4633W        W 8833   7.330   3.953   4.539  0.1563  0.2136 -0.0151
 4634W        W 8834   7.137   4.908   0.487  0.0877 -0.0568  0.0446
 4635W        W 8835   2.261   2.862   1.824  0.1609  0.0854  0.1288
 4636W        W 8836   5.164  10.271   2.638  0.1076  0.2653  0.0713
 4637W        W 8837   8.780   8.051  12.904 -0.2233  0.2122  0.1272
 4638W        W 8838   9.640   8.078  11.247  0.2605 -0.0185 -0.0008
 4639W        W 8839   2.606   4.744   4.292 -0.0001 -0.0201 -0.1233
 4640W        W 8840   5.919   4.387  12.971 -0.1079 -0.3570 -0.2787
 4641W        W 8841   0.531   9.221  10.697 -0.0969  0.0379  0.0873
 4642W        W 8842   2.851   1.308  12.899 -0.0709  0.6003 -0.1828
 4643W        W 8843   5.630   6.904   0.613 -0.1631  0.1442 -0.0884
 4644W        W 8844   5.917   1.942   3.989 -0.2531 -0.0215  0.2777
 4645W        W 8845  10.425   7.425  13.370 -0.0589 -0.0227  0.0150
 4646W        W 8846  10.356   0.754   2.489 -0.2174  0.0106  0.1808
 4647W        W 8847   1.302   9.959   1.862 -0.1965 -0.1030 -0.0549
 4648W        W 8848   4.374   0.761   1.804 -0.0844  0.2102 -0.0537
 4649W        W 8849   8.391   9.656   2.112 -0.0728 -0.0286 -0.2253
 4650W        W 8850   0.440   3.621  12.969 -0.0459  0.0741 -0.0564
 4651W        W 8851   7.297   4.482   9.223  0.0406  0.1252 -0.1806
 4652W        W 8852   7.934   7.204   1.167  0.1446  0.0586  0.0889
 4653W        W 8853  10.279   9.688  11.164 -0.0475  0.1964 -0.0194
 4654W        W 8854   2.239   4.883   3.637  0.2377  0.1117  0.1403
 4655W        W 8855   1.736   3.926  12.283 -0.1797 -0.2683  0.1903
 4656W        W 8856   8.901   9.017  11.429 -0.1174 -0.2174  0.0213
 4657W        W 8857   3.309   4.747   9.804 -0.1666 -0.0798  0.1529
 4658W        W 8858   0.574   2.960   4.036  0.1624  0.2051 -0.0251
 4659W        W 8859   3.266   5.685  10.222 -0.1468 -0.2407  0.1741
 4660W        W 8860   0.547   3.937   3.023  0.2336 -0.1012 -0.0795
 4661W        W 8861   7.940   8.635   2.939 -0.1675 -0.0473  0.0716
 4662W        W 8862   0.318   5.936   3.409  0.0516 -0.3170  0.2757
 4663W        W 8863   8.536   3.397  11.004  0.0482  0.0979 -0.0125
 4664W        W 8864   4.611   0.033   4.170  0.0970  0.1341 -0.2139
 4665W        W 8865   0.936   2.367  12.667 -0.3690  0.3354  0.1578
 4666W        W 8866   8.642   5.826  12.710 -0.0052 -0.2346 -0.0532
 4667W        W 8867   9.371   6.085   5.381 -0.0645 -0.0029 -0.3178
 4668W        W 8868   2.234   1.809   4.408  0.0318 -0.0041  0.1028
 4669W        W 8869   3.581   1.769   1.708 -0.1660  0.0725  0.0091
 4670W        W 8870   9.524   9.585  10.988  0.0967 -0.0837 -0.5202
 4671W        W 8871   4.828   5.572   2.121  0.0871  0.1841  0.0568
 4672W        W 8872   8.781   2.916   9.957  0.1225  0.2448  0.0125
 4673W        W 8873   9.698   4.806   0.060 -0.1122  0.2984 -0.0179
 4674W        W 8874   2.168   9.214   2.983 -0.0554  0.1762  0.1709
 4675W        W 8875   5.812   3.457   4.022  0.2438  0.2687 -0.2332
 4676W        W 8876  10.459   2.962   9.956 -0.0139  0.1881  0.0217
 4677W        W 8877   7.518   5.964   9.982 -0.0223  0.2065 -0.0122
 4678W        W 8878   5.691   0.139   3.391  0.1613  0.5139 -0.0990
 4679W        W 8879   4.266   1.503  13.161 -0.1871  0.2591  0.0109
 4680W        W 8880   8.864   4.860  10.934  0.1930  0.1150  0.0441
 4681W        W 8881   7.145   9.548  12.250 -0.1297 -0.0504 -0.0539
 4682W        W 8882   8.321   7.250   9.422 -0.0691  0.2986  0.0332
 4683W        W 8883   5.333   2.233   0.504 -0.0160 -0.1075 -0.0426
 4684W        W 8884   1.064   0.614   0.860 -0.2867 -0.0887  0.0597
 4685W        W 8885   4.263   1.497   1.126 -0.5713  0.0955  0.0530
 4686W        W 8886   2.139   4.065   1.147 -0.0686  0.2402 -0.0059
 4687W        W 8887   5.951   7.604  10.086 -0.0648 -0.0498 -0.0749
 4688W        W 8888   0.615   1.394   7.605 -0.0283  0.1912  0.0568
 4689W        W 8889  10.101   0.243   0.889 -0.2742  0.1337 -0.5294
 4690W        W 8890   3.330   5.929  11.478 -0.0740  0.2228 -0.0854
 4691W        W 8891   8.697   3.068  10.439 -0.1353 -0.1220 -0.1504
 4692W        W 8892   6.840   0.201  10.164 -0.0760 -0.0622  0.1808
 4693W        W 8893   3.456   6.961  12.574  0.3904 -0.0309  0.1518
 4694W        W 8894  10.292   1.826  12.557 -0.0999  0.1792 -0.0066
 4695W        W 8895   8.630   0.678  10.390 -0.0473 -0.2121 -0.0708
 4696W        W 8896   7.174   0.457  11.843 -0.1829 -0.1114 -0.1777
 4697W        W 8897   9.446   3.114  10.939 -0.0176 -0.2081  0.3059
 4698W        W 8898   4.439   6.599  11.044  0.1617  0.1436  0.3178
 4699W        W 8899   0.644   1.884  11.923 -0.0567  0.3808 -0.2055
 4700W        W 8900   0.349   3.612   3.617 -0.1411 -0.0796  0.2298
 4701W        W 8901   5.897   9.332   1.470 -0.0853  0.0093  0.1212
 4702W        W 8902   6.413   9.109   3.183 -0.0250  0.1040  0.2267
 4703W        W 8903   6.819   0.223   1.224 -0.1820 -0.3102 -0.2516
 4704W        W 8904   5.780   0.072  12.160 -0.0726 -0.1283  0.4030
 4705W        W 8905   9.344   3.765  10.214  0.4273  0.1913  0.4563
 4706W        W 8906   6.091   0.849  13.136 -0.2996 -0.1543 -0.0024
 4707W        W 8907   2.494   6.576  11.555  0.0386  0.0237  0.2283
 4708W        W 8908   2.156   6.863   9.516  0.1621  0.1422  0.3135
 4709W        W 8909   4.089  10.073  10.285 -0.0571 -0.3625  0.0412
 4710W        W 8910   2.299   9.184   0.880  0.0689 -0.0170  0.4951
 4711W        W 8911   4.452   8.633  12.132  0.3467  0.2710 -0.0901
 4712W        W 8912   4.775   3.246   4.164  0.0068 -0.3136  0.2729
 4713W        W 8913   2.729  10.125  12.956  0.3371 -0.0511  0.2016
 4714W        W 8914   9.197   8.181   1.854 -0.2765 -0.3196 -0.1611
 4715W        W 8915   6.511   8.190   1.830  0.1900  0.0666 -0.0991
 4716W        W 8916   6.590   3.805   4.932  0.1970  0.2573 -0.2694
 4717W        W 8917   1.834   6.147   0.984  0.0613 -0.0397  0.0625
 4718W        W 8918   2.864   0.693  11.519 -0.1591 -0.1502  0.1019
 4719W        W 8919   8.642   4.078   0.279  0.0125 -0.0268  0.1249
 4720W        W 8920   2.050   8.885   4.406  0.2379 -0.0741 -0.0466
 4721W        W 8921   1.467   4.359  11.609  0.1941  0.0391  0.1159
 4722W        W 8922   5.845   9.250   2.342  0.0485 -0.0376  0.3981
 4723W        W 8923   0.212   7.268  12.126  0.1350 -0.0120  0.0348
 4724W        W 8924   6.880   8.422   1.093 -0.0289  0.1663 -0.0462
 4725W        W 8925   7.477   2.037   3.580  0.3593  0.0527  0.1735
 4726W        W 8926   3.968   7.484  12.093 -0.2623  0.0243  0.0851
 4727W        W 8927   0.641   7.965   9.967  0.4119 -0.3023  0.0032
 4728W        W 8928   8.985   1.080   9.684 -0.2293 -0.0088  0.0430
 4729W        W 8929   4.993   8.877   9.336 -0.0326  0.3211  0.1493
 4730W        W 8930   3.392   8.932   2.910 -0.1187  0.1712  0.1711
 4731W        W 8931   3.297   5.711   1.617  0.1007  0.2351  0.2566
 4732W        W 8932   3.826   4.336   9.459 -0.1259  0.2124 -0.1413
 4733W        W 8933   4.461   2.665   4.423 -0.0686 -0.0392 -0.1648
 4734W        W 8934   6.916   8.423  10.082 -0.1389 -0.0293  0.0422
 4735W        W 8935   0.068   0.456   1.545  0.1546 -0.1961  0.1301
 4736W        W 8936   1.528   0.297  13.274 -0.0717  0.0240  0.0287
 4737W        W 8937  10.370   6.451   2.868  0.0700  0.0444  0.2257
 4738W        W 8938   8.093   8.397   4.406 -0.3437  0.0542 -0.0749
 4739W        W 8939   5.864   2.131   8.460 -0.0762 -0.0461 -0.1399
 4740W        W 8940   3.210   8.107   1.697  0.1070 -0.0931  0.1436
 4741W        W 8941   7.938   7.173   1.807 -0.1911 -0.0632 -0.1200
 4742W        W 8942   5.756   5.452   1.757 -0.2185  0.2245 -0.0152
 4743W        W 8943   6.729   4.050   0.414 -0.1139  0.1843 -0.0405
 4744W        W 8944   7.100   1.833   0.522 -0.3131  0.1029  0.0938
 4745W        W 8945   0.224   1.979   0.728  0.2297  0.0597 -0.0384
 4746W        W 8946   1.833   4.668   4.674  0.4834  0.0244  0.1132
 4747W        W 8947   0.441   7.453  11.653 -0.0388  0.1349 -0.1157
 4748W        W 8948   6.482   6.963   3.311 -0.1219  0.4231 -0.0447
 4749W        W 8949   6.710   6.228   9.235 -0.1962 -0.1459 -0.0661
 4750W        W 8950   2.219   8.685  10.296  0.2832  0.0454  0.1597
 4751W        W 8951   5.308   0.020  12.369  0.0815 -0.1254 -0.1233
 4752W        W 8952   3.437   9.177   0.296 -0.2934  0.0323 -0.2480
 4753W        W 8953   4.166   0.896  11.491  0.0884  0.1165  0.2140
 4754W        W 8954   4.051   9.912  12.394 -0.1435 -0.1226 -0.2937
 4755W        W 8955   7.612   1.273  12.010 -0.1133  0.1101  0.0147
 4756W        W 8956   8.946   8.932  12.741  0.4399  0.2477 -0.1134
 4757W        W 8957   4.753   4.362   0.765  0.0519  0.0328  0.0685
 4758W        W 8958   6.668   5.034  11.954 -0.2584 -0.1451  0.0871
 4759W        W 8959   3.721   6.754   2.129 -0.2780  0.3647  0.0207
 4760W        W 8960   0.471   9.082   2.507 -0.0642 -0.0000 -0.1724
 4761W        W 8961   5.369   3.081  11.727 -0.0474  0.5127  0.3092
 4762W        W 8962   4.920   8.001   2.091 -0.3399  0.0416  0.3519
 4763W        W 8963   2.085   0.642  13.332  0.2785  0.0083 -0.0432
 4764W        W 8964   6.027   9.853   0.624  0.0529  0.2185 -0.0073
 4765W        W 8965  10.277   1.949   1.179 -0.2606  0.1350 -0.0585
 4766W        W 8966   2.272   9.323  11.007 -0.0961 -0.0215  0.3944
 4767W        W 8967   1.830   9.391   0.973 -0.0196 -0.0228 -0.1216
 4768W        W 8968   3.604   6.310   2.344  0.1308  0.1969 -0.0246
 4769W        W 8969   6.493   0.959  10.663 -0.3422  0.1822 -0.3177
 4770W        W 8970   0.718   0.869  12.108 -0.0752 -0.0674  0.1082
 4771W        W 8971   7.686   6.727   4.109  0.0827 -0.2363 -0.0519
 4772W        W 8972   1.244   0.948   2.936 -0.2011  0.0239  0.0971
 4773W        W 8973   4.537   6.145  12.987  0.0672  0.2155 -0.0948
 4774W        W 8974   3.470   0.093  12.130 -0.0445  0.4161  0.1968
 4775W        W 8975   7.347   8.905   5.033 -0.0891  0.0955 -0.1786
 4776W        W 8976   6.183   6.221   9.552 -0.0252  0.1385  0.0245
 4777W        W 8977   3.989   2.211   1.820  0.2504 -0.2656 -0.1521
 4778W        W 8978   2.194   7.111  12.893  0.1652 -0.0769  0.0700
 4779W        W 8979   6.435   0.440   3.677 -0.3239  0.2236  0.0386
 4780W        W 8980   9.432   3.072   3.384  0.0442 -0.2348 -0.0656
 4781W        W 8981   1.222   8.153  10.712  0.0136  0.3757 -0.0877
 4782W        W 8982   7.932   5.845  11.875 -0.0634  0.0990 -0.1481
 4783W        W 8983   3.423   1.456  11.175  0.2082 -0.0216 -0.2184
 4784W        W 8984   3.196   1.564  10.715 -0.1899 -0.1694  0.1117
 4785W        W 8985   3.389   0.176   9.538 -0.1394  0.1135 -0.2870
 4786W        W 8986   2.616   7.862   3.150  0.0551 -0.1314 -0.3239
 4787W        W 8987   3.409  10.454   8.572 -0.1052 -0.0907  0.1037
 4788W        W 8988   3.574   6.614   2.944 -0.3388 -0.1201  0.0169
 4789W        W 8989   6.460   8.424   1.385  0.2791 -0.0125  0.2254
 4790W        W 8990   1.734  10.230   2.829 -0.1281  0.1198 -0.0090
 4791W        W 8991   4.477   3.999   2.646  0.0497 -0.1980 -0.3305
 4792W        W 8992   9.115   0.622  12.567 -0.0393  0.0467  0.0052
 4793W        W 8993  10.174   1.874  10.018 -0.0828  0.4817 -0.1410
 4794W        W 8994   9.555   3.457  13.444 -0.2256  0.4494 -0.0500
 4795W        W 8995   1.982   4.247   2.419 -0.1212  0.0109 -0.1610
 4796W        W 8996   0.379   0.036   4.248  0.1260  0.0573  0.0213
 4797W        W 8997   7.768  10.259   0.872  0.0641  0.2780 -0.2133
 4798W        W 8998   1.859   3.381   4.569  0.0241  0.3944  0.1946
 4799W        W 8999   3.244   7.035   9.219 -0.2523  0.1585  0.2049
 4800W        W 9000   8.191   7.122   2.655  0.1585  0.1028 -0.2072
 4801W        W 9001   7.632   4.986  10.359 -0.0568 -0.3489 -0.0041
 4802W        W 9002   3.106   4.406   3.853  0.1115 -0.1065 -0.1309
 4803W        W 9003   9.259   2.034   1.339  0.5727  0.5191 -0.1240
 4804W        W 9004   5.895   9.302   8.761  0.4952 -0.0325  0.0307
 4805W        W 9005   9.235   7.340   1.608 -0.0801  0.0254 -0.0363
 4806W        W 9006   9.106   9.406  10.516  0.1383 -0.1533  0.0455
 4807W        W 9007   5.164   9.454   3.624  0.2330  0.2630  0.1638
 4808W        W 9008   0.267   1.770  12.285 -0.1699 -0.3748  0.6236
 4809W        W 9009   7.792   3.361  13.025  0.1444 -0.1798  0.0541
 4810W        W 9010   8.374   0.804  11.872 -0.1849  0.0180 -0.3038
 4811W        W 9011   9.768   1.265  11.132  0.2504  0.0252  0.1394
 4812W        W 9012   7.276   9.772  10.887 -0.0544  0.3096 -0.0866
 4813W        W 9013   5.787   0.418  10.564 -0.1725  0.3986 -0.0469
 4814W        W 9014   9.837   3.248  11.864 -0.2429 -0.0139  0.1251
 4815W        W 9015   4.645   6.226   9.658  0.0165  0.2980  0.1113
 4816W        W 9016   2.347   5.349   5.008  0.0707 -0.0052  0.1867
 4817W        W 9017  10.089   8.232  12.560 -0.1544 -0.0558 -0.0451
 4818W        W 9018   7.530   6.475  12.673  0.0228 -0.0278 -0.1491
 4819W        W 9019  10.122   5.363   9.960 -0.0988  0.3551 -0.0495
 4820W        W 9020   0.121   7.125  10.730 -0.2897  0.0519 -0.1064
 4821W        W 9021   1.168   8.026   1.371  0.1643 -0.2461 -0.2960
 4822W        W 9022   1.373   9.072  11.007 -0.1642 -0.1256  0.1784
 4823W        W 9023   6.062   4.112   9.880 -0.0723  0.0201  0.2602
 4824W        W 9024   2.036   6.821   0.682  0.3504  0.0585  0.2350
 4825W        W 9025   5.490   4.376   0.998 -0.0309  0.0774  0.2302
 4826W        W 9026  10.287   7.338   9.899  0.1213  0.3881  0.1025
 4827W        W 9027   9.696   8.504   9.948  0.0643  0.0203  0.3515
 4828W        W 9028   3.766   3.015   4.548  0.1262  0.0600  0.1299
 4829W        W 9029   5.560   0.783   3.464  0.1764 -0.1031  0.0749
 4830W        W 9030   4.468   9.446  11.777  0.0522 -0.0380 -0.1073
 4831W        W 9031   4.197   2.993   1.635 -0.1769  0.1139 -0.0248
 4832W        W 9032   0.577   3.995   1.658  0.1052 -0.0103 -0.2229
 4833W        W 9033   7.222   6.511   1.483  0.4509 -0.1941 -0.2078
 4834W        W 9034   5.355   2.383  10.598  0.1493 -0.1737  0.0399
 4835W        W 9035   7.155   4.137  10.156  0.0834  0.3373  0.0208
 4836W        W 9036   1.011   9.298   0.711 -0.1108 -0.1491  0.2785
 4837W        W 9037   8.163   9.574   9.196  0.0442  0.0974 -0.0309
 4838W        W 9038   1.143   0.578  12.899 -0.1665 -0.2434 -0.1892
 4839W        W 9039   6.693   0.555  11.681 -0.1847 -0.1214 -0.2103
 4840W        W 9040   9.884   0.952   2.410 -0.1426  0.2132  0.0308
 4841W        W 9041   1.410   6.501   4.924  0.1179 -0.1665 -0.4256
 4842W        W 9042   7.900   6.697   5.851 -0.1849  0.1649 -0.0328
 4843W        W 9043   2.336   4.534   0.524  0.1745 -0.0639  0.1740
 4844W        W 9044   6.134   0.630  10.949 -0.1338 -0.1557  0.4916
 4845W        W 9045   1.666   3.891   0.482  0.2227  0.3546  0.0109
 4846W        W 9046  10.140   1.201  10.707 -0.0771  0.0414  0.0024
 4847W        W 9047   7.015   1.249  10.856 -0.2777 -0.0949 -0.1421
 4848W        W 9048   3.843   8.222  12.895 -0.0495 -0.1286 -0.0054
 4849W        W 9049   8.531   5.236   4.416 -0.2738 -0.0845  0.0517
 4850W        W 9050   6.859   2.946   1.224 -0.2971 -0.1895  0.2541
 4851W        W 9051   0.112   6.029  11.182  0.0655  0.1436 -0.1152
 4852W        W 9052   0.135   6.782  12.286 -0.3007  0.0688  0.0285
 4853W        W 9053   1.682   6.127   0.220 -0.2798  0.3469 -0.0731
 4854W        W 9054   0.951   6.747   4.216  0.0632 -0.3255  0.2680
 4855W        W 9055   8.982   1.237   2.652  0.2785  0.1393 -0.2254
 4856W        W 9056   6.905   5.719   9.434  0.1452 -0.0535 -0.4393
 4857W        W 9057   5.852   0.472   2.380  0.1476  0.2598  0.1456
 4858W        W 9058   9.229   7.822  10.868  0.4093  0.3704 -0.0937
 4859W        W 9059   4.766   9.594  10.307  0.1014 -0.1065 -0.2309
 4860W        W 9060   9.715   1.727   1.175 -0.0322 -0.0304 -0.2016
 4861W        W 9061   7.381   4.745   0.901 -0.0454  0.1627  0.1665
 4862W        W 9062   2.172   3.181  12.183 -0.0401  0.1892  0.4590
 4863W        W 9063   5.290   7.663   0.505 -0.1472 -0.0316 -0.1096
 4864W        W 9064   0.942   3.829   5.034  0.0972  0.0173 -0.2320
 4865W        W 9065   7.547   5.361  11.276  0.0425 -0.1850  0.2843
 4866W        W 9066   1.228   7.635  12.573  0.1180 -0.4228  0.1095
 4867W        W 9067   5.072   9.049   2.737  0.0716  0.3175 -0.0064
 4868W        W 9068   8.175   5.039   1.608 -0.0239 -0.2815  0.0579
 4869W        W 9069   3.298   2.076  12.913  0.0126  0.2089  0.0993
 4870W        W 9070   4.934   7.402   3.680  0.2634  0.0474  0.0378
 4871W        W 9071   2.896   9.969  10.948 -0.0640  0.1224  0.3274
 4872W        W 9072   4.557   6.210   8.558 -0.1204  0.1640  0.2000
 4873W        W 9073   5.129   2.884   3.039  0.3225  0.1651 -0.2236
 4874W        W 9074  10.414   9.230   2.535  0.3514 -0.0327  0.0927
 4875W        W 9075   8.437   7.793   1.596  0.2463  0.3922 -0.1200
 4876W        W 9076   6.346   3.758  10.943  0.0062  0.2437 -0.0138
 4877W        W 9077   2.955   0.252   4.114 -0.1262 -0.1232 -0.3367
 4878W        W 9078   8.204   4.287  10.698 -0.0819 -0.1322 -0.0507
 4879W        W 9079   2.727   6.541   2.220  0.0068  0.1079 -0.2006
 4880W        W 9080   3.332   9.715  10.433  0.0025 -0.3721  0.5321
 4881W        W 9081   6.219   5.548   4.628 -0.0815  0.0382 -0.0012
 4882W        W 9082   6.640  10.400  10.883 -0.2304 -0.1130 -0.1205
 4883W        W 9083   7.334   2.320  11.233 -0.2599 -0.0095 -0.1599
 4884W        W 9084   7.990   7.975  12.568  0.0327  0.2363  0.1059
 4885W        W 9085   7.002   7.665   2.467 -0.0788 -0.2835  0.0123
 4886W        W 9086   3.508   9.974   9.519  0.1282 -0.1716 -0.2131
 4887W        W 9087   8.022   0.065   1.827 -0.2150 -0.1819 -0.1003
 4888W        W 9088   8.552   4.158  12.797 -0.2146  0.1769  0.2637
 4889W        W 9089   6.439   5.899  12.386  0.4606  0.2207  0.2471
 4890W        W 9090   6.868   0.377  13.375  0.2575 -0.2418 -0.0411
 4891W        W 9091   9.320   3.063   0.511 -0.2307  0.3845 -0.1536
 4892W        W 9092   1.400   6.502   9.889 -0.1104 -0.1479  0.1949
 4893W        W 9093   1.816   0.985   0.526 -0.2655 -0.0422  0.0779
 4894W        W 9094   6.527   9.245  12.897  0.2108 -0.0640  0.3716
 4895W        W 9095   8.583   0.032  13.413 -0.2004  0.3131 -0.1363
 4896W        W 9096   2.538  10.025   8.901 -0.0741 -0.0470  0.0906
 4897W        W 9097   7.457   2.901  10.212 -0.1828  0.2220  0.0828
 4898W        W 9098   7.357   4.737   2.175 -0.3122 -0.0180 -0.2430
 4899W        W 9099   9.216   9.836   3.721  0.1143  0.2505 -0.1848
 4900W        W 9100   9.891   5.808   3.121  0.0917 -0.0786 -0.3621
 4901W        W 9101   0.793   0.051   2.813 -0.0587 -0.0191  0.0693
 4902W        W 9102   7.504   3.836  12.135 -0.1375  0.0708  0.2522
 4903W        W 9103   4.770   0.420  10.663 -0.0045  0.1527 -0.0865
 4904W        W 9104   5.060   3.978   2.035  0.1515 -0.0089  0.0677
 4905W        W 9105   3.018   2.805   9.943  0.3419 -0.0732  0.0387
 4906W        W 9106   2.935   2.695  12.126  0.1655  0.3483 -0.3430
 4907W        W 9107   6.070   1.318  13.473 -0.1123 -0.0296 -0.0982
 4908W        W 9108   7.077   5.548   1.064  0.0738 -0.1355 -0.1332
 4909W        W 9109   5.215   6.030   2.959 -0.4013 -0.0480 -0.3242
 4910W        W 9110   3.305   0.770  10.410  0.2118  0.0766  0.1582
 4911W        W 9111   0.032   9.252   0.891  0.2749  0.0221 -0.1641
 4912W        W 9112   3.138   3.277   2.236 -0.0957  0.1537 -0.0429
 4913W        W 9113   4.534   9.663   3.495 -0.0839  0.0537  0.0524
 4914W        W 9114   3.059   7.574   1.913 -0.1760  0.2171  0.0039
 4915W        W 9115   2.707   2.811   2.942 -0.1142 -0.0977  0.1866
 4916W        W 9116   3.375   0.302   4.399  0.2502 -0.0311 -0.0313
 4917W        W 9117   5.886   5.595   2.232 -0.0206 -0.0791 -0.3067
 4918W        W 9118   7.030   4.640  11.791  0.1682 -0.4052  0.0835
 4919W        W 9119   9.842   2.578   1.933  0.1884 -0.1853  0.0574
 4920W        W 9120   8.254   6.413   1.814  0.1342 -0.1778  0.3131
 4921W        W 9121   1.483   0.196   3.001  0.1718  0.1150  0.0608
 4922W        W 9122   0.082   0.955   1.608  0.0222 -0.2425 -0.2945
 4923W        W 9123   4.782   4.389   1.684  0.1837  0.0932 -0.1048
 4924W        W 9124   8.943   6.449   5.364  0.0495 -0.3293  0.0931
 4925W        W 9125   4.247   5.355   2.990 -0.0646 -0.2075 -0.0334
 4926W        W 9126   6.637   3.322   1.501  0.0759  0.0897  0.1091
 4927W        W 9127   6.260   6.711   1.501 -0.2272  0.1852  0.2225
 4928W        W 9128   2.364  10.059  11.696  0.0030  0.2546 -0.1369
 4929W        W 9129   8.976   4.379   3.055  0.0313 -0.3223 -0.1206
 4930W        W 9130   7.266   8.197  12.004  0.1858  0.1926  0.0972
 4931W        W 9131   1.150   7.889   4.390 -0.1713 -0.0048  0.0715
 4932W        W 9132   0.319   4.343   2.826  0.0385  0.1735  0.2528
 4933W        W 9133   0.676   7.932  13.295  0.0600  0.2786 -0.5264
 4934W        W 9134   9.658   3.811  10.643  0.1577  0.0953 -0.1488
 4935W        W 9135   0.681   8.788  11.443  0.0036  0.0025  0.2738
 4936W        W 9136   3.020   0.809   1.528  0.1973  0.1195 -0.1773
 4937W        W 9137   9.137   0.767  11.505 -0.1639  0.1695 -0.3685
 4938W        W 9138   2.680  10.453   1.229 -0.3894  0.0623  0.1845
 4939W        W 9139   2.447   7.154   2.648 -0.0587 -0.1758  0.0069
 4940W        W 9140  10.346   6.328   9.789 -0.4266  0.0463 -0.0356
 4941W        W 9141   3.023   3.873   8.925 -0.1673 -0.1410 -0.0328
 4942W        W 9142   3.300  10.169   1.680  0.1762  0.3864  0.1723
 4943W        W 9143   8.528   0.312  11.378  0.0775 -0.1011  0.1658
 4944W        W 9144   2.937   0.005   4.691  0.2445  0.2081  0.1862
 4945W        W 9145   3.405   6.618   3.465 -0.2020  0.2284  0.1271
 4946W        W 9146   4.773   2.662   8.834  0.1799 -0.0221  0.1730
 4947W        W 9147   4.621   4.352  11.198 -0.0982 -0.2556 -0.0396
 4948W        W 9148   6.614   8.803  10.017 -0.0199 -0.0877 -0.0148
 4949W        W 9149   6.072   5.140  13.072 -0.1354  0.0554 -0.1725
 4950W        W 9150  10.209   0.908  12.805 -0.1450 -0.2989 -0.2401
 4951W        W 9151   6.266   7.846   4.340 -0.1626 -0.0464  0.0684
 4952W        W 9152   0.726   8.061  10.926 -0.3473 -0.0843  0.2506
 4953W        W 9153   0.674   5.256   2.307 -0.0169  0.0596 -0.4370
 4954W        W 9154   7.303   6.561  12.183 -0.0487  0.1776  0.2262
 4955W        W 9155   2.963   4.729   1.985 -0.0748 -0.2891 -0.2882
 4956W        W 9156   7.767   3.040  11.628 -0.2660 -0.2037 -0.2256
 4957W        W 9157   9.378   7.516  12.455 -0.0658  0.0787 -0.2821
 4958W        W 9158   5.090   7.544   9.841  0.0448  0.0240  0.0037
 4959W        W 9159   4.516   3.649   4.382 -0.0537  0.0990 -0.1279
 4960W        W 9160   8.573   4.979  13.071  0.0696 -0.0773 -0.0411
 4961W        W 9161   6.010   9.310  13.324  0.0861  0.1101 -0.0644
 4962W        W 9162   0.317   2.324  12.086  0.0531 -0.3929 -0.0908
 4963W        W 9163   1.116   8.648   3.842  0.1161  0.3267  0.0754
 4964W        W 9164   3.025  10.164   2.617  0.1018  0.1262 -0.1880
 4965W        W 9165   8.105   0.559  12.663  0.3100 -0.2086  0.0019
 4966W        W 9166   1.846   8.478   2.277  0.0639 -0.0479  0.1760
 4967W        W 9167   3.757   8.261   0.521  0.3691 -0.0246 -0.1132
 4968W        W 9168   4.454   8.478   0.139  0.2170 -0.0647 -0.3264
 4969W        W 9169  10.352   3.788   0.084 -0.0258 -0.0954  0.0744
 4970W        W 9170   4.462   0.127   2.996  0.3548  0.0790 -0.0310
 4971W        W 9171   4.826   5.790  13.088  0.0124  0.2490 -0.2656
 4972W        W 9172   9.321   6.674  12.587 -0.2167  0.3368  0.0090
 4973W        W 9173   0.586   4.853   0.171 -0.1959  0.1321  0.0150
 4974W        W 9174   6.457   0.104   0.060  0.1878 -0.3581 -0.3609
 4975W        W 9175   7.604   7.081  11.214  0.1883  0.1627 -0.0752
 4976W        W 9176   1.804   6.953   2.340  0.2044  0.5474 -0.0521
 4977W        W 9177   2.179  10.448   9.537  0.1082  0.1464 -0.0748
 4978W        W 9178   4.329   8.318  11.739  0.1678 -0.3649 -0.0703
 4979W        W 9179  10.368   8.766   0.063  0.1074 -0.0346  0.3368
 4980W        W 9180   0.659   3.383  12.601  0.1370  0.0266 -0.1594
 4981W        W 9181   9.952  10.001  12.331  0.2090  0.0424  0.0433
 4982W        W 9182   2.870   2.133   2.282 -0.2224  0.0704  0.0944
 4983W        W 9183   5.471   6.795   1.088 -0.0866 -0.2815  0.0615
 4984W        W 9184   0.540   0.710   2.124  0.4620  0.2096  0.1506
 4985W        W 9185   9.699   7.246   1.335 -0.0715  0.0551 -0.4603
 4986W        W 9186   2.122   5.749  11.455 -0.0084 -0.1062  0.1193
 4987W        W 9187   1.543   4.985  10.165 -0.1187 -0.0698  0.3088
 4988W        W 9188   3.796   3.028  10.133  0.0437 -0.0997 -0.2095
 4989W        W 9189   3.121   5.621   4.375  0.1274 -0.0342  0.1682
 4990W        W 9190   3.961   8.295   0.065 -0.0125  0.3192  0.1192
 4991W        W 9191   0.360   1.256   3.302 -0.1452 -0.0148 -0.2168
 4992W        W 9192   4.943   1.063   9.499 -0.0539 -0.0014  0.0096
 4993W        W 9193   0.721   6.402  12.992 -0.2595 -0.0640  0.0812
 4994W        W 9194   2.878   9.276   3.789  0.1423 -0.2424  0.1468
 4995W        W 9195   6.650   9.837   2.912 -0.0089 -0.2446  0.1135
 4996W        W 9196   9.180   3.363  12.630  0.0737 -0.2888 -0.0903
 4997W        W 9197   7.147  10.456   4.216  0.0670  0.2637  0.1892
 4998W        W 9198   5.710   3.743   5.329 -0.0941 -0.2060 -0.0875
 4999W        W 9199   9.069   3.205   2.038 -0.0098  0.0870  0.3681
 5000W        W 9200   5.417   2.394   8.245 -0.0769 -0.0215  0.0802
 5001W        W 9201   1.023   8.973  10.687 -0.1208  0.1657 -0.0726
 5002W        W 9202   7.427   4.559  12.017 -0.1677  0.0455  0.0267
 5003W        W 9203   7.823   7.444   2.944 -0.2023 -0.1086  0.0951
 5004W        W 9204   7.709   2.307   3.975  0.2051 -0.0685  0.1169
 5005W        W 9205   0.710   1.948   2.660  0.0776 -0.1535 -0.1465
 5006W        W 9206   5.317   8.140   9.819 -0.1731 -0.0618  0.0230
 5007W        W 9207   4.335   0.067  12.491  0.1910 -0.0937  0.1872
 5008W        W 9208   2.277  10.362  12.073  0.1803  0.2349  0.0266
 5009W        W 9209   7.228   9.849   1.864  0.2247  0.0489 -0.2529
 5010W        W 9210   1.366   4.842   2.081  0.1613  0.0337  0.1936
 5011W        W 9211   9.534   0.582  13.020 -0.1131 -0.2409  0.0780
 5012W        W 9212   9.875   3.799  13.052 -0.1472 -0.4003  0.1379
 5013W        W 9213   0.764   4.437   5.004 -0.0355 -0.0561 -0.0901
 5014W        W 9214   3.327   9.233   9.697 -0.2404 -0.1422  0.0537
 5015W        W 9215   2.941   3.927   3.316  0.2949  0.2430 -0.2954
 5016W        W 9216   4.505   7.183   3.393 -0.1643 -0.0957 -0.1459
 5017W        W 9217   8.614   6.232   3.149  0.1495  0.1678 -0.2059
 5018W        W 9218   5.308   9.304   2.354  0.3068 -0.0395  0.2535
 5019W        W 9219   7.838   8.790  11.698  0.1447  0.1210 -0.1118
 5020W        W 9220   4.329   8.808   1.472  0.3224  0.0320 -0.1985
 5021W        W 9221   5.632   4.692  13.253  0.3330 -0.1341 -0.1334
 5022W        W 9222   5.367   4.767  11.315  0.0686  0.0173 -0.0230
 5023W        W 9223   6.396   2.162   8.219  0.1308 -0.0181  0.1503
 5024W        W 9224   9.327   4.665  11.188  0.1831  0.1950  0.0032
 5025W        W 9225   5.372   3.534   3.845  0.0583 -0.1743 -0.2691
 5026W        W 9226   5.357   5.303  11.775 -0.0473 -0.1208  0.2329
 5027W        W 9227   4.775  10.044   1.676 -0.1490  0.1813 -0.1608
 5028W        W 9228   2.167   4.673  11.890  0.4561 -0.2430  0.2159
 5029W        W 9229   4.946   4.642   2.092 -0.2068 -0.0633  0.1924
 5030W        W 9230   5.507   0.531  10.023  0.0710 -0.0945 -0.0831
 5031W        W 9231   9.185   8.484  12.986 -0.4619 -0.0678  0.2518
 5032W        W 9232   1.747   8.777   3.466  0.2136  0.1526 -0.1427
 5033W        W 9233   6.082  10.152   1.093  0.1848  0.1554 -0.1338
 5034W        W 9234   4.422   0.189   0.531  0.2353  0.0246  0.3026
 5035W        W 9235   2.318   6.681  12.044  0.1354 -0.0900  0.0217
 5036W        W 9236   1.870   5.745   4.201  0.1229  0.0753  0.1947
 5037W        W 9237   4.196   4.048   3.574 -0.1221 -0.2877  0.0492
 5038W        W 9238   0.354   8.403   9.170 -0.1731 -0.1776 -0.1050
 5039W        W 9239   7.221   4.451   4.259 -0.0378 -0.0113 -0.1327
 5040W        W 9240   6.869   0.716   9.391 -0.0839  0.0447  0.3555
 5041W        W 9241   5.119   2.383  12.194  0.1104 -0.1119  0.0036
 5042W        W 9242   8.928   8.465  12.569  0.1004  0.1279  0.4968
 5043W        W 9243   4.691   2.842  10.850 -0.4213 -0.1481 -0.1575
 5044W        W 9244   4.499   8.398   4.019 -0.0506 -0.2169 -0.0383
 5045W        W 9245   9.789   4.542  11.435  0.0762  0.1255  0.0378
 5046W        W 9246   8.834   6.578   2.109 -0.2851  0.1876 -0.0246
 5047W        W 9247  10.409   5.761   1.874  0.1084  0.0113 -0.0448
 5048W        W 9248   4.081   2.169   3.070 -0.0864 -0.2329  0.0032
 5049W        W 9249   4.112   5.182   0.071  0.0941  0.2454  0.2308
 5050W        W 9250   6.870   4.572  11.040 -0.1346 -0.0918 -0.2874
 5051W        W 9251   5.757   9.258  11.622 -0.0440 -0.2050 -0.1993
 5052W        W 9252   7.854   1.132  10.268  0.0359 -0.1568 -0.0483
 5053W        W 9253   2.022   9.697   2.801 -0.1554 -0.1188 -0.5391
 5054W        W 9254   1.461   0.180   1.150 -0.3611 -0.2230  0.0530
 5055W        W 9255   8.380   1.120  11.206 -0.0646  0.5334 -0.1206
 5056W        W 9256   9.038   0.957  10.207 -0.2818 -0.0036  0.0168
 5057W        W 9257   9.555   9.790   0.073 -0.0826 -0.1624 -0.2258
 5058W        W 9258   6.671   6.058  11.602  0.0812  0.0510  0.0504
 5059W        W 9259   5.203   4.381  11.882  0.1495 -0.0190 -0.1787
 5060W        W 9260   3.823   6.371   4.148 -0.0843  0.0361 -0.0883
 5061W        W 9261   2.975  10.275   2.120  0.1376  0.1294  0.0460
 5062W        W 9262   5.305   4.958   0.377 -0.1698 -0.0378  0.2165
 5063W        W 9263   1.173  10.393   3.259 -0.5062 -0.0905 -0.0551
 5064W        W 9264   9.165   7.924   0.461  0.2007 -0.1544  0.0573
 5065W        W 9265   4.100   8.777   1.031  0.2991 -0.2244 -0.0349
 5066W        W 9266  10.451   3.886   2.893  0.0195  0.1420  0.0613
 5067W        W 9267   8.789   7.517   0.311  0.1483 -0.1527  0.0789
 5068W        W 9268   0.345  10.277   0.750 -0.1509  0.0657 -0.0792
 5069W        W 9269   8.694   3.265   1.218  0.0540 -0.1779 -0.3518
 5070W        W 9270   0.517   5.198  12.303  0.1738 -0.2627  0.2882
 5071W        W 9271   0.313   4.983   2.728  0.2725  0.2783  0.1571
 5072W        W 9272   6.438   7.495   1.832 -0.1168  0.0089 -0.0023
 5073W        W 9273   7.929   8.833   4.322  0.2850 -0.0335 -0.1486
 5074W        W 9274   9.313   6.715  10.597 -0.1254 -0.2067  0.1629
 5075W        W 9275   0.307   3.418  11.388  0.1511  0.0165 -0.1314
 5076W        W 9276   4.599   6.245   3.681 -0.1807  0.0312  0.0500
 5077W        W 9277   3.292   0.766   3.458 -0.2014  0.2000 -0.2803
 5078W        W 9278   4.793   0.403   2.759 -0.1712  0.2598  0.0710
 5079W        W 9279   3.934   2.508  10.431 -0.0704 -0.0511 -0.0086
 5080W        W 9280   4.373   1.113  10.055 -0.1382 -0.3223 -0.2180
 5081W        W 9281  10.419   1.577   0.830  0.0618 -0.0890 -0.4593
 5082W        W 9282   0.999   8.051  11.332 -0.1323 -0.4996  0.1235
 5083W        W 9283  10.400   2.191   0.371 -0.1399 -0.0708  0.3678
 5084W        W 9284   2.915   5.387   1.565 -0.4529 -0.1994 -0.0775
 5085W        W 9285   8.513   1.934   0.692 -0.2060 -0.0882  0.1393
 5086W        W 9286   1.924   7.641   4.751  0.0133  0.1788 -0.1368
 5087W        W 9287   1.104   7.930   9.536  0.1591 -0.1238 -0.1536
 5088W        W 9288   4.777   3.897   1.048  0.1576  0.0359 -0.1122
 5089W        W 9289   2.327   1.981   0.458 -0.1407  0.3164  0.1283
 5090W        W 9290   8.630   3.083   0.081 -0.0002 -0.0758 -0.1564
 5091W        W 9291   2.472   2.817   0.664  0.1787  0.3516 -0.2811
 5092W        W 9292   5.083   4.232   9.734 -0.1809 -0.2038 -0.1179
 5093W        W 9293   4.447   8.625   9.507 -0.1632  0.0190 -0.0902
 5094W        W 9294   8.750   7.042  11.962  0.0845  0.0536  0.1137
 5095W        W 9295   8.766   8.072   3.501  0.1013 -0.1635  0.1525
 5096W        W 9296   3.960   5.033   1.395  0.1054  0.0294 -0.2554
 5097W        W 9297   7.063   0.638  11.352  0.0621  0.1035  0.1685
 5098W        W 9298   2.003   6.120   9.555 -0.1120 -0.1189 -0.1980
 5099W        W 9299   7.550   1.421   4.303 -0.1481 -0.3556  0.1468
 5100W        W 9300   7.446   7.263   3.872  0.6100 -0.0242 -0.1332
 5101W        W 9301   1.552  10.158  10.307 -0.3535 -0.0557  0.1504
 5102W        W 9302   7.957   3.674   0.927  0.0609  0.1658  0.4122
 5103W        W 9303   0.053   9.810   0.705  0.0791  0.1889 -0.0446
 5104W        W 9304   0.134   0.946  10.033 -0.0561 -0.0368  0.1530
 5105W        W 9305   5.298   7.049  13.239  0.0005  0.1403  0.3266
 5106W        W 9306   2.290   5.634   9.938 -0.1385  0.2102  0.0383
 5107W        W 9307   6.021   3.849   4.291  0.2082 -0.1281 -0.1692
 5108W        W 9308   0.342   4.336  10.170  0.3232 -0.2356  0.2476
 5109W        W 9309   0.164   7.708  11.950 -0.1730  0.1183 -0.4035
 5110W        W 9310   2.535   8.513   4.315 -0.3447  0.1626  0.1537
 5111W        W 9311   7.878   9.216  11.388  0.2171  0.2300 -0.1732
 5112W        W 9312   3.234   4.587   2.894 -0.1036  0.0917  0.1062
 5113W        W 9313   6.482   1.086   0.108  0.2429 -0.0026 -0.1304
 5114W        W 9314   5.187   3.987   1.505  0.0431 -0.1155  0.2489
 5115W        W 9315   6.306   3.946   9.043 -0.0169 -0.0203 -0.3389
 5116W        W 9316   7.571   8.317   3.144  0.0311  0.2001  0.4286
 5117W        W 9317   1.086   8.544  11.719  0.0080 -0.4201 -0.0542
 5118W        W 9318   5.048   8.195  12.772  0.1042 -0.3439  0.0191
 5119W        W 9319   3.687   8.084   1.506  0.3000 -0.2834  0.0084
 5120W        W 9320   5.009   6.415   3.525  0.2344  0.0690  0.4388
 5121W        W 9321   1.286   9.013   1.090 -0.2225  0.3530 -0.0832
 5122W        W 9322   3.869   7.591   1.754  0.0161  0.2243 -0.0531
 5123W        W 9323   3.934   8.202   9.397  0.0111  0.0421  0.0248
 5124W        W 9324   8.932   7.506  10.200 -0.0979  0.1135  0.0234
 5125W        W 9325   2.878   7.510   2.837  0.4045 -0.3585  0.1253
 5126W        W 9326   0.861   5.099  11.873 -0.0374  0.1353 -0.4345
 5127W        W 9327   0.971   6.602   4.697 -0.0264 -0.1336  0.0418
 5128W        W 9328   9.978   7.127  13.199  0.0541 -0.4226  0.0650
 5129W        W 9329   7.715   7.815   0.948 -0.2558  0.4105  0.1189
 5130W        W 9330   0.117   8.861  11.346  0.2672  0.0486 -0.1461
 5131W        W 9331   5.349  10.301   3.708  0.0637  0.2483 -0.1736
 5132W        W 9332   6.755   5.408  12.863  0.2033  0.0628 -0.1462
 5133W        W 9333   6.408   9.144   3.986  0.2042 -0.5013 -0.0227
 5134W        W 9334   3.323   5.999   4.576  0.2529 -0.0528  0.0608
 5135W        W 9335   9.052   5.507   1.815 -0.0315  0.1257  0.2288
 5136W        W 9336   3.701   7.054   9.110 -0.0711 -0.4408 -0.0101
 5137W        W 9337   4.980   2.694   0.271 -0.0779  0.0964  0.1271
 5138W        W 9338  10.166   3.764  10.743 -0.0550  0.3823 -0.0476
 5139W        W 9339   3.107   9.830  11.891 -0.0463  0.1339 -0.0571
 5140W        W 9340   8.029  10.350   4.064 -0.0313 -0.1412 -0.1076
 5141W        W 9341   8.313   8.832   3.187 -0.3240 -0.1673  0.1921
 5142W        W 9342   7.141   9.620  12.970  0.0924 -0.0234 -0.2296
 5143W        W 9343   2.582   6.726   2.843  0.2154 -0.2507  0.0500
 5144W        W 9344   5.954   2.972   0.834  0.1652 -0.1017  0.0671
 5145W        W 9345   2.637   0.838   0.080  0.1965 -0.1606  0.1598
 5146W        W 9346   4.059  10.348   0.790  0.0226  0.0991  0.1907
 5147W        W 9347   4.305   0.430   3.948 -0.0669 -0.0577  0.0134
 5148W        W 9348   9.926   0.298   1.454 -0.3339  0.0732  0.1929
 5149W        W 9349   8.963   6.748   3.811 -0.0334  0.3902 -0.1282
 5150W        W 9350   3.692   9.352  11.440  0.0427  0.1234  0.0799
 5151W        W 9351   1.502   8.544  12.498 -0.1504 -0.0276 -0.2713
 5152W        W 9352   3.674   9.528   4.239  0.0246  0.3153 -0.0636
 5153W        W 9353   6.894   4.002   0.886 -0.4392 -0.1675  0.0509
 5154W        W 9354   9.130   8.853   8.987  0.2089 -0.2875  0.0281
 5155W        W 9355   9.128   1.836   2.793 -0.0613 -0.2924 -0.2256
 5156W        W 9356   4.197   2.670   2.915  0.1351  0.1694  0.2036
 5157W        W 9357   2.561   5.081  12.998 -0.0892 -0.4911 -0.0514
 5158W        W 9358   6.585   3.970   3.625 -0.2804 -0.0826 -0.0952
 5159W        W 9359   6.035   9.441   9.413 -0.1899 -0.0053 -0.0712
 5160W        W 9360   1.092   8.279   9.925 -0.0950  0.0834  0.2010
 5161W        W 9361   4.435   1.685  10.032 -0.2164  0.2028  0.0276
 5162W        W 9362   1.961   3.525   1.391 -0.1597 -0.1468 -0.0534
 5163W        W 9363   0.956  10.029  11.977 -0.2460  0.2689 -0.3929
 5164W        W 9364   5.604   4.640  10.369 -0.0896  0.0308  0.2168
 5165W        W 9365   4.094   1.778   2.677  0.0554  0.0371 -0.2166
 5166W        W 9366   8.124   5.941   1.878  0.0648  0.1529 -0.0332
 5167W        W 9367   4.508   5.476   0.454  0.0998  0.1579 -0.3519
 5168W        W 9368   7.885   4.036   8.906  0.0882 -0.3916  0.0134
 5169W        W 9369   5.665   0.186  11.632  0.0596  0.0943  0.0163
 5170W        W 9370   2.641   7.650   0.042 -0.0775  0.0618 -0.1304
 5171W        W 9371   4.349   3.789  10.078 -0.0213 -0.3451  0.2324
 5172W        W 9372  10.242   0.237   2.117  0.3504  0.1130 -0.2073
 5173W        W 9373   9.822   1.406   1.631 -0.3572 -0.0438  0.0518
 5174W        W 9374   1.968   4.828   9.567 -0.0615 -0.0231 -0.0331
 5175W        W 9375   1.163   0.306   4.022 -0.1227 -0.1020 -0.1997
 5176W        W 9376   8.773   3.497   3.724 -0.1684  0.2270  0.0973
 5177W        W 9377   8.262   4.198   0.952  0.2666  0.1540  0.1481
 5178W        W 9378   7.806   0.768   1.346 -0.1424 -0.0743 -0.1131
 5179W        W 9379   2.754   6.050   9.628 -0.3781 -0.2000  0.1830
 5180W        W 9380   5.065   3.605   9.041 -0.2431 -0.1246  0.3720
 5181W        W 9381   0.961   6.579   1.353  0.0751  0.1331  0.1815
 5182W        W 9382   1.977   1.963   0.885 -0.1484  0.1838  0.0977
 5183W        W 9383   6.965   3.876   9.662 -0.0223 -0.2567 -0.0571
 5184W        W 9384   5.701   9.005   1.131 -0.1677 -0.2558  0.2934
 5185W        W 9385  10.454   9.990  12.270 -0.0188 -0.0345 -0.3432
 5186W        W 9386   8.581   3.023   4.482 -0.1232 -0.1862 -0.0550
 5187W        W 9387   1.066   4.132   3.729 -0.0906  0.1334  0.0920
 5188W        W 9388   4.047   8.727  11.597  0.1920  0.1406 -0.2757
 5189W        W 9389   6.546   4.352  13.002  0.1102  0.0261  0.2950
 5190W        W 9390   6.439   7.636  10.019  0.1584 -0.3116  0.3103
 5191W        W 9391   4.945   4.629   0.383  0.2189  0.4492 -0.0021
 5192W        W 9392   2.117   2.287  12.414 -0.2904 -0.1110  0.0291
 5193W        W 9393   2.129   5.361   1.718  0.1434  0.2837  0.0278
 5194W        W 9394   6.009   3.585   2.627 -0.0305 -0.0223  0.2603
 5195W        W 9395   7.631   7.795  12.251  0.0016 -0.3657 -0.4360
 5196W        W 9396   2.883   7.797  12.833  0.1893 -0.3005  0.1430
 5197W        W 9397   2.529   8.869   0.596 -0.0098 -0.0628 -0.1550
 5198W        W 9398   2.856   4.381   9.934 -0.1928  0.1045  0.2574
 5199W        W 9399   3.997   8.434   2.339  0.1863  0.3930 -0.0629
 5200W        W 9400  10.428   3.767  13.030 -0.0595 -0.2119  0.0191
 5201W        W 9401   6.379   5.277   1.016  0.4597 -0.1375 -0.4143
 5202W        W 9402   8.000   8.645  10.360 -0.0055  0.0925 -0.2500
 5203W        W 9403   8.182   1.528  10.395  0.2705 -0.3070 -0.1055
 5204W        W 9404   4.224   2.382   0.900  0.1796 -0.1208  0.2621
 5205W        W 9405   0.561   3.673  10.339  0.1195 -0.1547 -0.1290
 5206W        W 9406   0.568   4.409   3.553  0.1348  0.2814 -0.2299
 5207W        W 9407   1.907   3.919  13.379 -0.0696  0.2286 -0.0432
 5208W        W 9408   1.740   0.038   0.261  0.1959 -0.0412  0.1252
 5209W        W 9409   8.098   5.829  13.418 -0.0513 -0.0440 -0.0705
 5210W        W 9410   5.887   3.043  12.809  0.1913  0.0485  0.0700
 5211W        W 9411   6.487   4.244  10.091 -0.0050  0.0112  0.0262
 5212W        W 9412   3.998   7.915   3.315  0.1685  0.2192  0.0649
 5213W        W 9413   4.893   8.743   4.058  0.1048  0.3813  0.0026
 5214W        W 9414   4.570   1.565   2.324 -0.3392 -0.4107 -0.0570
 5215W        W 9415   9.577   2.183   0.263  0.2636 -0.2629  0.3077
 5216W        W 9416   8.956   7.697  11.483  0.1186  0.0614 -0.0960
 5217W        W 9417   9.838   3.762   3.118 -0.2662  0.4684 -0.1343
 5218W        W 9418   9.664   8.962  12.139  0.2367  0.2553 -0.0606
 5219W        W 9419  10.174   6.962  11.382 -0.0754 -0.3767 -0.0881
 5220W        W 9420   4.952   2.714   9.590  0.2561 -0.0457 -0.1580
 5221W        W 9421   0.589   7.482  13.111 -0.0311  0.1469 -0.0155
 5222W        W 9422   5.406   2.566   1.640 -0.0237 -0.2304  0.0590
 5223W        W 9423   1.255   4.576  10.220  0.1611  0.1551  0.1249
 5224W        W 9424   4.828   6.597  10.089 -0.0264 -0.2010  0.1466
 5225W        W 9425   0.239   8.232  10.073  0.1458  0.0647  0.1758
 5226W        W 9426   1.493   4.386   3.862 -0.0946  0.0290 -0.3131
 5227W        W 9427   2.722   4.801   3.764 -0.1132  0.0166 -0.1497
 5228W        W 9428   2.579   8.039  11.683  0.0798 -0.3627 -0.0235
 5229W        W 9429   0.229   1.138   2.135  0.1491  0.3813 -0.1621
 5230W        W 9430   7.733   0.658  10.440 -0.1193 -0.0460  0.1998
 5231W        W 9431   2.381   7.240  10.394 -0.0706  0.2260  0.0920
 5232W        W 9432   6.339   4.820  11.078  0.3404  0.2830  0.0471
 5233W        W 9433   9.563   9.417  11.856 -0.1798 -0.2702  0.3122
 5234W        W 9434   5.711   7.199   9.420 -0.0958 -0.1405 -0.0749
 5235W        W 9435   3.890   4.982   3.781  0.0053  0.2707 -0.2725
 5236W        W 9436   2.209   4.909   2.096 -0.0723  0.2278  0.0435
 5237W        W 9437   0.147   0.316   0.841  0.0603 -0.3323  0.0525
 5238W        W 9438   0.987   8.640   0.203  0.0352  0.2446  0.0543
 5239W        W 9439   6.482   4.487   3.627  0.3971 -0.0539  0.0099
 5240W        W 9440   9.023  10.351  10.696  0.1538  0.1416  0.5322
 5241W        W 9441  10.451   0.681  11.661 -0.0694 -0.0082  0.0594
 5242W        W 9442   4.675   7.965   8.940 -0.1611 -0.2061 -0.1972
 5243W        W 9443  10.035   6.644  12.234  0.1405 -0.0977  0.0613
 5244W        W 9444  10.394   6.855  11.822 -0.3587 -0.2334  0.0077
 5245W        W 9445   4.412   2.710   9.246 -0.2250  0.1964 -0.1615
 5246W        W 9446   5.324   5.423  10.882 -0.0228  0.3434  0.0236
 5247W        W 9447   7.678   5.617   0.036  0.0447 -0.1761 -0.3219
 5248W        W 9448   2.509  10.459  12.535 -0.2357 -0.0182 -0.0737
 5249W        W 9449   3.488   9.676   9.125  0.0892 -0.1512 -0.4115
 5250W        W 9450   2.365   9.249  12.928 -0.3836 -0.3964 -0.3975
 5251W        W 9451   4.103   0.204   1.678  0.0895  0.2391  0.1139
 5252W        W 9452   4.832   5.524  11.659  0.0758  0.4627 -0.1767
 5253W        W 9453   7.314   9.010   0.358  0.2905 -0.3376 -0.1107
 5254W        W 9454   0.606   0.205   0.594 -0.0725 -0.0499  0.2413
 5255W        W 9455   0.193   8.513   1.855  0.0912 -0.0642 -0.0948
 5256W        W 9456   5.689   0.520   2.989  0.0592  0.2209 -0.0470
 5257W        W 9457   1.829   4.534   9.983 -0.5409 -0.1697 -0.3183
 5258W        W 9458   9.860   4.636   4.801  0.2164  0.0711 -0.0835
 5259W        W 9459   0.770   6.943  13.001  0.0075 -0.1554 -0.4596
 5260W        W 9460   8.417   9.316   3.010  0.1004  0.2951  0.3044
 5261W        W 9461   6.259   4.671   1.533  0.0243 -0.0483  0.1228
 5262W        W 9462   1.477   3.412   4.179 -0.1968 -0.0927  0.0741
 5263W        W 9463   8.698   5.271   3.381  0.1289  0.0357  0.0168
 5264W        W 9464   7.519   1.502   1.914 -0.0158  0.4341 -0.0666
 5265W        W 9465   6.217   1.385   9.852  0.2660  0.1411 -0.1545
 5266W        W 9466   7.366   0.944  10.630  0.0725 -0.0892  0.1041
 5267W        W 9467   8.122   8.474   2.467 -0.0579  0.0166 -0.0927
 5268W        W 9468   0.227   1.997  11.607  0.0010  0.3306 -0.2552
 5269W        W 9469   3.586   6.355  11.437 -0.0241  0.0397 -0.2216
 5270W        W 9470   2.863   1.879   9.732 -0.2498  0.0778 -0.0206
 5271W        W 9471   9.279   2.876  12.432  0.1418 -0.0788  0.2176
 5272W        W 9472   3.777   5.856   2.019 -0.2111 -0.0357  0.1187
 5273W        W 9473   9.413   3.247  11.510  0.0215 -0.3859  0.0916
 5274W        W 9474   1.235   1.126   0.074 -0.0890  0.2796 -0.1282
 5275W        W 9475   0.964   5.243   3.671 -0.1091 -0.3561  0.0020
 5276W        W 9476   3.492   9.832  13.185 -0.1688  0.0702 -0.1196
 5277W        W 9477   2.552   0.832   2.982 -0.0022 -0.1347  0.3133
 5278W        W 9478   0.387   8.279  10.608 -0.0021  0.0269  0.0179
 5279W        W 9479   8.805   9.431   2.055 -0.0859 -0.1940 -0.0631
 5280W        W 9480   8.032   6.261  10.157  0.2508 -0.2370 -0.2140
 5281W        W 9481   8.782   2.799   1.954  0.1752 -0.0924 -0.1974
 5282W        W 9482   1.893   6.839   8.878 -0.1510  0.2409  0.1094
 5283W        W 9483   6.713   8.704   3.208 -0.1147 -0.1482  0.2362
 5284W        W 9484   7.219   1.001   2.903  0.0727  0.1988  0.2145
 5285W        W 9485   5.251   9.995   8.747 -0.0962 -0.0631  0.2345
 5286W        W 9486   2.254   7.225   9.802  0.0289 -0.0319 -0.0006
 5287W        W 9487   4.015   3.255   1.240 -0.0421  0.0415  0.2127
 5288W        W 9488   7.067   4.494  10.568  0.4168 -0.1969  0.1648
 5289W        W 9489   6.017   1.747  10.715  0.2718  0.4053  0.1012
 5290W        W 9490   0.633   4.086   3.953 -0.1391  0.0883  0.1332
 5291W        W 9491   8.449   4.130   3.196 -0.0908 -0.0902 -0.4457
 5292W        W 9492   3.992   0.644   1.370 -0.0582  0.1041 -0.3621
 5293W        W 9493   1.527   9.570   9.622  0.2855 -0.1250  0.1857
 5294W        W 9494   0.004   8.837   3.840 -0.1564 -0.0591 -0.0468
 5295W        W 9495   7.031   9.941  13.298 -0.0670 -0.1822  0.4259
 5296W        W 9496   3.628   4.680  11.038  0.0705 -0.1514 -0.5079
 5297W        W 9497   1.842   6.139  10.693 -0.0396  0.0333  0.1705
 5298W        W 9498   0.159   2.111  10.059  0.0587  0.0878 -0.1691
 5299W        W 9499   1.538   3.111  13.398  0.0552  0.4165  0.1667
 5300W        W 9500   2.634   6.887   1.872 -0.0809 -0.3984 -0.2008
 5301W        W 9501   9.758   0.258  10.236  0.1592  0.0138 -0.2908
 5302W        W 9502   4.805   0.268  10.216  0.1448  0.1255  0.0574
 5303W        W 9503   7.861   9.927  12.480 -0.1277 -0.1683 -0.0387
 5304W        W 9504   4.432   3.080   9.688  0.1232  0.0024 -0.1462
 5305W        W 9505   5.172   2.343   1.267  0.2859 -0.0747 -0.3323
 5306W        W 9506   8.464   2.171  13.351  0.2421 -0.0617 -0.0282
 5307W        W 9507   8.432   5.696   2.440 -0.0194 -0.1458  0.2268
 5308W        W 9508   8.316   7.906   0.432 -0.0891 -0.1929 -0.2734
 5309W        W 9509   2.220   8.509   4.694  0.0730  0.0833 -0.2870
 5310W        W 9510   6.569   1.762   1.175 -0.3897 -0.1570  0.1101
 5311W        W 9511   8.675   5.085   4.878 -0.0632  0.2380  0.4556
 5312W        W 9512   9.549  10.353  13.495 -0.0203  0.1462 -0.1231
 5313W        W 9513   5.792   8.070  10.015 -0.0705 -0.0609  0.2575
 5314W        W 9514   1.074   2.749   3.800 -0.1734  0.2371  0.3444
 5315W        W 9515   7.047   1.264   2.065  0.3410  0.3706  0.0402
 5316W        W 9516   6.819   0.856   1.939 -0.3482 -0.1782 -0.0033
 5317W        W 9517   6.424   6.948   2.791  0.3875 -0.2131 -0.1225
 5318W        W 9518   4.838   5.390  10.827 -0.1268 -0.2600  0.0137
 5319W        W 9519   7.549   7.321  11.661 -0.1416 -0.2010  0.0285
 5320W        W 9520   7.949   6.067   3.962  0.2401 -0.2733  0.0634
 5321W        W 9521   5.019   6.103  13.440  0.2206  0.0012  0.1773
 5322W        W 9522   6.731   4.288   1.279 -0.0275  0.2551  0.1666
 5323W        W 9523   5.308   5.987  12.420 -0.0158 -0.2412  0.0535
 5324W        W 9524   8.540   1.516  11.379  0.0948  0.1488 -0.4683
 5325W        W 9525  10.464   0.229  10.857  0.2010 -0.0136  0.1632
 5326W        W 9526   1.224   6.092   4.713 -0.0812 -0.0620 -0.1300
 5327W        W 9527   2.333   3.750  13.306 -0.1585 -0.1126 -0.2719
 5328W        W 9528   4.488   0.686  11.059 -0.1619  0.1123 -0.0798
 5329W        W 9529   6.727   5.797  11.174 -0.1592  0.1507  0.1544
 5330W        W 9530   3.227   3.798   2.177 -0.4477 -0.0945  0.0293
 5331W        W 9531   6.164   6.450   2.984  0.1709 -0.0770 -0.0067
 5332W        W 9532   7.816   1.781   1.285  0.3495  0.1383  0.2722
 5333W        W 9533   9.176   6.110  11.756  0.0083 -0.0289  0.1505
 5334W        W 9534   5.104   9.293   4.991  0.0957  0.1184 -0.1882
 5335W        W 9535   9.975   5.320   3.038 -0.0204  0.0187  0.0878
 5336W        W 9536   1.217   2.645   0.664  0.0621 -0.0153  0.0433
 5337W        W 9537   4.905   5.454   4.049  0.2818  0.1182  0.0488
 5338W        W 9538   6.877   0.738   9.861 -0.1571 -0.2327 -0.1010
 5339W        W 9539   3.616   9.193   9.271  0.1634 -0.0385  0.1136
 5340W        W 9540   9.657  10.130   1.853  0.0446  0.0944 -0.1525
 5341W        W 9541   2.265   6.737   1.487 -0.1610 -0.0424 -0.0838
 5342W        W 9542  10.305   7.396   4.440 -0.0276  0.1526 -0.4216
 5343W        W 9543  10.296   4.093   1.112  0.2984  0.3707  0.0839
 5344W        W 9544   5.926   5.942   3.013  0.1902 -0.0609 -0.2870
 5345W        W 9545   3.996   0.779  10.177  0.1357 -0.0439 -0.1973
 5346W        W 9546   9.991   0.667  11.882 -0.2072  0.1346 -0.0965
 5347W        W 9547   9.692   2.208   1.228 -0.1855  0.4066 -0.1556
 5348W        W 9548   4.321   4.354  10.108  0.1799  0.1480 -0.1463
 5349W        W 9549   2.119   3.198   1.046 -0.0448  0.0452 -0.2378
 5350W        W 9550   2.986   3.859  10.812  0.0251 -0.0617 -0.0428
 5351W        W 9551   8.483   1.811  13.017 -0.1109 -0.1913  0.2619
 5352W        W 9552   6.291   0.290  11.846 -0.0660 -0.1716  0.2574
 5353W        W 9553   7.784   3.335   8.760  0.1348  0.0713 -0.1295
 5354W        W 9554   2.551   9.391   0.418 -0.1007 -0.4016  0.1033
 5355W        W 9555   8.675   0.353   1.379  0.1318 -0.0654 -0.1522
 5356W        W 9556   8.064   0.706   0.702 -0.0291 -0.0725  0.2491
 5357W        W 9557   4.730   2.795   4.001  0.3483  0.2799 -0.0292
 5358W        W 9558   0.806   6.063   0.066  0.1440  0.0155  0.4042
 5359W        W 9559   6.061   8.282   3.990  0.1109  0.0989 -0.1130
 5360W        W 9560   2.660   4.886  11.231  0.1023 -0.0138  0.4510
 5361W        W 9561   8.902   6.942  10.685  0.1062 -0.0691 -0.1933
 5362W        W 9562   5.827   0.757   7.943 -0.1657  0.1325 -0.1259
 5363W        W 9563   0.160   1.192  12.124 -0.0473  0.0451  0.0629
 5364W        W 9564   2.441   9.076   1.335 -0.0277  0.3714  0.0276
 5365W        W 9565  10.397   0.026   1.286  0.0413 -0.2472 -0.0105
 5366W        W 9566   3.859   4.690  11.823 -0.0639  0.0427  0.1191
 5367W        W 9567  10.108   7.904   2.571  0.1415  0.0856 -0.0129
 5368W        W 9568   0.115   1.534  11.342 -0.2496 -0.0197 -0.0797
 5369W        W 9569   8.084  10.153  10.260 -0.2423  0.4132  0.1685
 5370W        W 9570   3.505   9.530  12.011  0.0857 -0.0688 -0.1130
 5371W        W 9571   6.912   7.056   2.648  0.0295 -0.0083 -0.0469
 5372W        W 9572   4.458   4.750   1.436  0.3497  0.1547  0.3168
 5373W        W 9573   6.149   7.977   3.264  0.0564  0.0257  0.0821
 5374W        W 9574   0.855   7.758   3.956 -0.1398  0.3562  0.0388
 5375W        W 9575   5.332   1.317   2.539 -0.2078  0.1639  0.2565
 5376W        W 9576   7.478   2.010   4.288 -0.0962  0.1497  0.0583
 5377W        W 9577   4.285   3.984  11.843  0.2070  0.0633  0.0507
 5378W        W 9578   1.306   4.009  10.840  0.0143 -0.2372 -0.1685
 5379W        W 9579   4.894   4.477   3.943  0.0162 -0.0132  0.1277
 5380W        W 9580   5.513   0.128  10.974  0.3068 -0.0775 -0.0322
 5381W        W 9581   9.219   7.278   9.340 -0.0658  0.0523 -0.0592
 5382W        W 9582   4.604   8.238   3.067 -0.1320  0.0655 -0.1876
 5383W        W 9583   1.951   2.885   1.387 -0.3666 -0.0746  0.0314
 5384W        W 9584   8.110   7.287  10.402  0.0020  0.1432  0.1899
 5385W        W 9585   0.775   9.273  12.630 -0.3978 -0.2315  0.2722
 5386W        W 9586   7.374   1.749  11.890 -0.1818 -0.0885 -0.3732
 5387W        W 9587   6.029   5.279   2.561 -0.0562  0.0657 -0.2247
 5388W        W 9588   3.504   7.018   9.642 -0.1597  0.0028 -0.0415
 5389W        W 9589   6.887   1.222  10.397  0.1934 -0.2286 -0.1870
 5390W        W 9590   9.039   4.761   2.623  0.2347  0.2338 -0.0945
 5391W        W 9591   2.535   4.671   2.847  0.0724 -0.1179  0.1060
 5392W        W 9592   5.133   0.552  11.025 -0.2464 -0.0398  0.0137
 5393W        W 9593   7.859  10.239   2.922 -0.1759  0.4353 -0.1411
 5394W        W 9594   4.014   4.651   0.154  0.1847 -0.0639  0.4092
 5395W        W 9595   3.090   3.701   9.759  0.2820  0.0865 -0.0560
 5396W        W 9596   3.820   9.814  12.838  0.2092  0.0524  0.1384
 5397W        W 9597   2.385  10.403   0.832  0.0007  0.0878  0.1131
 5398W        W 9598   8.426   6.522   0.822 -0.1218 -0.0340  0.2773
 5399W        W 9599   7.299   9.199  11.358  0.2019 -0.0257 -0.3637
 5400W        W 9600   9.186   8.634  12.078 -0.4543 -0.1381  0.0370
 5401W        W 9601   3.982   6.824  13.319  0.1322  0.0254 -0.0197
 5402W        W 9602   2.044   8.061  10.266 -0.4197 -0.2362  0.2196
 5403W        W 9603   3.517   6.164  10.467 -0.4856 -0.0476 -0.0585
 5404W        W 9604   8.212   3.193   9.031  0.1820 -0.1491 -0.4148
 5405W        W 9605   5.481   3.649   2.513  0.0504 -0.1145  0.1704
 5406W        W 9606   4.771   3.034   0.772  0.0880  0.1403  0.3179
 5407W        W 9607   2.380   7.015   5.549 -0.1081 -0.0903 -0.0415
 5408W        W 9608   0.454   7.278   2.647  0.2585  0.3342  0.0718
 5409W        W 9609   8.361   7.129  10.006 -0.0890  0.0501  0.0478
 5410W        W 9610   5.004   7.553   1.714 -0.2861 -0.0508  0.1525
 5411W        W 9611   6.218   3.130   2.359 -0.3658  0.2905  0.0944
 5412W        W 9612   4.637   6.983  11.786  0.0729 -0.1321 -0.1704
 5413W        W 9613   9.857   4.762   3.122 -0.1663 -0.1040 -0.0547
 5414W        W 9614   7.436   4.506  11.427  0.0994 -0.2914 -0.1024
 5415W        W 9615   1.833   8.040   0.945  0.0416 -0.2717 -0.0455
 5416W        W 9616   2.641   0.861  11.100 -0.2721 -0.1932 -0.2218
 5417W        W 9617  10.056   3.100   1.778  0.0126  0.1366  0.3857
 5418W        W 9618   9.665   3.994   1.281  0.0484 -0.4066  0.0515
 5419W        W 9619   4.274  10.181   1.568  0.0335 -0.2889 -0.2987
 5420W        W 9620   2.786   3.419  11.595  0.1597 -0.1792  0.0683
 5421W        W 9621   9.116   2.117   3.657  0.0905  0.1749  0.1094
 5422W        W 9622   4.632   9.457  13.241 -0.1295  0.1265 -0.2026
 5423W        W 9623   2.327   5.379   3.513 -0.0712 -0.0979  0.2952
 5424W        W 9624   2.293   5.800   1.878 -0.1464  0.1975 -0.0135
 5425W        W 9625   5.321   1.614  11.718  0.0983 -0.2191  0.1262
 5426W        W 9626   8.147   2.243   2.031  0.1356  0.0836 -0.1149
 5427W        W 9627   7.045   7.245   4.217  0.0016 -0.0398 -0.2112
 5428W        W 9628   9.289   2.911  11.898  0.0341  0.1022 -0.0345
 5429W        W 9629   5.701   6.522   9.824 -0.1409 -0.0014  0.1813
 5430W        W 9630   4.036   2.725   4.199 -0.1319  0.1287 -0.3198
 5431W        W 9631   3.358   9.639   0.146  0.0293  0.1813  0.0474
 5432W        W 9632   0.682   0.920  10.060  0.0621 -0.3364 -0.0540
 5433W        W 9633   5.412   6.887   9.973  0.1940 -0.0225 -0.2435
 5434W        W 9634   1.020   5.375   4.761 -0.0439 -0.0254  0.1568
 5435W        W 9635   6.292  10.160  10.049  0.0106  0.2670 -0.1939
 5436W        W 9636   0.416   7.818   2.526  0.1012  0.0851 -0.1996
 5437W        W 9637   8.771   9.954   1.979 -0.0507  0.1042  0.1249
 5438W        W 9638   8.387   7.893  13.440  0.2533  0.1765  0.1483
 5439W        W 9639   6.525   2.357  12.325 -0.0208  0.2393 -0.0971
 5440W        W 9640   4.835   6.804  12.257  0.1005 -0.0837  0.0039
 5441W        W 9641   3.513   0.030  11.288 -0.0961 -0.2219 -0.0495
 5442W        W 9642   0.440   0.207  11.251 -0.1692 -0.1285  0.1059
 5443W        W 9643   3.219   4.751  13.356  0.1985 -0.1927  0.0260
 5444W        W 9644   6.539   1.449  10.703  0.3671 -0.3178 -0.2626
 5445W        W 9645   7.591   8.667  10.643 -0.1000 -0.0306 -0.0795
 5446W        W 9646   6.657   1.099   0.590  0.0251  0.0937 -0.0689
 5447W        W 9647   6.558   1.954  10.657 -0.0380  0.1191  0.0017
 5448W        W 9648   4.483   3.185  13.028 -0.3440  0.1439 -0.2773
 5449W        W 9649  10.111   6.014   2.756  0.1782 -0.2488 -0.1581
 5450W        W 9650   2.546   0.997   9.237 -0.1672  0.0075 -0.1183
 5451W        W 9651   3.645   9.446  10.084  0.0402  0.3137  0.2004
 5452W        W 9652   6.772   8.893   4.223 -0.4399  0.1082 -0.0704
 5453W        W 9653   5.184   8.082   1.697 -0.0418  0.1441  0.2366
 5454W        W 9654   2.350   9.881  12.293 -0.1464  0.3522  0.4147
 5455W        W 9655   2.445   4.440  12.566 -0.1455  0.0188  0.3309
 5456W        W 9656   6.997   3.471   8.776 -0.0366  0.0887 -0.0316
 5457W        W 9657   3.367   2.114   2.366 -0.0284 -0.0644 -0.0048
 5458W        W 9658   3.810   4.233  10.911  0.0585 -0.3497  0.1618
 5459W        W 9659   3.181   0.956   9.877 -0.2208  0.3766  0.0695
 5460W        W 9660   8.169   7.180   5.088 -0.0655 -0.0292  0.0374
 5461W        W 9661   6.567   7.019  10.883  0.0169 -0.1268  0.2520
 5462W        W 9662   2.723   3.624   9.288 -0.2243  0.0367  0.2433
 5463W        W 9663   6.982   2.670  10.182  0.0290 -0.0521  0.0654
 5464W        W 9664   8.908  10.006   2.584  0.1212 -0.1930 -0.0696
 5465W        W 9665   6.531   4.580   0.560 -0.0641 -0.2460 -0.2315
 5466W        W 9666   1.329   3.552   1.974  0.0681 -0.3042 -0.4704
 5467W        W 9667   6.946   0.972   3.521  0.2757 -0.2076  0.1133
 5468W        W 9668   2.052   4.221  11.664  0.0534 -0.0420  0.1898
 5469W        W 9669   6.607   2.969  10.509  0.2101 -0.1847  0.0912
 5470W        W 9670   2.320   6.060  12.431 -0.2113 -0.0321 -0.5993
 5471W        W 9671   8.239   4.108   0.029 -0.0086 -0.3953  0.2967
 5472W        W 9672   8.682  10.238  11.730  0.0833 -0.3300 -0.3065
 5473W        W 9673   5.753   4.242   4.317 -0.5005  0.0005  0.0210
 5474W        W 9674   1.902   4.068  10.136 -0.1862  0.1574  0.4100
 5475W        W 9675   9.996   9.836  11.786 -0.1544  0.3165  0.1484
 5476W        W 9676   2.968   6.692   1.528  0.1721  0.0969 -0.1459
 5477W        W 9677   3.702   4.067   0.488  0.0915 -0.0380 -0.1150
 5478W        W 9678   2.208   9.233   4.778 -0.0965 -0.4805 -0.1963
 5479W        W 9679   1.327   3.492  10.681 -0.1401 -0.0291 -0.0041
 5480W        W 9680   5.402   7.528  13.234 -0.0728 -0.0759  0.0588
 5481W        W 9681   5.752   7.496  10.527  0.2315 -0.0643 -0.3311
 5482W        W 9682   8.031   6.365   2.413 -0.0767 -0.0666 -0.1337
 5483W        W 9683   6.927   1.284   2.594  0.1424 -0.1356  0.1185
 5484W        W 9684   1.298   0.981  11.765  0.0925 -0.0408 -0.0207
 5485W        W 9685   3.501   3.646   4.014  0.0037  0.2154 -0.3264
 5486W        W 9686   6.612   1.749  13.077  0.1612 -0.1267  0.1755
 5487W        W 9687   1.603   0.544  12.655  0.0019 -0.2046  0.0681
 5488W        W 9688   3.765   5.855   3.016  0.2511 -0.3748 -0.0088
 5489W        W 9689   0.096   8.021   9.028 -0.3004 -0.0850 -0.1322
 5490W        W 9690   3.975   6.930  10.919 -0.2465 -0.0972  0.2491
 5491W        W 9691   5.332   8.765  10.651  0.1923 -0.0270 -0.1081
 5492W        W 9692   3.659   3.115   4.049 -0.1074  0.1160 -0.1794
 5493W        W 9693   7.065   5.401   0.551 -0.0953 -0.1320 -0.0931
 5494W        W 9694   7.960   9.882   9.835 -0.3145 -0.1182  0.0645
 5495W        W 9695  10.063   3.640  12.614 -0.3068  0.1502  0.2860
 5496W        W 9696   7.411   5.751   2.670 -0.2212 -0.2842  0.0459
 5497W        W 9697   9.793   4.753  13.085  0.2636 -0.0687 -0.1236
 5498W        W 9698  10.024   1.902   0.156 -0.1179 -0.3686  0.4825
 5499W        W 9699   5.668   6.130  10.632 -0.0009 -0.0352 -0.0444
 5500W        W 9700   5.412   7.325  12.251 -0.2110 -0.0868 -0.1221
 5501W        W 9701   1.176   8.957  11.435  0.3009  0.2772  0.1189
 5502W        W 9702   1.613   2.866  11.787  0.0511  0.1578 -0.0178
 5503W        W 9703   7.147   8.054   3.991  0.1340  0.0529 -0.3184
 5504W        W 9704   2.620   1.932   3.185 -0.2236  0.0369  0.2237
 5505W        W 9705   7.960   9.350   0.699  0.0264 -0.0706 -0.0123
 5506W        W 9706   8.901   7.021  12.898 -0.2592  0.2011  0.1806
 5507W        W 9707   9.233   9.363  12.950 -0.0017  0.0276  0.2470
 5508W        W 9708   5.520  10.187  11.388  0.1718  0.1965  0.4002
 5509W        W 9709   5.076   2.542  13.185 -0.1663  0.1120  0.0933
 5510W        W 9710   4.715   6.016  11.752 -0.0983  0.1779  0.1320
 5511W        W 9711   0.738   4.300  13.124 -0.0691 -0.2703 -0.2841
 5512W        W 9712   7.550   3.730  10.943  0.1800 -0.1578  0.1228
 5513W        W 9713   5.506   9.009   4.298 -0.2316 -0.0146 -0.2993
 5514W        W 9714   2.450   0.278   2.821 -0.1840 -0.0316  0.3510
 5515W        W 9715   3.368   0.053   3.954  0.0662 -0.1684  0.0642
 5516W        W 9716   9.941   2.708  12.031  0.1608  0.1272  0.1537
 5517W        W 9717   1.809   0.915   2.963  0.2454  0.2508  0.0392
 5518W        W 9718   7.017   5.750  12.648 -0.0421 -0.3117  0.5363
 5519W        W 9719   2.263   0.305   9.927  0.2167 -0.1340 -0.0859
 5520W        W 9720   6.536   6.342  10.142 -0.0298  0.0762 -0.1850
 5521W        W 9721   4.938   7.495  10.795  0.1873 -0.0944  0.0493
 5522W        W 9722   2.824   2.861  12.927 -0.1651  0.2634 -0.0396
 5523W        W 9723   5.918   1.175   3.439 -0.2313  0.3397 -0.0014
 5524W        W 9724   6.660   7.552   4.601 -0.2379 -0.0708 -0.1021
 5525W        W 9725   5.986   9.868  11.355  0.0476 -0.0056 -0.2031
 5526W        W 9726   7.649   5.363   2.821 -0.1028  0.1504  0.2015
 5527W        W 9727   3.333   3.120   3.674 -0.1997 -0.3145 -0.0405
 5528W        W 9728   9.820   5.899   0.364 -0.0654  0.1473 -0.1158
 5529W        W 9729   6.249   0.155   1.136 -0.1054 -0.0743  0.1690
 5530W        W 9730   7.845   1.684  11.810 -0.1057  0.0681 -0.0639
 5531W        W 9731   4.729   4.025   8.753  0.1007  0.0769 -0.0869
 5532W        W 9732   0.112   5.982  11.731 -0.0036  0.1054 -0.3213
 5533W        W 9733   5.627   2.921   0.459 -0.1295 -0.0563 -0.0370
 5534W        W 9734   6.368   1.939   4.150 -0.1322  0.2677 -0.0195
 5535W        W 9735   0.407   3.613  11.881  0.0270 -0.0449  0.0417
 5536W        W 9736   7.827   3.740  12.520 -0.1605 -0.0692  0.2432
 5537W        W 9737   7.421   1.049   3.501  0.2678 -0.1809 -0.0069
 5538W        W 9738   0.789   4.219  12.078  0.0955  0.2078 -0.3709
 5539W        W 9739   3.698   7.804   1.056 -0.0186 -0.0667  0.4054
 5540W        W 9740   8.637   2.189   1.209  0.2673 -0.0430 -0.0267
 5541W        W 9741   9.295   8.901  10.319  0.0951 -0.0236 -0.1639
 5542W        W 9742   0.786   9.135   0.167 -0.4188  0.2747  0.2523
 5543W        W 9743   3.231   1.392   4.426  0.1917  0.1468  0.0125
 5544W        W 9744   4.811   7.624  10.349 -0.1032  0.3181 -0.1779
 5545W        W 9745   8.282   3.720   3.779 -0.1599  0.1165 -0.1102
 5546W        W 9746   1.219   8.234  12.166  0.1817 -0.1603  0.3104
 5547W        W 9747   5.078   7.167  11.916 -0.2117  0.1489 -0.1513
 5548W        W 9748   9.547   9.728   4.273 -0.0929  0.0760  0.1316
 5549W        W 9749   8.311  10.134   1.969  0.0686 -0.0681 -0.0342
 5550W        W 9750   7.524   7.391   3.323 -0.1702  0.1860 -0.0913
 5551W        W 9751   2.635   4.614  13.026  0.0343  0.1914 -0.0980
 5552W        W 9752   0.041   2.712  12.075  0.0025 -0.0756 -0.1527
 5553W        W 9753   6.451   0.609   0.046 -0.1351  0.0295  0.0266
 5554W        W 9754   4.581   9.959  11.703  0.2060  0.0963  0.2162
 5555W        W 9755   7.538   5.548  11.869  0.1552 -0.0512  0.2500
 5556W        W 9756   4.068   0.997   9.706 -0.2511  0.1464 -0.1405
 5557W        W 9757   2.782   8.382   3.866  0.0438 -0.0632 -0.2511
 5558W        W 9758   7.972   6.808   5.334  0.0059  0.2437 -0.0498
 5559W        W 9759   3.122   1.084  11.843 -0.2989 -0.0163  0.5067
 5560W        W 9760   9.679   8.251   1.895  0.0001 -0.3026 -0.0899
 5561W        W 9761   4.148   6.039   2.328  0.0064 -0.3502 -0.4263
 5562W        W 9762   7.639   7.251  10.303  0.1124  0.2900 -0.2709
 5563W        W 9763   7.479   6.754  10.358  0.3598 -0.1338  0.1087
 5564W        W 9764   3.107   7.046   1.179 -0.1625 -0.0682 -0.0971
 5565W        W 9765   3.405   5.316   9.553  0.2419  0.2578 -0.4017
 5566W        W 9766   5.735   6.058  12.751  0.2479  0.1193  0.1671
 5567W        W 9767   6.819   6.273  13.412 -0.2082 -0.0547 -0.1426
 5568W        W 9768   6.199   1.867   9.775  0.1563  0.3814 -0.2541
 5569W        W 9769   8.572   6.248   5.026  0.0168  0.0178 -0.0044
 5570W        W 9770   8.347   4.436   2.236 -0.4099  0.0988  0.0541
 5571W        W 9771   0.484   6.785   0.732 -0.0768 -0.1461  0.1827
 5572W        W 9772   3.264   5.297   3.982 -0.0622 -0.2215  0.2931
 5573W        W 9773   2.233   4.569   1.025 -0.0487  0.1088  0.0625
 5574W        W 9774   6.782   8.934   3.686 -0.0332 -0.2517  0.1289
 5575W        W 9775   9.167   4.898   3.218 -0.1256  0.1143  0.1907
 5576W        W 9776   3.419   1.896   0.743 -0.1698  0.0218  0.0366
 5577W        W 9777   1.974   0.877   3.639 -0.2929  0.0809  0.0345
 5578W        W 9778   0.704   9.605  12.987  0.0171 -0.0838  0.1853
 5579W        W 9779   3.706   5.269   2.238  0.0101  0.1142  0.1925
 5580W        W 9780   3.284  10.267  11.747  0.0891 -0.2358 -0.0473
 5581W        W 9781   7.993   0.196   2.666  0.4768  0.1742 -0.2510
 5582W        W 9782   5.862   8.121   4.885  0.0434  0.0265  0.1932
 5583W        W 9783   6.483   7.467   9.035  0.0853 -0.2938 -0.1429
 5584W        W 9784   4.779   9.416   8.551  0.0142 -0.1313 -0.1343
 5585W        W 9785   5.865   4.975   1.635  0.2069  0.0413 -0.1591
 5586W        W 9786   7.776   9.182  10.446 -0.0482 -0.2297 -0.0267
 5587W        W 9787   7.909   6.647  10.536  0.2977  0.2512 -0.0501
 5588W        W 9788   8.111   0.813  13.114  0.0746 -0.1727  0.0763
 5589W        W 9789   4.271   9.969  10.941 -0.1174 -0.1294 -0.0481
 5590W        W 9790   4.642   5.943   0.232 -0.1156  0.2342 -0.0300
 5591W        W 9791   6.304   5.610  11.517 -0.1754  0.0693  0.1264
 5592W        W 9792   8.006   9.653   0.257  0.0870 -0.1397 -0.0115
 5593W        W 9793   6.641   2.087  11.372  0.5643  0.0752  0.0403
 5594W        W 9794   1.667   9.343   2.964  0.2124  0.2182  0.1758
 5595W        W 9795   3.603  10.148  10.236 -0.2013  0.1594  0.0852
 5596W        W 9796   3.771   6.957   3.305  0.1499  0.1340 -0.2461
 5597W        W 9797   7.332   5.903   2.215  0.0010 -0.1644  0.0501
 5598W        W 9798   0.198   9.803  10.755 -0.0821 -0.4230 -0.0290
 5599W        W 9799   4.768   7.904   3.452 -0.2633 -0.4162 -0.0672
 5600W        W 9800  10.388   7.145   5.483  0.0383  0.2211  0.3778
 5601W        W 9801   5.837   5.909   0.210 -0.0727  0.0931 -0.0674
 5602W        W 9802   5.650   4.066   1.386  0.0004  0.3829 -0.0317
 5603W        W 9803   4.186   6.654  12.300 -0.0644  0.1392 -0.3974
 5604W        W 9804   3.289   4.273   3.334  0.1831 -0.0532 -0.0071
 5605W        W 9805   2.869   2.836   1.696  0.0026  0.0095 -0.3577
 5606W        W 9806   8.029   7.141   3.835 -0.1200 -0.2833 -0.1800
 5607W        W 9807   6.411   3.141   0.650 -0.1291 -0.1502  0.0428
 5608W        W 9808   6.746   6.513  12.079  0.0781 -0.0517 -0.1518
 5609W        W 9809   6.499   4.287   1.774 -0.0099 -0.0037  0.1433
 5610W        W 9810   6.377   6.899   0.102  0.2257 -0.1276  0.2474
 5611W        W 9811   5.043   6.955  12.778 -0.3351  0.0649 -0.0561
 5612W        W 9812   8.162   4.448   4.333  0.1949  0.1520  0.0939
 5613W        W 9813   8.944   3.745   0.548  0.1368 -0.0404  0.0960
 5614W        W 9814   2.370   0.392  12.044  0.1042 -0.0200  0.0968
 5615W        W 9815   1.580   4.891   0.450 -0.4740  0.3775 -0.0219
 5616W        W 9816   9.679   7.753  12.770  0.1963 -0.1796 -0.2443
 5617W        W 9817   8.759   3.109  12.486 -0.1903 -0.3101 -0.0633
 5618W        W 9818   5.203  10.033   0.606  0.0575  0.0083 -0.0384
 5619W        W 9819   7.413   1.851   4.769  0.0821  0.4264 -0.3716
 5620W        W 9820   3.452   7.981  12.703 -0.1200 -0.0828  0.0230
 5621W        W 9821   1.133   5.810   1.470 -0.0215  0.0366 -0.0312
 5622W        W 9822   7.261   7.524  11.149 -0.2755 -0.2702  0.0855
 5623W        W 9823   8.955   0.316  11.553  0.0373 -0.2650 -0.4316
 5624W        W 9824   4.742   8.871   9.841  0.3089  0.0903 -0.0490
 5625W        W 9825   8.762   9.490   9.746  0.0003 -0.0354 -0.0828
 5626W        W 9826   2.626   2.818   9.559 -0.2559  0.2550  0.0765
 5627W        W 9827   9.435   6.577   2.984  0.1094 -0.0605  0.3264
 5628W        W 9828   4.279   4.417  12.143  0.2372  0.1880  0.1704
 5629W        W 9829   2.618   6.978   9.581 -0.2622 -0.2025  0.2007
 5630W        W 9830   1.841   8.144   5.492  0.1164 -0.0840 -0.0993
 5631W        W 9831   5.793   6.913   2.589  0.0512 -0.4793  0.1778
 5632W        W 9832   7.813  10.198  13.293  0.1141  0.1940  0.2325
 5633W        W 9833   9.290   0.097  10.311 -0.0329 -0.1285 -0.0270
 5634W        W 9834   3.912   1.550  12.207 -0.1199  0.0475 -0.0139
 5635W        W 9835   5.855  10.017   9.794  0.1744 -0.0397 -0.3616
 5636W        W 9836   3.135   1.350  10.200 -0.4575  0.1844 -0.2955
 5637W        W 9837   4.410   8.963   3.989 -0.2894 -0.1419 -0.0765
 5638W        W 9838   4.486   7.120   2.908  0.0220 -0.1601  0.0325
 5639W        W 9839   3.983   9.284   1.672  0.3467  0.0061  0.0658
 5640W        W 9840   2.454   7.005  12.372 -0.0627  0.0726 -0.2999
 5641W        W 9841  10.312   8.067  10.386 -0.0648  0.1000 -0.0762
 5642W        W 9842   5.818   9.671   4.495  0.3697 -0.1843  0.1364
 5643W        W 9843   6.983   5.652   3.474  0.0324 -0.1008 -0.2460
 5644W        W 9844   1.686   4.128   2.033 -0.0051 -0.2549  0.0787
 5645W        W 9845   4.185   2.689  10.034 -0.0630  0.0249  0.2468
 5646W        W 9846   3.241   7.950   2.172  0.0780 -0.4420  0.0007
 5647W        W 9847   5.461   6.442   0.395  0.0993 -0.1061  0.0075
 5648W        W 9848   5.035   2.776  12.619 -0.0424 -0.3241  0.4441
 5649W        W 9849   1.411   7.459   4.801  0.0154 -0.0574  0.2204
 5650W        W 9850   5.893   0.957   8.645  0.0798 -0.1860 -0.0515
 5651W        W 9851   6.923   3.797  12.209  0.0529 -0.0810  0.2984
 5652W        W 9852   1.906   1.446  11.062  0.2252  0.1017 -0.3906
 5653W        W 9853   3.344   9.367   1.053 -0.0827  0.3879 -0.0572
 5654W        W 9854   8.796   3.805   9.562  0.0569  0.0810 -0.0157
 5655W        W 9855   1.458   3.054   1.166  0.4179 -0.3026 -0.0680
 5656W        W 9856   6.510   8.640  12.197 -0.2406 -0.2031 -0.3081
 5657W        W 9857   2.991   2.798   3.980 -0.2053  0.3027 -0.3845
 5658W        W 9858   3.382   8.618  11.414  0.2018  0.0690 -0.0969
 5659W        W 9859   0.969   0.568   1.937 -0.0069  0.0420 -0.2841
 5660W        W 9860   4.817   8.180   2.549  0.1136 -0.0711 -0.0329
 5661W        W 9861   3.339   3.926   1.636 -0.1300  0.1068 -0.4755
 5662W        W 9862   9.660   4.540   9.945 -0.0933  0.3624  0.4035
 5663W        W 9863   0.558   9.878  11.622  0.0205 -0.1555  0.1001
 5664W        W 9864   2.925   0.820   3.805 -0.1421  0.0946 -0.0162
 5665W        W 9865   7.944   2.290  13.423 -0.1949 -0.0834 -0.2311
 5666W        W 9866   5.772   2.175   3.569 -0.0435  0.2325  0.0378
 5667W        W 9867   5.264   5.574  12.767 -0.0570 -0.1264 -0.2755
 5668W        W 9868   4.126   4.607   3.516 -0.0727 -0.3756 -0.0083
 5669W        W 9869   5.542   7.558  11.018  0.2404 -0.1324  0.0428
 5670W        W 9870   7.114   7.058   1.158  0.0638  0.3345 -0.1197
 5671W        W 9871   4.747   9.871   9.483 -0.0074 -0.3685  0.1513
 5672W        W 9872  10.428   5.763   0.763  0.0822 -0.0758  0.3008
 5673W        W 9873   7.238   9.335   2.602 -0.0452 -0.1838  0.0549
 5674W        W 9874   4.666   6.451  10.594  0.0004 -0.1505  0.2323
 5675W        W 9875   1.500   5.956   5.186 -0.1695  0.0186  0.1274
 5676W        W 9876   8.403   7.286   1.502  0.0943  0.2266  0.3429
 5677W        W 9877   3.701   6.032   1.514 -0.0227  0.4118  0.0631
 5678W        W 9878   6.674   0.312  12.148 -0.2961  0.4069 -0.0427
 5679W        W 9879   7.976  10.044   1.550  0.1201 -0.1822  0.2521
 5680W        W 9880   8.439   8.746   3.659  0.0553  0.1085  0.0628
 5681W        W 9881   2.326   9.803   0.174  0.4938 -0.0882 -0.0270
 5682W        W 9882   3.151   8.594  12.401  0.2956 -0.1332 -0.1452
 5683W        W 9883   9.285   6.657  11.624  0.1349  0.0473 -0.3028
 5684W        W 9884   5.254   0.442   8.637  0.1934 -0.2181  0.1857
 5685W        W 9885   6.269   8.626  10.910 -0.1370 -0.1050  0.3439
 5686W        W 9886   7.430  10.441  10.860 -0.2207  0.0218 -0.2365
 5687W        W 9887   4.356   8.520  13.129  0.5665  0.1941 -0.0503
 5688W        W 9888   8.883   8.297   9.873 -0.1050  0.0674  0.0778
 5689W        W 9889   7.387   7.794   0.072  0.1130  0.0630 -0.3065
 5690W        W 9890   0.875   0.027  11.683  0.0541 -0.6539 -0.2089
 5691W        W 9891   7.189   8.783   9.847  0.0867 -0.0287 -0.0570
 5692W        W 9892   2.072   0.627  10.426  0.0261  0.1824 -0.0003
 5693W        W 9893   6.640   4.289   8.352 -0.3306  0.0255 -0.0918
 5694W        W 9894   8.993   1.917  12.527  0.0430 -0.1861  0.3456
 5695W        W 9895   6.404   1.520  12.667 -0.0429  0.0576 -0.0878
 5696W        W 9896   9.777   6.135   4.961  0.2950  0.0066 -0.2029
 5697W        W 9897   9.652   0.345  10.718  0.2019  0.1768 -0.2655
 5698W        W 9898   0.030   5.523  12.534  0.0846  0.0706  0.0461
 5699W        W 9899   4.578   1.141   2.033  0.1105 -0.2411  0.1384
 5700W        W 9900   6.420   4.297   0.078  0.1280  0.0271  0.2646
 5701W        W 9901   8.675   5.640   1.205 -0.0322  0.2124  0.2205
 5702W        W 9902   2.352   6.729   9.127 -0.2583 -0.1614 -0.0823
 5703W        W 9903   3.080   2.096   2.779  0.3765  0.0009 -0.1597
 5704W        W 9904   0.638   2.271   2.276 -0.0636  0.1336  0.1692
 5705W        W 9905   5.471   4.895   1.249 -0.4241  0.0738 -0.3425
 5706W        W 9906   9.097   5.816  11.305 -0.1911 -0.0968 -0.1323
 5707W        W 9907   3.735   4.747   2.748  0.1426  0.1191 -0.1420
 5708W        W 9908   8.912   9.669   3.274  0.0586  0.1164 -0.2114
 5709W        W 9909   9.742   2.922  10.583 -0.1211 -0.0124 -0.1561
 5710W        W 9910   4.423   9.472   2.917 -0.2463  0.0025 -0.1165
 5711W        W 9911   0.586   1.048   0.393  0.0767 -0.0779 -0.0009
 5712W        W 9912  10.270   2.923  13.438 -0.1196  0.0494 -0.2125
 5713W        W 9913   7.811   3.182   4.143 -0.0581  0.0354  0.0258
 5714W        W 9914   7.412   6.053  12.201  0.2705 -0.0016 -0.0178
 5715W        W 9915   4.189   5.297   9.257 -0.0310  0.1447 -0.0134
 5716W        W 9916   9.647   3.371  10.377 -0.0777 -0.0961 -0.2682
 5717W        W 9917   3.918   3.055  11.734  0.1279  0.0880 -0.3495
 5718W        W 9918   7.221   4.079   5.528  0.0158  0.1569  0.1093
 5719W        W 9919   7.912   2.145   2.726  0.6475 -0.0827 -0.1445
 5720W        W 9920   9.272   4.255   2.471  0.0402 -0.1585  0.0686
 5721W        W 9921   8.950   4.016  10.035  0.4701  0.2892  0.5316
 5722W        W 9922   7.408  10.052   0.134 -0.0234  0.3259 -0.0611
 5723W        W 9923   7.828   6.115   0.202  0.2876 -0.0692 -0.3172
 5724W        W 9924   2.595   2.479  12.480  0.0921 -0.0370  0.1817
 5725W        W 9925   6.702   4.935  10.723  0.1016  0.1608  0.2776
 5726W        W 9926   5.880   1.815  10.150  0.3162  0.1264 -0.0828
 5727W        W 9927   3.612   2.855  10.608 -0.0627  0.1521  0.1743
 5728W        W 9928   2.773   5.362  10.888  0.0813  0.4562  0.0594
 5729W        W 9929   1.888   5.598  12.713  0.1966 -0.3140  0.0480
 5730W        W 9930  10.103   9.297  10.074  0.3011 -0.1122  0.1757
 5731W        W 9931   0.684   5.839   9.195 -0.1703  0.1440 -0.0160
 5732W        W 9932   8.611   0.827  12.861  0.0411 -0.0220 -0.2692
 5733W        W 9933   3.530   5.544   4.633 -0.0033 -0.1764 -0.1721
 5734W        W 9934   2.384   1.875   9.546  0.1696  0.0320  0.0591
 5735W        W 9935   5.497   3.714   0.563  0.0897  0.1029  0.1091
 5736W        W 9936   7.283   4.148   2.948 -0.2602  0.0494 -0.0474
 5737W        W 9937   2.869   5.403  11.739 -0.0574  0.3024  0.2056
 5738W        W 9938   2.737   3.629   2.292 -0.1774 -0.0934  0.1427
 5739W        W 9939   7.703   0.883  12.775 -0.4061  0.2914  0.0558
 5740W        W 9940   4.791   9.027  13.420  0.1634  0.0611 -0.2182
 5741W        W 9941   6.132   3.291   0.193 -0.2018 -0.0584  0.2461
 5742W        W 9942   5.150   1.081  13.026 -0.0061  0.0912 -0.0551
 5743W        W 9943   4.631   7.948   8.394 -0.2414 -0.0551  0.0252
 5744W        W 9944   4.710   3.874   1.665 -0.1272  0.1917  0.0146
 5745W        W 9945   3.891   2.698   1.270  0.1037 -0.0342  0.2826
 5746W        W 9946   7.297   4.561   4.769  0.4459  0.0342  0.0133
 5747W        W 9947   5.898   7.484  11.406 -0.1319 -0.0306 -0.0591
 5748W        W 9948   1.838   5.998  11.173 -0.1655  0.0433 -0.0837
 5749W        W 9949   4.604   4.977   2.259 -0.1816  0.1794 -0.0093
 5750W        W 9950   7.410   6.071   3.118  0.2815 -0.0191 -0.0262
 5751W        W 9951   0.181   7.648   1.385  0.1893 -0.1233  0.0543
 5752W        W 9952   7.400   0.997  13.176 -0.2370 -0.3070 -0.0483
 5753W        W 9953   1.764   9.869   9.971 -0.2069 -0.0494 -0.0106
 5754W        W 9954   6.534   2.165   1.440 -0.1885 -0.2010  0.0368
 5755W        W 9955   9.140   9.731  10.104 -0.1822  0.0434 -0.2827
 5756W        W 9956   3.660   4.683   3.242  0.2260  0.2575  0.0810
 5757W        W 9957   8.144   0.243  11.137  0.1097  0.3812 -0.0135
 5758W        W 9958  10.120   9.478   2.864  0.0434  0.1297 -0.0169
 5759W        W 9959   0.124   4.804  10.199  0.0121 -0.0257 -0.0448
 5760W        W 9960   9.719   9.099  11.073  0.1227 -0.1181 -0.2744
 5761W        W 9961   3.780   4.311   1.077 -0.3419  0.0899 -0.3507
 5762W        W 9962  10.310   7.433   4.960 -0.0407  0.2324 -0.0031
 5763W        W 9963   5.940   5.948  13.190 -0.1087  0.1638  0.1907
 5764W        W 9964   4.358   4.451  12.744  0.1469  0.2005 -0.3312
 5765W        W 9965   4.607   5.284  13.004 -0.0307 -0.3633 -0.1073
 5766W        W 9966   0.941   1.539   1.749  0.1395  0.0031 -0.4188
 5767W        W 9967   4.138   2.136  10.625 -0.1764  0.3754  0.0474
 5768W        W 9968   1.542   1.194   3.264 -0.1991  0.0888 -0.0198
 5769W        W 9969  10.126   6.062  11.398 -0.0599  0.0221 -0.3818
 5770W        W 9970   4.865   4.296   4.895  0.0365 -0.0537  0.0772
 5771W        W 9971   2.512   0.924   1.322  0.2548  0.1029  0.1319
 5772W        W 9972   5.283   6.834   3.379 -0.0379  0.2575 -0.1471
 5773W        W 9973   4.770   3.223  12.607  0.1998 -0.2552 -0.2305
 5774W        W 9974   6.096   6.217  10.907 -0.0865 -0.3013 -0.2474
 5775W        W 9975   5.223   5.639  11.369 -0.2450 -0.2156  0.2239
 5776W        W 9976   4.929   2.454   8.235  0.1983 -0.1862 -0.0280
 5777W        W 9977   3.649   5.832   0.722  0.1323 -0.0930 -0.2047
 5778W        W 9978   6.573   5.912   3.591 -0.0651 -0.1384  0.2188
 5779W        W 9979   2.000   9.177  10.382  0.2231 -0.3047  0.0236
 5780W        W 9980   0.640   1.408   2.526  0.2146  0.1571 -0.1247
 5781W        W 9981   4.385   0.920   4.021  0.1666  0.0682 -0.1184
 5782W        W 9982   1.974   7.446  12.433 -0.1387  0.3250 -0.4125
 5783W        W 9983   3.464   9.359   2.537  0.1164 -0.4448  0.1045
 5784W        W 9984   6.254   4.041   8.567  0.0781 -0.0496  0.0062
 5785W        W 9985   6.223   7.284   0.772  0.1377 -0.3513  0.0038
 5786W        W 9986   0.732   1.880   1.109 -0.2061 -0.0737 -0.0394
 5787W        W 9987   6.941   6.861   4.497 -0.3225  0.2445 -0.0802
 5788W        W 9988   3.863   0.457  12.271 -0.1596 -0.1761 -0.2118
 5789W        W 9989   5.518   6.204   2.250  0.0624  0.2652  0.0032
 5790W        W 9990   1.792   6.016  11.717 -0.0033  0.1291 -0.1375
 5791W        W 9991   5.615   2.156   1.941 -0.0006 -0.2084  0.1665
 5792W        W 9992  10.152   9.921   1.940 -0.0085  0.0432 -0.0025
 5793W        W 9993   5.862   8.253   2.947 -0.0381  0.2027 -0.2144
 5794W        W 9994   7.739   7.888   2.716  0.3139  0.1561  0.0582
 5795W        W 9995   4.755   4.700  13.027  0.1057  0.0808 -0.2505
 5796W        W 9996   3.788   9.763   2.318  0.0731  0.2314 -0.1722
 5797W        W 9997   6.334   0.789   9.761  0.1879  0.1444  0.0434
 5798W        W 9998   8.408   3.130   3.626 -0.2056 -0.1463  0.0694
 5799W        W 9999   7.766   3.895   0.544 -0.0615  0.0138  0.2476
 5800W        W10000   2.272   2.812   3.252 -0.0870  0.1032 -0.0775
 5801W        W10001   2.563   3.894  11.440  0.2127 -0.1841  0.3525
 5802W        W10002   4.913   7.468   0.785  0.2903 -0.1900 -0.1856
 5803W        W10003   3.555   4.342   4.198  0.2800 -0.2464 -0.1619
 5804W        W10004   4.881   1.699   2.734  0.0134  0.1156  0.2281
 5805W        W10005   1.678   4.814  11.777 -0.2131  0.1267  0.0754
 5806W        W10006   9.978  10.234   1.351  0.2519 -0.0422  0.1604
 5807W        W10007   7.659   3.668   2.258  0.0902 -0.0966 -0.2910
 5808W        W10008   0.392   9.514  10.315  0.0041  0.1848 -0.1560
 5809W        W10009   9.369   2.487  11.499 -0.0255  0.0114  0.1883
 5810W        W10010   8.033   4.218  12.805  0.0827 -0.1332  0.1497
 5811W        W10011   2.671   1.405   3.575 -0.1527  0.1888 -0.1235
 5812W        W10012   3.708   8.975   0.799 -0.2688  0.2675 -0.0775
 5813W        W10013   2.969   5.784   0.541  0.0893 -0.2233  0.0204
 5814W        W10014   0.989   2.509   2.975  0.1297 -0.0792  0.2575
 5815W        W10015   1.859   6.940  12.408  0.1158  0.0058 -0.2491
 5816W        W10016  10.202   6.713   4.640  0.0782 -0.0415  0.1591
 5817W        W10017   5.244   6.086  12.916  0.1390 -0.5112 -0.2496
 5818W        W10018   2.583   4.974   0.384  0.0547  0.2056  0.1357
 5819W        W10019   3.159   3.469   1.711  0.2773 -0.1445 -0.0547
 5820W        W10020   9.138   5.350   1.311  0.1953 -0.0143 -0.0774
 5821W        W10021   0.868   7.544   4.749 -0.0521 -0.1396  0.0221
 5822W        W10022   3.243   6.552   1.115  0.3520 -0.2590  0.0279
 5823W        W10023   2.036   3.659   0.819  0.0985 -0.2184 -0.1908
 5824W        W10024   2.082   0.563   0.356 -0.0572 -0.2764 -0.1222
 5825W        W10025   9.674   6.428   0.353  0.0271 -0.1981 -0.0853
 5826W        W10026   5.091   1.551  10.765 -0.0187 -0.1199 -0.2297
 5827W        W10027   5.745   3.651   3.439 -0.0249  0.2170 -0.0455
 5828W        W10028   6.599   1.338  12.254  0.0058  0.1393  0.1229
 5829W        W10029   4.662   4.821   0.964  0.2454 -0.3080 -0.0185
 5830W        W10030   5.397   9.668  11.364 -0.2245  0.0266 -0.1306
 5831W        W10031   1.565  10.317   0.745  0.2113  0.1958 -0.1201
 5832W        W10032   7.836   9.816   0.721 -0.2203 -0.1499  0.2477
 5833W        W10033   2.065   2.293   1.797  0.1209  0.0383 -0.0587
 5834W        W10034   1.290   3.019   2.963 -0.2655 -0.2330 -0.1575
 5835W        W10035   8.341   3.183   9.908  0.1410 -0.3014 -0.0706
 5836W        W10036   3.034  10.088   3.917 -0.1356 -0.0881 -0.0930
 5837W        W10037   9.562   9.927  11.964  0.1763 -0.0557 -0.2723
 5838W        W10038   3.077   6.057   3.784 -0.4886 -0.0202 -0.0689
 5839W        W10039   6.742   6.702   3.721  0.0740  0.1984  0.3363
 5840W        W10040   3.148   6.902  12.948 -0.1917 -0.2813  0.1082
 5841W        W10041   3.210   8.872   0.807 -0.1297 -0.0166  0.0914
 5842W        W10042   4.642   7.226   0.383 -0.0185 -0.0388 -0.4788
 5843W        W10043   7.082   1.923   3.339  0.2551  0.0551  0.2104
 5844W        W10044   5.380   7.765  10.153 -0.1016 -0.0983  0.4239
 5845W        W10045   7.732   4.380  10.968 -0.3169  0.0836 -0.1261
 5846W        W10046   3.946   6.381   9.073 -0.0835 -0.1978 -0.0076
 5847W        W10047   2.406   9.002  12.168  0.4627 -0.0459  0.1430
 5848W        W10048   9.285   6.378   4.912 -0.3491  0.2159  0.1921
 5849W        W10049   4.079   8.688   8.609  0.1318 -0.1134 -0.1801
 5850W        W10050   6.324   5.142  11.577 -0.2371  0.1198 -0.0355
 5851W        W10051   1.126   8.792  12.239 -0.0136  0.2435  0.1263
 5852W        W10052   6.077   5.479   3.045  0.0983 -0.1700 -0.0449
 5853W        W10053   2.764   4.266  11.007 -0.0529 -0.2861  0.0071
 5854W        W10054   4.702   8.191   0.490 -0.3808  0.1356  0.1078
 5855W        W10055   0.723   4.866   3.481 -0.1233  0.3146 -0.1482
 5856W        W10056  10.244   9.187  11.086  0.2015 -0.0182  0.0547
 5857W        W10057   2.948   2.345   1.638  0.2007  0.0050 -0.1774
 5858W        W10058   3.092   0.237   0.338 -0.4497  0.1430  0.2131
 5859W        W10059   5.363   8.620   0.212  0.0209  0.2045  0.3810
 5860W        W10060   2.242   5.727  10.952 -0.2457 -0.4761 -0.1086
 5861W        W10061   6.753   4.687  10.188  0.4075  0.0309 -0.3569
 5862W        W10062   2.496   9.468   9.608  0.1727  0.0328  0.2006
 5863W        W10063  10.103   6.597   0.962  0.2025  0.0831  0.0461
 5864W        W10064   0.445   2.277   0.257 -0.2974  0.0157  0.0134
 5865W        W10065   2.604   4.669   1.356  0.1215  0.1668  0.2790
 5866W        W10066   8.207   3.220  12.401 -0.2280 -0.1311 -0.2390
 5867W        W10067   3.424   8.112   0.122 -0.0803 -0.1638 -0.1895
 5868W        W10068   3.635   5.136   9.984  0.0871  0.1803 -0.0383
 5869W        W10069   5.517   9.398   1.868  0.1195  0.0154 -0.3394
 5870W        W10070   8.683   8.567  11.315 -0.0234 -0.3839  0.2142
 5871W        W10071   7.188   8.223   9.656 -0.4458  0.1003  0.0087
 5872W        W10072   9.045   3.719   4.349  0.1279 -0.0728  0.2196
 5873W        W10073   8.945   0.002   2.739 -0.1214 -0.0310 -0.0332
 5874W        W10074  10.400   3.699  12.245  0.0256 -0.1576 -0.1073
 5875W        W10075   9.007   5.813   0.863 -0.0224  0.1197  0.2869
 5876W        W10076   4.023   7.560  13.305 -0.1023  0.2203  0.3018
 5877W        W10077   9.160   4.606   9.192 -0.1393  0.2524  0.0740
 5878W        W10078   1.814   5.615  10.696 -0.1714  0.0235  0.2098
 5879W        W10079   5.082   7.706  12.009 -0.2687 -0.3073 -0.0113
 5880W        W10080   0.788   9.449   1.222  0.1762  0.1361  0.0139
 5881W        W10081   9.909   7.561  11.443  0.2448  0.2344 -0.2947
 5882W        W10082   8.524   5.539   0.112  0.5203  0.3270  0.2069
 5883W        W10083   2.951   9.341  10.611 -0.0634  0.1123 -0.1360
 5884W        W10084   2.461   5.610   1.440  0.0109  0.0320 -0.0968
 5885W        W10085   7.447   6.530   8.889 -0.0747  0.0779 -0.0849
 5886W        W10086   0.315   7.281   4.658  0.1014  0.1326 -0.1511
 5887W        W10087   3.873   2.867   9.130 -0.4354  0.0759  0.0178
 5888W        W10088  10.371   6.384  12.013  0.0579  0.2299 -0.2429
 5889W        W10089   2.282   6.256   2.684 -0.1870 -0.4078  0.0293
 5890W        W10090   5.840   3.173   3.135 -0.4133  0.1182 -0.1447
 5891W        W10091   7.856   5.288   3.266 -0.0152 -0.2442 -0.1799
 5892W        W10092   2.960   9.364   0.023  0.0402  0.0860  0.0428
 5893W        W10093   6.313   7.853   1.518  0.2158 -0.1211 -0.2112
 5894W        W10094   1.399   2.980   2.126  0.0159  0.2196  0.1124
 5895W        W10095   7.875   0.668  10.944 -0.1560  0.1616  0.0348
 5896W        W10096   6.989   7.515   1.539  0.1045  0.0333  0.1859
 5897W        W10097   0.051  10.215   9.937  0.2095  0.0756  0.0324
 5898W        W10098   2.493   3.033  11.373 -0.2527 -0.0622 -0.1037
 5899W        W10099   6.789   1.048  11.275 -0.5640  0.1689 -0.2543
 5900W        W10100   9.798   5.043  10.723  0.1211  0.0328 -0.2486
 5901W        W10101   4.222   0.184   9.518  0.3106  0.2253  0.2687
 5902W        W10102   4.410   5.036   8.246 -0.0760 -0.2205  0.1706
 5903W        W10103   9.147   8.983   0.635  0.2063 -0.0193  0.0707
 5904W        W10104   4.313   9.533  12.236  0.2878 -0.2393 -0.2265
 5905W        W10105   9.757  10.176   0.866 -0.0277  0.1515 -0.0815
 5906W        W10106   3.030   3.264   3.052  0.2463 -0.0420  0.1621
 5907W        W10107   3.646   7.208  11.225 -0.0085  0.2826  0.2600
 5908W        W10108   8.405   6.777   0.379  0.0609  0.0630  0.0001
 5909W        W10109   5.177   2.144   4.938 -0.0373  0.0413 -0.0961
 5910W        W10110   7.119   7.242   0.664  0.0368 -0.4588 -0.1273
 5911W        W10111   4.708   1.369  10.399  0.1389  0.2161  0.4666
 5912W        W10112   3.413   5.755   0.264 -0.0828 -0.1079 -0.2812
 5913W        W10113   4.026   8.763   0.055  0.0474 -0.3044 -0.0035
 5914W        W10114   8.555  10.327  12.198 -0.2082 -0.1953  0.2513
 5915W        W10115   3.454   0.463  13.126 -0.1763  0.2725 -0.0248
 5916W        W10116   6.455   0.536   3.047  0.0304 -0.2317  0.0625
 5917W        W10117   5.296   4.294  13.299 -0.3160  0.2121  0.4480
 5918W        W10118   2.612   2.619   4.313  0.3188 -0.0099 -0.0114
 5919W        W10119   4.045   1.412   2.269  0.1600 -0.0018 -0.0834
 5920W        W10120   2.329   6.753  10.636  0.2544  0.0352  0.4515
 5921W        W10121   5.669   9.035  12.475 -0.2219 -0.0233 -0.0121
 5922W        W10122   3.267   8.397   2.430  0.0252 -0.1856  0.0839
 5923W        W10123   6.422   5.844   2.603  0.0246  0.2318 -0.2699
 5924W        W10124   0.466   3.097  11.734  0.0143  0.2077  0.0679
 5925W        W10125   8.872   4.997  10.474 -0.5506 -0.0838  0.1896
 5926W        W10126   7.962   7.688  13.042 -0.0668 -0.2686  0.5148
 5927W        W10127   7.440  10.225   1.658 -0.0009  0.0110  0.0477
 5928W        W10128   4.643  10.398   9.266  0.1549  0.2839 -0.0473
 5929W        W10129   4.014   9.748   1.470 -0.1898 -0.0097  0.1017
 5930W        W10130   4.579   2.600  11.367 -0.1693  0.0475 -0.3758
 5931W        W10131  10.000   5.981   9.754  0.1148  0.0505  0.0328
 5932W        W10132   1.983   6.710   1.861  0.0866 -0.1143  0.0466
 5933W        W10133   1.733   7.455  11.887  0.0825 -0.1736  0.1841
 5934W        W10134   7.123   7.518  10.450  0.0047 -0.2733  0.0403
 5935W        W10135   4.423   2.156   3.438 -0.2060  0.1409 -0.1474
 5936W        W10136   4.335   9.121   0.755 -0.1557  0.3625 -0.1985
 5937W        W10137   1.183   9.344  12.269  0.2249 -0.0024 -0.0002
 5938W        W10138   3.491   4.898  10.586  0.0879 -0.4591  0.0629
 5939W        W10139   3.186   7.452   2.422 -0.0012  0.2004 -0.1580
 5940W        W10140   8.897   5.251   0.472 -0.2402 -0.0546  0.0360
 5941W        W10141   4.978   3.706   4.129  0.0205 -0.1622  0.0881
 5942W        W10142   6.950   7.667  13.339 -0.3560  0.0993 -0.0792
 5943W        W10143   5.940   4.228  11.208  0.0879  0.1011 -0.1469
 5944W        W10144   1.449   5.568  12.410 -0.0031  0.1033 -0.2535
 5945W        W10145   6.168   2.310   2.710  0.1006 -0.1164  0.0743
 5946W        W10146   1.407   0.165   9.190 -0.0729 -0.0169  0.0309
 5947W        W10147   7.678   7.829   3.173  0.0981  0.0432 -0.2011
 5948W        W10148   6.832   9.883   8.814  0.3981 -0.1452  0.1030
 5949W        W10149   3.445   3.787  10.103 -0.0765 -0.3240 -0.0125
 5950W        W10150   9.557   1.525  12.015  0.1213 -0.0016 -0.1082
 5951W        W10151   9.278   6.207   1.153  0.2712  0.2838 -0.0668
 5952W        W10152   2.628   3.948   9.658  0.0280  0.5459 -0.0695
 5953W        W10153   3.573   6.755  11.072 -0.0984  0.0421  0.1069
 5954W        W10154   9.760   6.191   1.157 -0.0118 -0.1179  0.1017
 5955W        W10155   6.152   9.137   1.839  0.2315  0.0276 -0.0536
 5956W        W10156   4.252   4.101   1.786  0.4697 -0.1940  0.2131
 5957W        W10157   0.753   8.085   3.007 -0.0632 -0.3251  0.2154
 5958W        W10158   2.299  10.220  10.809 -0.2105 -0.0250  0.1792
 5959W        W10159   6.782   9.273   1.178 -0.0204  0.0807 -0.0307
 5960W        W10160   4.196   1.421   8.233  0.1710  0.0108 -0.0412
 5961W        W10161   8.776   2.347   0.756 -0.0228  0.0620 -0.1217
 5962W        W10162   4.269   5.688  12.977  0.1211  0.2472  0.2137
 5963W        W10163   3.023   0.316  10.328 -0.3535 -0.1355 -0.1155
 5964W        W10164   4.121   6.474   8.627 -0.0886  0.4331  0.0622
 5965W        W10165   6.179   2.139   0.536 -0.1099  0.0211  0.1638
 5966W        W10166   9.495   6.282  12.992  0.0390 -0.2089 -0.0125
 5967W        W10167   9.396   5.125   1.927  0.0103  0.4543  0.0077
 5968W        W10168   5.105   9.677   0.960  0.1954 -0.2679 -0.1266
 5969W        W10169   1.278   7.280  11.303  0.3582 -0.1675 -0.0720
 5970W        W10170   6.827   8.314   3.598  0.0066 -0.0392  0.0351
 5971W        W10171   8.798   4.572  12.745  0.0221 -0.1378 -0.1857
 5972W        W10172   8.010   5.276  11.026 -0.0619  0.3827 -0.1634
 5973W        W10173   1.972   1.106  10.508 -0.2747  0.1105 -0.0032
 5974W        W10174   1.326   4.633  12.372  0.0855 -0.0333  0.0081
 5975W        W10175   9.972   6.842   2.963  0.0981 -0.1529 -0.2433
 5976W        W10176   3.442   2.574   3.638  0.0957 -0.1466  0.0429
 5977W        W10177   5.319   6.368   4.883 -0.3059  0.1300  0.0313
 5978W        W10178   9.131   2.881  11.351  0.1661 -0.3841 -0.1170
 5979W        W10179   8.863   9.067  12.263 -0.4633  0.1605  0.1920
 5980W        W10180   8.224   3.468   1.500  0.0071  0.1322  0.1848
 5981W        W10181   7.265   3.710   0.489 -0.3155 -0.0792 -0.0758
 5982W        W10182   7.361   1.627   1.444 -0.2246 -0.2473 -0.0942
 5983W        W10183   0.821   8.847   1.926  0.0565 -0.1046 -0.1562
 5984W        W10184   4.776   2.172  11.955 -0.0048 -0.1686  0.2140
 5985W        W10185   6.691   1.697   8.441 -0.0971  0.1089 -0.1378
 5986W        W10186   1.737   0.289   1.578  0.1572 -0.2425  0.0092
 5987W        W10187   9.584   1.513   0.445 -0.2682 -0.0737  0.0640
 5988W        W10188   8.077   8.787  12.812  0.1224 -0.2286 -0.3757
 5989W        W10189   3.248   5.581   3.511  0.2388  0.0687  0.2304
 5990W        W10190   2.618   5.279   9.787  0.0843 -0.1645 -0.0015
 5991W        W10191   8.574   4.129  10.332  0.0685 -0.2220 -0.3402
 5992W        W10192   2.491   5.395  11.420 -0.0838  0.1377  0.3586
 5993W        W10193   8.448   7.368   0.646 -0.1547  0.1297  0.2394
 5994W        W10194   5.680   8.559   9.890  0.3811 -0.2025 -0.0719
 5995W        W10195  10.443   7.592   2.729 -0.3463  0.1895 -0.0173
 5996W        W10196   8.923   5.368   2.993  0.1183 -0.1578  0.1295
 5997W        W10197   2.051   7.774   9.304 -0.0885 -0.2196 -0.0937
 5998W        W10198   3.657   2.346   9.254  0.0207  0.1189  0.0332
 5999W        W10199   6.795   8.150  13.365 -0.0569  0.2222  0.0447
 6000W        W10200   3.432   9.712  12.518  0.3185  0.1590  0.1952
 6001W        W10201  10.137   8.869   0.671  0.2795 -0.1762 -0.0886
 6002W        W10202   8.237   0.494  10.619  0.0511 -0.2112 -0.0297
 6003W        W10203   5.329   1.819   0.087  0.2369  0.1726  0.0566
 6004W        W10204   6.399   4.871   2.003 -0.1019 -0.3482  0.1513
 6005W        W10205   7.391   8.747  11.881 -0.1621 -0.1397 -0.1301
 6006W        W10206   4.378   3.248  13.483  0.6152  0.2887 -0.1757
 6007W        W10207   5.973   3.918   0.919  0.1894 -0.0481 -0.3111
 6008W        W10208   5.488   4.670   3.300 -0.0770 -0.0296  0.1135
 6009W        W10209   1.900   4.606   0.176 -0.0828  0.2269 -0.1457
 6010W        W10210   1.472   3.865  11.331  0.0718 -0.0725 -0.1308
 6011W        W10211   3.767   8.513   9.935 -0.0298  0.0310  0.2247
 6012W        W10212   4.559   4.712   0.083  0.2232  0.2419  0.1317
 6013W        W10213   8.189   9.852  12.125 -0.0795  0.1303 -0.2505
 6014W        W10214   6.230   5.544   0.460  0.3424 -0.2836 -0.1461
 6015W        W10215   9.624   8.357  12.836  0.1209  0.3934 -0.1150
 6016W        W10216   5.382   8.311  10.347  0.0306 -0.0154  0.1504
 6017W        W10217   4.638   4.210   2.158  0.0329 -0.1064 -0.0825
 6018W        W10218   9.744   8.081  10.271  0.1535 -0.0056 -0.0529
 6019W        W10219   8.878   6.314   1.663  0.0140 -0.1751 -0.2098
 6020W        W10220  10.430   8.857   2.163 -0.1788  0.1714  0.1494
 6021W        W10221   2.644   8.105   1.340 -0.0394 -0.2830  0.0834
 6022W        W10222   7.583  10.098   3.811 -0.2936 -0.1642  0.0871
 6023W        W10223   4.820   1.385   9.095  0.2493  0.0037 -0.0126
 6024W        W10224   2.958   4.526   2.459 -0.1003  0.1542 -0.0821
 6025W        W10225   6.099   4.602   0.348 -0.1158 -0.0218 -0.0970
 6026W        W10226   4.977   5.853   1.236 -0.2206 -0.2550 -0.0135
 6027W        W10227   0.124   4.851   8.890  0.2412  0.2012 -0.0551
 6028W        W10228   6.349   0.761  12.132  0.1257 -0.1501 -0.2110
 6029W        W10229   8.002   5.314   0.738 -0.1160  0.0231 -0.1303
 6030W        W10230   0.996   1.497  13.347 -0.2260  0.0523  0.2097
 6031W        W10231   8.671   0.760  11.428  0.1390  0.1819  0.0629
 6032W        W10232   6.242   2.142  10.267 -0.0418 -0.1193 -0.2357
 6033W        W10233   0.103   9.821   3.114 -0.2775  0.0792 -0.0638
 6034W        W10234   4.500   0.878  10.559 -0.0987 -0.1928  0.1386
 6035W        W10235   2.026   9.875   1.032 -0.2983 -0.0456 -0.1566
 6036W        W10236   8.665   9.706   0.178 -0.0823 -0.0183 -0.3776
 6037W        W10237   8.345   2.420   2.952 -0.0171 -0.0296  0.0949
 6038W        W10238   8.723   7.489   1.932 -0.3820 -0.1558 -0.1492
 6039W        W10239   0.609   5.644   4.654  0.0954  0.1006  0.2931
 6040W        W10240   2.416   6.129   1.438  0.1544 -0.0967  0.5074
 6041W        W10241   3.080  10.196   9.596  0.0382 -0.2328 -0.0109
 6042W        W10242   2.364   0.509   0.962  0.1774  0.1075  0.0328
 6043W        W10243   8.157   6.361   5.231 -0.0806 -0.0053 -0.0229
 6044W        W10244   4.856   2.122   9.867  0.3444 -0.2226 -0.0011
 6045W        W10245   3.893   0.880   3.911 -0.4339  0.1544  0.1805
 6046W        W10246  10.138   6.930   9.525  0.2304  0.4311  0.3623
 6047W        W10247   6.258   7.325   4.328 -0.1183  0.1702 -0.2570
 6048W        W10248   6.191   0.705   0.933 -0.3276  0.1371 -0.0778
 6049W        W10249   2.659   2.989  12.473  0.2144 -0.0960  0.1251
 6050W        W10250   6.940   6.199   3.295 -0.3085 -0.6031 -0.0259
 6051W        W10251   3.264   9.323  13.137 -0.0921 -0.1435 -0.0058
 6052W        W10252   4.478   6.670   9.316 -0.0564 -0.0670 -0.1110
 6053W        W10253   8.018   4.433  13.240 -0.3560  0.1389 -0.1850
 6054W        W10254   1.238   7.344   0.322 -0.0975 -0.2205 -0.1031
 6055W        W10255   8.358   2.881  10.801  0.0829  0.1352 -0.2827
 6056W        W10256   5.265   2.370   2.762 -0.0652  0.0571 -0.0309
 6057W        W10257   9.674   1.917  13.238  0.2609 -0.1196  0.1922
 6058W        W10258   7.316   4.545   3.200  0.0441  0.2130 -0.4293
 6059W        W10259   3.559   3.970   2.487  0.0002  0.2283  0.0018
 6060W        W10260   7.547   4.464   3.626 -0.1145 -0.0456  0.1458
 6061W        W10261   6.541   0.774   4.541  0.1011 -0.0917 -0.4140
 6062W        W10262   3.405   0.828   2.969  0.0718  0.2108 -0.1144
 6063W        W10263   4.954   4.560  11.469 -0.1726  0.2227 -0.2093
 6064W        W10264   7.457   9.508   9.932  0.2490  0.0108 -0.2542
 6065W        W10265   5.582   8.240  11.292 -0.0194 -0.3071  0.0353
 6066W        W10266   5.633   1.976   4.816 -0.2113 -0.3861  0.0770
 6067W        W10267   4.844   5.872   9.323  0.2736 -0.1577  0.2084
 6068W        W10268   7.675  10.029  10.662 -0.2401  0.0838 -0.1349
 6069W        W10269   8.100   0.052   0.130 -0.1402 -0.1650  0.2236
 6070W        W10270   8.575   7.104  11.130 -0.0726 -0.1880 -0.2223
 6071W        W10271   7.235   5.343   4.338 -0.1248 -0.0877  0.0498
 6072W        W10272   5.688   0.578   3.950 -0.0424 -0.0151  0.0678
 6073W        W10273   6.001   9.590   1.998  0.2231  0.0500  0.0814
 6074W        W10274   2.166   5.854   3.300 -0.1489 -0.1999 -0.0610
 6075W        W10275   7.500   9.991  12.929  0.2309  0.0952  0.1204
 6076W        W10276   5.695   8.435   4.281 -0.5234  0.1138 -0.1034
 6077W        W10277   4.291   2.156  10.131  0.0058 -0.1902  0.1017
 6078W        W10278   1.956   3.783   1.889  0.4397 -0.0138  0.0419
 6079W        W10279   2.902   8.900   4.127  0.0612 -0.1669 -0.0082
 6080W        W10280   3.872   9.063   2.439 -0.0502 -0.1016  0.0889
 6081W        W10281   8.391   9.962  12.595  0.1197  0.2148 -0.1502
 6082W        W10282   7.434   6.885   9.819  0.0067 -0.1463 -0.2794
 6083W        W10283   8.248   1.940   2.467  0.0143  0.0068  0.3218
 6084W        W10284   3.549   8.542   1.019 -0.4083  0.1175 -0.1527
 6085W        W10285   9.739   5.126  12.284  0.0797 -0.0002  0.0745
 6086W        W10286   5.694   1.557   3.744  0.1639 -0.2317 -0.1199
 6087W        W10287   7.863   3.803   1.747  0.1635  0.0316  0.0127
 6088W        W10288   2.158   3.724   2.913 -0.1937 -0.1029  0.1760
 6089W        W10289   4.009   5.783  11.136 -0.0861 -0.3870  0.1447
 6090W        W10290   2.231   8.227   3.157  0.0508  0.1583  0.0994
 6091W        W10291   5.963   1.645   4.914 -0.1129 -0.0381  0.2603
 6092W        W10292   0.556   8.508   1.232  0.1289  0.0148 -0.1554
 6093W        W10293   8.081   9.752   4.749  0.0575  0.3020  0.0850
 6094W        W10294   6.390   0.346  13.146 -0.1286  0.0542  0.0948
 6095W        W10295   6.612   1.550   0.027  0.1424 -0.1566 -0.2892
 6096W        W10296   9.444   0.342   9.819 -0.2678  0.1942 -0.1119
 6097W        W10297   7.303   8.351   1.389  0.0902 -0.3792  0.1045
 6098W        W10298   7.324   4.922   4.039  0.0324  0.3007 -0.1460
 6099W        W10299   6.753   2.434   4.495 -0.0839  0.1556 -0.2206
 6100W        W10300   5.905  10.239  10.984  0.0785  0.0984  0.0436
 6101W        W10301   3.428   3.835   3.057  0.2323  0.2004  0.2339
 6102W        W10302   6.812   3.361   2.789 -0.1655  0.3478  0.2726
 6103W        W10303   2.578   1.323   3.047  0.1635  0.0611 -0.3953
 6104W        W10304  10.331   8.581  11.703 -0.1603 -0.1561 -0.2093
 6105W        W10305   4.802   1.678   3.405 -0.0215  0.1122  0.1475
 6106W        W10306   7.405   5.062   9.966 -0.0513 -0.1069 -0.0757
 6107W        W10307   5.368   7.881  10.678 -0.1591 -0.0156 -0.1101
 6108W        W10308   4.926   7.446   3.138  0.0339  0.0246  0.0580
 6109W        W10309   3.696  10.349   4.453  0.1125  0.0449  0.1634
 6110W        W10310   8.923   2.768   0.372  0.3084  0.0924 -0.1219
 6111W        W10311   8.438   5.646   4.704  0.1403 -0.0930  0.0450
 6112W        W10312   4.322   5.610   2.068  0.0312  0.3854 -0.0877
 6113W        W10313   8.470  10.273   9.959 -0.0621 -0.2857  0.3044
 6114W        W10314   8.279   2.480   2.475 -0.3248 -0.0813  0.2632
 6115W        W10315   6.743   4.682   4.107 -0.1521  0.1590  0.0208
 6116W        W10316   2.846   3.122   9.074 -0.1135 -0.2106 -0.0777
 6117W        W10317   7.872   0.190  10.707 -0.3842  0.1266  0.0391
 6118W        W10318   8.709   5.369  12.123 -0.0873  0.0010 -0.1208
 6119W        W10319   4.219   7.189  13.065  0.1284 -0.0589  0.0388
 6120W        W10320   4.389   5.322  10.297  0.2655 -0.0932  0.2841
 6121W        W10321   2.607   6.762  12.911 -0.1008  0.0991 -0.3711
 6122W        W10322   2.908   1.656   0.982 -0.1147  0.1901 -0.2224
 6123W        W10323   2.128   6.250   0.030 -0.2596 -0.0576 -0.2723
 6124W        W10324   0.284   0.601  12.160  0.3438  0.1085 -0.2700
 6125W        W10325   0.821   7.074   9.387  0.1332  0.2654  0.1653
 6126W        W10326   3.201   8.976   1.285  0.2350  0.1636 -0.2977
 6127W        W10327   2.947   4.932   2.754  0.0734 -0.0974  0.1635
 6128W        W10328   4.949   1.219  11.723  0.0787 -0.1865 -0.3140
 6129W        W10329   9.102   1.472   9.985 -0.0860 -0.2693  0.0802
 6130W        W10330   8.880   7.936   2.109 -0.3834  0.1043  0.0934
 6131W        W10331   3.663   5.761  10.733  0.1578 -0.3069 -0.0739
 6132W        W10332   9.367   3.597   2.826 -0.0179 -0.0864  0.2612
 6133W        W10333   2.010   8.084   0.399  0.1778  0.0129  0.0265
 6134W        W10334   3.053   7.033   9.876 -0.0660 -0.1854 -0.0631
 6135W        W10335   1.222   3.639   1.218  0.0379  0.1443 -0.0160
 6136W        W10336   8.532   1.189  12.184  0.0356 -0.0493 -0.2555
 6137W        W10337   9.238   5.670   8.811  0.0458 -0.0168 -0.1096
 6138W        W10338   4.007   7.691   2.887 -0.3341  0.1107 -0.0402
 6139W        W10339   6.356   3.272   9.066  0.0430  0.0682  0.2001
 6140W        W10340   8.541   8.924  13.427 -0.0293  0.3359  0.1728
 6141W        W10341   1.368   7.396   1.653  0.0799  0.0350  0.2106
 6142W        W10342   5.765   7.754   3.661  0.0778 -0.0386 -0.3018
 6143W        W10343   1.175   5.983   9.650 -0.0277  0.2977  0.1771
 6144W        W10344   8.708   1.184  11.725 -0.1208  0.0071 -0.2782
 6145W        W10345   4.419   6.526   5.047  0.0810 -0.0801  0.0031
 6146W        W10346   0.672   2.627   2.621 -0.0553 -0.0360  0.0001
 6147W        W10347   3.945   0.400   0.583  0.1825 -0.1026 -0.1577
 6148W        W10348   1.269   6.774  10.732 -0.2423  0.1170 -0.1376
 6149W        W10349   4.500   2.002   1.053  0.0612  0.1069 -0.2255
 6150W        W10350   1.231   9.858  10.555  0.1901 -0.2561  0.0879
 6151W        W10351   5.725   4.755   4.142  0.1136  0.1502  0.1646
 6152W        W10352   6.636   2.342   5.028  0.0654 -0.1413  0.1970
 6153W        W10353   5.749   6.035  12.258 -0.1353 -0.1596  0.0622
 6154W        W10354   3.114   7.630  12.396 -0.1339  0.0104  0.2132
 6155W        W10355   6.212   6.122   0.572  0.2124  0.0625  0.0526
 6156W        W10356   9.910   2.631   1.132 -0.1147  0.0555  0.0671
 6157W        W10357   2.718   3.180   2.517 -0.1015 -0.1376 -0.2538
 6158W        W10358   8.773   6.988   9.287  0.0715  0.0839  0.1473
 6159W        W10359   7.319   2.605   2.251 -0.1005 -0.2574  0.0348
 6160W        W10360   9.028   3.298  11.106  0.0735  0.1333 -0.1711
 6161W        W10361   5.867   3.151   3.657 -0.1450  0.2394  0.1075
 6162W        W10362   6.671   7.561   4.089 -0.0085  0.0651 -0.0875
 6163W        W10363   4.193   7.985  13.115  0.2340 -0.3746 -0.1466
 6164W        W10364   8.949   3.811  10.934  0.1789  0.1628  0.2207
 6165W        W10365   5.829   2.970  11.991  0.4042  0.0789 -0.0185
 6166W        W10366   4.491   5.833  10.340  0.0476  0.1909  0.0252
 6167W        W10367   0.400   5.275  11.801 -0.0606 -0.1601 -0.2401
 6168W        W10368   5.707   7.057  11.261  0.1624 -0.1743  0.3082
 6169W        W10369   6.646   2.241   9.980  0.0789  0.2271 -0.0248
 6170W        W10370   8.611   2.690   1.209  0.0607  0.1759  0.2285
 6171W        W10371   7.479   9.182   4.424 -0.2074  0.4710  0.1042
 6172W        W10372   4.771   5.980  12.545 -0.0253  0.3149  0.2947
 6173W        W10373   7.860   9.177   9.629 -0.0615 -0.0049  0.0752
 6174W        W10374   6.994   1.323   0.316  0.3809 -0.2182 -0.0239
 6175W        W10375   7.817   7.032   9.547 -0.1924  0.0954  0.2105
 6176W        W10376   9.485   6.486  11.025 -0.1591  0.2479  0.1411
 6177W        W10377   7.800   2.440   0.996  0.2012 -0.0648 -0.0431
 6178W        W10378   9.470   4.038  13.290  0.0883  0.0763  0.2928
 6179W        W10379   9.397   1.738   3.485 -0.0829 -0.1678  0.2001
 6180W        W10380   5.010   2.432  11.108  0.2171  0.1689  0.1741
 6181W        W10381   8.067   1.415  12.223  0.4155 -0.0828  0.1935
 6182W        W10382   0.913   6.482   9.825  0.0696  0.1333  0.1491
 6183W        W10383   1.541   6.006   2.427  0.2588  0.3603 -0.0969
 6184W        W10384   7.521   4.124  12.793  0.0194 -0.2750 -0.0366
 6185W        W10385   1.692   1.995  11.881  0.2629 -0.2142  0.0248
 6186W        W10386   4.353   9.607   1.028 -0.2280 -0.5374 -0.3025
 6187W        W10387   6.627   4.848   0.070 -0.0125  0.0726 -0.0450
 6188W        W10388   6.682   3.771  13.032  0.0319  0.0491 -0.0861
 6189W        W10389   6.587   1.960   3.079  0.3398  0.0357  0.0003
 6190W        W10390   7.037   2.890  12.662 -0.2429  0.0380  0.0815
 6191W        W10391   7.132   2.134   2.244  0.4254 -0.1588 -0.2879
 6192W        W10392   8.824   0.486   2.802 -0.0610  0.0663 -0.1633
 6193W        W10393   9.443   1.101   3.444 -0.1754  0.0976 -0.0816
 6194W        W10394   3.343   5.677   2.197 -0.3001 -0.0603  0.0954
 6195W        W10395   8.278   0.579   2.620  0.0810 -0.1172 -0.1731
 6196W        W10396   0.661   3.310   0.561  0.1349  0.2823  0.2018
 6197W        W10397   1.182   3.522   9.771 -0.1889  0.1504 -0.0644
 6198W        W10398   2.736   4.733   0.826  0.1067 -0.2273 -0.1329
 6199W        W10399   0.175   2.209   2.101 -0.1016  0.3330 -0.0284
 6200W        W10400   1.735   7.455  11.110  0.1024 -0.4169  0.1536
 6201W        W10401   2.007   5.019  13.263  0.2782 -0.1368  0.1552
 6202W        W10402   2.832   7.254   1.601 -0.1317 -0.0316 -0.2084
 6203W        W10403   6.029   2.276  11.209 -0.0496  0.0843  0.1603
 6204W        W10404   5.377   0.652   2.032  0.4398  0.0723  0.0925
 6205W        W10405   7.477   3.622   0.019 -0.1400 -0.1691 -0.0476
 6206W        W10406   8.143   8.517  13.406 -0.0617 -0.1144 -0.3056
 6207W        W10407   1.316   4.415  13.186 -0.0213  0.0457  0.0624
 6208W        W10408   6.266   5.492  10.271  0.0777 -0.1347 -0.1424
 6209W        W10409   7.084   1.832   2.782  0.1223 -0.0736  0.0524
 6210W        W10410   5.786   2.554  10.861  0.2369  0.2264  0.1557
 6211W        W10411  10.362   4.248  13.237 -0.0763  0.3271  0.0302
 6212W        W10412   4.371   0.829   0.662  0.1879  0.1216 -0.0415
 6213W        W10413   9.417   4.120   4.657 -0.5116 -0.0596 -0.0479
 6214W        W10414   5.860  10.156   3.525 -0.0271  0.2072 -0.6117
 6215W        W10415   0.605   8.563   4.025  0.1217  0.1201  0.1552
 6216W        W10416   1.647   9.821   3.172 -0.1095  0.1799 -0.3132
 6217W        W10417   5.540   1.504  12.601  0.1751 -0.0484 -0.3523
 6218W        W10418   7.542   7.109   4.363 -0.1092 -0.2893  0.0094
 6219W        W10419   9.839   9.762  12.760 -0.2200 -0.0961  0.0962
 6220W        W10420   5.619   3.655   9.239  0.1950  0.1884  0.2065
 6221W        W10421   0.281   1.522   1.705  0.1929 -0.0184 -0.0531
 6222W        W10422   5.497   1.829  10.449 -0.0368 -0.1438 -0.1605
 6223W        W10423   5.246   2.311  10.148  0.2497  0.0272  0.2598
 6224W        W10424   2.802   0.751  10.110  0.1004 -0.2809 -0.0380
 6225W        W10425   3.219   6.541  12.251 -0.0139  0.0321  0.2458
 6226W        W10426   8.499   9.204   9.285  0.1058 -0.0714 -0.1862
 6227W        W10427   2.553   3.733  12.837 -0.1293 -0.0313  0.0730
 6228W        W10428   6.847   4.153  13.377  0.3154  0.1143 -0.3005
 6229W        W10429   4.019   9.197   0.355 -0.1858  0.0341  0.0186
 6230W        W10430   6.355   7.126   9.834  0.1976 -0.1644  0.1730
 6231W        W10431   0.915   5.769  11.292 -0.1346  0.2342  0.2466
 6232W        W10432   2.951   3.181   9.579  0.0403  0.0131 -0.0968
 6233W        W10433   7.483   3.056  10.831 -0.1006  0.0590  0.0014
 6234W        W10434   4.266   7.904  11.477  0.2591  0.1122 -0.0332
 6235W        W10435   1.014   3.943   9.572  0.0486 -0.2137  0.0271
 6236W        W10436   5.605   6.458   3.664 -0.0686  0.1194 -0.0762
 6237W        W10437   8.175   2.951   3.178  0.1529  0.1864  0.1901
 6238W        W10438   0.886   2.256  12.124 -0.1220 -0.2851 -0.0169
 6239W        W10439   4.304   8.548   2.729 -0.1596  0.0064  0.2278
 6240W        W10440   3.822   3.232  13.496 -0.4251  0.1471 -0.1168
 6241W        W10441  10.411   5.179   4.039  0.0717 -0.1011  0.0116
 6242W        W10442   7.266   5.142   1.292  0.0430 -0.3302  0.1177
 6243W        W10443   1.942   3.411  13.266  0.3213 -0.1932 -0.2074
 6244W        W10444   6.605   7.787   3.570 -0.0179  0.0526  0.3416
 6245W        W10445   1.498   6.548  11.407  0.2538 -0.1755  0.0713
 6246W        W10446   5.787   3.929   4.707  0.0860 -0.2322 -0.1331
 6247W        W10447   7.415   7.208  10.752 -0.1815  0.0928 -0.2019
 6248W        W10448   6.615   9.777   4.373 -0.0199  0.3853 -0.0263
 6249W        W10449   5.629   5.810   2.605  0.1947 -0.2297  0.0599
 6250W        W10450   6.991   9.354   2.096 -0.0040 -0.1805  0.1803
 6251W        W10451   2.744   5.929  10.989  0.4122  0.0556  0.0227
 6252W        W10452   2.994   7.037   2.648  0.1701 -0.3739  0.0406
 6253W        W10453   4.945   6.713  10.890 -0.0754 -0.3528 -0.0963
 6254W        W10454   3.847   1.786   3.309  0.0190  0.3075 -0.3180
 6255W        W10455   0.937   7.821   0.508 -0.3554 -0.0034 -0.1058
 6256W        W10456   3.448   4.506  11.534 -0.1245  0.2614 -0.3258
 6257W        W10457   1.264   5.357   2.228 -0.1895  0.0833  0.1548
 6258W        W10458   5.147   0.850   1.355 -0.3711 -0.0327  0.4627
 6259W        W10459   7.468   3.337   9.977 -0.1529 -0.3556 -0.0906
 6260W        W10460   9.876   3.944  10.154 -0.1515  0.0306  0.0606
 6261W        W10461   9.270   2.265   4.333 -0.4370  0.2716 -0.1214
 6262W        W10462   3.598   7.507  12.494  0.2104 -0.1871  0.0021
 6263W        W10463   6.065   5.794  11.911 -0.0822  0.0909 -0.0160
 6264W        W10464   6.291   8.230  12.407  0.1390  0.2246 -0.0438
 6265W        W10465   6.588   3.741  10.056  0.0158 -0.0284 -0.0202
 6266W        W10466   7.743   7.142   2.239 -0.2451  0.4689  0.2054
 6267W        W10467   7.201   0.352   0.727 -0.1528  0.0120 -0.2932
 6268W        W10468   9.310   5.826  10.747 -0.2074 -0.3212  0.0536
 6269W        W10469   1.598   2.763   9.886  0.3287 -0.2530  0.3807
 6270W        W10470   9.039   4.658   1.622 -0.0396  0.2966 -0.1502
 6271W        W10471   7.489   2.232  11.743 -0.0332 -0.0378  0.1040
 6272W        W10472   3.177   2.977  12.506  0.4742  0.0167 -0.0251
 6273W        W10473   7.883   5.925   2.368  0.0043 -0.0966  0.1431
 6274W        W10474   0.550   6.774   4.511 -0.3531 -0.1414 -0.1103
 6275W        W10475   9.374   4.166  10.902  0.2004 -0.1335 -0.3105
 6276W        W10476   9.907   1.132   3.697 -0.3447  0.2651  0.0505
 6277W        W10477   3.063   4.757   4.869  0.2517  0.0191 -0.1249
 6278W        W10478   9.275   6.409   5.737 -0.1762 -0.2730 -0.1478
 6279W        W10479   0.909   6.956   2.272  0.3815 -0.0390 -0.0208
 6280W        W10480   4.788   0.024  12.141 -0.0248  0.1292 -0.1623
 6281W        W10481   2.929   9.361  12.150 -0.0765  0.1811 -0.0499
 6282W        W10482   5.267   3.766   3.415  0.2208 -0.3756 -0.2827
 6283W        W10483   5.602   9.985   0.908  0.1329 -0.0642 -0.1352
 6284W        W10484   3.356   8.302   8.495 -0.0055  0.1656  0.0916
 6285W        W10485   1.500   8.804   4.224  0.0445 -0.0217  0.1734
 6286W        W10486   8.860   1.505  10.422 -0.0238  0.1452 -0.2129
 6287W        W10487   3.188   0.109  10.920 -0.1368  0.2324  0.0586
 6288W        W10488   8.669   5.324  12.603  0.1084  0.0058  0.0502
 6289W        W10489  10.054   6.499  11.645 -0.1015  0.1258  0.0438
 6290W        W10490   5.484   3.806  11.605 -0.1233 -0.3835 -0.0436
 6291W        W10491   2.647   6.535  12.426 -0.1473  0.2296  0.2878
 6292W        W10492   2.342   1.122   2.220 -0.0278  0.1657  0.0249
 6293W        W10493   8.307   8.037   2.527 -0.1787  0.1063 -0.1930
 6294W        W10494   6.175   4.162   2.667 -0.1597  0.3589 -0.3613
 6295W        W10495   3.513   5.162   1.624 -0.1072  0.0061 -0.0010
 6296W        W10496   0.063   8.427   0.393 -0.4357  0.2259  0.4536
 6297W        W10497   3.976   7.187  10.456 -0.0385 -0.0311 -0.0709
 6298W        W10498   0.226   7.737  12.915 -0.0345 -0.2287  0.2361
 6299W        W10499   6.413   2.548  11.827 -0.0023 -0.2476 -0.1777
 6300W        W10500   3.188   4.120   0.342  0.4184  0.2937  0.1007
 6301W        W10501   0.204   0.318   2.373  0.0404 -0.1330  0.0630
 6302W        W10502   6.868   8.053   1.453 -0.0355 -0.3267 -0.1528
 6303W        W10503   0.801   1.123   2.126 -0.0165  0.0234 -0.0442
 6304W        W10504   5.529   7.943   3.223 -0.0550 -0.0298  0.1212
 6305W        W10505   8.714   4.267   1.785 -0.0628 -0.1215  0.0196
 6306W        W10506   9.844   2.917   2.750  0.1428  0.4285 -0.1293
 6307W        W10507   7.978   0.935   2.379  0.0980  0.1342 -0.0004
 6308W        W10508   5.710   2.899  11.273  0.1189  0.2330  0.6443
 6309W        W10509   3.341  10.045   3.506  0.1298 -0.1535 -0.1467
 6310W        W10510   3.320   0.576   9.208  0.2420 -0.2435  0.1014
 6311W        W10511   9.433   4.468   1.399 -0.5848  0.0896 -0.1269
 6312W        W10512   9.642   6.847  11.346  0.1725 -0.2525  0.3781
 6313W        W10513   2.254   6.973   0.267  0.2203 -0.0366 -0.2655
 6314W        W10514   8.584   3.631  12.338  0.0771 -0.0569 -0.0843
 6315W        W10515   9.648  10.213   3.232  0.1104  0.3121  0.0305
 6316W        W10516   9.715   5.352  10.304  0.2033 -0.1303 -0.1915
 6317W        W10517   2.924   8.833  11.934  0.1491  0.2885 -0.2689
 6318W        W10518   8.173   9.503  13.320  0.1084  0.0836 -0.2312
 6319W        W10519   9.081   4.958  11.892  0.1771  0.1589 -0.2803
 6320W        W10520   2.115   2.885  11.710 -0.0567  0.0446 -0.0783
 6321W        W10521   4.803  10.142   4.505  0.2801  0.0631 -0.1669
 6322W        W10522   5.290   6.785   1.537  0.2227  0.3006  0.3688
 6323W        W10523   7.991   8.213   0.824 -0.2033 -0.2680 -0.0055
 6324W        W10524   4.466   1.960   9.508  0.1564  0.0348 -0.1844
 6325W        W10525   2.422   1.219   1.707  0.4700 -0.2279 -0.0117
 6326W        W10526   1.108   3.839   2.482  0.0899  0.0286 -0.0608
 6327W        W10527   9.339   9.387  11.383  0.1224  0.0864 -0.1734
 6328W        W10528   4.059   3.412  12.656  0.1268  0.2640 -0.0983
 6329W        W10529   6.762   6.505   1.339  0.2000  0.0301  0.2663
 6330W        W10530   2.924   7.704   1.451  0.0710 -0.1621 -0.1329
 6331W        W10531   2.569   3.178  13.182 -0.0562 -0.1766 -0.1758
 6332W        W10532   4.777   2.383   3.712 -0.1626 -0.0985 -0.2578
 6333W        W10533   8.746   1.025  10.741  0.1470 -0.0481 -0.0466
 6334W        W10534   3.897   2.816   3.714  0.3262  0.0805  0.0240
 6335W        W10535   5.248   1.434   1.048 -0.0709  0.0496 -0.0348
 6336W        W10536   6.423   1.660   1.797 -0.0402 -0.0161 -0.0198
 6337W        W10537   4.963   5.186   4.961 -0.0054  0.0430  0.0276
 6338W        W10538   7.918   4.782   3.413 -0.0907 -0.1148  0.1434
 6339W        W10539   2.392   8.931   5.103 -0.0976  0.3715 -0.2772
 6340W        W10540   5.725   4.996   3.661  0.5189 -0.1158  0.1504
 6341W        W10541   5.792   1.387   2.711 -0.2965  0.2967  0.2977
 6342W        W10542   4.080   5.248  12.961  0.0660  0.0114 -0.1641
 6343W        W10543   0.757   3.757   0.317  0.1833 -0.1406  0.0113
 6344W        W10544   9.651   6.146  13.442  0.1758  0.1711  0.1544
 6345W        W10545   5.283   8.058   9.132 -0.0841 -0.1318 -0.0330
 6346W        W10546   6.810   9.844  10.813 -0.1385  0.0130  0.0457
 6347W        W10547   6.069   3.046   4.684 -0.0474  0.3449  0.0812
 6348W        W10548   2.773   6.898  10.290  0.1105  0.4142  0.3132
 6349W        W10549   8.624   0.382   0.312 -0.1012 -0.0926  0.2823
 6350W        W10550   6.711   1.202   9.917  0.1028 -0.4293  0.1297
 6351W        W10551   6.021   9.988   2.659 -0.3418 -0.4117  0.0143
 6352W        W10552   3.813   1.739   4.350 -0.0619  0.4810 -0.0497
 6353W        W10553   9.040   7.516   0.765  0.4402  0.1538  0.4313
 6354W        W10554   7.725   6.143   2.758  0.2285 -0.2705 -0.3373
 6355W        W10555   6.104   8.144   0.776 -0.0210 -0.1588  0.0824
 6356W        W10556   9.279  10.316  12.769 -0.2000  0.2284  0.0196
 6357W        W10557   0.818   3.212  12.100  0.0431 -0.2445 -0.2093
 6358W        W10558   7.917   0.222   4.388 -0.0424  0.1044 -0.0273
 6359W        W10559   9.025   5.106  12.887 -0.0128  0.4439 -0.4004
 6360W        W10560   5.317   8.925   9.704 -0.2423 -0.0134  0.1052
 6361W        W10561   9.193   8.127  12.113  0.3124  0.1815 -0.2115
 6362W        W10562  10.317   1.239   2.500 -0.0155 -0.1104 -0.2630
 6363W        W10563   3.412   7.904   0.633  0.4024  0.2746 -0.3611
 6364W        W10564   7.213   4.968  11.221 -0.3037  0.0759  0.2013
 6365W        W10565   6.732   9.394   2.628 -0.0469 -0.1021  0.1584
 6366W        W10566   1.627   6.485   0.639  0.1605  0.3688 -0.0791
 6367W        W10567   9.920   7.150  11.758 -0.2039  0.1151 -0.1822
 6368W        W10568   4.652   5.155   9.929  0.0665  0.0943 -0.0799
 6369W        W10569   3.655   9.818  11.665 -0.1190  0.0531  0.0793
 6370W        W10570   0.570   2.541   4.420 -0.1716  0.4988 -0.3784
 6371W        W10571   5.323   7.577   2.898  0.1771  0.0093 -0.0207
 6372W        W10572   1.449   5.969   0.654  0.1178  0.0353 -0.1067
 6373W        W10573   3.134   7.257  10.356  0.1865 -0.2308  0.1516
 6374W        W10574   6.623   1.687   9.660 -0.2685  0.4930  0.0154
 6375W        W10575   9.445   2.014  10.790  0.2699 -0.2601 -0.3310
 6376W        W10576   5.904  10.382  13.451 -0.2179  0.2897  0.0813
 6377W        W10577   1.791   8.586   8.956  0.3069 -0.0200  0.1010
 6378W        W10578   3.521   7.519   9.977 -0.0554 -0.0143 -0.1973
 6379W        W10579   9.028   1.775   1.834 -0.1419  0.1280  0.2134
 6380W        W10580   8.088   3.876  11.553  0.2005  0.0512 -0.3169
 6381W        W10581   3.368   2.906  11.056 -0.1671  0.0077  0.1151
 6382W        W10582   3.958   6.453   1.348 -0.1614  0.1433  0.2568
 6383W        W10583   1.677   7.736   3.486 -0.1509 -0.2435 -0.2349
 6384W        W10584   4.808   4.973   4.089 -0.3402  0.1561  0.0329
 6385W        W10585   3.364   2.636  10.259  0.0757 -0.2366  0.3045
 6386W        W10586   7.237   4.909  12.949  0.2540 -0.3870  0.4259
 6387W        W10587   3.930   8.765  13.011 -0.0036  0.1757 -0.1387
 6388W        W10588   4.594  10.238  13.009  0.0971 -0.0293  0.0903
 6389W        W10589   2.339   4.041   2.083  0.0205 -0.0278 -0.2981
 6390W        W10590   0.976   8.230   4.078 -0.0054 -0.2739 -0.3913
 6391W        W10591   5.715   7.663   4.797  0.3609  0.0398 -0.0475
 6392W        W10592   4.835   0.855  10.145  0.1236 -0.1061 -0.0314
 6393W        W10593   2.848   2.029  12.484  0.0287  0.0004  0.2586
 6394W        W10594   1.602   9.213  10.009 -0.0356 -0.0360 -0.3095
 6395W        W10595   2.546   1.541   1.367 -0.2147  0.4122  0.1448
 6396W        W10596   7.009   4.876  12.274 -0.0538  0.1057  0.1497
 6397W        W10597   6.770   7.790   2.041 -0.1035 -0.3953  0.1343
 6398W        W10598   1.924   2.018   3.530 -0.1015  0.0452  0.2984
 6399W        W10599   9.698   4.850   1.016 -0.0143  0.2238  0.2317
 6400W        W10600   7.224  10.099  10.505  0.1231  0.0668  0.0500
 6401W        W10601   7.071   2.705   2.721 -0.0196 -0.0061  0.0064
 6402W        W10602   0.073   8.512   1.375  0.0269  0.4299  0.1304
 6403W        W10603   4.681   4.675   9.938 -0.0808 -0.1137 -0.0790
 6404W        W10604   5.237   3.873  12.874 -0.2418  0.3095 -0.2206
 6405W        W10605   7.563   7.294  12.143 -0.0381  0.1996  0.2337
 6406W        W10606   6.261   7.344  12.877  0.0863 -0.2973  0.2146
 6407W        W10607   8.837   8.615   3.302  0.1891  0.3649 -0.1454
 6408W        W10608   4.247   0.348   0.024 -0.0395  0.0500  0.2047
 6409W        W10609   3.038   4.897  12.850 -0.0939  0.0888 -0.1861
 6410W        W10610   8.301   4.591   3.112  0.0039  0.1906  0.1519
 6411W        W10611   9.268   5.202   4.579  0.0859 -0.3205 -0.1387
 6412W        W10612   6.773   9.141  11.422 -0.0634  0.5083 -0.2737
 6413W        W10613   7.091   5.756  11.685 -0.1635 -0.0377  0.0272
 6414W        W10614   4.724   2.897   1.580  0.3016 -0.2375 -0.0399
 6415W        W10615   5.395   7.309   2.490 -0.0935  0.0370 -0.0508
 6416W        W10616   0.393   7.141  13.366  0.0746 -0.2097  0.1480
 6417W        W10617   5.333   1.016   9.817 -0.0236  0.0200 -0.0005
 6418W        W10618   0.146   3.994   2.443 -0.2064 -0.1887 -0.1290
 6419W        W10619  10.433   5.156   9.654  0.2849  0.1264  0.0247
 6420W        W10620   4.533   7.001  12.709 -0.1293 -0.2090 -0.1685
 6421W        W10621   9.082   8.467   0.622 -0.2567 -0.1783  0.0013
 6422W        W10622   7.700   4.277   4.515  0.0836  0.4199  0.2453
 6423W        W10623   4.199   3.627   0.581  0.1788 -0.1319 -0.1049
 6424W        W10624   3.583   9.608   3.688 -0.0069  0.0368  0.2595
 6425W        W10625  10.099   5.720   4.081 -0.1650 -0.0716 -0.2447
 6426W        W10626   6.546   5.428   3.689  0.2285  0.0524 -0.0185
 6427W        W10627   2.657   6.350  13.263  0.0233  0.1419  0.1348
 6428W        W10628   7.173   2.917  13.356 -0.0717  0.4731  0.3286
 6429W        W10629   9.863   8.199   3.381  0.1973 -0.0889  0.1432
 6430W        W10630   4.544   8.983   2.966  0.1889  0.3508 -0.2877
 6431W        W10631   7.737   4.148   0.030  0.3896 -0.1196  0.1105
 6432W        W10632   3.646   9.284  10.567 -0.0067 -0.1565  0.0357
 6433W        W10633   3.885   9.122   8.856 -0.1419  0.4248  0.3913
 6434W        W10634   1.584   0.855  10.286  0.0403  0.1759  0.3341
 6435W        W10635   9.896   8.017  11.719  0.0451 -0.0727 -0.0307
 6436W        W10636   9.053   6.862   5.064  0.0198  0.3337  0.0029
 6437W        W10637   0.756   9.366  11.529  0.1112  0.2860  0.1624
 6438W        W10638   9.852   0.308   2.476 -0.2014  0.0594  0.0813
 6439W        W10639   5.473   3.389  13.171  0.0035  0.3073 -0.1846
 6440W        W10640   3.355   5.615  12.728  0.1559 -0.0503  0.0484
 6441W        W10641   5.278   3.250   8.412 -0.2113  0.3649 -0.1078
 6442W        W10642   6.247   4.056  12.681 -0.1042  0.2476 -0.1727
 6443W        W10643   6.426   6.760  12.540  0.0266 -0.0407 -0.1270
 6444W        W10644   4.181   4.159   0.799  0.1559  0.0040 -0.1977
 6445W        W10645   1.566   5.058   3.277 -0.1952  0.2939 -0.1546
 6446W        W10646   0.082   6.945   4.954 -0.0340  0.1392 -0.0989
 6447W        W10647   9.367   2.499  13.443 -0.2893  0.1816 -0.1270
 6448W        W10648   7.147   6.140   9.585 -0.2599  0.3216 -0.1542
 6449W        W10649   0.052   9.105  10.243 -0.1200 -0.1672 -0.2072
 6450W        W10650   4.598   9.119  12.348 -0.1096 -0.1699 -0.2360
 6451W        W10651   6.160   1.626   9.326  0.3216  0.0007  0.3485
 6452W        W10652   4.870   7.733  12.620 -0.0433 -0.1664 -0.0394
 6453W        W10653   2.161   9.891   1.579  0.2370  0.0139  0.0814
 6454W        W10654   7.756   8.999   1.866  0.1250 -0.0962 -0.1224
 6455W        W10655   4.339   8.274   8.130 -0.0992 -0.3031 -0.1322
 6456W        W10656   2.072   1.175   3.246  0.0477  0.0573  0.0752
 6457W        W10657   4.048   6.052  10.527 -0.0380  0.1053 -0.2065
 6458W        W10658   8.783   2.718   9.306 -0.2142 -0.1269  0.2480
 6459W        W10659   8.209   0.581   2.060  0.4152  0.1361 -0.0723
 6460W        W10660   3.864   4.192  11.654 -0.1441  0.0779  0.1782
 6461W        W10661   9.558   0.642   0.460 -0.0635 -0.0020 -0.1113
 6462W        W10662  10.157   6.141   9.318  0.1611 -0.1229  0.1684
 6463W        W10663   2.671   3.972   4.572  0.0814  0.3731  0.1916
 6464W        W10664  10.262   0.090  12.987  0.1943 -0.1483 -0.2196
 6465W        W10665   0.273   3.109   0.778 -0.0767  0.1453 -0.4725
 6466W        W10666   4.303   5.779   3.767  0.3573 -0.2751 -0.1351
 6467W        W10667   2.330   3.541   4.722  0.0308  0.0382  0.1578
 6468W        W10668   1.023   5.724   4.432 -0.0475 -0.1937  0.1395
 6469W        W10669  10.423   9.819   0.004  0.1905  0.3491  0.2811
 6470W        W10670   1.373   2.840   4.265 -0.0609  0.1368 -0.1666
 6471W        W10671   3.494   7.342   3.567  0.0085 -0.0683  0.3753
 6472W        W10672   2.642   7.650   0.543 -0.4090 -0.0876 -0.1752
 6473W        W10673   2.588   9.161   9.056  0.2727  0.0691  0.1688
 6474W        W10674   0.370   8.907  13.485 -0.1064 -0.2542  0.2455
 6475W        W10675   8.509   2.782   5.325 -0.0276  0.0735 -0.4022
 6476W        W10676   5.191   3.238   9.430 -0.4148 -0.1498 -0.0405
 6477W        W10677   3.702   1.837  10.884 -0.2165  0.0436  0.1434
 6478W        W10678   5.602   4.069  12.016 -0.0585 -0.5391  0.0122
 6479W        W10679   5.817   3.620  12.874  0.3923  0.0451 -0.2677
 6480W        W10680   4.382   3.483   2.792  0.1812  0.0491  0.4588
 6481W        W10681  10.332   4.842   1.178  0.0297  0.1036  0.1261
 6482W        W10682   2.623   2.931   0.262  0.0543 -0.0478  0.0074
 6483W        W10683   3.439   6.155  11.928 -0.1789  0.0477  0.1058
 6484W        W10684   2.929   8.716   2.789 -0.1776 -0.4690  0.2308
 6485W        W10685   9.450   5.014   1.450 -0.0345 -0.0319 -0.2336
 6486W        W10686   3.861   3.302  12.181  0.0363  0.2060  0.0209
 6487W        W10687   8.161   4.962   8.810  0.1517  0.0213 -0.0571
 6488W        W10688   9.230   9.133   2.711 -0.2880 -0.2248  0.1618
 6489W        W10689   9.228   4.257   0.605  0.0638 -0.1497 -0.0451
 6490W        W10690   6.298   4.688  12.702 -0.0051  0.1193 -0.0252
 6491W        W10691   3.883   4.113  12.172  0.1990 -0.0807  0.0737
 6492W        W10692   6.809   4.368   9.763 -0.1733 -0.3662  0.0088
 6493W        W10693   0.620  10.361  13.399 -0.2775  0.1377  0.1234
 6494W        W10694   4.218   0.853  12.186  0.2605 -0.0018  0.0649
 6495W        W10695   4.530   8.877  11.688 -0.2040  0.2094  0.2565
 6496W        W10696   6.797   9.462  10.494 -0.2569 -0.0343 -0.0926
 6497W        W10697   1.704   6.766   3.272 -0.1870  0.2855  0.0791
 6498W        W10698   7.886   7.078  10.797 -0.2001 -0.0158  0.1941
 6499W        W10699   2.586   6.974   1.197  0.2186 -0.1080  0.0005
 6500W        W10700   3.369   2.199   9.675  0.1379  0.1363  0.0438
 6501W        W10701   9.070   6.568   9.992  0.0290  0.1718  0.3639
 6502W        W10702   2.626   9.996   3.438  0.0294  0.0864 -0.0921
 6503W        W10703   6.191   8.902   3.584 -0.0496 -0.0871  0.0476
 6504W        W10704   1.215   3.365  11.152 -0.2679  0.0792  0.1559
 6505W        W10705   7.266   2.141   0.206  0.1159  0.0454 -0.0412
 6506W        W10706   1.203   5.029   9.210 -0.0269 -0.0864  0.2011
 6507W        W10707   3.688  10.169   0.010  0.1943 -0.2759 -0.1907
 6508W        W10708   5.768   1.900   0.618  0.0825 -0.2464  0.3082
 6509W        W10709   8.403  10.317   1.466  0.1435 -0.2071 -0.0140
 6510W        W10710   6.095   0.871   2.876  0.0289 -0.0340 -0.1486
 6511W        W10711   1.983   0.774   2.001 -0.1090 -0.0544  0.2002
 6512W        W10712   5.090   1.695   9.466 -0.0665 -0.0500 -0.2345
 6513W        W10713   4.981   6.026   8.440 -0.1486 -0.1653 -0.0972
 6514W        W10714   0.732   2.435   3.968  0.0163  0.3143 -0.2278
 6515W        W10715   3.265   6.966   3.836 -0.1137 -0.1591 -0.1084
 6516W        W10716   0.500   7.755   4.368  0.1234 -0.1676 -0.1259
 6517W        W10717   3.906   6.806   0.470 -0.1903 -0.3702 -0.0767
 6518W        W10718   4.606   0.801   2.369 -0.0656  0.3378  0.0655
 6519W        W10719   1.131   2.909  11.566  0.0372 -0.0348  0.0541
 6520W        W10720   7.704   8.293   9.618 -0.2283 -0.0190 -0.0364
 6521W        W10721   8.510   6.039   0.797  0.2271  0.1967 -0.1436
 6522W        W10722   5.879   0.654  11.687 -0.0961  0.0366 -0.0651
 6523W        W10723   2.551   3.022  10.838  0.1042  0.1953 -0.0949
 6524W        W10724   0.109   7.737   4.022 -0.1436 -0.0711  0.2186
 6525W        W10725   2.912   7.526   3.416 -0.0974  0.3340 -0.3243
 6526W        W10726   6.826   1.639  11.091 -0.0157 -0.0444  0.0965
 6527W        W10727   8.107   6.467   9.697  0.2241 -0.1142  0.0813
 6528W        W10728   4.740   8.368   1.790  0.0648 -0.1853  0.0680
 6529W        W10729   9.343   8.821   0.187 -0.2015 -0.2691 -0.0761
 6530W        W10730   0.470   3.636   0.832  0.0260 -0.1931  0.1301
 6531W        W10731   8.907   1.717  11.037 -0.0371  0.0354  0.0067
 6532W        W10732   0.623   0.895  10.608 -0.1137  0.0670  0.0858
 6533W        W10733   0.228   1.754  10.470 -0.2790  0.1923  0.2381
 6534W        W10734   4.117   9.945   4.180 -0.1701  0.1511 -0.0103
 6535W        W10735   3.528   7.721   3.220  0.2494 -0.1767  0.1589
 6536W        W10736   2.698   8.722  10.492  0.3453  0.1255  0.0212
 6537W        W10737   7.813   5.015   3.838  0.4780  0.1037 -0.2591
 6538W        W10738   4.136   9.106   3.345 -0.2453  0.0569  0.2239
 6539W        W10739   9.592   1.808   2.933 -0.1445 -0.1815 -0.0719
 6540W        W10740   6.883   5.426   8.502 -0.3629  0.1193  0.0931
 6541W        W10741   1.713   5.029   2.767  0.3689 -0.0338 -0.0062
 6542W        W10742   0.590   5.747  10.749  0.0015  0.0639  0.0035
 6543W        W10743   1.166   6.698   9.455 -0.2398 -0.0632 -0.1459
 6544W        W10744   3.127   5.759  12.018 -0.0956  0.3568  0.1444
 6545W        W10745   7.368   0.738   9.531 -0.3073  0.4300 -0.4374
 6546W        W10746   7.275   3.883  13.158 -0.1543 -0.2412  0.0138
 6547W        W10747   0.630   9.856   2.516 -0.1293 -0.0029 -0.2477
 6548W        W10748   4.042   2.151  11.116 -0.0875  0.1058  0.1735
 6549W        W10749   0.618   4.470  11.153  0.1952  0.1504 -0.2269
 6550W        W10750   3.921   4.970   1.851  0.1581  0.0393 -0.3166
 6551W        W10751   8.411   6.549   4.559  0.2090  0.3135 -0.1577
 6552W        W10752   2.032   7.531   3.843 -0.0926 -0.0220 -0.1688
 6553W        W10753   1.633   1.180  11.432  0.0171  0.0103 -0.2758
 6554W        W10754   2.758   7.480  10.030  0.2127  0.4374 -0.0270
 6555W        W10755   2.452  10.231  13.448  0.0075 -0.1781  0.3899
 6556W        W10756   9.755   3.263   3.102 -0.0975  0.2694 -0.1621
 6557W        W10757   2.195   4.808  11.388  0.0411 -0.2098  0.0944
 6558W        W10758   8.472   0.743  12.351 -0.2096  0.1111 -0.2995
 6559W        W10759   5.831   7.434   2.691  0.2323  0.0575 -0.0620
 6560W        W10760   6.651   6.346   2.766 -0.0583 -0.3606  0.1533
 6561W        W10761   1.360   9.475  11.411  0.1546 -0.1983  0.0895
 6562W        W10762   2.449   0.813   9.751 -0.3639 -0.3068  0.0914
 6563W        W10763   7.975   7.535   0.011  0.3242 -0.1665  0.2247
 6564W        W10764   6.001   6.071   2.524 -0.1790 -0.4209  0.1717
 6565W        W10765   3.148   7.305  11.710 -0.0057  0.0469  0.1774
 6566W        W10766   9.330   7.556   0.057  0.4566 -0.0482 -0.3507
 6567W        W10767   5.353   8.463   3.385  0.2306 -0.0232  0.2734
 6568W        W10768   6.733   5.938   0.302 -0.3429  0.0761 -0.0169
 6569W        W10769   0.168   9.816   1.913  0.0235 -0.2660  0.0331
 6570W        W10770   9.491   6.083   3.287 -0.0537 -0.0002 -0.0229
 6571W        W10771   9.649   5.584   4.308  0.1896 -0.0248 -0.5201
 6572W        W10772   1.431   4.454   4.403  0.0910  0.0884  0.3563
 6573W        W10773   4.224   5.359   9.774  0.5039  0.1905 -0.0733
 6574W        W10774   3.448   4.041   5.305 -0.3108 -0.0594  0.2502
 6575W        W10775   9.167   6.554   3.412  0.1550  0.0374 -0.1905
 6576W        W10776  10.243   4.721  13.343 -0.0937 -0.2621 -0.0764
 6577W        W10777   7.343   6.611   2.329 -0.0415 -0.3240  0.0221
 6578W        W10778   3.953  10.410   3.928  0.0211 -0.2800  0.0809
 6579W        W10779   7.515  10.123   2.620 -0.0009 -0.0492  0.2906
 6580W        W10780   0.690   0.655  12.571  0.1064  0.1826  0.1296
 6581W        W10781   6.931   2.386  11.710  0.1674  0.0730  0.0154
 6582W        W10782   8.662  10.008  10.934 -0.0214  0.0185  0.0055
 6583W        W10783   9.549   3.523   1.217 -0.0200  0.1233 -0.1044
 6584W        W10784   2.457   8.958   2.645 -0.2004  0.0984  0.0402
 6585W        W10785   4.253   2.225  11.726  0.0448  0.1272 -0.5908
 6586W        W10786   1.518   4.165   9.876  0.1011 -0.1597 -0.1138
 6587W        W10787   7.402  10.038   1.104  0.1693  0.2156  0.1139
 6588W        W10788   4.926   6.196   1.568  0.2024 -0.3645 -0.4250
 6589W        W10789  10.089   2.333   1.543  0.1056  0.0135 -0.2966
 6590W        W10790   2.364   9.805  12.788 -0.1572 -0.0109 -0.0754
 6591W        W10791   6.936   4.623  13.236 -0.0147 -0.1560  0.0897
 6592W        W10792   4.487   2.051   2.606 -0.2024  0.0628 -0.0795
 6593W        W10793   6.956  10.412  12.388 -0.0067  0.0105  0.2151
 6594W        W10794   4.166   9.817   1.952 -0.1142 -0.0897 -0.0328
 6595W        W10795   5.391   7.913  12.416  0.3063  0.1554  0.4664
 6596W        W10796   1.518   9.942  11.245  0.0109 -0.2435 -0.1833
 6597W        W10797   3.401   8.526   4.727  0.0421  0.1104  0.0800
 6598W        W10798   5.302   0.650   4.408 -0.2568  0.0657  0.2181
 6599W        W10799   8.224   0.101  11.709  0.4105 -0.0684  0.0893
 6600W        W10800   5.268   7.441  12.741  0.0515  0.0186  0.1333
 6601W        W10801   6.220   8.891  11.588  0.2967  0.2344  0.1470
 6602W        W10802   8.310   1.879   2.994  0.1354  0.2385  0.1197
 6603W        W10803  10.324   7.357  11.651 -0.0996 -0.1901  0.2080
 6604W        W10804   2.162   7.620  11.017  0.0730  0.0449  0.1636
 6605W        W10805   1.566   1.807   1.118 -0.2656  0.2067 -0.1362
 6606W        W10806   3.177   4.015   4.358 -0.0960  0.4613  0.1000
 6607W        W10807   6.503   3.812   1.737 -0.3742 -0.3381 -0.0392
 6608W        W10808   6.505   9.269   4.496 -0.1982 -0.1151  0.0138
 6609W        W10809   9.039   5.473  10.600  0.1087  0.1687 -0.0973
 6610W        W10810   1.273   1.031   0.558 -0.2933 -0.2916  0.2111
 6611W        W10811   8.691   7.089   2.760 -0.0604  0.3323 -0.2897
 6612W        W10812   6.090   4.806   9.500  0.0194  0.1819 -0.1436
 6613W        W10813   6.178   8.903   1.384 -0.2999  0.0883  0.0165
 6614W        W10814   9.179   7.006   9.761 -0.2113 -0.2318  0.0333
 6615W        W10815   3.677   7.961  13.256 -0.2725  0.2396 -0.0619
 6616W        W10816   1.611   8.494   3.863  0.1955 -0.0281  0.2101
 6617W        W10817   4.232   4.022  11.342  0.1678 -0.2691 -0.0965
 6618W        W10818   4.254   6.833   1.317 -0.0163 -0.2059 -0.1341
 6619W        W10819   6.581   6.039   1.332  0.0863 -0.1498  0.2246
 6620W        W10820   2.200   0.072  11.197  0.1014  0.2589 -0.1838
 6621W        W10821   7.465   1.118   2.326 -0.2261 -0.5749  0.0680
 6622W        W10822   2.309   6.161   9.953 -0.0495  0.3113  0.2207
 6623W        W10823   4.305   2.880   1.153 -0.2209 -0.2762  0.1920
 6624W        W10824   3.968   6.743  10.114  0.0565  0.0298  0.4306
 6625W        W10825   7.988   7.414   9.944 -0.3923 -0.1688 -0.1237
 6626W        W10826   2.005   8.938   9.939 -0.2092 -0.4726  0.0862
 6627W        W10827   9.142  10.321   1.937 -0.0020  0.3268 -0.0774
 6628W        W10828   2.862   3.168  10.202 -0.1531 -0.5341  0.2440
 6629W        W10829  10.278   7.406   3.133 -0.1610 -0.1058 -0.0337
 6630W        W10830   9.571   8.381   0.323  0.2301 -0.0522  0.3613
 6631W        W10831   0.360   7.722   3.021 -0.0780  0.4145 -0.2956
 6632W        W10832   7.960   1.521   2.774  0.0603 -0.2443 -0.3015
 6633W        W10833   7.254   7.847   4.785  0.0198 -0.0156  0.1452
 6634W        W10834   5.073   5.335   9.766  0.0648  0.0967  0.0967
 6635W        W10835   3.196   3.530   0.343 -0.4511  0.1477  0.2645
 6636W        W10836   8.006   7.157  13.146  0.4635  0.1767 -0.1564
 6637W        W10837   4.800   4.402  10.601  0.0628 -0.1610  0.0579
 6638W        W10838   7.111   0.463   1.689 -0.1959 -0.4591  0.0771
 6639W        W10839  10.233   5.726   5.052  0.1401 -0.0272  0.1954
 6640W        W10840   5.398   3.520   1.554  0.0194  0.3241 -0.3390
 6641W        W10841   8.236   5.325  11.860  0.4509 -0.1298  0.1488
 6642W        W10842   3.511   7.964   2.592  0.1797  0.2792 -0.0362
 6643W        W10843   7.450   9.496   3.935 -0.0814  0.0902 -0.2469
 6644W        W10844   1.504   3.864   3.625  0.1581 -0.2623  0.0527
 6645W        W10845   0.304   5.507   9.705  0.0339 -0.3800 -0.5047
 6646W        W10846   5.583   4.275   9.662 -0.0813 -0.0729 -0.0508
 6647W        W10847  10.004   0.981   1.591 -0.0040  0.1147  0.0800
 6648W        W10848   3.240   6.183   8.550 -0.3998  0.0847  0.0890
 6649W        W10849   0.037   4.157  10.699  0.1371 -0.0389 -0.1782
 6650W        W10850   9.036   0.499  10.034  0.0333  0.0887 -0.0062
 6651W        W10851   1.177   7.509   3.569  0.1483 -0.1032 -0.0004
 6652W        W10852   9.725   0.002  11.115 -0.0821  0.0716 -0.2360
 6653W        W10853   5.504   3.956   0.135 -0.2350  0.0258 -0.1286
 6654W        W10854   9.042   3.327  12.156  0.1759 -0.0158 -0.1471
 6655W        W10855   1.707   3.839  10.589 -0.2829  0.2571 -0.3734
 6656W        W10856   2.296   0.313  10.750 -0.1083  0.3619  0.2131
 6657W        W10857   9.660   2.713  11.139  0.0329  0.0010  0.0174
 6658W        W10858   3.231   5.680   1.026  0.1627 -0.0887 -0.2217
 6659W        W10859   4.274   0.094   3.551 -0.0114 -0.0799  0.0207
 6660W        W10860   8.736   4.207   0.788 -0.0624  0.0034  0.2191
 6661W        W10861   5.176   1.276  12.212 -0.2802 -0.2438 -0.0039
 6662W        W10862   2.080   3.278  11.239 -0.2433 -0.1212  0.2049
 6663W        W10863   6.116   3.773   3.089  0.0723  0.4508 -0.2263
 6664W        W10864   2.261   0.007   1.531 -0.1524  0.1869 -0.1011
 6665W        W10865  10.334   1.210  11.666  0.3341 -0.1235  0.0865
 6666W        W10866   0.261   6.601  10.600  0.2417  0.2963 -0.1415
 6667W        W10867   7.792   7.607  10.637  0.1159 -0.1476 -0.4010
 6668W        W10868   9.715   6.860  10.851  0.0204  0.2482  0.2400
 6669W        W10869   4.056   2.793   2.152  0.0525 -0.3040  0.2770
 6670W        W10870   1.203   0.965  11.298  0.0040  0.0018  0.2380
 6671W        W10871   9.154   2.494   1.126  0.2282 -0.1643  0.1370
 6672W        W10872   6.562  10.213   9.215 -0.1338  0.1871  0.1624
 6673W        W10873   4.161   5.574  10.733  0.0332 -0.0971  0.2967
 6674W        W10874   1.913  10.398   1.099 -0.1834  0.0522 -0.1614
 6675W        W10875   7.125   9.127   1.638  0.1888 -0.0811  0.1108
 6676W        W10876   2.035   6.066   2.250 -0.0282  0.0049 -0.4533
 6677W        W10877   5.434   2.566   0.191 -0.1690 -0.3272 -0.2806
 6678W        W10878   1.706   4.852   1.272 -0.5393  0.5063 -0.5383
 6679W        W10879   6.753   4.855  11.417  0.0723 -0.3542 -0.0094
 6680W        W10880   1.318   5.377   1.722  0.1418 -0.1990 -0.1708
 6681W        W10881   5.794   8.881   0.633  0.0574  0.1676 -0.1522
 6682W        W10882  10.036   0.004  10.661 -0.1126  0.0263 -0.1814
 6683W        W10883   7.498   2.983  12.919  0.0871 -0.2923  0.2431
 6684W        W10884   5.841   6.286   4.618  0.0921  0.0664  0.0688
 6685W        W10885   3.114   2.758   2.124  0.4215  0.0506 -0.3492
 6686W        W10886   6.118   8.621   0.986 -0.0904 -0.1011 -0.2512
 6687W        W10887   4.247   3.821   1.214 -0.2859  0.0011 -0.0836
 6688W        W10888   3.172   1.595   0.463  0.0519 -0.1811 -0.0022
 6689W        W10889   1.050   4.929   4.963 -0.1023  0.0599  0.1922
 6690W        W10890   0.942   4.548   1.023 -0.3339 -0.1422  0.1839
 6691W        W10891   6.823   6.985   9.797  0.1903 -0.1241  0.1355
 6692W        W10892   3.427   0.085   1.988 -0.1251 -0.1450 -0.1069
 6693W        W10893   4.624   3.708   2.179 -0.0544 -0.1107 -0.1898
 6694W        W10894   8.679   2.714  11.266 -0.0253  0.0650  0.0486
 6695W        W10895   4.196   1.010  13.169 -0.2406  0.0295  0.0755
 6696W        W10896   3.141   3.098   1.341 -0.1292  0.2618 -0.1713
 6697W        W10897   6.490   8.025   1.094 -0.1546  0.1452 -0.3705
 6698W        W10898   7.938   9.588  10.777  0.2221  0.1228 -0.1511
 6699W        W10899  10.025   0.072   0.010 -0.0049 -0.0366  0.0899
 6700W        W10900   4.777   7.901   3.931 -0.0563 -0.3438 -0.0762
 6701W        W10901   2.577   8.923   4.585  0.5092  0.3145  0.1656
 6702W        W10902   3.824   3.088   5.146 -0.0893 -0.1771  0.1106
 6703W        W10903   1.322   4.248   2.679 -0.2407 -0.1941 -0.2809
 6704W        W10904  10.370   2.499   2.925  0.1030  0.2510 -0.0154
 6705W        W10905   4.289   3.214   9.245  0.0221  0.3778  0.0806
 6706W        W10906   7.472   2.017   1.801  0.2131 -0.1570 -0.0562
 6707W        W10907   2.915   3.392  12.924  0.1427  0.1581  0.0634
 6708W        W10908   8.133   9.795   2.974  0.2198 -0.0359 -0.1312
 6709W        W10909   9.099   4.003  10.536  0.2890 -0.0079  0.0760
 6710W        W10910  10.257   4.264  11.080  0.0966  0.1512 -0.2264
 6711W        W10911   4.727   9.258   3.704 -0.1856  0.0139  0.1097
 6712W        W10912   5.650   4.020  13.113  0.2575  0.1841 -0.1078
 6713W        W10913   4.888   6.181   8.919 -0.2501 -0.0797  0.2296
 6714W        W10914   8.330   9.664   3.416  0.0355 -0.0738 -0.2781
 6715W        W10915   7.987   3.582   0.126 -0.2743  0.0099  0.0118
 6716W        W10916   4.157  10.087  13.296  0.0669 -0.0604  0.3602
 6717W        W10917   3.802   0.808   0.965 -0.1115  0.0815  0.0411
 6718W        W10918   2.636   9.571  13.146  0.1036 -0.0215  0.0397
 6719W        W10919   6.730   4.805   1.620  0.2795  0.0897  0.2087
 6720W        W10920   2.260   8.733   2.193  0.1358 -0.0692  0.0489
 6721W        W10921   0.102   4.601  12.331  0.2902  0.0869  0.4761
 6722W        W10922   0.381  10.341   2.600  0.0759 -0.0599 -0.4597
 6723W        W10923   6.620   3.583   3.250  0.0653  0.3079 -0.0216
 6724W        W10924   8.546   9.832  10.110  0.1270 -0.0947 -0.0834
 6725W        W10925   5.286   0.495  10.542 -0.0170 -0.0197  0.1425
 6726W        W10926   0.986   4.424   1.694 -0.3154  0.1658  0.0218
 6727W        W10927   7.768   0.261  11.893  0.0105 -0.1131  0.0552
 6728W        W10928   6.158   2.779   3.044  0.1102 -0.0256 -0.4100
 6729W        W10929   9.304   5.659   0.436 -0.1637 -0.3246 -0.0554
 6730W        W10930   7.768   1.808   2.290 -0.3173  0.0149  0.0163
 6731W        W10931   9.402   7.641  11.359  0.0172 -0.0626  0.1799
 6732W        W10932   1.190  10.346  11.319 -0.1544 -0.1842  0.2463
 6733W        W10933   5.896   6.979   8.632  0.0623 -0.2363  0.0481
 6734W        W10934   4.315   9.266   1.311  0.2179 -0.1123 -0.2886
 6735W        W10935   2.216   0.955  12.313  0.2540  0.4184 -0.0697
 6736W        W10936   5.559   4.903   4.553  0.0083 -0.0168 -0.0817
 6737W        W10937   2.602   8.882   3.141 -0.0743 -0.2702 -0.0990
 6738W        W10938   7.463   5.608   4.804 -0.1717  0.0010  0.1442
 6739W        W10939   1.896   6.508   9.855  0.0452 -0.0719  0.2730
 6740W        W10940   6.230  10.053   4.442 -0.0322 -0.1896 -0.1951
 6741W        W10941   7.590   7.284   0.211 -0.0714 -0.0208 -0.0079
 6742W        W10942   9.984   5.028  11.523 -0.1057  0.2254  0.0303
 6743W        W10943   9.463   0.282   2.770 -0.1602  0.0595  0.1470
 6744W        W10944   2.602   8.088   9.884  0.2157  0.1592 -0.1378
 6745W        W10945   2.229   3.143   0.098  0.0110 -0.1600  0.1166
 6746W        W10946   9.700   0.118  13.070 -0.1721 -0.2931 -0.1790
 6747W        W10947   8.263   0.057  12.567 -0.0036  0.2422 -0.1366
 6748W        W10948   3.219   3.317   0.890  0.0206 -0.2312  0.0268
 6749W        W10949   4.129   4.682   1.068 -0.0296 -0.1193  0.0450
 6750W        W10950   6.148   3.058   9.456 -0.1376 -0.1693 -0.0912
 6751W        W10951   7.058   9.176   9.139 -0.0637 -0.0910 -0.0981
 6752W        W10952   1.135   9.863  12.961  0.0178  0.2984  0.1869
 6753W        W10953   5.346   4.547   3.753  0.4242 -0.0665  0.0302
 6754W        W10954   1.070   7.641  11.593 -0.1569 -0.1256  0.2221
 6755W        W10955   8.691   0.293  12.500  0.0217  0.0587  0.1079
 6756W        W10956   1.453   6.342  10.948  0.0740 -0.2381 -0.0050
 6757W        W10957   1.623   2.671   3.897 -0.0175  0.1750 -0.0287
 6758W        W10958   3.601   4.275   2.871  0.1188  0.1270 -0.3582
 6759W        W10959   2.973   8.884   0.290 -0.0659  0.0044 -0.1057
 6760W        W10960   6.209   5.582  12.866 -0.1593 -0.0866  0.0645
 6761W        W10961   1.839   1.576   3.106  0.2812 -0.5164  0.1261
 6762W        W10962   0.837   7.704   1.930  0.0241 -0.1125  0.0018
 6763W        W10963   2.728   1.457   9.370  0.0187 -0.4101  0.1773
 6764W        W10964   1.325   0.857   2.116  0.0439  0.2322 -0.1191
 6765W        W10965   6.508   7.305  13.307 -0.1729  0.0660  0.0063
 6766W        W10966   6.959   1.283  13.251 -0.1177  0.1978 -0.1256
 6767W        W10967   9.651   6.746  11.927 -0.0572  0.3475 -0.0649
 6768W        W10968   1.387   5.842   2.862 -0.4664  0.0933  0.1178
 6769W        W10969   3.596   1.067  10.835 -0.3203 -0.3442 -0.4707
 6770W        W10970   5.118   9.200  12.780 -0.0447 -0.3176  0.0206
 6771W        W10971   1.607   7.009   9.768  0.0178  0.1594  0.0396
 6772W        W10972   1.400   3.939   4.145 -0.0889 -0.2215  0.4937
 6773W        W10973   9.697   2.394  12.489 -0.1374 -0.1948  0.2064
 6774W        W10974   4.390   0.026  10.925  0.0837  0.0479  0.1693
 6775W        W10975   2.679   5.053   2.192  0.2731  0.3030 -0.0162
 6776W        W10976   1.924   8.877   3.913  0.0857 -0.2733  0.2158
 6777W        W10977   7.649   8.960  10.007 -0.0710  0.1754  0.0135
 6778W        W10978   0.492   5.085   4.030  0.0354 -0.3506 -0.0378
 6779W        W10979   4.273   7.860  11.991  0.1561 -0.0629 -0.1314
 6780W        W10980   0.314   7.702  12.409 -0.0219  0.0072 -0.3658
 6781W        W10981   4.686   5.165   1.346  0.0264 -0.1762  0.2063
 6782W        W10982   5.205   5.814  11.902 -0.1345 -0.0526 -0.2705
 6783W        W10983   6.113   1.201   0.552 -0.0165 -0.2343  0.1266
 6784W        W10984   3.392   3.597   3.482  0.0371 -0.2428  0.3003
 6785W        W10985   7.503   6.265  10.416 -0.2346 -0.1993 -0.5982
 6786W        W10986   7.864   4.787   0.053 -0.0099 -0.0890  0.5354
 6787W        W10987   6.291  10.329  12.041  0.1701 -0.0058 -0.1940
 6788W        W10988   3.179   6.185  10.017  0.1437 -0.1428  0.3610
 6789W        W10989   4.864   4.868   8.991  0.2024 -0.1659  0.0444
 6790W        W10990   7.026   0.828   2.398 -0.2061  0.2118 -0.1785
 6791W        W10991   6.434   0.481   2.436  0.0732 -0.3223 -0.1969
 6792W        W10992   8.227   4.721  12.781  0.1723  0.0115  0.3807
 6793W        W10993   0.238   9.411  12.969 -0.0103  0.2299 -0.0347
 6794W        W10994   5.697   6.648   3.159 -0.2978 -0.1364 -0.0977
 6795W        W10995   9.285   2.200  10.263 -0.0134 -0.3140  0.1215
 6796W        W10996   5.085   9.429  13.261 -0.1136 -0.3606  0.4961
 6797W        W10997   6.217   3.392  13.106  0.0367 -0.3265  0.0422
 6798W        W10998   4.583   7.127   1.052  0.1279  0.1113  0.1762
 6799W        W10999   4.899   8.644   3.159  0.1768 -0.0674 -0.2400
 6800W        W11000   4.905  10.280   0.890 -0.0652  0.0422  0.0090
 6801W        W11001   1.743   3.466   2.249  0.2512  0.0381 -0.1664
 6802W        W11002   9.363   8.784   3.054  0.0943  0.2544 -0.0448
 6803W        W11003   7.671   3.605  11.595  0.1461 -0.3747  0.1181
 6804W        W11004   4.054   8.666   3.669 -0.0965  0.0895 -0.2728
 6805W        W11005   3.240   7.545   1.097 -0.1805  0.3208  0.0653
 6806W        W11006   3.200   8.336   0.754  0.2228 -0.1563  0.0787
 6807W        W11007   0.482   1.347  10.223  0.1046  0.2317  0.2362
 6808W        W11008   6.974   2.624  11.289  0.4235 -0.0636 -0.1914
 6809W        W11009   7.679   5.967   5.162  0.2891  0.0537 -0.1392
 6810W        W11010   6.405  10.290   0.769  0.0387 -0.2794  0.2731
 6811W        W11011   9.198   3.061   3.926 -0.1828 -0.1932  0.4105
 6812W        W11012   0.109   5.731   3.840  0.0682  0.1419 -0.0557
 6813W        W11013   3.778   0.317   9.185 -0.2051  0.1746 -0.1912
 6814W        W11014   1.131   6.814  11.194  0.0240  0.0879  0.1072
 6815W        W11015   5.704   7.034  10.740  0.4414  0.0242 -0.1473
 6816W        W11016   6.438   3.887   9.576  0.0175 -0.0895 -0.0532
 6817W        W11017   5.434   5.153  12.508  0.1605  0.2283  0.1803
 6818W        W11018   6.086   6.499  12.284  0.1053  0.3388 -0.2416
 6819W        W11019   3.045   4.123  10.387  0.1307  0.1166  0.1842
 6820W        W11020   2.916   6.368   0.422  0.0850 -0.2498  0.0846
 6821W        W11021   1.127   7.393  12.994  0.1623 -0.0069 -0.1365
 6822W        W11022   1.633   5.752   1.807 -0.0493 -0.1268  0.0250
 6823W        W11023   9.132   9.649  12.091  0.0438  0.1492  0.3078
 6824W        W11024   0.466   8.976   3.866 -0.2716  0.0653  0.0293
 6825W        W11025   6.038   4.131   5.127 -0.1725  0.0393 -0.0080
 6826W        W11026   7.343   8.059   2.275 -0.3510  0.4003  0.0543
 6827W        W11027   1.441   8.448  12.976  0.0671  0.1760  0.1503
 6828W        W11028   5.402   9.530   3.078  0.0294 -0.3118 -0.2534
 6829W        W11029   3.115   6.397  11.704  0.1219  0.2885  0.0694
 6830W        W11030   4.994   4.116   2.502 -0.1836  0.4035 -0.2506
 6831W        W11031   9.074   4.403  13.142 -0.5935 -0.0235 -0.2638
 6832W        W11032   5.826   7.356   4.019 -0.1704 -0.1471 -0.1173
 6833W        W11033   9.705   5.064   9.886  0.1417  0.1456 -0.2091
 6834W        W11034   5.086   5.793   2.537 -0.1845  0.2801 -0.1868
 6835W        W11035   8.605   3.769   4.213  0.0704  0.0452 -0.1061
 6836W        W11036   3.410   8.156  11.780  0.0235  0.0013  0.0411
 6837W        W11037   0.249   5.483   4.324 -0.0799 -0.0867  0.0157
 6838W        W11038   4.164   5.574  11.975  0.1102  0.0072  0.0314
 6839W        W11039   8.398   4.043   4.578 -0.1145 -0.1159  0.2903
 6840W        W11040   9.960   9.244   2.452  0.0294  0.2534 -0.1110
 6841W        W11041   6.685   5.822  10.272 -0.0739 -0.3863 -0.0088
 6842W        W11042  10.100   3.068   3.427  0.0532 -0.1813 -0.0771
 6843W        W11043   7.370  10.146   3.165  0.0064  0.2087 -0.1930
 6844W        W11044   5.637   5.848  11.634  0.1171  0.0878  0.1628
 6845W        W11045   8.406   5.037  10.180 -0.1409  0.2381  0.0076
 6846W        W11046  10.384   3.023   2.404 -0.1287 -0.2912  0.1568
 6847W        W11047   0.500   7.295   2.160 -0.0377  0.2017 -0.1650
 6848W        W11048   8.319   1.056  13.491 -0.0050  0.0146  0.1705
 6849W        W11049   9.770   5.082   4.568  0.1445  0.0051 -0.0892
 6850W        W11050   2.312   6.203  10.798 -0.0327  0.2224  0.1119
 6851W        W11051   1.959   1.876   3.975 -0.0620  0.0139  0.1179
 6852W        W11052   0.147   6.816   0.185  0.1690  0.2256  0.1191
 6853W        W11053   5.031   2.054  13.136  0.0979  0.2001 -0.2199
 6854W        W11054   6.236   2.776  10.849  0.2680 -0.1393 -0.0829
 6855W        W11055  10.457  10.181   2.282 -0.4654  0.1128  0.1101
 6856W        W11056   5.776   7.986   1.907 -0.0104 -0.1720  0.1145
 6857W        W11057   2.474   9.968   0.629  0.0380  0.0917 -0.3486
 6858W        W11058   5.933   7.454   8.981  0.1480 -0.0566 -0.2901
 6859W        W11059   3.933   9.918   0.963  0.0788  0.1662 -0.1553
 6860W        W11060  10.408   2.819   1.038  0.1732 -0.2456 -0.1593
 6861W        W11061   9.724   5.167   0.488 -0.4901 -0.1194 -0.1592
 6862W        W11062   3.035   4.889   1.485 -0.2337 -0.0647 -0.3922
 6863W        W11063   4.388   3.098   3.782  0.1773 -0.1177 -0.2415
 6864W        W11064   5.810   5.832   9.096 -0.2182 -0.0448 -0.0668
 6865W        W11065   4.735   0.287  11.284  0.1020 -0.0849  0.3993
 6866W        W11066   7.465   3.479   9.132  0.3349  0.0906  0.1113
 6867W        W11067   2.228   1.403   9.231  0.0053 -0.0491  0.0546
 6868W        W11068   8.365   1.958  10.755  0.1481  0.0352  0.2584
 6869W        W11069   5.029  10.170  13.381 -0.1260  0.0467  0.2084
 6870W        W11070   6.955   2.091  10.993 -0.3531  0.0357 -0.2150
 6871W        W11071   6.403   4.607   3.001  0.3243 -0.0089  0.1372
 6872W        W11072   5.159   9.416  10.490  0.0493  0.3312  0.0515
 6873W        W11073   6.050   4.643   3.351  0.1053 -0.1218  0.1661
 6874W        W11074   5.047  10.089  11.513 -0.3062 -0.0641  0.1364
 6875W        W11075   1.847   9.360  12.962 -0.1974  0.0446 -0.0532
 6876W        W11076   6.995   0.730  10.347 -0.2413  0.0443 -0.1019
 6877W        W11077  10.031   0.851  11.416 -0.3247 -0.1349  0.1156
 6878W        W11078   6.609   2.038  11.889  0.0098  0.0261 -0.0878
 6879W        W11079   8.404   4.954   9.628  0.0147 -0.1040  0.4523
 6880W        W11080   8.422   1.636   1.017 -0.1513  0.1593  0.1023
 6881W        W11081   8.409   3.859   2.726 -0.0401  0.1310  0.1147
 6882W        W11082   4.246   3.298  10.124  0.0095  0.1105  0.0716
 6883W        W11083   9.788   7.381  12.238 -0.0852 -0.0121  0.1230
 6884W        W11084   1.606   0.448  10.007  0.3182  0.0645  0.1461
 6885W        W11085   9.906   5.521   3.613  0.4527  0.0910  0.0030
 6886W        W11086   9.171   8.721   1.112  0.0839 -0.1049  0.2149
 6887W        W11087   6.580   2.470  10.490  0.0710 -0.3119  0.1371
 6888W        W11088   7.904   8.727   3.446 -0.2010  0.1147 -0.1850
 6889W        W11089   3.799   7.992  12.315  0.1752 -0.1674  0.1440
 6890W        W11090   0.632   0.432  10.246  0.2561  0.0576  0.0501
 6891W        W11091   1.683   4.407  12.093  0.1290 -0.2589 -0.3401
 6892W        W11092   1.244   2.574   0.075  0.0117  0.2150  0.0616
 6893W        W11093   6.210   4.075   3.945  0.3012 -0.0155 -0.0189
 6894W        W11094   8.108   7.856  10.907 -0.1072 -0.1994 -0.1594
 6895W        W11095   5.775   6.838   4.104  0.1443 -0.1304 -0.0336
 6896W        W11096   9.592   9.883  11.401  0.0289 -0.4943  0.0966
 6897W        W11097   0.497   1.796  10.946 -0.1010 -0.2011 -0.1505
 6898W        W11098   2.180   1.141  11.394 -0.1429  0.2400 -0.2397
 6899W        W11099   6.893   7.323   3.236  0.4759 -0.1165 -0.0760
 6900W        W11100   8.029   5.222  10.473 -0.2205  0.0957  0.1139
 6901W        W11101   1.962   8.618   0.145  0.0846 -0.0144 -0.3865
 6902W        W11102   7.925   0.659   2.988 -0.1058 -0.0311  0.0624
 6903W        W11103   2.559   2.039   1.794 -0.0300 -0.2145 -0.0037
 6904W        W11104   1.301   2.042  11.432  0.2546 -0.0485 -0.3160
 6905W        W11105   0.715   7.759   5.393  0.0894  0.2297  0.2035
 6906W        W11106   8.797   6.580  10.405 -0.0237 -0.4247 -0.0128
 6907W        W11107   8.239   1.461   1.615  0.0402  0.0549 -0.0465
 6908W        W11108   6.135   8.284   4.505 -0.2968  0.0148  0.2666
 6909W        W11109   1.129   7.742  13.493 -0.3601 -0.0823 -0.2505
 6910W        W11110   7.568   2.373   0.493 -0.1707 -0.0741 -0.1985
 6911W        W11111   2.438   4.020   4.985 -0.0902  0.2506  0.0054
 6912W        W11112   8.507   3.555   3.323  0.0934  0.3564 -0.0450
 6913W        W11113   4.545   1.907  13.354 -0.1505 -0.0243  0.0753
 6914W        W11114   5.855   8.540  10.348 -0.0535  0.0458 -0.0843
 6915W        W11115   3.280   9.134  11.093 -0.0079  0.0885 -0.0553
 6916W        W11116   1.373   8.513   2.003  0.1829 -0.0724  0.3566
 6917W        W11117   8.477   4.511  13.108 -0.0222  0.0204  0.3284
 6918W        W11118   1.848   4.204   4.282  0.0257  0.0255 -0.0494
 6919W        W11119   3.465  10.113  10.855  0.1198  0.1456 -0.0021
 6920W        W11120   1.211   5.532  13.332  0.2563  0.0551 -0.2839
 6921W        W11121   9.907   9.036   9.591 -0.0535 -0.4053 -0.0968
 6922W        W11122   5.086   5.369  12.254 -0.1450  0.0401 -0.1988
 6923W        W11123   5.591   5.566   3.292  0.0851 -0.1455 -0.3006
 6924W        W11124   4.141   9.958  11.918 -0.2889  0.0099 -0.1443
 6925W        W11125   4.946   8.925  10.388 -0.3009 -0.0583 -0.2290
 6926W        W11126   8.881   9.510   2.835 -0.0569  0.4935 -0.0327
 6927W        W11127   1.056   0.564  11.886 -0.0004 -0.2680  0.0949
 6928W        W11128   6.594   9.897  12.954 -0.4118  0.0935 -0.0207
 6929W        W11129   0.645  10.256  12.378  0.2075 -0.0345 -0.0576
 6930W        W11130   0.482   8.185  12.890  0.1165  0.4755  0.1443
 6931W        W11131  10.268   5.230   8.645 -0.3025  0.2042  0.1345
 6932W        W11132   0.864   3.536   3.169  0.0973  0.1862  0.3708
 6933W        W11133   8.345   6.959  10.736  0.0241  0.1851 -0.0573
 6934W        W11134   9.024   8.631  10.860  0.0359  0.1163 -0.3542
 6935W        W11135   7.965   4.107   3.640 -0.0351  0.1411  0.0700
 6936W        W11136   4.413   8.906   0.345  0.1290 -0.0466  0.0963
 6937W        W11137   5.720   7.368   1.166  0.1931 -0.0532  0.2999
 6938W        W11138   9.144   4.840   1.039  0.1429  0.0803 -0.1130
 6939W        W11139   1.303   9.647  10.139 -0.0588 -0.0982 -0.2396
 6940W        W11140   7.933   3.914   9.816  0.3605  0.2131  0.4123
 6941W        W11141  10.460   4.994   5.290 -0.1274 -0.1973 -0.1147
 6942W        W11142   4.356   6.940   0.070 -0.0412  0.0283 -0.2634
 6943W        W11143   5.184   7.160   9.360 -0.5957 -0.0649 -0.1481
 6944W        W11144   9.487  10.137   1.276 -0.0762  0.0554 -0.0451
 6945W        W11145   7.314  10.070  11.540 -0.0163 -0.0274  0.1149
 6946W        W11146   3.058   4.062   9.371 -0.3148 -0.1996 -0.3558
 6947W        W11147   0.042   6.023   4.197 -0.1607 -0.1984  0.1033
 6948W        W11148   9.674   5.916  10.341  0.0112 -0.0041  0.4599
 6949W        W11149  10.411   8.519  10.365 -0.1887 -0.2258  0.4194
 6950W        W11150   1.408   6.466   4.417  0.2265  0.0105  0.1077
 6951W        W11151   8.878   8.529  10.335 -0.0388 -0.1866  0.1776
 6952W        W11152   0.988   6.628   3.291  0.2111  0.2101 -0.1459
 6953W        W11153   6.553   3.252  10.046  0.2420 -0.0512 -0.0518
 6954W        W11154   9.492   6.202   9.731  0.0329  0.2234  0.0580
 6955W        W11155   7.456   3.774   8.707 -0.1528 -0.3579 -0.0369
 6956W        W11156   3.949   0.312  11.810  0.1494  0.4185  0.3850
 6957W        W11157   6.112   3.590   9.333 -0.0536 -0.4525  0.3185
 6958W        W11158   7.737   5.686   1.804  0.1105  0.0393 -0.1238
 6959W        W11159   0.049   6.965   3.685 -0.3312 -0.0488 -0.0366
 6960W        W11160   6.979   1.149   9.512 -0.1097 -0.2862  0.1298
 6961W        W11161   1.206   9.270   9.784  0.3694  0.0966  0.3037
 6962W        W11162   9.828   0.678   0.992  0.0463  0.1243 -0.2231
 6963W        W11163   1.165   7.216  11.797  0.0908 -0.1295  0.0572
 6964W        W11164   7.232   5.143  11.760 -0.0499 -0.0957  0.1567
 6965W        W11165   4.994   9.642   1.439 -0.1534  0.0113 -0.1398
 6966W        W11166   9.653   9.551  13.161 -0.0583  0.6051 -0.2159
 6967W        W11167   9.762   8.025  13.238  0.1830  0.1006 -0.0887
 6968W        W11168   2.449   5.352   0.076  0.1585 -0.3207  0.1282
 6969W        W11169   1.752   8.244  12.231 -0.1149 -0.2334  0.2743
 6970W        W11170   3.023   3.614   1.255 -0.3026 -0.0420  0.0045
 6971W        W11171   6.799   9.075  12.377  0.4447 -0.2359  0.0297
 6972W        W11172   1.269   6.357  12.896 -0.2890 -0.1035 -0.2833
 6973W        W11173   0.760   9.988   3.540  0.2418  0.0093 -0.2480
 6974W        W11174   7.744   0.330   9.484 -0.0370 -0.1479  0.1499
 6975W        W11175   4.751   2.917  13.363  0.2631  0.1470  0.0577
 6976W        W11176  10.181   7.781  12.509  0.1229  0.2507  0.1077
 6977W        W11177   3.946   8.495   1.418  0.3375  0.1659 -0.0760
 6978W        W11178   3.531   3.921  13.390 -0.0201  0.3046 -0.2108
 6979W        W11179   6.990   9.676  11.277  0.0920  0.3045 -0.1566
 6980W        W11180   1.513   2.390   1.848  0.1810 -0.0250 -0.0142
 6981W        W11181   2.838   4.856  10.697 -0.1852  0.0670  0.0988
 6982W        W11182   1.382   4.960   4.595 -0.0617  0.0792 -0.3078
 6983W        W11183   6.006   6.562   5.447  0.1411 -0.0217  0.2000
 6984W        W11184   6.763   4.130  10.932  0.1157  0.0779 -0.0295
 6985W        W11185   6.048   4.760  10.665 -0.1897 -0.2872  0.1493
 6986W        W11186   5.332   2.286   9.647  0.0136  0.0712  0.0103
 6987W        W11187   8.947   6.612  12.067 -0.0745  0.2441 -0.0772
 6988W        W11188   4.206   1.220   1.564 -0.0360  0.2204  0.0447
 6989W        W11189   9.582   8.591   1.435 -0.2015 -0.0648 -0.0511
 6990W        W11190   4.366   5.177  11.639  0.1607  0.0578 -0.2087
 6991W        W11191   7.551   8.837  12.694 -0.0045  0.1021  0.2290
 6992W        W11192   8.460   8.472   2.837 -0.2942  0.1539 -0.3400
 6993W        W11193   3.390   3.989  11.773  0.0544 -0.1273  0.0529
 6994W        W11194  10.094   1.389   0.461  0.0063 -0.2129 -0.1432
 6995W        W11195   6.292   3.451   1.987 -0.0960  0.1440 -0.0208
 6996W        W11196   4.676   1.897  12.392 -0.2792 -0.0402  0.2462
 6997W        W11197   6.242   4.732  11.937 -0.2815  0.2139  0.2675
 6998W        W11198   3.863   3.643   3.209  0.4596  0.3013  0.0219
 6999W        W11199   1.762   2.020  12.467  0.0728  0.0394  0.1685
 7000W        W11200   2.298   3.411  11.706  0.0712 -0.0286 -0.1251
 7001W        W11201   8.730   9.122   3.449 -0.2104 -0.0742 -0.0967
 7002W        W11202   8.482   0.153   2.754  0.1806 -0.0535  0.0688
 7003W        W11203   6.824   0.575   0.432  0.2183 -0.0111 -0.1771
 7004W        W11204   6.099   2.666  12.191 -0.1575 -0.1456 -0.2808
 7005W        W11205   8.909   8.584   0.193 -0.0035  0.0699 -0.2099
 7006W        W11206   0.288   8.491   3.610  0.3448 -0.0492  0.3864
 7007W        W11207   0.155   6.286   0.164 -0.0061  0.1738 -0.0409
 7008W        W11208   0.523   2.159  13.237 -0.0503 -0.0965 -0.2331
 7009W        W11209   6.103   3.042   9.980  0.3011 -0.3221  0.2042
 7010W        W11210   8.451   2.243  10.319  0.0646  0.0805 -0.0412
 7011W        W11211   7.267   7.062   3.095  0.2965  0.0637  0.0677
 7012W        W11212   2.970   1.843   3.685  0.1563  0.2207 -0.0521
 7013W        W11213  10.350   3.102   4.760 -0.2208  0.4134  0.1127
 7014W        W11214   8.217   7.713   1.147 -0.1786 -0.1406  0.0412
 7015W        W11215   3.092   8.057   3.386 -0.3298  0.0081  0.0894
 7016W        W11216   9.538  10.062  13.117 -0.1471 -0.1492 -0.0306
 7017W        W11217   1.375   1.718   0.167 -0.1212  0.1799  0.2053
 7018W        W11218   3.921   7.877   2.295 -0.0699  0.3499 -0.2447
 7019W        W11219   0.485   9.502  13.469 -0.1839 -0.1797  0.0026
 7020W        W11220   4.246   8.575   3.206 -0.1717  0.0672 -0.0913
 7021W        W11221   6.110   4.567  10.183  0.0875  0.0484  0.1639
 7022W        W11222   9.049   9.693  11.114 -0.1389 -0.0714 -0.1343
 7023W        W11223   5.564   1.252   2.024 -0.1425 -0.2732  0.2615
 7024W        W11224  10.236   2.353  11.719  0.0286 -0.1467  0.1351
 7025W        W11225   9.005   7.443  11.935  0.2987 -0.1118 -0.0691
 7026W        W11226   8.592   7.995   2.916  0.1956 -0.3263  0.1885
 7027W        W11227   0.952   4.642   4.582  0.1850 -0.2200  0.1885
 7028W        W11228   4.359   7.380  11.747 -0.2164 -0.1526  0.2189
 7029W        W11229   8.466   6.278  10.572 -0.3679  0.3862 -0.1998
 7030W        W11230   7.270   1.689   2.304 -0.1919  0.1167  0.3152
 7031W        W11231   4.599   0.884  11.876 -0.3583 -0.2243  0.0338
 7032W        W11232   3.272   9.064  11.669 -0.1064  0.0066  0.4531
 7033W        W11233   8.849   2.564  10.367 -0.0005 -0.1152  0.3707
 7034W        W11234  10.090   8.379   9.028  0.1768 -0.0835 -0.0351
 7035W        W11235   9.784   5.599   2.695  0.2442 -0.0895 -0.0343
 7036W        W11236   1.826  10.259   1.626  0.1326  0.1201  0.1566
 7037W        W11237   5.168   7.322   1.225 -0.0069  0.0772  0.2371
 7038W        W11238   3.592  10.051   4.021 -0.2078 -0.0137 -0.2872
 7039W        W11239   5.857   6.584  13.204  0.1464 -0.2275  0.0931
 7040W        W11240   3.914   3.982  13.025  0.0473 -0.0166 -0.1420
 7041W        W11241   4.433   6.794   9.811 -0.1484 -0.2190  0.2317
 7042W        W11242   4.517  10.425  13.474  0.0058  0.0073 -0.2762
 7043W        W11243   9.851   0.238  12.157  0.1106  0.2443  0.1125
 7044W        W11244   1.104   5.656   3.912  0.1981 -0.1519 -0.4333
 7045W        W11245   7.881   9.587   3.696 -0.1502  0.2757  0.2064
 7046W        W11246   2.220   1.099   0.208  0.0304  0.3629 -0.1103
 7047W        W11247   5.626   3.193  10.735 -0.1656  0.0017 -0.1152
 7048W        W11248   3.499   3.080   9.344  0.0964 -0.0292  0.1501
 7049W        W11249   4.807   3.589  13.042  0.2199 -0.0156 -0.0952
 7050W        W11250   5.318   2.822   2.503  0.0616  0.0590 -0.0308
 7051W        W11251   8.163  10.171  10.806  0.0719 -0.0362 -0.4683
 7052W        W11252   4.946  10.446   3.117  0.2608 -0.0714  0.0391
 7053W        W11253   6.697   4.240  12.538  0.3170 -0.2185  0.0203
 7054W        W11254   4.701   2.458   1.213  0.1302  0.0622 -0.0034
 7055W        W11255   1.602   8.011   9.702  0.3139 -0.4081  0.0546
 7056W        W11256   2.205   2.836   2.765 -0.2510  0.0365  0.0602
 7057W        W11257   0.266   6.972  11.411  0.0832 -0.1450 -0.0103
 7058W        W11258   8.192   5.857  12.920 -0.3989 -0.1170 -0.1499
 7059W        W11259   4.050   2.548  12.966 -0.1768 -0.0693  0.3136
 7060W        W11260   1.521   6.878   4.694 -0.2927 -0.0520  0.1305
 7061W        W11261  10.098   4.629  11.932  0.0490  0.0343 -0.2207
 7062W        W11262   5.434   4.481   0.258 -0.0126  0.0418  0.1547
 7063W        W11263   0.347   5.214   6.104  0.1938  0.0443 -0.1873
 7064W        W11264   6.206   8.460   9.369  0.4667  0.0658  0.2439
 7065W        W11265   8.048   2.810   3.949  0.0485  0.0195  0.0133
 7066W        W11266   5.865   1.566  11.132 -0.1115  0.2332  0.1823
 7067W        W11267   0.272   9.548   2.716 -0.3523 -0.3265  0.1771
 7068W        W11268   1.840   6.621   0.200 -0.3479 -0.0293 -0.2704
 7069W        W11269   4.368   9.772  12.791 -0.1370  0.3379 -0.2348
 7070W        W11270   0.772   3.898   3.456  0.5088  0.0924  0.2438
 7071W        W11271   7.034   6.469  10.549 -0.1265  0.0077 -0.0864
 7072W        W11272  10.223   7.096   0.249  0.4235 -0.3393 -0.0414
 7073W        W11273   6.396   8.892   8.730 -0.1020 -0.3520 -0.1535
 7074W        W11274   3.093   4.084   2.706 -0.0233  0.1879  0.1009
 7075W        W11275   3.519   4.532   0.245  0.0960  0.0857 -0.0684
 7076W        W11276   3.351   7.496   9.065 -0.1555  0.0032  0.2606
 7077W        W11277   8.160   6.617  12.570  0.0525 -0.0163  0.4092
 7078W        W11278   3.781   5.228   3.350  0.1353 -0.2337  0.2471
 7079W        W11279   3.243   6.199   1.464  0.1105 -0.0816 -0.0242
 7080W        W11280   7.350   9.055   2.229  0.0592  0.0593 -0.0463
 7081W        W11281   5.272   2.419   3.550 -0.0402 -0.3426 -0.1143
 7082W        W11282   4.473   7.567   9.176  0.1590  0.3058  0.4406
 7083W        W11283   9.565   1.785   1.889 -0.0044  0.1447 -0.0200
 7084W        W11284   6.684   6.039   9.724 -0.2192 -0.0909 -0.1466
 7085W        W11285   1.146   9.547  10.945  0.3811  0.0263 -0.0862
 7086W        W11286   1.838   5.590   2.976  0.1514  0.2750 -0.1979
 7087W        W11287   2.497   0.852  10.568  0.1205 -0.0325 -0.3557
 7088W        W11288   0.121   1.211  13.031  0.0908  0.3058  0.0067
 7089W        W11289   4.857   5.531  10.234 -0.0435  0.0366 -0.2053
 7090W        W11290   8.240   9.454   9.682  0.0246 -0.0561 -0.2821
 7091W        W11291   8.483   1.422  10.773  0.1803  0.1130 -0.0903
 7092W        W11292   9.417   4.881  10.271 -0.1256  0.3432  0.0680
 7093W        W11293   3.919   1.861   3.872 -0.0269 -0.1491  0.1263
 7094W        W11294   8.392   6.687  12.077 -0.1903  0.1044  0.3429
 7095W        W11295   9.425   4.288  10.310 -0.0709  0.1650  0.1318
 7096W        W11296   1.198   7.485   0.864  0.2819 -0.1035 -0.3120
 7097W        W11297   9.576  10.300  12.285 -0.1358 -0.0039  0.2013
 7098W        W11298   0.556   1.782   9.975 -0.0847  0.0162  0.0462
 7099W        W11299   1.218   6.331   0.289  0.3941  0.1576 -0.0027
 7100W        W11300   2.108   5.758   2.625 -0.1656  0.2179  0.0703
 7101W        W11301   8.462   6.878   1.876  0.0979 -0.2839  0.1607
 7102W        W11302   2.435   1.471  10.495  0.0183  0.0409 -0.1239
 7103W        W11303   6.962   4.270  11.422  0.2658 -0.1269  0.2604
 7104W        W11304   3.519   5.353  10.552  0.1135 -0.0103  0.1472
 7105W        W11305   3.147   3.555  10.414 -0.0591 -0.0746  0.1997
 7106W        W11306   0.430   5.930   8.746  0.0807  0.0239 -0.2202
 7107W        W11307   9.750   2.960  13.370 -0.0241  0.0399  0.1717
 7108W        W11308   2.585   8.937   1.847 -0.2389  0.0403  0.1496
 7109W        W11309   6.483   3.679   0.056  0.1106  0.1041 -0.3846
 7110W        W11310   8.174   6.922   4.249  0.2175  0.1000  0.0665
 7111W        W11311   2.284   9.303   4.350 -0.0686 -0.2934  0.1352
 7112W        W11312   7.435   0.181   2.500  0.0689 -0.1680 -0.0176
 7113W        W11313   2.083   5.049   0.299 -0.0648 -0.3523 -0.0918
 7114W        W11314   4.849   9.372   9.060  0.2619  0.1075  0.2220
 7115W        W11315   4.493   3.114   2.058 -0.3082  0.1117  0.3742
 7116W        W11316   8.882   8.296   4.230  0.2635  0.0122 -0.0825
 7117W        W11317   4.027   1.348   4.031  0.1446  0.3013  0.1482
 7118W        W11318   1.384   6.955  12.730 -0.0099  0.1593  0.1277
 7119W        W11319   2.866   1.807  13.005 -0.0140  0.0101 -0.1636
 7120W        W11320   0.949   7.161   3.884  0.2166  0.1689  0.0742
 7121W        W11321   2.731   7.509   5.334  0.1509 -0.0414  0.0819
 7122W        W11322   2.457   1.674  10.050 -0.1131 -0.0348  0.1156
 7123W        W11323   3.684   5.220   9.136 -0.0314  0.0898 -0.1039
 7124W        W11324   0.086   1.704  13.045  0.2187 -0.1344 -0.1278
 7125W        W11325   1.800   3.479  12.492 -0.0796 -0.2501  0.0367
 7126W        W11326   8.476   5.506   0.745 -0.2048 -0.0972 -0.2090
 7127W        W11327   0.944   7.527   1.377 -0.1382 -0.0228 -0.1905
 7128W        W11328   0.161   4.421   0.283 -0.2886  0.1524  0.1397
 7129W        W11329   1.203   2.885  12.110  0.0848 -0.1638 -0.2434
 7130W        W11330   2.167  10.314   2.544  0.0362 -0.0293 -0.2635
 7131W        W11331   7.818   5.694   5.675 -0.0701  0.1151 -0.1973
 7132W        W11332   3.485   2.831   9.753  0.0181 -0.2840  0.1248
 7133W        W11333   3.024   9.173   2.446  0.1602 -0.2381  0.2312
 7134W        W11334   9.913   3.987   0.809 -0.0480  0.0633 -0.1631
 7135W        W11335  10.118   6.269   1.561 -0.1232 -0.1402 -0.1268
 7136W        W11336   0.626   2.138   3.152  0.1561  0.0569  0.0394
 7137W        W11337   1.294   7.993   0.885  0.2984 -0.3555 -0.1698
 7138W        W11338   6.821   3.374  12.698  0.1479 -0.2836 -0.0128
 7139W        W11339   9.126   4.041  11.919  0.1003  0.2427  0.2720
 7140W        W11340   4.214   7.936  10.832  0.0658 -0.3945  0.1482
 7141W        W11341   7.374   9.064  12.224 -0.1792 -0.0437 -0.1398
 7142W        W11342  10.395   8.997  13.067 -0.1275 -0.0595  0.0495
 7143W        W11343   0.350   7.287   9.351  0.1797 -0.1820  0.1730
 7144W        W11344   9.130   2.211   9.804  0.0217  0.0081 -0.4165
 7145W        W11345   8.537   2.661   3.399 -0.1395  0.0553  0.0855
 7146W        W11346   6.616   3.071   1.918 -0.2499 -0.2776 -0.0817
 7147W        W11347   1.245   2.489   9.626  0.0183 -0.3116 -0.0791
 7148W        W11348  10.106   8.762   2.650 -0.2699 -0.3410  0.2495
 7149W        W11349   0.925   6.595   2.809  0.0515  0.2328  0.1146
 7150W        W11350   1.171   4.689  11.905  0.1324 -0.4354  0.1108
 7151W        W11351   5.937   0.437  13.421  0.1640 -0.2238 -0.1408
 7152W        W11352   4.746   0.457   3.722 -0.1332  0.1706 -0.0625
 7153W        W11353   7.456   3.153   3.754 -0.3061  0.2079  0.3447
 7154W        W11354   2.003   5.310   3.920 -0.0509  0.1635  0.5092
 7155W        W11355   7.962   4.990   9.974 -0.1255 -0.1540  0.0192
 7156W        W11356   7.797   7.552  11.136  0.0999  0.2042 -0.2301
 7157W        W11357  10.343   9.904   1.500 -0.1289 -0.0414  0.1361
 7158W        W11358   6.126   2.054   1.699  0.1265 -0.2121 -0.0524
 7159W        W11359  10.249   8.072   1.439  0.0827 -0.2125  0.3408
 7160W        W11360   4.007   2.072   9.708  0.0529 -0.1424  0.1451
 7161W        W11361   7.850   4.704  12.445 -0.1270 -0.0197  0.1356
 7162W        W11362   7.270   5.615  13.123  0.2477  0.1511  0.0422
 7163W        W11363   8.430   7.747  12.759  0.0584 -0.0725 -0.0687
 7164W        W11364   5.029   5.374  13.227  0.2126 -0.0331  0.2253
 7165W        W11365   7.687   2.978   5.034  0.2152 -0.1047  0.0066
 7166W        W11366   1.383   5.798  11.993 -0.1571 -0.0887  0.0939
 7167W        W11367   0.375   9.484   2.216  0.3888  0.1361  0.1317
 7168W        W11368   0.503   6.420   4.168 -0.3332  0.2150 -0.2754
 7169W        W11369   2.097   0.967   0.942  0.1934  0.1703  0.3303
 7170W        W11370   2.569   6.083   8.497  0.1498 -0.1714 -0.0858
 7171W        W11371   8.952   7.153  11.482  0.1089 -0.1183  0.0202
 7172W        W11372   8.986   6.284  12.574 -0.2187  0.3232  0.4608
 7173W        W11373   8.663   6.748   9.754 -0.1135 -0.0808  0.3308
 7174W        W11374   9.632   8.870   0.732 -0.0767 -0.1493  0.2052
 7175W        W11375   2.780   8.838   3.611 -0.4255  0.0384 -0.0553
 7176W        W11376   6.687   7.617  11.997  0.3531 -0.0443 -0.1871
 7177W        W11377   7.280   9.409  13.438 -0.2737 -0.1917  0.0837
 7178W        W11378   0.219   2.352   3.417 -0.0806 -0.3059 -0.1970
 7179W        W11379   7.712   8.027   4.570 -0.3007 -0.1395 -0.1527
 7180W        W11380   3.528   0.419  10.114  0.0394 -0.2015  0.1051
 7181W        W11381  10.105  10.207  11.457  0.0141 -0.0675 -0.2799
 7182W        W11382   4.593  10.387   8.709  0.2177  0.0654  0.2696
 7183W        W11383   6.957   9.127   3.037 -0.0307  0.0456  0.1882
 7184W        W11384  10.382   3.383  11.738  0.0291  0.0079 -0.0012
 7185W        W11385   2.513   3.251   9.841 -0.0826  0.3855 -0.3368
 7186W        W11386   8.501   9.239  12.787 -0.2481  0.2512 -0.1712
 7187W        W11387   9.808   9.272  12.757  0.5053  0.2111  0.2257
 7188W        W11388   3.973   4.031   4.080  0.2371  0.2915 -0.2484
 7189W        W11389   5.027   2.053  10.755  0.2988 -0.3502 -0.2355
 7190W        W11390   9.165   5.400   4.105  0.0984  0.1538 -0.0245
 7191W        W11391  10.163   6.393   3.899  0.0296 -0.1386  0.4209
 7192W        W11392   8.666   0.511   0.769  0.1650 -0.0361 -0.1023
 7193W        W11393   6.921  10.261   0.900 -0.1504  0.0026  0.1395
 7194W        W11394   7.996   2.660   1.819 -0.0929  0.0829  0.1547
 7195W        W11395   9.444   2.436  12.015  0.0539 -0.0346 -0.0749
 7196W        W11396   7.637   5.495   2.287  0.0476 -0.0828  0.0513
 7197W        W11397   3.773   0.371   4.071  0.1209 -0.1625  0.1823
 7198W        W11398   0.763   5.077   9.040  0.0512  0.0528  0.1296
 7199W        W11399   2.736  10.303   0.360 -0.0416 -0.2393  0.0047
 7200W        W11400   2.245   6.536   3.938 -0.0757  0.3254  0.0143
 7201W        W11401   3.605   5.703  12.147  0.1117  0.2108  0.2064
 7202W        W11402   6.694   2.812   4.760 -0.2166  0.3412 -0.4151
 7203W        W11403   9.842   6.832   0.598 -0.1546 -0.3888 -0.1110
 7204W        W11404   4.368   4.817   8.804 -0.1305 -0.2231  0.0049
 7205W        W11405   2.555   4.967  10.304  0.0813 -0.0251 -0.1419
 7206W        W11406   6.107   6.738  10.825 -0.1767  0.0910 -0.1019
 7207W        W11407   0.801   9.482  10.016 -0.0851 -0.0696  0.4113
 7208W        W11408   5.455   8.470   2.824 -0.0806 -0.2121 -0.1323
 7209W        W11409   3.854   7.696  12.843 -0.1999 -0.0688  0.2736
 7210W        W11410   3.735   6.716   3.803 -0.0832 -0.2427  0.2250
 7211W        W11411   8.619   6.799   1.335 -0.2199 -0.2384 -0.0237
 7212W        W11412   0.241   1.773   1.233 -0.2243  0.1264 -0.0112
 7213W        W11413   1.442   0.797   1.215 -0.0384  0.0608 -0.0853
 7214W        W11414   2.631   0.289   1.922 -0.0995  0.0368 -0.2582
 7215W        W11415   0.385   3.455   2.892 -0.1867 -0.1738 -0.0751
 7216W        W11416   0.578   9.470   3.893  0.0470 -0.0357 -0.1668
 7217W        W11417   8.066   1.685  12.678  0.0251 -0.0442 -0.1700
 7218W        W11418   9.273   0.165  11.020  0.1743 -0.1737 -0.2038
 7219W        W11419   4.967   5.023  11.663  0.2015  0.1621  0.0724
 7220W        W11420   1.586   5.606   8.754 -0.0644  0.2216 -0.3089
 7221W        W11421   8.842   7.514   3.129 -0.1079  0.1722  0.1009
 7222W        W11422   0.588   6.178  10.472  0.0236  0.5981 -0.1816
 7223W        W11423   2.414   3.945   3.249  0.3205  0.1454  0.0397
 7224W        W11424   3.395   1.690   3.478 -0.3456 -0.0104 -0.1097
 7225W        W11425   2.216   5.766   4.662  0.0846  0.4335 -0.1771
 7226W        W11426   6.412   2.947   1.122  0.1954  0.0862 -0.0108
 7227W        W11427   7.176   5.429   0.092  0.0172 -0.1010 -0.0459
 7228W        W11428   8.576   2.027  11.631  0.1299 -0.2164 -0.1138
 7229W        W11429   5.402   3.260   3.360  0.0076  0.0109  0.2008
 7230W        W11430   2.469   3.618   1.046 -0.2088  0.1269  0.3697
 7231W        W11431   6.247   5.835   1.047  0.3337  0.0251 -0.2113
 7232W        W11432   8.899   3.330   2.449 -0.1957 -0.1690 -0.2660
 7233W        W11433   9.024   7.727   4.836  0.0299  0.1258 -0.0474
 7234W        W11434   9.147   0.104  12.296  0.0574 -0.4221  0.0009
 7235W        W11435  10.208   1.789  10.636 -0.1904  0.0059 -0.2177
 7236W        W11436   7.048   7.347  11.662 -0.1018 -0.2120 -0.1246
 7237W        W11437   1.412   3.720  12.621  0.0456 -0.0644 -0.1365
 7238W        W11438   2.542   0.367  10.329 -0.1088 -0.1840 -0.2288
 7239W        W11439   1.130   2.523   1.569  0.2902  0.0130  0.0778
 7240W        W11440  10.252   8.108   9.457 -0.2678 -0.0939 -0.0221
 7241W        W11441   1.220   0.419   1.510  0.1142  0.2127  0.0738
 7242W        W11442   1.695   8.550   1.642 -0.2155 -0.0083  0.0529
 7243W        W11443   1.818   5.453  12.090 -0.1243  0.2218  0.1747
 7244W        W11444   5.478   2.381  11.229  0.0156 -0.1000 -0.2091
 7245W        W11445   0.769   7.708   3.424  0.3870  0.0316 -0.0104
 7246W        W11446   6.527   0.190   5.361  0.2073 -0.0097  0.1114
 7247W        W11447   9.242   8.224   9.518 -0.0460  0.3235  0.1178
 7248W        W11448   2.988   8.375   0.087  0.1081 -0.0554 -0.1804
 7249W        W11449   6.288   6.396   5.041  0.0024  0.0760 -0.0291
 7250W        W11450   4.922   7.121   2.597 -0.1311  0.0327 -0.0359
 7251W        W11451   9.373   5.313   0.817 -0.0713 -0.0102 -0.2802
 7252W        W11452   8.191   9.503  11.720 -0.1203 -0.0898  0.1957
 7253W        W11453   5.166   0.022  11.808 -0.2830 -0.0137 -0.1327
 7254W        W11454   0.460   7.990  11.598  0.1228  0.2935  0.0798
 7255W        W11455   0.339   5.063  13.306  0.0142  0.2982  0.1105
 7256W        W11456   3.875   7.632   0.664 -0.1085 -0.0588  0.1261
 7257W        W11457   1.807  10.413   9.869  0.0609  0.4209 -0.1404
 7258W        W11458   9.616   5.559   9.789  0.3560 -0.2656 -0.3603
 7259W        W11459   0.088   6.445  11.491 -0.0641  0.1467 -0.3177
 7260W        W11460  10.034   8.520   1.675 -0.0845 -0.0744  0.5872
 7261W        W11461   1.558   5.656   4.718  0.0238 -0.1133 -0.1387
 7262W        W11462   4.991   0.054   1.291  0.0190 -0.1417 -0.2523
 7263W        W11463   4.482   8.351  10.735 -0.0601 -0.0558 -0.3459
 7264W        W11464   0.498   8.629   0.368 -0.1757  0.2361  0.2384
 7265W        W11465   5.971   5.510  13.432  0.2211 -0.0484 -0.0700
 7266W        W11466   5.108   4.057  11.412  0.1873  0.1766  0.1867
 7267W        W11467   6.558   5.619  10.699 -0.1407 -0.0524  0.2797
 7268W        W11468   2.521   3.278   3.197 -0.0951 -0.0993  0.1753
 7269W        W11469   4.635   9.720   4.012 -0.0512 -0.0474  0.1594
 7270W        W11470   2.969   0.110  12.857  0.1238  0.4209 -0.1466
 7271W        W11471   5.594   0.940   0.513 -0.2873  0.2433  0.0486
 7272W        W11472   7.270   8.401  12.821 -0.3869  0.4458 -0.2855
 7273W        W11473   1.595   9.754   0.669 -0.1502 -0.2485 -0.1293
 7274W        W11474   3.428   8.819  12.759 -0.3647 -0.1883  0.3634
 7275W        W11475   4.838   7.530  11.560  0.1591 -0.3206  0.0306
 7276W        W11476   9.379   5.778  12.120 -0.1126 -0.1225  0.3004
 7277W        W11477   0.049   5.758   1.289 -0.0155  0.0028  0.0104
 7278W        W11478   1.050   4.874   0.571  0.0797 -0.2126  0.1254
 7279W        W11479   3.588   3.986   3.729 -0.0034 -0.2640 -0.3703
 7280W        W11480   4.484   5.561  13.408  0.1080  0.1335 -0.4922
 7281W        W11481   0.882   5.582   9.881 -0.3518  0.0802  0.2078
 7282W        W11482   4.771   7.159   1.537  0.0387  0.1704 -0.2683
 7283W        W11483   1.057   2.287   2.539 -0.0739  0.1215  0.3390
 7284W        W11484   3.550   1.798  11.889 -0.1452 -0.2290 -0.0682
 7285W        W11485  10.095   7.070   3.477 -0.0996 -0.3727 -0.0990
 7286W        W11486   6.211   2.370   9.803 -0.2518  0.3261  0.1197
 7287W        W11487   8.983   6.726   0.996 -0.2020  0.0870  0.0861
 7288W        W11488   4.732   5.671   9.762  0.2051  0.2021  0.0694
 7289W        W11489   8.226   4.981   2.117  0.0764 -0.0723 -0.3169
 7290W        W11490   9.954   9.312   0.843  0.0038 -0.1056  0.0431
 7291W        W11491   3.842   5.849  11.660  0.2409 -0.0033 -0.3611
 7292W        W11492   6.486   9.307  10.185 -0.0042 -0.1657  0.0592
 7293W        W11493   9.979   2.586   3.281 -0.2685 -0.2035 -0.0401
 7294W        W11494   4.048   6.810  12.771 -0.2088  0.2974  0.1297
 7295W        W11495   8.986   7.177   4.646  0.4697  0.0839  0.0737
 7296W        W11496   0.499   4.249  12.544 -0.2074 -0.1712  0.2645
 7297W        W11497   0.368   1.595   3.873 -0.6840  0.1569 -0.0151
 7298W        W11498   6.061   7.011  12.325 -0.2633  0.3236 -0.3060
 7299W        W11499   2.829   0.663   0.953 -0.0977 -0.0772 -0.0767
 7300W        W11500   2.139   3.668   0.287  0.2139 -0.1925  0.1046
 7301W        W11501   4.201   8.222   9.812  0.2238 -0.1963  0.2723
 7302W        W11502   0.174  10.067   1.146 -0.2342  0.0596 -0.0268
 7303W        W11503   2.698   7.547  11.603  0.0748 -0.0448 -0.1636
 7304W        W11504   1.568   6.243   9.359  0.0699  0.1024  0.0422
 7305W        W11505   4.766   6.570  11.405 -0.3188 -0.1898 -0.0855
 7306W        W11506   3.474   6.176  12.929  0.1635  0.0764  0.2547
 7307W        W11507   8.712   1.814   0.225 -0.1734  0.1335 -0.0953
 7308W        W11508   5.952   1.716  12.467  0.2810 -0.1969  0.1746
 7309W        W11509   3.426   6.133   9.056 -0.0943 -0.1547  0.2053
 7310W        W11510   6.704   9.553   3.319 -0.1448  0.1439 -0.0144
 7311W        W11511   0.957   5.625  10.436 -0.2042  0.3822  0.3231
 7312W        W11512   1.701   7.796   0.127 -0.0138  0.0847  0.0348
 7313W        W11513   6.964   6.275   2.342 -0.2858 -0.0224  0.0124
 7314W        W11514   0.346   4.028   0.547  0.0383  0.1474  0.5177
 7315W        W11515   4.441   6.359   0.520 -0.1112  0.2625 -0.2352
 7316W        W11516   5.326   1.001  11.179 -0.0324  0.0270  0.0853
 7317W        W11517   7.327   8.163   3.549 -0.1978  0.3243  0.1685
 7318W        W11518   0.060   6.739  11.046  0.1072 -0.1971  0.4247
 7319W        W11519   9.870   6.512   2.626 -0.2401 -0.1804 -0.1697
 7320W        W11520   5.253   1.037   0.102  0.3363 -0.4185 -0.2155
 7321W        W11521   6.942   9.867   5.191 -0.0070 -0.3000  0.0143
 7322W        W11522   6.815   3.368   0.425  0.0048 -0.0058 -0.0402
 7323W        W11523   8.447   9.647   2.636 -0.3949 -0.1832  0.0951
 7324W        W11524   0.008   0.454   0.020 -0.1075  0.2270  0.0874
 7325W        W11525   5.047   3.325   1.235 -0.0197 -0.2238 -0.2548
 7326W        W11526   0.528   0.465   2.808 -0.1865  0.1988  0.0520
 7327W        W11527   0.241   2.547  10.319  0.1450  0.1420 -0.0825
 7328W        W11528   2.180   4.180   0.128 -0.2984  0.3459 -0.1678
 7329W        W11529   1.720   5.766  13.329  0.2301 -0.0715 -0.1954
 7330W        W11530  10.183   1.893  11.476 -0.0099  0.0397 -0.2389
 7331W        W11531   0.869   5.621   1.847 -0.0466 -0.0787 -0.0256
 7332W        W11532   3.386   8.347   2.964 -0.1257 -0.2037  0.2157
 7333W        W11533   2.331   3.219  10.364  0.2250 -0.1305  0.1300
 7334W        W11534   2.078   9.582   0.619  0.1399  0.1410 -0.1737
 7335W        W11535   9.315   7.225   4.312  0.2920 -0.0022  0.1505
 7336W        W11536   7.478   7.517   2.408 -0.1634  0.3026  0.0218
 7337W        W11537   2.945   8.350  12.007  0.4000 -0.0729 -0.0428
 7338W        W11538   7.785   8.514   2.064 -0.2584 -0.0557  0.0201
 7339W        W11539   8.621   8.571   4.684 -0.3255 -0.2018 -0.0866
 7340W        W11540   0.841   9.923  10.164 -0.2488 -0.4522  0.1344
 7341W        W11541   5.433   1.649  13.070  0.2222 -0.4238  0.1625
 7342W        W11542   2.868   4.380   8.932 -0.0882 -0.0557  0.0163
 7343W        W11543   3.771   9.543   9.543 -0.2073 -0.1660 -0.3853
 7344W        W11544   7.860   3.902   4.748 -0.2862  0.2408 -0.2944
 7345W        W11545   4.289   4.559  10.920  0.0469 -0.0511 -0.0418
 7346W        W11546   0.192   1.242   2.865  0.0188 -0.0418  0.0512
 7347W        W11547   1.772   3.456   3.696 -0.2928  0.0967  0.0944
 7348W        W11548   6.905   0.704  10.869 -0.3041 -0.1010 -0.1376
 7349W        W11549   4.160   2.868  12.139  0.2007  0.0846 -0.0482
 7350W        W11550   2.635   1.499   0.468  0.3159 -0.0686 -0.1801
 7351W        W11551   8.809   7.566  10.983  0.1677  0.1834 -0.1589
 7352W        W11552   0.873   0.682  11.001  0.0247 -0.6022  0.0587
 7353W        W11553   7.026   0.823   0.023 -0.1683  0.0588 -0.1073
 7354W        W11554   0.243   7.287   4.131 -0.2540 -0.1647 -0.0606
 7355W        W11555   7.084   4.343  12.854 -0.0863 -0.1078 -0.0529
 7356W        W11556   6.767   7.819   2.913 -0.2571 -0.0031  0.0091
 7357W        W11557   8.625   8.936   1.964 -0.0038  0.0133  0.1252
 7358W        W11558   5.769   6.357   9.287 -0.0283  0.3751 -0.0661
 7359W        W11559   7.146   7.105  10.175 -0.0380 -0.0656 -0.2704
 7360W        W11560   1.802   9.282   4.299 -0.2522 -0.2751 -0.0788
 7361W        W11561   7.337   0.188  12.195 -0.0927  0.3539  0.2091
 7362W        W11562   3.972   7.175   3.793  0.0496 -0.3688  0.2895
 7363W        W11563   7.905   5.499  11.529 -0.0249  0.0823  0.3280
 7364W        W11564   0.286   6.495   3.288  0.1079  0.4381 -0.3645
 7365W        W11565   1.049   5.715   0.853  0.1917  0.2300  0.1159
 7366W        W11566   5.459   8.243   1.316  0.0506  0.1363  0.0413
 7367W        W11567   4.183  10.038   2.423 -0.0252 -0.0286 -0.1951
 7368W        W11568   9.069   1.606   0.543 -0.1798 -0.2739  0.2627
 7369W        W11569   9.764   6.391  12.532  0.0395  0.1956  0.1366
 7370W        W11570   3.083   6.144   0.884  0.0144  0.0895  0.2383
 7371W        W11571   3.685   1.602   0.445  0.1185 -0.0954 -0.0532
 7372W        W11572   6.546   9.512   1.960  0.0034 -0.4409  0.0329
 7373W        W11573   4.702   8.129  12.260  0.1261  0.0147  0.0337
 7374W        W11574   0.297   8.021   9.569 -0.5000  0.0171  0.2318
 7375W        W11575   7.846   4.888   2.844  0.3520 -0.0109  0.0393
 7376W        W11576   0.484   8.539  12.562  0.0032 -0.1672 -0.3874
 7377W        W11577   5.997   9.377  10.421  0.0767 -0.0836  0.3278
 7378W        W11578   3.026   1.209  12.385  0.1615 -0.3999  0.0112
 7379W        W11579   5.272   9.194  11.468 -0.1709 -0.0859  0.1308
 7380W        W11580   7.156   9.801   3.563 -0.0156 -0.4348 -0.0410
 7381W        W11581   2.113   2.492  10.577 -0.1138  0.2320 -0.2368
 7382W        W11582   8.217   0.187   1.114  0.3608  0.0038 -0.1365
 7383W        W11583   0.698   5.954   2.244  0.2153 -0.2768  0.0415
 7384W        W11584   7.400   8.267  13.321  0.0600 -0.0370  0.1205
 7385W        W11585   4.706  10.434  11.621  0.2697  0.1698 -0.0346
 7386W        W11586   6.775   1.534   4.067  0.3567 -0.0519 -0.1210
 7387W        W11587   7.134   7.158   2.229  0.0179 -0.0074  0.2148
 7388W        W11588   5.773   0.459   1.227 -0.1312  0.1978 -0.0791
 7389W        W11589   2.633   1.615   2.166 -0.2211 -0.0139 -0.3263
 7390W        W11590   0.169   6.918   9.647  0.0239 -0.1115  0.3456
 7391W        W11591   7.298   9.061  10.406 -0.1859  0.0358 -0.0488
 7392W        W11592   5.826  10.318   2.981 -0.3284  0.1004 -0.1071
 7393W        W11593   5.274   1.918   3.301  0.1114 -0.1578 -0.1016
 7394W        W11594   3.252   9.598   4.019  0.0264  0.1630  0.0652
 7395W        W11595   1.625   3.965   1.477  0.3924  0.0335  0.1589
 7396W        W11596   6.482  10.165   2.596  0.0422 -0.4099  0.0629
 7397W        W11597   3.897   9.031   9.719  0.1671  0.1714  0.1468
 7398W        W11598   4.574   6.464  11.850 -0.0666 -0.0383  0.0222
 7399W        W11599   8.141   8.923   2.268  0.1208 -0.0886 -0.0760
 7400W        W11600   2.244   1.619   0.040 -0.1142 -0.3059  0.3210
 7401W        W11601   7.430   5.504   3.319  0.3609 -0.2279  0.2107
 7402W        W11602   4.367  10.163   3.813 -0.0569 -0.0124  0.0896
 7403W        W11603   5.230   4.208  12.407  0.0302 -0.1396  0.3149
 7404W        W11604   3.992   8.691   0.537  0.0359 -0.0451  0.2068
 7405W        W11605   9.355   5.422  13.129 -0.0596  0.2879  0.0515
 7406W        W11606   2.961   7.317   0.779  0.0281  0.0922  0.0777
 7407W        W11607   6.977   3.679   0.036 -0.2308 -0.4136 -0.0660
 7408W        W11608   3.837   1.680  13.329  0.0516 -0.0242 -0.1401
 7409W        W11609   1.710   8.325   2.940  0.0802 -0.0998  0.0557
 7410W        W11610   1.519   8.848   3.027  0.5326  0.1133  0.1738
 7411W        W11611   8.401   8.859  12.315 -0.0110  0.3880  0.3769
 7412W        W11612   0.332   0.707   1.188  0.1252  0.1054  0.2220
 7413W        W11613   2.672   4.263  13.390 -0.1403  0.0891 -0.0666
 7414W        W11614   4.328   4.638   1.920  0.0158  0.2396 -0.0728
 7415W        W11615  10.227   6.814  12.772  0.0286  0.0193  0.1978
 7416W        W11616   3.102   6.997   3.352  0.1636  0.2286  0.1062
 7417W        W11617   2.907   0.655   9.411  0.1461  0.3012  0.1845
 7418W        W11618   5.417   0.411  12.012 -0.1026  0.0583 -0.1267
 7419W        W11619   7.865   3.398   4.923 -0.0661 -0.2537  0.2993
 7420W        W11620   0.518   4.556   4.054  0.4623  0.0588  0.2094
 7421W        W11621   2.380   7.200  13.354  0.0280 -0.1046 -0.1554
 7422W        W11622   3.917   1.241   0.763  0.0577  0.2968  0.0824
 7423W        W11623   0.299   9.006  12.665 -0.2467  0.2579 -0.0105
 7424W        W11624   3.036   2.639   4.871  0.2165 -0.0613  0.0874
 7425W        W11625   3.267   6.985  12.085 -0.1856 -0.0872  0.0364
 7426W        W11626   3.298   3.420  11.701 -0.2601 -0.0575 -0.5128
 7427W        W11627   8.833   7.013  10.158 -0.0967  0.1220  0.0493
 7428W        W11628   7.926   3.154   3.615 -0.0246 -0.0361  0.2611
 7429W        W11629   5.505   8.950  10.215 -0.2752 -0.0641  0.2693
 7430W        W11630   1.883   9.288  11.366 -0.2195 -0.0678  0.2813
 7431W        W11631   4.313   1.631   9.136 -0.3032  0.2583  0.0092
 7432W        W11632   5.073   8.413   0.817 -0.1507 -0.0598 -0.2775
 7433W        W11633   9.245   5.662  10.179  0.0790 -0.1283 -0.2776
 7434W        W11634   6.544   8.133  11.615  0.2689 -0.2001 -0.4216
 7435W        W11635   1.421   1.114  12.678 -0.1752  0.1284 -0.0571
 7436W        W11636   3.162   0.193   0.824  0.1298  0.1870  0.0392
 7437W        W11637   4.301   5.123   1.018  0.1994  0.0217  0.0265
 7438W        W11638   2.036   7.370   2.548  0.1316 -0.2174  0.1433
 7439W        W11639   3.949   2.512   8.370  0.0573 -0.0446  0.3006
 7440W        W11640   2.251   8.357  11.347  0.0922 -0.1552 -0.0715
 7441W        W11641   4.641   9.780   2.086  0.0906  0.2790  0.0959
 7442W        W11642   7.478   2.825  11.257 -0.1677  0.0133 -0.3161
 7443W        W11643   2.905   0.549  10.741 -0.0240 -0.1324 -0.0248
 7444W        W11644   4.209   4.618   9.655  0.1875 -0.1419  0.2975
 7445W        W11645   1.072   0.749  10.304 -0.0394 -0.0730  0.0169
 7446W        W11646   1.346   1.325   1.989  0.1487 -0.4552 -0.0039
 7447W        W11647   8.546   9.525   1.114  0.2881  0.2694  0.0282
 7448W        W11648   5.679   4.040   2.734 -0.3009 -0.0341  0.2341
 7449W        W11649   5.563   2.822   9.564  0.0441  0.2563  0.0220
 7450W        W11650   6.342   1.848  11.065  0.0315  0.0114 -0.3226
 7451W        W11651   6.832   3.153   9.104  0.0423 -0.1424 -0.0421
 7452W        W11652   1.095   4.070  11.631  0.0528 -0.0339 -0.1904
 7453W        W11653   7.019   8.734  13.479 -0.0210 -0.0704 -0.2498
 7454W        W11654   6.218   2.163   1.034 -0.1191  0.0595  0.1314
 7455W        W11655   2.259   4.453   3.864  0.3164  0.4626 -0.2391
 7456W        W11656   2.914   4.140   2.194  0.2886 -0.1586  0.3645
 7457W        W11657   2.837   9.772  10.330 -0.0338  0.0207 -0.0407
 7458W        W11658   1.141   5.397  12.756  0.2796  0.0613  0.0946
 7459W        W11659   7.598   5.611   4.162 -0.1254 -0.3727  0.0080
 7460W        W11660   7.224   4.248  12.384 -0.0938 -0.1889 -0.0064
 7461W        W11661   5.859   0.838   9.241 -0.5052  0.1196  0.2651
 7462W        W11662   0.207   9.463   0.369  0.0483  0.1993 -0.1403
 7463W        W11663   9.859   8.791   0.163 -0.1632 -0.1653  0.1257
 7464W        W11664   6.552   6.350   8.691 -0.2569  0.1379 -0.1339
 7465W        W11665   5.930   0.832  10.411  0.1183 -0.0756  0.2043
 7466W        W11666   5.601   9.075   2.742  0.1301  0.1799 -0.0396
 7467W        W11667   3.682   1.692   1.161 -0.3689 -0.0670  0.3555
 7468W        W11668   9.073   3.805   1.209  0.1351 -0.1555 -0.2556
 7469W        W11669   6.086   1.233   1.938  0.0171 -0.0449  0.0604
 7470W        W11670   7.021   5.171   3.365  0.2108 -0.0573  0.2014
 7471W        W11671   6.910   0.784  13.064 -0.0552 -0.1100 -0.3566
 7472W        W11672   9.235   3.619   9.726 -0.0005  0.0932 -0.0991
 7473W        W11673   0.923   3.856   4.333 -0.1942  0.0908 -0.1976
 7474W        W11674   6.082   1.981   2.189  0.3764  0.1064 -0.1252
 7475W        W11675   7.096   3.632   3.639 -0.0749 -0.2363 -0.4275
 7476W        W11676   4.152   5.742   2.744  0.0712  0.0087  0.3797
 7477W        W11677   8.997   3.743   1.947  0.3643  0.0937  0.0077
 7478W        W11678   9.092   9.966   1.565 -0.0427  0.1951  0.1528
 7479W        W11679   9.389  10.241   2.745 -0.2165  0.1366  0.1454
 7480W        W11680   7.718   0.404   0.911  0.4798 -0.1235  0.2444
 7481W        W11681   8.118   3.340   1.941  0.2116 -0.1582 -0.4028
 7482W        W11682   6.115   0.689  12.632  0.3701  0.1323 -0.0190
 7483W        W11683   1.795   4.746   3.748  0.0126  0.1172  0.1320
 7484W        W11684   3.390   1.073   0.421 -0.0619 -0.3577 -0.2096
 7485W        W11685   0.998   6.553   0.764  0.1354  0.1838  0.4803
 7486W        W11686   8.635   4.241   1.302 -0.0522 -0.0607 -0.0975
 7487W        W11687   2.702   2.159  11.179 -0.1585  0.1601 -0.3260
 7488W        W11688   4.523   4.898   2.812 -0.0276 -0.0664  0.3117
 7489W        W11689   4.772   9.607  12.110  0.0264  0.0808  0.0429
 7490W        W11690   2.222   5.565  12.337 -0.0563 -0.1122 -0.2545
 7491W        W11691   1.927   9.098  11.896 -0.2677  0.1921  0.0529
 7492W        W11692   1.307   8.084   0.297 -0.1469 -0.1887  0.1382
 7493W        W11693   5.709   0.003  12.958  0.0283  0.0117  0.1366
 7494W        W11694   4.976   6.243  12.115  0.1481  0.1482 -0.2335
 7495W        W11695   6.080   2.818   8.909  0.1470  0.3255 -0.1506
 7496W        W11696   1.005   6.130  11.690  0.0559  0.3587 -0.0740
 7497W        W11697   9.307   7.066  10.291 -0.0142 -0.1712  0.1140
 7498W        W11698   8.446   4.733  10.559 -0.1543 -0.1421  0.0500
 7499W        W11699   0.096   5.971  12.311 -0.0214 -0.4848  0.2352
 7500W        W11700   1.031   6.708  10.248  0.1296 -0.0827 -0.3131
 7501W        W11701   0.393  10.225   1.604 -0.3849  0.0472  0.0552
 7502W        W11702   8.203   8.204  10.581  0.0338 -0.1115  0.0472
 7503W        W11703   0.680   2.756  12.383  0.1676  0.1068 -0.0428
 7504W        W11704  10.332   2.877  10.436  0.2544 -0.0794  0.1359
 7505W        W11705   8.323   9.251   1.624 -0.0647 -0.0105 -0.1036
 7506W        W11706  10.120   2.726  10.855  0.0686 -0.0452 -0.2822
 7507W        W11707   0.354   3.449   5.630  0.1472 -0.0435 -0.0425
 7508W        W11708   3.854   0.715   2.746  0.2792  0.1089  0.0057
 7509W        W11709   3.301   0.574   3.972  0.0126  0.0399  0.1112
 7510W        W11710   0.747   8.572  10.177  0.1483 -0.1989  0.0224
 7511W        W11711   5.651   0.828  10.841 -0.0263 -0.0684 -0.0768
 7512W        W11712   8.429   7.094   8.920  0.0304 -0.3584 -0.2558
 7513W        W11713   2.851   5.274   3.582 -0.3407  0.1119 -0.1270
 7514W        W11714   6.005   1.148  11.889 -0.1452  0.0202 -0.0867
 7515W        W11715   4.889   1.085   4.127 -0.3801 -0.3268  0.2280
 7516W        W11716   0.484   5.546   0.909 -0.1012  0.1542 -0.2706
 7517W        W11717   4.845   7.434   2.177  0.0486  0.0584  0.0305
 7518W        W11718   3.377   4.386  12.829 -0.3025 -0.0458  0.1991
 7519W        W11719   3.351   3.700   4.815 -0.0290  0.3928 -0.0388
 7520W        W11720   4.033   2.452  12.422 -0.0179  0.2013 -0.2609
 7521W        W11721   3.448   7.691  11.439 -0.2178  0.0255 -0.3841
 7522W        W11722   4.471   2.448   9.701  0.2162 -0.1413  0.4855
 7523W        W11723  10.302   9.662  12.644 -0.3146  0.0276  0.2118
 7524W        W11724   1.477   1.335  13.145 -0.3053  0.1960  0.0673
 7525W        W11725   7.713   0.510   3.455  0.0383  0.1878  0.3204
 7526W        W11726   5.285   0.394   1.534  0.2436  0.0146  0.1146
 7527W        W11727   5.475   4.069  10.622 -0.0727  0.3476 -0.1393
 7528W        W11728   1.350   7.957   3.791  0.0626 -0.2079 -0.0156
 7529W        W11729   6.957   9.708   1.013 -0.3485  0.1102 -0.0347
 7530W        W11730   0.149   3.314  13.405  0.0989 -0.1636  0.1587
 7531W        W11731   9.900   7.343   2.674 -0.1271  0.0212  0.1773
 7532W        W11732   9.198   2.672  13.001  0.3047 -0.1180 -0.1064
 7533W        W11733   0.889   9.010  11.900 -0.1096 -0.1023  0.0018
 7534W        W11734   9.549   4.420   3.840  0.1584 -0.2645 -0.0414
 7535W        W11735   3.279   6.781   4.873 -0.0947 -0.0070  0.0568
 7536W        W11736   4.279   9.671   9.587  0.2422  0.0151 -0.2171
 7537W        W11737   9.353   3.534   3.905  0.2838 -0.4504 -0.0115
 7538W        W11738   6.624   0.199   4.120 -0.0645  0.1085  0.3153
 7539W        W11739   9.155   9.244  10.016 -0.1297 -0.1087  0.1234
 7540W        W11740   4.346   1.346   0.550  0.3570 -0.1005 -0.0415
 7541W        W11741   8.571   1.589  12.566 -0.1224  0.2213 -0.0077
 7542W        W11742  10.015   6.501  11.120 -0.1899 -0.4984  0.2403
 7543W        W11743   3.401   3.057  12.949  0.3707 -0.2408 -0.1883
 7544W        W11744   5.700   1.676   2.252  0.2135 -0.0481  0.2552
 7545W        W11745   7.488   9.062   3.059  0.0838 -0.1524  0.0282
 7546W        W11746   4.041  10.233  12.793  0.0409  0.1232  0.3257
 7547W        W11747   4.818   0.671   1.896 -0.3466  0.0935 -0.2453
 7548W        W11748   5.824   3.060  13.359  0.2459  0.3326 -0.1066
 7549W        W11749  10.152   7.620  12.963  0.1257 -0.2102  0.0486
 7550W        W11750   3.527   6.611   9.302 -0.1731  0.0647 -0.0646
 7551W        W11751   9.073   0.289   1.067 -0.1403  0.2510 -0.3621
 7552W        W11752   0.170   6.061   2.909  0.4173 -0.1333 -0.0738
 7553W        W11753   3.002   5.332   9.055 -0.1946  0.1132  0.1644
 7554W        W11754   2.845   3.687   0.763 -0.0776 -0.2041  0.1394
 7555W        W11755   5.774   4.839  12.773  0.1633 -0.3424  0.3126
 7556W        W11756   9.172   2.322   0.429  0.0650  0.0776 -0.0346
 7557W        W11757   7.810   6.644  11.029  0.3108 -0.0563 -0.1966
 7558W        W11758   6.220   8.062   2.255  0.3787 -0.0685  0.1180
 7559W        W11759   0.369   1.349  13.478 -0.0611  0.0511  0.1338
 7560W        W11760   5.517   9.768   3.634  0.1301 -0.1243  0.0903
 7561W        W11761   3.981   4.118   0.038 -0.0505 -0.0068  0.1081
 7562W        W11762   3.133   3.552   2.660  0.4117 -0.1290  0.0309
 7563W        W11763   4.556   6.498  12.616 -0.1392 -0.0882 -0.1100
 7564W        W11764   3.590   1.898  11.361 -0.1105  0.3471 -0.2270
 7565W        W11765   2.224   3.664  10.929  0.1115 -0.1299 -0.0930
 7566W        W11766   8.846   7.819  13.350 -0.2311  0.2094  0.0471
 7567W        W11767   0.198   8.206   2.765  0.1454  0.0613 -0.0613
 7568W        W11768   2.515   6.843  11.101  0.2607 -0.0646 -0.0245
 7569W        W11769   5.186   9.548  12.372 -0.0309  0.2307 -0.2836
 7570W        W11770   6.610   4.402   2.508  0.3320  0.2534 -0.2332
 7571W        W11771   1.972   9.909  11.091  0.1439  0.0180 -0.1724
 7572W        W11772   1.427   8.974   5.334 -0.2659  0.0223 -0.1029
 7573W        W11773   8.472   5.862   9.965 -0.2329  0.3019 -0.2887
 7574W        W11774   3.459   7.653  11.990 -0.1226 -0.1882  0.1798
 7575W        W11775   0.168   2.040   1.626  0.0045  0.0803 -0.0186
 7576W        W11776   1.257   4.722   3.500 -0.0973  0.1723 -0.0273
 7577W        W11777   4.818   6.088   3.250  0.3654 -0.1087 -0.1119
 7578W        W11778   3.177   1.923  11.051  0.0176  0.4542  0.2146
 7579W        W11779   6.560   2.042   0.207 -0.1013 -0.0725 -0.0644
 7580W        W11780   3.533   9.866   1.309 -0.0395  0.1080  0.0783
 7581W        W11781   0.812   0.776   1.259  0.0314  0.3784 -0.0624
 7582W        W11782   0.595   1.770   2.140 -0.0560 -0.0843 -0.0300
 7583W        W11783   5.007   0.746   4.801 -0.1846 -0.0751  0.1202
 7584W        W11784   8.154   2.133  12.386 -0.3257 -0.2866 -0.0070
 7585W        W11785   4.132   7.428   4.192 -0.0215 -0.1098 -0.1491
 7586W        W11786   7.510   5.836   3.681  0.0718  0.1212 -0.0014
 7587W        W11787   6.710   2.900   0.140  0.0130  0.0543 -0.0892
 7588W        W11788   5.081   3.717   0.314  0.1431 -0.1423  0.2250
 7589W        W11789   2.740   0.022  10.713  0.0049  0.0078  0.4998
 7590W        W11790   1.999   5.991   3.779 -0.3456  0.0588 -0.0783
 7591W        W11791   9.985   5.760   1.426  0.0612 -0.3092  0.3659
 7592W        W11792   7.839  10.262   2.280  0.1825 -0.2103  0.3346
 7593W        W11793   6.469   1.039   3.421  0.0365  0.2413 -0.2031
 7594W        W11794   7.061   7.813   3.329 -0.2905  0.5083  0.0226
 7595W        W11795   0.504   8.664   5.028  0.1314  0.1860  0.1494
 7596W        W11796   8.237   8.721   1.755 -0.1945  0.1821 -0.0190
 7597W        W11797   9.211   2.371  12.564  0.0492 -0.0212  0.2765
 7598W        W11798   8.449   4.195   5.114  0.0978 -0.0148  0.0193
 7599W        W11799   9.850   2.303  11.405 -0.2255  0.3031  0.1603
 7600W        W11800  10.403   7.627  10.677 -0.0519  0.0824  0.1836
 7601W        W11801   7.439   0.954   4.351  0.3575  0.0647 -0.0725
 7602W        W11802   0.146   4.783   3.724  0.2305 -0.0149 -0.2062
 7603W        W11803   4.867   7.046  10.479 -0.0641  0.3514 -0.0695
 7604W        W11804   6.159   5.273   9.247  0.1884  0.1109  0.0423
 7605W        W11805   5.172   0.089  11.313  0.5101  0.0479  0.0271
 7606W        W11806   3.602   6.674  13.025  0.0697 -0.1015  0.0498
 7607W        W11807   5.906   6.054   2.030  0.0173 -0.0880 -0.0034
 7608W        W11808   6.237   3.223  12.254 -0.0469  0.0659  0.1404
 7609W        W11809   0.806   7.569  11.170 -0.0955 -0.2089 -0.0958
 7610W        W11810   4.999   5.839   4.307  0.0270  0.0152  0.1852
 7611W        W11811   6.675   0.130  11.448 -0.1778  0.2327 -0.2360
 7612W        W11812   5.425   9.647  10.842 -0.3369  0.1822 -0.0055
 7613W        W11813  10.044   5.380   1.781  0.0374  0.1005 -0.2153
 7614W        W11814   8.740   3.013   3.019  0.1334  0.0291  0.2568
 7615W        W11815   2.220   0.783   2.638  0.1124  0.0127  0.1816
 7616W        W11816   2.822   4.215  12.869 -0.2319  0.0469  0.0929
 7617W        W11817   7.523   2.793   4.177  0.1400  0.0653  0.2270
 7618W        W11818   6.745   2.818  13.028  0.2873  0.1537  0.0779
 7619W        W11819   7.001   4.626   3.683 -0.2469 -0.1306  0.3666
 7620W        W11820   9.165   8.013   3.875  0.1510  0.4093 -0.3661
 7621W        W11821   2.143   7.420   1.132  0.3973  0.3542  0.1862
 7622W        W11822   7.500   7.314   1.747 -0.1523 -0.2274 -0.0059
 7623W        W11823   7.364   7.853   1.446  0.1445  0.1639  0.0272
 7624W        W11824  10.299   6.067   3.263  0.0606  0.2112 -0.2569
 7625W        W11825   4.014   1.264   0.099 -0.1437  0.0125 -0.1559
 7626W        W11826   2.501   7.426   4.047 -0.2608 -0.1285  0.0460
 7627W        W11827   8.312   7.322   2.164 -0.1281 -0.4800  0.1280
 7628W        W11828   0.165   5.016  12.652  0.0078  0.0857 -0.0457
 7629W        W11829   8.355   5.441  11.328 -0.1071  0.3330 -0.0200
 7630W        W11830  10.019   3.216  10.085 -0.1617  0.1846 -0.2026
 7631W        W11831   8.852   9.141   0.257  0.2406  0.0430 -0.0918
 7632W        W11832   4.471   3.373   0.992 -0.1263 -0.2262 -0.2422
 7633W        W11833   8.382   5.411   3.040  0.3761 -0.1981  0.0166
 7634W        W11834   1.831   9.961   3.628 -0.0164  0.1171  0.3528
 7635W        W11835   5.636   2.811  10.430  0.0631 -0.1295 -0.1459
 7636W        W11836  10.248   2.867  12.579 -0.1642  0.0808 -0.1588
 7637W        W11837   7.578   3.248   2.458  0.0269 -0.0980  0.3945
 7638W        W11838   5.267   0.514   1.031 -0.0304  0.2377  0.0521
 7639W        W11839   0.461   3.760  12.346  0.0735  0.0581  0.1290
 7640W        W11840   5.434   5.421   2.879  0.0822  0.2343  0.0514
 7641W        W11841   7.684   2.879   0.387  0.5206 -0.3390 -0.1002
 7642W        W11842   9.793   0.802  10.593  0.0220 -0.2604  0.0951
 7643W        W11843   2.110  10.332   4.452  0.1686 -0.0170 -0.0586
 7644W        W11844   5.085   7.271   5.248 -0.0527  0.3518 -0.1368
 7645W        W11845   4.298   9.071  13.298 -0.2210  0.0215 -0.2660
 7646W        W11846   6.440   5.724   9.400  0.0988 -0.0839  0.2800
 7647W        W11847   5.273   5.547   3.714 -0.3189  0.0702  0.2340
 7648W        W11848   8.783   9.614  12.569  0.0971  0.2553  0.0847
 7649W        W11849   3.134   5.315   4.908 -0.1349 -0.0824 -0.2959
 7650W        W11850   4.371   8.898   4.543 -0.1576 -0.0701  0.1263
 7651W        W11851   4.626   3.908   0.586  0.1575  0.0367 -0.0686
 7652W        W11852   6.326   2.039  12.695 -0.3100 -0.3674 -0.0602
 7653W        W11853   8.801   8.964   2.955 -0.0293 -0.0252 -0.2087
 7654W        W11854   3.006   1.088   3.113  0.1889 -0.0919 -0.0766
 7655W        W11855   0.336   8.464  11.714 -0.0625 -0.0497  0.0879
 7656W        W11856   3.912   1.582  12.799  0.0866 -0.0867  0.1599
 7657W        W11857   0.684   0.267  12.096  0.1358  0.3461  0.0170
 7658W        W11858   4.284   6.809   1.832 -0.2257  0.1674  0.2152
 7659W        W11859   9.243   5.216   9.988  0.0923 -0.0002 -0.1409
 7660W        W11860   4.339   6.450   4.166 -0.1999 -0.3732  0.2965
 7661W        W11861   2.245   3.746  12.463 -0.0544  0.0123 -0.2801
 7662W        W11862   5.724   3.097   1.950 -0.0299 -0.2291 -0.2663
 7663W        W11863   7.210   0.120  11.459 -0.1072 -0.0834  0.0283
 7664W        W11864   2.550   4.120  11.916 -0.1566 -0.2272  0.0736
 7665W        W11865   7.064   8.314   3.165 -0.0453 -0.2243 -0.3700
 7666W        W11866   3.581   0.944  11.326 -0.1031 -0.1328  0.1208
 7667W        W11867   5.638   5.576  12.152  0.1725 -0.1862 -0.3184
 7668W        W11868   3.603   2.214   3.259  0.0055  0.1623  0.0134
 7669W        W11869   4.910   5.147  12.642 -0.3339 -0.1530  0.0974
 7670W        W11870   7.766   5.019  11.705 -0.1544  0.0797  0.1324
 7671W        W11871   1.884   8.739   9.499 -0.1167  0.2569  0.1506
 7672W        W11872   8.668   5.089   2.415  0.1816  0.4463 -0.0929
 7673W        W11873   1.869  10.177  11.506 -0.0391 -0.0287  0.0564
 7674W        W11874   4.403   6.219  11.407 -0.0680 -0.0822  0.1499
 7675W        W11875  10.087   9.047  11.879 -0.6761  0.2428  0.1697
 7676W        W11876   1.667   4.761  12.843 -0.3188  0.1258 -0.0207
 7677W        W11877  10.308   1.715   2.914 -0.1923  0.1981 -0.1856
 7678W        W11878   9.084   6.230   2.982  0.0653  0.0071  0.3203
 7679W        W11879   3.422   1.376  12.101  0.1660  0.0681 -0.0010
 7680W        W11880   6.747   8.941  10.504 -0.1919  0.2074  0.1676
 7681W        W11881   6.144   8.922  10.488  0.0396  0.0525 -0.1812
 7682W        W11882   8.007   9.409  12.628 -0.1297 -0.4793 -0.1722
 7683W        W11883   4.205   1.296  11.849 -0.1482  0.1244  0.0639
 7684W        W11884   6.873  10.440  12.970  0.2079 -0.4506  0.1574
 7685W        W11885   1.206   7.073   5.033  0.1138  0.1920  0.1187
 7686W        W11886   5.237   7.770   1.290 -0.0382  0.1582  0.0811
 7687W        W11887   0.651   1.817  11.421 -0.1163  0.0363 -0.1812
 7688W        W11888   2.013  10.234  12.497 -0.1699 -0.1470 -0.4661
 7689W        W11889   5.075   0.315   5.106  0.2514  0.0513  0.2805
 7690W        W11890   9.356   0.884  13.425 -0.1015 -0.1093 -0.2664
 7691W        W11891   0.202   3.831   1.393  0.0442  0.0190  0.3001
 7692W        W11892   5.326   7.559   3.972 -0.2982 -0.1354 -0.1159
 7693W        W11893   3.285   5.813   9.732 -0.2151 -0.1523  0.1661
 7694W        W11894   2.554   9.089  13.504  0.1140 -0.2155 -0.0577
 7695W        W11895   8.623   2.291  12.519 -0.2433 -0.0183  0.5873
 7696W        W11896   9.426   9.855   0.598 -0.1281  0.0609  0.1795
 7697W        W11897   8.806   5.198   0.986 -0.2051 -0.1706  0.0791
 7698W        W11898   2.013   8.410   1.270 -0.0419  0.0434 -0.5268
 7699W        W11899   9.232   3.092   2.908 -0.0423 -0.1734  0.0222
 7700W        W11900   3.387   0.313   3.081  0.1358  0.0552  0.0821
 7701W        W11901   6.607   2.553   2.869 -0.0673 -0.1093  0.2240
 7702W        W11902   2.703  10.185   1.662 -0.0065 -0.1771  0.1150
 7703W        W11903   0.624   1.346  11.195  0.1959 -0.3112 -0.1553
 7704W        W11904   2.405   9.329   3.893  0.1773 -0.2165 -0.0880
 7705W        W11905  10.040   6.204   0.667  0.0798  0.0953  0.1136
 7706W        W11906   2.327   5.756   9.373  0.0502 -0.2302  0.2355
 7707W        W11907   7.708   4.672   4.197 -0.0304 -0.1257  0.4146
 7708W        W11908   0.900   7.467   2.411 -0.0440  0.0208 -0.2989
 7709W        W11909  10.363   7.005   9.110  0.0270 -0.2345 -0.2114
 7710W        W11910   6.737   8.136  12.078  0.2696 -0.0300 -0.0443
 7711W        W11911   4.241   7.487   0.302 -0.2179 -0.0931 -0.0662
 7712W        W11912   5.685   3.596   2.971 -0.1325  0.1593 -0.0804
 7713W        W11913   7.114   9.781  10.155  0.0652 -0.0068  0.4520
 7714W        W11914   6.530   0.599  10.213 -0.1794 -0.1662  0.0906
 7715W        W11915   0.643   4.250   2.199  0.3571  0.4178 -0.0967
 7716W        W11916   6.322   0.712   2.018  0.1580 -0.0794 -0.2331
 7717W        W11917   2.986   4.331   1.569  0.2326 -0.4214 -0.0901
 7718W        W11918   4.317   4.576   0.609 -0.2052 -0.0755 -0.0927
 7719W        W11919   3.628   9.550   0.595  0.0137 -0.0225  0.2221
 7720W        W11920   1.365   9.168   2.594  0.0092 -0.3420  0.1391
 7721W        W11921   1.591   1.846  10.321  0.1699  0.0937  0.0737
 7722W        W11922   7.421   6.129  10.950 -0.1220  0.0584  0.1755
 7723W        W11923   5.903   2.401   0.163  0.3205  0.2155  0.0042
 7724W        W11924   5.553   3.956  11.126 -0.3126 -0.1294 -0.1828
 7725W        W11925   5.564   8.320  10.819  0.2209 -0.0401 -0.0694
 7726W        W11926  10.188   2.441  10.003 -0.2391 -0.0566  0.3171
 7727W        W11927   1.734   3.376   0.280  0.2272  0.1035  0.3771
 7728W        W11928   6.124   0.131   2.670 -0.2853 -0.0893  0.0318
 7729W        W11929   9.708   7.954   1.278  0.1210 -0.1291  0.1163
 7730W        W11930   7.720   1.849  12.302 -0.1410 -0.2187  0.2313
 7731W        W11931   6.899   0.490   3.304 -0.0357  0.3577 -0.1325
 7732W        W11932   6.769   1.012  11.847 -0.3535  0.1860  0.1573
 7733W        W11933   3.942   0.689  11.006 -0.1385  0.2739  0.0394
 7734W        W11934   9.334   6.730   4.503 -0.0301 -0.3795 -0.3331
 7735W        W11935   3.657   1.265   4.320 -0.0185 -0.2544  0.2097
 7736W        W11936   0.661   7.516  10.166 -0.5592 -0.0123  0.2402
 7737W        W11937  10.336   2.038   3.260 -0.1370 -0.1818  0.0350
 7738W        W11938   7.587   2.919  12.088  0.4296 -0.0668 -0.0105
 7739W        W11939   2.121   4.180  10.561 -0.3889 -0.1538 -0.2904
 7740W        W11940   9.978   3.911   2.538  0.3295 -0.0344  0.1195
 7741W        W11941   8.408   1.749  10.006  0.0224  0.1214  0.0328
 7742W        W11942   7.989   7.642  11.781 -0.1825  0.0527  0.1005
 7743W        W11943   8.091   5.505   4.300 -0.2515 -0.0143  0.3868
 7744W        W11944   9.737   9.623   2.101  0.1058  0.0826 -0.1522
 7745W        W11945   7.016   7.902  11.695 -0.0915  0.3573 -0.2063
 7746W        W11946   9.768   3.177   3.995 -0.0447 -0.1071  0.1474
 7747W        W11947   2.039   0.939   1.539  0.3542 -0.0280 -0.0845
 7748W        W11948   6.418   8.782  12.768  0.1162 -0.1981  0.2628
 7749W        W11949   2.722   7.202   0.309  0.1105 -0.1033  0.0882
 7750W        W11950   5.058   6.547   2.007 -0.1175 -0.1457 -0.1503
 7751W        W11951   9.606   6.340  11.500  0.0715  0.0881 -0.0380
 7752W        W11952  10.209   3.229   0.804 -0.1874  0.0971  0.1506
 7753W        W11953   7.407   6.505  11.338  0.2431  0.1308  0.4664
 7754W        W11954   2.352   1.901  13.144 -0.2388 -0.2380 -0.5018
 7755W        W11955   1.179   7.488   6.222 -0.0011 -0.0021  0.0538
 7756W        W11956   0.722   8.523  12.108  0.2338 -0.1944 -0.1556
 7757W        W11957   8.769   2.268   3.171 -0.1613 -0.1666 -0.3128
 7758W        W11958   0.608   6.177  10.996 -0.5064  0.1332  0.0650
 7759W        W11959   3.891   7.128   2.852 -0.0987  0.4939  0.2260
 7760W        W11960   0.069   5.506  13.457  0.1013 -0.0241 -0.1225
 7761W        W11961   0.574   4.683  10.718  0.0211  0.0213 -0.2177
 7762W        W11962   7.919   6.187   5.613 -0.2527  0.0214  0.1012
 7763W        W11963   8.614   5.828   1.955  0.2861  0.1127 -0.1202
 7764W        W11964   4.895   6.934   3.062  0.1223 -0.3009 -0.3758
 7765W        W11965   9.068   2.662   3.354 -0.2526 -0.0813  0.0616
 7766W        W11966   6.674   5.454   0.196  0.2019 -0.2021 -0.0342
 7767W        W11967   2.562   5.483   2.535  0.1112 -0.1184 -0.1019
 7768W        W11968   9.533   5.644   1.630  0.0282 -0.1070 -0.0031
 7769W        W11969   9.530   5.541  12.670  0.0300  0.0485 -0.1721
 7770W        W11970   1.123   9.750   0.953 -0.0602  0.1028 -0.2416
 7771W        W11971   4.804   2.228  10.335  0.4054 -0.0239  0.0029
 7772W        W11972   3.422   7.269   2.983 -0.0832  0.0689 -0.0742
 7773W        W11973   2.036   8.421   4.158 -0.1591  0.0783 -0.2348
 7774W        W11974   2.945   7.846  11.283 -0.1418 -0.0175 -0.0409
 7775W        W11975   1.396   1.793  13.140 -0.1513 -0.2262  0.2507
 7776W        W11976   6.183  10.097   0.236 -0.0887  0.1324  0.1565
 7777W        W11977   1.891   1.274   1.959 -0.0007 -0.1899  0.0059
 7778W        W11978   0.968   5.678   3.066 -0.0221  0.0630 -0.0060
 7779W        W11979   9.876   1.233  12.598  0.0703  0.2687 -0.5073
 7780W        W11980   5.864   4.266  13.504 -0.1269 -0.1505  0.2508
 7781W        W11981   4.880   9.590   4.618 -0.1486 -0.2315 -0.1539
 7782W        W11982   3.225   0.407  11.353  0.1901  0.0694  0.2506
 7783W        W11983   5.693   1.394  12.162 -0.1534 -0.0118  0.2588
 7784W        W11984   3.523   3.940   9.482 -0.0252 -0.0330  0.1749
 7785W        W11985   4.842   0.813   8.210 -0.1704  0.1145  0.0885
 7786W        W11986   2.575   0.964   3.424  0.2796 -0.0718 -0.3249
 7787W        W11987   8.495   2.422  11.984 -0.0344  0.6009  0.1434
 7788W        W11988   7.569   9.490  12.460  0.1062  0.3210 -0.1970
 7789W        W11989   4.579   1.862   0.540  0.2437 -0.0818  0.0516
 7790W        W11990   2.991   1.067  10.638 -0.1935 -0.0498  0.0181
 7791W        W11991   7.050   6.620   1.935 -0.1101  0.1375  0.0960
 7792W        W11992   4.028   8.584   4.850 -0.0349  0.1460  0.0810
 7793W        W11993   0.851   8.578  13.009 -0.1565 -0.2867  0.1790
 7794W        W11994   7.871   2.342  11.381  0.1803  0.3582  0.1011
 7795W        W11995   8.184   1.047  12.633 -0.0560  0.2957 -0.1107
 7796W        W11996   2.467   6.307   3.149  0.1711 -0.5487 -0.1133
 7797W        W11997   5.692   8.915   1.928 -0.2766  0.1401  0.3587
 7798W        W11998   1.708   3.499  11.043 -0.0662 -0.1932 -0.0688
 7799W        W11999   7.681   8.297  12.392  0.1177  0.1927  0.0862
 7800W        W12000   5.495   2.218  13.312 -0.0505 -0.0190 -0.0087
 7801W        W12001   0.241   9.439  12.386  0.2163  0.0281 -0.0875
 7802W        W12002   4.962   8.216   1.269  0.1373  0.0166  0.0572
 7803W        W12003   9.338   0.684   3.202  0.2395  0.1213 -0.1262
 7804W        W12004   8.095   6.150   4.812  0.3933 -0.1066  0.0643
 7805W        W12005   4.283   0.519   8.003 -0.1248  0.1834 -0.0319
 7806W        W12006   1.809   6.506   2.594  0.0134 -0.4982  0.1358
 7807W        W12007   2.323   3.512   8.945 -0.4151 -0.1521  0.2039
 7808W        W12008   5.228   7.482   4.822  0.0026  0.2329 -0.1420
 7809W        W12009   7.649  10.410   9.917  0.1344  0.2443 -0.1109
 7810W        W12010   8.866   4.933   9.966 -0.0609  0.0917  0.3410
 7811W        W12011  10.096   6.878   9.990 -0.0695  0.3741  0.2740
 7812W        W12012   4.603   8.198  11.234 -0.0181  0.1690 -0.2244
 7813W        W12013   1.197   2.367   4.086  0.0702  0.0759 -0.2817
 7814W        W12014   3.499   6.761   4.307 -0.1090 -0.3401 -0.2216
 7815W        W12015   8.596   0.131   1.842 -0.0025  0.0615  0.1380
 7816W        W12016   4.086   3.781   9.093 -0.0163 -0.1452 -0.2859
 7817W        W12017   9.353   0.010  11.467 -0.0036 -0.0114 -0.0050
 7818W        W12018   1.053   3.235   4.971  0.0264 -0.0542  0.1186
 7819W        W12019   0.004   6.855   4.214  0.0384  0.0598 -0.1500
 7820W        W12020   5.691   5.071  10.781  0.1245 -0.3326  0.2146
 7821W        W12021   0.658   5.972   3.841 -0.3302  0.0220 -0.1137
 7822W        W12022   4.617   7.574  12.195 -0.2297 -0.0183  0.2320
 7823W        W12023   2.045   9.578  10.650  0.0146  0.0383  0.2360
 7824W        W12024   2.373   7.029   4.481  0.1860  0.4337 -0.0879
 7825W        W12025   0.315   3.933  11.142  0.1125 -0.1449  0.2100
 7826W        W12026   5.754   8.705  11.527 -0.2880 -0.0431  0.0384
 7827W        W12027   8.223  10.463   9.586  0.1339  0.3680  0.0938
 7828W        W12028   5.101   9.743   2.292  0.0234  0.0098 -0.1041
 7829W        W12029   4.446   5.306   3.933  0.0846  0.1626  0.1333
 7830W        W12030   6.002   0.003   5.342  0.1074 -0.0155 -0.2134
 7831W        W12031   4.168   2.995  10.532  0.0176 -0.0328 -0.0893
 7832W        W12032   1.206   1.553   3.883  0.1806  0.0395  0.0323
 7833W        W12033   0.791   5.140   5.764 -0.1680 -0.0687  0.0023
 7834W        W12034   2.876   8.826  11.421 -0.2329 -0.0461  0.0722
 7835W        W12035   8.426   8.688  10.118  0.0623  0.1134  0.1521
 7836W        W12036  10.228   3.454   3.867  0.3051 -0.1206 -0.0232
 7837W        W12037   5.285  10.104   1.301 -0.1828  0.2508 -0.0210
 7838W        W12038   3.240   0.616   0.014  0.2430  0.2308  0.3372
 7839W        W12039   2.999   2.612   2.572  0.4739  0.2344  0.0975
 7840W        W12040   1.590   7.982   4.647 -0.2087 -0.1956  0.1351
 7841W        W12041  10.038   0.360  11.101  0.2702 -0.0621  0.2010
 7842W        W12042   3.673   5.821   2.539  0.0067  0.0476 -0.1373
 7843W        W12043   3.445   0.493  11.854 -0.2902 -0.1069 -0.1073
 7844W        W12044   9.863   2.040   3.312  0.5679  0.2305  0.1838
 7845W        W12045   7.260   1.001   1.614 -0.0826 -0.0366  0.0654
 7846W        W12046   3.930  10.348  10.642 -0.3208 -0.2108 -0.4592
 7847W        W12047   1.765   8.036   2.028 -0.0200 -0.1841  0.0994
 7848W        W12048   3.553  10.250  12.553 -0.2127 -0.2904  0.1426
 7849W        W12049   3.907   1.931   2.213 -0.1744  0.0811 -0.0857
 7850W        W12050   9.382   9.449   1.435  0.1618  0.0184 -0.2732
 7851W        W12051   4.684   6.642   8.809 -0.1408 -0.1385  0.0506
 7852W        W12052   9.606   1.088  11.569  0.1506  0.0461  0.0395
 7853W        W12053  10.449   6.963   0.668 -0.0229 -0.1250  0.2019
 7854W        W12054   1.122   1.650   2.399  0.0135 -0.1821 -0.0614
 7855W        W12055   9.801   2.875   0.723  0.1125 -0.2880  0.0853
 7856W        W12056   4.868   1.720  11.172  0.1240 -0.2951  0.0807
 7857W        W12057   9.855   5.467  11.364 -0.3122 -0.3207  0.1934
 7858W        W12058   4.634   5.642  12.155  0.0080 -0.0656  0.2475
 7859W        W12059   1.384   7.508   9.626  0.1774 -0.1277 -0.0154
 7860W        W12060  10.106   4.925  12.662 -0.3700 -0.1352 -0.2686
 7861W        W12061   5.406   4.086   9.202  0.1544  0.0038  0.0891
 7862W        W12062   5.157   2.074  11.354  0.1010 -0.4108 -0.0396
 7863W        W12063   8.908   9.497  11.587 -0.2172  0.0006 -0.0708
 7864W        W12064   6.479   2.744   9.270 -0.1131  0.1639 -0.2193
 7865W        W12065   6.554   0.949   2.575  0.5403 -0.0348  0.0603
 7866W        W12066   0.695   4.818   1.508  0.0915 -0.0285  0.4308
 7867W        W12067   1.413   5.191  12.022  0.1697  0.1843 -0.0225
 7868W        W12068   5.406   8.591   3.929  0.2063 -0.0808  0.1454
 7869W        W12069   3.960   1.974   8.771  0.0712  0.1959 -0.2732
 7870W        W12070   3.634   0.296   1.521  0.4047 -0.0167  0.0803
 7871W        W12071   8.796   1.759   1.430  0.0607 -0.0542  0.2898
 7872W        W12072   7.755   9.039   4.793 -0.0096  0.1037  0.0426
 7873W        W12073   3.712   4.961  13.320 -0.0444 -0.4004 -0.2031
 7874W        W12074   6.562   0.991  12.709 -0.0162 -0.2328 -0.3723
 7875W        W12075   5.992  10.091   3.970 -0.0725 -0.1398 -0.3180
 7876W        W12076   3.238   1.689  12.485 -0.0307 -0.0565 -0.0362
 7877W        W12077   9.268   8.233   2.428 -0.0828  0.0160 -0.1250
 7878W        W12078   5.157   1.996   4.385  0.0830 -0.0652  0.1241
 7879W        W12079   6.834   7.468   8.677 -0.1632  0.2728 -0.0387
 7880W        W12080   5.084   6.472  12.560  0.0172  0.0619 -0.3308
 7881W        W12081   3.614   9.779   1.772 -0.0705 -0.1859  0.0303
 7882W        W12082   3.764   2.298   0.743 -0.0816  0.1373  0.1279
 7883W        W12083   4.086   4.165   2.259  0.2373 -0.0497 -0.2352
 7884W        W12084   3.488   5.715   4.104 -0.3161  0.2920 -0.0033
 7885W        W12085   8.209   3.498   4.515  0.2750 -0.1110  0.2125
 7886W        W12086  10.050   8.843  11.427  0.0612  0.2527  0.1231
 7887W        W12087   5.292   6.289   1.276 -0.1875 -0.0210 -0.3205
 7888W        W12088   2.151   3.758   2.431  0.2662 -0.0492  0.0146
 7889W        W12089   9.722   7.896  12.284  0.3354  0.0093  0.1855
 7890W        W12090   2.712   0.348  11.160  0.3280 -0.1176  0.1432
 7891W        W12091   3.141   4.497  10.709 -0.1136 -0.0752 -0.1953
 7892W        W12092   8.833   7.798   5.331 -0.2271 -0.0155 -0.0528
 7893W        W12093   8.486   8.748   0.389  0.1801 -0.2305  0.0019
 7894W        W12094   1.743   4.123  10.970 -0.2848  0.0025  0.2368
 7895W        W12095   3.801   3.210  10.912  0.0201 -0.0810 -0.1302
 7896W        W12096   7.633   8.373   2.647  0.2393 -0.0352  0.0614
 7897W        W12097   6.031   2.722  11.589  0.0803 -0.0183 -0.1040
 7898W        W12098   4.956   1.367  12.613 -0.0646 -0.1047  0.1389
 7899W        W12099   3.805   0.940   3.359 -0.0079  0.3904  0.2035
 7900W        W12100   9.089   8.641   1.585  0.2942  0.0837  0.1905
 7901W        W12101   7.111   7.035   1.657 -0.1970 -0.1180 -0.2072
 7902W        W12102   5.732  10.296   4.551 -0.0278  0.1404 -0.1240
 7903W        W12103   7.049   2.157  12.187  0.0466  0.1085  0.0278
 7904W        W12104   6.222   5.899   9.897 -0.2946  0.2005  0.3220
 7905W        W12105   6.465   1.229  13.142  0.1135 -0.2520 -0.0740
 7906W        W12106   1.844   5.496   0.468  0.2467  0.0840  0.0656
 7907W        W12107   5.890   2.319   8.986 -0.0114 -0.0074 -0.0507
 7908W        W12108   8.391   5.439   3.935 -0.0314  0.0518  0.0075
 7909W        W12109   0.312   0.864  13.456  0.1258 -0.1257  0.3306
 7910W        W12110   7.473   6.888   0.888 -0.1755  0.0161  0.0412
 7911W        W12111   1.174   0.137   0.170 -0.3502 -0.3046  0.0719
 7912W        W12112   8.563   5.343   1.974 -0.3172  0.0007 -0.1511
 7913W        W12113   5.073   5.676   1.693  0.4365 -0.1597 -0.2672
 7914W        W12114   9.731   7.246  10.091  0.4036  0.0424 -0.0273
 7915W        W12115   1.581   7.720   0.594  0.1081  0.0333  0.1466
 7916W        W12116   8.822   9.801  10.503  0.0306  0.0441 -0.1707
 7917W        W12117  10.296   4.593   3.362  0.4416  0.1550 -0.0094
 7918W        W12118   0.488   6.869   4.019  0.1312 -0.1467  0.1123
 7919W        W12119   4.873   4.082   9.251 -0.3237 -0.0216  0.0706
 7920W        W12120   5.823   0.898   0.089 -0.1907 -0.3161 -0.3105
 7921W        W12121   5.872   2.538  13.168 -0.0006 -0.0023 -0.1068
 7922W        W12122   0.352   9.841  12.687 -0.2249  0.2257  0.0318
 7923W        W12123   2.497   7.645   9.600  0.4853  0.0094 -0.1640
 7924W        W12124   4.837   0.091   1.744  0.1612  0.0831 -0.0016
 7925W        W12125   0.195   8.741   2.778  0.1354 -0.1802 -0.1734
 7926W        W12126   3.610   3.445   2.073 -0.4828  0.2022 -0.1283
 7927W        W12127   7.611   0.905   0.873  0.0605 -0.2022 -0.1403
 7928W        W12128   0.413   8.093   3.335  0.1765  0.0660 -0.0206
 7929W        W12129   7.351   5.652   1.460  0.1357  0.2251 -0.2122
 7930W        W12130   2.976   5.045   9.443 -0.0926  0.0256  0.1142
 7931W        W12131   9.730   5.843   9.383 -0.0284 -0.1169 -0.2843
 7932W        W12132   0.355   4.568  13.331 -0.2477  0.2948  0.1092
 7933W        W12133   8.946   7.596   3.645  0.0963 -0.2323 -0.0921
 7934W        W12134   0.017   5.076  11.232  0.0127  0.2437  0.1179
 7935W        W12135   7.038   8.259  11.342  0.1847  0.0476 -0.0918
 7936W        W12136   9.651   0.990   1.951 -0.3174  0.1075  0.0915
 7937W        W12137   7.538   6.345   0.575 -0.1372 -0.0269  0.0382
 7938W        W12138   9.497   0.399   0.011 -0.0978 -0.2060  0.3565
 7939W        W12139   0.050   6.695   1.601 -0.2139  0.0569  0.0383
 7940W        W12140   8.884   1.082  12.549 -0.0832  0.1619 -0.0085
 7941W        W12141   0.603   8.662   4.519  0.1424  0.2343 -0.0746
 7942W        W12142   9.146   9.721   1.091  0.1279  0.0375 -0.1674
 7943W        W12143   5.266   3.913   0.993  0.1566 -0.1679 -0.1744
 7944W        W12144   3.745   2.216  12.029 -0.0276 -0.2942 -0.0976
 7945W        W12145   6.168   0.162   2.142 -0.5076  0.1739 -0.3485
 7946W        W12146   5.325   4.204   5.208 -0.0355  0.0360  0.0835
 7947W        W12147   0.186   4.139   4.821 -0.1513  0.2181  0.1963
 7948W        W12148   8.894   6.039  10.412 -0.1420 -0.2475  0.0236
 7949W        W12149   1.615   0.470   2.060  0.2839 -0.0889  0.0548
 7950W        W12150   4.824   5.245   3.018  0.1173 -0.0033 -0.0261
 7951W        W12151   4.169   3.917   4.610  0.2720 -0.0254  0.2592
 7952W        W12152  10.327   3.386  10.430 -0.1247 -0.2589  0.0965
 7953W        W12153   6.534   8.576   3.906  0.1664 -0.1547  0.0359
 7954W        W12154   7.376   6.866  11.714 -0.2790 -0.0010 -0.0121
 7955W        W12155   5.556   9.177  10.658  0.1931  0.0370 -0.1736
 7956W        W12156   5.267   0.177   0.685 -0.2932  0.0926 -0.2003
 7957W        W12157   5.427   3.338  11.230 -0.1895 -0.0101  0.1069
 7958W        W12158   7.579   9.085   3.522  0.1526 -0.0082 -0.2213
 7959W        W12159   3.534   3.176   3.196 -0.0481  0.5019  0.0696
 7960W        W12160   6.644   9.390   0.650  0.0032 -0.1234  0.0124
 7961W        W12161   5.705   4.192  12.561 -0.1974 -0.1242  0.6011
 7962W        W12162   3.423   0.580  10.963 -0.5173 -0.0901  0.1668
 7963W        W12163   0.475   6.652  13.337  0.0658 -0.0477 -0.1893
 7964W        W12164   0.319   4.956   2.113  0.0510 -0.1139  0.4281
 7965W        W12165   6.563   7.516   1.251 -0.1911  0.1094 -0.2480
 7966W        W12166   1.274  10.161   9.934  0.0035 -0.2543  0.0645
 7967W        W12167   0.573   4.518  11.768  0.1088  0.1184 -0.2018
 7968W        W12168   1.160   4.380   2.201  0.0274 -0.2235 -0.1949
 7969W        W12169   6.295   8.874   9.571  0.4566  0.0155 -0.1629
 7970W        W12170   8.656   9.993   3.595 -0.3332  0.0174 -0.0373
 7971W        W12171   4.786   0.922   2.913  0.1543 -0.0303  0.1791
 7972W        W12172   9.753   0.373   3.223 -0.1458  0.2061 -0.4096
 7973W        W12173   8.095   4.300   2.748  0.0604 -0.0364  0.0287
 7974W        W12174   2.634   4.592  12.108 -0.0287  0.2289 -0.0282
 7975W        W12175   3.492   7.166   0.770  0.2371  0.3050 -0.0647
 7976W        W12176   5.174   6.318  10.611  0.3570 -0.1132  0.0699
 7977W        W12177   3.979   0.464   3.151 -0.1489  0.0485  0.1657
 7978W        W12178   7.918   7.788   9.383  0.0948 -0.1546 -0.0041
 7979W        W12179   1.071  10.266   0.893  0.0549  0.1875 -0.1487
 7980W        W12180   0.803   4.223   2.709 -0.2960 -0.0532  0.3088
 7981W        W12181   8.381  10.214   0.528 -0.3126 -0.2666  0.0977
 7982W        W12182   0.884   1.857  12.373 -0.1809  0.1897 -0.0354
 7983W        W12183   3.197   5.660  10.761 -0.1379  0.2239 -0.0575
 7984W        W12184   2.371   6.792   9.982  0.0521 -0.0559  0.0764
 7985W        W12185   5.044   7.788  11.121 -0.2755 -0.3429 -0.0831
 7986W        W12186   8.773   4.517   0.022  0.0850  0.1101  0.1088
 7987W        W12187   6.512   6.451   0.382  0.0052  0.0617  0.1787
 7988W        W12188   0.870   6.502  12.045  0.0914  0.0608 -0.2364
 7989W        W12189   1.444   8.260  11.168  0.1521 -0.4677 -0.1481
 7990W        W12190   9.003   5.507   4.888 -0.0247 -0.1635  0.0920
 7991W        W12191   9.095   4.202   5.110  0.0376 -0.2699 -0.1342
 7992W        W12192   1.653   3.872   2.453  0.0863 -0.1525 -0.0570
 7993W        W12193   9.663   9.116   3.478 -0.1262  0.3205 -0.2843
 7994W        W12194   0.281   8.055   1.159 -0.0794  0.0662 -0.0057
 7995W        W12195   1.925   6.421  12.238 -0.1440  0.3930  0.0194
 7996W        W12196  10.084   3.364  13.403 -0.0420  0.0260  0.2649
 7997W        W12197   0.181   5.283   3.645 -0.0059 -0.0146  0.2298
 7998W        W12198   2.636   0.835   8.513 -0.0233  0.1035 -0.2731
 7999W        W12199   7.831   5.825   3.295  0.0349  0.1263  0.2442
 8000W        W12200   6.628   1.739   2.309 -0.0575  0.3041 -0.1055
 8001W        W12201   1.814   1.752  13.379  0.0593  0.0073  0.0866
 8002W        W12202   4.992   4.195   8.359 -0.2821 -0.0198  0.2205
 8003W        W12203   1.284   4.475   4.989 -0.0702  0.1417 -0.1575
 8004W        W12204   9.109   4.403   9.802 -0.1185 -0.0978 -0.1715
 8005W        W12205   2.375   5.609  11.891 -0.0793 -0.1830  0.3910
 8006W        W12206   1.637   2.937  11.219  0.1060 -0.1516 -0.2594
 8007W        W12207   4.815   3.021   9.163 -0.1363 -0.2081 -0.1233
 8008W        W12208   0.424   1.457  12.684 -0.2248 -0.3153 -0.0830
 8009W        W12209   6.368   4.359   9.374 -0.1657 -0.2064 -0.0300
 8010W        W12210   7.864   6.702  11.535 -0.0524 -0.1415  0.1216
 8011W        W12211   5.169   8.272  12.263  0.0788 -0.3256  0.2198
 8012W        W12212   8.843   1.976  10.129 -0.1692  0.1727  0.1458
 8013W        W12213   0.962   0.423  11.399 -0.0982 -0.1077  0.2057
 8014W        W12214   2.277   7.475   3.032 -0.0081  0.0293 -0.3776
 8015W        W12215  10.066   7.645   3.548 -0.2465  0.1187  0.0985
 8016W        W12216   6.985   5.413  10.837  0.2030  0.2614  0.2582
 8017W        W12217   9.870   9.472  12.264  0.1671  0.3440  0.2034
 8018W        W12218   4.938   4.636   3.086 -0.1021  0.1123  0.0073
 8019W        W12219   8.780   5.839   2.831 -0.0886 -0.4319 -0.0857
 8020W        W12220   8.142   2.082  11.826  0.1775  0.3972  0.0790
 8021W        W12221   4.675   5.110  12.049  0.0968 -0.0365 -0.0770
 8022W        W12222   5.714   4.941   2.701 -0.1196  0.1811  0.1133
 8023W        W12223   5.529   0.753   8.930 -0.0359  0.2534  0.1318
 8024W        W12224   8.424   8.225   3.889 -0.0798  0.1932 -0.1258
 8025W        W12225   4.327   5.889   4.648 -0.2185  0.0033  0.1840
 8026W        W12226   4.178   0.292  11.297 -0.0504  0.1405  0.2665
 8027W        W12227   8.754   5.845   0.420 -0.1420 -0.2056 -0.1313
 8028W        W12228   4.685   6.132   4.133 -0.3056  0.2512 -0.3619
 8029W        W12229   4.643   3.748   0.044  0.0381  0.2546  0.0745
 8030W        W12230   6.597   2.230   2.101  0.1403  0.1507 -0.0197
 8031W        W12231   8.852   4.651   4.993  0.0834  0.3695  0.3002
 8032W        W12232   9.456   4.911  11.594  0.2922 -0.0915 -0.2790
 8033W        W12233   1.781   2.258   4.206  0.0030  0.1904 -0.2494
 8034W        W12234   2.103   4.755   2.566 -0.1019  0.1656  0.0670
 8035W        W12235   0.244   2.936   2.787 -0.0516  0.1094  0.0265
 8036W        W12236   0.536   6.872   2.992  0.0907 -0.2053  0.0116
 8037W        W12237   6.359   2.658   2.173  0.2452  0.0015 -0.1492
 8038W        W12238   9.314   4.014   3.118 -0.1750  0.1745  0.0996
 8039W        W12239   6.519   7.283   0.399 -0.0581  0.3583  0.1031
 8040W        W12240   3.225   7.473   9.529 -0.2853  0.0649 -0.2997
 8041W        W12241   7.869   3.110   1.585  0.0359  0.0851  0.1052
 8042W        W12242   6.887   4.509   0.266 -0.0978 -0.0814  0.0213
 8043W        W12243   3.323   4.358   9.043 -0.0432 -0.2212 -0.2080
 8044W        W12244   9.573   6.744   9.919  0.2684 -0.4196 -0.3061
 8045W        W12245   7.056   1.391  11.502 -0.1737 -0.3439  0.4456
 8046W        W12246   8.173   5.368  12.687  0.2911  0.0122 -0.1851
 8047W        W12247   4.696   3.049  10.379  0.0772  0.2166  0.1838
 8048W        W12248   6.800   8.482   2.794  0.2781  0.1709 -0.0582
 8049W        W12249   4.431   7.855  13.495 -0.1064  0.0403  0.0946
 8050W        W12250  10.112   1.563  11.113 -0.0947 -0.1477  0.0300
 8051W        W12251   3.254   9.552  11.499 -0.0478 -0.0402 -0.0214
 8052W        W12252   9.800   8.105   9.623  0.0000 -0.1823 -0.1106
 8053W        W12253   2.251  10.463   0.333 -0.1211  0.0749 -0.2388
 8054W        W12254   1.349   2.124   0.417 -0.0237 -0.1211  0.2578
 8055W        W12255   5.958   3.792  12.356  0.1560  0.2472  0.1613
 8056W        W12256   8.715   2.857  11.823  0.1521  0.1840  0.3110
 8057W        W12257   9.712   2.825  11.602 -0.0291 -0.2882  0.0133
 8058W        W12258   0.981   4.379  12.659 -0.0608 -0.1805  0.1062
 8059W        W12259  10.309   4.629  11.475  0.1494  0.1193  0.2535
 8060W        W12260   6.556   4.936  13.073  0.3497 -0.0447  0.2296
 8061W        W12261   0.351   5.600   3.062  0.0749  0.1679 -0.1260
 8062W        W12262   7.511   5.202  13.240 -0.0584  0.1127 -0.3074
 8063W        W12263  10.411   5.260   2.100 -0.0198  0.1733 -0.3675
 8064W        W12264   4.390   5.370  11.169  0.0410  0.1237 -0.0539
 8065W        W12265   1.568   5.724   3.827  0.0827  0.0383 -0.0333
 8066W        W12266   3.412   7.640   8.446 -0.1429 -0.2890  0.2547
 8067W        W12267   1.694   5.273   9.781  0.0017 -0.0331  0.1825
 8068W        W12268   4.774   5.767  11.245 -0.0151 -0.4201  0.1864
 8069W        W12269   7.349   5.142   4.824 -0.0960  0.2918 -0.1376
 8070W        W12270   8.311   4.767   2.588  0.1648  0.0588  0.2450
 8071W        W12271   4.439   9.439   0.183  0.4506  0.1315  0.0526
 8072W        W12272   0.344   1.717   7.297 -0.2953 -0.0017  0.2016
 8073W        W12273   5.857   9.910  10.370  0.3527 -0.0821 -0.0030
 8074W        W12274   8.767   7.834  11.925  0.1767 -0.7370 -0.2096
 8075W        W12275   4.202   9.049  12.090 -0.2397 -0.2840 -0.1736
 8076W        W12276   0.957   8.326   0.592  0.1100  0.2065 -0.1522
 8077W        W12277   1.190   2.626  10.225  0.0411 -0.1672 -0.2278
 8078W        W12278   8.990   6.150   2.386 -0.2788  0.0540 -0.0380
 8079W        W12279   6.913   3.661   4.532 -0.2528 -0.0127 -0.2651
 8080W        W12280   7.287   3.160  11.748 -0.1158 -0.1009 -0.1515
 8081W        W12281   2.503   9.107  10.062 -0.1151  0.1318  0.0590
 8082W        W12282   6.740   1.833  12.415  0.0536  0.1498  0.1111
 8083W        W12283   8.279   4.861   0.845 -0.1191  0.1649 -0.0507
 8084W        W12284   7.034   6.508   0.909 -0.3826  0.1994 -0.0115
 8085W        W12285   1.796   5.075   4.340 -0.0554  0.0361 -0.3761
 8086W        W12286   3.348   0.108  13.460  0.0187  0.1039 -0.3372
 8087W        W12287   1.556   0.576   3.842  0.1384  0.1549  0.1518
 8088W        W12288   3.096   9.362  12.606 -0.0438 -0.1487 -0.0615
 8089W        W12289   0.500   0.384  10.717 -0.0181  0.0989  0.1462
 8090W        W12290   6.060   8.654  12.438  0.1890  0.0756  0.0174
 8091W        W12291   4.362   8.848  11.088 -0.1871  0.1127 -0.1505
 8092W        W12292   1.543   4.815  13.399  0.1029 -0.1728  0.1425
 8093W        W12293   4.664   2.805  12.290  0.3778  0.1408 -0.3746
 8094W        W12294   8.680   0.893   2.537  0.0330  0.1282 -0.2196
 8095W        W12295   6.550   6.762   4.190 -0.3391  0.0585 -0.0443
 8096W        W12296   6.314   1.366  11.225 -0.3320 -0.1130 -0.0550
 8097W        W12297   6.770   5.362  10.365  0.0477 -0.1838  0.0332
 8098W        W12298   7.187   8.262   4.526  0.0394  0.2080  0.0247
 8099W        W12299   0.140   5.087   4.751 -0.3160 -0.0511  0.0702
 8100W        W12300   6.066   0.218  12.541  0.0056  0.3103  0.1177
 8101W        W12301   9.212   5.196  12.385  0.1665  0.1231  0.1715
 8102W        W12302   3.328   4.190  11.066 -0.0281 -0.0116  0.2173
 8103W        W12303   8.972   4.334   4.611  0.2944 -0.0332  0.0097
 8104W        W12304   1.057   6.071   3.381 -0.2610 -0.0012  0.0927
 8105W        W12305   7.223   9.205  12.663  0.1004 -0.0427 -0.2599
 8106W        W12306   5.002   0.304   2.228  0.0666 -0.4215  0.2043
 8107W        W12307   0.841   8.185   3.568  0.1611 -0.1657  0.0279
 8108W        W12308   3.098   7.340  11.203 -0.1442  0.1497 -0.0861
 8109W        W12309   8.505  10.211  10.487 -0.1806  0.0873 -0.3455
 8110W        W12310   1.005   4.338   3.163 -0.1272  0.1681 -0.0636
 8111W        W12311   2.545   0.501   3.664 -0.1913 -0.3152  0.0631
 8112W        W12312   1.623   1.252   1.026  0.2756  0.1463 -0.0456
 8113W        W12313   7.610   3.489   3.372  0.1433 -0.3859  0.2117
 8114W        W12314   7.435   1.411   0.576  0.0665 -0.0627  0.3233
 8115W        W12315   1.379   2.546  12.513 -0.2717 -0.3554 -0.1386
 8116W        W12316   9.479   7.680  10.372  0.0716  0.0386  0.0936
 8117W        W12317   7.832   9.214   4.027 -0.4622  0.3013  0.4301
 8118W        W12318   1.295   3.845   3.039  0.0625 -0.0810  0.0546
 8119W        W12319   5.442   0.291   9.119  0.0010  0.1065 -0.3143
 8120W        W12320   4.699   2.237   4.191  0.1031 -0.2582 -0.1135
 8121W        W12321   4.531   4.900   3.325 -0.4560 -0.0244  0.0129
 8122W        W12322   3.756   5.515   1.293  0.1187  0.0196 -0.2320
 8123W        W12323   1.332   5.556  10.057  0.1750 -0.2435  0.1177
 8124W        W12324   3.764   3.492   9.382 -0.0114 -0.0979 -0.2283
 8125W        W12325   3.054   9.866   3.078 -0.0787  0.0390 -0.2077
 8126W        W12326   3.032   9.313   0.579 -0.1780  0.0957 -0.3950
 8127W        W12327   1.929  10.053   0.144  0.2262  0.0555  0.1758
 8128W        W12328   4.518  10.167   3.357 -0.1379  0.2490  0.0911
 8129W        W12329   9.126   8.237  11.241  0.4046  0.1879 -0.1673
 8130W        W12330   7.902   6.458   4.456 -0.1661 -0.1375 -0.2216
 8131W        W12331   7.716   4.587  12.936  0.1238 -0.2870  0.3051
 8132W        W12332   0.586   0.432   0.060 -0.0687 -0.0435  0.0647
 8133W        W12333   1.097   8.250  13.361 -0.2791  0.0983  0.0996
 8134W        W12334  10.133   9.991   3.261 -0.1174  0.0159 -0.2149
 8135W        W12335   4.838   3.708   2.669 -0.2964  0.4067  0.0001
 8136W        W12336   2.345   5.445   2.969  0.2845 -0.1506  0.0130
 8137W        W12337   2.658   1.808  11.535 -0.1782  0.3638  0.0349
 8138W        W12338   9.000   0.592  11.086 -0.1852  0.0965  0.0388
 8139W        W12339   5.718   7.021   3.576 -0.1193  0.0473 -0.0585
 8140W        W12340   4.531   9.116   9.373  0.2169 -0.3607 -0.1702
 8141W        W12341   4.993   5.820   0.762  0.1022 -0.1162 -0.4260
 8142W        W12342   7.240   2.431  12.970  0.1000  0.0085 -0.2746
 8143W        W12343   0.065   5.084  10.681 -0.0412 -0.2908  0.0957
 8144W        W12344  10.415   7.937  11.533  0.0654 -0.1017 -0.0129
 8145W        W12345   8.479   8.194  11.615 -0.2159 -0.1908 -0.0990
 8146W        W12346   1.665   8.353   0.598  0.1103 -0.1046 -0.1174
 8147W        W12347   9.431   4.615   2.852  0.3499  0.2635  0.4299
 8148W        W12348   2.388   6.394   1.891 -0.1319  0.4353 -0.0678
 8149W        W12349   4.568   5.464   2.537 -0.4191  0.1450 -0.1109
 8150W        W12350   0.443   1.223   6.189  0.1426  0.1095 -0.3083
 8151W        W12351   1.072   1.001   1.696 -0.1730  0.1027 -0.4086
 8152W        W12352   8.235   1.151   2.981  0.2890  0.0828  0.2005
 8153W        W12353  10.044   8.698  10.889  0.1935 -0.0931  0.3324
 8154W        W12354   9.848   8.709   3.207 -0.0127 -0.0153 -0.2182
 8155W        W12355   6.003   2.585   1.824  0.2651  0.0293  0.1951
 8156W        W12356   7.530   0.670   0.457 -0.1363 -0.0833  0.2093
 8157W        W12357   2.692   8.376   3.286 -0.1575  0.1770  0.2336
 8158W        W12358   7.656   6.309   3.647  0.0568  0.2136  0.0991
 8159W        W12359   5.626   6.181  11.216 -0.0678 -0.3112  0.0281
 8160W        W12360   9.552   7.711   9.453  0.2418 -0.1332  0.2559
 8161W        W12361   7.343   0.165   3.471 -0.2023 -0.0011 -0.2795
 8162W        W12362   5.706   3.715  10.278  0.0793  0.2934  0.0694
 8163W        W12363   9.304   6.546   0.068 -0.0518  0.0936  0.0716
 8164W        W12364   2.184   9.349  13.482  0.0574  0.2227  0.1657
 8165W        W12365   2.116   2.743   4.086  0.1827  0.1775 -0.1395
 8166W        W12366   7.584   8.100   1.823  0.0366  0.2484  0.0109
 8167W        W12367   1.578   1.479   0.600 -0.2171 -0.0085  0.0118
 8168W        W12368  10.337   2.655   2.064 -0.0329 -0.1930 -0.1742
 8169W        W12369   6.806   0.844   1.434  0.0568 -0.3046  0.0262
 8170W        W12370   2.840   2.662  11.086 -0.2587  0.3773 -0.2375
 8171W        W12371   2.511   2.655  10.048 -0.1235  0.4010 -0.0847
 8172W        W12372   2.254   3.659   9.445 -0.0619  0.1305 -0.0953
 8173W        W12373   0.328   7.833  10.382 -0.0334 -0.3031  0.2085
 8174W        W12374   5.783   6.439   0.767 -0.3097  0.0546 -0.6117
 8175W        W12375   1.438   8.630  10.799  0.1949  0.1241  0.1418
 8176W        W12376   0.690   5.135  12.853 -0.2239  0.3120 -0.0586
 8177W        W12377   1.037   5.463  10.876 -0.0513  0.1099 -0.3525
 8178W        W12378   5.533  10.093  12.640  0.0364  0.1646 -0.0038
 8179W        W12379   2.987   0.307  11.787 -0.1802  0.1467  0.1489
 8180W        W12380   7.577   9.647  11.266  0.1918 -0.0522 -0.0136
 8181W        W12381   5.347   5.920   0.319  0.5548  0.5046 -0.0553
 8182W        W12382   5.184   9.965  11.060  0.2141 -0.0024 -0.0457
 8183W        W12383   7.650   4.199   4.009 -0.2033 -0.1387  0.3389
 8184W        W12384   1.776   5.012   2.284 -0.1783 -0.0089  0.0952
 8185W        W12385   5.818   3.915   8.905 -0.1385 -0.0297 -0.2708
 8186W        W12386   3.635   2.391  10.986 -0.0302  0.0547 -0.1203
 8187W        W12387   3.785   7.310   0.309  0.0088  0.0816  0.0927
 8188W        W12388  10.194   4.332   2.502  0.1963 -0.1944  0.0532
 8189W        W12389   5.273   3.586  10.589  0.0119 -0.1305  0.0874
 8190W        W12390   6.935   1.432   1.452  0.0478  0.1213  0.1629
 8191W        W12391   0.482   3.123   4.806  0.0468  0.2695  0.1525
 8192W        W12392   7.102   3.119  10.480 -0.1083  0.2830  0.0552
 8193W        W12393   2.661   9.868   9.831  0.1065 -0.0713 -0.1271
 8194W        W12394   6.212   3.605   3.727  0.2016 -0.1655  0.1775
 8195W        W12395   5.926   5.566   9.614  0.3952  0.2821 -0.0357
 8196W        W12396   7.331   0.588   3.071  0.1935  0.0060  0.1429
 8197W        W12397   1.339   0.005  12.922 -0.2062  0.1236 -0.0044
 8198W        W12398   3.347   2.288   1.076  0.0151 -0.2531 -0.1026
 8199W        W12399   2.257   8.207   1.724  0.0916 -0.1806  0.1003
 8200W        W12400   9.592   3.318   1.988  0.3142 -0.3736 -0.2608
 8201W        W12401   3.285   8.317   5.602  0.0045 -0.2267  0.0607
 8202W        W12402   9.338   7.663   1.253 -0.0767 -0.0184 -0.0126
 8203W        W12403   7.452   2.147   1.180 -0.1752 -0.2146 -0.0643
 8204W        W12404   0.581   7.096  10.482 -0.2482 -0.0737  0.1372
 8205W        W12405   2.565   2.714   2.361 -0.1138  0.2856  0.0361
 8206W        W12406   4.148   6.355   4.626  0.3463  0.1116 -0.1961
 8207W        W12407   7.156   4.736   9.674  0.2593  0.1439  0.2747
 8208W        W12408   2.313   1.405  12.909  0.0711 -0.0503 -0.2800
 8209W        W12409   4.819   0.004   3.588 -0.0449 -0.0002 -0.2168
 8210W        W12410   4.564   7.583   4.258 -0.0786  0.0101  0.1405
 8211W        W12411   6.178   4.327  12.292  0.0234 -0.0896  0.4471
 8212W        W12412   1.744   9.453   2.415  0.0370 -0.0877  0.3748
 8213W        W12413   8.062  10.092  11.724  0.1056  0.1714  0.0234
 8214W        W12414  10.157   2.731   3.809 -0.1102  0.0702  0.2729
 8215W        W12415   5.510   7.949  12.935  0.1110 -0.1343  0.0476
 8216W        W12416   3.120   5.065  11.468 -0.3508  0.2310 -0.0954
 8217W        W12417   4.123   4.439   2.852  0.1241  0.1487 -0.1543
 8218W        W12418   4.046   1.615  10.628  0.1632  0.3869 -0.1814
 8219W        W12419   2.186   8.843  11.353  0.2403 -0.0176 -0.1088
 8220W        W12420   7.675   1.197   9.787 -0.2808 -0.1369 -0.0588
 8221W        W12421   5.784   3.327  12.432 -0.1583  0.4887 -0.0541
 8222W        W12422   4.697   4.220  11.748 -0.3023  0.1568  0.2110
 8223W        W12423   2.056   8.693  12.250 -0.1644  0.0351  0.0177
 8224W        W12424   2.315   6.162  11.833  0.0336  0.0226 -0.0281
 8225W        W12425   9.259   2.993  10.445 -0.1223 -0.0793 -0.1186
 8226W        W12426   7.237   4.285  10.983  0.0663  0.0209  0.0204
 8227W        W12427   9.827   4.342  13.373 -0.0360  0.0054 -0.2389
 8228W        W12428   1.370   3.165   3.799 -0.0210 -0.1881  0.2755
 8229W        W12429   5.105   8.872  12.288 -0.2601  0.1348  0.1043
 8230W        W12430   9.315   7.275  11.047 -0.3265 -0.0115 -0.1484
 8231W        W12431  10.341   3.757   4.801  0.1877 -0.1386  0.1687
 8232W        W12432   9.968   6.360  13.017 -0.0540  0.1375  0.1982
 8233W        W12433   6.651   9.779   9.930 -0.3808  0.2391 -0.0253
 8234W        W12434   7.751   4.210  11.783 -0.0264 -0.1803  0.0377
 8235W        W12435   0.217   4.582   5.059  0.1809 -0.1364  0.1379
 8236W        W12436   2.610   7.814   2.505  0.0708 -0.0156  0.0382
 8237W        W12437   4.713   9.412   9.765  0.1799  0.2415 -0.1581
 8238W        W12438   9.305   4.813   9.651 -0.1895  0.0845  0.2245
 8239W        W12439  10.198  10.457   5.873  0.0085 -0.0747  0.3632
 8240W        W12440   6.254   7.040   2.329  0.3134 -0.1911  0.1722
 8241W        W12441   6.724   0.996   3.035 -0.2029  0.0180  0.1555
 8242W        W12442   6.736   2.490   1.009  0.0729 -0.0695 -0.1210
 8243W        W12443   6.644   3.856  11.770  0.1660  0.1271 -0.2252
 8244W        W12444   3.199   8.081   1.224  0.1009 -0.0516  0.0685
 8245W        W12445   3.584   8.573  13.317  0.1969 -0.1930  0.1418
 8246W        W12446   0.755   9.900  13.435  0.1759  0.1089 -0.3400
 8247W        W12447   3.441   2.050   3.765 -0.4905 -0.1796 -0.0413
 8248W        W12448  10.264   5.575   9.529  0.0598 -0.1367 -0.0619
 8249W        W12449   6.907   8.794   2.019 -0.0711  0.1349 -0.2451
 8250W        W12450   0.035   0.606   1.998  0.0234  0.0036 -0.1058
 8251W        W12451   0.702   3.404   9.946  0.2162 -0.0559  0.3181
 8252W        W12452   0.565   1.630  13.144  0.0930 -0.0569  0.1331
 8253W        W12453   0.668   4.717  12.236 -0.0133  0.1963 -0.3022
 8254W        W12454   9.840   4.587  12.501  0.1472 -0.3248 -0.0710
 8255W        W12455   3.194   9.789   0.785  0.2369  0.0549  0.2368
 8256W        W12456   7.289   6.847   0.395 -0.2059  0.0907 -0.4818
 8257W        W12457   8.197   5.435   9.921  0.1308 -0.1141  0.3997
 8258W        W12458   2.600   2.993  11.899 -0.0857  0.1344 -0.1733
 8259W        W12459  10.004   9.134   1.950 -0.0576  0.2558 -0.1958
 8260W        W12460   5.679   1.382   1.303 -0.5010 -0.0021  0.0139
 8261W        W12461   0.312   4.117  13.000 -0.1542  0.1873 -0.0186
 8262W        W12462   5.907   0.055   9.054  0.0123 -0.2793  0.0680
 8263W        W12463   2.857   3.774  13.271 -0.1831 -0.1711 -0.1092
 8264W        W12464   8.416   1.622  11.866 -0.3051 -0.2266  0.1185
 8265W        W12465   9.139   5.343   3.482 -0.2821 -0.0084 -0.1641
 8266W        W12466   0.165   1.623   2.351  0.1400 -0.2130  0.0929
 8267W        W12467   4.118   1.549   9.617  0.0308 -0.3922 -0.0306
 8268W        W12468   6.657   2.451   3.359  0.0096  0.0772  0.1355
 8269W        W12469   0.554   7.284   1.513  0.1831  0.1417  0.2024
 8270W        W12470   3.410   2.431   0.448 -0.0509  0.1492  0.2175
 8271W        W12471   1.842   4.348  13.137 -0.0280  0.4444 -0.2404
 8272W        W12472   0.547  10.352  10.026 -0.0532  0.0081 -0.0605
 8273W        W12473   0.691   3.325   0.015  0.0513  0.1431 -0.2636
 8274W        W12474   3.709   0.505   3.591  0.2712  0.1197 -0.2786
 8275W        W12475   4.330   8.939   2.390 -0.1532  0.0733 -0.1582
 8276W        W12476   9.038   2.600   2.849  0.2013 -0.1660  0.1731
 8277W        W12477   5.103   9.243  10.974 -0.1108  0.0554  0.0919
 8278W        W12478   6.708   9.682   3.874  0.0517 -0.0395 -0.1083
 8279W        W12479   6.160   2.986   8.466 -0.1680  0.0509  0.1150
 8280W        W12480   7.510   2.619   3.621  0.2495  0.2292 -0.2040
 8281W        W12481   4.650   9.244  10.690 -0.1053 -0.1758  0.2515
 8282W        W12482   5.559   9.178  12.961 -0.0608  0.1982  0.2307
 8283W        W12483   8.027   8.709  10.864  0.5042  0.1553  0.0235
 8284W        W12484   4.857   4.196  13.487 -0.2138  0.0535  0.2213
 8285W        W12485   2.117   7.969   9.763 -0.2189 -0.0554 -0.0094
 8286W        W12486   3.440   1.508   2.083  0.2992 -0.1116 -0.1068
 8287W        W12487   0.422   7.763   0.618 -0.0808  0.2951  0.2771
 8288W        W12488   3.280   5.195  10.940  0.4853  0.1834  0.1649
 8289W        W12489   7.546   4.741   1.438 -0.1056  0.1996  0.2062
 8290W        W12490  10.159   9.517   3.443 -0.4390 -0.0043  0.3826
 8291W        W12491   8.749   5.393  10.066  0.1809  0.2031 -0.0365
 8292W        W12492   8.149   6.785  13.452  0.1099  0.1093  0.0155
 8293W        W12493   6.187   3.923  10.378 -0.4009 -0.0313 -0.0146
 8294W        W12494   8.708   1.195  13.219 -0.3527  0.1639  0.0245
 8295W        W12495  10.087   4.735   4.272 -0.3716 -0.0306  0.1692
 8296W        W12496  10.335   3.515   1.645 -0.2061 -0.1901 -0.1267
 8297W        W12497   5.923   8.670   2.658 -0.1224  0.2254 -0.2593
 8298W        W12498   9.373   8.060   9.968  0.0160  0.0558  0.1586
 8299W        W12499   8.493   6.214  12.375  0.0979  0.2095  0.0236
 8300W        W12500   0.771   7.879   0.981  0.2855 -0.2052  0.0536
 8301W        W12501   2.835   9.364   4.270  0.1401  0.0054  0.0073
 8302W        W12502   4.438   8.014   9.373 -0.0733 -0.2672 -0.0488
 8303W        W12503   4.659   6.955   2.100  0.2767  0.0276  0.1549
 8304W        W12504   3.178   2.029  11.653  0.3521 -0.0269 -0.2308
 8305W        W12505   4.593   8.827   1.932  0.0159  0.1315 -0.0837
 8306W        W12506   8.001   9.581   1.160  0.0391 -0.0347  0.0330
 8307W        W12507   1.209   7.655  12.059  0.1144  0.1480  0.1672
 8308W        W12508   3.525   7.634  10.944  0.1892  0.0050  0.0598
 8309W        W12509   4.291   7.682   4.651 -0.0675 -0.2642 -0.2649
 8310W        W12510   7.992   2.538   9.083 -0.2502  0.0061  0.0673
 8311W        W12511   3.115   4.687  11.161 -0.3595  0.0422  0.3682
 8312W        W12512   8.189   2.728   9.881 -0.3341  0.1891 -0.0345
 8313W        W12513  10.365   5.580   2.839  0.0341  0.0376  0.0132
 8314W        W12514   8.487   1.203   0.870 -0.0568 -0.1573 -0.2590
 8315W        W12515   3.619   9.749   3.149  0.1912 -0.0043 -0.0864
 8316W        W12516   4.797   3.125   8.573  0.0049 -0.2010 -0.3312
 8317W        W12517   6.958   6.249  11.154 -0.0092 -0.0478 -0.0316
 8318W        W12518   7.079   6.112  10.138 -0.1902  0.0302  0.1485
 8319W        W12519  10.061   5.600  13.452 -0.0577  0.0038 -0.1695
 8320W        W12520   0.857   6.061   0.536 -0.5792  0.0872 -0.0226
 8321W        W12521   6.963   8.303   1.901 -0.2653 -0.2172 -0.0399
 8322W        W12522   6.795   8.932   9.593  0.2185 -0.1593  0.1603
 8323W        W12523   5.311   2.794  10.028  0.0088  0.0551 -0.0975
 8324W        W12524   0.615   4.545   0.583  0.1688 -0.0085  0.1432
 8325W        W12525   9.943   7.273  12.692 -0.3514 -0.0197  0.2356
 8326W        W12526   9.621   8.522  13.342 -0.4226 -0.2805 -0.2618
 8327W        W12527   3.440   9.057  12.318  0.2572  0.0348 -0.0803
 8328W        W12528   3.526   6.993   2.561 -0.2784  0.1122  0.3385
 8329W        W12529   9.002   6.305   0.706 -0.1645 -0.2744  0.0449
 8330W        W12530  10.351   4.619   4.746  0.0883 -0.3729  0.0373
 8331W        W12531  10.233   5.829  10.922 -0.1911  0.3519 -0.2541
 8332W        W12532   2.518   5.291   9.205  0.1935 -0.1799 -0.0598
 8333W        W12533   0.512   6.648  10.198 -0.0091 -0.2498  0.0278
 8334W        W12534   7.632   2.485  10.865  0.1106 -0.1409  0.0711
 8335W        W12535   9.936   9.075  13.211  0.3766  0.0404  0.2216
 8336W        W12536   7.325   0.075   1.177 -0.0934  0.0000  0.0662
 8337W        W12537   2.947   4.549  12.476  0.2670 -0.1730  0.3086
 8338W        W12538   4.452  10.089   0.759  0.0156 -0.1065 -0.0848
 8339W        W12539  10.048   7.641  10.344  0.0884 -0.0283 -0.0852
 8340W        W12540   9.066   3.304  10.129  0.0321 -0.0044  0.2145
 8341W        W12541   5.800   5.001   0.164 -0.4161 -0.3666 -0.1152
 8342W        W12542   4.149   6.720   2.918  0.4097  0.0719  0.2972
 8343W        W12543   3.719   6.614  10.529 -0.1333 -0.1596  0.5591
 8344W        W12544   8.788   5.428  11.085  0.2908  0.1176  0.2784
 8345W        W12545   0.923   7.961   2.540  0.3981  0.1543 -0.0701
 8346W        W12546   6.308   3.240   2.819  0.0653  0.2802 -0.0391
 8347W        W12547   0.309   4.124  11.997 -0.0215  0.0199  0.0735
 8348W        W12548   3.966   6.348  13.128 -0.2346 -0.0357 -0.2215
 8349W        W12549   0.006   8.581   0.874 -0.2240  0.3480 -0.2501
 8350W        W12550   6.572   1.578   9.047  0.0589  0.3236 -0.2481
 8351W        W12551   5.486   7.121   2.987 -0.0186  0.3259  0.2340
 8352W        W12552   7.160   8.759  11.378  0.1972  0.2543 -0.0883
 8353W        W12553   5.808   6.158   5.179  0.0764 -0.0592  0.4653
 8354W        W12554   0.991   8.504   1.050 -0.2374 -0.0038  0.2524
 8355W        W12555   8.879   1.733  13.269 -0.1716  0.3460 -0.1314
 8356W        W12556   7.328   8.890  13.127 -0.4080  0.1576  0.2542
 8357W        W12557   6.263   5.160   0.122 -0.0809  0.0442 -0.1865
 8358W        W12558   3.582   0.011   3.494  0.0125 -0.1115  0.1607
 8359W        W12559   5.246   4.946  12.959 -0.0879 -0.0383 -0.0126
 8360W        W12560   3.911   6.323  11.057  0.2112  0.1686 -0.0024
 8361W        W12561   0.917   6.422   2.324  0.2795 -0.1870  0.0659
 8362W        W12562   9.099   9.152   1.754 -0.1395 -0.1420  0.0686
 8363W        W12563   2.676   3.463   1.573  0.0831 -0.0050 -0.2358
 8364W        W12564   3.407   9.070   8.788 -0.4767 -0.0528  0.0310
 8365W        W12565   3.790   0.209   2.745 -0.2732 -0.0376 -0.1826
 8366W        W12566   1.646   9.520  10.964 -0.2324  0.0253 -0.0035
 8367W        W12567   8.354   8.360   3.345 -0.3702 -0.1384  0.2600
 8368W        W12568   5.771   6.588  10.506 -0.0995 -0.1742  0.0034
 8369W        W12569   5.355   2.468   4.498  0.2007  0.0881  0.1998
 8370W        W12570   5.361   1.783   2.800  0.2737  0.1105  0.0259
 8371W        W12571   6.865   4.220   9.272  0.1698 -0.2143 -0.0818
 8372W        W12572   0.584   5.754   5.175 -0.2744 -0.1937 -0.0202
 8373W        W12573   0.592   1.115  12.990  0.3093  0.4771 -0.2196
 8374W        W12574   2.310   2.194  11.437  0.1681  0.0633  0.1636
 8375W        W12575   6.998  10.067   1.382  0.0000  0.1499  0.0798
 8376W        W12576   3.247   2.163  12.192 -0.0365  0.0285  0.0133
 8377W        W12577   9.528   7.980   4.256  0.2827 -0.0790 -0.0418
 8378W        W12578   7.830   8.240  11.887  0.1437 -0.0097 -0.0095
 8379W        W12579   2.551   3.497  12.191 -0.2708 -0.2968 -0.3354
 8380W        W12580  10.018   4.355  12.910 -0.1663  0.0305 -0.1693
 8381W        W12581   8.891   3.293  11.552 -0.0341 -0.0180 -0.1979
 8382W        W12582   7.194   3.240   3.363  0.0225 -0.3983  0.1455
 8383W        W12583   0.703   6.101   4.771 -0.1158 -0.0925 -0.2273
 8384W        W12584   0.569   6.635  11.179  0.0559  0.2824 -0.0207
 8385W        W12585   7.382   4.364  13.266 -0.2624 -0.3440 -0.1380
 8386W        W12586   7.455   4.294   8.767 -0.3486  0.2013 -0.1060
 8387W        W12587   3.234   8.570   3.819 -0.4929  0.1072  0.1330
 8388W        W12588   3.601   0.203   1.019  0.1146 -0.2598  0.1336
 8389W        W12589   9.423   1.625   2.469  0.2980 -0.0564 -0.0929
 8390W        W12590   8.654   6.269  11.866  0.1769 -0.2445  0.2247
 8391W        W12591   3.789   8.321  11.543  0.2379  0.0354 -0.1063
 8392W        W12592   8.078   7.532  12.365 -0.0315  0.0236  0.0316
 8393W        W12593   7.433   4.936   3.511 -0.2736  0.0889 -0.0261
 8394W        W12594   9.543   4.813   5.928  0.0606  0.0874 -0.3694
 8395W        W12595   4.282   1.660   3.488 -0.1125  0.2114  0.0272
 8396W        W12596   7.465   2.385   3.148 -0.1099 -0.1815 -0.3119
 8397W        W12597   2.708   7.277  12.860  0.3480  0.2266  0.1978
 8398W        W12598   2.244   2.262   3.264 -0.0618 -0.2835  0.0290
 8399W        W12599  10.403   1.083  11.140 -0.3858  0.0841  0.2713
 8400W        W12600   6.707   5.347  12.339  0.1380 -0.0450 -0.0978
 8401W        W12601   2.669   4.498  10.376 -0.0143 -0.0486 -0.3067
 8402W        W12602   4.420   6.947  10.307  0.0969 -0.2080 -0.1394
 8403W        W12603   5.203   5.437   0.577 -0.0276 -0.1424  0.2164
 8404W        W12604   0.735   8.162   4.499  0.2364 -0.1444  0.0993
 8405W        W12605   1.920   7.997  11.247  0.4105 -0.2159  0.4415
 8406W        W12606   8.344   3.249   4.115 -0.1248  0.3470 -0.2028
 8407W        W12607   2.882   0.010  13.376  0.3486 -0.0906  0.1765
 8408W        W12608   6.097   2.602   1.305 -0.1001  0.1111  0.2195
 8409W        W12609   6.677   3.275  13.212  0.4770  0.1699 -0.4857
 8410W        W12610  10.101   0.854   0.600 -0.0340 -0.0896  0.1539
 8411W        W12611   0.870   5.358   5.287  0.0674 -0.0585 -0.0234
 8412W        W12612   7.100   5.733   4.009 -0.0896 -0.0143  0.0298
 8413W        W12613   1.393   5.364   5.061 -0.0378 -0.1919 -0.2948
 8414W        W12614   8.982  10.062  12.385 -0.0998 -0.2082  0.2747
 8415W        W12615   2.022   2.500  10.117  0.1786  0.5604 -0.0951
 8416W        W12616   8.120   7.781  10.297 -0.3382 -0.2353  0.1029
 8417W        W12617   2.947   2.320  10.213  0.0754  0.2770 -0.0703
 8418W        W12618   3.195   1.450   9.706 -0.0224  0.1351  0.1650
 8419W        W12619   4.222   7.308   1.399  0.0362 -0.1193 -0.1330
 8420W        W12620   7.346   3.637  12.635  0.1760 -0.1293  0.0280
 8421W        W12621   0.815   3.139  10.455 -0.3713 -0.1159  0.2055
 8422W        W12622   9.502   8.398   0.878 -0.5056 -0.0337 -0.0099
 8423W        W12623   0.675   9.112  13.091 -0.0124 -0.2446 -0.1249
 8424W        W12624   5.673   4.712   0.641 -0.3394 -0.0626 -0.1264
 8425W        W12625   9.369   1.072   2.377 -0.1382  0.1812 -0.1058
 8426W        W12626   5.752   9.837   1.607 -0.2179  0.1194 -0.2907
 8427W        W12627   9.232   9.245   3.171  0.0890  0.0329 -0.1618
 8428W        W12628   2.545  10.037   2.547  0.2782  0.0459 -0.3075
 8429W        W12629   6.442   4.789   9.832  0.0525  0.1104 -0.0802
 8430W        W12630   6.166   0.587   4.158 -0.2500  0.3625 -0.2485
 8431W        W12631   1.694   5.288   0.066  0.2278  0.2504 -0.0130
 8432W        W12632   9.281   6.557   1.842  0.2872 -0.2089  0.0521
 8433W        W12633   5.372   5.679   2.116  0.1131 -0.1474 -0.0528
 8434W        W12634   4.147   4.832   4.693  0.1156  0.0658 -0.2820
 8435W        W12635   4.690   2.595   2.912  0.2050 -0.2438 -0.0490
 8436W        W12636   5.734   3.169   2.603  0.0749 -0.2013 -0.3243
 8437W        W12637   4.820   8.596  13.121  0.1642 -0.0403 -0.1602
 8438W        W12638   3.086   4.810  10.267  0.1373 -0.0450  0.0004
 8439W        W12639   0.517   4.663  12.770 -0.1372  0.0099  0.0495
 8440W        W12640   1.113   4.093   0.295  0.2715 -0.1942  0.2485
 8441W        W12641   3.220   8.846  13.383 -0.2669 -0.3383 -0.3294
 8442W        W12642   5.719   2.615   3.391  0.1446 -0.0484 -0.0235
 8443W        W12643   6.380   9.755  10.373  0.0178  0.0796 -0.1424
 8444W        W12644   7.656   8.063  12.942  0.0904  0.1082  0.1287
 8445W        W12645   8.650   0.059   0.907  0.0418  0.1569  0.0868
 8446W        W12646   4.054   4.884   3.096 -0.0845 -0.0435  0.0155
 8447W        W12647   8.481   0.675  10.987 -0.0841  0.3796 -0.2014
 8448W        W12648   3.749   9.107  13.375  0.0866 -0.0526  0.2057
 8449W        W12649   2.174   2.937  13.096 -0.0214 -0.0189 -0.1323
 8450W        W12650   9.738   6.674   4.789  0.0319  0.0291  0.0786
 8451W        W12651   9.670   3.349  12.848  0.0940 -0.3147 -0.2157
 8452W        W12652   9.911   7.770   2.119 -0.0314  0.0088 -0.1100
 8453W        W12653   4.125   3.563  13.198  0.1795  0.0646  0.0249
 8454W        W12654   3.618   8.436  12.511  0.0997  0.1491 -0.3203
 8455W        W12655  10.154   7.027   1.570  0.1898 -0.2866  0.1119
 8456W        W12656   3.443   8.849   2.231  0.1748 -0.1432  0.1731
 8457W        W12657   5.642   7.899   2.667 -0.1590  0.0068 -0.0153
 8458W        W12658   5.494   7.372   1.720 -0.1313  0.0136  0.1410
 8459W        W12659   7.908   5.842  12.533 -0.1851  0.0003 -0.0573
 8460W        W12660   3.938   3.044  13.002 -0.2306  0.1947  0.0425
 8461W        W12661   4.589   4.386   2.907  0.0100 -0.2455  0.0730
 8462W        W12662   7.815   5.737  11.062  0.0041 -0.0391  0.1005
 8463W        W12663   6.909   4.969   4.517 -0.2828 -0.0978  0.0615
 8464W        W12664   5.206   6.516   2.977 -0.0965 -0.2663  0.0574
 8465W        W12665   9.512   4.657   0.534 -0.3733  0.0302  0.0379
 8466W        W12666   6.025   3.252  11.044 -0.1072 -0.0619  0.3977
 8467W        W12667   6.256   2.188   3.667  0.1336 -0.0310  0.4455
 8468W        W12668   1.931   5.309   4.759  0.3594 -0.2218 -0.0399
 8469W        W12669   8.904   1.686  11.725  0.1330 -0.0969  0.0957
 8470W        W12670   5.576   2.651   2.106 -0.2007 -0.3058 -0.0718
 8471W        W12671   3.014   5.313  10.425 -0.4455  0.1676 -0.0059
 8472W        W12672   9.133   3.430   1.539  0.3232 -0.1830  0.2269
 8473W        W12673   8.241   3.248  13.330  0.2860 -0.0166  0.0749
 8474W        W12674   9.816   5.312   1.239 -0.1439 -0.0778  0.0445
 8475W        W12675   9.064   4.369   1.117  0.1719 -0.2853 -0.1118
 8476W        W12676   3.935   3.567   1.732  0.1890  0.2425  0.0603
 8477W        W12677   5.573   2.032  12.496  0.2430 -0.1127 -0.0152
 8478W        W12678   3.054   7.951   3.885 -0.0311 -0.4374 -0.2263
 8479W        W12679   8.700   5.244   1.508  0.1360 -0.0185  0.2870
 8480W        W12680   7.987  10.215   4.553 -0.2693 -0.2253 -0.0736
 8481W        W12681   3.904   3.550   3.695  0.0834  0.0358  0.4358
 8482W        W12682   9.015   1.223   4.094  0.0684 -0.0655 -0.1018
 8483W        W12683   0.848   2.341  11.002  0.1984 -0.3193  0.1726
 8484W        W12684   6.249   8.311   8.888 -0.1928 -0.1828  0.0128
 8485W        W12685   3.225   6.574   2.012  0.1123  0.0128 -0.1715
 8486W        W12686   2.053   0.279   1.933 -0.1094  0.3237  0.1058
 8487W        W12687   4.307   8.365   4.493 -0.2306  0.1939  0.0704
 8488W        W12688  10.281   1.458  13.469  0.0175 -0.1188 -0.2772
 8489W        W12689   6.313  10.242  11.286  0.0092  0.0984 -0.1196
 8490W        W12690   8.227   8.423  12.480  0.1068  0.1757 -0.1319
 8491W        W12691   7.774   0.841   1.890  0.2819 -0.0140 -0.1949
 8492W        W12692   4.956   6.516   9.248 -0.2880  0.0712  0.1881
 8493W        W12693   2.359   6.430   0.425  0.2621  0.1107  0.0781
 8494W        W12694   3.283   1.964   4.224 -0.0428  0.2710  0.0161
 8495W        W12695   0.994   4.861  10.931  0.2179  0.0474  0.1661
 8496W        W12696   6.718   3.725   9.128  0.0781  0.0238 -0.2774
 8497W        W12697   9.951   8.669   2.122  0.0581  0.0659 -0.1778
 8498W        W12698   0.802   3.420  11.536 -0.0918  0.0524 -0.0354
 8499W        W12699   3.216   6.216   9.484  0.0512  0.0288  0.2216
 8500W        W12700   8.649  10.086   3.045 -0.1933  0.2390  0.1344
 8501W        W12701   8.888   0.827  12.071  0.0214 -0.0556  0.1499
 8502W        W12702  10.412   5.278   1.485  0.2676  0.2014 -0.4087
 8503W        W12703   9.876  10.014  10.953 -0.1609 -0.1572  0.0984
 8504W        W12704   5.693   4.203   0.559 -0.0048 -0.2298  0.0194
 8505W        W12705   1.891   3.810   3.341  0.2315  0.2360  0.2012
 8506W        W12706   6.301   9.916  11.725  0.0451  0.1196 -0.0035
 8507W        W12707   6.467   9.739  11.153  0.0628  0.0661 -0.3988
 8508W        W12708   4.126   5.070   4.229  0.2756  0.2278 -0.1260
 8509W        W12709   7.356   0.912  11.680 -0.3921  0.1725 -0.1137
 8510W        W12710   3.794   4.072   4.955 -0.3683  0.0624 -0.0413
 8511W        W12711   6.665   1.076   3.993  0.0582  0.1602  0.1078
 8512W        W12712   8.462   7.499   3.650  0.0243 -0.1001  0.2513
 8513W        W12713   6.728   2.363   3.959  0.0354  0.1079 -0.0853
 8514W        W12714   4.452   7.990  10.388 -0.0003  0.1516 -0.1766
 8515W        W12715   8.082   3.916   4.180  0.0710  0.2341 -0.0122
 8516W        W12716   5.789   7.708   0.134  0.0144 -0.1857  0.0916
 8517W        W12717   4.170   7.882   1.380  0.0453  0.0757 -0.1564
 8518W        W12718   6.996   0.325   3.754 -0.1204 -0.0036 -0.0365
 8519W        W12719   4.439   7.527  10.663  0.3262 -0.4517 -0.0279
 8520W        W12720   1.552   5.784   1.108  0.1699  0.0609  0.1354
 8521W        W12721   1.425   5.810  12.915 -0.4195 -0.0283  0.1125
 8522W        W12722   1.130   9.086  10.200 -0.2921  0.1677 -0.0374
 8523W        W12723  10.279   0.742  12.295  0.2437  0.0033  0.2521
 8524W        W12724   2.852   0.255  12.289 -0.0289 -0.0493  0.1650
 8525W        W12725   2.398   8.857   3.984  0.1327 -0.0266  0.1092
 8526W        W12726   0.851   7.559   2.928 -0.1534 -0.4666  0.1715
 8527W        W12727  10.339  10.136   0.403 -0.0079 -0.3862  0.0946
 8528W        W12728   1.137  10.203  13.371 -0.0911  0.2321  0.0226
 8529W        W12729   4.890   6.862   0.765  0.0059 -0.2649  0.0109
 8530W        W12730   5.551   6.250  13.421  0.1356  0.0603  0.2028
 8531W        W12731   5.336   8.401  13.184 -0.2145 -0.1490 -0.1070
 8532W        W12732   3.328   0.074   9.063 -0.2272  0.2310 -0.0824
 8533W        W12733   2.958   0.511   4.575 -0.1559 -0.2766 -0.0114
 8534W        W12734   8.724  10.315  12.746  0.0531 -0.0643  0.1462
 8535ION    NA+12735   4.182   0.289   8.490  0.3670 -0.0569  0.0798
 8536ION    NA+12736   2.836   1.805  10.298  0.1889  0.2414 -0.0511
 8537ION    NA+12737  10.095   5.355  10.954 -0.1077  0.1860 -0.0136
 8538ION    NA+12738   9.752   6.653   4.278 -0.2713 -0.2152 -0.0015
 8539ION    NA+12739   8.042   4.624  10.280  0.0660 -0.0007 -0.1050
 8540ION    NA+12740   6.487   8.720   1.795 -0.0509  0.2114 -0.1824
 8541ION    NA+12741   0.630   6.208   3.071  0.0166 -0.0489 -0.1100
 8542ION    NA+12742   5.607   9.674   9.500  0.1413  0.3149  0.2167
 8543ION    NA+12743   3.079   0.370   8.664 -0.2876 -0.2630 -0.3564
 8544ION    NA+12744  10.059   4.489   1.865  0.0388  0.0472  0.3708
 8545ION    NA+12745  10.052   1.841   1.640  0.1430 -0.0355 -0.2550
 8546ION    NA+12746   8.216   1.895   0.183  0.1193  0.0739 -0.1120
 8547ION    NA+12747   4.399   2.385   4.830 -0.1243  0.1784  0.2358
 8548ION    NA+12748   5.565   2.920   4.629 -0.3266 -0.2183  0.2300
 8549ION    NA+12749   1.250   7.520   5.277 -0.1147  0.2556  0.1146
 8550ION    NA+12750   0.656   1.429   1.294 -0.0118  0.0232 -0.3410
 8551ION    NA+12751   8.113   1.835   9.603 -0.1936 -0.0756  0.1676
 8552ION    NA+12752   9.615   8.596  11.196  0.0420  0.0717 -0.2864
 8553ION    NA+12753   5.625   9.266  11.153  0.1599 -0.1044  0.3066
 8554ION    NA+12754   8.848   8.882   9.934  0.0267  0.0356 -0.3875
 8555ION    NA+12755   4.303   4.530  11.607 -0.1226  0.1885 -0.1218
 8556ION    NA+12756   1.813   1.595   9.417 -0.0186  0.1554 -0.0695
 8557ION    NA+12757   0.552   6.123  11.490  0.0660 -0.2536  0.0434
 8558ION    NA+12758   7.505   1.386   1.069  0.0651  0.0688  0.1501
 8559ION    NA+12759   3.028   8.338  10.419  0.2881 -0.0346  0.0046
 8560ION    NA+12760   8.848   9.009   4.478  0.4550 -0.0510  0.1541
 8561ION    NA+12761   7.878   7.656   1.521 -0.0498 -0.1501  0.3400
 8562ION    NA+12762   2.304   9.523   1.237  0.1503 -0.0528 -0.1973
 8563ION    NA+12763   9.250   4.607  10.634  0.2027  0.1435 -0.3767
 8564ION    NA+12764   9.623   9.699   1.059  0.0634  0.1117  0.2695
 8565ION    NA+12765   9.855   3.370  10.898 -0.0654  0.1080 -0.1269
 8566ION    NA+12766   1.124   0.823   3.750  0.2712  0.3074  0.1371
 8567ION    NA+12767   1.643   8.044   1.484 -0.1732  0.2089 -0.1607
 8568ION    NA+12768   8.538   1.027   2.084  0.1461  0.1774 -0.0932
 8569ION    NA+12769   2.414   1.826   0.970  0.0320 -0.1313  0.1961
 8570ION    NA+12770   1.212   0.005  12.101 -0.0073 -0.1603 -0.0585
 8571ION    NA+12771   1.167   2.807   2.551  0.0444  0.1672 -0.0738
 8572ION    NA+12772   7.716   4.022   9.373  0.2646  0.0061  0.2393
 8573ION    NA+12773   7.531   6.999   9.026  0.0320 -0.1763  0.1922
 8574ION    NA+12774  10.264   0.382  10.343  0.4103  0.2147 -0.2602
 8575ION    NA+12775  10.431   7.581   0.888  0.0406  0.3060 -0.0636
 8576ION    NA+12776   9.426   1.954   0.828  0.1247 -0.2199 -0.2776
 8577ION    NA+12777   8.813   2.629  13.385 -0.0217  0.0187  0.1506
 8578ION    NA+12778   3.370   9.356   1.580 -0.3562  0.0253 -0.0058
 8579ION    NA+12779   8.507   6.021   1.500  0.3652  0.3465  0.3740
 8580ION    NA+12780   3.354   6.150   2.848  0.1375 -0.0478 -0.1116
 8581ION    NA+12781   1.459   2.867   3.402  0.2390 -0.0319 -0.0927
 8582ION    NA+12782   2.739   5.647   4.884  0.0516  0.2147  0.0085
 8583ION    NA+12783   7.049   9.448   4.235 -0.4226 -0.1428 -0.1144
 8584ION    NA+12784   7.179  10.232   2.264 -0.1837  0.1378 -0.0262
 8585ION    NA+12785   9.207   5.181   2.380  0.2519 -0.0403 -0.0986
 8586ION    NA+12786   1.811   8.809   0.691  0.1483  0.0741  0.2618
 8587ION    NA+12787   3.058   8.493   2.002  0.0685  0.1655 -0.2212
 8588ION    NA+12788   9.979   5.944  12.655  0.1592 -0.0958 -0.2365
 8589ION    NA+12789   5.059  10.252   4.968  0.0078 -0.1441 -0.2371
 8590ION    NA+12790   3.186   6.926   0.305 -0.1680 -0.1143 -0.0826
 8591ION    NA+12791   7.332   8.114   0.955 -0.2082 -0.0943  0.1305
 8592ION    NA+12792   2.910   5.475   0.145 -0.0945 -0.2816 -0.0372
 8593ION    NA+12793   8.046   8.198   4.900  0.4279  0.0722 -0.1784
 8594ION    NA+12794   2.185   1.322   2.704 -0.0159  0.1597 -0.3563
 8595ION    NA+12795   1.560   4.908   5.043  0.1293 -0.0137  0.2686
 8596ION    NA+12796   5.944   1.692   4.427  0.4757  0.0065  0.1558
 8597ION    NA+12797   8.308  10.267  13.071  0.0901  0.0382 -0.0909
 8598ION    NA+12798   4.112   2.513   8.820 -0.0363  0.0823 -0.3856
 8599ION    NA+12799   4.145   9.554  13.199  0.0220  0.2183  0.2533
 8600ION    NA+12800   5.391   0.096   2.929  0.2352  0.0594 -0.3147
 8601ION    NA+12801   6.204   7.022   3.924  0.0775 -0.1506  0.0779
 8602ION    NA+12802   0.897   3.671   9.178  0.0509  0.0692  0.1917
 8603ION    NA+12803   0.356   9.951   0.296  0.1794  0.1133  0.2259
 8604ION    NA+12804   9.493   4.439   3.310 -0.2635  0.2405 -0.1333
 8605ION    NA+12805   7.289   4.414   1.777  0.4731  0.1075  0.2483
 8606ION    NA+12806   1.509   2.021   3.809  0.3055 -0.0643 -0.1574
 8607ION    NA+12807   0.941   2.765   1.078  0.2576  0.2438  0.1616
 8608ION    NA+12808   8.799   2.410   4.622  0.0050 -0.2121 -0.1879
 8609ION    NA+12809   8.429   4.182  11.221  0.0614 -0.1742 -0.1537
 8610ION    NA+12810   9.788   1.931  12.721 -0.0064 -0.1395  0.0477
 8611ION    NA+12811   9.185   1.179  11.900  0.2380  0.1231  0.0985
 8612ION    NA+12812   6.953   0.275   4.568  0.1370  0.0699 -0.1916
 8613ION    NA+12813   4.418   3.449  10.608  0.0962  0.1273 -0.0628
 8614ION    NA+12814   8.598   3.795   1.069  0.0324 -0.1631 -0.1289
 8615ION    NA+12815   0.040   6.724   2.142  0.1626  0.3302 -0.0243
 8616ION    NA+12816   0.888  10.345  10.461  0.3024 -0.0363  0.1982
 8617ION    NA+12817   6.291   9.573   2.488  0.4204 -0.0304 -0.1399
 8618ION    NA+12818   0.928   5.090   1.886 -0.1455  0.0788  0.1357
 8619ION    NA+12819   4.503   3.596   8.308  0.5515 -0.4342 -0.1656
 8620ION    NA+12820   3.715   1.373  11.618  0.1043  0.0280 -0.1346
 8621ION    NA+12821   1.431   1.565  11.124 -0.0598 -0.1332  0.3122
 8622ION    NA+12822   5.214   3.134  10.386 -0.0658  0.1975 -0.0742
 8623ION    NA+12823   1.985   2.642   9.207 -0.2411  0.0246  0.0431
 8624ION    NA+12824   7.676   5.198   1.777 -0.0761 -0.1133  0.4520
 8625ION    CL-12825   7.140   7.269  12.532  0.0731  0.0097  0.2285
 8626ION    CL-12826   1.701   2.542  10.940  0.1559  0.0511  0.3085
 8627ION    CL-12827   3.476   6.640   0.667 -0.0673 -0.3899 -0.0791
 8628ION    CL-12828   3.762   3.621  11.756 -0.2825 -0.0710  0.1893
 8629ION    CL-12829   2.539   0.167   3.294  0.3242 -0.2490 -0.2036
 8630ION    CL-12830   2.488   0.832   0.576  0.1020 -0.4464 -0.1115
 8631ION    CL-12831   9.587   6.273   4.512 -0.1126 -0.1283 -0.1232
 8632ION    CL-12832  10.328   1.469   1.403  0.0917 -0.1586 -0.3311
 8633ION    CL-12833   8.581   9.783  13.056  0.0698  0.2230  0.0984
 8634ION    CL-12834  10.255   5.514  10.485 -0.2277  0.0545 -0.0858
 8635ION    CL-12835   3.689   1.661   9.790  0.3250  0.0756 -0.0107
 8636ION    CL-12836   4.857   7.310  13.056 -0.0220 -0.2150  0.0555
 8637ION    CL-12837   7.561  10.179   4.315  0.1250  0.0387  0.1649
 8638ION    CL-12838   3.087   8.903   1.785 -0.1347 -0.3602  0.4080
 8639ION    CL-12839   9.500   2.665   3.096  0.0943 -0.0942 -0.2453
 8640ION    CL-12840   1.026   3.677   3.852 -0.1448 -0.3415  0.2399
 8641ION    CL-12841   0.302   4.912   0.784 -0.4693 -0.1589  0.1116
 8642ION    CL-12842   2.903   8.360   9.506 -0.0838 -0.2552  0.3219
 8643ION    CL-12843   4.285   3.178  11.008  0.0147  0.1540  0.2865
 8644ION    CL-12844   4.440   7.784   2.201  0.0455 -0.4650 -0.0473
 8645ION    CL-12845   8.328   4.691  11.023  0.0200 -0.0597 -0.2334
 8646ION    CL-12846   9.349   1.160  12.375 -0.0982  0.0924  0.0461
 8647ION    CL-12847   9.692   9.543   3.200 -0.0568 -0.3204 -0.4161
 8648ION    CL-12848   5.339  10.130   9.615  0.0081 -0.2653  0.0056
 8649ION    CL-12849   6.885   8.076   0.743  0.2112 -0.2238  0.2668
 8650ION    CL-12850   9.252   8.646   9.848  0.0795  0.0556 -0.1902
 8651ION    CL-12851   0.638   5.746  11.826 -0.1284  0.0010 -0.0977
 8652ION    CL-12852  10.083   6.315   4.343  0.0101  0.2188 -0.0615
 8653ION    CL-12853   4.834   3.492  10.309  0.0887 -0.0443 -0.1519
 8654ION    CL-12854   4.591   5.258   4.489  0.2793  0.2293  0.0790
 8655ION    CL-12855   7.254   5.466   1.974 -0.0908  0.1645  0.0243
 8656ION    CL-12856   3.140   2.445  12.571  0.3065 -0.2290  0.1064
 8657ION    CL-12857   8.376   4.888  13.492 -0.2348 -0.1194 -0.1435
 8658ION    CL-12858   9.364   1.447   0.921  0.0644  0.0862 -0.0051
 8659ION    CL-12859   2.117   1.622   2.283  0.0832  0.5905 -0.0471
 8660ION    CL-12860   7.128   5.241  12.598 -0.1603  0.0399  0.0657
 8661ION    CL-12861   2.927   5.334  12.644 -0.0304  0.0975  0.0802
 8662ION    CL-12862   8.550   4.545   9.985  0.3847  0.3890  0.0688
 8663ION    CL-12863   5.513   0.497   0.214  0.0325  0.2002 -0.0369
 8664ION    CL-12864   9.945   4.979   2.066 -0.1671 -0.0523  0.1694
 8665ION    CL-12865   2.146   8.484   0.604 -0.0565  0.1201 -0.1350
 8666ION    CL-12866   1.382   2.367   3.497  0.3232 -0.1388 -0.1071
 8667ION    CL-12867   3.127   5.042   0.264  0.0614  0.0910 -0.3179
 8668ION    CL-12868   4.951  10.061  12.022 -0.1956  0.0534 -0.3108
 8669ION    CL-12869   7.825   6.783   0.327 -0.0685  0.0673  0.1417
 8670ION    CL-12870   7.564   2.954   1.990 -0.0526 -0.2160 -0.0627
 8671ION    CL-12871   3.433   6.090   3.383 -0.4541 -0.0936  0.1452
 8672ION    CL-12872   8.726   0.158  10.339 -0.2378  0.0324 -0.0329
 8673ION    CL-12873   9.848   6.363  10.639 -0.0695 -0.0873  0.1106
 8674ION    CL-12874  10.454   1.957  11.064  0.3188 -0.0044  0.2483
 8675ION    CL-12875  10.144   1.951  13.139 -0.3506  0.1180  0.0664
 8676ION    CL-12876   1.478   2.559   2.930 -0.2757 -0.0483  0.1303
 8677ION    CL-12877   1.625   7.686   4.140  0.3200  0.0570  0.2875
 8678ION    CL-12878   6.543   8.954   2.758 -0.1555  0.0555 -0.1871
 8679ION    CL-12879   7.069   2.298   3.651 -0.1296 -0.1911  0.0573
 8680ION    CL-12880   1.239   0.319   3.509 -0.0468  0.1930 -0.1712
 8681ION    CL-12881   5.320   1.552   8.996  0.0233  0.1476 -0.0989
 8682ION    CL-12882   8.513   0.642  13.341 -0.1387  0.0547 -0.2542
 8683ION    CL-12883   7.872  10.366  12.831 -0.0307  0.0299 -0.0608
 8684ION    CL-12884   6.192   8.048   9.748  0.3489  0.2111  0.2183
 8685ION    CL-12885   0.719   2.395   1.327  0.1752 -0.2607 -0.0196
 8686ION    CL-12886   5.737   2.209   1.399 -0.1027 -0.1641 -0.0186
 8687ION    CL-12887   9.409   5.458  11.048 -0.0189 -0.2939  0.1106
 8688ION    CL-12888   1.073   0.282  12.544  0.2680 -0.0543 -0.1695
 8689ION    CL-12889   5.066   7.620   4.396 -0.0945 -0.2883  0.3718
 8690ION    CL-12890   9.754   1.438   3.203  0.2375  0.0325 -0.0888
 8691ION    CL-12891   8.866   6.579   4.734 -0.1470  0.2009  0.0264
 8692ION    CL-12892   1.005   6.317  11.224  0.0272  0.0648 -0.0019
 8693ION    CL-12893   1.363   3.259   2.510 -0.0254  0.1599  0.0706
 8694ION    CL-12894   6.422   3.862  12.207  0.0875 -0.0362 -0.2140
 8695ION    CL-12895   7.771   4.705   1.914 -0.0254  0.0627  0.0360
 8696ION    CL-12896   5.379   2.070   3.893 -0.1567 -0.0409  0.5768
 8697ION    CL-12897   6.806   9.878   2.327 -0.0797  0.2126  0.3005
 8698ION    CL-12898   7.262   4.258   1.240  0.0963 -0.2235  0.0622
 8699ION    CL-12899   1.210   4.923   1.514  0.2623 -0.2681  0.0021
 8700ION    CL-12900   6.904   8.738   1.527  0.0649 -0.0734  0.3175
 8701ION    CL-12901  10.026   8.343  11.319  0.2251 -0.0743 -0.1891
 8702ION    CL-12902   3.008   5.746   2.700 -0.1410 -0.1822  0.3231
 8703ION    CL-12903  10.272   3.627  11.236 -0.0138  0.0376 -0.3785
 8704ION    CL-12904   2.842   9.421   1.390  0.0437  0.4142 -0.0400
 8705ION    CL-12905   1.757   2.903  12.405  0.0415 -0.1662 -0.2052
 8706ION    CL-12906   8.989   9.229   1.099 -0.1140  0.2657  0.0469
 8707ION    CL-12907   3.469   8.556  10.450  0.1475  0.0864  0.1370
 8708ION    CL-12908   6.071   9.130  11.122 -0.1698 -0.0306 -0.1133
 8709ION    CL-12909   0.253   5.437   5.084 -0.0446  0.2028  0.3159
 8710ION    CL-12910   3.696   8.188   4.305 -0.0110  0.2579 -0.2429
 8711ION    CL-12911   5.929   1.536  11.636 -0.0078 -0.0531  0.1038
 8712ION    CL-12912   4.222   0.696   8.839  0.0936 -0.1666 -0.0460
 8713ION    CL-12913   0.665   5.291   2.804 -0.0016 -0.2004  0.0868
 8714ION    CL-12914   3.572   1.012  10.081 -0.1395  0.0864 -0.2969
  10.46404  10.46404  13.50485
