Protein in INSANE! Membrane UpperLeaflet>POPC=1.0 LowerLeaflet>POPC=1.0
12914
    1AU     AUC    1   1.926   5.732   6.642 -0.0788 -0.0137 -0.0426
    1AU     AUC    2   2.168   5.938   6.493 -0.0310 -0.0169 -0.0711
    1AU     AUC    3   1.828   5.847   6.368  0.0155 -0.0213  0.0243
    1AU     AUC    4   1.963   5.609   6.930  0.1371 -0.0146 -0.0736
    1AU     AUC    5   1.722   5.512   6.734 -0.0083 -0.0272 -0.0439
    1AU     AUC    6   2.044   5.416   6.635  0.0157 -0.0024 -0.1225
    1AU     AUC    7   2.115   5.626   6.393 -0.0968 -0.0198 -0.0608
    1AU     AUC    8   1.720   5.825   6.878 -0.0450 -0.0350  0.0299
    1AU     AUC    9   1.821   6.054   6.597  0.0363 -0.0469  0.0778
    1AU     AUC   10   1.602   5.801   6.575  0.0183  0.0770  0.0442
    1AU     AUC   11   1.786   5.513   6.446  0.0032  0.0488 -0.0615
    1AU     AUC   12   2.067   5.939   6.822 -0.0104  0.0361  0.0670
    1AU     AUC   13   2.242   5.710   6.692 -0.0522 -0.0210  0.0128
    1AU     AUC   14   2.360   6.149   6.302 -0.0124 -0.0596  0.1045
    1AU     AUC   15   2.053   6.109   6.164 -0.0246 -0.0907 -0.0944
    1AU     AUC   16   1.740   5.978   6.041  0.0997 -0.0358 -0.0798
    1AU     AUC   17   2.040   5.509   7.275  0.0197 -0.0661 -0.0514
    1AU     AUC   18   1.749   5.371   7.070  0.0069  0.0203  0.1097
    1AU     AUC   19   1.496   5.285   6.853  0.0261 -0.0215 -0.0553
    1AU     AUC   20   2.169   5.126   6.686 -0.0190 -0.0526  0.1303
    1AU     AUC   21   2.277   5.309   6.390 -0.0061  0.0520  0.0159
    1AU     AUC   22   2.290   5.520   6.136 -0.0592  0.0046  0.0121
    1AU     AUC   23   1.536   5.981   7.121 -0.0297  0.0486 -0.0924
    1AU     AUC   24   1.634   6.190   6.875  0.0230 -0.0104  0.0632
    1AU     AUC   25   1.731   6.399   6.594 -0.0707  0.0385 -0.0018
    1AU     AUC   26   1.258   5.827   6.485 -0.0199 -0.0583 -0.0234
    1AU     AUC   27   1.393   5.530   6.360  0.0642  0.0220  0.0263
    1AU     AUC   28   1.653   5.304   6.216  0.0309 -0.0135 -0.0255
    1AU     AUC   29   2.231   6.170   6.996  0.0684 -0.0088  0.0434
    1AU     AUC   30   2.433   5.925   6.899 -0.0454 -0.0164 -0.0248
    1AU     AUC   31   2.543   5.657   6.796  0.0548  0.0373 -0.0783
    1AU     AUC   32   1.464   5.918   6.270 -0.0318  0.0039 -0.0611
    1AU     AUC   33   1.644   5.643   6.094 -0.0231 -0.0760  0.1130
    1AU     AUC   34   2.384   6.190   6.641 -0.0715  0.0329 -0.0041
    1AU     AUC   35   2.490   5.903   6.522 -0.0215  0.0647 -0.0020
    1AU     AUC   36   1.348   5.529   6.663  0.0334 -0.0564  0.0516
    1AU     AUC   37   1.585   5.242   6.504 -0.0594 -0.0752  0.1416
    1AU     AUC   38   2.130   5.865   7.140  0.1064  0.0497 -0.0817
    1AU     AUC   39   2.304   5.597   7.080 -0.0479  0.0838  0.0121
    1AU     AUC   40   2.324   5.833   6.164  0.0494 -0.0492  0.0494
    1AU     AUC   41   1.985   5.741   6.071  0.2095 -0.0975  0.0297
    1AU     AUC   42   2.077   5.268   6.986 -0.0491 -0.0765  0.0366
    1AU     AUC   43   1.841   5.167   6.778 -0.0566  0.0228 -0.0070
    1AU     AUC   44   2.035   6.278   6.422  0.0257 -0.1038 -0.0735
    1AU     AUC   45   1.707   6.196   6.321 -0.0403 -0.0258  0.0376
    1AU     AUC   46   1.751   5.731   7.186 -0.0911  0.0006  0.0748
    1AU     AUC   47   1.467   5.602   6.962  0.0947 -0.0255 -0.1570
    1AU     AUC   48   1.918   5.167   6.413 -0.0046  0.0776 -0.1008
    1AU     AUC   49   1.977   5.408   6.172  0.0005  0.0760 -0.0241
    1AU     AUC   50   1.376   5.911   6.809 -0.0107 -0.0404  0.0076
    1AU     AUC   51   1.450   6.132   6.586  0.0294  0.1089 -0.0405
    1AU     AUC   52   2.351   5.374   6.760 -0.0381 -0.0496  0.0629
    1AU     AUC   53   2.449   5.567   6.434  0.0330  0.0603  0.0956
    1AU     AUC   54   1.893   6.067   7.084 -0.0045 -0.0019  0.0837
    1AU     AUC   55   2.020   6.288   6.757 -0.0225 -0.0430  0.0945
    1AU    AUSL   56   1.368   5.892   5.922 -0.0653  0.0418 -0.0366
    1AU    AUSL   57   1.182   6.109   6.265  0.1420 -0.0614  0.0312
    1AU     AUL   58   1.162   6.144   5.931 -0.0106  0.0036  0.0362
    1AU       S   59   1.072   6.573   6.145 -0.3714  0.0689  0.0257
    1AU     LIG   60   0.698   6.526   5.808 -0.1314  0.2680  0.2573
    1AU     LIG   61   0.329   6.326   5.776 -0.1768 -0.0472  0.2854
    1AU     LIG   62  -0.110   6.178   5.738 -0.0327 -0.0174  0.0070
    1AU     LIG   63  -0.515   6.368   5.875  0.3745  0.1995 -0.1078
    1AU     LIG   64  -0.898   6.705   5.869  0.0842 -0.1616  0.1157
    1AU       S   65   0.888   5.822   5.777 -0.1214  0.2332 -0.1827
    1AU     LIG   66   0.362   5.800   5.821  0.0842 -0.1369 -0.2184
    1AU     LIG   67  -0.058   5.697   5.638 -0.1298 -0.1448 -0.1616
    1AU     LIG   68  -0.495   5.824   5.716  0.2927 -0.0723 -0.0805
    1AU     LIG   69  -0.772   5.918   6.061  0.3978 -0.0448  0.1429
    1AU     LIG   70  -0.953   6.080   6.486 -0.0114 -0.1823  0.0169
    1AU    AUSL   71   1.092   5.690   6.195 -0.0294 -0.0192  0.0349
    1AU    AUSL   72   1.239   5.202   6.224  0.0100 -0.0655 -0.0627
    1AU     AUL   73   1.045   5.361   6.011  0.0080  0.0349  0.0043
    1AU       S   74   0.848   5.792   6.168 -0.1332  0.1289 -0.3715
    1AU     LIG   75   0.673   6.136   6.096 -0.1631  0.3719 -0.1385
    1AU     LIG   76   0.461   6.388   6.257  0.1073  0.3567 -0.4724
    1AU     LIG   77   0.333   6.734   6.082  0.0315 -0.0654 -0.1321
    1AU     LIG   78   0.170   7.186   5.963 -0.1609  0.0451  0.4433
    1AU     LIG   79   0.239   7.498   5.652 -0.1582 -0.3750  0.3786
    1AU       S   80   0.793   5.237   6.361  0.1447 -0.0854 -0.1626
    1AU     LIG   81   0.330   5.283   6.217 -0.5893 -0.3232 -0.1140
    1AU     LIG   82  -0.088   5.627   6.160 -0.1832 -0.0217 -0.1357
    1AU     LIG   83  -0.295   5.927   6.339  0.0405 -0.1148 -0.2064
    1AU     LIG   84  -0.520   6.443   6.371  0.4284  0.4634  0.2800
    1AU     LIG   85  -0.919   6.630   6.521 -0.0855  0.2037  0.3695
    1AU    AUSL   86   1.511   5.519   6.108 -0.0312  0.0068  0.0350
    1AU    AUSL   87   1.700   5.699   5.734  0.0091 -0.0449 -0.0680
    1AU     AUL   88   1.350   5.618   5.739 -0.0364 -0.0677  0.0251
    1AU       S   89   1.288   5.032   5.795  0.0083 -0.3480  0.2932
    1AU     LIG   90   0.882   4.848   6.014 -0.0626  0.0616  0.0687
    1AU     LIG   91   0.530   4.801   6.133  0.3347 -0.1174  0.1968
    1AU     LIG   92   0.354   4.504   6.439 -0.0327 -0.0242  0.1439
    1AU     LIG   93   0.167   4.332   6.881  0.0190 -0.3765 -0.3219
    1AU     LIG   94   0.121   4.343   7.351  0.0783  0.3883  0.3569
    1AU       S   95   1.678   5.577   5.363  0.2615 -0.4211 -0.1195
    1AU     LIG   96   1.453   6.032   5.449 -0.3384  0.0030  0.4480
    1AU     LIG   97   1.180   6.420   5.585 -0.1766  0.2146 -0.2199
    1AU     LIG   98   0.974   6.880   5.551 -0.0066 -0.5233  0.1058
    1AU     LIG   99   0.929   7.267   5.296 -0.0372 -0.0578  0.3634
    1AU     LIG  100   0.811   7.555   4.947 -0.6665  0.1794 -0.1647
    1AU    AUSL  101   2.749   6.152   6.514 -0.0615 -0.0443 -0.0639
    1AU    AUSL  102   2.701   5.716   6.456 -0.0118 -0.0338  0.0825
    1AU     AUL  103   2.992   5.873   6.456  0.0166 -0.0326  0.1482
    1AU       S  104   3.141   6.151   6.811 -0.3267 -0.3090 -0.3919
    1AU     LIG  105   3.602   6.153   6.936 -0.1881 -0.1738 -0.2206
    1AU     LIG  106   4.064   6.293   6.796  0.2565 -0.0033 -0.3851
    1AU     LIG  107   4.487   6.599   6.802 -0.1259 -0.4186  0.1807
    1AU     LIG  108   4.657   7.002   6.825  0.2598 -0.0884  0.2507
    1AU     LIG  109   5.030   7.009   7.132 -0.1646  0.4130  0.2311
    1AU       S  110   2.969   5.999   6.048  0.3517 -0.2632  0.2939
    1AU     LIG  111   3.201   6.276   6.315 -0.5069 -0.1185 -0.1145
    1AU     LIG  112   3.602   6.567   6.378 -0.2688 -0.1692 -0.2829
    1AU     LIG  113   4.034   6.568   6.402 -0.2198 -0.2111 -0.3699
    1AU     LIG  114   4.434   6.364   6.362 -0.0238 -0.3468 -0.2319
    1AU     LIG  115   4.697   6.050   6.223  0.0116 -0.4938  0.1498
    1AU    AUSL  116   2.650   6.344   6.898 -0.0530 -0.0686 -0.0204
    1AU    AUSL  117   2.494   6.459   6.394  0.0057 -0.0473 -0.1335
    1AU     AUL  118   2.832   6.448   6.557  0.0139  0.0752  0.0008
    1AU       S  119   2.588   6.814   6.444  0.2114  0.3611 -0.1579
    1AU     LIG  120   2.927   7.083   6.648  0.0381  0.0919  0.0199
    1AU     LIG  121   2.865   7.498   6.890  0.4771 -0.3184 -0.0616
    1AU     LIG  122   2.610   7.707   6.575 -0.0755 -0.4728 -0.1175
    1AU     LIG  123   2.746   7.994   6.283 -0.0319 -0.0665 -0.2434
    1AU     LIG  124   3.121   8.324   6.204  0.0506  0.1934 -0.2708
    1AU       S  125   3.113   6.310   6.940 -0.1248  0.1411 -0.2252
    1AU     LIG  126   3.318   6.672   6.785 -0.1017  0.4099  0.0721
    1AU     LIG  127   3.402   7.178   6.681  0.0439 -0.1217 -0.1323
    1AU     LIG  128   3.388   7.599   6.883  0.0198 -0.3164  0.5701
    1AU     LIG  129   3.384   7.919   7.201 -0.2522 -0.2883  0.2221
    1AU     LIG  130   3.293   7.907   7.574  0.0120  0.2036  0.2318
    1AU    AUSL  131   2.709   5.889   6.844  0.0085  0.0133 -0.0204
    1AU    AUSL  132   2.428   6.053   7.149 -0.0409 -0.0102  0.0115
    1AU     AUL  133   2.738   6.191   7.191  0.0762  0.0309  0.0057
    1AU       S  134   2.778   5.949   7.578  0.1058 -0.2478 -0.3022
    1AU     LIG  135   2.712   6.446   7.711  0.0942  0.2773  0.1473
    1AU     LIG  136   2.578   6.592   8.094  0.0607  0.2460 -0.5537
    1AU     LIG  137   2.222   6.449   8.382  0.1867 -0.1886 -0.3704
    1AU     LIG  138   2.010   6.256   8.726  0.0646 -0.0451  0.0351
    1AU     LIG  139   1.874   6.006   9.103  0.0713 -0.2330  0.1045
    1AU       S  140   3.022   5.932   6.914  0.1474  0.2562 -0.0981
    1AU     LIG  141   3.153   5.563   6.990 -0.2624  0.1505 -0.0294
    1AU     LIG  142   3.391   5.218   7.035  0.0378  0.3002 -0.1135
    1AU     LIG  143   3.815   5.316   7.367  0.0966  0.1792 -0.2197
    1AU     LIG  144   3.821   5.634   7.635 -0.1436 -0.0092  0.0452
    1AU     LIG  145   3.792   6.139   7.411 -0.3276  0.0378  0.2180
    1AU    AUSL  146   1.240   5.099   6.653  0.0345  0.0188 -0.0579
    1AU    AUSL  147   1.589   4.972   6.299  0.0941  0.0958  0.0023
    1AU     AUL  148   1.234   4.884   6.350  0.0493 -0.0051  0.0344
    1AU       S  149   0.847   5.129   6.459  0.3366  0.2403 -0.0045
    1AU     LIG  150   0.823   4.714   6.648  0.2821  0.0253  0.0757
    1AU     LIG  151   0.687   4.239   6.800  0.1565 -0.1958  0.3811
    1AU     LIG  152   0.652   3.802   6.570 -0.1864  0.2765  0.0355
    1AU     LIG  153   0.350   3.551   6.543 -0.5259  0.0078  0.1544
    1AU     LIG  154   0.290   3.219   6.630  0.1939  0.2360  0.2389
    1AU       S  155   1.583   4.601   6.498 -0.1226 -0.1113 -0.0175
    1AU     LIG  156   1.255   4.351   6.241  0.1075 -0.1083 -0.2586
    1AU     LIG  157   1.039   3.965   6.255 -0.0050  0.0660 -0.0001
    1AU     LIG  158   1.131   3.568   6.271  0.0587  0.0229 -0.1680
    1AU     LIG  159   1.399   3.308   6.581 -0.1284 -0.1131  0.0832
    1AU     LIG  160   1.349   3.258   6.928 -0.2405 -0.0171  0.3636
    1AU    AUSL  161   1.202   5.510   6.540  0.0113  0.0188 -0.0750
    1AU    AUSL  162   1.084   5.403   6.952  0.0758 -0.0647  0.0482
    1AU     AUL  163   1.052   5.115   6.889  0.0863  0.0366  0.0146
    1AU       S  164   0.739   5.451   6.948  0.3262 -0.0409  0.2821
    1AU     LIG  165   0.565   5.145   6.892 -0.1068 -0.1599 -0.1473
    1AU     LIG  166   0.284   4.972   6.621 -0.1070 -0.2133  0.0546
    1AU     LIG  167  -0.150   4.712   6.573 -0.3942 -0.0669 -0.0594
    1AU     LIG  168  -0.469   4.484   6.793 -0.3125  0.3610  0.1148
    1AU     LIG  169  -0.702   4.069   6.754 -0.3738  0.1029  0.2149
    1AU       S  170   0.819   5.387   6.491 -0.2691  0.1226  0.5429
    1AU     LIG  171   0.469   5.708   6.406  0.3165  0.1215  0.1049
    1AU     LIG  172   0.216   5.989   6.457 -0.2467  0.0045  0.2796
    1AU     LIG  173  -0.012   6.366   6.203  0.2922  0.1262 -0.1449
    1AU     LIG  174  -0.173   6.766   6.271  0.0934  0.4852 -0.0165
    1AU     LIG  175  -0.180   7.114   6.292  0.3173 -0.3185 -0.2183
    1AU    AUSL  176   2.332   5.749   7.426  0.0516  0.0263 -0.1482
    1AU    AUSL  177   2.068   6.108   7.355 -0.0371 -0.0751 -0.0588
    1AU     AUL  178   2.380   6.169   7.463  0.0126 -0.0515 -0.0611
    1AU       S  179   2.709   5.884   7.672 -0.0335  0.1250  0.0839
    1AU     LIG  180   2.553   6.053   8.079 -0.2155 -0.1105  0.1205
    1AU     LIG  181   2.618   6.100   8.515 -0.1310  0.1512  0.1341
    1AU     LIG  182   2.761   5.730   8.792 -0.4446 -0.0638  0.3552
    1AU     LIG  183   3.049   5.269   8.866  0.1147 -0.0123 -0.1643
    1AU     LIG  184   3.445   5.073   9.006  0.4246 -0.0844  0.2618
    1AU       S  185   2.066   6.042   7.788  0.0505 -0.1570 -0.3957
    1AU     LIG  186   2.159   6.483   7.867  0.3148  0.0466 -0.1563
    1AU     LIG  187   2.246   6.671   7.573 -0.0094  0.0708  0.0761
    1AU     LIG  188   2.526   6.655   7.307 -0.4750  0.2231 -0.1104
    1AU     LIG  189   3.008   6.738   7.165  0.1744 -0.0393  0.2132
    1AU     LIG  190   3.296   7.021   7.219  0.0302 -0.1824  0.3559
    1AU    AUSL  191   2.706   5.701   7.216  0.0550 -0.1365  0.0540
    1AU    AUSL  192   2.355   5.325   7.363  0.0817  0.0585 -0.0430
    1AU     AUL  193   2.567   5.486   7.462 -0.0804 -0.0206  0.0436
    1AU       S  194   2.535   5.045   7.589  0.0884  0.0368  0.2487
    1AU     LIG  195   2.400   4.579   7.551  0.1041 -0.1084 -0.3077
    1AU     LIG  196   2.380   4.209   7.273 -0.2607 -0.1848  0.2630
    1AU     LIG  197   2.523   3.876   7.105  0.3793 -0.2152  0.5653
    1AU     LIG  198   2.524   3.395   6.979  0.3171  0.0840  0.3141
    1AU     LIG  199   2.431   3.076   7.158  0.1356  0.0067  0.0147
    1AU       S  200   2.910   5.808   7.395 -0.0862 -0.0172 -0.0442
    1AU     LIG  201   3.243   6.030   7.319  0.1131  0.0457  0.2264
    1AU     LIG  202   3.443   6.484   7.363 -0.3931 -0.0884  0.1404
    1AU     LIG  203   3.891   6.674   7.252 -0.1887 -0.2899 -0.2121
    1AU     LIG  204   4.290   6.907   7.206  0.2903  0.0470 -0.0569
    1AU     LIG  205   4.702   6.750   7.293  0.1182  0.2651 -0.0917
    1AU    AUSL  206   2.338   5.789   5.796  0.0380 -0.0807 -0.0538
    1AU    AUSL  207   2.541   6.013   6.181  0.0220  0.0374  0.1364
    1AU     AUL  208   2.617   5.934   5.676  0.0046 -0.0166 -0.1024
    1AU       S  209   2.765   6.199   6.047 -0.4524 -0.0211  0.2211
    1AU     LIG  210   2.812   6.607   6.042 -0.2346  0.2063  0.1710
    1AU     LIG  211   3.081   6.819   6.281  0.1117  0.0898 -0.3848
    1AU     LIG  212   3.382   7.163   6.130  0.1785  0.2183  0.2493
    1AU     LIG  213   3.814   7.046   6.352  0.3046 -0.3936  0.5522
    1AU     LIG  214   4.084   6.964   6.757 -0.4447  0.2288 -0.1403
    1AU       S  215   2.266   6.008   5.371 -0.0059 -0.0294  0.1704
    1AU     LIG  216   2.528   5.745   5.207 -0.0192 -0.0942  0.0158
    1AU     LIG  217   2.858   5.554   5.249  0.0239 -0.2535  0.2801
    1AU     LIG  218   3.271   5.529   5.368  0.0127 -0.1317  0.2427
    1AU     LIG  219   3.718   5.465   5.206  0.4146  0.3492 -0.0981
    1AU     LIG  220   4.064   5.554   4.914 -0.2241 -0.4302 -0.2392
    1AU    AUSL  221   2.310   6.208   5.888  0.0253 -0.0823 -0.0526
    1AU    AUSL  222   1.891   6.381   5.902 -0.0149 -0.0517 -0.1525
    1AU     AUL  223   2.300   6.509   5.757 -0.0161 -0.0329  0.0003
    1AU       S  224   2.143   6.149   5.509  0.1102 -0.2784  0.1584
    1AU     LIG  225   1.973   6.162   5.048  0.0423  0.1455  0.1000
    1AU     LIG  226   1.930   6.194   4.596 -0.4533  0.0380  0.0843
    1AU     LIG  227   2.167   6.028   4.238 -0.4145 -0.2364  0.1656
    1AU     LIG  228   2.404   5.592   4.443 -0.1676 -0.2752  0.1315
    1AU     LIG  229   2.545   5.448   4.872 -0.4840  0.2971  0.2248
    1AU       S  230   1.882   6.754   5.804 -0.1124 -0.0695 -0.0508
    1AU     LIG  231   1.566   6.939   5.681 -0.0676  0.0901  0.2140
    1AU     LIG  232   1.483   7.379   5.675 -0.2338 -0.4063  0.2680
    1AU     LIG  233   1.347   7.637   5.998 -0.0278  0.1270 -0.1679
    1AU     LIG  234   1.141   7.982   6.205 -0.0761  0.2557 -0.0703
    1AU     LIG  235   0.716   8.037   6.419 -0.2526  0.2316 -0.2128
    1AU    AUSL  236   1.965   5.962   5.952 -0.0080 -0.0248  0.0694
    1AU    AUSL  237   2.033   5.508   5.939  0.0199  0.0166 -0.0833
    1AU     AUL  238   2.073   5.694   5.619  0.0660  0.0688  0.0010
    1AU       S  239   1.829   5.366   5.381 -0.0798  0.1539  0.0819
    1AU     LIG  240   2.250   5.288   5.362  0.1399 -0.1979 -0.1863
    1AU     LIG  241   2.579   5.386   5.622 -0.5104 -0.2487 -0.2797
    1AU     LIG  242   3.099   5.344   5.789  0.1485 -0.0344 -0.2366
    1AU     LIG  243   3.445   5.068   6.056  0.0899  0.4421 -0.1729
    1AU     LIG  244   3.813   4.947   6.160  0.0182 -0.0422 -0.4134
    1AU       S  245   1.901   6.095   5.544 -0.3365 -0.0994  0.4370
    1AU     LIG  246   1.745   6.483   5.414  0.1702  0.3345  0.2785
    1AU     LIG  247   2.044   6.709   5.327 -0.0010 -0.0720  0.1049
    1AU     LIG  248   2.331   7.004   5.633  0.1047  0.0981 -0.1250
    1AU     LIG  249   1.940   7.263   5.671 -0.1283 -0.1628 -0.2122
    1AU     LIG  250   1.806   7.431   6.087 -0.1350 -0.0818  0.3718
    1AU    AUSL  251   2.031   4.927   6.925 -0.0793  0.0614  0.0338
    1AU    AUSL  252   1.635   5.024   6.734  0.0244  0.0590 -0.0213
    1AU     AUL  253   1.837   4.669   6.965 -0.0471 -0.0522  0.0801
    1AU       S  254   1.479   4.728   6.713 -0.0252  0.2653 -0.1296
    1AU     LIG  255   1.163   4.321   6.735 -0.0445 -0.0878  0.2108
    1AU     LIG  256   1.130   3.949   6.880  0.2281 -0.2740  0.0250
    1AU     LIG  257   1.281   3.783   7.302 -0.4020 -0.4444 -0.0606
    1AU     LIG  258   1.099   3.953   7.649 -0.2294  0.0565 -0.3113
    1AU     LIG  259   0.858   4.152   7.958  0.0246 -0.1879  0.0537
    1AU       S  260   2.269   4.606   6.835  0.4106 -0.0661  0.2766
    1AU     LIG  261   2.021   4.180   6.935 -0.1114  0.0502 -0.1129
    1AU     LIG  262   1.971   3.965   7.286  0.0757 -0.0533  0.1472
    1AU     LIG  263   2.123   3.501   7.225  0.2599 -0.2186  0.0270
    1AU     LIG  264   2.405   3.540   7.495  0.3536 -0.2467  0.1418
    1AU     LIG  265   2.812   3.472   7.455  0.1143 -0.4825  0.1163
    1AU    AUSL  266   1.969   5.274   7.213 -0.0523 -0.0118 -0.0197
    1AU    AUSL  267   2.429   5.019   7.054  0.0022 -0.0069 -0.0878
    1AU     AUL  268   2.193   4.953   7.316 -0.0401 -0.0289  0.0436
    1AU       S  269   2.061   5.349   7.745 -0.2866 -0.2887  0.1102
    1AU     LIG  270   2.060   4.963   7.909 -0.2659 -0.0551 -0.0864
    1AU     LIG  271   2.343   4.656   8.122  0.3545 -0.0968 -0.0955
    1AU     LIG  272   2.410   4.321   8.062  0.0077  0.3183  0.0968
    1AU     LIG  273   2.429   3.879   7.915  0.1491 -0.5140  0.1416
    1AU     LIG  274   2.737   3.674   7.951  0.0272 -0.0133 -0.0533
    1AU       S  275   2.627   4.785   7.176  0.0539  0.1280  0.2853
    1AU     LIG  276   3.070   4.778   6.962  0.0222  0.2714 -0.3627
    1AU     LIG  277   3.475   4.939   6.652 -0.0065  0.1034  0.2622
    1AU     LIG  278   3.771   5.265   6.568 -0.0189 -0.1131  0.2570
    1AU     LIG  279   3.946   5.445   6.905 -0.1634  0.0017 -0.0911
    1AU     LIG  280   3.675   5.714   7.127  0.4013  0.1089  0.2931
    1AU    AUSL  281   1.613   5.016   7.162 -0.0929  0.0706  0.0409
    1AU    AUSL  282   1.656   5.378   7.478  0.0234  0.0176 -0.0002
    1AU     AUL  283   1.761   5.063   7.485  0.0487  0.0391 -0.0174
    1AU       S  284   1.322   5.244   7.493  0.3183 -0.0599 -0.1166
    1AU     LIG  285   0.816   4.979   7.515  0.0512  0.0126 -0.2734
    1AU     LIG  286   0.821   4.564   7.687 -0.4134 -0.4328 -0.2323
    1AU     LIG  287   1.012   4.596   8.024  0.0953  0.3274  0.0458
    1AU     LIG  288   1.449   4.827   8.078  0.0288 -0.0791  0.1699
    1AU     LIG  289   1.500   5.210   7.964 -0.0332  0.2864 -0.2383
    1AU       S  290   1.417   4.850   7.139  0.1461  0.1123  0.1623
    1AU     LIG  291   1.101   4.605   7.101  0.3375  0.4748 -0.3632
    1AU     LIG  292   0.550   4.599   7.149  0.0700 -0.4140 -0.0477
    1AU     LIG  293   0.154   4.816   7.087 -0.3074 -0.2258 -0.0303
    1AU     LIG  294  -0.073   5.183   6.979  0.1361 -0.4078 -0.1490
    1AU     LIG  295  -0.314   5.459   7.107  0.0226  0.1849  0.0799
    1AU    AUSL  296   1.773   6.573   6.284 -0.0615  0.0253 -0.0144
    1AU    AUSL  297   1.597   6.177   6.141 -0.0967  0.0905 -0.1234
    1AU     AUL  298   1.585   6.387   5.850 -0.1033  0.0601 -0.0963
    1AU       S  299   1.764   6.783   6.190 -0.3342 -0.3236 -0.2639
    1AU     LIG  300   1.651   7.034   6.405  0.1112 -0.2023 -0.1415
    1AU     LIG  301   1.413   7.418   6.528 -0.3041 -0.1508 -0.3860
    1AU     LIG  302   1.530   7.827   6.586 -0.2658  0.5618 -0.0584
    1AU     LIG  303   1.478   8.159   6.654 -0.0608  0.1635 -0.0376
    1AU     LIG  304   1.613   8.555   6.732 -0.5018  0.2505 -0.3330
    1AU       S  305   1.283   6.653   6.073 -0.5452  0.0083 -0.1062
    1AU     LIG  306   1.222   7.115   6.045  0.0444 -0.1379 -0.0350
    1AU     LIG  307   0.926   7.471   6.225 -0.0020  0.0692 -0.3444
    1AU     LIG  308   0.526   7.581   6.496  0.0366  0.1808  0.0843
    1AU     LIG  309   0.128   7.620   6.293  0.3168  0.5880 -0.0668
    1AU     LIG  310  -0.380   7.535   6.393 -0.3915  0.0366 -0.0479
    1AU    AUSL  311   2.128   6.313   6.262  0.0271  0.0527  0.0202
    1AU    AUSL  312   2.111   6.673   6.532  0.0059  0.0221 -0.0731
    1AU     AUL  313   2.224   6.622   6.213  0.1157  0.0173  0.1045
    1AU       S  314   1.937   6.869   5.967 -0.0157 -0.2045  0.0167
    1AU     LIG  315   2.248   7.123   6.162 -0.1081  0.0649 -0.4020
    1AU     LIG  316   2.630   7.312   6.332 -0.0777  0.0786 -0.1220
    1AU     LIG  317   2.964   7.515   6.243  0.1799 -0.0310 -0.0154
    1AU     LIG  318   3.168   7.802   6.517 -0.0165  0.1126 -0.1593
    1AU     LIG  319   2.982   8.027   6.842  0.1217  0.0389 -0.2514
    1AU       S  320   2.399   6.904   6.547  0.3912  0.0026  0.0631
    1AU     LIG  321   2.442   7.271   6.761 -0.3477 -0.0061 -0.2228
    1AU     LIG  322   2.402   7.543   7.071 -0.4195  0.3605  0.0734
    1AU     LIG  323   2.311   7.790   7.348 -0.1373 -0.2673 -0.1725
    1AU     LIG  324   2.256   8.018   7.736  0.0991 -0.4277 -0.0811
    1AU     LIG  325   2.081   8.135   8.146 -0.3699 -0.1132 -0.1451
    1AU    AUSL  326   1.421   5.717   7.362 -0.0006  0.0524  0.0298
    1AU    AUSL  327   1.914   5.700   7.408 -0.0217 -0.0057 -0.0224
    1AU     AUL  328   1.604   5.617   7.664 -0.0153 -0.0344 -0.0468
    1AU       S  329   2.027   5.830   7.803 -0.0323  0.0581 -0.1573
    1AU     LIG  330   2.443   5.610   7.932  0.1913 -0.1654 -0.3696
    1AU     LIG  331   2.734   5.611   8.286  0.0125 -0.1555  0.0003
    1AU     LIG  332   3.101   5.925   8.193  0.2649  0.0093 -0.1942
    1AU     LIG  333   3.384   6.111   8.219  0.2435 -0.2035  0.2508
    1AU     LIG  334   3.856   6.041   8.075 -0.0450 -0.2303 -0.3283
    1AU       S  335   1.194   5.383   7.631 -0.2186  0.1641  0.2388
    1AU     LIG  336   1.061   5.695   7.801 -0.0958 -0.3867  0.0114
    1AU     LIG  337   0.835   6.020   7.943 -0.4794  0.2952 -0.3378
    1AU     LIG  338   0.804   6.409   7.894  0.3622  0.0142  0.2532
    1AU     LIG  339   0.749   6.836   8.106  0.1466  0.4399  0.3215
    1AU     LIG  340   0.483   6.869   8.515 -0.0875 -0.0344 -0.1121
    1AU    AUSL  341   1.466   5.406   7.075  0.0161 -0.0559  0.0117
    1AU    AUSL  342   1.259   5.804   6.991 -0.0228  0.1378  0.0420
    1AU     AUL  343   1.108   5.634   7.226 -0.0121  0.0292 -0.0535
    1AU       S  344   0.696   5.680   7.054 -0.0114 -0.0328  0.5110
    1AU     LIG  345   0.233   5.620   6.828  0.0057 -0.1026  0.2531
    1AU     LIG  346  -0.186   5.558   6.635  0.0035  0.2789  0.0938
    1AU     LIG  347  -0.564   5.229   6.714  0.1435 -0.2559  0.3047
    1AU     LIG  348  -0.634   4.880   6.622 -0.3565 -0.0750 -0.1884
    1AU     LIG  349  -0.916   4.520   6.569  0.2654 -0.0821 -0.0547
    1AU       S  350   1.214   5.217   7.395 -0.3793  0.1079  0.5540
    1AU     LIG  351   1.301   4.717   7.565 -0.2041 -0.0754  0.0953
    1AU     LIG  352   1.405   4.324   7.473 -0.1697  0.1483 -0.0015
    1AU     LIG  353   1.551   4.205   7.049  0.3355 -0.0048  0.0220
    1AU     LIG  354   1.610   3.983   6.570  0.0435 -0.2251 -0.1213
    1AU     LIG  355   1.760   3.582   6.337  0.0574 -0.1821  0.1761
    1AU    AUSL  356   1.939   5.128   6.138  0.0185  0.0475  0.0398
    1AU    AUSL  357   1.980   4.907   6.504  0.0945  0.0057 -0.0805
    1AU     AUL  358   1.763   4.834   6.093 -0.0270 -0.0415 -0.0074
    1AU       S  359   1.906   4.635   6.493  0.1065  0.2071 -0.1423
    1AU     LIG  360   2.002   4.309   6.487  0.2529 -0.0692  0.3015
    1AU     LIG  361   2.111   3.936   6.287  0.2583  0.0232  0.0295
    1AU     LIG  362   2.300   3.574   6.268 -0.1530 -0.5081  0.3475
    1AU     LIG  363   2.425   3.161   6.274  0.1070  0.2334  0.5575
    1AU     LIG  364   2.182   2.850   6.630  0.1012  0.1464 -0.0091
    1AU       S  365   2.202   4.748   5.875 -0.1547 -0.0686 -0.1527
    1AU     LIG  366   2.295   4.300   5.861 -0.2778  0.3478 -0.1217
    1AU     LIG  367   2.513   3.992   6.028 -0.1535  0.1927 -0.4102
    1AU     LIG  368   2.852   3.834   5.970  0.1036  0.1882 -0.4314
    1AU     LIG  369   3.187   3.680   6.205  0.1090  0.0163 -0.1426
    1AU     LIG  370   3.356   3.525   6.571 -0.1252  0.2849 -0.2753
    1AU    AUSL  371   2.331   4.949   6.283 -0.0334  0.0628 -0.0088
    1AU    AUSL  372   2.621   5.270   6.312 -0.0067 -0.0304 -0.1096
    1AU     AUL  373   2.705   4.962   6.124  0.0093  0.0367  0.0610
    1AU       S  374   2.259   4.784   6.145 -0.0005  0.0923 -0.0333
    1AU     LIG  375   2.467   4.515   6.362 -0.1480 -0.2014 -0.2457
    1AU     LIG  376   2.522   4.080   6.538 -0.2637  0.0178 -0.2043
    1AU     LIG  377   2.229   3.736   6.730  0.2145 -0.4959  0.2276
    1AU     LIG  378   2.141   3.382   6.671  0.1710 -0.0600 -0.3124
    1AU     LIG  379   1.927   3.133   6.927 -0.1209 -0.1075  0.0462
    1AU       S  380   2.844   4.940   6.577 -0.3179 -0.3836  0.0927
    1AU     LIG  381   3.090   4.728   6.328  0.1448  0.1459  0.1630
    1AU     LIG  382   3.203   4.391   6.555 -0.3434 -0.1779  0.0069
    1AU     LIG  383   3.116   3.952   6.656 -0.0930 -0.2351  0.2272
    1AU     LIG  384   2.815   3.623   6.532 -0.0274 -0.1310  0.1481
    1AU     LIG  385   3.006   3.164   6.494  0.2939  0.1053 -0.5333
    1AU    AUSL  386   2.336   5.245   5.984  0.0610 -0.1130  0.0189
    1AU    AUSL  387   1.667   5.252   5.841 -0.0233  0.0170 -0.0453
    1AU     AUL  388   1.997   5.193   5.773  0.0272  0.0050 -0.0098
    1AU       S  389   1.590   5.258   5.471 -0.1095  0.0051 -0.3489
    1AU     LIG  390   1.226   5.426   5.332 -0.4069 -0.1065  0.3071
    1AU     LIG  391   0.929   5.388   5.530 -0.1316 -0.0247  0.1733
    1AU     LIG  392   0.569   5.322   5.810 -0.0293  0.2279  0.2568
    1AU     LIG  393   0.164   5.150   5.730  0.2633 -0.1919  0.1444
    1AU     LIG  394  -0.254   5.164   5.819  0.2981  0.1878 -0.1398
    1AU       S  395   2.376   4.938   5.800 -0.1771  0.4110  0.0533
    1AU     LIG  396   2.728   4.515   5.683  0.3108 -0.1808  0.0306
    1AU     LIG  397   2.847   4.178   5.615 -0.3772  0.2902 -0.1261
    1AU     LIG  398   3.221   3.972   5.657  0.1603  0.1005 -0.1764
    1AU     LIG  399   3.484   4.002   5.922  0.2030 -0.2582 -0.3746
    1AU     LIG  400   3.711   4.071   6.427 -0.0461 -0.1550  0.0325
    1AU    AUSL  401   1.197   6.146   6.702  0.0296 -0.0085  0.0606
    1AU    AUSL  402   1.415   6.410   6.445  0.0717 -0.0965 -0.0426
    1AU     AUL  403   0.975   6.241   6.466 -0.0346  0.0495 -0.0741
    1AU       S  404   0.905   6.523   6.825 -0.1176  0.2992 -0.1809
    1AU     LIG  405   0.602   6.849   6.609  0.1297  0.0069 -0.0980
    1AU     LIG  406   0.293   7.001   6.477 -0.4849 -0.0774 -0.2355
    1AU     LIG  407   0.032   7.340   6.678 -0.3408  0.1379 -0.1641
    1AU     LIG  408   0.205   7.829   6.765 -0.1472  0.3241 -0.2412
    1AU     LIG  409   0.561   8.077   6.919 -0.3328  0.2290  0.1808
    1AU       S  410   1.301   6.604   6.393 -0.0507 -0.0512 -0.0397
    1AU     LIG  411   1.072   6.950   6.571  0.0773 -0.1073 -0.1554
    1AU     LIG  412   0.918   7.324   6.690 -0.0987  0.1034 -0.2501
    1AU     LIG  413   1.006   7.799   6.776 -0.1169 -0.1848 -0.0029
    1AU     LIG  414   0.975   8.028   7.203  0.1236  0.2514  0.0514
    1AU     LIG  415   0.757   8.062   7.593  0.0204 -0.3406  0.3700
    1AU    AUSL  416   1.265   6.178   7.141 -0.0221 -0.0577  0.0574
    1AU    AUSL  417   0.977   5.813   6.693 -0.0334  0.0647  0.0094
    1AU     AUL  418   0.964   6.047   6.986  0.0515  0.0617 -0.1342
    1AU       S  419   0.973   6.487   7.028  0.0137  0.2931 -0.2700
    1AU     LIG  420   0.909   6.532   7.418 -0.0119  0.2859  0.0271
    1AU     LIG  421   1.137   6.761   7.733  0.4276  0.0165  0.0602
    1AU     LIG  422   1.388   6.993   7.507 -0.2449  0.0815  0.0874
    1AU     LIG  423   1.747   7.178   7.506  0.1381 -0.1303  0.4126
    1AU     LIG  424   1.804   7.546   7.374 -0.0423  0.0912  0.2482
    1AU       S  425   0.743   5.714   6.760  0.6219  0.0352 -0.1408
    1AU     LIG  426   0.570   6.139   6.735 -0.3294  0.5696  0.1111
    1AU     LIG  427   0.314   6.442   6.737  0.2745 -0.4382  0.5726
    1AU     LIG  428  -0.064   6.519   6.787 -0.3995  0.0973  0.0629
    1AU     LIG  429  -0.426   6.823   6.740  0.2169 -0.1563  0.6415
    1AU     LIG  430  -0.800   7.114   6.661  0.2535  0.2922 -0.0198
    1AU    AUSL  431   1.410   6.505   6.863 -0.1187  0.0641 -0.0319
    1AU    AUSL  432   1.689   6.245   7.089 -0.0794  0.0219 -0.0071
    1AU     AUL  433   1.396   6.429   7.270 -0.0361  0.0118  0.0485
    1AU       S  434   1.667   6.787   7.175  0.3737 -0.1085 -0.1277
    1AU     LIG  435   1.521   7.253   7.065 -0.2021 -0.2690  0.1762
    1AU     LIG  436   1.884   7.643   6.864  0.1441 -0.0451 -0.2277
    1AU     LIG  437   2.270   7.955   6.822 -0.1331 -0.0077  0.0430
    1AU     LIG  438   2.525   8.265   6.665 -0.2160 -0.0226  0.0472
    1AU     LIG  439   2.999   8.534   6.711  0.0221 -0.0847  0.1548
    1AU       S  440   1.252   6.600   6.866 -0.3587 -0.2266  0.0966
    1AU     LIG  441   1.117   6.939   7.107  0.4651  0.0707  0.0178
    1AU     LIG  442   0.872   6.982   7.013 -0.1203 -0.2845 -0.3576
    1AU     LIG  443   0.571   7.122   7.183  0.5468 -0.2599  0.1607
    1AU     LIG  444   0.201   7.050   7.084  0.1106 -0.1694 -0.2402
    1AU     LIG  445  -0.224   7.089   7.123 -0.0770 -0.5505 -0.3853
    1AU    AUSL  446   2.799   5.400   6.711  0.0281 -0.0354  0.0014
    1AU    AUSL  447   2.601   5.604   6.066 -0.0586 -0.0176 -0.0173
    1AU     AUL  448   2.901   5.449   6.319  0.1281 -0.0177 -0.0253
    1AU       S  449   2.951   5.120   6.617  0.0500  0.1499 -0.5271
    1AU     LIG  450   3.300   5.342   6.501  0.0074  0.1365  0.2145
    1AU     LIG  451   3.452   5.734   6.655 -0.4271 -0.0355  0.2283
    1AU     LIG  452   3.910   5.882   6.617 -0.2587  0.4695 -0.5890
    1AU     LIG  453   4.329   5.860   6.691 -0.3128 -0.1581  0.2140
    1AU     LIG  454   4.682   6.128   6.769 -0.1564 -0.1868 -0.2012
    1AU       S  455   2.911   5.799   5.968 -0.3585  0.0875 -0.4239
    1AU     LIG  456   3.366   5.761   6.141 -0.0378  0.0211 -0.3302
    1AU     LIG  457   3.805   5.564   6.206  0.3030 -0.1909  0.4132
    1AU     LIG  458   4.180   5.297   6.154  0.1009  0.1220 -0.0606
    1AU     LIG  459   4.445   5.123   5.765  0.0713 -0.1479 -0.3549
    1AU     LIG  460   4.526   4.855   5.370  0.2691  0.0699  0.4431
    1AU    AUSL  461   2.395   5.147   6.657  0.0208  0.0637 -0.0147
    1AU    AUSL  462   2.471   5.462   6.981 -0.0736 -0.0066  0.0482
    1AU     AUL  463   2.704   5.209   6.998 -0.0513 -0.0403 -0.0854
    1AU       S  464   2.682   4.830   6.666 -0.0886 -0.1088  0.1372
    1AU     LIG  465   2.725   4.414   6.784  0.2054 -0.3431  0.0709
    1AU     LIG  466   2.990   4.170   7.093 -0.2620  0.0415  0.2379
    1AU     LIG  467   3.344   4.178   7.417 -0.0524 -0.1480 -0.3160
    1AU     LIG  468   3.393   4.607   7.380 -0.3551 -0.0099  0.3445
    1AU     LIG  469   3.409   5.001   7.458  0.2510 -0.0402  0.0362
    1AU       S  470   2.692   5.032   7.436  0.1525  0.2045 -0.4914
    1AU     LIG  471   3.029   5.302   7.428 -0.1210 -0.0634  0.3159
    1AU     LIG  472   3.373   5.562   7.502  0.3742  0.1611 -0.2224
    1AU     LIG  473   3.449   5.882   7.779  0.0416 -0.1903 -0.4181
    1AU     LIG  474   3.145   6.234   7.768  0.0119 -0.3345 -0.0877
    1AU     LIG  475   3.049   6.477   8.168 -0.0471 -0.0236 -0.0934
    1AU    AUSL  476   2.079   6.459   7.135 -0.0297 -0.0624  0.1044
    1AU    AUSL  477   1.668   6.055   7.467  0.0231 -0.0463 -0.0443
    1AU     AUL  478   1.867   6.377   7.405 -0.0126  0.0035  0.0307
    1AU       S  479   1.770   6.086   7.789 -0.3609  0.0322 -0.0591
    1AU     LIG  480   1.298   6.212   7.734 -0.3865 -0.0739  0.1072
    1AU     LIG  481   0.874   5.974   7.461 -0.2959 -0.3619  0.2137
    1AU     LIG  482   0.437   6.055   7.274  0.1452  0.0746 -0.0742
    1AU     LIG  483   0.122   6.121   7.052  0.1397  0.0113 -0.0207
    1AU     LIG  484  -0.214   6.008   6.890  0.0975 -0.1091  0.0666
    1AU       S  485   1.848   6.772   7.190 -0.0373 -0.0013 -0.1393
    1AU     LIG  486   2.214   7.054   7.259  0.1287 -0.1102 -0.1878
    1AU     LIG  487   2.412   7.197   7.559  0.0239 -0.0594 -0.3395
    1AU     LIG  488   2.707   7.001   7.883 -0.1106 -0.2457 -0.1339
    1AU     LIG  489   2.414   7.133   8.313  0.2168  0.6053 -0.0732
    1AU     LIG  490   2.228   7.205   8.719 -0.0755  0.3282 -0.4084
    1AU    AUSL  491   1.816   6.500   6.788  0.0110 -0.0480  0.0268
    1AU    AUSL  492   2.260   6.338   6.786 -0.0128  0.0819  0.0023
    1AU     AUL  493   2.162   6.691   6.887  0.0148 -0.0478 -0.0253
    1AU       S  494   1.722   6.852   6.857 -0.0217 -0.0100 -0.1684
    1AU     LIG  495   1.979   7.142   6.726 -0.2910 -0.2161  0.2169
    1AU     LIG  496   2.121   7.560   6.462 -0.2443 -0.0015 -0.0699
    1AU     LIG  497   2.279   7.973   6.263 -0.0267  0.2236 -0.0420
    1AU     LIG  498   2.363   8.035   5.921  0.2775 -0.1541  0.1168
    1AU     LIG  499   2.389   8.358   5.587 -0.0553 -0.0819  0.1996
    1AU       S  500   2.601   6.796   6.786  0.2322  0.2365  0.3714
    1AU     LIG  501   2.693   7.107   7.175  0.0736  0.0089 -0.1097
    1AU     LIG  502   2.849   7.491   7.415 -0.0206  0.4319  0.2471
    1AU     LIG  503   2.823   7.942   7.341  0.2157  0.5522 -0.0377
    1AU     LIG  504   2.612   8.288   7.183  0.0901  0.2154  0.0518
    1AU     LIG  505   2.404   8.613   7.002  0.3682  0.0641  0.2528
    2POPC   NC3  506   7.758   0.804   8.624  0.1948 -0.1623 -0.1338
    2POPC   PO4  507   7.397   0.822   8.562 -0.2232  0.2272  0.0888
    2POPC   GL1  508   7.526   0.733   8.105 -0.3491 -0.2835  0.2732
    2POPC   GL2  509   7.850   0.757   8.035 -0.1174  0.2333  0.0099
    2POPC   C1A  510   7.452   0.708   7.602 -0.1042  0.2044 -0.0376
    2POPC   D2A  511   7.196   0.886   7.235  0.1432 -0.2700 -0.0723
    2POPC   C3A  512   6.885   1.127   7.278  0.0031  0.2409 -0.0200
    2POPC   C4A  513   6.470   1.038   7.331  0.2022  0.2302  0.1424
    2POPC   C1B  514   7.915   0.804   7.634 -0.0666  0.0353 -0.0687
    2POPC   C2B  515   7.774   0.884   7.175  0.2424 -0.3490  0.0396
    2POPC   C3B  516   7.709   1.031   6.932  0.2170  0.1842  0.2506
    2POPC   C4B  517   7.278   1.092   6.665 -0.2353 -0.2083  0.0892
    3POPC   NC3  518   4.881   6.704   8.809 -0.3755 -0.0409  0.0733
    3POPC   PO4  519   5.259   6.928   8.793  0.0076 -0.1743 -0.0864
    3POPC   GL1  520   5.161   6.903   8.382  0.2730 -0.3752 -0.1675
    3POPC   GL2  521   4.883   6.970   8.364  0.3109  0.0784  0.1678
    3POPC   C1A  522   5.387   6.991   8.096 -0.3470 -0.0646  0.1557
    3POPC   D2A  523   5.472   7.149   7.748  0.3248  0.1730  0.0946
    3POPC   C3A  524   5.172   7.431   7.490  0.3833  0.3131 -0.2177
    3POPC   C4A  525   5.080   7.544   7.104 -0.3958  0.0654 -0.0853
    3POPC   C1B  526   4.643   6.705   8.101 -0.3133  0.0097 -0.0582
    3POPC   C2B  527   4.424   6.550   7.750  0.2232 -0.1346  0.0520
    3POPC   C3B  528   4.300   6.424   7.355 -0.4381  0.0741 -0.0224
    3POPC   C4B  529   4.292   6.059   7.145 -0.0460  0.0599  0.1167
    4POPC   NC3  530   0.800   1.725   8.616 -0.2075  0.3268  0.0980
    4POPC   PO4  531   0.571   1.376   8.586  0.0201  0.2692  0.0774
    4POPC   GL1  532   0.563   1.548   8.185 -0.0777  0.1084  0.0070
    4POPC   GL2  533   0.565   1.977   8.213 -0.1964 -0.0899 -0.0348
    4POPC   C1A  534   0.441   1.366   7.779 -0.3302 -0.3718  0.0587
    4POPC   D2A  535   0.516   1.125   7.421  0.1323 -0.3588 -0.0850
    4POPC   C3A  536   0.342   1.304   7.069 -0.2442  0.0362  0.0097
    4POPC   C4A  537   0.207   1.535   6.735 -0.2398  0.0619  0.1923
    4POPC   C1B  538   0.682   1.885   7.824  0.2052 -0.1575  0.0618
    4POPC   C2B  539   0.942   2.037   7.447 -0.1274  0.1638  0.1321
    4POPC   C3B  540   1.220   2.090   7.123  0.0994  0.0042 -0.1916
    4POPC   C4B  541   1.206   2.403   6.777  0.1765  0.0780  0.1254
    5POPC   NC3  542   2.139   0.359   8.690 -0.1505 -0.1446  0.0671
    5POPC   PO4  543   2.367   0.038   8.977  0.2612 -0.2728 -0.0459
    5POPC   GL1  544   2.390  -0.095   8.547  0.2585 -0.1357 -0.1177
    5POPC   GL2  545   2.574   0.183   8.449 -0.0904 -0.3073 -0.2417
    5POPC   C1A  546   2.281  -0.184   8.161  0.3611 -0.1185  0.0715
    5POPC   D2A  547   2.385  -0.535   7.936  0.1229  0.2028  0.0777
    5POPC   C3A  548   2.378  -0.520   7.562  0.2119 -0.0611  0.0253
    5POPC   C4A  549   2.137  -0.508   7.138 -0.2120  0.0223  0.2683
    5POPC   C1B  550   2.594   0.193   7.995  0.0631 -0.0786  0.1670
    5POPC   C2B  551   2.326   0.006   7.695 -0.1120  0.0877  0.0701
    5POPC   C3B  552   2.057  -0.001   7.270  0.1138  0.2864 -0.3879
    5POPC   C4B  553   1.706  -0.310   7.166  0.0604  0.0915  0.2907
    6POPC   NC3  554   1.259   8.532   8.887  0.0497 -0.0464  0.1936
    6POPC   PO4  555   1.094   8.493   8.501  0.0341  0.1409  0.2417
    6POPC   GL1  556   1.069   8.810   8.250 -0.1077 -0.2856 -0.0738
    6POPC   GL2  557   0.762   8.787   8.141  0.1882 -0.0834  0.1268
    6POPC   C1A  558   1.279   8.913   7.959 -0.5042  0.2035  0.0516
    6POPC   D2A  559   1.198   9.073   7.581  0.3107 -0.2459 -0.1006
    6POPC   C3A  560   0.939   9.270   7.304  0.1712  0.0011  0.0234
    6POPC   C4A  561   0.585   9.370   6.908  0.0672  0.1561  0.3134
    6POPC   C1B  562   0.946   8.588   7.741  0.0513 -0.1794 -0.1022
    6POPC   C2B  563   1.400   8.547   7.655 -0.1335  0.0710 -0.1431
    6POPC   C3B  564   1.692   8.736   7.381 -0.0372  0.3013  0.2787
    6POPC   C4B  565   1.921   8.799   7.039 -0.1653  0.2354  0.0352
    7POPC   NC3  566   9.461   4.431   9.131 -0.3083 -0.1893 -0.0590
    7POPC   PO4  567   9.523   4.514   8.667 -0.1696 -0.0110 -0.2658
    7POPC   GL1  568   9.843   4.629   8.464 -0.0866 -0.1465 -0.0107
    7POPC   GL2  569   9.746   4.809   8.191 -0.0773 -0.2897  0.1628
    7POPC   C1A  570  10.116   4.488   8.194 -0.1692 -0.4134 -0.0487
    7POPC   D2A  571  10.295   4.428   7.778 -0.1596  0.3791  0.0145
    7POPC   C3A  572  10.273   4.734   7.443 -0.1464  0.3216  0.2656
    7POPC   C4A  573   9.988   4.892   7.132  0.0429 -0.0241 -0.2649
    7POPC   C1B  574   9.817   5.087   7.799  0.0877 -0.0508 -0.2145
    7POPC   C2B  575  10.110   5.210   7.571  0.0194  0.0924 -0.3405
    7POPC   C3B  576  10.453   5.219   7.546  0.2286  0.2046  0.1379
    7POPC   C4B  577  10.872   5.190   7.372  0.0566 -0.3876  0.1013
    8POPC   NC3  578   9.584  10.193   8.675  0.1330  0.2240  0.0026
    8POPC   PO4  579   9.090  10.214   8.465 -0.2877 -0.0320  0.0601
    8POPC   GL1  580   8.745  10.397   8.243  0.2104 -0.2281  0.2409
    8POPC   GL2  581   8.478  10.301   8.301  0.0958 -0.2212 -0.0886
    8POPC   C1A  582   8.451  10.518   7.803  0.0755  0.2231  0.0379
    8POPC   D2A  583   8.080  10.621   7.591  0.0848  0.2618 -0.3631
    8POPC   C3A  584   7.842  10.908   7.354 -0.0037 -0.1431  0.1353
    8POPC   C4A  585   7.440  10.967   7.167 -0.0874 -0.3124  0.2455
    8POPC   C1B  586   8.322  10.044   7.961 -0.0939 -0.1701  0.3062
    8POPC   C2B  587   8.219  10.128   7.536 -0.2582  0.1097 -0.2453
    8POPC   C3B  588   8.258  10.270   7.232 -0.2892 -0.0460 -0.1632
    8POPC   C4B  589   8.157  10.685   7.007 -0.0596  0.1341  0.0811
    9POPC   NC3  590   1.962   2.700   9.673  0.3319 -0.0203 -0.3115
    9POPC   PO4  591   1.939   2.792   9.374 -0.0872  0.0606  0.2966
    9POPC   GL1  592   1.929   3.031   8.976 -0.2052 -0.0460 -0.1325
    9POPC   GL2  593   1.818   3.297   8.944 -0.2681  0.0234  0.0825
    9POPC   C1A  594   1.839   2.893   8.542 -0.1701 -0.0237  0.2324
    9POPC   D2A  595   1.892   2.609   8.292 -0.2830 -0.0553  0.1565
    9POPC   C3A  596   1.730   2.351   7.977  0.4633 -0.3033 -0.1079
    9POPC   C4A  597   1.795   1.976   7.747 -0.0110 -0.2392  0.0987
    9POPC   C1B  598   1.431   3.202   8.645 -0.1872  0.2919 -0.0556
    9POPC   C2B  599   1.212   3.278   8.319 -0.3751  0.2494 -0.1570
    9POPC   C3B  600   1.144   3.339   7.968 -0.1839 -0.1726 -0.1583
    9POPC   C4B  601   1.004   3.479   7.669 -0.0826 -0.0625 -0.0010
   10POPC   NC3  602   2.316   3.880   9.321 -0.2441 -0.1806 -0.2916
   10POPC   PO4  603   2.681   4.046   9.200 -0.0794  0.1331 -0.1473
   10POPC   GL1  604   2.439   3.866   8.849  0.0476  0.0843  0.0194
   10POPC   GL2  605   2.235   3.593   8.829  0.0793  0.3364 -0.2101
   10POPC   C1A  606   2.326   3.936   8.398 -0.0455 -0.3437 -0.2549
   10POPC   D2A  607   2.011   4.000   8.111  0.0658  0.1982  0.2104
   10POPC   C3A  608   2.039   4.210   7.736 -0.0061  0.0761 -0.0456
   10POPC   C4A  609   1.896   4.518   7.440  0.2390  0.1833  0.0546
   10POPC   C1B  610   1.958   3.615   8.538 -0.1596  0.1837 -0.3990
   10POPC   C2B  611   1.738   3.420   8.298 -0.0311  0.0863 -0.1377
   10POPC   C3B  612   1.519   3.707   8.077  0.0147  0.0110  0.1314
   10POPC   C4B  613   1.617   3.902   7.660  0.2226  0.1126  0.2016
   11POPC   NC3  614   0.636   4.365   9.962 -0.0205 -0.0172  0.3287
   11POPC   PO4  615   1.071   4.227   9.902  0.0456 -0.1669 -0.0347
   11POPC   GL1  616   1.284   4.136   9.377 -0.1644  0.1339  0.3871
   11POPC   GL2  617   1.062   3.960   9.098 -0.0061  0.2170 -0.0245
   11POPC   C1A  618   1.530   4.138   8.985 -0.0217  0.1583  0.1368
   11POPC   D2A  619   1.954   4.043   8.762 -0.2461  0.1389 -0.0915
   11POPC   C3A  620   2.136   4.426   8.516  0.0530 -0.0176  0.2414
   11POPC   C4A  621   2.322   4.823   8.550  0.1072  0.1364 -0.0809
   11POPC   C1B  622   1.125   4.151   8.691  0.0311  0.1805 -0.0751
   11POPC   C2B  623   1.009   4.458   8.516  0.0284 -0.0822  0.0296
   11POPC   C3B  624   1.159   4.791   8.454 -0.0349 -0.2836 -0.2136
   11POPC   C4B  625   0.944   5.157   8.527  0.2494  0.3716  0.2449
   12POPC   NC3  626  10.274   6.621   8.778 -0.0033  0.1847 -0.2456
   12POPC   PO4  627   9.881   6.552   8.654 -0.0306  0.1224  0.1248
   12POPC   GL1  628   9.704   6.674   8.278 -0.3078 -0.0018 -0.2485
   12POPC   GL2  629   9.920   6.430   8.222 -0.1518 -0.0398  0.0517
   12POPC   C1A  630   9.786   6.780   7.902  0.0144  0.1038  0.0192
   12POPC   D2A  631   9.988   7.030   7.655 -0.4666  0.0093  0.2260
   12POPC   C3A  632   9.828   7.271   7.232 -0.1608  0.1598  0.6005
   12POPC   C4A  633  10.035   7.428   6.860  0.3105  0.1897  0.3260
   12POPC   C1B  634   9.966   6.068   7.909  0.2156 -0.2009  0.1287
   12POPC   C2B  635   9.766   6.000   7.461 -0.0737 -0.2657 -0.2168
   12POPC   C3B  636   9.769   5.930   6.992  0.1583 -0.1919  0.0439
   12POPC   C4B  637   9.886   5.708   6.587  0.0735  0.0090  0.1370
   13POPC   NC3  638   1.406   7.090   9.928 -0.2836 -0.3100 -0.0611
   13POPC   PO4  639   1.126   7.063   9.544  0.2625  0.0396  0.1144
   13POPC   GL1  640   0.979   7.132   9.171 -0.1598 -0.0528 -0.1714
   13POPC   GL2  641   0.739   6.915   8.929  0.0769 -0.0088  0.0023
   13POPC   C1A  642   1.300   7.297   8.876 -0.0090 -0.3544 -0.1632
   13POPC   D2A  643   1.651   7.394   8.782 -0.2393 -0.0090 -0.2952
   13POPC   C3A  644   1.671   7.374   8.345  0.2249 -0.0030  0.2262
   13POPC   C4A  645   1.461   7.399   7.916 -0.1912  0.0775  0.2375
   13POPC   C1B  646   0.952   6.746   8.564 -0.2615 -0.1889  0.3499
   13POPC   C2B  647   1.226   6.622   8.205 -0.3098 -0.0944 -0.0867
   13POPC   C3B  648   1.646   6.513   8.349  0.1066  0.1993 -0.2233
   13POPC   C4B  649   1.828   6.176   8.250  0.0390 -0.5179  0.1704
   14POPC   NC3  650  10.188   2.535   8.713 -0.2169  0.1793  0.2924
   14POPC   PO4  651  10.314   2.981   8.553  0.0486 -0.0484 -0.1356
   14POPC   GL1  652  10.309   3.166   8.123  0.1259 -0.0926  0.2298
   14POPC   GL2  653  10.485   2.899   8.030 -0.0187  0.2617 -0.0622
   14POPC   C1A  654  10.212   3.236   7.835 -0.1762  0.0615 -0.0981
   14POPC   D2A  655  10.260   3.417   7.408  0.0231 -0.1422  0.1238
   14POPC   C3A  656  10.007   3.153   7.118  0.1926  0.2186 -0.0552
   14POPC   C4A  657  10.002   2.779   6.898 -0.0191 -0.3864 -0.2893
   14POPC   C1B  658  10.735   3.160   7.727 -0.0716  0.0701 -0.1584
   14POPC   C2B  659  11.021   3.190   7.409  0.3857  0.0235  0.0904
   14POPC   C3B  660  11.066   2.902   6.971  0.1015  0.3150  0.0697
   14POPC   C4B  661  11.475   2.932   6.761 -0.0462  0.0615  0.2374
   15POPC   NC3  662   6.441   1.263   9.160  0.0609 -0.3002  0.2503
   15POPC   PO4  663   6.739   1.371   9.003 -0.0264  0.0459 -0.0703
   15POPC   GL1  664   6.655   1.361   8.527 -0.0065 -0.1591  0.3128
   15POPC   GL2  665   6.478   1.537   8.449 -0.1224 -0.3302 -0.1587
   15POPC   C1A  666   6.713   1.208   8.098  0.0382  0.0085  0.0822
   15POPC   D2A  667   7.016   1.058   7.762 -0.1379  0.1435  0.1261
   15POPC   C3A  668   6.852   0.712   7.549 -0.1880  0.1633  0.2716
   15POPC   C4A  669   6.634   0.326   7.793  0.1014  0.1478 -0.1238
   15POPC   C1B  670   6.491   1.612   8.065 -0.0942  0.2588  0.0385
   15POPC   C2B  671   6.456   1.412   7.689 -0.2598  0.1031  0.0496
   15POPC   C3B  672   6.144   1.408   7.382 -0.2802 -0.0662  0.0656
   15POPC   C4B  673   5.744   1.375   7.399  0.4299 -0.0894 -0.0882
   16POPC   NC3  674   6.095   2.427   8.546  0.0124  0.0553 -0.0101
   16POPC   PO4  675   5.819   2.639   8.629  0.1252 -0.2389 -0.1192
   16POPC   GL1  676   5.782   2.751   8.283 -0.2609  0.0511  0.0213
   16POPC   GL2  677   6.006   3.041   8.353  0.2346  0.2668  0.0149
   16POPC   C1A  678   5.424   3.022   8.065  0.1493  0.0873 -0.2304
   16POPC   D2A  679   5.085   2.848   7.835 -0.1250 -0.2056 -0.2652
   16POPC   C3A  680   4.951   2.448   7.631  0.3358 -0.2366  0.0829
   16POPC   C4A  681   4.615   2.372   7.420 -0.1649 -0.2065  0.0044
   16POPC   C1B  682   5.893   2.700   7.839 -0.5207 -0.2894  0.1864
   16POPC   C2B  683   5.529   2.807   7.602 -0.1350  0.0676  0.1916
   16POPC   C3B  684   5.200   2.819   7.333 -0.0631  0.0082  0.1838
   16POPC   C4B  685   5.203   2.822   6.787 -0.4090 -0.1385  0.0832
   17POPC   NC3  686   2.680   8.965   9.012 -0.4104 -0.2080 -0.0814
   17POPC   PO4  687   2.599   9.270   8.824 -0.0826 -0.0308 -0.4116
   17POPC   GL1  688   2.662   9.320   8.379 -0.0893 -0.1412 -0.3406
   17POPC   GL2  689   2.443   9.578   8.192 -0.0420 -0.0516  0.2281
   17POPC   C1A  690   2.827   9.270   8.005  0.0427 -0.0506 -0.0889
   17POPC   D2A  691   2.901   9.194   7.519 -0.0486  0.1077 -0.1880
   17POPC   C3A  692   2.893   9.526   7.265 -0.5215 -0.1804 -0.0420
   17POPC   C4A  693   2.790   9.939   7.164 -0.1268 -0.1886  0.3891
   17POPC   C1B  694   2.336   9.253   7.954 -0.2100  0.1521 -0.0375
   17POPC   C2B  695   2.418   9.095   7.633 -0.3381 -0.1271 -0.0551
   17POPC   C3B  696   2.508   9.096   7.190 -0.2409 -0.1939  0.1673
   17POPC   C4B  697   2.861   8.991   6.962 -0.2841 -0.0245 -0.2727
   18POPC   NC3  698   8.730   7.511   8.231  0.2423 -0.2106 -0.3106
   18POPC   PO4  699   9.062   7.475   8.158 -0.2649  0.0419 -0.0568
   18POPC   GL1  700   9.149   7.394   7.915 -0.2157 -0.0136 -0.2561
   18POPC   GL2  701   9.015   7.305   7.738 -0.1056 -0.3445 -0.3804
   18POPC   C1A  702   9.330   7.705   7.584  0.0462 -0.2570  0.1216
   18POPC   D2A  703   9.307   8.033   7.217  0.1064  0.2380 -0.0028
   18POPC   C3A  704   9.279   8.487   7.302  0.0453 -0.0407  0.4476
   18POPC   C4A  705   9.200   8.784   7.607  0.0973  0.4983  0.2779
   18POPC   C1B  706   9.159   7.172   7.320 -0.0777 -0.1002 -0.0559
   18POPC   C2B  707   9.462   6.916   7.023 -0.3592  0.3663 -0.0133
   18POPC   C3B  708   9.539   6.536   7.014 -0.3613 -0.1932 -0.0327
   18POPC   C4B  709   9.923   6.360   6.848 -0.2612  0.0062 -0.0686
   19POPC   NC3  710   3.249   1.265   8.823 -0.2208 -0.2233 -0.5744
   19POPC   PO4  711   3.555   1.558   8.690  0.1267 -0.1139 -0.2226
   19POPC   GL1  712   3.450   1.745   8.266 -0.2540  0.2457 -0.3813
   19POPC   GL2  713   3.704   2.052   8.281  0.1351 -0.2228  0.2103
   19POPC   C1A  714   3.541   1.783   7.867  0.0219  0.0044 -0.1750
   19POPC   D2A  715   3.503   1.480   7.380  0.0422  0.0086 -0.1749
   19POPC   C3A  716   3.823   1.510   7.013  0.2764 -0.0228 -0.0673
   19POPC   C4A  717   4.182   1.588   7.187 -0.0062 -0.1834  0.0590
   19POPC   C1B  718   3.893   2.121   7.823 -0.1949 -0.0075 -0.2983
   19POPC   C2B  719   4.002   1.954   7.468 -0.1032 -0.0524 -0.0801
   19POPC   C3B  720   4.041   2.111   7.102  0.1434  0.1888 -0.0441
   19POPC   C4B  721   4.070   2.456   6.993 -0.1476  0.1781  0.0862
   20POPC   NC3  722   7.159   4.753   9.055  0.0234  0.0988 -0.1989
   20POPC   PO4  723   7.195   4.556   8.615 -0.1170  0.1078 -0.1390
   20POPC   GL1  724   7.447   4.471   8.218  0.0847  0.2554  0.2797
   20POPC   GL2  725   7.304   4.238   8.086 -0.2253 -0.1540 -0.0025
   20POPC   C1A  726   7.809   4.604   7.982 -0.2907 -0.0578 -0.3307
   20POPC   D2A  727   8.251   4.766   7.856 -0.1896 -0.0323 -0.1157
   20POPC   C3A  728   8.274   5.231   7.912 -0.1147 -0.0183 -0.0639
   20POPC   C4A  729   7.966   5.518   7.739 -0.3883 -0.2094  0.1903
   20POPC   C1B  730   7.394   4.335   7.641 -0.0764 -0.0628  0.1011
   20POPC   C2B  731   7.269   4.472   7.242 -0.2449  0.0954  0.0000
   20POPC   C3B  732   7.438   4.738   6.893  0.0144  0.0772  0.3193
   20POPC   C4B  733   7.756   4.974   6.627  0.1496  0.0882 -0.1272
   21POPC   NC3  734   4.691   9.316   8.623 -0.0774 -0.1534 -0.1662
   21POPC   PO4  735   4.428   9.572   8.559 -0.2419 -0.0163  0.1041
   21POPC   GL1  736   4.393   9.426   8.178 -0.0370  0.2262 -0.0970
   21POPC   GL2  737   4.003   9.444   8.105 -0.1055 -0.0709  0.1656
   21POPC   C1A  738   4.353   9.523   7.777 -0.0054 -0.0404  0.2997
   21POPC   D2A  739   4.441   9.327   7.384  0.2203 -0.0888  0.0533
   21POPC   C3A  740   4.150   9.345   7.191 -0.2505  0.0696 -0.1868
   21POPC   C4A  741   3.808   9.096   7.009 -0.2583  0.1547 -0.3606
   21POPC   C1B  742   3.819   9.413   7.648 -0.0305 -0.0786  0.2975
   21POPC   C2B  743   3.710   9.591   7.175 -0.3439  0.1453  0.2255
   21POPC   C3B  744   3.631   9.592   6.669 -0.0210 -0.1802  0.2461
   21POPC   C4B  745   3.811   9.819   6.352 -0.1930  0.4727  0.0912
   22POPC   NC3  746   4.049   3.806   9.032  0.0326  0.0805  0.0058
   22POPC   PO4  747   4.421   3.682   8.838 -0.0930 -0.0758 -0.1913
   22POPC   GL1  748   4.394   3.702   8.424 -0.2190  0.3354  0.0399
   22POPC   GL2  749   4.622   3.769   8.137  0.0869  0.2265 -0.0369
   22POPC   C1A  750   4.133   3.607   8.114 -0.0318  0.1818 -0.0026
   22POPC   D2A  751   4.082   3.331   7.740  0.1289 -0.1028 -0.0453
   22POPC   C3A  752   4.054   3.378   7.272  0.0901 -0.2518 -0.4566
   22POPC   C4A  753   3.701   3.403   7.028  0.1594 -0.3346 -0.0073
   22POPC   C1B  754   4.430   3.790   7.692  0.1936  0.1756 -0.0390
   22POPC   C2B  755   4.415   4.013   7.358 -0.2364  0.2797  0.0442
   22POPC   C3B  756   4.299   4.438   7.181 -0.0402 -0.0709 -0.1029
   22POPC   C4B  757   4.359   4.747   6.923  0.0458  0.3575  0.1602
   23POPC   NC3  758   5.564  10.113   8.638 -0.0388 -0.2489  0.1306
   23POPC   PO4  759   5.215  10.020   8.375  0.1268  0.1093  0.1784
   23POPC   GL1  760   5.076  10.038   7.970  0.3796 -0.2252  0.0985
   23POPC   GL2  761   4.924  10.313   7.796  0.0352  0.1007 -0.0666
   23POPC   C1A  762   5.226   9.868   7.620 -0.2076  0.2983 -0.1416
   23POPC   D2A  763   5.337   9.409   7.440  0.0921  0.0208  0.1402
   23POPC   C3A  764   5.607   9.293   7.731 -0.1857 -0.0882 -0.0170
   23POPC   C4A  765   5.920   9.373   8.056 -0.0919  0.0411  0.1159
   23POPC   C1B  766   4.852  10.753   7.689  0.4420 -0.2788  0.4850
   23POPC   C2B  767   4.616  11.053   7.471  0.4266 -0.1078  0.2599
   23POPC   C3B  768   4.442  11.306   7.127  0.0966  0.2641  0.2424
   23POPC   C4B  769   4.402  11.468   6.657  0.0880  0.0454  0.2378
   24POPC   NC3  770   2.719   0.948   8.909  0.1223 -0.0967 -0.4034
   24POPC   PO4  771   2.496   0.716   8.656  0.0646  0.3906 -0.1488
   24POPC   GL1  772   2.468   0.750   8.232  0.0417 -0.1871  0.3965
   24POPC   GL2  773   2.325   1.007   8.054 -0.0581  0.0894  0.0782
   24POPC   C1A  774   2.390   0.589   7.770  0.3393  0.0004  0.1308
   24POPC   D2A  775   2.161   0.438   7.502 -0.0905 -0.0887 -0.1928
   24POPC   C3A  776   1.834   0.470   7.278  0.1822 -0.1854 -0.0113
   24POPC   C4A  777   1.502   0.631   6.911 -0.3545  0.1697 -0.1680
   24POPC   C1B  778   2.053   0.939   7.610  0.1096  0.1493  0.1897
   24POPC   C2B  779   1.976   1.018   7.106 -0.0543  0.2580 -0.2513
   24POPC   C3B  780   1.785   1.059   6.737 -0.0491 -0.2309  0.0356
   24POPC   C4B  781   1.398   1.117   6.612 -0.0037 -0.3688 -0.2488
   25POPC   NC3  782   6.343   5.100   8.678 -0.0890  0.1351  0.0675
   25POPC   PO4  783   6.223   5.293   8.344  0.3232 -0.0683 -0.1661
   25POPC   GL1  784   5.980   5.247   7.992 -0.1799  0.0383 -0.1618
   25POPC   GL2  785   5.938   5.594   7.830  0.1405  0.1921 -0.0311
   25POPC   C1A  786   5.938   5.149   7.574 -0.0809 -0.0487  0.2025
   25POPC   D2A  787   5.663   5.135   7.254 -0.1465 -0.0868  0.1138
   25POPC   C3A  788   5.809   5.226   6.844  0.2245 -0.3078 -0.2128
   25POPC   C4A  789   5.743   4.978   6.517 -0.0563 -0.2219 -0.0611
   25POPC   C1B  790   5.790   5.854   7.588  0.1290 -0.1288  0.2733
   25POPC   C2B  791   5.382   6.067   7.470  0.3893  0.0006 -0.1933
   25POPC   C3B  792   5.225   6.031   7.080  0.1808  0.1866 -0.2239
   25POPC   C4B  793   5.121   6.103   6.618 -0.1844  0.3118 -0.2161
   26POPC   NC3  794   2.427  10.112   9.017 -0.2666  0.0513 -0.0820
   26POPC   PO4  795   2.548   9.765   8.675  0.1776 -0.1606 -0.3062
   26POPC   GL1  796   2.699  10.026   8.411  0.0928  0.2827  0.2246
   26POPC   GL2  797   2.904  10.351   8.503  0.1731 -0.4211 -0.2205
   26POPC   C1A  798   2.794  10.224   8.037  0.0808 -0.1093  0.1263
   26POPC   D2A  799   2.792  10.357   7.605 -0.0611 -0.1499  0.2902
   26POPC   C3A  800   2.511  10.361   7.205  0.2509 -0.2271 -0.0166
   26POPC   C4A  801   2.280  10.585   6.880 -0.1240  0.4074  0.3783
   26POPC   C1B  802   3.173  10.561   8.275  0.0028  0.2741  0.2580
   26POPC   C2B  803   3.120  10.675   7.880  0.0775 -0.1606 -0.0409
   26POPC   C3B  804   3.208  10.518   7.495 -0.2520  0.0819  0.0329
   26POPC   C4B  805   3.542  10.287   7.244  0.1078  0.0221  0.5305
   27POPC   NC3  806   5.499   6.559   8.599 -0.2887  0.2379 -0.3278
   27POPC   PO4  807   5.234   6.344   8.783  0.0881 -0.2214 -0.3157
   27POPC   GL1  808   5.006   6.446   8.368  0.0147 -0.0901 -0.1028
   27POPC   GL2  809   5.267   6.438   8.229  0.0182  0.0960 -0.1693
   27POPC   C1A  810   4.931   6.373   7.889  0.0354  0.0799  0.0108
   27POPC   D2A  811   4.961   6.794   7.754 -0.2269  0.1242  0.0330
   27POPC   C3A  812   4.896   7.240   7.932  0.0597  0.0338  0.0239
   27POPC   C4A  813   5.189   7.445   8.100  0.0048  0.1109 -0.1179
   27POPC   C1B  814   5.388   6.502   7.765 -0.0923 -0.0972  0.3159
   27POPC   C2B  815   5.244   6.605   7.343  0.1623  0.1532 -0.3196
   27POPC   C3B  816   4.954   6.331   7.321  0.1936  0.0600 -0.1908
   27POPC   C4B  817   4.644   6.125   7.465 -0.0113 -0.1915 -0.2480
   28POPC   NC3  818   3.762   7.777   9.503  0.2715 -0.2207  0.1308
   28POPC   PO4  819   3.771   8.045   9.219 -0.0786  0.1187 -0.1027
   28POPC   GL1  820   3.736   7.863   8.799  0.1452  0.0711 -0.1390
   28POPC   GL2  821   3.999   7.633   8.672 -0.1006 -0.0779  0.0707
   28POPC   C1A  822   3.568   8.032   8.369 -0.1804  0.3471 -0.3415
   28POPC   D2A  823   3.510   7.801   7.976  0.0125  0.1890 -0.0789
   28POPC   C3A  824   3.769   7.377   7.861  0.1067  0.2885 -0.1189
   28POPC   C4A  825   3.733   7.030   7.550  0.0418  0.0451  0.1127
   28POPC   C1B  826   3.997   7.661   8.189 -0.1994  0.0189 -0.1884
   28POPC   C2B  827   4.166   7.540   7.779 -0.0807  0.1111 -0.2266
   28POPC   C3B  828   4.114   7.394   7.351  0.1707 -0.3956  0.0918
   28POPC   C4B  829   4.287   7.529   6.945 -0.2112  0.1506  0.1493
   29POPC   NC3  830  10.011   6.949   9.513  0.2778 -0.0140  0.1408
   29POPC   PO4  831  10.184   6.981   9.126 -0.1285  0.4484  0.0368
   29POPC   GL1  832  10.500   7.169   8.736  0.1484  0.1523 -0.0677
   29POPC   GL2  833  10.550   6.986   8.481 -0.0700  0.1490  0.0985
   29POPC   C1A  834  10.532   7.428   8.279  0.0128  0.1329  0.1037
   29POPC   D2A  835  10.495   7.283   7.833 -0.3361 -0.0021  0.0735
   29POPC   C3A  836  10.721   6.928   7.877 -0.0622 -0.2011 -0.0528
   29POPC   C4A  837  11.061   6.880   7.656  0.1660 -0.0541 -0.1557
   29POPC   C1B  838  10.632   6.642   8.220 -0.0695  0.3709 -0.2777
   29POPC   C2B  839  10.837   6.426   7.947 -0.0488  0.2750 -0.1321
   29POPC   C3B  840  10.922   6.437   7.565  0.3692  0.1183  0.1355
   29POPC   C4B  841  10.975   6.600   7.191  0.0709  0.1300 -0.3482
   30POPC   NC3  842   2.189   6.627  10.174  0.1696 -0.1938 -0.3344
   30POPC   PO4  843   1.843   6.801   9.961 -0.0573 -0.1698 -0.1232
   30POPC   GL1  844   1.632   6.819   9.595  0.1786  0.0812 -0.3215
   30POPC   GL2  845   1.405   6.618   9.532  0.0071 -0.0023 -0.0160
   30POPC   C1A  846   1.682   6.938   9.152 -0.0650 -0.1767  0.2127
   30POPC   D2A  847   1.986   6.741   8.801 -0.1391  0.2086 -0.2053
   30POPC   C3A  848   1.926   6.897   8.387 -0.0455 -0.2248 -0.0255
   30POPC   C4A  849   2.076   6.971   7.948 -0.1003 -0.1049  0.0641
   30POPC   C1B  850   1.539   6.439   9.108 -0.3405  0.0904  0.0295
   30POPC   C2B  851   1.506   6.221   8.798 -0.1048 -0.2984  0.0932
   30POPC   C3B  852   1.560   5.823   8.575 -0.1860  0.2032  0.2106
   30POPC   C4B  853   1.728   5.660   8.136 -0.0132  0.1360  0.0134
   31POPC   NC3  854   9.101   8.946   8.246  0.2351 -0.2122 -0.1589
   31POPC   PO4  855   9.369   9.258   8.421 -0.1257  0.1858 -0.1018
   31POPC   GL1  856   9.476   9.257   7.962  0.0265 -0.0946 -0.2582
   31POPC   GL2  857   9.477   9.033   7.859 -0.2127 -0.2350 -0.1227
   31POPC   C1A  858   9.236   9.208   7.501 -0.0696 -0.0273 -0.0486
   31POPC   D2A  859   9.351   9.249   7.024 -0.0437  0.1604  0.1877
   31POPC   C3A  860   9.005   9.119   6.687  0.1266 -0.0403  0.0900
   31POPC   C4A  861   8.623   9.003   6.527 -0.0301  0.1641  0.1234
   31POPC   C1B  862   9.657   8.846   7.451 -0.1309  0.0369 -0.1504
   31POPC   C2B  863   9.762   8.684   7.024 -0.2283  0.2088  0.1070
   31POPC   C3B  864   9.764   8.253   6.962  0.0458  0.1809  0.1677
   31POPC   C4B  865   9.761   7.835   6.638 -0.3780  0.0698 -0.3562
   32POPC   NC3  866   9.631   6.157   8.954 -0.1300 -0.3106  0.2438
   32POPC   PO4  867   9.248   5.942   8.848  0.0310  0.0522  0.1283
   32POPC   GL1  868   9.402   6.036   8.524  0.0620  0.3257  0.0962
   32POPC   GL2  869   9.593   5.973   8.239 -0.0956  0.1047 -0.0256
   32POPC   C1A  870   9.326   6.371   8.127 -0.2791 -0.3249 -0.0873
   32POPC   D2A  871   9.535   6.327   7.782 -0.0252 -0.0320  0.1328
   32POPC   C3A  872   9.765   6.476   7.466  0.1540  0.0147 -0.0665
   32POPC   C4A  873  10.011   6.692   7.194 -0.0757 -0.0514 -0.1143
   32POPC   C1B  874   9.513   5.800   7.807 -0.2849  0.2593  0.0210
   32POPC   C2B  875   9.720   5.515   7.486  0.0062 -0.0464  0.2338
   32POPC   C3B  876   9.702   5.263   7.219 -0.0088  0.2112 -0.3225
   32POPC   C4B  877   9.499   5.066   6.850 -0.1077  0.0311 -0.0247
   33POPC   NC3  878   8.633   4.118   8.509  0.0111  0.0578  0.2098
   33POPC   PO4  879   8.589   4.548   8.447 -0.0027  0.2252  0.1644
   33POPC   GL1  880   8.646   4.441   7.983 -0.0388 -0.2007 -0.2492
   33POPC   GL2  881   8.771   4.156   8.033 -0.1156  0.5038  0.1845
   33POPC   C1A  882   8.438   4.330   7.659  0.0482 -0.0885 -0.2062
   33POPC   D2A  883   8.261   4.619   7.326  0.0158 -0.4099 -0.1370
   33POPC   C3A  884   7.903   4.863   7.113 -0.0276 -0.1021 -0.2697
   33POPC   C4A  885   7.611   5.189   7.035  0.3431  0.0715 -0.0146
   33POPC   C1B  886   8.909   4.247   7.603  0.0986  0.4027 -0.2964
   33POPC   C2B  887   8.957   4.519   7.111 -0.1496  0.1799  0.1962
   33POPC   C3B  888   9.075   4.809   6.774  0.0508  0.0202 -0.1041
   33POPC   C4B  889   8.994   5.231   6.707  0.0307 -0.3665 -0.0730
   34POPC   NC3  890   8.386   2.859   8.697 -0.1526  0.2834  0.0736
   34POPC   PO4  891   8.825   2.748   8.832 -0.1175 -0.2869  0.2789
   34POPC   GL1  892   8.743   2.692   8.368  0.0388 -0.4627 -0.2146
   34POPC   GL2  893   8.665   2.407   8.227  0.1254 -0.3276 -0.1643
   34POPC   C1A  894   8.986   2.754   8.014  0.4069 -0.1601 -0.3205
   34POPC   D2A  895   9.208   2.559   7.706  0.2707 -0.0294 -0.2400
   34POPC   C3A  896   9.202   2.102   7.750  0.3684  0.2998  0.2184
   34POPC   C4A  897   9.557   1.777   7.486 -0.0977 -0.2962 -0.2491
   34POPC   C1B  898   8.733   2.360   7.828 -0.0107 -0.3169  0.1568
   34POPC   C2B  899   8.788   2.528   7.346 -0.4082  0.2216 -0.0280
   34POPC   C3B  900   9.019   2.882   7.274 -0.0020 -0.3973  0.1931
   34POPC   C4B  901   9.002   3.302   7.126 -0.4121 -0.0196  0.2958
   35POPC   NC3  902   4.159   8.307   8.871 -0.2143  0.0914 -0.4004
   35POPC   PO4  903   4.072   8.665   8.576  0.4528 -0.1762 -0.0621
   35POPC   GL1  904   4.043   8.325   8.348 -0.0229  0.0448  0.1512
   35POPC   GL2  905   4.057   8.130   8.472 -0.0527  0.1223 -0.1874
   35POPC   C1A  906   3.907   8.224   7.934  0.1376  0.2981 -0.0462
   35POPC   D2A  907   3.773   8.004   7.543 -0.0938  0.1531  0.2547
   35POPC   C3A  908   3.714   7.641   7.407  0.0219 -0.2729 -0.0806
   35POPC   C4A  909   3.748   7.336   7.029 -0.1920  0.2079 -0.0057
   35POPC   C1B  910   4.337   7.989   8.110  0.1082 -0.0872 -0.4178
   35POPC   C2B  911   4.345   8.038   7.727  0.2613  0.1559 -0.0379
   35POPC   C3B  912   4.518   8.301   7.307 -0.1255  0.0041 -0.1559
   35POPC   C4B  913   4.474   8.358   6.967 -0.0563 -0.1611  0.1913
   36POPC   NC3  914  10.009   5.815   9.213  0.0455 -0.1213 -0.1272
   36POPC   PO4  915  10.101   6.253   9.134  0.0976  0.1372 -0.1620
   36POPC   GL1  916  10.436   6.165   8.849  0.0272  0.3582 -0.0326
   36POPC   GL2  917  10.705   6.409   8.662  0.0682  0.0329 -0.1279
   36POPC   C1A  918  10.707   5.866   8.664 -0.1705  0.1636  0.2268
   36POPC   D2A  919  10.577   5.558   8.364 -0.1558 -0.3034 -0.4346
   36POPC   C3A  920  10.658   5.466   7.871 -0.1864  0.1698 -0.1188
   36POPC   C4A  921  10.668   5.632   7.395 -0.2153 -0.0070 -0.2607
   36POPC   C1B  922  10.527   6.135   8.257 -0.0719 -0.1906 -0.0951
   36POPC   C2B  923  10.547   5.971   7.900 -0.0112 -0.3325 -0.0086
   36POPC   C3B  924  10.905   5.885   7.746 -0.0831 -0.0742 -0.0316
   36POPC   C4B  925  11.089   5.574   7.574 -0.0194  0.2383 -0.2031
   37POPC   NC3  926   2.627   1.967   8.973 -0.0426 -0.1987 -0.3369
   37POPC   PO4  927   2.417   1.678   8.664 -0.0373  0.2340  0.0102
   37POPC   GL1  928   2.784   1.705   8.386 -0.1352 -0.3868  0.1304
   37POPC   GL2  929   3.057   1.505   8.378  0.2863 -0.0165  0.0826
   37POPC   C1A  930   3.062   1.830   7.990 -0.0149  0.1394  0.2274
   37POPC   D2A  931   3.103   1.612   7.651  0.1451  0.0219 -0.4083
   37POPC   C3A  932   3.070   1.656   7.192 -0.1631  0.0100 -0.0305
   37POPC   C4A  933   2.869   1.484   6.927  0.1139  0.2066 -0.0602
   37POPC   C1B  934   3.382   1.346   8.069  0.0603  0.0083  0.0562
   37POPC   C2B  935   3.665   1.203   7.807 -0.0788  0.0694  0.3225
   37POPC   C3B  936   3.979   1.286   7.541  0.0695 -0.1445 -0.3594
   37POPC   C4B  937   4.401   1.081   7.538  0.0472 -0.2569  0.1560
   38POPC   NC3  938   9.786   5.298   9.683 -0.1869 -0.0782 -0.3315
   38POPC   PO4  939  10.174   5.465   9.599  0.2084  0.1993  0.5707
   38POPC   GL1  940  10.418   5.502   9.283  0.3031 -0.2736 -0.1626
   38POPC   GL2  941  10.469   5.882   9.239  0.2590 -0.0366  0.0023
   38POPC   C1A  942  10.736   5.319   8.894  0.0146 -0.1626  0.1311
   38POPC   D2A  943  10.950   5.160   8.588 -0.0083  0.0573  0.1107
   38POPC   C3A  944  10.774   5.089   8.226 -0.3382  0.0763  0.0535
   38POPC   C4A  945  11.028   5.118   7.839  0.0709  0.1412 -0.3319
   38POPC   C1B  946  10.959   5.862   9.086 -0.0023 -0.1419  0.2562
   38POPC   C2B  947  11.198   5.608   8.787  0.1392 -0.0011  0.1973
   38POPC   C3B  948  11.552   5.682   8.484 -0.0086  0.0570 -0.4547
   38POPC   C4B  949  11.771   5.504   8.269  0.1349 -0.1813 -0.1628
   39POPC   NC3  950   1.353   1.207   9.178 -0.0173  0.3079  0.0099
   39POPC   PO4  951   1.251   0.792   8.941  0.0441 -0.1219  0.0325
   39POPC   GL1  952   1.441   0.682   8.486  0.6191  0.1691  0.0893
   39POPC   GL2  953   1.421   0.978   8.316 -0.1727  0.1833  0.0646
   39POPC   C1A  954   1.431   0.444   8.173 -0.1159  0.1041  0.1162
   39POPC   D2A  955   1.462   0.269   7.820 -0.0311 -0.0838 -0.0345
   39POPC   C3A  956   1.498   0.098   7.334  0.1942  0.1164 -0.0802
   39POPC   C4A  957   1.645   0.136   6.877  0.0358 -0.1352 -0.2509
   39POPC   C1B  958   1.309   1.118   7.884 -0.3405 -0.1272  0.3256
   39POPC   C2B  959   1.070   1.111   7.477  0.1362  0.0876 -0.1891
   39POPC   C3B  960   0.829   1.128   7.026  0.0665 -0.3409  0.3540
   39POPC   C4B  961   0.668   1.333   6.669  0.2696  0.0748  0.0694
   40POPC   NC3  962   8.688   9.985   8.636 -0.1076  0.0401  0.0811
   40POPC   PO4  963   8.314  10.097   8.774 -0.3908  0.3193 -0.1686
   40POPC   GL1  964   7.998  10.279   8.399  0.2939  0.1738  0.1900
   40POPC   GL2  965   7.711  10.376   8.486 -0.1637 -0.2937 -0.4540
   40POPC   C1A  966   7.866  10.300   7.926  0.2201  0.1841  0.1180
   40POPC   D2A  967   7.713  10.070   7.581 -0.0190 -0.3509  0.1506
   40POPC   C3A  968   7.386   9.737   7.569  0.0222  0.0364 -0.0771
   40POPC   C4A  969   7.115   9.424   7.305  0.1196  0.1401 -0.2121
   40POPC   C1B  970   7.452  10.453   8.131  0.2440  0.1924 -0.0688
   40POPC   C2B  971   7.118  10.755   7.881 -0.2432  0.0156  0.1104
   40POPC   C3B  972   6.995  10.774   7.404  0.0716 -0.0289  0.0544
   40POPC   C4B  973   7.003  10.802   7.014  0.0148 -0.3283  0.1255
   41POPC   NC3  974   5.169   1.138   8.830  0.2472  0.3930 -0.0995
   41POPC   PO4  975   5.330   0.728   8.628  0.1370 -0.1563  0.1606
   41POPC   GL1  976   5.306   0.427   8.180  0.1212 -0.4310 -0.1089
   41POPC   GL2  977   5.652   0.409   7.995 -0.2030  0.0661  0.0182
   41POPC   C1A  978   5.210   0.581   7.787 -0.1315  0.1826 -0.1583
   41POPC   D2A  979   5.107   0.682   7.451 -0.1694 -0.0609  0.0780
   41POPC   C3A  980   4.875   1.010   7.266 -0.3835 -0.4610  0.0489
   41POPC   C4A  981   4.624   1.328   6.889  0.0255  0.1626 -0.2230
   41POPC   C1B  982   5.819   0.740   7.975 -0.0948  0.3965  0.3975
   41POPC   C2B  983   5.969   0.953   7.601  0.1484  0.1632 -0.2819
   41POPC   C3B  984   5.910   0.922   7.141 -0.2341 -0.0059  0.5330
   41POPC   C4B  985   5.828   1.258   6.810 -0.1181  0.2723  0.1291
   42POPC   NC3  986   1.277   2.332   9.033  0.0027 -0.3202 -0.1702
   42POPC   PO4  987   1.203   1.956   8.735 -0.1704  0.0317 -0.1755
   42POPC   GL1  988   1.260   2.176   8.362  0.1975 -0.1429 -0.3073
   42POPC   GL2  989   1.531   1.967   8.198 -0.0863 -0.1063 -0.0644
   42POPC   C1A  990   1.167   2.168   8.036  0.1730 -0.1200 -0.0765
   42POPC   D2A  991   1.375   2.234   7.583 -0.4646 -0.2892  0.2498
   42POPC   C3A  992   1.214   2.568   7.261  0.1364 -0.1481  0.1039
   42POPC   C4A  993   0.880   2.473   7.099  0.0325  0.0606  0.4196
   42POPC   C1B  994   1.332   1.747   7.809 -0.1548  0.0856 -0.0394
   42POPC   C2B  995   1.219   1.641   7.415  0.1161  0.0215  0.1647
   42POPC   C3B  996   1.160   1.538   6.965 -0.3532 -0.0201 -0.1237
   42POPC   C4B  997   1.159   1.540   6.572  0.2277 -0.4945  0.0402
   43POPC   NC3  998  10.241   0.325   8.565  0.2254  0.0492 -0.0741
   43POPC   PO4  999  10.698   0.539   8.617 -0.1657 -0.3658  0.1473
   43POPC   GL1 1000  10.611   0.483   8.160  0.4071 -0.0910  0.2119
   43POPC   GL2 1001  10.640   0.688   8.082  0.0412  0.0606 -0.3116
   43POPC   C1A 1002  10.232   0.546   7.883 -0.1123  0.2104  0.2082
   43POPC   D2A 1003   9.825   0.716   7.745  0.2846 -0.0894  0.5025
   43POPC   C3A 1004   9.744   0.862   7.240 -0.3100  0.2109 -0.4703
   43POPC   C4A 1005   9.534   0.935   6.896  0.0456  0.1291  0.0999
   43POPC   C1B 1006  10.630   0.850   7.833  0.0141  0.1022  0.3723
   43POPC   C2B 1007  10.639   0.783   7.344 -0.2044  0.0789  0.2337
   43POPC   C3B 1008  10.547   0.535   7.001  0.1417 -0.3774  0.1714
   43POPC   C4B 1009  10.460   0.489   6.604 -0.1105  0.0913  0.2787
   44POPC   NC3 1010   5.888   9.681   9.231  0.0855  0.3330 -0.2841
   44POPC   PO4 1011   5.795   9.521   8.881  0.0323 -0.1183 -0.1590
   44POPC   GL1 1012   5.798   9.706   8.436  0.0369 -0.3040  0.1671
   44POPC   GL2 1013   6.003   9.986   8.358  0.3029 -0.0567 -0.1627
   44POPC   C1A 1014   5.678   9.812   7.967  0.2325 -0.0967 -0.1992
   44POPC   D2A 1015   5.725   9.818   7.520 -0.1643  0.1400  0.4722
   44POPC   C3A 1016   5.779   9.501   7.174  0.2388 -0.0896  0.2170
   44POPC   C4A 1017   5.851   9.100   7.163 -0.2055  0.0925  0.2221
   44POPC   C1B 1018   6.141   9.902   7.900 -0.0806 -0.1696 -0.0043
   44POPC   C2B 1019   6.516   9.914   7.646  0.0386 -0.1419  0.1387
   44POPC   C3B 1020   6.778   9.925   7.276  0.1017 -0.1868 -0.0423
   44POPC   C4B 1021   6.988   9.877   6.884  0.2222  0.2932  0.1527
   45POPC   NC3 1022   8.793   6.003   9.011 -0.2837  0.2703  0.1917
   45POPC   PO4 1023   8.800   6.233   8.729  0.1831 -0.5163  0.3322
   45POPC   GL1 1024   8.661   6.007   8.335 -0.1819  0.0993  0.1062
   45POPC   GL2 1025   8.863   6.100   8.025  0.1812 -0.2826  0.0142
   45POPC   C1A 1026   8.527   5.753   7.966  0.3237 -0.1810 -0.1602
   45POPC   D2A 1027   8.568   5.794   7.454  0.0275  0.2450 -0.1002
   45POPC   C3A 1028   8.207   5.895   7.358  0.2771  0.3636  0.0399
   45POPC   C4A 1029   7.770   6.039   7.338  0.3742  0.0103 -0.3073
   45POPC   C1B 1030   8.970   6.466   7.765 -0.2054 -0.1858  0.2047
   45POPC   C2B 1031   9.014   6.665   7.231 -0.0317 -0.1508  0.4276
   45POPC   C3B 1032   8.967   6.588   6.912 -0.0615 -0.1581  0.1554
   45POPC   C4B 1033   8.552   6.481   6.913 -0.0466  0.0969  0.0194
   46POPC   NC3 1034   9.931   2.907   8.985 -0.1274 -0.3294  0.0773
   46POPC   PO4 1035   9.734   2.838   8.633  0.1149  0.0920 -0.1846
   46POPC   GL1 1036   9.706   2.873   8.294 -0.3411  0.3396 -0.0684
   46POPC   GL2 1037   9.753   3.230   8.141 -0.3113 -0.0010  0.1069
   46POPC   C1A 1038   9.454   2.928   7.921 -0.1067  0.2892  0.1598
   46POPC   D2A 1039   9.518   2.837   7.470 -0.0918  0.3684 -0.0357
   46POPC   C3A 1040   9.521   2.647   7.110  0.0442  0.0250 -0.3111
   46POPC   C4A 1041   9.583   2.538   6.686  0.0865  0.2482 -0.2257
   46POPC   C1B 1042   9.522   3.570   7.853 -0.0963  0.1846 -0.1304
   46POPC   C2B 1043   9.226   3.758   7.552  0.0738 -0.0188 -0.0377
   46POPC   C3B 1044   9.349   4.189   7.299  0.0365 -0.2106 -0.1396
   46POPC   C4B 1045   9.495   4.584   7.064 -0.0120  0.2170  0.1204
   47POPC   NC3 1046   6.534  10.486   9.158  0.0558  0.2818 -0.0410
   47POPC   PO4 1047   6.487  10.405   8.731 -0.0202  0.1750 -0.2443
   47POPC   GL1 1048   6.324  10.443   8.322  0.0178  0.1019 -0.2517
   47POPC   GL2 1049   6.448  10.219   8.187  0.2667  0.0750  0.1113
   47POPC   C1A 1050   6.165  10.456   7.851 -0.2536  0.0157 -0.0684
   47POPC   D2A 1051   5.961  10.735   7.541  0.0712  0.2876  0.3619
   47POPC   C3A 1052   5.973  10.530   7.138  0.1554  0.0063 -0.1315
   47POPC   C4A 1053   5.764  10.402   6.801  0.1345  0.1766  0.1312
   47POPC   C1B 1054   6.708  10.363   7.833 -0.0901  0.2120 -0.1240
   47POPC   C2B 1055   6.656  10.466   7.377  0.2762  0.0423 -0.0823
   47POPC   C3B 1056   6.517  10.691   7.100 -0.1210  0.3716 -0.3094
   47POPC   C4B 1057   6.522  10.658   6.696 -0.2419  0.2675 -0.0893
   48POPC   NC3 1058   8.975   9.217   8.789  0.0580  0.2266 -0.0041
   48POPC   PO4 1059   8.779   9.293   8.511  0.0271  0.0131  0.0381
   48POPC   GL1 1060   8.987   9.454   8.166 -0.0691  0.1736 -0.0821
   48POPC   GL2 1061   8.861   9.814   8.199  0.0752  0.0616 -0.0570
   48POPC   C1A 1062   9.023   9.546   7.820  0.2224 -0.2691 -0.2410
   48POPC   D2A 1063   9.025   9.712   7.398  0.2674 -0.0977  0.1239
   48POPC   C3A 1064   8.993   9.649   7.021 -0.1599  0.1835  0.2267
   48POPC   C4A 1065   8.821   9.797   6.626 -0.1004 -0.2417  0.0746
   48POPC   C1B 1066   8.792   9.974   7.794 -0.3101 -0.2146 -0.0780
   48POPC   C2B 1067   8.739  10.320   7.446 -0.4262 -0.2260 -0.0228
   48POPC   C3B 1068   8.727  10.157   7.076 -0.1002  0.0204 -0.0965
   48POPC   C4B 1069   8.691  10.334   6.658 -0.1357  0.1177  0.0899
   49POPC   NC3 1070   9.512   8.160   8.446 -0.0500 -0.1508 -0.4814
   49POPC   PO4 1071   9.770   8.296   8.821  0.3975  0.2539  0.1921
   49POPC   GL1 1072   9.997   8.050   8.401 -0.0677  0.0506  0.1029
   49POPC   GL2 1073  10.389   7.935   8.443  0.2352 -0.1743 -0.1870
   49POPC   C1A 1074  10.043   7.956   8.014  0.1371 -0.2278  0.0030
   49POPC   D2A 1075  10.339   7.925   7.599 -0.2476  0.3910 -0.0694
   49POPC   C3A 1076  10.313   7.550   7.425  0.0945  0.1182  0.0433
   49POPC   C4A 1077  10.663   7.528   7.186  0.1377 -0.3161 -0.3701
   49POPC   C1B 1078  10.507   7.910   8.093  0.0468  0.1618  0.1547
   49POPC   C2B 1079  10.894   7.818   7.781  0.1754  0.0431  0.1989
   49POPC   C3B 1080  10.781   7.988   7.397  0.3290  0.1043 -0.1314
   49POPC   C4B 1081  10.569   8.214   7.046  0.1892 -0.2508 -0.0592
   50POPC   NC3 1082   8.904   5.108   8.899 -0.3480 -0.0398  0.1805
   50POPC   PO4 1083   8.842   5.096   8.489 -0.0618  0.2224 -0.0805
   50POPC   GL1 1084   8.734   5.051   8.076  0.1520  0.2828  0.0082
   50POPC   GL2 1085   8.856   5.405   7.991  0.0682 -0.2382  0.2237
   50POPC   C1A 1086   8.919   4.853   7.756  0.3484  0.1161  0.0605
   50POPC   D2A 1087   8.672   4.871   7.456 -0.2703  0.1095  0.1476
   50POPC   C3A 1088   8.309   5.132   7.445  0.0913 -0.2817  0.1192
   50POPC   C4A 1089   8.118   5.332   7.188 -0.2597  0.0771  0.0983
   50POPC   C1B 1090   8.913   5.331   7.497  0.0214 -0.1301 -0.1185
   50POPC   C2B 1091   9.227   5.563   7.264 -0.2517 -0.1932  0.1426
   50POPC   C3B 1092   9.369   5.647   6.780 -0.2337  0.1405 -0.0073
   50POPC   C4B 1093   9.478   5.335   6.431  0.0969  0.0151  0.2179
   51POPC   NC3 1094   0.987  10.489   9.051  0.3401 -0.3522  0.0682
   51POPC   PO4 1095   0.807  10.380   8.639 -0.2291 -0.0128 -0.1099
   51POPC   GL1 1096   0.762  10.433   8.235  0.3744 -0.1941  0.0400
   51POPC   GL2 1097   0.848  10.150   8.035 -0.0020  0.1536  0.0847
   51POPC   C1A 1098   0.900  10.676   7.913  0.1279  0.2972 -0.1454
   51POPC   D2A 1099   0.991  10.744   7.546  0.1518  0.3570  0.0563
   51POPC   C3A 1100   0.755  10.570   7.237 -0.1578  0.2440  0.0864
   51POPC   C4A 1101   0.481  10.207   7.113  0.1200 -0.2129  0.0068
   51POPC   C1B 1102   0.402  10.141   7.827 -0.1505  0.1413 -0.0983
   51POPC   C2B 1103   0.154   9.948   7.474  0.0095  0.0329 -0.1010
   51POPC   C3B 1104  -0.018  10.139   7.082 -0.0200  0.1239  0.2195
   51POPC   C4B 1105   0.018  10.553   7.022 -0.0412  0.1629  0.4368
   52POPC   NC3 1106   9.521   3.983   8.795 -0.1408 -0.0369  0.1186
   52POPC   PO4 1107   9.075   3.791   8.704 -0.0174  0.1003 -0.2208
   52POPC   GL1 1108   9.032   3.720   8.329 -0.0186  0.0047  0.2299
   52POPC   GL2 1109   9.171   3.401   8.160  0.1131  0.1812 -0.0718
   52POPC   C1A 1110   9.234   4.037   8.016 -0.1602 -0.1596  0.0626
   52POPC   D2A 1111   9.344   4.464   7.802 -0.1618 -0.0399  0.0693
   52POPC   C3A 1112   9.771   4.526   7.615 -0.5617  0.1410  0.1828
   52POPC   C4A 1113  10.055   4.285   7.333  0.2750  0.1523 -0.1510
   52POPC   C1B 1114   9.137   3.196   7.639 -0.0813  0.4444  0.3428
   52POPC   C2B 1115   8.685   3.130   7.605  0.1565  0.2424  0.2436
   52POPC   C3B 1116   8.524   3.397   7.291 -0.0811 -0.0208  0.1005
   52POPC   C4B 1117   8.213   3.464   7.096  0.0942  0.1747  0.2528
   53POPC   NC3 1118   9.938   3.320   8.605 -0.2123  0.1836 -0.3405
   53POPC   PO4 1119   9.946   3.744   8.734  0.0821  0.3015  0.1708
   53POPC   GL1 1120  10.198   4.001   8.573 -0.0115  0.2375 -0.4091
   53POPC   GL2 1121  10.593   4.077   8.644  0.0552 -0.0019  0.1751
   53POPC   C1A 1122  10.439   4.017   8.163 -0.0470 -0.2150 -0.2181
   53POPC   D2A 1123  10.819   4.096   7.933 -0.1706 -0.1398 -0.1977
   53POPC   C3A 1124  11.105   4.134   7.537  0.1560 -0.1834  0.1198
   53POPC   C4A 1125  11.478   4.146   7.267 -0.1624 -0.2358  0.0518
   53POPC   C1B 1126  10.589   3.650   8.442  0.2516  0.1337 -0.1897
   53POPC   C2B 1127  10.624   3.628   7.924 -0.2403  0.2728  0.2125
   53POPC   C3B 1128  11.060   3.636   7.713 -0.1414  0.3957 -0.2052
   53POPC   C4B 1129  11.235   3.713   7.301  0.1349  0.0841  0.2521
   54POPC   NC3 1130   5.881   4.227   8.660  0.1730 -0.0354  0.5833
   54POPC   PO4 1131   5.884   3.782   8.622 -0.2964  0.0247  0.1517
   54POPC   GL1 1132   5.916   3.873   8.250  0.2288  0.1456  0.0447
   54POPC   GL2 1133   5.765   4.122   8.146  0.0931 -0.2237  0.0241
   54POPC   C1A 1134   6.001   3.767   7.713 -0.0099  0.2103 -0.0978
   54POPC   D2A 1135   5.886   3.585   7.274  0.2940  0.0737 -0.0555
   54POPC   C3A 1136   6.011   3.938   6.980 -0.0319  0.2110  0.3612
   54POPC   C4A 1137   6.055   4.367   6.811  0.0712  0.0916  0.0577
   54POPC   C1B 1138   6.122   4.322   7.894 -0.2851 -0.0516  0.1042
   54POPC   C2B 1139   6.128   4.688   7.587 -0.0661  0.0572  0.2910
   54POPC   C3B 1140   5.921   4.688   7.240 -0.2626 -0.1469 -0.4287
   54POPC   C4B 1141   5.682   4.698   6.987 -0.0124  0.2603  0.1779
   55POPC   NC3 1142   9.621   1.968   9.179 -0.1839  0.0372  0.1062
   55POPC   PO4 1143   9.607   2.325   8.875 -0.2060 -0.0301  0.0452
   55POPC   GL1 1144   9.603   2.256   8.412 -0.3337 -0.3146 -0.2142
   55POPC   GL2 1145   9.920   2.276   8.357 -0.1256 -0.0309  0.0466
   55POPC   C1A 1146   9.473   2.394   8.061  0.1205 -0.0308 -0.0489
   55POPC   D2A 1147   9.664   2.326   7.598  0.0058 -0.1237 -0.0835
   55POPC   C3A 1148   9.978   2.504   7.448  0.1169  0.0615  0.0505
   55POPC   C4A 1149  10.220   2.854   7.436 -0.1340  0.0051  0.2331
   55POPC   C1B 1150   9.990   2.493   8.082 -0.1229  0.2366 -0.0921
   55POPC   C2B 1151   9.919   2.858   7.853 -0.0694 -0.0684 -0.1709
   55POPC   C3B 1152   9.799   3.215   7.603  0.3334  0.4591  0.0543
   55POPC   C4B 1153   9.559   3.347   7.278  0.0496  0.0979 -0.0220
   56POPC   NC3 1154   1.600   5.520  10.040 -0.0324 -0.1315  0.3272
   56POPC   PO4 1155   1.817   5.731   9.757  0.0111  0.0235 -0.5839
   56POPC   GL1 1156   1.501   5.708   9.441 -0.0796  0.1277  0.1207
   56POPC   GL2 1157   1.132   5.602   9.563 -0.1313  0.0973  0.1245
   56POPC   C1A 1158   1.284   5.927   9.167 -0.2579 -0.0802  0.3897
   56POPC   D2A 1159   0.953   6.066   8.917 -0.0519  0.0278 -0.0696
   56POPC   C3A 1160   1.093   6.260   8.528  0.1792  0.2424 -0.0555
   56POPC   C4A 1161   1.320   6.056   8.234 -0.0068 -0.3013 -0.2043
   56POPC   C1B 1162   0.928   5.556   9.162 -0.0217 -0.1700 -0.1633
   56POPC   C2B 1163   1.247   5.467   8.896 -0.0471  0.3175  0.0787
   56POPC   C3B 1164   1.699   5.457   8.974 -0.0140  0.4322 -0.2304
   56POPC   C4B 1165   1.998   5.321   9.315  0.1187  0.2820 -0.0414
   57POPC   NC3 1166   6.055   0.140   8.769  0.1367 -0.2107 -0.1675
   57POPC   PO4 1167   5.848  -0.026   8.499  0.0160 -0.2642 -0.0497
   57POPC   GL1 1168   5.720  -0.039   8.112 -0.1044  0.3171 -0.2044
   57POPC   GL2 1169   5.430  -0.099   8.175  0.2711  0.1712 -0.2121
   57POPC   C1A 1170   5.733  -0.261   7.767  0.0772 -0.0365 -0.1956
   57POPC   D2A 1171   5.566  -0.235   7.427  0.0671  0.1103  0.5116
   57POPC   C3A 1172   5.530   0.266   7.303  0.0212 -0.0852  0.2598
   57POPC   C4A 1173   5.596   0.648   7.444 -0.3905 -0.0135 -0.2594
   57POPC   C1B 1174   5.329   0.083   7.796 -0.1497  0.0251 -0.3489
   57POPC   C2B 1175   5.114  -0.040   7.357 -0.2488  0.1281  0.0765
   57POPC   C3B 1176   5.259  -0.137   6.959 -0.1858  0.2448  0.1358
   57POPC   C4B 1177   4.947  -0.031   6.736 -0.0131 -0.0605 -0.2112
   58POPC   NC3 1178   4.896  10.430   8.321 -0.1254  0.2943 -0.0959
   58POPC   PO4 1179   4.617  10.373   8.665 -0.1940 -0.2381 -0.0727
   58POPC   GL1 1180   4.559  10.101   8.310 -0.0683  0.1196 -0.0668
   58POPC   GL2 1181   4.618   9.911   8.107 -0.0835  0.2676 -0.0028
   58POPC   C1A 1182   4.343  10.237   7.833 -0.1331  0.1314 -0.2398
   58POPC   D2A 1183   4.120  10.387   7.314  0.0657 -0.2223  0.1326
   58POPC   C3A 1184   4.222  10.850   7.132 -0.3010 -0.2777 -0.1944
   58POPC   C4A 1185   4.040  11.110   6.919 -0.1875  0.0949  0.0612
   58POPC   C1B 1186   4.720   9.860   7.724  0.1492  0.1242 -0.0913
   58POPC   C2B 1187   4.820   9.979   7.335  0.0133  0.4472 -0.0527
   58POPC   C3B 1188   5.019   9.875   6.886 -0.2679 -0.1155 -0.1577
   58POPC   C4B 1189   5.106   9.450   6.883 -0.0178  0.2381  0.1273
   59POPC   NC3 1190   3.682   4.074   9.370  0.0716 -0.0567  0.1173
   59POPC   PO4 1191   3.885   4.324   9.172  0.0400 -0.0533 -0.2102
   59POPC   GL1 1192   3.542   4.300   8.980 -0.1978 -0.0301  0.1028
   59POPC   GL2 1193   3.631   3.993   8.804  0.1589  0.0682  0.0117
   59POPC   C1A 1194   3.185   4.147   8.837  0.1384 -0.2426  0.1760
   59POPC   D2A 1195   2.670   4.250   8.693  0.0811 -0.1659 -0.1482
   59POPC   C3A 1196   2.341   4.510   8.958  0.0613 -0.1542 -0.1902
   59POPC   C4A 1197   1.893   4.619   8.943 -0.0852 -0.1707  0.0146
   59POPC   C1B 1198   3.491   4.366   8.496 -0.0976  0.0452 -0.0723
   59POPC   C2B 1199   3.348   4.604   8.178  0.1408 -0.0803  0.3138
   59POPC   C3B 1200   3.161   5.047   7.951 -0.1343  0.0206  0.0173
   59POPC   C4B 1201   2.955   5.463   7.881 -0.1053  0.2129 -0.0182
   60POPC   NC3 1202   9.074   3.390   9.004  0.1507  0.1848 -0.2986
   60POPC   PO4 1203   8.846   3.225   8.697 -0.0010  0.0860  0.1705
   60POPC   GL1 1204   8.661   3.159   8.305 -0.1426  0.1628 -0.0887
   60POPC   GL2 1205   8.616   3.522   8.223 -0.1387  0.0710 -0.3959
   60POPC   C1A 1206   8.484   2.833   7.980  0.0877  0.2262  0.0722
   60POPC   D2A 1207   8.359   2.664   7.632 -0.0357 -0.0620  0.5271
   60POPC   C3A 1208   8.374   2.803   7.224  0.0292  0.2182 -0.0083
   60POPC   C4A 1209   8.317   3.081   6.847  0.2791  0.3587 -0.3507
   60POPC   C1B 1210   8.745   3.662   7.923 -0.0115 -0.1530  0.1687
   60POPC   C2B 1211   8.586   3.811   7.621  0.2258 -0.0100  0.1304
   60POPC   C3B 1212   8.813   3.944   7.207 -0.2436  0.0013  0.0443
   60POPC   C4B 1213   9.040   3.811   6.822 -0.2979 -0.0884  0.0207
   61POPC   NC3 1214   7.703   2.156   8.982  0.3323  0.4502  0.1178
   61POPC   PO4 1215   7.668   2.385   8.548  0.2037 -0.0017 -0.0922
   61POPC   GL1 1216   7.407   2.522   8.286 -0.1901 -0.0174 -0.0682
   61POPC   GL2 1217   7.080   2.435   8.282  0.0644 -0.1833 -0.2850
   61POPC   C1A 1218   7.353   2.535   7.880 -0.0805 -0.1557 -0.2295
   61POPC   D2A 1219   7.158   2.390   7.598 -0.1306 -0.2104  0.3182
   61POPC   C3A 1220   7.153   2.261   7.185 -0.1065 -0.0278 -0.3576
   61POPC   C4A 1221   6.882   2.555   7.109 -0.0568 -0.0247  0.1336
   61POPC   C1B 1222   6.813   2.588   7.974 -0.1228  0.0867 -0.0009
   61POPC   C2B 1223   6.582   2.526   7.545 -0.1985 -0.0395 -0.1677
   61POPC   C3B 1224   6.267   2.563   7.467 -0.0375 -0.2815 -0.2609
   61POPC   C4B 1225   5.893   2.531   7.362  0.0165  0.0377  0.1899
   62POPC   NC3 1226   0.538   6.888   9.457  0.0296 -0.1353  0.3747
   62POPC   PO4 1227   0.451   6.518   9.468  0.4595 -0.1288  0.0387
   62POPC   GL1 1228   0.614   6.436   9.124 -0.2542  0.1695 -0.0080
   62POPC   GL2 1229   0.948   6.487   9.212  0.2143  0.1159  0.3279
   62POPC   C1A 1230   0.629   6.445   8.768 -0.0657 -0.0285  0.3159
   62POPC   D2A 1231   0.555   6.120   8.433 -0.1994  0.2450  0.1387
   62POPC   C3A 1232   0.497   5.797   8.214  0.0001 -0.0118  0.1591
   62POPC   C4A 1233   0.755   5.487   8.148 -0.2585 -0.1422 -0.0912
   62POPC   C1B 1234   1.244   6.765   8.950  0.4052 -0.2489  0.3352
   62POPC   C2B 1235   1.513   6.940   8.550 -0.1276  0.2654  0.2575
   62POPC   C3B 1236   1.583   6.950   8.082  0.2121  0.1755 -0.1076
   62POPC   C4B 1237   1.578   6.605   7.784  0.2546 -0.1520  0.3067
   63POPC   NC3 1238   4.032   6.016   9.839  0.0783  0.0163  0.1852
   63POPC   PO4 1239   3.904   5.812   9.489  0.1686  0.0778  0.2448
   63POPC   GL1 1240   3.875   5.732   9.088 -0.1221  0.1687 -0.0547
   63POPC   GL2 1241   4.008   5.670   8.809 -0.1156  0.2421 -0.1391
   63POPC   C1A 1242   3.459   5.662   8.862  0.0770  0.1893 -0.3241
   63POPC   D2A 1243   3.204   5.571   8.497 -0.0469 -0.0828  0.1427
   63POPC   C3A 1244   3.380   5.458   8.153 -0.0810 -0.0400  0.1500
   63POPC   C4A 1245   3.640   5.200   7.885  0.2036 -0.1814  0.0949
   63POPC   C1B 1246   4.200   5.906   8.500 -0.2500 -0.1503 -0.1946
   63POPC   C2B 1247   4.206   6.353   8.256  0.2504  0.0366  0.1275
   63POPC   C3B 1248   3.938   6.546   7.847 -0.0885 -0.2411 -0.5239
   63POPC   C4B 1249   3.586   6.471   7.863  0.1058 -0.3623  0.0128
   64POPC   NC3 1250   2.905   3.622   9.292  0.2881  0.2620  0.4291
   64POPC   PO4 1251   2.680   3.327   9.062  0.1109 -0.0175 -0.1664
   64POPC   GL1 1252   2.716   3.391   8.640  0.0608 -0.2196  0.1803
   64POPC   GL2 1253   2.506   3.416   8.339 -0.4358 -0.2596  0.0761
   64POPC   C1A 1254   2.886   3.730   8.419 -0.0027 -0.1776  0.4201
   64POPC   D2A 1255   2.996   4.129   8.348  0.4258 -0.1154 -0.0263
   64POPC   C3A 1256   2.917   4.198   7.865  0.5242  0.1855  0.0125
   64POPC   C4A 1257   2.766   3.990   7.549 -0.0754 -0.3034 -0.0408
   64POPC   C1B 1258   2.170   3.471   8.052 -0.0268 -0.0645  0.1881
   64POPC   C2B 1259   1.779   3.309   7.813 -0.0065 -0.1862  0.2162
   64POPC   C3B 1260   1.671   3.432   7.325  0.0754  0.1566 -0.2359
   64POPC   C4B 1261   1.678   3.685   6.952 -0.2201  0.1133 -0.0823
   65POPC   NC3 1262   4.243   1.295   9.178 -0.3339 -0.0618  0.0798
   65POPC   PO4 1263   4.621   1.578   9.241  0.0279 -0.2430  0.0089
   65POPC   GL1 1264   4.648   1.625   8.805  0.0520  0.0089 -0.0915
   65POPC   GL2 1265   4.661   1.334   8.794 -0.0793 -0.2886  0.0619
   65POPC   C1A 1266   4.623   1.834   8.459 -0.1682  0.0784  0.4068
   65POPC   D2A 1267   4.562   1.768   8.071 -0.0162  0.1512  0.0572
   65POPC   C3A 1268   4.102   1.668   7.877  0.0135 -0.1564 -0.1733
   65POPC   C4A 1269   3.870   1.481   8.182  0.0204  0.0588  0.0225
   65POPC   C1B 1270   4.738   1.356   8.335  0.4870  0.1985 -0.0226
   65POPC   C2B 1271   5.037   1.516   8.117  0.2906 -0.0864 -0.2538
   65POPC   C3B 1272   5.448   1.565   8.067 -0.1306  0.3536 -0.0829
   65POPC   C4B 1273   5.562   1.800   7.702 -0.1420 -0.0918  0.0743
   66POPC   NC3 1274   4.879   3.874   8.557 -0.0981 -0.3220  0.1482
   66POPC   PO4 1275   5.091   4.314   8.594 -0.0769  0.1034 -0.1592
   66POPC   GL1 1276   5.057   4.182   8.157 -0.1141 -0.2170 -0.1634
   66POPC   GL2 1277   4.790   4.174   7.939  0.3203 -0.3135  0.4894
   66POPC   C1A 1278   5.385   4.139   7.830  0.0112 -0.3774  0.2776
   66POPC   D2A 1279   5.692   4.208   7.605  0.2644  0.0513  0.1459
   66POPC   C3A 1280   5.656   4.211   7.159  0.1278 -0.1099 -0.2219
   66POPC   C4A 1281   5.606   4.141   6.760 -0.1510  0.1513 -0.0010
   66POPC   C1B 1282   5.006   3.785   7.652 -0.0229  0.2055  0.0793
   66POPC   C2B 1283   4.902   3.864   7.136  0.3825  0.0489 -0.1056
   66POPC   C3B 1284   4.722   4.182   6.982 -0.1609 -0.1733 -0.0739
   66POPC   C4B 1285   4.624   4.322   6.592  0.2504 -0.2922  0.2214
   67POPC   NC3 1286   0.074   0.015   8.872 -0.0847 -0.1709  0.1722
   67POPC   PO4 1287   0.270   0.041   8.566 -0.0251 -0.4576 -0.2056
   67POPC   GL1 1288   0.015   0.013   8.181 -0.1253 -0.1810  0.0898
   67POPC   GL2 1289   0.313   0.038   8.025  0.2160 -0.0790  0.3608
   67POPC   C1A 1290  -0.190  -0.149   7.782  0.1734  0.3494  0.1390
   67POPC   D2A 1291  -0.350  -0.076   7.336 -0.3064 -0.1274 -0.3201
   67POPC   C3A 1292  -0.417   0.275   6.956  0.2769 -0.0561  0.0655
   67POPC   C4A 1293  -0.449   0.766   6.896  0.0782  0.1340 -0.1826
   67POPC   C1B 1294   0.407   0.355   7.667  0.3443  0.0584 -0.2591
   67POPC   C2B 1295   0.395   0.359   7.199 -0.4100  0.4408  0.0309
   67POPC   C3B 1296   0.475   0.674   6.829  0.1549 -0.0022  0.1349
   67POPC   C4B 1297   0.553   0.680   6.449  0.0483  0.1302  0.2633
   68POPC   NC3 1298  10.308   3.957   9.051 -0.1950 -0.0349  0.1679
   68POPC   PO4 1299   9.927   4.253   8.932 -0.0528 -0.2958  0.1119
   68POPC   GL1 1300  10.293   4.475   8.642 -0.3325  0.0922 -0.1066
   68POPC   GL2 1301  10.451   4.677   8.745  0.1225  0.2945 -0.0906
   68POPC   C1A 1302  10.633   4.526   8.261  0.0050  0.0755 -0.1154
   68POPC   D2A 1303  11.033   4.521   8.099 -0.1638  0.2403  0.1416
   68POPC   C3A 1304  11.188   4.859   8.294 -0.3518  0.0173 -0.1541
   68POPC   C4A 1305  11.555   5.096   8.039  0.1197  0.1946  0.3378
   68POPC   C1B 1306  10.871   4.633   8.660 -0.2237  0.1389 -0.0013
   68POPC   C2B 1307  11.223   4.774   8.817  0.4447  0.1546  0.1769
   68POPC   C3B 1308  11.436   5.041   9.005 -0.0800  0.0309  0.1886
   68POPC   C4B 1309  11.782   5.100   9.286 -0.3378 -0.3694 -0.0775
   69POPC   NC3 1310   0.582   4.742   9.496 -0.4118  0.1585 -0.0146
   69POPC   PO4 1311   0.338   4.432   9.476  0.0476  0.4639 -0.0211
   69POPC   GL1 1312   0.397   4.256   9.034 -0.1133  0.0510 -0.1192
   69POPC   GL2 1313   0.693   4.260   8.958 -0.1087 -0.0889  0.1648
   69POPC   C1A 1314   0.540   4.187   8.528 -0.0158 -0.1360  0.1914
   69POPC   D2A 1315   0.516   3.816   8.246 -0.1959  0.0415 -0.3051
   69POPC   C3A 1316   0.667   3.392   8.219 -0.1934 -0.1129  0.0070
   69POPC   C4A 1317   0.650   3.149   7.869  0.0431 -0.0080 -0.2765
   69POPC   C1B 1318   1.034   4.533   9.050 -0.2359 -0.2008 -0.5926
   69POPC   C2B 1319   1.333   4.715   8.994  0.0236  0.1837 -0.0599
   69POPC   C3B 1320   1.535   5.010   8.796 -0.2991 -0.0758 -0.1951
   69POPC   C4B 1321   1.677   5.308   8.490 -0.1455 -0.0201  0.1979
   70POPC   NC3 1322   8.079   5.419   8.679  0.0719 -0.1377  0.1813
   70POPC   PO4 1323   7.835   5.332   8.398 -0.5069 -0.0215  0.1298
   70POPC   GL1 1324   7.728   5.166   8.040  0.0170  0.2661  0.0277
   70POPC   GL2 1325   7.464   5.006   7.857  0.3190 -0.2755  0.3278
   70POPC   C1A 1326   7.889   5.035   7.622  0.0714 -0.4006  0.2368
   70POPC   D2A 1327   7.725   4.632   7.481 -0.1567 -0.0677  0.2718
   70POPC   C3A 1328   7.947   4.210   7.570  0.4868  0.1844 -0.0375
   70POPC   C4A 1329   8.063   3.730   7.490 -0.0200 -0.1650  0.0218
   70POPC   C1B 1330   7.305   4.946   7.383 -0.0193 -0.1987 -0.3780
   70POPC   C2B 1331   6.971   4.920   6.986 -0.3199  0.0102  0.0478
   70POPC   C3B 1332   7.115   4.953   6.592  0.1095  0.2012 -0.1051
   70POPC   C4B 1333   7.372   5.239   6.412  0.1052 -0.1749  0.1441
   71POPC   NC3 1334   3.663   9.137   8.853 -0.0496 -0.2664  0.1437
   71POPC   PO4 1335   3.440   9.647   8.994  0.0133 -0.0385 -0.1919
   71POPC   GL1 1336   3.454   9.642   8.519 -0.0598 -0.2430  0.1660
   71POPC   GL2 1337   3.652   9.763   8.322 -0.1088  0.0200  0.0634
   71POPC   C1A 1338   3.382   9.480   8.022 -0.2478 -0.5216 -0.3075
   71POPC   D2A 1339   3.425   9.121   7.710  0.0912  0.3996 -0.0615
   71POPC   C3A 1340   3.262   8.666   7.879 -0.0481 -0.0260 -0.1750
   71POPC   C4A 1341   3.452   8.398   7.680  0.2259  0.0395 -0.0903
   71POPC   C1B 1342   3.798   9.956   7.915 -0.0430  0.1440  0.0971
   71POPC   C2B 1343   3.976   9.907   7.488  0.2218 -0.1511 -0.2148
   71POPC   C3B 1344   4.288   9.865   7.301 -0.0850 -0.1597 -0.0044
   71POPC   C4B 1345   4.553   9.900   6.961  0.0967 -0.1090  0.1060
   72POPC   NC3 1346   8.218   8.112   8.667 -0.2241 -0.2860  0.0194
   72POPC   PO4 1347   8.354   7.806   8.424  0.0212 -0.1579 -0.0297
   72POPC   GL1 1348   8.283   7.949   8.099  0.0518 -0.1106 -0.3352
   72POPC   GL2 1349   8.192   7.676   7.929 -0.0824 -0.0496  0.1869
   72POPC   C1A 1350   8.406   8.230   7.754  0.0441  0.1440  0.0757
   72POPC   D2A 1351   8.443   8.706   7.625 -0.2328  0.0623 -0.2147
   72POPC   C3A 1352   8.768   8.699   7.269  0.1965 -0.0483 -0.2024
   72POPC   C4A 1353   8.924   8.986   7.184 -0.2680 -0.2096  0.0588
   72POPC   C1B 1354   8.027   7.450   7.551  0.1215  0.0254  0.0392
   72POPC   C2B 1355   8.218   7.482   7.145  0.3462 -0.1384 -0.1592
   72POPC   C3B 1356   8.323   7.262   6.789  0.0256  0.1041  0.3035
   72POPC   C4B 1357   8.438   6.895   6.691  0.0527 -0.0530  0.1374
   73POPC   NC3 1358  10.271   4.949   9.404  0.1295 -0.2557  0.0443
   73POPC   PO4 1359  10.021   5.210   9.174  0.0001 -0.0415 -0.0621
   73POPC   GL1 1360  10.277   5.186   8.834 -0.0069 -0.2116 -0.1718
   73POPC   GL2 1361  10.222   5.593   8.828  0.0039 -0.3641 -0.0567
   73POPC   C1A 1362  10.318   5.004   8.435 -0.0822  0.1734  0.2554
   73POPC   D2A 1363  10.231   4.933   7.987 -0.1779 -0.2172 -0.2167
   73POPC   C3A 1364  10.632   4.840   7.825 -0.1287 -0.1413 -0.1686
   73POPC   C4A 1365  10.902   4.613   7.628  0.2077 -0.3904 -0.2085
   73POPC   C1B 1366   9.935   5.494   8.380 -0.2211 -0.2979 -0.3846
   73POPC   C2B 1367  10.154   5.514   8.054 -0.0810 -0.0414 -0.0163
   73POPC   C3B 1368  10.215   5.706   7.593 -0.3922 -0.0260 -0.1339
   73POPC   C4B 1369  10.306   6.093   7.385 -0.0025 -0.1242 -0.1222
   74POPC   NC3 1370   6.531   2.447   8.898  0.1486 -0.5375  0.0525
   74POPC   PO4 1371   6.766   2.271   8.689 -0.0781 -0.2852 -0.2005
   74POPC   GL1 1372   6.752   1.986   8.330 -0.2013  0.0966  0.4338
   74POPC   GL2 1373   6.972   1.683   8.263 -0.1245 -0.0041  0.1206
   74POPC   C1A 1374   7.006   2.072   7.914 -0.0393 -0.1277 -0.3637
   74POPC   D2A 1375   7.356   1.880   7.594  0.2112 -0.1282 -0.0809
   74POPC   C3A 1376   7.504   1.871   7.136  0.0799  0.0356 -0.0783
   74POPC   C4A 1377   7.568   1.654   6.706 -0.1911  0.1954  0.0052
   74POPC   C1B 1378   6.998   1.579   7.770  0.0827 -0.1741  0.2545
   74POPC   C2B 1379   7.306   1.420   7.437 -0.0198  0.3193 -0.2063
   74POPC   C3B 1380   7.337   1.385   7.074  0.2117  0.1852  0.2253
   74POPC   C4B 1381   7.065   1.640   6.758 -0.1207  0.1144  0.0400
   75POPC   NC3 1382   6.806   3.770   8.886  0.3857  0.0209  0.0209
   75POPC   PO4 1383   6.294   3.619   8.904 -0.0998  0.0261  0.1165
   75POPC   GL1 1384   6.244   3.481   8.439 -0.1517  0.1475  0.2196
   75POPC   GL2 1385   6.593   3.594   8.256 -0.1421  0.2209 -0.0409
   75POPC   C1A 1386   6.202   3.286   8.041 -0.0038  0.1981  0.1791
   75POPC   D2A 1387   5.804   3.246   7.846 -0.0345  0.2249  0.1090
   75POPC   C3A 1388   5.515   3.270   7.477  0.1043  0.0461  0.1994
   75POPC   C4A 1389   5.087   3.275   7.300  0.0757 -0.5361 -0.0487
   75POPC   C1B 1390   6.637   3.491   7.846 -0.0191 -0.4009  0.2498
   75POPC   C2B 1391   6.331   3.326   7.502 -0.0728 -0.1618 -0.1538
   75POPC   C3B 1392   6.034   3.062   7.426 -0.3011 -0.1305  0.0063
   75POPC   C4B 1393   5.735   2.935   7.088  0.2598  0.0081  0.3301
   76POPC   NC3 1394   2.099   1.962   8.992 -0.2872  0.0445  0.3189
   76POPC   PO4 1395   2.312   2.220   8.661  0.2310 -0.0539 -0.0346
   76POPC   GL1 1396   2.371   2.035   8.289 -0.1130 -0.2880 -0.0878
   76POPC   GL2 1397   2.155   2.083   8.100 -0.0363 -0.5046 -0.1856
   76POPC   C1A 1398   2.651   2.047   7.984 -0.1172 -0.1235 -0.0031
   76POPC   D2A 1399   2.686   2.432   7.644 -0.1122  0.2998 -0.0686
   76POPC   C3A 1400   2.386   2.571   7.448  0.1506 -0.0071  0.2338
   76POPC   C4A 1401   2.238   2.596   7.083  0.2835  0.3637 -0.0573
   76POPC   C1B 1402   2.277   1.984   7.731  0.2198  0.0580 -0.1643
   76POPC   C2B 1403   2.114   1.899   7.283  0.3443 -0.0189 -0.1863
   76POPC   C3B 1404   2.085   2.100   6.834  0.0808 -0.1851 -0.1356
   76POPC   C4B 1405   2.017   1.957   6.459  0.0849 -0.2949  0.4472
   77POPC   NC3 1406   1.939   1.885   8.545 -0.4105  0.0967 -0.3112
   77POPC   PO4 1407   1.907   1.520   8.782 -0.1583 -0.0724 -0.3642
   77POPC   GL1 1408   1.987   1.280   8.386 -0.1595  0.0781 -0.0870
   77POPC   GL2 1409   2.197   1.539   8.235 -0.4780  0.0203  0.1561
   77POPC   C1A 1410   1.826   0.975   8.100 -0.0203 -0.4339 -0.0759
   77POPC   D2A 1411   1.596   0.743   7.788 -0.0388 -0.0167  0.0893
   77POPC   C3A 1412   1.592   0.942   7.394 -0.0112  0.0046  0.0856
   77POPC   C4A 1413   1.337   1.049   7.058 -0.1949 -0.0044  0.1391
   77POPC   C1B 1414   2.062   1.505   7.898 -0.1424 -0.2271  0.3077
   77POPC   C2B 1415   2.161   1.430   7.458 -0.0894  0.2080  0.1342
   77POPC   C3B 1416   2.440   1.208   7.114 -0.0936 -0.0686  0.2207
   77POPC   C4B 1417   2.768   0.975   6.908 -0.2101  0.4157  0.1740
   78POPC   NC3 1418   5.057   2.002   9.289  0.0364 -0.0611 -0.3355
   78POPC   PO4 1419   5.285   2.036   8.901 -0.1885  0.1095  0.0185
   78POPC   GL1 1420   5.131   2.129   8.459 -0.1767  0.0961  0.1064
   78POPC   GL2 1421   5.341   2.117   8.173 -0.0867 -0.2561  0.0367
   78POPC   C1A 1422   5.181   2.622   8.261  0.3901  0.0733  0.0052
   78POPC   D2A 1423   4.916   2.990   8.255 -0.0824 -0.1740 -0.1617
   78POPC   C3A 1424   4.530   3.288   8.083  0.1339 -0.0919  0.0116
   78POPC   C4A 1425   4.134   3.023   8.147  0.0370  0.2391 -0.0854
   78POPC   C1B 1426   5.430   2.436   7.854  0.1350  0.0223 -0.0691
   78POPC   C2B 1427   5.494   2.263   7.452  0.1093 -0.2981 -0.1480
   78POPC   C3B 1428   5.548   2.407   7.044 -0.0312  0.1310 -0.0037
   78POPC   C4B 1429   5.581   2.485   6.613 -0.0606 -0.1682 -0.2444
   79POPC   NC3 1430   3.445   4.714   9.949 -0.1186 -0.1228  0.0353
   79POPC   PO4 1431   3.365   4.413   9.585  0.1098  0.0487 -0.0703
   79POPC   GL1 1432   3.232   4.585   9.199 -0.2178  0.0143 -0.1674
   79POPC   GL2 1433   2.848   4.506   9.223  0.1459 -0.2799  0.0149
   79POPC   C1A 1434   3.240   4.650   8.829 -0.1648 -0.4556 -0.1346
   79POPC   D2A 1435   3.237   4.925   8.498  0.0279  0.0822  0.0555
   79POPC   C3A 1436   2.835   5.138   8.447  0.0689  0.1082  0.0365
   79POPC   C4A 1437   2.530   5.315   8.641  0.1328 -0.0203 -0.0705
   79POPC   C1B 1438   2.743   4.787   8.829  0.1347  0.0133  0.3111
   79POPC   C2B 1439   2.838   4.604   8.410 -0.0854 -0.0202  0.4176
   79POPC   C3B 1440   2.772   4.725   7.952 -0.4975  0.0843 -0.1036
   79POPC   C4B 1441   2.914   4.649   7.531  0.1854  0.1687 -0.2437
   80POPC   NC3 1442   5.430   4.588   8.873 -0.3149  0.1105  0.1263
   80POPC   PO4 1443   5.260   4.853   8.510  0.2267  0.3585 -0.1993
   80POPC   GL1 1444   4.977   4.751   8.177 -0.1415 -0.0814  0.0672
   80POPC   GL2 1445   4.718   5.058   8.246  0.0300  0.0650 -0.1245
   80POPC   C1A 1446   5.065   4.542   7.788 -0.0328 -0.0643 -0.0663
   80POPC   D2A 1447   4.964   4.370   7.351 -0.1336 -0.2162 -0.2122
   80POPC   C3A 1448   5.144   4.383   6.991 -0.3577 -0.1362  0.0070
   80POPC   C4A 1449   5.299   4.583   6.578  0.2036  0.3068  0.0864
   80POPC   C1B 1450   4.655   4.923   7.817  0.3578  0.2229 -0.1230
   80POPC   C2B 1451   4.632   4.787   7.470  0.2694 -0.2693  0.1591
   80POPC   C3B 1452   4.833   4.736   7.077  0.1032 -0.2663  0.3587
   80POPC   C4B 1453   4.883   4.819   6.611 -0.0038  0.3268  0.3872
   81POPC   NC3 1454   6.239   6.667   9.025  0.0933  0.1860  0.1317
   81POPC   PO4 1455   6.066   6.591   8.616  0.0029  0.0612 -0.3275
   81POPC   GL1 1456   5.872   6.480   8.240 -0.0853  0.1698 -0.0075
   81POPC   GL2 1457   5.955   6.173   8.269 -0.3568 -0.1912 -0.2077
   81POPC   C1A 1458   5.859   6.281   7.833  0.0974  0.4684 -0.0759
   81POPC   D2A 1459   5.825   6.380   7.402  0.0260 -0.1172 -0.2504
   81POPC   C3A 1460   6.074   6.334   7.014  0.0666  0.0919  0.2654
   81POPC   C4A 1461   6.091   6.017   6.681  0.0630  0.0218 -0.0972
   81POPC   C1B 1462   5.549   5.863   8.047  0.2965  0.1664  0.0038
   81POPC   C2B 1463   5.110   5.849   7.905  0.0084  0.5113 -0.0820
   81POPC   C3B 1464   4.918   5.718   7.436 -0.1467 -0.1650  0.2814
   81POPC   C4B 1465   4.752   5.701   6.989  0.1086  0.0780  0.0499
   82POPC   NC3 1466   6.777  10.071   8.566 -0.0311 -0.1025 -0.2694
   82POPC   PO4 1467   6.361   9.779   8.692  0.1116  0.1709 -0.0560
   82POPC   GL1 1468   6.485   9.666   8.262  0.2059  0.1619 -0.2713
   82POPC   GL2 1469   6.714   9.775   8.142 -0.0490 -0.0509 -0.2740
   82POPC   C1A 1470   6.400   9.426   7.869 -0.0030 -0.0432 -0.0105
   82POPC   D2A 1471   6.125   9.500   7.560 -0.0127  0.2632 -0.0731
   82POPC   C3A 1472   6.246   9.794   7.250  0.1420  0.1053 -0.0510
   82POPC   C4A 1473   6.133  10.111   7.372  0.2500  0.0818 -0.1843
   82POPC   C1B 1474   6.954   9.581   7.777  0.0259 -0.1700  0.0542
   82POPC   C2B 1475   7.198   9.151   7.728  0.1233  0.3769 -0.1810
   82POPC   C3B 1476   7.384   8.945   7.444 -0.1757  0.0009  0.0684
   82POPC   C4B 1477   7.256   8.638   7.111 -0.1529  0.0075  0.1150
   83POPC   NC3 1478   6.804   5.455   8.532  0.2553 -0.2078 -0.1731
   83POPC   PO4 1479   6.404   5.596   8.740  0.1698  0.0074 -0.1059
   83POPC   GL1 1480   6.404   5.825   8.293  0.3523 -0.0972 -0.0519
   83POPC   GL2 1481   6.653   5.619   8.122 -0.1249 -0.0481 -0.1466
   83POPC   C1A 1482   6.317   5.955   7.892  0.0700 -0.0153 -0.2070
   83POPC   D2A 1483   6.211   6.078   7.415  0.1740 -0.2145  0.0194
   83POPC   C3A 1484   6.450   6.008   7.065  0.1306 -0.1058  0.1559
   83POPC   C4A 1485   6.924   5.906   6.878  0.1488 -0.0115  0.0760
   83POPC   C1B 1486   6.582   5.495   7.758 -0.0783 -0.6525 -0.1237
   83POPC   C2B 1487   6.309   5.515   7.394 -0.2403 -0.1745 -0.0637
   83POPC   C3B 1488   5.978   5.567   7.223  0.1941 -0.0493  0.1091
   83POPC   C4B 1489   5.784   5.922   7.118 -0.2064  0.0093 -0.1354
   84POPC   NC3 1490   3.874   2.683   8.934 -0.1682  0.3121  0.4094
   84POPC   PO4 1491   3.616   3.031   8.823  0.1578 -0.0070 -0.2488
   84POPC   GL1 1492   3.596   3.181   8.453 -0.2175  0.1704  0.1056
   84POPC   GL2 1493   3.851   3.562   8.506  0.0252 -0.0456  0.0985
   84POPC   C1A 1494   3.527   3.423   8.060  0.2250  0.0003  0.0286
   84POPC   D2A 1495   3.640   3.487   7.562 -0.1201  0.1884  0.0511
   84POPC   C3A 1496   3.361   3.686   7.303  0.1822  0.0372 -0.2330
   84POPC   C4A 1497   3.052   3.582   6.970  0.1501  0.1594  0.0409
   84POPC   C1B 1498   3.834   3.932   8.382  0.0878  0.3040 -0.0922
   84POPC   C2B 1499   3.919   4.388   8.258 -0.0752 -0.3763 -0.0659
   84POPC   C3B 1500   3.889   4.838   8.290 -0.1944  0.1199  0.0390
   84POPC   C4B 1501   3.646   5.157   8.503  0.2060 -0.0579 -0.0675
   85POPC   NC3 1502   3.197   6.401   9.784 -0.2592 -0.2538 -0.0189
   85POPC   PO4 1503   3.632   6.265   9.747  0.1086 -0.2002  0.0889
   85POPC   GL1 1504   3.431   6.051   9.400 -0.0411 -0.1591  0.0732
   85POPC   GL2 1505   3.555   6.144   9.113  0.1942 -0.1190 -0.0554
   85POPC   C1A 1506   3.090   5.782   9.222 -0.1343 -0.0232 -0.0043
   85POPC   D2A 1507   2.621   5.923   9.356 -0.1334 -0.1598 -0.0275
   85POPC   C3A 1508   2.363   6.143   9.083 -0.3197  0.1032 -0.0339
   85POPC   C4A 1509   2.018   6.477   9.265 -0.0431 -0.3489 -0.3169
   85POPC   C1B 1510   3.408   6.464   8.821 -0.2669 -0.1524 -0.1451
   85POPC   C2B 1511   3.010   6.535   8.666 -0.0834  0.0165  0.3194
   85POPC   C3B 1512   2.636   6.592   8.648  0.4026  0.2126  0.1858
   85POPC   C4B 1513   2.490   6.881   8.987  0.0082  0.0382  0.1766
   86POPC   NC3 1514   5.515   3.458   8.836 -0.0615  0.0502 -0.0955
   86POPC   PO4 1515   5.194   3.479   8.537 -0.0485  0.1456 -0.0497
   86POPC   GL1 1516   5.151   3.614   8.144  0.0143 -0.1157  0.0540
   86POPC   GL2 1517   5.404   3.684   7.988 -0.0849  0.0789 -0.0168
   86POPC   C1A 1518   5.008   3.316   7.810  0.1160 -0.0927  0.1711
   86POPC   D2A 1519   4.622   3.377   7.564  0.1884 -0.0393 -0.0769
   86POPC   C3A 1520   4.508   3.563   7.142 -0.0690  0.1323  0.0083
   86POPC   C4A 1521   4.260   3.330   6.709 -0.1050  0.1365 -0.2249
   86POPC   C1B 1522   5.512   3.763   7.566  0.1594 -0.0208 -0.3371
   86POPC   C2B 1523   5.399   3.797   7.137 -0.3440  0.1923 -0.0383
   86POPC   C3B 1524   5.228   3.813   6.751  0.1427  0.3261  0.0321
   86POPC   C4B 1525   5.074   4.113   6.462  0.1930 -0.3161 -0.0190
   87POPC   NC3 1526  10.438  10.084   8.641 -0.0248  0.0008 -0.0688
   87POPC   PO4 1527  10.083  10.279   8.642  0.3012  0.1525 -0.0321
   87POPC   GL1 1528  10.005  10.340   8.123  0.1321 -0.0381 -0.3574
   87POPC   GL2 1529   9.843  10.654   8.123  0.1205  0.1195  0.2403
   87POPC   C1A 1530   9.798  10.314   7.722  0.1233 -0.1656 -0.2633
   87POPC   D2A 1531   9.709  10.237   7.204  0.0925 -0.1595  0.1845
   87POPC   C3A 1532  10.100  10.219   6.877  0.0559 -0.1007  0.0521
   87POPC   C4A 1533  10.182  10.425   6.542 -0.2127  0.0502 -0.1104
   87POPC   C1B 1534   9.947  10.757   7.716  0.4386 -0.0943 -0.1321
   87POPC   C2B 1535   9.765  10.889   7.351  0.0936  0.0415 -0.1601
   87POPC   C3B 1536   9.459  10.937   7.063  0.2722 -0.1500  0.0567
   87POPC   C4B 1537   9.585  11.022   6.608  0.0961  0.2316  0.0842
   88POPC   NC3 1538   0.679   9.840   8.589  0.2197  0.3371 -0.0536
   88POPC   PO4 1539   0.270   9.709   8.643 -0.0779  0.1391  0.1194
   88POPC   GL1 1540   0.282   9.727   8.108 -0.0039 -0.3830 -0.0729
   88POPC   GL2 1541   0.521   9.729   8.042  0.0025 -0.0119 -0.0349
   88POPC   C1A 1542  -0.099   9.654   7.784  0.3250 -0.0695 -0.2066
   88POPC   D2A 1543  -0.126   9.533   7.351 -0.2039  0.1806  0.0737
   88POPC   C3A 1544   0.113   9.601   7.046  0.0151 -0.0639 -0.0775
   88POPC   C4A 1545   0.373   9.823   6.855 -0.0437 -0.1026  0.3010
   88POPC   C1B 1546   0.678   9.262   7.984  0.2992 -0.0190 -0.3107
   88POPC   C2B 1547   0.701   9.032   7.653 -0.2263 -0.2395 -0.0286
   88POPC   C3B 1548   0.512   9.043   7.242  0.0402  0.2313 -0.1934
   88POPC   C4B 1549   0.092   9.081   6.946 -0.1702  0.1599  0.0796
   89POPC   NC3 1550   6.807   2.752   8.575 -0.0602 -0.0319  0.0615
   89POPC   PO4 1551   6.384   2.879   8.708  0.1648 -0.0690  0.0721
   89POPC   GL1 1552   6.475   2.900   8.223  0.0104 -0.0734 -0.0140
   89POPC   GL2 1553   6.706   3.080   8.202  0.3207 -0.0172  0.0466
   89POPC   C1A 1554   6.482   2.963   7.744 -0.1017  0.0143  0.1483
   89POPC   D2A 1555   6.578   2.961   7.295 -0.1177 -0.0044  0.1914
   89POPC   C3A 1556   6.214   2.853   7.042  0.2486  0.0414 -0.0124
   89POPC   C4A 1557   6.067   2.626   6.758  0.0944  0.3385 -0.0223
   89POPC   C1B 1558   6.960   3.142   7.911 -0.1734  0.6273  0.1351
   89POPC   C2B 1559   7.065   3.338   7.519  0.0939 -0.1181 -0.1969
   89POPC   C3B 1560   6.945   3.630   7.401 -0.0581  0.0638  0.5256
   89POPC   C4B 1561   6.882   4.081   7.231  0.1526 -0.1195 -0.1404
   90POPC   NC3 1562   0.119   8.405   9.128 -0.1248  0.2014  0.1892
   90POPC   PO4 1563   0.201   8.188   8.732  0.1048 -0.0014  0.1017
   90POPC   GL1 1564   0.063   8.423   8.277 -0.1193 -0.2949  0.0327
   90POPC   GL2 1565  -0.192   8.354   8.029  0.0840  0.0250 -0.2137
   90POPC   C1A 1566   0.352   8.319   7.861 -0.1263  0.0029 -0.2558
   90POPC   D2A 1567   0.535   8.474   7.493  0.4101  0.0912  0.1507
   90POPC   C3A 1568   0.838   8.553   7.147  0.0479  0.0933 -0.1395
   90POPC   C4A 1569   0.957   8.325   6.738 -0.1664 -0.0330  0.0867
   90POPC   C1B 1570  -0.204   8.405   7.616  0.2081 -0.0053 -0.6415
   90POPC   C2B 1571  -0.361   8.415   7.234  0.3282 -0.0210 -0.1324
   90POPC   C3B 1572  -0.314   8.576   6.821 -0.0847  0.0174 -0.2360
   90POPC   C4B 1573  -0.083   8.437   6.455  0.2239 -0.3811  0.2660
   91POPC   NC3 1574   3.070   2.330   8.914  0.0562  0.1903 -0.0461
   91POPC   PO4 1575   3.111   1.819   8.781  0.0718 -0.0334  0.0525
   91POPC   GL1 1576   3.143   2.096   8.454  0.3571  0.3489 -0.0450
   91POPC   GL2 1577   2.791   2.200   8.507 -0.0336 -0.2231  0.1204
   91POPC   C1A 1578   3.083   2.318   8.024 -0.0843  0.0277 -0.0683
   91POPC   D2A 1579   3.108   2.146   7.628  0.1600  0.0466  0.1007
   91POPC   C3A 1580   3.514   2.087   7.448 -0.1622  0.2325  0.1273
   91POPC   C4A 1581   3.590   1.952   7.177 -0.2337  0.0999  0.1631
   91POPC   C1B 1582   2.560   2.514   8.139 -0.0398 -0.0593 -0.0737
   91POPC   C2B 1583   2.202   2.560   7.908 -0.2007  0.0394 -0.0926
   91POPC   C3B 1584   1.876   2.421   7.516  0.0721 -0.2267  0.1998
   91POPC   C4B 1585   1.740   2.353   7.075  0.2412 -0.0799  0.0156
   92POPC   NC3 1586   1.058   9.945   9.068  0.0626 -0.0137 -0.2509
   92POPC   PO4 1587   1.219   9.764   8.833 -0.1735 -0.0535  0.0625
   92POPC   GL1 1588   1.206   9.865   8.334  0.0932 -0.1250 -0.1161
   92POPC   GL2 1589   1.057   9.608   8.209 -0.1516 -0.1633 -0.0005
   92POPC   C1A 1590   1.412   9.900   7.947  0.2376 -0.0223  0.3073
   92POPC   D2A 1591   1.716   9.906   7.533  0.2261  0.0783  0.1553
   92POPC   C3A 1592   1.559   9.784   7.055 -0.0110 -0.2962 -0.1424
   92POPC   C4A 1593   1.393   9.543   6.644  0.0830  0.0474  0.2280
   92POPC   C1B 1594   1.030   9.568   7.870  0.3012  0.2732 -0.1113
   92POPC   C2B 1595   1.157   9.725   7.490 -0.0690  0.2098 -0.0894
   92POPC   C3B 1596   0.998   9.754   6.981 -0.1770  0.1969 -0.0088
   92POPC   C4B 1597   0.994   9.913   6.552 -0.0153  0.1647 -0.0241
   93POPC   NC3 1598   8.046   4.538   8.730 -0.0540  0.0523 -0.1569
   93POPC   PO4 1599   7.720   4.260   8.616 -0.0704  0.1465 -0.3586
   93POPC   GL1 1600   7.848   4.171   8.135 -0.2027 -0.0195 -0.1150
   93POPC   GL2 1601   8.195   4.273   8.217  0.2757 -0.2431 -0.0148
   93POPC   C1A 1602   7.780   3.867   7.881  0.4206  0.0224 -0.0486
   93POPC   D2A 1603   7.403   3.856   7.575  0.0136 -0.0396  0.6698
   93POPC   C3A 1604   7.415   3.936   7.236  0.0402  0.0670  0.1729
   93POPC   C4A 1605   7.417   4.139   6.821  0.1311 -0.0018 -0.0939
   93POPC   C1B 1606   8.240   3.909   8.039 -0.0088  0.0904 -0.2236
   93POPC   C2B 1607   8.233   3.477   7.848  0.0217 -0.1572 -0.1192
   93POPC   C3B 1608   8.122   3.104   7.637  0.0967 -0.2014  0.1650
   93POPC   C4B 1609   7.865   3.136   7.330  0.0298 -0.1544  0.0536
   94POPC   NC3 1610   8.942   0.350   8.503 -0.0118 -0.0800  0.5182
   94POPC   PO4 1611   9.312   0.509   8.724  0.0208  0.1442  0.0450
   94POPC   GL1 1612   9.381   0.705   8.383  0.1990  0.1130 -0.0633
   94POPC   GL2 1613   9.412   0.532   8.172  0.1641  0.0152  0.1551
   94POPC   C1A 1614   9.573   1.047   8.076 -0.1227  0.2101  0.0749
   94POPC   D2A 1615   9.662   1.181   7.667  0.1704  0.0287 -0.1820
   94POPC   C3A 1616   9.509   1.313   7.271  0.1411  0.2303  0.1634
   94POPC   C4A 1617   9.725   1.660   7.036 -0.1414  0.4240  0.3282
   94POPC   C1B 1618   9.470   0.364   7.793 -0.1271 -0.2083  0.1391
   94POPC   C2B 1619   9.376   0.063   7.409 -0.1030  0.2538  0.1719
   94POPC   C3B 1620   8.995   0.023   7.068 -0.1853 -0.0239  0.2864
   94POPC   C4B 1621   8.594   0.288   6.842  0.0055 -0.0209 -0.2118
   95POPC   NC3 1622   2.397   2.866   9.131  0.1143 -0.2233  0.1558
   95POPC   PO4 1623   2.585   2.482   8.971 -0.1346 -0.3945 -0.1759
   95POPC   GL1 1624   2.514   2.806   8.622 -0.2128  0.0858 -0.1003
   95POPC   GL2 1625   2.322   3.037   8.621  0.0041  0.0862 -0.1728
   95POPC   C1A 1626   2.747   2.954   8.325  0.0177 -0.1238 -0.3071
   95POPC   D2A 1627   2.872   2.817   7.944  0.1683  0.1587 -0.0592
   95POPC   C3A 1628   3.295   2.859   8.035 -0.0475  0.1970 -0.1041
   95POPC   C4A 1629   3.718   3.024   7.793  0.1436  0.3274  0.0892
   95POPC   C1B 1630   2.282   2.978   8.139  0.0760 -0.1016  0.4246
   95POPC   C2B 1631   2.432   3.118   7.795 -0.1443 -0.1857  0.3972
   95POPC   C3B 1632   2.809   2.860   7.420 -0.1505 -0.1655 -0.0007
   95POPC   C4B 1633   2.872   2.925   6.970  0.0526  0.0757 -0.0005
   96POPC   NC3 1634   9.049   1.709   8.520  0.0887  0.0656 -0.2869
   96POPC   PO4 1635   9.318   1.945   8.760 -0.2341  0.1064 -0.0858
   96POPC   GL1 1636   9.480   1.814   8.326  0.2993  0.1369 -0.2658
   96POPC   GL2 1637   9.816   1.576   8.371  0.0609 -0.0653 -0.1430
   96POPC   C1A 1638   9.732   1.938   8.026 -0.0238 -0.1707  0.0740
   96POPC   D2A 1639  10.077   2.040   7.773  0.0151 -0.0372 -0.1125
   96POPC   C3A 1640  10.088   1.992   7.345 -0.1732 -0.1015 -0.2236
   96POPC   C4A 1641   9.858   2.240   7.094 -0.1979  0.4243  0.0065
   96POPC   C1B 1642   9.497   1.522   7.976 -0.0415  0.0426 -0.2785
   96POPC   C2B 1643   9.128   1.585   7.755  0.1107  0.0782  0.3793
   96POPC   C3B 1644   8.858   1.790   7.453  0.0097  0.1914  0.0314
   96POPC   C4B 1645   8.801   2.068   7.041  0.0221 -0.0296  0.2527
   97POPC   NC3 1646   4.671   2.832   8.883 -0.0062 -0.0295  0.2606
   97POPC   PO4 1647   4.367   2.472   8.875 -0.0471  0.4709 -0.4460
   97POPC   GL1 1648   4.547   2.455   8.485  0.0937 -0.0141  0.2901
   97POPC   GL2 1649   4.506   2.723   8.353 -0.0217  0.0199  0.0630
   97POPC   C1A 1650   4.756   2.280   8.125 -0.1144  0.2973 -0.3604
   97POPC   D2A 1651   4.945   1.987   7.913 -0.0331 -0.0626 -0.0651
   97POPC   C3A 1652   5.055   1.974   7.569  0.1391 -0.0566 -0.0358
   97POPC   C4A 1653   5.030   2.137   7.199 -0.1660  0.3124  0.1872
   97POPC   C1B 1654   4.584   2.847   7.881  0.2535 -0.0761  0.2046
   97POPC   C2B 1655   4.730   2.892   7.444  0.0446 -0.1039 -0.3202
   97POPC   C3B 1656   4.625   3.048   6.996  0.0130 -0.0668  0.3286
   97POPC   C4B 1657   4.680   2.916   6.554 -0.1474 -0.1451  0.2115
   98POPC   NC3 1658   9.371   4.935   8.468  0.2557 -0.3817  0.1745
   98POPC   PO4 1659   9.331   5.373   8.731 -0.1844  0.0370  0.3306
   98POPC   GL1 1660   9.273   5.476   8.328  0.1941  0.1356  0.0509
   98POPC   GL2 1661   9.117   5.727   8.147 -0.2091 -0.3844 -0.3329
   98POPC   C1A 1662   9.361   5.237   7.900  0.0453 -0.1230 -0.0564
   98POPC   D2A 1663   9.386   4.978   7.545  0.2805  0.0916 -0.1216
   98POPC   C3A 1664   9.100   5.042   7.173  0.0674 -0.0999  0.1029
   98POPC   C4A 1665   8.601   4.909   6.908 -0.2590 -0.0624  0.0061
   98POPC   C1B 1666   9.045   5.799   7.682 -0.0626  0.2225 -0.2003
   98POPC   C2B 1667   9.207   6.167   7.387 -0.1893 -0.0309 -0.3610
   98POPC   C3B 1668   9.272   6.164   6.980  0.2669 -0.0791 -0.2072
   98POPC   C4B 1669   9.168   6.402   6.508 -0.1259  0.0522  0.0517
   99POPC   NC3 1670   0.299   2.250   8.540  0.4099  0.0670  0.0857
   99POPC   PO4 1671   0.301   2.716   8.504  0.0966  0.5657 -0.2606
   99POPC   GL1 1672   0.435   2.722   8.129 -0.1727 -0.0362  0.2080
   99POPC   GL2 1673   0.641   2.471   8.045 -0.0846 -0.0465 -0.0263
   99POPC   C1A 1674   0.389   2.683   7.718 -0.0968  0.1229  0.0565
   99POPC   D2A 1675   0.167   2.768   7.435  0.3752 -0.0031 -0.0938
   99POPC   C3A 1676   0.050   3.124   7.162 -0.1019  0.1448 -0.2840
   99POPC   C4A 1677  -0.004   3.481   6.918 -0.1158  0.1073 -0.2836
   99POPC   C1B 1678   0.903   2.477   7.683  0.1766 -0.2854 -0.1275
   99POPC   C2B 1679   0.831   2.805   7.413  0.1623 -0.2754 -0.1597
   99POPC   C3B 1680   0.942   3.190   7.271 -0.3823 -0.0962 -0.1345
   99POPC   C4B 1681   0.626   3.424   6.933 -0.3870  0.1612 -0.1112
  100POPC   NC3 1682   6.590   8.424   8.472 -0.1034  0.0153 -0.1532
  100POPC   PO4 1683   6.698   8.039   8.445  0.0276  0.2599  0.0331
  100POPC   GL1 1684   6.885   7.880   8.120  0.0457 -0.0250 -0.0721
  100POPC   GL2 1685   6.929   7.628   8.148  0.1699  0.0096  0.0231
  100POPC   C1A 1686   7.185   7.981   7.815 -0.1836  0.2069  0.0288
  100POPC   D2A 1687   7.233   7.654   7.566 -0.3504  0.0873  0.0437
  100POPC   C3A 1688   7.405   7.757   7.119 -0.2438  0.0541 -0.3680
  100POPC   C4A 1689   7.319   7.950   6.711 -0.0752 -0.1124  0.0377
  100POPC   C1B 1690   6.762   7.459   7.714 -0.0733 -0.0466  0.1051
  100POPC   C2B 1691   6.909   7.407   7.305 -0.3029 -0.2765  0.0944
  100POPC   C3B 1692   7.145   7.308   6.974 -0.0447 -0.1431 -0.0196
  100POPC   C4B 1693   7.376   7.465   6.566  0.2179  0.2069  0.1263
  101POPC   NC3 1694   3.120   9.195   8.695  0.0706 -0.0806  0.1518
  101POPC   PO4 1695   3.378   8.787   8.626 -0.2378  0.1069 -0.2935
  101POPC   GL1 1696   3.197   8.514   8.376  0.1042  0.2804 -0.0695
  101POPC   GL2 1697   3.528   8.485   8.256  0.0083  0.0441 -0.0423
  101POPC   C1A 1698   3.108   8.183   8.047 -0.1793  0.1289  0.1358
  101POPC   D2A 1699   2.856   7.773   7.821 -0.1292 -0.0920 -0.2012
  101POPC   C3A 1700   2.493   7.563   7.942 -0.4460 -0.5142  0.1308
  101POPC   C4A 1701   2.070   7.466   7.885  0.0137  0.1231  0.1733
  101POPC   C1B 1702   3.746   8.720   7.955  0.0414  0.0537  0.0340
  101POPC   C2B 1703   3.702   8.804   7.488  0.1107  0.1992  0.1187
  101POPC   C3B 1704   3.514   8.674   6.958  0.0312 -0.0522  0.0434
  101POPC   C4B 1705   3.383   8.953   6.557 -0.0620  0.3860  0.1605
  102POPC   NC3 1706   6.959   3.250   9.105 -0.3024  0.3303  0.0085
  102POPC   PO4 1707   6.888   3.303   8.633  0.1017 -0.0968  0.1213
  102POPC   GL1 1708   7.116   3.512   8.320  0.1740 -0.0844  0.2258
  102POPC   GL2 1709   7.093   3.810   8.308 -0.1392  0.2015  0.0139
  102POPC   C1A 1710   7.362   3.466   7.939 -0.1041 -0.1420 -0.4044
  102POPC   D2A 1711   7.707   3.428   7.673  0.1666 -0.0852  0.5086
  102POPC   C3A 1712   7.462   3.428   7.294 -0.0556  0.0796  0.1222
  102POPC   C4A 1713   7.608   3.212   6.900 -0.1317  0.3443  0.0295
  102POPC   C1B 1714   6.958   3.929   8.008  0.2863 -0.2516  0.3437
  102POPC   C2B 1715   6.888   4.189   7.763 -0.1232 -0.2316 -0.2757
  102POPC   C3B 1716   6.537   4.318   7.578 -0.1706 -0.1307 -0.1095
  102POPC   C4B 1717   6.171   4.273   7.310 -0.1335  0.3886  0.1274
  103POPC   NC3 1718   8.543   7.408   8.722 -0.0386 -0.2475  0.2535
  103POPC   PO4 1719   8.626   7.004   8.519 -0.0683 -0.1783 -0.1064
  103POPC   GL1 1720   8.690   7.031   8.084  0.1511  0.1539  0.2781
  103POPC   GL2 1721   8.507   7.263   7.826  0.0564 -0.0679  0.2701
  103POPC   C1A 1722   8.779   6.905   7.627 -0.0521 -0.2590 -0.2444
  103POPC   D2A 1723   8.591   6.927   7.213 -0.3094  0.3181  0.0431
  103POPC   C3A 1724   8.837   7.193   6.936 -0.1709  0.2707  0.1800
  103POPC   C4A 1725   8.793   7.329   6.551 -0.0932  0.1226 -0.3055
  103POPC   C1B 1726   8.694   7.403   7.390  0.2954 -0.0467  0.1246
  103POPC   C2B 1727   8.890   7.661   7.040  0.2763 -0.3701  0.1160
  103POPC   C3B 1728   8.946   7.813   6.602 -0.1309 -0.1436  0.1389
  103POPC   C4B 1729   8.963   7.618   6.202 -0.0313 -0.2226  0.1097
  104POPC   NC3 1730   0.108   7.685   8.845 -0.1512  0.2456  0.3121
  104POPC   PO4 1731   0.448   7.935   9.037 -0.2492 -0.0833 -0.1358
  104POPC   GL1 1732   0.547   7.772   8.596  0.0798  0.1082  0.0226
  104POPC   GL2 1733   0.379   7.851   8.393 -0.0843 -0.1017 -0.4002
  104POPC   C1A 1734   0.617   7.338   8.386  0.2293 -0.0948 -0.2327
  104POPC   D2A 1735   0.534   7.282   7.986  0.2346  0.0744  0.1569
  104POPC   C3A 1736   0.367   7.388   7.575 -0.3312  0.0148 -0.0608
  104POPC   C4A 1737   0.601   7.624   7.299  0.2053  0.0766  0.3116
  104POPC   C1B 1738   0.767   7.752   8.152 -0.0135 -0.1751  0.1964
  104POPC   C2B 1739   0.974   7.629   7.777  0.2863 -0.2761 -0.0453
  104POPC   C3B 1740   1.271   7.859   7.555 -0.1659 -0.0875 -0.2523
  104POPC   C4B 1741   1.404   7.747   7.058 -0.3076 -0.1752  0.0107
  105POPC   NC3 1742   9.468   1.026   8.933 -0.0236 -0.0233  0.1994
  105POPC   PO4 1743   9.312   1.323   8.676 -0.2346 -0.1135 -0.3182
  105POPC   GL1 1744   9.167   1.167   8.332  0.1324 -0.0226  0.0018
  105POPC   GL2 1745   8.818   1.299   8.202 -0.0945  0.0219 -0.1360
  105POPC   C1A 1746   9.168   1.052   7.805 -0.0743  0.2198 -0.2746
  105POPC   D2A 1747   9.311   0.783   7.408  0.0130 -0.0640  0.0172
  105POPC   C3A 1748   8.999   0.393   7.391  0.1858 -0.3372 -0.1691
  105POPC   C4A 1749   8.502   0.331   7.383 -0.1958 -0.1524  0.0256
  105POPC   C1B 1750   8.725   1.350   7.745  0.0755  0.0750  0.1898
  105POPC   C2B 1751   8.954   1.278   7.345  0.0254 -0.1680 -0.0620
  105POPC   C3B 1752   9.179   1.307   6.880  0.3042  0.1210 -0.0434
  105POPC   C4B 1753   8.959   1.376   6.452  0.0877 -0.1954  0.1044
  106POPC   NC3 1754   7.184   8.202   8.444 -0.1249  0.1348  0.0217
  106POPC   PO4 1755   7.233   7.791   8.626  0.0092 -0.1720 -0.1633
  106POPC   GL1 1756   7.470   7.784   8.236  0.0641 -0.1958 -0.0060
  106POPC   GL2 1757   7.749   7.533   8.190 -0.2527  0.0276 -0.1479
  106POPC   C1A 1758   7.747   7.976   7.991 -0.2508 -0.3643 -0.3794
  106POPC   D2A 1759   7.850   8.334   7.815 -0.2485 -0.3123  0.0661
  106POPC   C3A 1760   8.178   8.375   7.380 -0.0390  0.1559  0.1335
  106POPC   C4A 1761   8.208   8.760   7.060 -0.3192 -0.3290 -0.1230
  106POPC   C1B 1762   7.600   7.367   7.802 -0.1673  0.1113  0.1096
  106POPC   C2B 1763   7.601   7.304   7.313  0.3283 -0.1791  0.0549
  106POPC   C3B 1764   7.743   7.425   6.901 -0.1530  0.2403  0.3806
  106POPC   C4B 1765   7.930   7.335   6.520  0.0853 -0.0904  0.2400
  107POPC   NC3 1766   4.778   4.772   8.685  0.1045  0.1235  0.0578
  107POPC   PO4 1767   4.585   4.417   8.679 -0.1127 -0.0271 -0.3814
  107POPC   GL1 1768   4.393   4.335   8.324  0.0054  0.2144  0.0926
  107POPC   GL2 1769   4.427   4.671   8.240  0.2216 -0.0586  0.2132
  107POPC   C1A 1770   4.226   4.106   7.987 -0.2706  0.0113 -0.0034
  107POPC   D2A 1771   3.805   3.904   7.819  0.2949 -0.1697  0.0394
  107POPC   C3A 1772   3.873   3.896   7.305 -0.2085 -0.1437  0.0455
  107POPC   C4A 1773   3.650   3.943   6.908  0.0079 -0.1438 -0.0722
  107POPC   C1B 1774   4.313   4.505   7.750 -0.1468 -0.0819  0.0396
  107POPC   C2B 1775   3.917   4.351   7.607 -0.1300 -0.1298 -0.0994
  107POPC   C3B 1776   3.839   4.333   7.143  0.0387  0.3390 -0.0808
  107POPC   C4B 1777   3.557   4.498   6.941 -0.2197  0.1011  0.1718
  108POPC   NC3 1778   4.318   2.001   9.064  0.0871  0.0474  0.1122
  108POPC   PO4 1779   3.938   1.659   9.171  0.1500  0.3042 -0.1680
  108POPC   GL1 1780   4.128   1.513   8.772 -0.0902  0.1895  0.1030
  108POPC   GL2 1781   4.063   1.786   8.558 -0.1230 -0.0023  0.0261
  108POPC   C1A 1782   4.290   1.318   8.453 -0.1285  0.1451 -0.0405
  108POPC   D2A 1783   4.274   1.186   8.078  0.3256  0.1722  0.2585
  108POPC   C3A 1784   4.644   1.355   7.820  0.0310 -0.2724  0.0571
  108POPC   C4A 1785   5.079   1.476   7.591  0.0335 -0.2732  0.0551
  108POPC   C1B 1786   4.197   2.181   8.222 -0.1723  0.2169  0.2351
  108POPC   C2B 1787   4.396   2.165   7.849 -0.1626 -0.3432  0.2053
  108POPC   C3B 1788   4.543   1.883   7.566  0.1380 -0.2729  0.0411
  108POPC   C4B 1789   4.743   1.616   7.259  0.1578  0.0335  0.2735
  109POPC   NC3 1790   3.712   0.226   8.940 -0.5289  0.3124  0.0306
  109POPC   PO4 1791   3.760   0.671   9.000 -0.0251  0.1286 -0.0111
  109POPC   GL1 1792   3.724   0.897   8.653  0.2086 -0.2183  0.3329
  109POPC   GL2 1793   3.416   0.947   8.436  0.0200  0.1921 -0.3036
  109POPC   C1A 1794   3.857   0.864   8.233 -0.1491  0.1276 -0.2140
  109POPC   D2A 1795   3.815   0.723   7.887  0.1931 -0.2545  0.0537
  109POPC   C3A 1796   4.071   0.755   7.418  0.2876 -0.0680  0.1030
  109POPC   C4A 1797   4.090   1.097   7.069  0.0055 -0.0240  0.0800
  109POPC   C1B 1798   3.338   0.741   8.029  0.1674 -0.0504  0.2761
  109POPC   C2B 1799   3.258   1.006   7.660 -0.1468 -0.1209  0.2812
  109POPC   C3B 1800   2.915   1.143   7.502 -0.0483  0.2448  0.2214
  109POPC   C4B 1801   2.585   1.053   7.584 -0.1928 -0.0894  0.2189
  110POPC   NC3 1802   6.992   6.473   8.671 -0.1119  0.3379  0.1686
  110POPC   PO4 1803   6.489   6.326   8.471 -0.0524  0.2892  0.2946
  110POPC   GL1 1804   6.325   6.560   8.096  0.1156  0.0351  0.1645
  110POPC   GL2 1805   6.152   6.865   8.158  0.0360 -0.0431 -0.2816
  110POPC   C1A 1806   6.248   6.613   7.717  0.2583  0.0568 -0.1787
  110POPC   D2A 1807   6.179   6.764   7.250 -0.2343 -0.0954  0.1005
  110POPC   C3A 1808   6.024   7.164   7.124 -0.1477 -0.3469  0.2713
  110POPC   C4A 1809   5.565   7.323   7.095 -0.0950 -0.1650 -0.2388
  110POPC   C1B 1810   5.789   6.795   7.841 -0.2170  0.0989 -0.1104
  110POPC   C2B 1811   5.657   6.864   7.392 -0.2175  0.2941  0.0770
  110POPC   C3B 1812   5.690   6.697   6.953 -0.3450 -0.3260  0.0234
  110POPC   C4B 1813   5.592   6.270   6.784  0.1472 -0.1846  0.1827
  111POPC   NC3 1814   7.771   9.939   8.640 -0.1066  0.2231  0.2777
  111POPC   PO4 1815   7.423   9.592   8.776 -0.0913 -0.2006 -0.0498
  111POPC   GL1 1816   7.461   9.686   8.368  0.0715  0.1095 -0.0969
  111POPC   GL2 1817   7.613   9.894   8.183  0.2294 -0.1466 -0.3977
  111POPC   C1A 1818   7.452   9.470   7.977 -0.0684 -0.0796  0.0536
  111POPC   D2A 1819   7.687   9.322   7.686 -0.1266  0.1735  0.2434
  111POPC   C3A 1820   7.626   9.325   7.296 -0.2293 -0.0433  0.0427
  111POPC   C4A 1821   7.766   9.009   7.060  0.0150 -0.0339  0.1053
  111POPC   C1B 1822   7.220  10.011   8.000  0.0242 -0.0853  0.0510
  111POPC   C2B 1823   7.081  10.156   7.511 -0.0797 -0.2396 -0.2898
  111POPC   C3B 1824   7.119  10.315   7.093 -0.0915  0.0529 -0.0770
  111POPC   C4B 1825   7.339  10.394   6.712 -0.0977  0.0583 -0.1199
  112POPC   NC3 1826   9.396   6.552   8.713 -0.1007 -0.2555 -0.0909
  112POPC   PO4 1827   9.447   7.009   8.783  0.2117 -0.1303  0.2879
  112POPC   GL1 1828   9.220   6.941   8.398  0.1924 -0.1263  0.1058
  112POPC   GL2 1829   9.494   7.179   8.308  0.1398 -0.0890  0.2508
  112POPC   C1A 1830   9.158   6.812   8.031 -0.2424 -0.0166  0.2559
  112POPC   D2A 1831   9.368   6.847   7.640  0.0327  0.0494 -0.3869
  112POPC   C3A 1832   9.545   7.232   7.676 -0.0815  0.0779 -0.1258
  112POPC   C4A 1833   9.840   7.518   7.652 -0.2423  0.1871 -0.3690
  112POPC   C1B 1834   9.847   7.258   8.144  0.2639 -0.2856  0.1801
  112POPC   C2B 1835  10.224   6.966   8.093 -0.1069  0.0265  0.0574
  112POPC   C3B 1836  10.329   6.546   7.850 -0.0170 -0.2894 -0.2159
  112POPC   C4B 1837  10.451   6.679   7.490 -0.2900 -0.1089 -0.5051
  113POPC   NC3 1838   3.511   2.091   8.757 -0.0625 -0.0798 -0.0179
  113POPC   PO4 1839   3.430   2.523   8.667 -0.0718  0.1399  0.1221
  113POPC   GL1 1840   3.678   2.602   8.308  0.3898 -0.0249  0.1999
  113POPC   GL2 1841   3.990   2.551   8.341 -0.1020 -0.1761 -0.0152
  113POPC   C1A 1842   3.525   2.451   7.881 -0.0235  0.1173  0.1029
  113POPC   D2A 1843   3.411   2.667   7.521  0.1876 -0.0803 -0.0912
  113POPC   C3A 1844   3.715   2.955   7.293 -0.2323 -0.0415  0.1613
  113POPC   C4A 1845   4.262   2.817   7.304 -0.1988  0.1569 -0.0220
  113POPC   C1B 1846   3.999   2.578   7.871  0.1966 -0.2155  0.2422
  113POPC   C2B 1847   3.869   2.480   7.458 -0.3420  0.2618  0.1519
  113POPC   C3B 1848   3.585   2.447   7.067 -0.1913  0.2015  0.1195
  113POPC   C4B 1849   3.169   2.486   7.042  0.0408  0.1064 -0.1462
  114POPC   NC3 1850   1.478   8.900   9.274  0.2388  0.1467  0.2569
  114POPC   PO4 1851   1.507   8.865   8.696  0.1489  0.0580 -0.1180
  114POPC   GL1 1852   1.537   9.096   8.345  0.3803  0.1032  0.1586
  114POPC   GL2 1853   1.823   9.010   8.157  0.1695 -0.1579 -0.1554
  114POPC   C1A 1854   1.523   9.404   7.990 -0.0976 -0.1551  0.0630
  114POPC   D2A 1855   1.576   9.484   7.586 -0.1185  0.2129  0.1610
  114POPC   C3A 1856   1.479   9.173   7.176 -0.0717 -0.0328  0.5235
  114POPC   C4A 1857   1.242   8.767   7.009 -0.4622 -0.1472  0.1056
  114POPC   C1B 1858   1.738   8.990   7.786  0.0113  0.1185 -0.2744
  114POPC   C2B 1859   1.982   9.140   7.386  0.4427 -0.2578  0.0535
  114POPC   C3B 1860   1.944   9.360   6.982 -0.0662 -0.0333 -0.2997
  114POPC   C4B 1861   2.001   9.684   6.619 -0.2861  0.1899 -0.3936
  115POPC   NC3 1862   0.060   9.204   8.681  0.0111  0.0101  0.1262
  115POPC   PO4 1863  -0.189   8.928   8.439 -0.0757 -0.2344  0.1474
  115POPC   GL1 1864  -0.245   8.879   8.072  0.4992 -0.1022 -0.1605
  115POPC   GL2 1865  -0.256   9.143   7.824  0.3263  0.0846  0.1137
  115POPC   C1A 1866  -0.595   8.642   7.781  0.2301  0.0933  0.1978
  115POPC   D2A 1867  -0.862   8.384   7.658  0.2699 -0.0114 -0.1066
  115POPC   C3A 1868  -0.696   7.976   7.449  0.2278 -0.0093  0.1573
  115POPC   C4A 1869  -0.468   7.877   7.104 -0.1427 -0.1231 -0.2681
  115POPC   C1B 1870  -0.248   8.937   7.432  0.2138  0.0189 -0.1447
  115POPC   C2B 1871  -0.414   9.072   7.073  0.2604 -0.0839  0.0362
  115POPC   C3B 1872  -0.261   9.436   6.767  0.0079 -0.2520 -0.3170
  115POPC   C4B 1873   0.087   9.443   6.518 -0.0042 -0.0458 -0.2673
  116POPC   NC3 1874   7.023   5.851   9.121  0.0469 -0.1197 -0.3155
  116POPC   PO4 1875   7.169   5.641   8.816  0.4835 -0.0095  0.0564
  116POPC   GL1 1876   7.154   5.828   8.334 -0.1122 -0.2009 -0.3442
  116POPC   GL2 1877   7.183   6.145   8.225 -0.0142 -0.1342  0.3190
  116POPC   C1A 1878   7.166   5.684   7.904 -0.2382 -0.1609 -0.4520
  116POPC   D2A 1879   7.412   5.462   7.572 -0.0063 -0.0165  0.1198
  116POPC   C3A 1880   7.522   5.600   7.245 -0.0773  0.0555  0.0600
  116POPC   C4A 1881   7.795   5.643   6.969  0.0396  0.0118 -0.0453
  116POPC   C1B 1882   6.836   6.071   7.978 -0.5424 -0.0763 -0.1994
  116POPC   C2B 1883   6.692   5.985   7.613  0.0623  0.4491 -0.2072
  116POPC   C3B 1884   6.947   5.711   7.360  0.0156  0.0321  0.2485
  116POPC   C4B 1885   6.617   5.512   6.984  0.4229  0.0700 -0.0708
  117POPC   NC3 1886   8.282   9.100   8.589  0.0631 -0.0544  0.1726
  117POPC   PO4 1887   7.921   9.392   8.695  0.1611 -0.1669 -0.2455
  117POPC   GL1 1888   8.055   9.682   8.256  0.1890 -0.2484 -0.0026
  117POPC   GL2 1889   8.416   9.576   8.018  0.0696 -0.7446 -0.3802
  117POPC   C1A 1890   7.928   9.734   7.832 -0.1012 -0.0042 -0.1857
  117POPC   D2A 1891   7.944   9.738   7.332  0.1671 -0.1384  0.1388
  117POPC   C3A 1892   7.569   9.834   7.099 -0.0216 -0.1807 -0.1237
  117POPC   C4A 1893   7.602   9.955   6.625 -0.0066 -0.0805  0.0486
  117POPC   C1B 1894   8.355   9.631   7.627 -0.0226 -0.1547  0.0069
  117POPC   C2B 1895   8.470   9.761   7.187  0.0207 -0.0153  0.2533
  117POPC   C3B 1896   8.339   9.824   6.792  0.2544  0.0675 -0.3121
  117POPC   C4B 1897   8.104  10.019   6.436 -0.4204 -0.0713 -0.0541
  118POPC   NC3 1898   7.223   1.485   8.653  0.1420 -0.4330 -0.0125
  118POPC   PO4 1899   7.631   1.696   8.689  0.2624 -0.1149 -0.1020
  118POPC   GL1 1900   7.490   1.712   8.279  0.0267  0.0922 -0.1508
  118POPC   GL2 1901   7.417   2.020   8.140  0.2957 -0.0371  0.0773
  118POPC   C1A 1902   7.490   1.497   7.979 -0.0205 -0.0826 -0.1762
  118POPC   D2A 1903   7.588   1.153   7.817 -0.1170 -0.1304  0.2689
  118POPC   C3A 1904   7.822   1.334   7.521  0.1124 -0.1117 -0.0156
  118POPC   C4A 1905   7.852   1.468   7.106 -0.1526  0.0891  0.2613
  118POPC   C1B 1906   7.729   2.224   7.898 -0.0571  0.3534 -0.0177
  118POPC   C2B 1907   8.164   2.222   7.780  0.2872  0.0335 -0.0163
  118POPC   C3B 1908   8.453   2.152   7.445  0.2687  0.2138 -0.1341
  118POPC   C4B 1909   8.357   2.206   6.934 -0.1716  0.0278 -0.0371
  119POPC   NC3 1910   8.562   1.128   8.554  0.2963  0.4381  0.2289
  119POPC   PO4 1911   8.414   1.644   8.585  0.1220 -0.3266 -0.1207
  119POPC   GL1 1912   8.325   1.471   8.183  0.3085  0.0125  0.2173
  119POPC   GL2 1913   8.044   1.433   8.021 -0.0192  0.1145 -0.0983
  119POPC   C1A 1914   8.348   1.685   7.696 -0.1652  0.0778 -0.0035
  119POPC   D2A 1915   8.226   1.670   7.339 -0.1118 -0.0611  0.0581
  119POPC   C3A 1916   8.594   1.583   7.078 -0.2220  0.0004  0.1698
  119POPC   C4A 1917   8.644   1.256   6.790  0.0823  0.4594 -0.0020
  119POPC   C1B 1918   7.846   1.775   7.758  0.0650  0.1417  0.1157
  119POPC   C2B 1919   7.890   2.057   7.375 -0.0170  0.0812 -0.2505
  119POPC   C3B 1920   7.961   2.361   7.263 -0.1474  0.2108  0.0227
  119POPC   C4B 1921   7.952   2.697   7.028  0.1738  0.0231 -0.4300
  120POPC   NC3 1922   9.420   3.183   8.563  0.1525  0.5133  0.0070
  120POPC   PO4 1923   9.486   3.614   8.467 -0.1986 -0.2216  0.0391
  120POPC   GL1 1924   9.825   3.724   8.220  0.2406 -0.0860 -0.2032
  120POPC   GL2 1925   9.683   4.131   8.317 -0.2930 -0.0727 -0.3198
  120POPC   C1A 1926  10.043   3.702   7.857  0.0660 -0.0797 -0.1497
  120POPC   D2A 1927  10.388   3.954   7.563 -0.2106 -0.1364 -0.1653
  120POPC   C3A 1928  10.722   3.768   7.387 -0.1099 -0.2727 -0.2504
  120POPC   C4A 1929  10.903   3.918   7.000 -0.0164 -0.1209 -0.1062
  120POPC   C1B 1930   9.714   4.033   7.797  0.3205 -0.1374 -0.0546
  120POPC   C2B 1931   9.806   3.857   7.444  0.4430 -0.1311  0.0997
  120POPC   C3B 1932   9.992   3.704   7.099 -0.6003 -0.2142 -0.1392
  120POPC   C4B 1933  10.030   3.574   6.724  0.0598  0.3048 -0.1500
  121POPC   NC3 1934   3.994   3.334   8.966  0.1119  0.1105 -0.3360
  121POPC   PO4 1935   3.649   3.605   9.186  0.1879 -0.0018  0.4050
  121POPC   GL1 1936   3.382   3.562   8.825 -0.3427  0.2581 -0.1318
  121POPC   GL2 1937   3.230   3.456   8.728  0.1564 -0.1675 -0.0102
  121POPC   C1A 1938   3.370   3.790   8.405  0.0854 -0.0570  0.1847
  121POPC   D2A 1939   3.177   3.806   7.955 -0.3550 -0.2171  0.1556
  121POPC   C3A 1940   3.422   4.210   7.929  0.4585 -0.0060  0.2886
  121POPC   C4A 1941   3.632   4.684   7.801 -0.0541 -0.1060 -0.0257
  121POPC   C1B 1942   3.139   3.274   8.347  0.1724  0.1002 -0.2135
  121POPC   C2B 1943   3.052   3.274   7.842  0.0759 -0.1137 -0.1973
  121POPC   C3B 1944   3.245   3.185   7.486  0.1608  0.2397 -0.0516
  121POPC   C4B 1945   3.304   3.141   7.044  0.0626  0.1914  0.2130
  122POPC   NC3 1946   5.544   9.174   8.690 -0.3705  0.0294 -0.0413
  122POPC   PO4 1947   5.142   9.090   8.466  0.2173 -0.0098  0.3304
  122POPC   GL1 1948   4.798   8.907   8.121  0.0727 -0.0102  0.2143
  122POPC   GL2 1949   4.522   8.921   8.249  0.1458 -0.0504 -0.1439
  122POPC   C1A 1950   4.235   9.019   7.921  0.3218 -0.2583  0.0898
  122POPC   D2A 1951   4.180   8.910   7.424  0.0604  0.1486 -0.0425
  122POPC   C3A 1952   4.559   8.917   7.138  0.1603  0.1468 -0.0599
  122POPC   C4A 1953   4.924   8.584   7.053  0.1209 -0.1317 -0.1003
  122POPC   C1B 1954   4.359   8.491   7.939 -0.2719 -0.0032 -0.0398
  122POPC   C2B 1955   4.077   8.420   7.504  0.2706  0.2490  0.0710
  122POPC   C3B 1956   3.971   8.484   7.102  0.1616  0.1466 -0.2106
  122POPC   C4B 1957   3.659   8.189   6.892  0.0687  0.0999  0.1942
  123POPC   NC3 1958   5.730   5.178   8.482 -0.3035 -0.2472 -0.1613
  123POPC   PO4 1959   5.862   4.706   8.625  0.0147  0.2683  0.2903
  123POPC   GL1 1960   5.824   4.767   8.162 -0.1043  0.1683  0.0675
  123POPC   GL2 1961   5.496   4.970   8.076  0.0989  0.2692 -0.3497
  123POPC   C1A 1962   5.600   4.721   7.708  0.0849 -0.0613  0.2013
  123POPC   D2A 1963   5.274   4.757   7.366  0.2507 -0.1433  0.2661
  123POPC   C3A 1964   5.251   4.950   6.989 -0.1091  0.3876 -0.3041
  123POPC   C4A 1965   5.014   5.216   6.838 -0.0760 -0.1716 -0.0073
  123POPC   C1B 1966   5.143   5.070   7.792  0.0023 -0.1116 -0.2414
  123POPC   C2B 1967   5.053   5.222   7.452 -0.0294 -0.1606  0.2899
  123POPC   C3B 1968   4.700   5.256   7.257 -0.0372 -0.0336 -0.1174
  123POPC   C4B 1969   4.298   5.135   7.243 -0.1045  0.0150 -0.1060
  124POPC   NC3 1970   7.379   8.266   8.982 -0.0584  0.2326  0.2006
  124POPC   PO4 1971   7.462   8.566   8.696 -0.1507  0.2354  0.0880
  124POPC   GL1 1972   7.504   8.636   8.219  0.0710 -0.1487  0.1784
  124POPC   GL2 1973   7.305   8.662   7.916  0.0843 -0.0088  0.0108
  124POPC   C1A 1974   7.778   8.840   7.877 -0.0017 -0.0857  0.2575
  124POPC   D2A 1975   7.934   8.832   7.529  0.0774  0.0988  0.1811
  124POPC   C3A 1976   7.701   8.539   7.278 -0.4450 -0.1709 -0.1605
  124POPC   C4A 1977   7.751   8.153   7.035  0.0920  0.0605  0.0749
  124POPC   C1B 1978   7.327   8.399   7.598 -0.0379 -0.2062  0.2021
  124POPC   C2B 1979   7.186   8.130   7.291 -0.0051 -0.1834 -0.2041
  124POPC   C3B 1980   6.921   7.880   7.015  0.0085 -0.1777 -0.0509
  124POPC   C4B 1981   6.601   7.592   6.860  0.1409  0.0562 -0.0246
  125POPC   NC3 1982   9.716   7.758   8.842  0.1575  0.3110 -0.0739
  125POPC   PO4 1983   9.252   7.716   8.535  0.0839  0.0207 -0.1614
  125POPC   GL1 1984   9.145   7.976   8.103 -0.0062 -0.3969 -0.0321
  125POPC   GL2 1985   8.810   7.914   7.967  0.0413 -0.2855  0.2757
  125POPC   C1A 1986   9.004   8.232   7.630 -0.0617  0.1762  0.3670
  125POPC   D2A 1987   8.754   8.203   7.325 -0.4607 -0.1295 -0.2492
  125POPC   C3A 1988   8.903   8.233   7.031  0.0997 -0.1978 -0.0804
  125POPC   C4A 1989   9.112   8.638   6.875 -0.0336 -0.1781  0.0700
  125POPC   C1B 1990   8.775   7.800   7.646 -0.0433 -0.1059 -0.0060
  125POPC   C2B 1991   8.439   7.795   7.457  0.0374 -0.0499  0.1823
  125POPC   C3B 1992   8.068   7.941   7.553  0.3567 -0.2755 -0.3574
  125POPC   C4B 1993   7.625   7.992   7.506 -0.0593  0.4059  0.1092
  126POPC   NC3 1994   8.869   0.467   8.966 -0.1600 -0.0755  0.0522
  126POPC   PO4 1995   8.532   0.592   8.634 -0.2053  0.1388  0.0566
  126POPC   GL1 1996   8.389   0.360   8.244 -0.0741  0.1376  0.0532
  126POPC   GL2 1997   7.990   0.291   8.241  0.3816  0.2317 -0.1472
  126POPC   C1A 1998   8.257   0.511   7.864 -0.1647  0.3634 -0.2786
  126POPC   D2A 1999   8.306   1.030   7.867  0.5979  0.1698  0.1449
  126POPC   C3A 2000   8.257   1.125   7.467 -0.0998 -0.0359 -0.1344
  126POPC   C4A 2001   8.201   1.124   7.047 -0.0144  0.2981 -0.2374
  126POPC   C1B 2002   7.734   0.306   7.861  0.0991 -0.0991 -0.2982
  126POPC   C2B 2003   7.473  -0.031   7.595 -0.1497 -0.1997  0.3676
  126POPC   C3B 2004   7.693  -0.128   7.218  0.1208 -0.0216 -0.2178
  126POPC   C4B 2005   7.898  -0.306   6.898  0.3490  0.3257  0.2518
  127POPC   NC3 2006   7.546   4.861   8.465  0.0360  0.1361  0.0406
  127POPC   PO4 2007   7.178   5.084   8.686 -0.3180  0.1502 -0.2375
  127POPC   GL1 2008   7.094   4.915   8.213 -0.1334  0.3998  0.0911
  127POPC   GL2 2009   6.879   4.604   8.128 -0.0937 -0.0507 -0.4715
  127POPC   C1A 2010   7.023   5.162   7.827  0.1638 -0.2312 -0.0297
  127POPC   D2A 2011   6.858   5.170   7.398 -0.1062 -0.1578  0.0419
  127POPC   C3A 2012   7.095   5.371   7.062  0.1463 -0.1910  0.5476
  127POPC   C4A 2013   7.377   5.620   6.734 -0.1447 -0.1949 -0.1025
  127POPC   C1B 2014   7.029   4.678   7.753  0.1527  0.0728  0.0130
  127POPC   C2B 2015   6.840   4.627   7.386 -0.0341  0.0537  0.0661
  127POPC   C3B 2016   6.612   4.481   7.060 -0.0219  0.0340  0.2857
  127POPC   C4B 2017   6.500   4.700   6.661  0.2358  0.0822  0.1523
  128POPC   NC3 2018   7.820   8.879   8.529  0.0043 -0.2059  0.1245
  128POPC   PO4 2019   8.263   8.617   8.665 -0.2047 -0.1607 -0.1613
  128POPC   GL1 2020   8.311   8.788   8.186  0.2652  0.0677  0.0207
  128POPC   GL2 2021   8.589   9.070   8.108  0.0177 -0.3178 -0.2607
  128POPC   C1A 2022   8.206   9.128   7.868  0.1380  0.1741 -0.1549
  128POPC   D2A 2023   8.303   9.090   7.374  0.2330  0.3446  0.1213
  128POPC   C3A 2024   8.148   9.377   7.125  0.1162 -0.0492  0.2556
  128POPC   C4A 2025   7.911   9.621   6.858 -0.1981 -0.0975  0.0050
  128POPC   C1B 2026   8.729   9.152   7.706 -0.2658  0.1369 -0.1446
  128POPC   C2B 2027   8.702   9.330   7.432 -0.4315 -0.1552 -0.1073
  128POPC   C3B 2028   8.603   9.306   6.987 -0.1067  0.1528  0.1527
  128POPC   C4B 2029   8.409   9.387   6.629 -0.0223 -0.0872 -0.5796
  129POPC   NC3 2030   4.620   4.623   9.250  0.2245  0.1674  0.1068
  129POPC   PO4 2031   4.554   5.004   9.127 -0.1070 -0.2610  0.0565
  129POPC   GL1 2032   4.453   5.192   8.696 -0.2177 -0.0774 -0.1698
  129POPC   GL2 2033   4.189   5.043   8.643 -0.0180 -0.2074 -0.1270
  129POPC   C1A 2034   4.625   5.518   8.361  0.0799  0.1468 -0.1680
  129POPC   D2A 2035   4.643   5.941   8.227 -0.0289  0.5055 -0.1390
  129POPC   C3A 2036   4.459   6.110   7.963  0.1913  0.2594  0.1173
  129POPC   C4A 2037   4.182   6.089   7.686  0.4019  0.1900 -0.0076
  129POPC   C1B 2038   4.230   5.215   8.219 -0.3906  0.0539 -0.1432
  129POPC   C2B 2039   4.136   5.115   7.719  0.0404 -0.5055 -0.1729
  129POPC   C3B 2040   3.957   4.823   7.416  0.0766  0.1123 -0.3964
  129POPC   C4B 2041   3.879   4.864   7.003 -0.1795 -0.1188  0.0116
  130POPC   NC3 2042   8.406   6.604   8.731 -0.2337 -0.1691 -0.1648
  130POPC   PO4 2043   8.246   6.293   8.569  0.0327 -0.1080  0.2113
  130POPC   GL1 2044   8.221   6.291   8.194  0.1472  0.5385  0.1792
  130POPC   GL2 2045   8.414   6.336   7.984 -0.2417 -0.1048  0.2664
  130POPC   C1A 2046   8.020   6.094   7.820 -0.1862 -0.1702 -0.2136
  130POPC   D2A 2047   7.612   5.920   7.887 -0.0860  0.1486 -0.0777
  130POPC   C3A 2048   7.265   6.080   7.621  0.0151  0.2446 -0.0692
  130POPC   C4A 2049   7.017   6.198   7.288  0.0033  0.1425  0.0745
  130POPC   C1B 2050   8.541   6.362   7.526 -0.1324  0.1128  0.1509
  130POPC   C2B 2051   8.771   6.165   7.215 -0.0268  0.1956 -0.1982
  130POPC   C3B 2052   8.817   5.722   7.058 -0.4256 -0.2819  0.0593
  130POPC   C4B 2053   8.654   5.355   7.079  0.0403 -0.2887 -0.0501
  131POPC   NC3 2054   0.949   7.782   9.206 -0.0075  0.2678 -0.2138
  131POPC   PO4 2055   1.242   8.103   9.023 -0.2232 -0.0779  0.1003
  131POPC   GL1 2056   1.290   7.767   8.704 -0.0023  0.1778 -0.1481
  131POPC   GL2 2057   0.994   7.650   8.743  0.1579 -0.0451 -0.1535
  131POPC   C1A 2058   1.265   7.679   8.343  0.3535 -0.0333 -0.1878
  131POPC   D2A 2059   1.203   8.034   8.156 -0.0201 -0.0863  0.1107
  131POPC   C3A 2060   1.558   8.223   7.949  0.1886  0.0050 -0.1460
  131POPC   C4A 2061   1.859   8.495   7.870 -0.1435  0.1330 -0.2631
  131POPC   C1B 2062   1.102   7.263   8.387  0.1607  0.3323 -0.0950
  131POPC   C2B 2063   1.057   7.188   7.967  0.1999  0.4158  0.0236
  131POPC   C3B 2064   0.923   7.159   7.560  0.0424 -0.2897  0.0527
  131POPC   C4B 2065   1.040   7.435   7.235  0.2028  0.0483 -0.0110
  132POPC   NC3 2066   0.181   1.062   8.693 -0.0063 -0.1845 -0.0632
  132POPC   PO4 2067  -0.206   0.890   8.464  0.2074 -0.0944  0.2274
  132POPC   GL1 2068  -0.261   1.113   8.017 -0.1124 -0.1056 -0.2707
  132POPC   GL2 2069  -0.061   1.317   7.915  0.1693  0.1304  0.2097
  132POPC   C1A 2070  -0.368   0.995   7.540 -0.0798  0.0014 -0.0363
  132POPC   D2A 2071  -0.352   0.627   7.376 -0.0114  0.0270  0.1349
  132POPC   C3A 2072  -0.058   0.304   7.477 -0.0942 -0.1497  0.0857
  132POPC   C4A 2073   0.195  -0.044   7.494 -0.0657 -0.0703  0.3541
  132POPC   C1B 2074   0.019   1.371   7.479 -0.1305 -0.3491  0.1181
  132POPC   C2B 2075  -0.064   1.607   7.141 -0.4321 -0.0636 -0.1963
  132POPC   C3B 2076  -0.406   1.847   6.847 -0.1150 -0.2859  0.0072
  132POPC   C4B 2077  -0.506   1.819   6.418  0.0188  0.1352  0.2499
  133POPC   NC3 2078   2.995   8.114   9.616 -0.1429 -0.1292  0.0703
  133POPC   PO4 2079   2.916   7.958   9.213  0.0871 -0.0060 -0.0324
  133POPC   GL1 2080   2.838   7.693   8.858 -0.0495 -0.0578  0.0380
  133POPC   GL2 2081   2.568   7.757   8.743  0.1607 -0.0147 -0.0572
  133POPC   C1A 2082   3.005   7.336   8.745 -0.1364  0.2483  0.0381
  133POPC   D2A 2083   3.005   7.000   8.416 -0.1008 -0.1398 -0.2757
  133POPC   C3A 2084   3.401   6.871   8.426  0.4878  0.0336 -0.2792
  133POPC   C4A 2085   3.654   6.495   8.364  0.0786 -0.1549  0.2191
  133POPC   C1B 2086   2.603   7.986   8.231  0.1293 -0.2024 -0.2141
  133POPC   C2B 2087   2.630   8.266   8.034  0.1615 -0.1801 -0.0119
  133POPC   C3B 2088   2.900   8.318   7.615  0.1024 -0.1070 -0.1032
  133POPC   C4B 2089   3.141   8.311   7.269  0.2059  0.3474  0.2887
  134POPC   NC3 2090   3.407  10.051   9.230 -0.3017 -0.1383 -0.2548
  134POPC   PO4 2091   3.424  10.409   8.900  0.3554  0.0075  0.0895
  134POPC   GL1 2092   3.593  10.553   8.452 -0.0193 -0.2366  0.0895
  134POPC   GL2 2093   3.623  10.243   8.314 -0.5153 -0.1206 -0.0886
  134POPC   C1A 2094   3.586  10.863   8.129  0.3383 -0.0069 -0.0028
  134POPC   D2A 2095   3.516  10.898   7.712  0.0567  0.0328  0.0338
  134POPC   C3A 2096   3.289  11.098   7.510  0.1657  0.1513 -0.0882
  134POPC   C4A 2097   3.118  11.262   7.186  0.2296  0.1428  0.1629
  134POPC   C1B 2098   3.251  10.037   8.114  0.0074 -0.1922  0.3265
  134POPC   C2B 2099   2.986   9.820   7.827  0.1841 -0.0731  0.0132
  134POPC   C3B 2100   2.580   9.577   7.683  0.1694 -0.5595  0.0545
  134POPC   C4B 2101   2.090   9.526   7.680 -0.2208 -0.0147 -0.1397
  135POPC   NC3 2102   8.250   6.796   8.310 -0.0029  0.1365 -0.4866
  135POPC   PO4 2103   8.249   7.334   8.283 -0.0159 -0.0261  0.2245
  135POPC   GL1 2104   8.066   7.141   7.926  0.1733 -0.0565  0.3720
  135POPC   GL2 2105   8.223   6.763   7.807  0.0161  0.0402 -0.0551
  135POPC   C1A 2106   7.672   6.902   7.726 -0.0195  0.3533 -0.1265
  135POPC   D2A 2107   7.820   6.519   7.570 -0.5029 -0.2882  0.0250
  135POPC   C3A 2108   8.108   6.509   7.206  0.0305 -0.1698 -0.2712
  135POPC   C4A 2109   7.958   6.144   6.900 -0.1112  0.0248  0.1827
  135POPC   C1B 2110   8.078   7.025   7.348 -0.0343  0.1460 -0.1140
  135POPC   C2B 2111   7.992   6.992   7.011 -0.0631 -0.0116  0.1170
  135POPC   C3B 2112   7.915   6.858   6.690  0.0220 -0.0243 -0.0018
  135POPC   C4B 2113   7.642   6.508   6.666  0.1782  0.0847 -0.2280
  136POPC   NC3 2114   6.240   8.911   8.857 -0.5238 -0.0354  0.0096
  136POPC   PO4 2115   6.628   8.822   8.788 -0.0170 -0.0460  0.0382
  136POPC   GL1 2116   6.500   8.924   8.380 -0.0781 -0.1515 -0.1186
  136POPC   GL2 2117   6.286   8.838   8.334  0.0117  0.1628  0.1627
  136POPC   C1A 2118   6.604   8.851   7.885  0.1289  0.0637  0.1417
  136POPC   D2A 2119   6.714   9.152   7.575  0.0445  0.1197  0.0836
  136POPC   C3A 2120   6.605   9.413   7.173  0.1486  0.0065  0.3347
  136POPC   C4A 2121   6.760   9.464   6.782  0.0816  0.1870  0.0164
  136POPC   C1B 2122   6.145   8.880   7.967  0.0206 -0.3207 -0.1702
  136POPC   C2B 2123   6.188   8.959   7.523  0.1555 -0.5016  0.4887
  136POPC   C3B 2124   6.371   8.974   7.167  0.0521 -0.0668 -0.1181
  136POPC   C4B 2125   6.461   9.068   6.772  0.0059  0.4011 -0.0228
  137POPC   NC3 2126   2.164   9.412   8.675 -0.0077  0.1209  0.1721
  137POPC   PO4 2127   2.022   9.715   8.943 -0.1546 -0.1532  0.1359
  137POPC   GL1 2128   1.696   9.837   8.699 -0.1127 -0.0272  0.2084
  137POPC   GL2 2129   1.691   9.568   8.405  0.0010 -0.0542 -0.0579
  137POPC   C1A 2130   1.687  10.144   8.314 -0.0211  0.0068 -0.1333
  137POPC   D2A 2131   1.279  10.364   8.136 -0.0379 -0.3465 -0.1866
  137POPC   C3A 2132   1.326  10.322   7.679 -0.1431 -0.0180 -0.0544
  137POPC   C4A 2133   1.236  10.224   7.292 -0.0728  0.0270 -0.1307
  137POPC   C1B 2134   1.875   9.767   8.041  0.1264 -0.1365  0.1079
  137POPC   C2B 2135   1.906  10.226   7.869  0.1625  0.0064  0.2283
  137POPC   C3B 2136   1.940  10.631   8.024 -0.2205  0.2110 -0.3033
  137POPC   C4B 2137   1.947  11.011   8.105 -0.0316 -0.0440 -0.2199
  138POPC   NC3 2138   5.078   5.750   8.920  0.5654 -0.2930 -0.1677
  138POPC   PO4 2139   5.397   5.502   8.676  0.0416 -0.2845 -0.2938
  138POPC   GL1 2140   5.346   5.453   8.239 -0.0041  0.0153 -0.0308
  138POPC   GL2 2141   5.069   5.422   8.176 -0.2386  0.2121 -0.0552
  138POPC   C1A 2142   5.469   5.414   7.852  0.0614  0.3319  0.2580
  138POPC   D2A 2143   5.431   5.583   7.421 -0.0206  0.0730 -0.0599
  138POPC   C3A 2144   5.374   5.484   7.081  0.0700  0.0498  0.3106
  138POPC   C4A 2145   5.254   5.653   6.774 -0.2594  0.0077  0.1464
  138POPC   C1B 2146   4.718   5.408   7.846 -0.1683 -0.0842  0.0140
  138POPC   C2B 2147   4.470   5.612   7.612  0.0444 -0.2340 -0.1240
  138POPC   C3B 2148   4.357   5.630   7.286 -0.1316 -0.0712  0.0477
  138POPC   C4B 2149   4.430   5.348   6.857 -0.1003 -0.0491  0.0283
  139POPC   NC3 2150   8.012   1.423   8.539  0.0187 -0.0459 -0.5271
  139POPC   PO4 2151   8.110   0.986   8.356 -0.2731 -0.1728  0.0807
  139POPC   GL1 2152   8.567   0.799   8.158  0.2084 -0.0914  0.1140
  139POPC   GL2 2153   8.900   0.740   8.222  0.1358  0.2132 -0.0483
  139POPC   C1A 2154   8.663   0.791   7.651 -0.1237 -0.0139  0.0976
  139POPC   D2A 2155   8.636   0.931   7.226  0.0688  0.1288 -0.3739
  139POPC   C3A 2156   8.291   0.670   7.085  0.1580  0.0981 -0.1279
  139POPC   C4A 2157   7.932   0.545   6.812  0.0036  0.0135 -0.0466
  139POPC   C1B 2158   8.846   0.438   7.921  0.0934  0.0845 -0.0483
  139POPC   C2B 2159   9.008   0.002   7.780 -0.2908  0.4151 -0.2458
  139POPC   C3B 2160   9.383  -0.392   7.654  0.0654  0.0593  0.0364
  139POPC   C4B 2161   9.506  -0.813   7.739  0.1124 -0.1031  0.0543
  140POPC   NC3 2162   1.926   8.609   8.544  0.0525 -0.1672 -0.1056
  140POPC   PO4 2163   2.337   8.854   8.580 -0.0646 -0.2808  0.0564
  140POPC   GL1 2164   2.570   8.762   8.165  0.0045 -0.1250 -0.3110
  140POPC   GL2 2165   2.261   8.719   7.947  0.0917 -0.0884 -0.0932
  140POPC   C1A 2166   2.774   8.788   7.766  0.0802  0.3243 -0.0898
  140POPC   D2A 2167   2.751   8.720   7.377 -0.2167 -0.0158 -0.0322
  140POPC   C3A 2168   3.112   8.786   7.346 -0.2736 -0.4038  0.2825
  140POPC   C4A 2169   3.299   9.189   7.190  0.0759 -0.3994 -0.1379
  140POPC   C1B 2170   2.335   8.499   7.569  0.1363  0.1938  0.1944
  140POPC   C2B 2171   2.136   8.293   7.285 -0.1495  0.0952 -0.1732
  140POPC   C3B 2172   1.902   8.200   6.909 -0.0703  0.0139  0.3967
  140POPC   C4B 2173   2.037   8.382   6.589  0.3139  0.0657  0.2186
  141POPC   NC3 2174   7.028   7.382   8.836  0.0745  0.2272  0.1386
  141POPC   PO4 2175   6.816   7.224   8.470 -0.0183  0.0391 -0.0831
  141POPC   GL1 2176   6.882   7.083   8.081 -0.0339 -0.0027 -0.1351
  141POPC   GL2 2177   6.621   6.995   7.963  0.1646  0.3522 -0.0202
  141POPC   C1A 2178   7.098   7.074   7.668  0.1091  0.0454  0.1805
  141POPC   D2A 2179   7.030   6.835   7.178  0.0919 -0.0680 -0.0088
  141POPC   C3A 2180   7.147   6.425   6.859 -0.1221 -0.0194  0.1544
  141POPC   C4A 2181   7.453   6.076   6.905  0.2248  0.0089 -0.0530
  141POPC   C1B 2182   6.651   6.999   7.486  0.3059 -0.0223  0.0371
  141POPC   C2B 2183   6.627   7.085   6.947 -0.3493  0.1790 -0.1000
  141POPC   C3B 2184   6.630   6.883   6.595 -0.0790 -0.2829 -0.3463
  141POPC   C4B 2185   6.798   6.884   6.222  0.1886 -0.0969 -0.0484
  142POPC   NC3 2186   4.279   9.966   8.846  0.1179  0.1284  0.2880
  142POPC   PO4 2187   4.031  10.397   8.615  0.1491  0.0138  0.2340
  142POPC   GL1 2188   4.158  10.476   8.297 -0.0937 -0.0506  0.2965
  142POPC   GL2 2189   4.409  10.579   8.258 -0.1391  0.1966 -0.0177
  142POPC   C1A 2190   3.923  10.456   7.910  0.0768 -0.0054 -0.2678
  142POPC   D2A 2191   3.550  10.439   7.837 -0.3059 -0.0230  0.2307
  142POPC   C3A 2192   3.409   9.986   7.610 -0.0373 -0.0722 -0.2079
  142POPC   C4A 2193   3.329   9.568   7.490 -0.0180 -0.1149 -0.2454
  142POPC   C1B 2194   4.379  10.737   7.765  0.0407 -0.1377 -0.2445
  142POPC   C2B 2195   4.029  10.875   7.654  0.2625  0.1428 -0.0520
  142POPC   C3B 2196   3.786  10.933   7.288 -0.2919  0.1228  0.0912
  142POPC   C4B 2197   3.452  10.872   7.084 -0.2795 -0.0832  0.0037
  143POPC   NC3 2198   6.575   0.373   8.471  0.1010  0.2180 -0.0214
  143POPC   PO4 2199   6.205   0.641   8.604  0.2657  0.1386  0.2857
  143POPC   GL1 2200   6.250   0.812   8.261  0.0748  0.0844 -0.4226
  143POPC   GL2 2201   6.083   1.089   8.074 -0.3337  0.1104  0.3332
  143POPC   C1A 2202   6.312   0.712   7.834  0.4571  0.0403 -0.0338
  143POPC   D2A 2203   6.352   0.549   7.364 -0.2736 -0.1151 -0.0574
  143POPC   C3A 2204   6.652   0.673   7.032 -0.1837  0.0065  0.0907
  143POPC   C4A 2205   6.918   0.768   6.656  0.0123 -0.2630  0.4784
  143POPC   C1B 2206   5.958   1.397   7.848 -0.4124  0.1501 -0.0385
  143POPC   C2B 2207   6.045   1.714   7.760  0.2746  0.0629  0.1595
  143POPC   C3B 2208   6.329   1.837   7.482  0.0199  0.0762 -0.0051
  143POPC   C4B 2209   6.688   1.549   7.280 -0.4563 -0.2637 -0.4178
  144POPC   NC3 2210   0.973   3.833   9.610 -0.2202 -0.0450 -0.0248
  144POPC   PO4 2211   1.400   3.685   9.560 -0.0070  0.3002  0.1254
  144POPC   GL1 2212   1.418   3.655   9.050 -0.0123 -0.2622 -0.0867
  144POPC   GL2 2213   1.127   3.381   9.048  0.0796 -0.2451  0.2136
  144POPC   C1A 2214   1.430   3.708   8.617 -0.0666 -0.2248  0.0350
  144POPC   D2A 2215   1.531   4.087   8.419 -0.1421  0.0419 -0.0173
  144POPC   C3A 2216   1.522   4.495   8.582 -0.2081 -0.1032 -0.1746
  144POPC   C4A 2217   1.870   4.833   8.413  0.3135  0.3398 -0.1612
  144POPC   C1B 2218   0.977   3.618   8.655 -0.1702 -0.1147 -0.1964
  144POPC   C2B 2219   1.093   3.900   8.272 -0.0964  0.0217  0.1082
  144POPC   C3B 2220   1.392   4.224   7.990  0.2411 -0.2344 -0.2823
  144POPC   C4B 2221   1.772   4.435   8.124 -0.1749 -0.1104  0.2421
  145POPC   NC3 2222   4.081   6.297   9.304  0.0497  0.2675  0.2242
  145POPC   PO4 2223   4.468   6.523   9.060 -0.2617  0.0971 -0.0231
  145POPC   GL1 2224   4.245   6.485   8.790 -0.0108 -0.1896  0.0533
  145POPC   GL2 2225   3.918   6.383   8.789  0.0437  0.0291 -0.1844
  145POPC   C1A 2226   4.021   6.763   8.521  0.0714 -0.1341  0.7222
  145POPC   D2A 2227   3.810   7.039   8.261  0.2512 -0.0765  0.2856
  145POPC   C3A 2228   3.388   6.945   7.943  0.0725 -0.2098 -0.1410
  145POPC   C4A 2229   3.065   6.902   7.612 -0.0334  0.1674  0.1207
  145POPC   C1B 2230   3.680   6.095   8.623 -0.0007 -0.2705 -0.3022
  145POPC   C2B 2231   3.697   5.677   8.413  0.3073 -0.0421  0.1723
  145POPC   C3B 2232   3.893   5.584   8.145  0.0762 -0.2505  0.2238
  145POPC   C4B 2233   4.239   5.699   8.059  0.0218  0.1827 -0.2505
  146POPC   NC3 2234   1.039   1.170   8.626  0.1775  0.0925  0.1286
  146POPC   PO4 2235   1.271   1.483   8.826 -0.2187 -0.1248 -0.3124
  146POPC   GL1 2236   1.410   1.489   8.567  0.0287  0.1393 -0.1390
  146POPC   GL2 2237   1.187   1.629   8.289  0.2519 -0.2779  0.0140
  146POPC   C1A 2238   1.622   1.464   8.104  0.1271 -0.1920  0.1460
  146POPC   D2A 2239   1.659   1.371   7.614  0.0190  0.0797 -0.0501
  146POPC   C3A 2240   1.695   1.459   7.197  0.1608  0.1931 -0.1099
  146POPC   C4A 2241   1.629   1.840   6.844 -0.1716 -0.2045  0.3521
  146POPC   C1B 2242   0.937   1.432   7.866  0.0873 -0.2485  0.2988
  146POPC   C2B 2243   0.772   1.524   7.424 -0.0935 -0.0846 -0.1467
  146POPC   C3B 2244   0.776   1.748   6.993  0.2859 -0.2650  0.1275
  146POPC   C4B 2245   0.964   2.023   6.689  0.0544 -0.1363  0.2732
  147POPC   NC3 2246   7.006   9.115   8.657  0.1548 -0.0238  0.2879
  147POPC   PO4 2247   7.034   8.690   8.394 -0.1202 -0.2052 -0.0818
  147POPC   GL1 2248   6.909   8.394   7.962  0.2371 -0.5167 -0.1451
  147POPC   GL2 2249   6.615   8.270   7.953 -0.1500 -0.0041  0.1531
  147POPC   C1A 2250   6.905   8.619   7.489  0.3154  0.0457  0.3037
  147POPC   D2A 2251   6.855   8.932   7.175 -0.0408  0.0515  0.3101
  147POPC   C3A 2252   7.199   9.074   6.829 -0.0701  0.1334 -0.1632
  147POPC   C4A 2253   7.274   8.776   6.530  0.3270 -0.1730  0.2696
  147POPC   C1B 2254   6.740   8.096   7.577  0.1473 -0.0342  0.5100
  147POPC   C2B 2255   6.622   7.786   7.362  0.0446  0.0549 -0.0495
  147POPC   C3B 2256   6.424   7.382   7.319 -0.4101 -0.0333  0.2422
  147POPC   C4B 2257   6.231   7.244   7.649  0.2372 -0.1255  0.1747
  148POPC   NC3 2258   9.803   9.019   8.259  0.2367 -0.1464  0.2139
  148POPC   PO4 2259   9.914   9.319   8.496 -0.0521  0.1063 -0.1642
  148POPC   GL1 2260   9.899   9.476   8.085  0.2395 -0.2939 -0.1675
  148POPC   GL2 2261   9.942   9.810   7.908 -0.2568  0.0255 -0.1511
  148POPC   C1A 2262   9.976   9.427   7.596  0.1609  0.3400 -0.0620
  148POPC   D2A 2263   9.760   9.403   7.290  0.2050  0.0078  0.1275
  148POPC   C3A 2264   9.456   9.692   7.176  0.0219 -0.1555  0.2261
  148POPC   C4A 2265   9.312  10.061   6.866 -0.2831  0.2314 -0.1675
  148POPC   C1B 2266  10.112   9.956   7.420  0.1013  0.1982  0.2542
  148POPC   C2B 2267   9.943   9.785   7.003 -0.0890  0.3058 -0.1981
  148POPC   C3B 2268   9.784   9.449   6.798 -0.1018 -0.2558  0.2868
  148POPC   C4B 2269   9.787   9.015   6.662  0.0508 -0.1561 -0.1205
  149POPC   NC3 2270   3.544   7.255   9.536  0.4865  0.2523 -0.3917
  149POPC   PO4 2271   3.876   6.984   9.498 -0.1501 -0.1884  0.1582
  149POPC   GL1 2272   3.591   7.003   9.109  0.0235 -0.2541  0.1006
  149POPC   GL2 2273   3.718   6.859   8.880 -0.0958  0.2666 -0.0204
  149POPC   C1A 2274   3.194   6.949   8.974  0.2019  0.0044  0.0192
  149POPC   D2A 2275   2.975   6.711   9.174 -0.1301 -0.0514 -0.0101
  149POPC   C3A 2276   2.960   6.282   9.110  0.0023 -0.1911 -0.1066
  149POPC   C4A 2277   3.177   6.022   8.722  0.0781  0.1975  0.2104
  149POPC   C1B 2278   3.704   7.283   8.667  0.2540  0.0811 -0.2303
  149POPC   C2B 2279   3.555   7.464   8.319  0.2346 -0.1472  0.1393
  149POPC   C3B 2280   3.179   7.766   8.389  0.2996 -0.1989  0.0337
  149POPC   C4B 2281   2.988   8.085   8.519  0.1285 -0.2102 -0.0307
  150POPC   NC3 2282   5.030   7.721   8.788 -0.2620 -0.1224  0.2198
  150POPC   PO4 2283   5.449   7.817   8.910  0.0252  0.1465 -0.4034
  150POPC   GL1 2284   5.410   7.906   8.507  0.1914  0.2106 -0.0227
  150POPC   GL2 2285   5.609   8.176   8.463 -0.0522  0.3442 -0.1361
  150POPC   C1A 2286   5.280   7.981   8.122 -0.0956 -0.2632  0.1341
  150POPC   D2A 2287   5.301   7.837   7.740  0.1714  0.1649 -0.0431
  150POPC   C3A 2288   5.404   7.897   7.261 -0.2012  0.0722 -0.0093
  150POPC   C4A 2289   5.364   8.167   6.951  0.0011  0.0071  0.1385
  150POPC   C1B 2290   5.583   8.436   8.018  0.2515  0.2011  0.1616
  150POPC   C2B 2291   5.764   8.705   7.678  0.4058  0.1436 -0.1340
  150POPC   C3B 2292   5.478   8.922   7.381 -0.0260  0.1799  0.1648
  150POPC   C4B 2293   5.012   9.044   7.290 -0.1685  0.0575  0.1089
  151POPC   NC3 2294   7.703   6.226   8.406 -0.0007  0.2386  0.2956
  151POPC   PO4 2295   7.426   6.539   8.447 -0.1905 -0.2165  0.2928
  151POPC   GL1 2296   7.255   6.659   8.101  0.1478  0.1488  0.2575
  151POPC   GL2 2297   6.957   6.580   8.186  0.1518 -0.4363  0.0197
  151POPC   C1A 2298   7.276   6.570   7.564  0.2178  0.0374 -0.0322
  151POPC   D2A 2299   7.501   6.496   7.157  0.1310  0.4000  0.0258
  151POPC   C3A 2300   7.446   6.931   6.937 -0.0466  0.2771 -0.1319
  151POPC   C4A 2301   7.160   6.902   6.659 -0.2185  0.1063 -0.1450
  151POPC   C1B 2302   6.807   6.575   7.752 -0.0268  0.0391  0.2891
  151POPC   C2B 2303   6.578   6.389   7.370  0.0510  0.1794  0.1054
  151POPC   C3B 2304   6.537   6.502   6.928 -0.2258  0.2210 -0.3485
  151POPC   C4B 2305   6.158   6.825   6.759  0.1296  0.1197 -0.0561
  152POPC   NC3 2306   0.612   0.349   8.482 -0.5052  0.1125 -0.2009
  152POPC   PO4 2307   0.696   0.812   8.601  0.2046 -0.1613 -0.0967
  152POPC   GL1 2308   0.949   0.627   8.280  0.2757  0.0426  0.1613
  152POPC   GL2 2309   0.684   0.552   8.104  0.1834  0.1068  0.1241
  152POPC   C1A 2310   1.111   0.629   7.832  0.1332  0.1002 -0.2368
  152POPC   D2A 2311   1.289   0.555   7.347 -0.0447  0.0339  0.0350
  152POPC   C3A 2312   1.158   0.165   6.985 -0.0620  0.1073  0.0648
  152POPC   C4A 2313   0.968  -0.242   6.850 -0.0700  0.0372  0.0009
  152POPC   C1B 2314   0.617   0.847   7.818 -0.2595 -0.0524  0.0071
  152POPC   C2B 2315   0.718   0.696   7.456  0.0330 -0.1034 -0.0162
  152POPC   C3B 2316   0.927   0.562   7.025 -0.2494 -0.2872 -0.2680
  152POPC   C4B 2317   1.039   0.731   6.626  0.0050  0.1077  0.1080
  153POPC   NC3 2318   0.024   1.386   8.415  0.2107 -0.1666 -0.1639
  153POPC   PO4 2319   0.194   1.723   8.631 -0.1179 -0.0227  0.0100
  153POPC   GL1 2320   0.053   1.835   8.205 -0.3489  0.2636  0.1291
  153POPC   GL2 2321  -0.271   1.870   8.201 -0.0333  0.0061 -0.0633
  153POPC   C1A 2322   0.081   1.829   7.797  0.1041 -0.0564 -0.0949
  153POPC   D2A 2323   0.351   1.759   7.428  0.0459  0.0176  0.0949
  153POPC   C3A 2324   0.276   2.012   7.097  0.0701  0.2657  0.0504
  153POPC   C4A 2325   0.148   1.988   6.744 -0.0548  0.2132  0.2744
  153POPC   C1B 2326  -0.483   1.546   7.873  0.1944  0.1138 -0.0580
  153POPC   C2B 2327  -0.481   1.488   7.510  0.2442  0.0578  0.0725
  153POPC   C3B 2328  -0.426   1.293   7.118  0.4107  0.1187  0.0304
  153POPC   C4B 2329  -0.364   1.341   6.659  0.2633  0.0706  0.3408
  154POPC   NC3 2330   5.888   1.369   8.535 -0.1785  0.0407  0.2197
  154POPC   PO4 2331   5.565   1.568   8.695 -0.4419 -0.1748  0.0391
  154POPC   GL1 2332   5.370   1.223   8.398  0.0379 -0.1580  0.1080
  154POPC   GL2 2333   5.598   1.057   8.238 -0.0358 -0.2845  0.1354
  154POPC   C1A 2334   5.079   1.024   8.085 -0.0774  0.1359  0.2043
  154POPC   D2A 2335   4.720   0.831   7.889 -0.0524 -0.2865 -0.2759
  154POPC   C3A 2336   4.297   0.715   7.890 -0.0112 -0.0062  0.1786
  154POPC   C4A 2337   4.112   0.421   8.160  0.2074  0.0994  0.1900
  154POPC   C1B 2338   5.450   1.113   7.794 -0.0958 -0.0347  0.0933
  154POPC   C2B 2339   5.405   1.081   7.188  0.1734  0.3698  0.0324
  154POPC   C3B 2340   5.317   0.840   6.959  0.2430  0.1704  0.2188
  154POPC   C4B 2341   5.202   0.381   6.979 -0.1112 -0.3523  0.0506
  155POPC   NC3 2342   0.906   8.933   8.684  0.1826  0.1556 -0.0904
  155POPC   PO4 2343   0.417   8.864   8.560  0.1920  0.0208 -0.1169
  155POPC   GL1 2344   0.252   8.889   8.136  0.1029  0.0646 -0.0386
  155POPC   GL2 2345   0.145   9.249   8.115  0.1006  0.3654 -0.0499
  155POPC   C1A 2346   0.107   8.725   7.755 -0.1167 -0.0904  0.0774
  155POPC   D2A 2347   0.136   8.701   7.276  0.1137 -0.0623  0.2307
  155POPC   C3A 2348   0.334   8.661   6.890  0.0419  0.1348 -0.0310
  155POPC   C4A 2349   0.492   8.523   6.472 -0.0055  0.1101  0.0008
  155POPC   C1B 2350   0.222   9.201   7.683  0.0816 -0.3129  0.0196
  155POPC   C2B 2351   0.387   9.508   7.431 -0.0168  0.2078  0.2455
  155POPC   C3B 2352   0.672   9.795   7.360  0.2282  0.1972 -0.0467
  155POPC   C4B 2353   0.802  10.148   7.509 -0.1117 -0.1016 -0.0706
  156POPC   NC3 2354   6.632   4.831   9.075  0.1369  0.1907  0.0379
  156POPC   PO4 2355   6.356   4.588   8.901 -0.0818  0.0656 -0.0748
  156POPC   GL1 2356   6.249   4.516   8.438 -0.0995 -0.2336 -0.3336
  156POPC   GL2 2357   6.480   4.255   8.182  0.0099  0.3417  0.0689
  156POPC   C1A 2358   6.392   4.717   8.025  0.0248 -0.1955  0.0213
  156POPC   D2A 2359   6.508   5.011   7.678  0.0121  0.0160 -0.3177
  156POPC   C3A 2360   6.413   5.008   7.201  0.2613  0.2853 -0.2834
  156POPC   C4A 2361   6.350   5.135   6.724  0.0244 -0.0125  0.0537
  156POPC   C1B 2362   6.440   3.927   7.959 -0.1165 -0.1481  0.0570
  156POPC   C2B 2363   6.461   3.838   7.433  0.0943 -0.0690 -0.3237
  156POPC   C3B 2364   6.587   3.555   7.091 -0.1923 -0.3506 -0.0626
  156POPC   C4B 2365   6.981   3.576   6.887  0.1505 -0.5171  0.2803
  157POPC   NC3 2366   9.869   1.935   8.718 -0.2228  0.0595 -0.0595
  157POPC   PO4 2367  10.349   2.087   8.621 -0.3164 -0.0853 -0.1926
  157POPC   GL1 2368  10.453   2.431   8.253  0.1188 -0.2696 -0.0977
  157POPC   GL2 2369  10.731   2.297   8.060 -0.2257 -0.1727  0.0500
  157POPC   C1A 2370  10.358   2.540   7.753  0.0607  0.0070  0.2665
  157POPC   D2A 2371  10.444   2.341   7.286 -0.0692 -0.0317  0.3828
  157POPC   C3A 2372  10.337   2.433   6.959  0.3128 -0.2404 -0.0022
  157POPC   C4A 2373  10.578   2.741   6.710  0.2587  0.0442 -0.0264
  157POPC   C1B 2374  10.930   2.203   7.608  0.1168  0.3787 -0.3553
  157POPC   C2B 2375  10.989   2.409   7.288 -0.0586  0.1341 -0.2749
  157POPC   C3B 2376  11.046   2.375   6.738 -0.1353 -0.1044  0.2161
  157POPC   C4B 2377  11.055   2.793   6.515 -0.2882  0.3878  0.3929
  158POPC   NC3 2378   2.078   8.270   9.303  0.1009  0.1919 -0.3204
  158POPC   PO4 2379   2.146   8.146   8.886  0.3256 -0.0587 -0.1196
  158POPC   GL1 2380   2.048   7.974   8.636  0.0735  0.4081 -0.2562
  158POPC   GL2 2381   1.839   7.813   8.470  0.2488 -0.1714  0.4939
  158POPC   C1A 2382   2.260   7.631   8.345  0.0499 -0.0125 -0.0769
  158POPC   D2A 2383   2.741   7.486   8.401  0.0414  0.0979  0.0023
  158POPC   C3A 2384   3.113   7.377   8.018 -0.1463  0.0453 -0.0970
  158POPC   C4A 2385   3.289   7.432   7.621  0.2389 -0.0579 -0.1088
  158POPC   C1B 2386   1.717   7.765   8.089  0.0180  0.0930 -0.0711
  158POPC   C2B 2387   1.816   7.868   7.722 -0.3646 -0.2325 -0.1050
  158POPC   C3B 2388   1.727   8.017   7.328 -0.1383 -0.0296 -0.0588
  158POPC   C4B 2389   1.415   8.281   7.167  0.0606 -0.3734  0.1311
  159POPC   NC3 2390   5.967   8.104   8.769 -0.0212 -0.0737 -0.1816
  159POPC   PO4 2391   5.881   8.646   8.649 -0.1865 -0.1345  0.1841
  159POPC   GL1 2392   6.116   8.314   8.312  0.0233 -0.1179  0.1882
  159POPC   GL2 2393   6.236   8.014   8.339  0.1531 -0.3755  0.3537
  159POPC   C1A 2394   6.108   8.335   7.891 -0.1599  0.1622  0.0749
  159POPC   D2A 2395   6.391   8.483   7.567  0.0009 -0.1278 -0.1510
  159POPC   C3A 2396   6.683   8.316   7.144  0.2477  0.3326 -0.3061
  159POPC   C4A 2397   6.962   8.435   6.749 -0.0267  0.1174 -0.1676
  159POPC   C1B 2398   6.345   7.883   7.904  0.0268  0.2327 -0.1658
  159POPC   C2B 2399   6.147   8.031   7.503 -0.1304  0.0317 -0.2306
  159POPC   C3B 2400   5.975   8.306   7.251 -0.1237  0.1003 -0.4156
  159POPC   C4B 2401   5.655   8.574   7.065  0.0526 -0.1193 -0.0519
  160POPC   NC3 2402   5.611   2.073   8.540  0.1522  0.3682  0.0187
  160POPC   PO4 2403   5.956   1.835   8.423 -0.0929 -0.0652 -0.4301
  160POPC   GL1 2404   6.131   2.031   8.198  0.2644 -0.2070  0.2220
  160POPC   GL2 2405   5.871   2.189   8.129  0.4490  0.1571  0.1869
  160POPC   C1A 2406   6.498   2.081   7.867  0.1240  0.0765 -0.0181
  160POPC   D2A 2407   6.782   2.046   7.485 -0.2118  0.0564  0.3445
  160POPC   C3A 2408   6.651   2.046   7.080  0.0016 -0.0579  0.0009
  160POPC   C4A 2409   6.269   2.270   7.034 -0.1042  0.1014 -0.0898
  160POPC   C1B 2410   5.983   2.194   7.716 -0.1027 -0.2228 -0.2326
  160POPC   C2B 2411   5.893   1.919   7.232 -0.2169  0.0755 -0.0850
  160POPC   C3B 2412   5.418   1.675   7.174  0.1151  0.1085 -0.3011
  160POPC   C4B 2413   5.119   1.415   6.946 -0.0217 -0.2776 -0.1438
  161POPC   NC3 2414   1.096   2.922   9.712  0.0488  0.1387 -0.1151
  161POPC   PO4 2415   1.102   2.887   9.210  0.1301 -0.2494  0.0139
  161POPC   GL1 2416   1.094   2.713   8.760 -0.2273 -0.0514  0.0490
  161POPC   GL2 2417   0.872   2.579   8.458  0.1329  0.0017  0.5906
  161POPC   C1A 2418   1.418   2.712   8.412  0.0509 -0.0616  0.1777
  161POPC   D2A 2419   1.533   3.010   8.133  0.0136 -0.0073 -0.2968
  161POPC   C3A 2420   1.688   2.808   7.776 -0.0524 -0.0048  0.1307
  161POPC   C4A 2421   1.997   2.949   7.461 -0.1357 -0.1112  0.2190
  161POPC   C1B 2422   1.010   2.866   8.186 -0.2080 -0.0987 -0.1825
  161POPC   C2B 2423   1.199   2.835   7.785 -0.2697  0.1061  0.0412
  161POPC   C3B 2424   1.444   2.960   7.399 -0.1176 -0.2636  0.1375
  161POPC   C4B 2425   1.522   2.805   6.982 -0.2074  0.2777  0.2451
  162POPC   NC3 2426   8.018   2.024   8.655  0.0690  0.0327  0.0264
  162POPC   PO4 2427   8.310   2.324   8.569 -0.2178 -0.0921 -0.2741
  162POPC   GL1 2428   8.180   2.646   8.313  0.1714 -0.0534  0.0317
  162POPC   GL2 2429   7.879   2.559   8.177  0.0368 -0.1942  0.1957
  162POPC   C1A 2430   8.047   3.005   8.155  0.1022  0.0575  0.1468
  162POPC   D2A 2431   7.601   3.028   7.977  0.0025 -0.0775  0.1875
  162POPC   C3A 2432   7.379   3.017   7.679 -0.1900  0.0295 -0.0217
  162POPC   C4A 2433   7.023   2.815   7.437  0.1931  0.0219  0.1474
  162POPC   C1B 2434   7.854   2.674   7.671 -0.0576  0.2484 -0.3023
  162POPC   C2B 2435   7.562   2.639   7.380 -0.1123  0.5599 -0.1658
  162POPC   C3B 2436   7.415   2.725   7.012 -0.0769  0.0118 -0.0225
  162POPC   C4B 2437   7.204   2.420   6.689  0.0492 -0.1343 -0.2514
  163POPC   NC3 2438   4.685   8.249   8.898 -0.2904 -0.0835  0.1441
  163POPC   PO4 2439   4.558   7.840   8.766  0.3518 -0.4779 -0.1684
  163POPC   GL1 2440   4.464   7.608   8.453  0.0427 -0.2055  0.0890
  163POPC   GL2 2441   4.796   7.507   8.358  0.3070 -0.1672  0.2728
  163POPC   C1A 2442   4.258   7.227   8.206  0.3680 -0.1322 -0.4378
  163POPC   D2A 2443   4.227   6.999   7.782  0.1940  0.0752  0.1513
  163POPC   C3A 2444   4.533   7.109   7.556  0.0185 -0.2935  0.0485
  163POPC   C4A 2445   4.629   7.328   7.217 -0.2847  0.0072 -0.1355
  163POPC   C1B 2446   4.697   7.696   7.974 -0.1057 -0.0906  0.0186
  163POPC   C2B 2447   4.693   7.659   7.594 -0.0935 -0.0418  0.1508
  163POPC   C3B 2448   4.552   7.824   7.333 -0.0628  0.2819 -0.1842
  163POPC   C4B 2449   4.122   8.008   7.124  0.2605 -0.1364 -0.1237
  164POPC   NC3 2450   2.563   4.417   9.950 -0.1983 -0.0719  0.1179
  164POPC   PO4 2451   2.373   4.771   9.772  0.2237  0.2183  0.1343
  164POPC   GL1 2452   2.397   4.940   9.403  0.1123  0.1686  0.0059
  164POPC   GL2 2453   2.737   5.048   9.262  0.2069 -0.0780 -0.0302
  164POPC   C1A 2454   2.242   5.029   9.030  0.1795  0.3625  0.1291
  164POPC   D2A 2455   2.058   5.209   8.784 -0.0123 -0.0794 -0.0690
  164POPC   C3A 2456   2.158   5.284   8.291  0.0055  0.3463 -0.3959
  164POPC   C4A 2457   2.515   5.160   8.055 -0.3890  0.2066 -0.1479
  164POPC   C1B 2458   2.608   5.457   9.183 -0.2305  0.0987  0.0849
  164POPC   C2B 2459   2.272   5.627   8.950 -0.1567 -0.0004 -0.1145
  164POPC   C3B 2460   2.052   5.662   8.608 -0.0819 -0.0490 -0.0070
  164POPC   C4B 2461   2.197   5.856   8.316  0.2489 -0.0623  0.0283
  165POPC   NC3 2462   5.459   8.651   8.903  0.0920 -0.1523 -0.1000
  165POPC   PO4 2463   5.177   8.264   8.832 -0.1083 -0.0054 -0.1352
  165POPC   GL1 2464   4.985   8.224   8.469  0.1567 -0.3491 -0.1792
  165POPC   GL2 2465   4.802   8.070   8.293  0.1165  0.1408  0.2241
  165POPC   C1A 2466   5.019   8.489   8.104  0.0738 -0.1056 -0.0976
  165POPC   D2A 2467   5.247   8.845   7.822  0.5021  0.0660  0.1060
  165POPC   C3A 2468   5.000   9.213   7.726 -0.1609 -0.1835 -0.0247
  165POPC   C4A 2469   4.888   9.527   7.412  0.1423 -0.0252  0.1012
  165POPC   C1B 2470   4.866   8.145   7.832  0.4480  0.1617  0.1312
  165POPC   C2B 2471   4.977   8.116   7.363  0.1813  0.0628  0.2841
  165POPC   C3B 2472   4.816   7.904   6.917  0.0040  0.3180 -0.3688
  165POPC   C4B 2473   4.876   8.245   6.678  0.0717 -0.3002 -0.1854
  166POPC   NC3 2474   5.700   7.408   8.958  0.0495  0.1890 -0.2740
  166POPC   PO4 2475   5.844   7.591   8.556 -0.0699 -0.0486 -0.2564
  166POPC   GL1 2476   5.736   7.607   8.234  0.1957  0.1530  0.0221
  166POPC   GL2 2477   5.857   7.878   8.075  0.1975 -0.0108  0.1267
  166POPC   C1A 2478   5.830   7.460   7.852 -0.1042 -0.3848 -0.2971
  166POPC   D2A 2479   5.855   7.662   7.440 -0.2630  0.1688 -0.0956
  166POPC   C3A 2480   6.023   7.770   7.110  0.1736  0.4611 -0.1220
  166POPC   C4A 2481   6.230   8.012   6.974 -0.3503  0.4407  0.0653
  166POPC   C1B 2482   5.687   8.113   7.631 -0.1382  0.3359  0.0437
  166POPC   C2B 2483   5.358   8.409   7.475  0.1769 -0.0625  0.3729
  166POPC   C3B 2484   4.920   8.624   7.532  0.1526 -0.2281  0.2454
  166POPC   C4B 2485   4.606   8.825   7.682  0.4663  0.2383 -0.0004
  167POPC   NC3 2486   2.582   1.227   8.461  0.0255 -0.2059 -0.2404
  167POPC   PO4 2487   2.901   1.008   8.464  0.0199 -0.1860  0.0882
  167POPC   GL1 2488   2.945   1.093   8.123  0.0645  0.2346  0.0644
  167POPC   GL2 2489   2.766   1.326   7.996  0.0609  0.0349 -0.0241
  167POPC   C1A 2490   2.867   0.665   7.796  0.1037 -0.2995  0.2099
  167POPC   D2A 2491   2.733   0.400   7.487 -0.2497 -0.2580 -0.1026
  167POPC   C3A 2492   2.887   0.268   7.108  0.0781  0.1308  0.0246
  167POPC   C4A 2493   3.068   0.529   6.726  0.1589  0.1493  0.2538
  167POPC   C1B 2494   2.588   1.605   7.781 -0.0734 -0.1399  0.0496
  167POPC   C2B 2495   2.632   1.669   7.399 -0.3195  0.0682  0.0099
  167POPC   C3B 2496   2.611   2.036   7.173  0.0307 -0.1577  0.2511
  167POPC   C4B 2497   2.675   2.414   6.925 -0.1396 -0.4195  0.0633
  168POPC   NC3 2498   5.044   5.811   4.616  0.1296  0.2128 -0.0196
  168POPC   PO4 2499   5.114   5.480   4.566  0.1222 -0.1537 -0.3725
  168POPC   GL1 2500   5.174   5.511   5.024  0.0267 -0.1152  0.4940
  168POPC   GL2 2501   5.380   5.309   5.189  0.1551 -0.1886  0.1684
  168POPC   C1A 2502   4.889   5.409   5.418 -0.2606 -0.2341  0.2757
  168POPC   D2A 2503   4.890   5.526   5.917  0.1140  0.0218  0.2575
  168POPC   C3A 2504   4.447   5.654   6.038 -0.1860  0.0499  0.1361
  168POPC   C4A 2505   4.197   5.784   6.192 -0.0397 -0.0078 -0.1435
  168POPC   C1B 2506   5.362   5.209   5.569 -0.4139 -0.0843  0.2734
  168POPC   C2B 2507   5.372   5.312   5.967  0.0201 -0.1691  0.0528
  168POPC   C3B 2508   5.698   5.458   6.241  0.1354  0.0406 -0.1459
  168POPC   C4B 2509   6.105   5.538   6.457  0.0183 -0.0597  0.3162
  169POPC   NC3 2510   4.059   0.636   5.273  0.0517 -0.0641  0.0338
  169POPC   PO4 2511   3.569   0.781   5.251 -0.3568 -0.1714 -0.0081
  169POPC   GL1 2512   3.430   0.645   5.640  0.1738 -0.0376 -0.2735
  169POPC   GL2 2513   3.176   0.842   5.719  0.0025  0.0414  0.1745
  169POPC   C1A 2514   3.328   0.623   6.163  0.1072 -0.0999 -0.2462
  169POPC   D2A 2515   3.569   0.587   6.538 -0.0284 -0.1898 -0.2666
  169POPC   C3A 2516   3.571   0.820   6.923  0.2349  0.1577  0.1243
  169POPC   C4A 2517   3.624   0.904   7.346 -0.3888  0.0853 -0.2030
  169POPC   C1B 2518   2.973   1.219   5.861 -0.4798 -0.2069  0.0967
  169POPC   C2B 2519   2.704   1.308   6.205  0.0209  0.4597  0.1802
  169POPC   C3B 2520   2.508   1.265   6.620 -0.0372 -0.1493  0.1018
  169POPC   C4B 2521   2.242   0.952   6.668 -0.2100 -0.2152 -0.1480
  170POPC   NC3 2522   5.759   6.219   4.558 -0.0205  0.4370 -0.1026
  170POPC   PO4 2523   5.924   6.000   4.838  0.1465  0.1328  0.2897
  170POPC   GL1 2524   6.077   6.035   5.226 -0.0653 -0.4185 -0.2460
  170POPC   GL2 2525   6.318   5.760   5.267  0.4332  0.1529 -0.0631
  170POPC   C1A 2526   5.898   6.086   5.683  0.2181  0.0966 -0.0630
  170POPC   D2A 2527   5.956   6.121   6.157 -0.0677  0.1804  0.0270
  170POPC   C3A 2528   5.853   6.526   6.425  0.2133 -0.2443 -0.2499
  170POPC   C4A 2529   5.987   6.914   6.266  0.0343 -0.5530 -0.1151
  170POPC   C1B 2530   6.326   5.337   5.322  0.0171 -0.1714  0.3819
  170POPC   C2B 2531   6.326   5.133   5.637  0.1771  0.0216  0.0118
  170POPC   C3B 2532   6.170   5.056   6.117 -0.1549 -0.0287 -0.1866
  170POPC   C4B 2533   6.156   4.704   6.301 -0.0705 -0.1658 -0.0599
  171POPC   NC3 2534   3.011   9.169   4.724 -0.0266  0.0090  0.0867
  171POPC   PO4 2535   3.398   9.060   4.813 -0.0699  0.0216  0.1058
  171POPC   GL1 2536   3.238   9.164   5.181  0.1099 -0.1448  0.0862
  171POPC   GL2 2537   3.401   9.457   5.235  0.1850 -0.0018 -0.1955
  171POPC   C1A 2538   3.190   8.877   5.506 -0.2877 -0.2802 -0.1478
  171POPC   D2A 2539   3.137   8.779   5.977 -0.0109 -0.3105  0.3218
  171POPC   C3A 2540   2.849   8.870   6.333  0.1262 -0.2802  0.3749
  171POPC   C4A 2541   2.542   9.087   6.610  0.1122 -0.0446 -0.0354
  171POPC   C1B 2542   3.093   9.366   5.653 -0.3186 -0.2025 -0.0091
  171POPC   C2B 2543   2.856   9.181   5.851 -0.0590 -0.2285  0.3534
  171POPC   C3B 2544   2.533   9.225   6.079 -0.0265 -0.2122  0.0855
  171POPC   C4B 2545   2.194   9.288   6.196 -0.1069 -0.1028  0.1203
  172POPC   NC3 2546   5.507   7.032   4.398  0.1094 -0.1112 -0.1764
  172POPC   PO4 2547   5.083   6.953   4.576 -0.2836  0.0843  0.1819
  172POPC   GL1 2548   5.083   6.786   4.970 -0.0231 -0.1590  0.0952
  172POPC   GL2 2549   4.785   6.767   4.990 -0.2465 -0.0406  0.0816
  172POPC   C1A 2550   5.129   6.604   5.416 -0.2648  0.0254  0.0459
  172POPC   D2A 2551   5.136   6.754   5.797  0.0879  0.2954 -0.2399
  172POPC   C3A 2552   4.817   6.999   6.144  0.0238  0.1156  0.1616
  172POPC   C4A 2553   4.464   6.886   6.307 -0.0762  0.0386 -0.3251
  172POPC   C1B 2554   4.655   6.438   5.270  0.3304  0.1027  0.0885
  172POPC   C2B 2555   4.563   6.251   5.587 -0.0963 -0.2548  0.1541
  172POPC   C3B 2556   4.301   6.296   5.903  0.2035 -0.0162 -0.2411
  172POPC   C4B 2557   3.925   6.204   6.095  0.1679  0.3813 -0.1026
  173POPC   NC3 2558   1.880   6.220   3.215 -0.0912 -0.1664 -0.3733
  173POPC   PO4 2559   1.664   6.687   3.232  0.1617  0.1960 -0.1259
  173POPC   GL1 2560   1.672   6.480   3.614  0.0673  0.0371 -0.0191
  173POPC   GL2 2561   1.413   6.566   3.795  0.1634 -0.0432 -0.0449
  173POPC   C1A 2562   1.868   6.680   4.021  0.0108  0.4954  0.2279
  173POPC   D2A 2563   1.805   6.687   4.532  0.4067 -0.0164  0.0950
  173POPC   C3A 2564   1.673   6.789   4.927  0.3079  0.2683  0.0555
  173POPC   C4A 2565   1.329   6.765   5.195 -0.0985 -0.0496  0.1018
  173POPC   C1B 2566   1.279   6.749   4.095 -0.0420 -0.2066  0.2470
  173POPC   C2B 2567   0.919   6.924   4.280  0.1376 -0.2036  0.0581
  173POPC   C3B 2568   0.472   6.845   4.339  0.0238 -0.2047  0.5207
  173POPC   C4B 2569   0.249   6.430   4.489 -0.3178  0.0596  0.1829
  174POPC   NC3 2570   9.691   2.635   4.895 -0.3688 -0.1306  0.0655
  174POPC   PO4 2571   9.660   2.177   4.954  0.0306  0.0614 -0.1742
  174POPC   GL1 2572   9.675   2.060   5.434  0.0944  0.3424 -0.1089
  174POPC   GL2 2573   9.385   1.901   5.513 -0.0794 -0.0708  0.1367
  174POPC   C1A 2574   9.564   2.282   5.839  0.1020 -0.0917  0.1797
  174POPC   D2A 2575   9.573   2.658   6.071  0.2012  0.0907 -0.1888
  174POPC   C3A 2576   9.986   2.626   6.306 -0.0915  0.0341  0.6759
  174POPC   C4A 2577  10.270   2.346   6.485 -0.2080  0.1267  0.0621
  174POPC   C1B 2578   9.202   1.992   5.985  0.0196  0.0384 -0.1794
  174POPC   C2B 2579   9.177   1.977   6.382  0.0671  0.1637 -0.1340
  174POPC   C3B 2580   9.161   1.799   6.706 -0.0826 -0.1638 -0.1474
  174POPC   C4B 2581   9.224   1.746   7.116 -0.0769  0.1751  0.0480
  175POPC   NC3 2582   5.294   4.537   4.530 -0.1335  0.1733 -0.2626
  175POPC   PO4 2583   5.694   4.546   4.613 -0.1597 -0.0282  0.2989
  175POPC   GL1 2584   5.665   4.424   5.009  0.0977  0.3442 -0.0211
  175POPC   GL2 2585   5.317   4.324   5.095 -0.0967 -0.1066 -0.3976
  175POPC   C1A 2586   5.609   4.579   5.447  0.0420 -0.2961  0.2959
  175POPC   D2A 2587   5.696   4.473   5.855 -0.0646 -0.0406  0.0981
  175POPC   C3A 2588   6.030   4.279   6.041  0.2004  0.3396  0.1356
  175POPC   C4A 2589   6.429   4.135   6.200  0.3376  0.0517 -0.2745
  175POPC   C1B 2590   5.225   4.323   5.582  0.0444 -0.0943 -0.0314
  175POPC   C2B 2591   5.312   4.201   6.016  0.2538 -0.1709 -0.1295
  175POPC   C3B 2592   5.575   4.183   6.266  0.0846 -0.0718  0.2094
  175POPC   C4B 2593   5.953   3.975   6.410 -0.2581 -0.2121 -0.2429
  176POPC   NC3 2594   5.278   9.125   4.520  0.0179 -0.3857 -0.0641
  176POPC   PO4 2595   5.266   8.978   4.892 -0.2225 -0.0721  0.0100
  176POPC   GL1 2596   5.167   8.904   5.373  0.2064 -0.2495  0.1446
  176POPC   GL2 2597   5.447   8.719   5.492  0.1577 -0.4333  0.1438
  176POPC   C1A 2598   5.017   8.877   5.817 -0.0694  0.1046 -0.0101
  176POPC   D2A 2599   5.211   8.912   6.221 -0.4176 -0.3384  0.2396
  176POPC   C3A 2600   5.285   9.269   6.386  0.0442 -0.1498  0.0737
  176POPC   C4A 2601   5.738   9.538   6.488  0.0259  0.0731  0.0930
  176POPC   C1B 2602   5.530   8.964   5.847  0.1601  0.0625  0.0439
  176POPC   C2B 2603   5.739   9.015   6.359  0.4525  0.0261  0.0900
  176POPC   C3B 2604   5.902   8.815   6.729 -0.4352  0.2142 -0.1682
  176POPC   C4B 2605   6.191   8.542   6.881  0.3766  0.4198 -0.4754
  177POPC   NC3 2606   8.405   0.205   4.414  0.2793  0.0875  0.0351
  177POPC   PO4 2607   7.946   0.201   4.417  0.1313  0.2166  0.0539
  177POPC   GL1 2608   7.828   0.263   4.871  0.0052  0.2677 -0.1040
  177POPC   GL2 2609   7.707   0.506   5.087 -0.2196  0.1778 -0.0084
  177POPC   C1A 2610   7.864   0.086   5.217 -0.1850 -0.1627 -0.0510
  177POPC   D2A 2611   7.940  -0.137   5.579  0.0814  0.0231 -0.3682
  177POPC   C3A 2612   7.619  -0.177   5.905 -0.0848 -0.1174 -0.4343
  177POPC   C4A 2613   7.709  -0.130   6.290 -0.0270  0.0144 -0.1676
  177POPC   C1B 2614   7.762   0.510   5.487 -0.0358 -0.1122  0.2326
  177POPC   C2B 2615   7.869   0.351   5.902  0.1278  0.1909  0.2238
  177POPC   C3B 2616   7.833   0.338   6.340  0.0216 -0.2663  0.2027
  177POPC   C4B 2617   7.736   0.102   6.724  0.0007 -0.1702 -0.1110
  178POPC   NC3 2618   3.583   8.578   4.732  0.1091 -0.2260 -0.2299
  178POPC   PO4 2619   3.231   8.450   4.575 -0.1052  0.1605  0.0967
  178POPC   GL1 2620   3.232   8.280   4.910 -0.1000 -0.1906  0.0678
  178POPC   GL2 2621   3.370   8.434   5.134  0.2002  0.1320 -0.1727
  178POPC   C1A 2622   3.094   7.924   5.106  0.0242  0.1701 -0.0707
  178POPC   D2A 2623   3.173   7.748   5.456 -0.0297 -0.3490  0.1940
  178POPC   C3A 2624   2.939   7.377   5.720 -0.1441  0.3591 -0.0041
  178POPC   C4A 2625   2.732   7.060   5.910 -0.1529  0.0646 -0.1694
  178POPC   C1B 2626   3.410   8.292   5.555 -0.0999 -0.1316 -0.1563
  178POPC   C2B 2627   3.530   8.377   5.950 -0.1967  0.0694 -0.3930
  178POPC   C3B 2628   3.714   8.832   6.173  0.4185 -0.1216  0.0350
  178POPC   C4B 2629   3.334   9.239   6.033 -0.0413 -0.0721 -0.4432
  179POPC   NC3 2630   7.557   7.600   4.458  0.0142 -0.0653  0.1879
  179POPC   PO4 2631   7.156   7.351   4.594  0.3491  0.2694  0.0027
  179POPC   GL1 2632   6.905   7.385   4.987 -0.2043  0.3684  0.0952
  179POPC   GL2 2633   6.648   7.018   4.908 -0.1329 -0.3052 -0.0995
  179POPC   C1A 2634   6.892   7.457   5.430  0.0404 -0.1052 -0.0591
  179POPC   D2A 2635   6.774   7.355   5.864 -0.1522 -0.0328  0.2920
  179POPC   C3A 2636   7.152   7.244   6.130 -0.1812  0.1087  0.0575
  179POPC   C4A 2637   7.536   7.113   6.250 -0.1528  0.1732  0.4123
  179POPC   C1B 2638   6.804   6.994   5.376  0.3163 -0.1494 -0.0397
  179POPC   C2B 2639   7.112   7.022   5.631 -0.0334  0.2193 -0.2387
  179POPC   C3B 2640   7.256   6.813   5.884  0.2687  0.0612  0.1308
  179POPC   C4B 2641   7.334   6.571   6.212  0.2186  0.2641  0.1108
  180POPC   NC3 2642   2.110  10.492   4.491 -0.1493 -0.1365 -0.0952
  180POPC   PO4 2643   1.811  10.305   4.769 -0.2309 -0.1469  0.0733
  180POPC   GL1 2644   1.566  10.352   5.099 -0.0849  0.0460 -0.1052
  180POPC   GL2 2645   1.847  10.542   5.275  0.0229  0.0276 -0.2808
  180POPC   C1A 2646   1.324  10.509   5.503 -0.1742  0.0268  0.0836
  180POPC   D2A 2647   0.954  10.421   5.637 -0.0101  0.1584  0.1411
  180POPC   C3A 2648   0.680  10.585   5.934  0.0023 -0.1598 -0.3322
  180POPC   C4A 2649   0.645  10.264   6.440  0.0591 -0.1534  0.1859
  180POPC   C1B 2650   1.978  10.465   5.686 -0.0436  0.1729 -0.2259
  180POPC   C2B 2651   2.341  10.479   5.918  0.2504  0.1077 -0.2223
  180POPC   C3B 2652   2.343  10.396   6.364 -0.2722 -0.2098 -0.1610
  180POPC   C4B 2653   1.961  10.232   6.701 -0.1379 -0.3465 -0.1215
  181POPC   NC3 2654   9.917   6.999   3.934 -0.0238  0.0727  0.1087
  181POPC   PO4 2655   9.671   7.365   4.091  0.0036 -0.2479 -0.0715
  181POPC   GL1 2656   9.854   7.145   4.468 -0.3668 -0.2784 -0.0218
  181POPC   GL2 2657   9.712   7.114   4.773 -0.0338 -0.2158  0.1519
  181POPC   C1A 2658  10.195   7.128   4.756 -0.3656 -0.2908  0.1666
  181POPC   D2A 2659  10.547   7.073   5.142  0.1826  0.2555  0.0369
  181POPC   C3A 2660  10.484   7.089   5.535  0.2076 -0.0993  0.0676
  181POPC   C4A 2661  10.142   7.201   5.842  0.3813 -0.1186 -0.1657
  181POPC   C1B 2662   9.895   7.381   5.111  0.1609 -0.0051 -0.2625
  181POPC   C2B 2663   9.673   7.705   5.456  0.4295  0.1114  0.0261
  181POPC   C3B 2664   9.342   7.881   5.572  0.1154 -0.0108 -0.1052
  181POPC   C4B 2665   9.030   7.923   5.404 -0.0439 -0.1096 -0.0099
  182POPC   NC3 2666   0.944   7.624   2.950 -0.2273 -0.2211 -0.0579
  182POPC   PO4 2667   1.152   7.387   3.309 -0.0714  0.2766 -0.0893
  182POPC   GL1 2668   1.444   7.528   3.634 -0.1013  0.0297 -0.1375
  182POPC   GL2 2669   1.766   7.439   3.690  0.1352  0.2899  0.0125
  182POPC   C1A 2670   1.327   7.406   4.079 -0.1803  0.0669  0.0109
  182POPC   D2A 2671   1.403   7.022   4.488 -0.2261 -0.0106 -0.0337
  182POPC   C3A 2672   1.390   7.232   4.892 -0.0351 -0.1145 -0.0504
  182POPC   C4A 2673   1.731   7.139   5.227 -0.2016 -0.0169 -0.2054
  182POPC   C1B 2674   1.726   7.125   4.085  0.2488 -0.0734  0.2863
  182POPC   C2B 2675   1.935   7.184   4.493 -0.0580  0.1256  0.1470
  182POPC   C3B 2676   1.865   7.428   4.865 -0.3215 -0.0315  0.2167
  182POPC   C4B 2677   1.774   7.685   5.251  0.0797 -0.2915 -0.0568
  183POPC   NC3 2678   3.490  10.113   4.747 -0.2024 -0.0221 -0.3582
  183POPC   PO4 2679   3.793   9.946   5.080  0.1963 -0.2543  0.0720
  183POPC   GL1 2680   3.542  10.083   5.497 -0.0366  0.0649  0.0017
  183POPC   GL2 2681   3.882  10.260   5.558 -0.1153 -0.0979 -0.1671
  183POPC   C1A 2682   3.724   9.979   5.925  0.1441 -0.2364  0.1169
  183POPC   D2A 2683   3.935  10.316   6.134 -0.1541  0.1454 -0.2065
  183POPC   C3A 2684   3.926  10.396   6.578 -0.3054  0.1629 -0.1434
  183POPC   C4A 2685   3.811  10.626   6.833 -0.6674 -0.2649  0.0159
  183POPC   C1B 2686   4.144   9.993   5.668  0.3093  0.1362  0.0031
  183POPC   C2B 2687   4.373  10.005   6.041 -0.0555  0.1951  0.2856
  183POPC   C3B 2688   4.261  10.068   6.451  0.3277 -0.0677 -0.0325
  183POPC   C4B 2689   4.452  10.384   6.765 -0.1263 -0.0377 -0.0829
  184POPC   NC3 2690   7.034   1.750   5.103 -0.1057 -0.2515  0.2596
  184POPC   PO4 2691   7.016   2.127   4.741 -0.3044 -0.0945 -0.2487
  184POPC   GL1 2692   7.256   2.196   5.146  0.0735 -0.1628  0.0211
  184POPC   GL2 2693   7.455   2.013   5.294 -0.2151 -0.1396 -0.0829
  184POPC   C1A 2694   7.348   2.351   5.636  0.2909 -0.1378 -0.0310
  184POPC   D2A 2695   7.272   2.546   6.087  0.2649 -0.3408  0.0946
  184POPC   C3A 2696   6.866   2.543   6.265  0.0881  0.0202 -0.0452
  184POPC   C4A 2697   6.668   2.700   6.664 -0.2518  0.4369 -0.0741
  184POPC   C1B 2698   7.476   1.847   5.681 -0.2584  0.0210  0.1728
  184POPC   C2B 2699   7.704   1.759   6.023 -0.0520 -0.0098 -0.1365
  184POPC   C3B 2700   7.883   1.863   6.405 -0.3554 -0.0914 -0.1419
  184POPC   C4B 2701   7.942   1.955   6.848 -0.1505  0.2206  0.2168
  185POPC   NC3 2702   5.810   8.122   4.863  0.0517  0.0303  0.2226
  185POPC   PO4 2703   5.448   8.116   5.095  0.0165  0.0477 -0.1626
  185POPC   GL1 2704   5.276   8.174   5.470  0.1574  0.5938 -0.1851
  185POPC   GL2 2705   5.306   7.853   5.558 -0.1712 -0.0777 -0.0330
  185POPC   C1A 2706   5.334   8.339   5.859  0.1753 -0.4483 -0.0138
  185POPC   D2A 2707   5.270   8.266   6.379  0.1811  0.0459 -0.1004
  185POPC   C3A 2708   5.383   8.620   6.624  0.0550 -0.0908  0.1495
  185POPC   C4A 2709   5.426   9.028   6.863 -0.0754  0.3678 -0.1605
  185POPC   C1B 2710   5.501   7.801   5.985  0.1961 -0.0878 -0.0479
  185POPC   C2B 2711   5.606   7.905   6.323  0.1799 -0.2577 -0.0427
  185POPC   C3B 2712   5.789   7.606   6.654  0.4246  0.1523 -0.0020
  185POPC   C4B 2713   5.683   7.156   6.605 -0.0663 -0.0781  0.0480
  186POPC   NC3 2714   3.025   7.068   3.755 -0.0757  0.1844 -0.2216
  186POPC   PO4 2715   3.275   7.400   4.048  0.1288 -0.0667 -0.0482
  186POPC   GL1 2716   3.142   7.125   4.386 -0.1742 -0.0084  0.1660
  186POPC   GL2 2717   3.085   7.422   4.551 -0.0189 -0.0046 -0.2158
  186POPC   C1A 2718   3.072   7.139   4.906  0.2556 -0.0632 -0.1044
  186POPC   D2A 2719   2.658   6.981   5.219  0.0102  0.1364 -0.0493
  186POPC   C3A 2720   2.710   6.615   5.469  0.0440 -0.1550 -0.0853
  186POPC   C4A 2721   2.994   6.349   5.654  0.1776  0.1661  0.1349
  186POPC   C1B 2722   2.769   7.625   4.621 -0.1636 -0.2292  0.1550
  186POPC   C2B 2723   2.468   7.382   4.494  0.1376 -0.1824  0.0388
  186POPC   C3B 2724   2.349   7.125   4.874  0.2679  0.1072 -0.0331
  186POPC   C4B 2725   2.212   7.251   5.248  0.2266 -0.0382  0.1059
  187POPC   NC3 2726   5.864   1.694   4.576 -0.0217 -0.0520 -0.1046
  187POPC   PO4 2727   5.442   1.654   4.880 -0.2897 -0.0502 -0.0124
  187POPC   GL1 2728   5.833   1.809   5.086 -0.0371 -0.0815 -0.3147
  187POPC   GL2 2729   5.693   2.014   5.362 -0.1051 -0.3223 -0.0271
  187POPC   C1A 2730   6.029   1.560   5.391 -0.2215 -0.0196 -0.0009
  187POPC   D2A 2731   6.007   1.456   5.823  0.0024  0.3195 -0.0935
  187POPC   C3A 2732   5.745   1.073   6.047  0.3229 -0.2513  0.1620
  187POPC   C4A 2733   5.330   0.733   6.144 -0.0175  0.1879 -0.0948
  187POPC   C1B 2734   5.936   1.967   5.648  0.1684 -0.2721 -0.0775
  187POPC   C2B 2735   6.092   1.908   6.083  0.3185 -0.0666  0.2004
  187POPC   C3B 2736   6.278   2.006   6.529  0.2452  0.3979  0.0094
  187POPC   C4B 2737   6.293   1.726   6.958  0.2956 -0.1677  0.0754
  188POPC   NC3 2738   2.357   8.305   4.465 -0.2141  0.0509  0.0430
  188POPC   PO4 2739   2.063   8.621   4.403  0.0982  0.1901  0.0640
  188POPC   GL1 2740   2.027   8.720   4.861 -0.1189  0.1328  0.3174
  188POPC   GL2 2741   2.095   9.071   4.947 -0.1449 -0.0231 -0.1279
  188POPC   C1A 2742   2.009   8.651   5.374  0.1718  0.0359  0.0505
  188POPC   D2A 2743   1.764   8.712   5.703  0.2994  0.4234 -0.0363
  188POPC   C3A 2744   1.496   8.441   6.000  0.0450  0.1578 -0.3172
  188POPC   C4A 2745   1.143   8.456   6.316  0.0920 -0.1124 -0.4545
  188POPC   C1B 2746   2.244   9.085   5.506 -0.1302 -0.0251 -0.1473
  188POPC   C2B 2747   2.219   8.851   5.893  0.3925  0.1757 -0.0491
  188POPC   C3B 2748   1.956   8.409   6.070 -0.1519 -0.3405 -0.2775
  188POPC   C4B 2749   1.744   7.987   6.090  0.0808  0.1149 -0.1012
  189POPC   NC3 2750  10.414   5.354   4.358 -0.1921  0.2169  0.3204
  189POPC   PO4 2751   9.939   5.246   4.621 -0.1546  0.1306 -0.0193
  189POPC   GL1 2752  10.288   5.527   4.935  0.0052  0.1430  0.1564
  189POPC   GL2 2753  10.448   5.262   4.851 -0.1833  0.3584  0.0829
  189POPC   C1A 2754  10.639   5.756   5.161  0.3950 -0.1891  0.1440
  189POPC   D2A 2755  10.811   6.033   5.402  0.0248  0.1741  0.3120
  189POPC   C3A 2756  11.215   6.081   5.442 -0.1392 -0.1241 -0.0168
  189POPC   C4A 2757  11.533   5.898   5.288  0.1087  0.2522  0.1277
  189POPC   C1B 2758  10.789   4.982   5.112  0.2160  0.1210 -0.0897
  189POPC   C2B 2759  10.985   4.840   5.375  0.0362  0.2447 -0.0484
  189POPC   C3B 2760  11.472   4.734   5.387 -0.2256 -0.1581 -0.0557
  189POPC   C4B 2761  11.937   4.821   5.276  0.0436 -0.0142  0.2096
  190POPC   NC3 2762   6.997   2.997   4.796  0.0635  0.0464 -0.0849
  190POPC   PO4 2763   6.583   3.035   4.862 -0.1568 -0.1787  0.0186
  190POPC   GL1 2764   6.626   2.829   5.374  0.1402 -0.0105  0.1409
  190POPC   GL2 2765   6.349   2.738   5.425  0.0660 -0.0740 -0.2087
  190POPC   C1A 2766   6.688   2.416   5.592 -0.0876 -0.2040 -0.0384
  190POPC   D2A 2767   6.961   2.010   5.575 -0.1003  0.2606  0.0218
  190POPC   C3A 2768   6.926   1.717   5.804 -0.3510 -0.0315  0.2121
  190POPC   C4A 2769   7.190   1.665   6.185  0.2304  0.0008  0.1023
  190POPC   C1B 2770   6.106   2.812   5.782  0.2793  0.0840 -0.0960
  190POPC   C2B 2771   5.897   2.813   6.128 -0.2556 -0.3461 -0.1959
  190POPC   C3B 2772   5.652   3.038   6.533 -0.1482 -0.0426 -0.0557
  190POPC   C4B 2773   5.436   3.306   6.917  0.2853  0.0715  0.1190
  191POPC   NC3 2774   0.528   4.020   4.367 -0.2223 -0.0387  0.1823
  191POPC   PO4 2775   0.286   3.935   4.796  0.0470  0.0733  0.2615
  191POPC   GL1 2776   0.397   3.985   5.182  0.1880  0.0419 -0.1177
  191POPC   GL2 2777   0.074   3.958   5.323  0.1859 -0.2606 -0.0514
  191POPC   C1A 2778   0.390   4.078   5.694 -0.2585 -0.0354 -0.5286
  191POPC   D2A 2779   0.222   4.288   5.941 -0.1377  0.0183 -0.1262
  191POPC   C3A 2780  -0.146   4.327   6.134 -0.0819  0.0501 -0.1392
  191POPC   C4A 2781  -0.474   4.513   6.280  0.1211 -0.2056 -0.0141
  191POPC   C1B 2782  -0.169   4.052   5.625  0.1162 -0.0067  0.0796
  191POPC   C2B 2783  -0.385   4.572   5.743  0.3383 -0.1939 -0.0487
  191POPC   C3B 2784  -0.254   4.846   5.464  0.2783  0.1631  0.2154
  191POPC   C4B 2785  -0.152   5.237   5.346 -0.1631  0.1001  0.1092
  192POPC   NC3 2786  10.245   8.638   3.863  0.1669  0.2005 -0.1597
  192POPC   PO4 2787  10.475   8.525   4.265  0.1165 -0.2732  0.1226
  192POPC   GL1 2788  10.367   8.500   4.717 -0.2730  0.0022 -0.0659
  192POPC   GL2 2789  10.178   8.853   4.826  0.0960  0.2034  0.0178
  192POPC   C1A 2790  10.476   8.505   5.151  0.2000  0.0583  0.0973
  192POPC   D2A 2791  10.451   8.486   5.587  0.0687  0.4699 -0.2177
  192POPC   C3A 2792  10.693   8.139   5.872  0.1701 -0.0316 -0.2219
  192POPC   C4A 2793  10.772   8.092   6.367  0.1973 -0.0530  0.1201
  192POPC   C1B 2794  10.383   8.938   5.317 -0.1247 -0.2944 -0.2813
  192POPC   C2B 2795  10.495   8.967   5.691 -0.1614  0.1541  0.0195
  192POPC   C3B 2796  10.787   9.142   6.046 -0.1437 -0.2421 -0.1183
  192POPC   C4B 2797  10.960   9.069   6.479  0.0105 -0.0703  0.1920
  193POPC   NC3 2798   5.872   7.491   4.792 -0.1697  0.1058 -0.2989
  193POPC   PO4 2799   6.007   7.206   4.555 -0.2332  0.2518  0.0499
  193POPC   GL1 2800   6.108   7.038   4.947 -0.4203 -0.0341 -0.1504
  193POPC   GL2 2801   5.830   7.227   5.202 -0.2660  0.0542 -0.3034
  193POPC   C1A 2802   6.295   6.942   5.346 -0.2539 -0.0826 -0.0157
  193POPC   D2A 2803   6.429   6.881   5.820  0.0415  0.4467  0.1598
  193POPC   C3A 2804   6.651   6.605   5.736  0.1077 -0.1873 -0.3029
  193POPC   C4A 2805   7.025   6.432   5.750  0.1209  0.1720  0.0231
  193POPC   C1B 2806   5.757   7.424   5.565 -0.0527  0.2852 -0.3233
  193POPC   C2B 2807   6.069   7.282   5.841 -0.2661 -0.3271 -0.2358
  193POPC   C3B 2808   6.372   7.249   6.177  0.0591  0.1464 -0.2734
  193POPC   C4B 2809   6.275   7.296   6.647  0.2854  0.2655 -0.0930
  194POPC   NC3 2810   4.016   6.014   4.154 -0.3356  0.0551 -0.1322
  194POPC   PO4 2811   4.018   5.577   4.048  0.0814 -0.2866 -0.1232
  194POPC   GL1 2812   3.783   5.501   4.393 -0.0731  0.0639 -0.1155
  194POPC   GL2 2813   3.753   5.760   4.565 -0.0633  0.1993 -0.0868
  194POPC   C1A 2814   3.662   5.301   4.753 -0.0511 -0.0059  0.2512
  194POPC   D2A 2815   3.476   5.034   5.005  0.0716 -0.3956  0.0382
  194POPC   C3A 2816   3.537   4.814   5.338 -0.1885  0.0734 -0.1084
  194POPC   C4A 2817   3.308   4.449   5.406 -0.1344  0.0604 -0.2186
  194POPC   C1B 2818   3.348   5.671   4.896 -0.4897 -0.0249 -0.2677
  194POPC   C2B 2819   3.262   6.023   5.242  0.2032  0.2028 -0.0530
  194POPC   C3B 2820   3.362   6.029   5.661  0.2023  0.0001  0.3093
  194POPC   C4B 2821   3.707   5.741   5.760 -0.0022  0.0762  0.0201
  195POPC   NC3 2822   4.667   1.596   5.170 -0.2830  0.3047 -0.0628
  195POPC   PO4 2823   4.248   1.850   5.107  0.3302  0.1213  0.2405
  195POPC   GL1 2824   4.447   1.870   5.567 -0.3125 -0.0037  0.2357
  195POPC   GL2 2825   4.722   1.683   5.659  0.1119  0.1862 -0.0267
  195POPC   C1A 2826   4.340   1.763   5.911  0.0025  0.1863 -0.1373
  195POPC   D2A 2827   4.289   1.745   6.352  0.0665 -0.3309 -0.0781
  195POPC   C3A 2828   4.366   1.854   6.727 -0.0096 -0.0038  0.1294
  195POPC   C4A 2829   4.558   2.072   7.005  0.0675 -0.1457 -0.1149
  195POPC   C1B 2830   4.726   1.357   5.958  0.2418  0.0654  0.0055
  195POPC   C2B 2831   4.385   1.185   6.237 -0.0371  0.2698 -0.0474
  195POPC   C3B 2832   4.150   0.874   6.143  0.1216 -0.0039  0.1516
  195POPC   C4B 2833   3.784   0.700   6.019  0.0789  0.0820 -0.0723
  196POPC   NC3 2834   0.443   9.835   4.668 -0.3131 -0.3421  0.1346
  196POPC   PO4 2835   0.867   9.938   4.541  0.3083 -0.3952  0.0564
  196POPC   GL1 2836   0.954  10.101   4.870 -0.2413 -0.4579  0.1866
  196POPC   GL2 2837   0.728  10.049   5.090 -0.1947  0.0402 -0.0664
  196POPC   C1A 2838   1.183  10.078   5.303  0.0627  0.2685  0.0700
  196POPC   D2A 2839   1.175   9.940   5.717  0.0276 -0.0150  0.1182
  196POPC   C3A 2840   1.457  10.251   5.958 -0.3615 -0.1370 -0.1771
  196POPC   C4A 2841   1.839  10.279   6.155  0.2771 -0.1634 -0.2635
  196POPC   C1B 2842   0.715   9.972   5.471  0.0291  0.0540  0.0817
  196POPC   C2B 2843   0.691   9.953   5.911 -0.1363 -0.0542  0.1968
  196POPC   C3B 2844   1.035  10.207   6.180 -0.0239  0.0963  0.1331
  196POPC   C4B 2845   1.160  10.423   6.443 -0.2670 -0.0280 -0.3367
  197POPC   NC3 2846   1.908   4.914   3.514 -0.3116  0.0516  0.0654
  197POPC   PO4 2847   2.002   5.196   3.233 -0.2101 -0.0674 -0.4228
  197POPC   GL1 2848   1.845   5.492   3.622 -0.1964 -0.1980 -0.2250
  197POPC   GL2 2849   1.435   5.564   3.799 -0.1046  0.0467 -0.4130
  197POPC   C1A 2850   1.787   5.798   4.024 -0.2339 -0.1532  0.1943
  197POPC   D2A 2851   1.737   6.217   4.158  0.1584 -0.0529 -0.2559
  197POPC   C3A 2852   1.410   6.376   4.465  0.2109  0.2260  0.0612
  197POPC   C4A 2853   1.110   6.665   4.777 -0.2682 -0.0189 -0.1220
  197POPC   C1B 2854   1.435   6.065   3.818 -0.0872 -0.3498 -0.3644
  197POPC   C2B 2855   1.098   6.227   4.046 -0.0804  0.1222  0.3161
  197POPC   C3B 2856   0.892   6.443   4.383  0.1751 -0.0108  0.1862
  197POPC   C4B 2857   0.712   6.414   4.708 -0.0718 -0.3219  0.0956
  198POPC   NC3 2858   5.742   3.673   4.766 -0.1084  0.0580 -0.3774
  198POPC   PO4 2859   5.562   3.870   5.122 -0.0848  0.0613 -0.0906
  198POPC   GL1 2860   5.600   3.981   5.545  0.2131 -0.0491 -0.0578
  198POPC   GL2 2861   5.181   3.876   5.524 -0.2370  0.1682  0.2451
  198POPC   C1A 2862   5.686   3.864   5.912 -0.1801 -0.1016  0.1188
  198POPC   D2A 2863   5.477   3.738   6.288 -0.3000  0.0377 -0.0535
  198POPC   C3A 2864   5.721   3.549   6.608  0.0838 -0.3309  0.1735
  198POPC   C4A 2865   6.012   3.333   6.857  0.1669 -0.4484 -0.2332
  198POPC   C1B 2866   4.875   4.043   5.778 -0.2481 -0.1060  0.2336
  198POPC   C2B 2867   4.539   4.253   6.070  0.1269  0.2188 -0.1769
  198POPC   C3B 2868   4.447   4.723   6.234  0.1196  0.0929  0.0554
  198POPC   C4B 2869   4.380   5.025   6.479  0.0461  0.1259 -0.1362
  199POPC   NC3 2870   5.358   0.984   4.872  0.2265  0.0403 -0.2232
  199POPC   PO4 2871   5.122   0.808   5.117 -0.1190 -0.1718  0.1016
  199POPC   GL1 2872   5.019   0.688   5.523  0.0551  0.2823 -0.2043
  199POPC   GL2 2873   4.919   0.439   5.743 -0.1890 -0.2575  0.0356
  199POPC   C1A 2874   4.764   0.903   5.931 -0.2896 -0.0052  0.1437
  199POPC   D2A 2875   4.768   0.911   6.341  0.0545 -0.1382  0.0156
  199POPC   C3A 2876   4.854   1.371   6.437  0.1547  0.0290 -0.0030
  199POPC   C4A 2877   4.830   1.789   6.661  0.2113 -0.2686  0.0201
  199POPC   C1B 2878   4.579   0.484   6.141  0.1212 -0.0621 -0.0244
  199POPC   C2B 2879   4.541   0.379   6.703  0.1289  0.1085  0.0691
  199POPC   C3B 2880   4.743   0.227   7.099 -0.1325  0.0428  0.2733
  199POPC   C4B 2881   4.574  -0.067   7.347  0.1533  0.0977  0.0544
  200POPC   NC3 2882   3.452   2.156   4.597  0.1856 -0.1277  0.0222
  200POPC   PO4 2883   3.369   1.775   4.844  0.0004 -0.0849 -0.0040
  200POPC   GL1 2884   3.174   2.050   5.085 -0.0772  0.2637  0.2909
  200POPC   GL2 2885   3.352   2.354   5.028  0.0106  0.3222 -0.1337
  200POPC   C1A 2886   3.243   2.133   5.491  0.3633  0.1310  0.0765
  200POPC   D2A 2887   3.197   2.084   5.888 -0.0909 -0.1567  0.1805
  200POPC   C3A 2888   3.521   2.302   6.215  0.0640 -0.3674 -0.0460
  200POPC   C4A 2889   3.690   2.586   6.507  0.1091 -0.0767 -0.1516
  200POPC   C1B 2890   3.191   2.634   5.298  0.2513  0.1046  0.1726
  200POPC   C2B 2891   2.847   2.929   5.664  0.0603 -0.2221  0.0895
  200POPC   C3B 2892   2.704   2.826   6.051 -0.1497 -0.2295  0.3243
  200POPC   C4B 2893   2.675   2.758   6.541 -0.3028 -0.0043 -0.1069
  201POPC   NC3 2894   6.648   3.713   4.337  0.1731  0.0222 -0.0272
  201POPC   PO4 2895   6.755   3.525   4.757  0.0204  0.0882 -0.0176
  201POPC   GL1 2896   6.744   3.531   5.194 -0.0773 -0.1780 -0.2273
  201POPC   GL2 2897   6.545   3.357   5.281  0.0000 -0.0542 -0.2472
  201POPC   C1A 2898   6.760   3.674   5.603 -0.0930  0.2027 -0.1016
  201POPC   D2A 2899   6.778   3.977   5.895  0.5048 -0.1562 -0.3049
  201POPC   C3A 2900   6.457   4.181   5.690 -0.2175  0.0666 -0.0811
  201POPC   C4A 2901   5.988   4.245   5.490  0.1661 -0.0536 -0.1296
  201POPC   C1B 2902   6.426   3.189   5.657  0.0511  0.3699 -0.1459
  201POPC   C2B 2903   6.558   3.261   6.165 -0.0590 -0.0950 -0.0661
  201POPC   C3B 2904   6.722   3.612   6.385  0.3272 -0.0304 -0.3018
  201POPC   C4B 2905   6.427   3.993   6.694  0.1565 -0.4219  0.0036
  202POPC   NC3 2906   3.771   9.362   4.893  0.1965  0.0115  0.2897
  202POPC   PO4 2907   3.942   8.913   4.766  0.0416 -0.0506  0.1205
  202POPC   GL1 2908   3.735   8.933   5.160  0.0864  0.0653  0.1090
  202POPC   GL2 2909   3.698   8.655   5.406  0.1460 -0.0534 -0.0863
  202POPC   C1A 2910   3.633   9.063   5.687  0.0828 -0.0128 -0.3175
  202POPC   D2A 2911   3.856   9.319   6.121  0.3358 -0.3532 -0.1043
  202POPC   C3A 2912   3.833   9.189   6.524 -0.2728 -0.1385 -0.0147
  202POPC   C4A 2913   3.944   8.688   6.576 -0.1777 -0.2461 -0.0037
  202POPC   C1B 2914   3.939   8.493   5.707  0.1892 -0.1199  0.0854
  202POPC   C2B 2915   4.014   8.395   6.149 -0.0683 -0.1045 -0.1294
  202POPC   C3B 2916   4.090   8.126   6.485 -0.1399  0.1692  0.3258
  202POPC   C4B 2917   4.396   7.941   6.669 -0.1239 -0.1107 -0.0250
  203POPC   NC3 2918   0.048   2.626   4.597  0.1473  0.1984  0.2696
  203POPC   PO4 2919  -0.378   2.787   4.651  0.3543  0.0741  0.0546
  203POPC   GL1 2920  -0.448   2.894   4.997  0.1544 -0.0147 -0.3595
  203POPC   GL2 2921  -0.750   2.947   5.287  0.0920 -0.0082 -0.0109
  203POPC   C1A 2922  -0.173   3.001   5.413  0.0878  0.0839 -0.0835
  203POPC   D2A 2923   0.001   3.137   5.801  0.1124  0.3037 -0.0435
  203POPC   C3A 2924  -0.055   2.881   6.280  0.0672 -0.0117  0.2571
  203POPC   C4A 2925   0.189   2.489   6.321 -0.2392  0.2219  0.0168
  203POPC   C1B 2926  -0.606   2.682   5.693 -0.0436 -0.1738  0.2066
  203POPC   C2B 2927  -0.174   2.638   5.755 -0.3646  0.2386 -0.1682
  203POPC   C3B 2928   0.231   2.663   5.565  0.1864  0.0333  0.3458
  203POPC   C4B 2929   0.447   2.997   5.532  0.0432  0.0242 -0.3336
  204POPC   NC3 2930   8.902   1.094   4.684 -0.2151  0.2621  0.0649
  204POPC   PO4 2931   8.552   1.077   4.398  0.3952 -0.1080  0.0974
  204POPC   GL1 2932   8.353   1.368   4.748  0.0622 -0.3974 -0.3340
  204POPC   GL2 2933   8.558   1.343   5.009 -0.2914 -0.1328  0.4130
  204POPC   C1A 2934   8.064   1.405   5.182  0.0835  0.0118 -0.0322
  204POPC   D2A 2935   7.710   1.490   5.368 -0.1901  0.1034 -0.2815
  204POPC   C3A 2936   7.736   1.335   5.729 -0.0532 -0.3236  0.1413
  204POPC   C4A 2937   8.092   1.404   6.060 -0.0222  0.0396  0.1189
  204POPC   C1B 2938   8.571   1.305   5.374  0.0835  0.1273 -0.1076
  204POPC   C2B 2939   8.177   1.101   5.622  0.2215 -0.0099  0.3111
  204POPC   C3B 2940   7.951   0.861   5.842  0.2638 -0.1353  0.1793
  204POPC   C4B 2941   7.936   0.848   6.378  0.1143  0.1502  0.1330
  205POPC   NC3 2942   7.815   6.469   4.459 -0.2747  0.0321 -0.2865
  205POPC   PO4 2943   7.883   6.080   4.458  0.1264  0.3524 -0.0679
  205POPC   GL1 2944   8.061   6.074   4.946 -0.2187  0.1776  0.1333
  205POPC   GL2 2945   7.977   6.331   4.900 -0.3767  0.0748  0.6754
  205POPC   C1A 2946   8.097   5.920   5.336  0.2659  0.1531  0.0035
  205POPC   D2A 2947   8.043   6.083   5.766 -0.2422  0.0783  0.0731
  205POPC   C3A 2948   8.294   5.905   6.084  0.2894 -0.3844 -0.0514
  205POPC   C4A 2949   8.421   5.980   6.430 -0.0195  0.2515 -0.1620
  205POPC   C1B 2950   7.851   6.399   5.369  0.1795  0.1265 -0.0713
  205POPC   C2B 2951   7.621   6.511   5.749 -0.1603  0.3267  0.0684
  205POPC   C3B 2952   7.846   6.500   6.181 -0.0275 -0.1064 -0.1103
  205POPC   C4B 2953   8.137   6.452   6.580 -0.1597  0.3070  0.2216
  206POPC   NC3 2954   7.657   7.103   4.527 -0.1884  0.1241 -0.1461
  206POPC   PO4 2955   8.027   7.367   4.648 -0.1306 -0.1787 -0.0621
  206POPC   GL1 2956   8.089   7.321   5.030 -0.0702  0.0226 -0.2045
  206POPC   GL2 2957   8.260   7.605   5.245  0.1430  0.0972  0.1305
  206POPC   C1A 2958   8.112   6.962   5.356  0.1042  0.0584 -0.1640
  206POPC   D2A 2959   8.053   6.699   5.749 -0.1826 -0.5389  0.0635
  206POPC   C3A 2960   8.300   6.440   6.065 -0.0625  0.1131  0.0469
  206POPC   C4A 2961   8.640   6.485   6.378 -0.0905 -0.1181 -0.1787
  206POPC   C1B 2962   8.135   7.784   5.700 -0.2138 -0.0841 -0.1477
  206POPC   C2B 2963   8.197   7.754   6.054 -0.2084 -0.3369  0.0110
  206POPC   C3B 2964   8.404   7.757   6.556  0.0950 -0.0084  0.1716
  206POPC   C4B 2965   8.418   7.999   7.002 -0.0133 -0.0763 -0.2139
  207POPC   NC3 2966   0.299   1.026   4.890 -0.4446 -0.2345 -0.0182
  207POPC   PO4 2967   0.112   1.308   4.893 -0.1580  0.1691  0.0344
  207POPC   GL1 2968   0.182   1.146   5.366 -0.0577  0.1301 -0.2732
  207POPC   GL2 2969   0.535   1.138   5.465  0.1354 -0.1128 -0.1278
  207POPC   C1A 2970   0.182   1.004   5.793 -0.1598 -0.0172  0.1343
  207POPC   D2A 2971   0.094   0.732   6.151  0.0452 -0.1171 -0.2333
  207POPC   C3A 2972  -0.255   0.900   6.439  0.0215  0.1195  0.0845
  207POPC   C4A 2973  -0.728   0.941   6.492  0.2243 -0.0564  0.0962
  207POPC   C1B 2974   0.835   1.307   5.807 -0.1694  0.3346 -0.5378
  207POPC   C2B 2975   0.824   1.709   6.128 -0.3548  0.2678 -0.0820
  207POPC   C3B 2976   0.713   2.103   6.144  0.3789  0.0538  0.2745
  207POPC   C4B 2977   0.840   2.435   6.350 -0.0667 -0.0472  0.0603
  208POPC   NC3 2978   4.479  10.148   4.675 -0.1399  0.1641 -0.0423
  208POPC   PO4 2979   4.701   9.810   4.919 -0.2049  0.1575 -0.0385
  208POPC   GL1 2980   4.889   9.601   5.289 -0.3487 -0.0824 -0.0894
  208POPC   GL2 2981   5.117   9.390   5.325  0.5613  0.3245 -0.1676
  208POPC   C1A 2982   4.638   9.599   5.775 -0.0906  0.0816  0.2888
  208POPC   D2A 2983   4.192   9.552   5.873  0.2544  0.2118  0.1325
  208POPC   C3A 2984   4.248   9.511   6.338 -0.0750 -0.2744  0.0668
  208POPC   C4A 2985   4.101   9.658   6.747 -0.2052  0.0230  0.1326
  208POPC   C1B 2986   5.107   9.356   5.752  0.1794 -0.1362 -0.0381
  208POPC   C2B 2987   4.947   9.613   6.187  0.0902 -0.2877 -0.1308
  208POPC   C3B 2988   4.670   9.708   6.533  0.3443 -0.0549  0.0036
  208POPC   C4B 2989   4.556   9.407   6.872 -0.2248  0.1702 -0.0423
  209POPC   NC3 2990   7.890   8.223   4.615 -0.2736  0.0357  0.0349
  209POPC   PO4 2991   8.337   8.080   4.671 -0.0914 -0.2623  0.0860
  209POPC   GL1 2992   8.417   8.029   5.127 -0.2942 -0.0245  0.0917
  209POPC   GL2 2993   8.006   8.137   5.343  0.0749 -0.0083  0.0955
  209POPC   C1A 2994   8.576   8.097   5.486  0.2344 -0.0413 -0.0767
  209POPC   D2A 2995   8.600   7.962   5.844  0.1628  0.3136  0.1733
  209POPC   C3A 2996   8.599   8.181   6.213  0.1874 -0.1984 -0.1958
  209POPC   C4A 2997   8.523   8.377   6.627 -0.3186 -0.1178 -0.1533
  209POPC   C1B 2998   7.664   8.218   5.709 -0.4183  0.0664 -0.0163
  209POPC   C2B 2999   7.455   8.047   6.022 -0.3432 -0.1317 -0.2519
  209POPC   C3B 3000   7.177   7.822   6.280  0.2294  0.0372  0.2766
  209POPC   C4B 3001   6.845   7.486   6.455  0.2745  0.0671  0.1926
  210POPC   NC3 3002   9.887   0.992   5.012  0.2463 -0.0685 -0.0178
  210POPC   PO4 3003   9.672   0.618   4.969  0.0221  0.0195 -0.1810
  210POPC   GL1 3004   9.811   0.473   5.351  0.0664 -0.0654 -0.2139
  210POPC   GL2 3005   9.473   0.438   5.510  0.2942  0.0638 -0.0800
  210POPC   C1A 3006  10.178   0.347   5.590 -0.3080  0.0514 -0.0996
  210POPC   D2A 3007  10.521   0.531   5.636 -0.1581  0.1476 -0.3240
  210POPC   C3A 3008  10.796   0.346   5.939 -0.0683  0.1024  0.4532
  210POPC   C4A 3009  10.861   0.216   6.325 -0.2910  0.1450  0.2047
  210POPC   C1B 3010   9.013   0.420   5.707 -0.0971 -0.2412 -0.3125
  210POPC   C2B 3011   8.716   0.447   5.912 -0.0875  0.0038 -0.0243
  210POPC   C3B 3012   8.570   0.116   6.258  0.1385  0.0263  0.0187
  210POPC   C4B 3013   8.218   0.145   6.517 -0.2711  0.2773 -0.0531
  211POPC   NC3 3014   8.768   4.560   4.673 -0.0064  0.1265  0.1729
  211POPC   PO4 3015   8.285   4.634   4.500 -0.1742 -0.1626  0.0044
  211POPC   GL1 3016   8.311   4.605   4.907 -0.0343 -0.1832  0.0065
  211POPC   GL2 3017   8.226   4.252   5.012 -0.0963 -0.4125 -0.0616
  211POPC   C1A 3018   8.322   4.572   5.365 -0.0266  0.0600 -0.0124
  211POPC   D2A 3019   8.313   4.356   5.793 -0.2241 -0.1709 -0.0032
  211POPC   C3A 3020   8.277   4.532   6.235 -0.0506  0.1674 -0.0203
  211POPC   C4A 3021   8.239   4.685   6.691 -0.0991  0.0095  0.0980
  211POPC   C1B 3022   8.065   4.048   5.401  0.0859  0.0934 -0.0909
  211POPC   C2B 3023   7.736   4.052   5.710 -0.1781  0.2094 -0.2964
  211POPC   C3B 3024   7.680   3.809   6.079  0.0670  0.2703  0.0840
  211POPC   C4B 3025   7.764   3.981   6.519 -0.0897 -0.0428  0.3774
  212POPC   NC3 3026   5.111   6.218   3.899 -0.0492  0.2554  0.0376
  212POPC   PO4 3027   5.254   6.169   4.368  0.0904 -0.0773  0.1842
  212POPC   GL1 3028   5.390   6.042   4.869  0.0054 -0.0651  0.0149
  212POPC   GL2 3029   5.539   6.325   5.041  0.0721  0.1266 -0.3695
  212POPC   C1A 3030   5.473   5.793   5.228 -0.3027 -0.0856  0.1191
  212POPC   D2A 3031   5.272   5.747   5.546 -0.0138  0.3222  0.1624
  212POPC   C3A 3032   5.543   5.854   5.977  0.0538  0.2454 -0.5370
  212POPC   C4A 3033   5.563   5.901   6.454  0.0332  0.1557  0.2457
  212POPC   C1B 3034   5.692   6.497   5.384 -0.1344 -0.1249 -0.1703
  212POPC   C2B 3035   5.482   6.384   5.754 -0.0416  0.4090 -0.1483
  212POPC   C3B 3036   5.385   6.526   6.184 -0.2409 -0.0085 -0.0076
  212POPC   C4B 3037   5.403   6.633   6.591 -0.1718  0.0194  0.1431
  213POPC   NC3 3038   2.393   6.140   3.231  0.0458  0.0688 -0.2925
  213POPC   PO4 3039   2.644   6.261   3.495  0.2774 -0.0616 -0.3477
  213POPC   GL1 3040   2.605   6.043   3.911  0.1761 -0.0912 -0.3716
  213POPC   GL2 3041   2.572   5.758   3.796  0.2835 -0.1357 -0.1504
  213POPC   C1A 3042   2.812   5.933   4.319  0.2444 -0.1227 -0.1069
  213POPC   D2A 3043   2.874   5.790   4.726  0.1148 -0.2105  0.1707
  213POPC   C3A 3044   2.991   6.124   4.744  0.1567 -0.1331 -0.0893
  213POPC   C4A 3045   3.030   6.385   4.376  0.1070 -0.0686  0.0593
  213POPC   C1B 3046   2.426   5.358   4.025  0.0095  0.0331 -0.1839
  213POPC   C2B 3047   2.559   5.032   4.214 -0.0048 -0.2534  0.1552
  213POPC   C3B 3048   2.498   4.806   4.575 -0.2985  0.2494  0.1295
  213POPC   C4B 3049   2.184   4.501   4.863 -0.1406 -0.2924 -0.0914
  214POPC   NC3 3050   6.969   8.275   4.854 -0.0525  0.1709  0.2201
  214POPC   PO4 3051   7.341   8.294   4.599  0.0127 -0.0093 -0.1063
  214POPC   GL1 3052   7.510   8.301   4.937 -0.0162  0.1277 -0.1526
  214POPC   GL2 3053   7.289   8.611   5.117  0.0766 -0.1485  0.1084
  214POPC   C1A 3054   7.750   8.636   5.283 -0.0775 -0.1185 -0.2573
  214POPC   D2A 3055   7.724   8.877   5.585 -0.0797 -0.0486 -0.0808
  214POPC   C3A 3056   7.893   8.680   6.013 -0.2495  0.0579  0.2038
  214POPC   C4A 3057   8.076   8.666   6.413  0.4628 -0.1448 -0.3745
  214POPC   C1B 3058   7.230   8.574   5.574 -0.0651 -0.3228  0.0453
  214POPC   C2B 3059   7.403   8.594   5.984 -0.4004 -0.1785  0.0788
  214POPC   C3B 3060   7.666   8.445   6.397  0.0027  0.0426 -0.2015
  214POPC   C4B 3061   7.676   8.591   6.807 -0.1501  0.0454  0.1307
  215POPC   NC3 3062   3.634   3.524   4.389 -0.3534  0.2898  0.5319
  215POPC   PO4 3063   3.733   3.438   4.818 -0.2787 -0.2030 -0.2389
  215POPC   GL1 3064   3.750   3.558   5.203 -0.0960  0.2553  0.0087
  215POPC   GL2 3065   3.434   3.631   5.306  0.2186  0.1583  0.0972
  215POPC   C1A 3066   3.755   3.780   5.613 -0.0803 -0.1660 -0.0960
  215POPC   D2A 3067   3.852   3.638   5.971 -0.0966 -0.1219  0.0647
  215POPC   C3A 3068   3.650   3.312   6.168 -0.1648  0.2780  0.2486
  215POPC   C4A 3069   3.639   3.087   6.548  0.1047 -0.2248  0.0256
  215POPC   C1B 3070   3.357   3.487   5.769  0.2610  0.1936  0.0153
  215POPC   C2B 3071   3.214   3.142   6.006 -0.0765 -0.2401 -0.2673
  215POPC   C3B 3072   3.270   2.786   6.194  0.0237  0.0105 -0.2669
  215POPC   C4B 3073   3.148   2.603   6.565  0.0525  0.1330 -0.0131
  216POPC   NC3 3074   6.474   7.424   4.644 -0.1640  0.1271 -0.2812
  216POPC   PO4 3075   6.273   7.800   4.703 -0.1439  0.2260 -0.1388
  216POPC   GL1 3076   6.128   7.690   5.170  0.0476 -0.0272  0.5107
  216POPC   GL2 3077   6.459   7.560   5.151 -0.0648  0.1070  0.0079
  216POPC   C1A 3078   6.015   7.826   5.628  0.2373 -0.3034  0.0513
  216POPC   D2A 3079   6.077   8.108   5.889  0.2208  0.0060 -0.0584
  216POPC   C3A 3080   6.144   8.152   6.381 -0.1066  0.1509 -0.0030
  216POPC   C4A 3081   6.320   7.813   6.538  0.1855  0.0865 -0.0196
  216POPC   C1B 3082   6.354   7.524   5.554 -0.3792 -0.1028 -0.0943
  216POPC   C2B 3083   6.348   7.690   6.007 -0.0472 -0.0490 -0.1916
  216POPC   C3B 3084   5.982   7.698   6.184 -0.2069 -0.2331  0.1644
  216POPC   C4B 3085   5.712   7.407   6.192 -0.0410 -0.0766  0.2059
  217POPC   NC3 3086   4.450   8.835   4.770  0.2609 -0.1531  0.1816
  217POPC   PO4 3087   4.270   9.178   4.990  0.0701 -0.3050 -0.2022
  217POPC   GL1 3088   4.075   9.258   5.370  0.1352 -0.6773  0.0033
  217POPC   GL2 3089   3.933   9.545   5.401  0.0287  0.1301  0.0263
  217POPC   C1A 3090   4.132   9.037   5.777 -0.0726 -0.1889  0.2825
  217POPC   D2A 3091   4.179   8.880   6.151  0.2382  0.0994  0.2806
  217POPC   C3A 3092   4.448   8.576   6.443  0.0402  0.0375  0.4154
  217POPC   C4A 3093   4.536   8.111   6.249 -0.1782  0.3540  0.1254
  217POPC   C1B 3094   3.594   9.568   5.644 -0.0190  0.1140  0.2486
  217POPC   C2B 3095   3.300   9.719   5.946 -0.0428 -0.2388 -0.4012
  217POPC   C3B 3096   3.235   9.661   6.376  0.1772  0.0270  0.0682
  217POPC   C4B 3097   3.106   9.437   6.807  0.0071  0.1166  0.0917
  218POPC   NC3 3098   1.912   1.159   4.523 -0.1895  0.1257 -0.0797
  218POPC   PO4 3099   1.568   1.215   4.793 -0.1987  0.0872 -0.0698
  218POPC   GL1 3100   1.544   1.017   5.189 -0.1156  0.3444  0.0351
  218POPC   GL2 3101   1.863   1.150   5.295  0.0950  0.2748 -0.0660
  218POPC   C1A 3102   1.484   1.021   5.632  0.0560 -0.0173 -0.0057
  218POPC   D2A 3103   1.164   0.862   5.846  0.0480  0.0009 -0.1329
  218POPC   C3A 3104   1.335   0.793   6.182 -0.1755  0.1445 -0.0777
  218POPC   C4A 3105   1.406   0.371   6.464 -0.0606 -0.0110  0.0276
  218POPC   C1B 3106   1.681   1.503   5.543  0.0281 -0.0224  0.0955
  218POPC   C2B 3107   1.791   1.652   5.966 -0.3487 -0.0055 -0.0214
  218POPC   C3B 3108   1.659   1.717   6.317  0.0177  0.2153  0.0703
  218POPC   C4B 3109   1.327   2.072   6.340 -0.1388 -0.1216  0.0131
  219POPC   NC3 3110   8.132   3.176   4.766  0.0786 -0.2161  0.0179
  219POPC   PO4 3111   8.300   3.584   4.834 -0.0317  0.1751 -0.1600
  219POPC   GL1 3112   8.197   3.570   5.249  0.0505 -0.2575 -0.1723
  219POPC   GL2 3113   8.394   3.655   5.480  0.0469  0.4383  0.0491
  219POPC   C1A 3114   7.940   3.509   5.660  0.4358 -0.0804  0.0642
  219POPC   D2A 3115   8.074   3.393   6.206  0.4996 -0.0786  0.0835
  219POPC   C3A 3116   7.927   3.533   6.579  0.0300  0.0144  0.0092
  219POPC   C4A 3117   7.845   3.742   7.042  0.0654 -0.0745  0.1119
  219POPC   C1B 3118   8.165   3.827   5.856 -0.1360 -0.1696 -0.1296
  219POPC   C2B 3119   8.253   4.045   6.315  0.2023  0.3284 -0.1197
  219POPC   C3B 3120   8.181   4.065   6.743 -0.1063 -0.0843 -0.0157
  219POPC   C4B 3121   8.311   4.056   7.198  0.0183  0.0934  0.0617
  220POPC   NC3 3122  10.417   5.494   3.299  0.0048 -0.2143 -0.2117
  220POPC   PO4 3123  10.766   5.320   3.405  0.2469 -0.3777  0.3778
  220POPC   GL1 3124  11.039   5.491   3.717  0.3751 -0.1553 -0.1162
  220POPC   GL2 3125  11.378   5.426   3.826 -0.3045 -0.0188 -0.2626
  220POPC   C1A 3126  11.044   5.609   4.115  0.1517 -0.0931 -0.1105
  220POPC   D2A 3127  10.828   5.692   4.479  0.0506  0.3321 -0.3740
  220POPC   C3A 3128  10.903   5.405   4.814  0.1934 -0.0822  0.1213
  220POPC   C4A 3129  11.200   5.068   4.645  0.1852  0.1584 -0.1374
  220POPC   C1B 3130  11.590   5.744   4.050 -0.0825 -0.2991  0.2309
  220POPC   C2B 3131  11.834   5.872   4.344 -0.0160  0.1840 -0.0415
  220POPC   C3B 3132  12.181   5.709   4.513  0.0678  0.2347  0.1857
  220POPC   C4B 3133  12.490   5.339   4.351 -0.1856 -0.1920 -0.0835
  221POPC   NC3 3134   9.273   6.488   3.554  0.1197 -0.1000 -0.0388
  221POPC   PO4 3135   9.022   6.657   3.833  0.1838 -0.2706 -0.1222
  221POPC   GL1 3136   9.010   6.596   4.279  0.2858  0.0262  0.3463
  221POPC   GL2 3137   8.582   6.560   4.438 -0.2931 -0.0786 -0.0134
  221POPC   C1A 3138   9.270   6.717   4.611 -0.0376  0.0489 -0.1121
  221POPC   D2A 3139   9.528   6.683   4.988  0.2194  0.1541 -0.2375
  221POPC   C3A 3140   9.876   6.772   5.104 -0.2156  0.0550  0.1657
  221POPC   C4A 3141   9.989   6.798   5.503 -0.0700  0.0332  0.1059
  221POPC   C1B 3142   8.829   6.638   4.902  0.1512  0.1278  0.0766
  221POPC   C2B 3143   8.918   6.422   5.308  0.0012  0.0650 -0.1734
  221POPC   C3B 3144   9.109   6.528   5.656  0.2911 -0.0881 -0.1808
  221POPC   C4B 3145   9.346   6.287   6.028 -0.2371 -0.2329  0.2876
  222POPC   NC3 3146  10.398   3.758   4.572  0.1024  0.0206  0.2685
  222POPC   PO4 3147  10.323   4.092   4.928 -0.1221 -0.1840  0.0283
  222POPC   GL1 3148  10.016   3.929   5.245  0.0644  0.2646 -0.0287
  222POPC   GL2 3149   9.827   4.207   5.487  0.0840  0.1186  0.4686
  222POPC   C1A 3150   9.793   3.700   5.636  0.0183  0.0051  0.1537
  222POPC   D2A 3151   9.616   3.487   5.991  0.0965  0.0387 -0.0359
  222POPC   C3A 3152   9.606   3.637   6.487 -0.1391  0.2307  0.0251
  222POPC   C4A 3153   9.533   3.725   6.942  0.5007 -0.1381  0.2829
  222POPC   C1B 3154   9.898   4.153   5.928  0.1640  0.3521 -0.0452
  222POPC   C2B 3155   9.596   4.123   6.196 -0.0332  0.0593  0.0948
  222POPC   C3B 3156   9.286   4.091   6.434 -0.2540  0.0211 -0.2308
  222POPC   C4B 3157   9.352   4.162   6.801 -0.0307 -0.3944 -0.1277
  223POPC   NC3 3158   3.514   5.395   3.999 -0.0204  0.2289  0.0389
  223POPC   PO4 3159   3.563   5.833   3.924  0.1593 -0.3026  0.2372
  223POPC   GL1 3160   3.278   5.688   4.319 -0.1485  0.0195 -0.1933
  223POPC   GL2 3161   3.321   5.423   4.471  0.0399  0.2965  0.1673
  223POPC   C1A 3162   2.843   5.396   4.337 -0.6327  0.0361  0.0868
  223POPC   D2A 3163   3.003   4.954   4.437  0.0719 -0.3797  0.0404
  223POPC   C3A 3164   3.360   4.837   4.269  0.0896 -0.2461 -0.1577
  223POPC   C4A 3165   3.714   4.590   4.505  0.0478 -0.1743 -0.1263
  223POPC   C1B 3166   3.006   5.289   4.804  0.0879 -0.0932  0.0077
  223POPC   C2B 3167   3.103   5.101   5.345  0.0749 -0.0560 -0.1019
  223POPC   C3B 3168   3.140   4.793   5.767  0.4355 -0.0002  0.2377
  223POPC   C4B 3169   3.143   4.436   5.958 -0.1605 -0.1397 -0.0664
  224POPC   NC3 3170   1.017   7.879   3.540  0.0732 -0.0786  0.1125
  224POPC   PO4 3171   0.995   8.155   3.915  0.1576  0.3149 -0.1404
  224POPC   GL1 3172   1.024   7.875   4.272 -0.1290  0.0864 -0.0457
  224POPC   GL2 3173   0.983   7.960   4.627  0.1269 -0.0507 -0.4014
  224POPC   C1A 3174   1.030   7.439   4.508  0.0152 -0.3182  0.1944
  224POPC   D2A 3175   0.855   7.088   4.737 -0.1317  0.0257 -0.0711
  224POPC   C3A 3176   0.759   6.834   5.121 -0.3401 -0.0207 -0.2996
  224POPC   C4A 3177   0.467   6.650   5.418 -0.0900 -0.0178  0.2465
  224POPC   C1B 3178   0.714   8.056   4.953  0.3679  0.0477  0.2041
  224POPC   C2B 3179   0.291   8.199   5.065 -0.2374 -0.1924 -0.2413
  224POPC   C3B 3180  -0.154   8.042   4.938 -0.3493  0.0783  0.0513
  224POPC   C4B 3181  -0.533   7.903   5.049  0.2107 -0.1602  0.0347
  225POPC   NC3 3182   3.071   0.648   5.249  0.0524 -0.1071  0.0016
  225POPC   PO4 3183   3.351   0.208   5.133 -0.0434 -0.0986 -0.0921
  225POPC   GL1 3184   3.198   0.221   5.500  0.1562  0.1255  0.1939
  225POPC   GL2 3185   3.398  -0.026   5.569 -0.1455 -0.3102 -0.0131
  225POPC   C1A 3186   2.931   0.127   5.899  0.0712 -0.0811  0.2033
  225POPC   D2A 3187   2.667   0.206   6.265 -0.1945 -0.0184  0.0357
  225POPC   C3A 3188   2.837   0.063   6.613 -0.3982 -0.2610  0.2257
  225POPC   C4A 3189   3.040  -0.176   7.027  0.1003 -0.1536  0.0498
  225POPC   C1B 3190   3.254  -0.265   5.904  0.0407  0.1557  0.0330
  225POPC   C2B 3191   3.461  -0.384   6.326 -0.0974 -0.3232 -0.1637
  225POPC   C3B 3192   3.598  -0.454   6.725 -0.0502  0.1367 -0.0431
  225POPC   C4B 3193   3.897  -0.462   6.955  0.0462 -0.2367  0.0829
  226POPC   NC3 3194   2.240   2.173   4.539 -0.1089 -0.0231  0.1396
  226POPC   PO4 3195   2.472   1.788   4.741 -0.0863 -0.0272  0.1110
  226POPC   GL1 3196   2.654   1.950   5.075 -0.0591 -0.1004 -0.1988
  226POPC   GL2 3197   2.410   1.997   5.321 -0.2603  0.2103  0.2930
  226POPC   C1A 3198   2.825   2.355   5.206  0.1565 -0.0489  0.0455
  226POPC   D2A 3199   2.577   2.478   5.593  0.2687  0.1430  0.0303
  226POPC   C3A 3200   2.601   2.269   5.995 -0.0700 -0.1086 -0.2879
  226POPC   C4A 3201   2.929   2.213   6.268 -0.3045  0.2648  0.1813
  226POPC   C1B 3202   2.789   2.034   5.629 -0.0850 -0.3400  0.2537
  226POPC   C2B 3203   2.991   2.505   5.829  0.1868  0.1237 -0.2816
  226POPC   C3B 3204   3.361   2.665   5.744  0.1614 -0.1150  0.2176
  226POPC   C4B 3205   3.666   2.339   5.646 -0.0115 -0.2367 -0.0699
  227POPC   NC3 3206   7.522   5.959   4.850 -0.0716 -0.0210  0.2176
  227POPC   PO4 3207   7.178   5.667   4.698 -0.2319 -0.1404 -0.2346
  227POPC   GL1 3208   6.992   5.456   5.047  0.2945  0.4690  0.0774
  227POPC   GL2 3209   6.690   5.433   4.969 -0.2417  0.1921  0.1176
  227POPC   C1A 3210   7.206   5.501   5.501 -0.0716 -0.1015  0.0391
  227POPC   D2A 3211   7.182   5.508   5.965  0.2383 -0.2445 -0.3614
  227POPC   C3A 3212   7.200   5.743   6.238 -0.1101  0.1009 -0.0221
  227POPC   C4A 3213   7.197   6.075   6.447  0.2051  0.1544  0.1031
  227POPC   C1B 3214   6.780   5.756   5.367 -0.2142  0.0810  0.1249
  227POPC   C2B 3215   6.943   5.907   5.753 -0.0523  0.0975  0.1232
  227POPC   C3B 3216   6.803   6.173   6.104  0.2703  0.3617  0.1066
  227POPC   C4B 3217   6.866   6.487   6.453  0.0528  0.4346  0.1180
  228POPC   NC3 3218   7.242   2.452   4.418 -0.0151  0.2308 -0.1581
  228POPC   PO4 3219   7.522   2.504   4.729 -0.0035  0.2912  0.0652
  228POPC   GL1 3220   7.400   2.703   5.181  0.0612 -0.1091 -0.0739
  228POPC   GL2 3221   7.061   2.621   5.255 -0.2061  0.1191 -0.1199
  228POPC   C1A 3222   7.553   2.859   5.569  0.0190  0.2482  0.0874
  228POPC   D2A 3223   7.707   2.681   5.868 -0.0021  0.1213  0.1314
  228POPC   C3A 3224   7.644   2.953   6.237 -0.3918  0.1185 -0.1099
  228POPC   C4A 3225   7.823   2.864   6.541 -0.1455 -0.1062  0.0141
  228POPC   C1B 3226   7.053   2.759   5.709  0.2029 -0.1381  0.0870
  228POPC   C2B 3227   6.641   2.770   5.896 -0.2654 -0.1003 -0.4733
  228POPC   C3B 3228   6.346   2.662   6.195 -0.3258 -0.0549  0.1417
  228POPC   C4B 3229   6.026   2.364   6.332 -0.0360 -0.0185 -0.0621
  229POPC   NC3 3230   9.403   5.603   4.608 -0.1784  0.1495  0.2360
  229POPC   PO4 3231   9.038   5.465   4.521  0.1219  0.0490  0.1751
  229POPC   GL1 3232   8.938   5.573   4.879 -0.0580  0.2327 -0.2042
  229POPC   GL2 3233   9.099   5.784   5.015 -0.3014 -0.1359  0.1290
  229POPC   C1A 3234   8.747   5.516   5.396  0.0186  0.0070  0.0973
  229POPC   D2A 3235   8.809   5.196   5.738  0.1669 -0.2684 -0.0512
  229POPC   C3A 3236   8.387   5.006   5.836  0.0384  0.1258  0.0160
  229POPC   C4A 3237   8.011   4.956   5.626  0.0381 -0.0708 -0.2050
  229POPC   C1B 3238   9.073   5.976   5.502  0.2550 -0.1229  0.2743
  229POPC   C2B 3239   8.878   6.147   5.893 -0.3085 -0.1470 -0.1087
  229POPC   C3B 3240   9.034   5.957   6.323  0.2789  0.0490 -0.1123
  229POPC   C4B 3241   8.844   6.154   6.741  0.1249  0.0038  0.1532
  230POPC   NC3 3242   3.197  10.291   5.171 -0.1913 -0.2309  0.1219
  230POPC   PO4 3243   3.151   9.947   5.200  0.1574  0.0295 -0.0634
  230POPC   GL1 3244   2.968   9.894   5.587  0.0935 -0.0116 -0.1325
  230POPC   GL2 3245   2.901  10.261   5.590  0.2798  0.0916 -0.1065
  230POPC   C1A 3246   2.837   9.694   6.010  0.0643  0.0129 -0.4853
  230POPC   D2A 3247   2.826   9.418   6.398  0.1451  0.2586  0.0236
  230POPC   C3A 3248   2.655   9.589   6.801  0.1183 -0.0905  0.0365
  230POPC   C4A 3249   2.360   9.582   7.204  0.0086 -0.0136 -0.0014
  230POPC   C1B 3250   2.709  10.152   5.938 -0.1775  0.2323 -0.0095
  230POPC   C2B 3251   2.870  10.139   6.314 -0.3774  0.2583 -0.0026
  230POPC   C3B 3252   3.013   9.937   6.689  0.3603  0.3610 -0.0540
  230POPC   C4B 3253   3.299   9.861   7.122 -0.0264 -0.4258  0.1886
  231POPC   NC3 3254   8.875   2.718   4.719  0.1975 -0.0233  0.1777
  231POPC   PO4 3255   9.205   2.425   4.757 -0.2748  0.1917  0.0214
  231POPC   GL1 3256   9.224   2.363   5.220 -0.2118 -0.0326 -0.0155
  231POPC   GL2 3257   9.048   2.234   5.427 -0.1885 -0.0880  0.0868
  231POPC   C1A 3258   9.369   2.722   5.571  0.0984 -0.1834  0.3361
  231POPC   D2A 3259   9.480   3.033   5.771 -0.1837 -0.1339  0.3105
  231POPC   C3A 3260   9.342   3.435   5.602  0.1451 -0.1220 -0.0363
  231POPC   C4A 3261   9.364   3.879   5.437  0.4591  0.1183  0.0491
  231POPC   C1B 3262   9.060   2.426   5.877  0.1365 -0.1049  0.1814
  231POPC   C2B 3263   9.209   2.457   6.352  0.1703 -0.0035 -0.1700
  231POPC   C3B 3264   9.158   2.277   6.796 -0.0159 -0.1898  0.2619
  231POPC   C4B 3265   9.292   2.255   7.246  0.1807 -0.0144  0.1044
  232POPC   NC3 3266   5.986   8.572   4.588 -0.0301  0.1918 -0.2206
  232POPC   PO4 3267   5.747   8.991   4.688 -0.1401  0.1116 -0.3632
  232POPC   GL1 3268   5.758   9.164   5.171 -0.0629 -0.0471  0.3922
  232POPC   GL2 3269   5.588   9.282   5.397  0.1237  0.2644  0.0013
  232POPC   C1A 3270   6.034   8.883   5.528 -0.2940  0.3540  0.0290
  232POPC   D2A 3271   6.383   8.519   5.680 -0.0195  0.0955  0.2976
  232POPC   C3A 3272   6.517   8.392   6.054  0.2934  0.0329  0.1160
  232POPC   C4A 3273   6.683   8.019   6.230 -0.1245  0.0124  0.2940
  232POPC   C1B 3274   5.838   9.391   5.656 -0.1370 -0.0500 -0.1542
  232POPC   C2B 3275   6.023   9.257   6.028  0.0034 -0.3620  0.2360
  232POPC   C3B 3276   6.212   9.380   6.428  0.0594 -0.1349  0.0646
  232POPC   C4B 3277   6.177   9.488   6.822  0.2143 -0.0257 -0.2614
  233POPC   NC3 3278   9.311  10.491   4.726 -0.1548 -0.0865  0.0090
  233POPC   PO4 3279   9.755  10.290   4.728  0.1898  0.1289 -0.2048
  233POPC   GL1 3280   9.637  10.452   5.152  0.0739  0.0363  0.1032
  233POPC   GL2 3281   9.325  10.611   5.165  0.0497  0.0800 -0.3578
  233POPC   C1A 3282   9.674  10.461   5.637  0.2508  0.0514 -0.2729
  233POPC   D2A 3283   9.834  10.655   6.010  0.2379  0.1015  0.3236
  233POPC   C3A 3284   9.631  10.511   6.390 -0.0246  0.0675 -0.0527
  233POPC   C4A 3285   9.551  10.545   6.741  0.0239 -0.2456  0.1421
  233POPC   C1B 3286   9.186  10.519   5.563 -0.1327  0.2103  0.1456
  233POPC   C2B 3287   9.347  10.583   5.945  0.1170 -0.2148 -0.2778
  233POPC   C3B 3288   9.232  10.940   6.159  0.4503 -0.0103 -0.1064
  233POPC   C4B 3289   9.663  11.143   6.098  0.1355  0.0823 -0.1389
  234POPC   NC3 3290   5.188   3.571   4.917  0.0265  0.0957  0.1596
  234POPC   PO4 3291   5.492   3.188   4.845  0.1521  0.0510  0.0854
  234POPC   GL1 3292   5.523   3.308   5.289  0.3331 -0.2309 -0.2113
  234POPC   GL2 3293   5.837   3.476   5.371  0.3440  0.3162  0.4001
  234POPC   C1A 3294   5.298   3.376   5.577 -0.0800 -0.0307 -0.4645
  234POPC   D2A 3295   5.211   3.618   5.917  0.0274 -0.2616 -0.1229
  234POPC   C3A 3296   5.010   3.655   6.297  0.1075  0.1900  0.2497
  234POPC   C4A 3297   4.710   3.815   6.581  0.2224  0.0123  0.0943
  234POPC   C1B 3298   5.892   3.409   5.779  0.1696 -0.0129  0.2579
  234POPC   C2B 3299   5.932   3.336   6.177 -0.0122 -0.2602  0.2069
  234POPC   C3B 3300   6.172   3.034   6.461 -0.1563 -0.2746 -0.1529
  234POPC   C4B 3301   6.523   3.201   6.711  0.0084  0.0652 -0.1021
  235POPC   NC3 3302   5.036   7.497   4.461 -0.0142 -0.1551  0.1489
  235POPC   PO4 3303   5.363   7.339   4.756 -0.1334 -0.2471 -0.2930
  235POPC   GL1 3304   5.351   7.149   5.184 -0.0235  0.0092  0.0188
  235POPC   GL2 3305   4.927   7.171   5.294 -0.1435  0.1498  0.0031
  235POPC   C1A 3306   5.565   6.951   5.529  0.2350 -0.0731 -0.2029
  235POPC   D2A 3307   5.605   6.933   5.962 -0.2529 -0.3162 -0.1194
  235POPC   C3A 3308   5.283   7.003   6.264  0.0963 -0.1055  0.1405
  235POPC   C4A 3309   5.111   7.087   6.663 -0.0616 -0.1821  0.1136
  235POPC   C1B 3310   5.085   7.230   5.607  0.0944  0.1861 -0.0129
  235POPC   C2B 3311   5.161   7.395   5.979  0.0451  0.0758  0.1847
  235POPC   C3B 3312   5.210   7.499   6.301  0.0402 -0.0304 -0.1493
  235POPC   C4B 3313   5.257   7.741   6.654  0.0390 -0.2731 -0.1494
  236POPC   NC3 3314   8.574   8.928   4.670 -0.0389 -0.1629 -0.3795
  236POPC   PO4 3315   8.670   9.217   4.912 -0.0844  0.0990 -0.0772
  236POPC   GL1 3316   8.691   9.342   5.229  0.3076  0.4699  0.1131
  236POPC   GL2 3317   8.686   9.730   5.293 -0.0642  0.0069  0.2312
  236POPC   C1A 3318   8.376   9.348   5.484 -0.0560  0.0828  0.1322
  236POPC   D2A 3319   8.165   9.087   5.679  0.0206 -0.1706  0.0463
  236POPC   C3A 3320   8.072   9.130   6.172  0.3304  0.1281 -0.3742
  236POPC   C4A 3321   8.083   9.058   6.667  0.3483  0.0374  0.1581
  236POPC   C1B 3322   8.733   9.593   5.725  0.0237 -0.1813 -0.0465
  236POPC   C2B 3323   8.495   9.251   5.964 -0.0224  0.0156 -0.0119
  236POPC   C3B 3324   8.387   8.780   6.012 -0.0130  0.0288  0.0725
  236POPC   C4B 3325   8.607   8.468   5.829  0.1531 -0.1405 -0.0762
  237POPC   NC3 3326   7.701  10.289   4.491 -0.0796 -0.2228 -0.3151
  237POPC   PO4 3327   7.623   9.934   4.808  0.0139 -0.0026  0.0931
  237POPC   GL1 3328   7.337  10.063   5.162  0.3813  0.0649  0.1619
  237POPC   GL2 3329   7.217   9.772   5.482 -0.1880 -0.1091  0.2225
  237POPC   C1A 3330   7.388  10.500   5.382 -0.2002  0.0234  0.0411
  237POPC   D2A 3331   7.398  10.712   5.676  0.3305 -0.0493  0.0500
  237POPC   C3A 3332   7.321  10.688   6.142  0.1481  0.0841  0.1035
  237POPC   C4A 3333   6.955  10.785   6.539 -0.0401  0.0097 -0.2451
  237POPC   C1B 3334   7.616   9.896   5.597 -0.4588 -0.0866  0.0854
  237POPC   C2B 3335   7.987   9.649   5.670  0.1853  0.0822  0.1255
  237POPC   C3B 3336   8.273   9.722   5.998  0.3862 -0.1063  0.0881
  237POPC   C4B 3337   8.482   9.683   6.263 -0.1242 -0.0501 -0.2712
  238POPC   NC3 3338   9.477   1.856   4.595 -0.0430 -0.0235 -0.0492
  238POPC   PO4 3339   9.221   1.498   4.736  0.0149 -0.0821  0.0616
  238POPC   GL1 3340   9.117   1.520   5.126 -0.0187  0.1709 -0.0115
  238POPC   GL2 3341   8.896   1.643   5.210 -0.0692  0.0014  0.1416
  238POPC   C1A 3342   9.173   1.389   5.550 -0.2951  0.0873 -0.2332
  238POPC   D2A 3343   9.007   1.433   5.920 -0.0638  0.2094 -0.0383
  238POPC   C3A 3344   8.554   1.306   5.952 -0.2715  0.0012  0.0391
  238POPC   C4A 3345   8.428   1.167   6.340 -0.4196  0.2253 -0.0247
  238POPC   C1B 3346   8.777   1.722   5.646  0.2674 -0.0602 -0.2964
  238POPC   C2B 3347   8.770   1.861   6.156 -0.1248  0.1156 -0.0172
  238POPC   C3B 3348   8.689   1.795   6.597 -0.0789  0.1415 -0.0035
  238POPC   C4B 3349   8.347   1.632   6.395 -0.0528 -0.1199  0.2299
  239POPC   NC3 3350   1.548   8.770   4.193  0.1213  0.1519 -0.2225
  239POPC   PO4 3351   1.689   9.041   4.613 -0.0771  0.0801  0.2431
  239POPC   GL1 3352   1.564   9.026   4.930  0.2077 -0.2292  0.2682
  239POPC   GL2 3353   1.323   9.076   5.180  0.2571  0.2392 -0.2446
  239POPC   C1A 3354   1.754   9.076   5.318  0.0578 -0.1274  0.3362
  239POPC   D2A 3355   1.851   9.261   5.725 -0.1667 -0.2406 -0.0402
  239POPC   C3A 3356   2.185   9.483   5.760 -0.0440  0.2035 -0.2448
  239POPC   C4A 3357   2.560   9.476   5.585  0.1478  0.0918 -0.3939
  239POPC   C1B 3358   1.293   8.919   5.630  0.2009 -0.0179 -0.0610
  239POPC   C2B 3359   1.262   8.910   6.059 -0.0397  0.0136 -0.4711
  239POPC   C3B 3360   1.288   8.893   6.500  0.1384 -0.2004  0.1121
  239POPC   C4B 3361   1.623   9.023   6.690  0.4279  0.2038 -0.3906
  240POPC   NC3 3362   7.490   4.746   4.857  0.1444 -0.2803  0.0445
  240POPC   PO4 3363   7.859   4.985   4.778  0.0200 -0.0199 -0.1020
  240POPC   GL1 3364   7.888   5.114   5.105 -0.2649  0.2679 -0.0412
  240POPC   GL2 3365   7.641   5.048   5.328  0.2638  0.0473  0.0788
  240POPC   C1A 3366   8.154   5.414   5.256  0.1897  0.0366 -0.1299
  240POPC   D2A 3367   8.198   5.503   5.624  0.0588 -0.2386  0.0750
  240POPC   C3A 3368   8.447   5.461   6.158  0.2048 -0.0129  0.1889
  240POPC   C4A 3369   8.652   5.550   6.516 -0.3463 -0.2856  0.1048
  240POPC   C1B 3370   7.677   5.320   5.713 -0.0630 -0.1584  0.2010
  240POPC   C2B 3371   7.853   5.435   6.108 -0.1180 -0.1829  0.2205
  240POPC   C3B 3372   7.948   5.528   6.481 -0.2650  0.2318  0.0737
  240POPC   C4B 3373   8.303   5.654   6.786  0.3001 -0.0317  0.5567
  241POPC   NC3 3374   6.072   0.518   4.761  0.2927  0.1104  0.1103
  241POPC   PO4 3375   6.540   0.528   4.896 -0.0632  0.0766  0.0436
  241POPC   GL1 3376   6.574   0.851   5.210  0.0325  0.0391 -0.1868
  241POPC   GL2 3377   6.445   1.225   5.228  0.2613  0.0970  0.2099
  241POPC   C1A 3378   6.750   0.870   5.657  0.2486  0.1251 -0.2749
  241POPC   D2A 3379   6.701   0.758   6.075 -0.0385  0.1214 -0.2223
  241POPC   C3A 3380   6.434   0.871   6.412 -0.2825 -0.1270  0.0306
  241POPC   C4A 3381   6.284   0.834   6.718 -0.4174  0.2895 -0.1556
  241POPC   C1B 3382   6.654   1.340   5.572  0.0620 -0.0824 -0.2801
  241POPC   C2B 3383   6.761   1.254   5.931 -0.0945  0.1134 -0.1361
  241POPC   C3B 3384   6.858   1.205   6.342  0.1909  0.0445  0.0909
  241POPC   C4B 3385   6.729   1.214   6.804  0.0197  0.0595 -0.1974
  242POPC   NC3 3386   7.236   8.774   4.613  0.0848 -0.1800 -0.1328
  242POPC   PO4 3387   6.822   8.711   4.720  0.0405  0.0784  0.0950
  242POPC   GL1 3388   6.787   8.619   5.188  0.0831 -0.3157 -0.0670
  242POPC   GL2 3389   6.580   8.820   5.340  0.3644  0.5127  0.1644
  242POPC   C1A 3390   6.845   8.317   5.504 -0.0204  0.0791 -0.0405
  242POPC   D2A 3391   7.236   8.044   5.505  0.1566  0.1309  0.1706
  242POPC   C3A 3392   7.594   7.726   5.363 -0.1068 -0.1884 -0.2783
  242POPC   C4A 3393   7.794   7.507   5.578  0.1615 -0.2049  0.2548
  242POPC   C1B 3394   6.772   8.827   5.751 -0.2960 -0.0602  0.0648
  242POPC   C2B 3395   6.927   8.759   6.117  0.0620  0.0464 -0.1158
  242POPC   C3B 3396   6.674   8.705   6.392 -0.0858 -0.2597 -0.0552
  242POPC   C4B 3397   6.533   8.357   6.581 -0.2421  0.0521  0.2352
  243POPC   NC3 3398   4.064   7.218   4.457  0.0908 -0.0871  0.1306
  243POPC   PO4 3399   4.320   7.452   4.810  0.1274 -0.0480  0.0097
  243POPC   GL1 3400   4.326   7.628   5.173  0.0579 -0.4566 -0.1561
  243POPC   GL2 3401   4.660   7.575   5.219  0.3320 -0.1169  0.0771
  243POPC   C1A 3402   4.046   7.558   5.532 -0.0632 -0.0316 -0.0055
  243POPC   D2A 3403   4.046   7.397   5.979  0.0788 -0.1098 -0.1382
  243POPC   C3A 3404   3.673   7.498   6.342  0.1303 -0.1805  0.0228
  243POPC   C4A 3405   3.806   7.732   6.656 -0.0243  0.2821  0.0286
  243POPC   C1B 3406   4.657   7.535   5.616  0.2241  0.2138  0.0732
  243POPC   C2B 3407   4.502   7.321   6.000 -0.0829 -0.0493 -0.3111
  243POPC   C3B 3408   4.184   6.910   5.862 -0.1090  0.0707 -0.0157
  243POPC   C4B 3409   3.793   6.708   5.960  0.1283  0.0151 -0.3705
  244POPC   NC3 3410   8.754   7.895   4.442 -0.0775  0.3297  0.2063
  244POPC   PO4 3411   9.231   7.829   4.537 -0.1242  0.0901  0.0713
  244POPC   GL1 3412   9.196   7.619   4.888  0.1672  0.1027 -0.1281
  244POPC   GL2 3413   9.422   7.511   5.019  0.1295 -0.0928  0.0292
  244POPC   C1A 3414   8.803   7.559   5.233  0.1522  0.3391 -0.1548
  244POPC   D2A 3415   8.558   7.473   5.591 -0.0562  0.2774 -0.2772
  244POPC   C3A 3416   8.576   7.422   5.979 -0.1633 -0.0633  0.2466
  244POPC   C4A 3417   8.376   7.313   6.267 -0.0984 -0.3416  0.0699
  244POPC   C1B 3418   9.219   7.426   5.418  0.1669 -0.3595 -0.0160
  244POPC   C2B 3419   9.317   7.388   5.825  0.1739 -0.0056 -0.2284
  244POPC   C3B 3420   9.405   7.137   6.268  0.2893  0.0283  0.0165
  244POPC   C4B 3421   9.118   6.954   6.549 -0.1315 -0.2333 -0.3024
  245POPC   NC3 3422   5.766   4.865   4.201 -0.1025  0.1322 -0.0377
  245POPC   PO4 3423   6.079   4.962   4.507  0.0330  0.1027  0.1463
  245POPC   GL1 3424   6.216   4.966   4.959 -0.0491 -0.0939 -0.0363
  245POPC   GL2 3425   6.489   4.918   5.095 -0.0668 -0.3447  0.0180
  245POPC   C1A 3426   6.106   4.659   5.315  0.1278 -0.2671  0.1840
  245POPC   D2A 3427   6.218   4.630   5.820  0.0061 -0.0628 -0.0757
  245POPC   C3A 3428   6.625   4.811   6.081 -0.1698  0.2465  0.0834
  245POPC   C4A 3429   6.620   5.221   6.243  0.0536  0.3525 -0.0780
  245POPC   C1B 3430   6.657   4.722   5.495  0.1439  0.1448  0.0894
  245POPC   C2B 3431   6.851   4.471   5.795 -0.2771  0.0064 -0.5285
  245POPC   C3B 3432   6.884   4.465   6.340 -0.2205 -0.3633  0.3200
  245POPC   C4B 3433   7.026   4.472   6.733  0.2624 -0.0182  0.0504
  246POPC   NC3 3434   0.217   4.440   3.792  0.0220 -0.1492 -0.0587
  246POPC   PO4 3435   0.386   4.523   4.282 -0.2072  0.0383  0.0596
  246POPC   GL1 3436   0.472   4.385   4.689 -0.1223 -0.0719 -0.0090
  246POPC   GL2 3437   0.209   4.441   4.957 -0.1034  0.1807 -0.1344
  246POPC   C1A 3438   0.811   4.493   4.980  0.0582 -0.2049  0.2201
  246POPC   D2A 3439   1.246   4.343   5.185  0.1756 -0.0624 -0.1978
  246POPC   C3A 3440   1.690   4.418   5.234  0.1353 -0.0441 -0.0303
  246POPC   C4A 3441   2.003   4.306   5.398  0.0150  0.2702 -0.1984
  246POPC   C1B 3442   0.128   4.478   5.341  0.0564 -0.1872 -0.0249
  246POPC   C2B 3443   0.063   4.703   5.804 -0.0156  0.2333  0.0933
  246POPC   C3B 3444   0.029   4.880   6.133 -0.0651 -0.1566  0.2308
  246POPC   C4B 3445  -0.232   5.195   6.350  0.0282 -0.0720 -0.0685
  247POPC   NC3 3446   5.068  10.149   5.034 -0.0036  0.0395 -0.1429
  247POPC   PO4 3447   5.346   9.807   5.055  0.0141 -0.1602 -0.3831
  247POPC   GL1 3448   5.347   9.755   5.465  0.0873  0.0825 -0.3900
  247POPC   GL2 3449   5.199   9.937   5.613 -0.0320  0.0058  0.0935
  247POPC   C1A 3450   5.497   9.669   5.905 -0.2370 -0.1262  0.2512
  247POPC   D2A 3451   5.412   9.880   6.287  0.0883 -0.1443  0.2833
  247POPC   C3A 3452   5.521   9.983   6.643 -0.0554 -0.1731 -0.2804
  247POPC   C4A 3453   5.480   9.881   7.034 -0.0823 -0.0816 -0.0480
  247POPC   C1B 3454   4.984  10.073   6.009  0.1848  0.1100 -0.0392
  247POPC   C2B 3455   4.730  10.201   6.401 -0.1261 -0.3407 -0.2370
  247POPC   C3B 3456   4.334  10.568   6.319 -0.0973 -0.2215  0.4159
  247POPC   C4B 3457   4.082  10.864   6.382 -0.1136  0.0378 -0.5259
  248POPC   NC3 3458   3.820   4.199   3.802 -0.0010  0.0464  0.1160
  248POPC   PO4 3459   3.720   4.003   4.239  0.1896  0.1359  0.1576
  248POPC   GL1 3460   3.640   4.142   4.608 -0.1602  0.0240 -0.1638
  248POPC   GL2 3461   3.551   3.884   4.764  0.1933  0.0158 -0.3078
  248POPC   C1A 3462   3.750   4.211   5.053 -0.2047  0.0978 -0.0321
  248POPC   D2A 3463   3.883   4.407   5.425  0.3613  0.0170  0.1480
  248POPC   C3A 3464   3.650   4.546   5.849  0.4539  0.0071  0.0057
  248POPC   C4A 3465   3.600   4.542   6.341 -0.2649 -0.1744 -0.0518
  248POPC   C1B 3466   3.299   4.006   5.063 -0.0960 -0.1097 -0.0308
  248POPC   C2B 3467   2.900   4.212   5.081  0.1474 -0.1605 -0.0253
  248POPC   C3B 3468   2.513   4.387   5.255 -0.0041  0.2179 -0.3076
  248POPC   C4B 3469   2.223   4.765   5.299  0.1160  0.0315  0.3344
  249POPC   NC3 3470   1.666   1.659   4.015  0.1032  0.2318 -0.3432
  249POPC   PO4 3471   1.787   2.044   4.324 -0.2534 -0.1213  0.1421
  249POPC   GL1 3472   1.793   2.200   4.818  0.1988  0.2350 -0.2034
  249POPC   GL2 3473   2.009   2.124   5.005  0.1110  0.2382  0.0617
  249POPC   C1A 3474   1.595   2.481   5.222 -0.1432 -0.2999  0.3602
  249POPC   D2A 3475   1.485   2.631   5.728  0.0230 -0.0884  0.2676
  249POPC   C3A 3476   1.762   2.818   6.078 -0.0330  0.0968  0.0347
  249POPC   C4A 3477   1.926   3.110   6.277  0.2096 -0.1424 -0.2570
  249POPC   C1B 3478   2.031   1.835   5.512 -0.3651  0.0160 -0.1582
  249POPC   C2B 3479   2.196   1.962   5.905 -0.0099  0.1608 -0.2554
  249POPC   C3B 3480   2.384   1.664   6.197 -0.1531 -0.0200 -0.0293
  249POPC   C4B 3481   2.510   1.810   6.592  0.0650  0.0297  0.0507
  250POPC   NC3 3482   2.204   1.110   4.895 -0.3525 -0.0226  0.1061
  250POPC   PO4 3483   2.269   0.660   4.763  0.1434  0.0899  0.2866
  250POPC   GL1 3484   2.129   0.703   5.236 -0.3576 -0.2807 -0.2423
  250POPC   GL2 3485   1.835   0.592   5.285 -0.1266 -0.2959  0.0731
  250POPC   C1A 3486   2.000   0.900   5.715 -0.0682 -0.0512 -0.3669
  250POPC   D2A 3487   2.148   1.331   5.837  0.0882 -0.0238  0.0907
  250POPC   C3A 3488   2.021   1.342   6.364  0.1604 -0.4401  0.2059
  250POPC   C4A 3489   2.048   1.522   6.828  0.0611  0.2314  0.1305
  250POPC   C1B 3490   1.761   0.434   5.681  0.1901  0.0421 -0.4674
  250POPC   C2B 3491   1.665   0.286   6.014  0.2053  0.0023 -0.0065
  250POPC   C3B 3492   1.880   0.171   6.449  0.2562  0.1906  0.1153
  250POPC   C4B 3493   2.005   0.498   6.753  0.1855 -0.3231 -0.0325
  251POPC   NC3 3494   3.876   1.629   4.899 -0.0246  0.2060  0.1158
  251POPC   PO4 3495   3.811   2.016   4.934 -0.1486 -0.0528 -0.0273
  251POPC   GL1 3496   3.744   1.941   5.324 -0.2425 -0.0813  0.1168
  251POPC   GL2 3497   3.485   1.706   5.335 -0.0166  0.0703  0.0927
  251POPC   C1A 3498   3.880   1.804   5.668  0.1210 -0.1559 -0.0712
  251POPC   D2A 3499   3.929   2.037   6.062 -0.1083  0.2024  0.1950
  251POPC   C3A 3500   3.982   2.494   6.072  0.1883 -0.2991  0.0374
  251POPC   C4A 3501   3.898   2.918   5.997  0.3019 -0.0350  0.1702
  251POPC   C1B 3502   3.357   1.601   5.754 -0.2493  0.0934 -0.1985
  251POPC   C2B 3503   3.454   1.764   6.145 -0.1844 -0.2686 -0.0673
  251POPC   C3B 3504   3.422   2.007   6.568  0.1611  0.0164  0.3087
  251POPC   C4B 3505   3.033   2.008   6.869 -0.2370  0.5373 -0.2118
  252POPC   NC3 3506   6.462   6.670   4.585 -0.1841  0.0742 -0.3083
  252POPC   PO4 3507   6.272   6.253   4.590 -0.0264 -0.1272  0.0850
  252POPC   GL1 3508   6.525   6.215   5.055  0.0207  0.4089 -0.4012
  252POPC   GL2 3509   6.557   6.560   5.154 -0.3841 -0.0317  0.0772
  252POPC   C1A 3510   6.609   6.210   5.492  0.0809  0.0006  0.0209
  252POPC   D2A 3511   6.357   6.057   5.844  0.0314  0.0891  0.5413
  252POPC   C3A 3512   6.397   5.795   6.099 -0.2694 -0.2315 -0.1676
  252POPC   C4A 3513   6.520   5.968   6.481  0.2302  0.0761 -0.1030
  252POPC   C1B 3514   6.190   6.467   5.412 -0.3457  0.0598 -0.0741
  252POPC   C2B 3515   6.012   6.631   5.744  0.4851 -0.2570 -0.0525
  252POPC   C3B 3516   6.325   6.536   6.125  0.0715  0.2748  0.1109
  252POPC   C4B 3517   6.391   6.448   6.467 -0.0919 -0.0056 -0.0963
  253POPC   NC3 3518   0.339   9.218   4.300 -0.0826 -0.0942  0.0671
  253POPC   PO4 3519   0.335   9.314   4.729  0.1009  0.1721  0.0608
  253POPC   GL1 3520   0.316   9.057   5.132 -0.2907 -0.3368 -0.0883
  253POPC   GL2 3521   0.409   8.841   5.121 -0.0183 -0.2391 -0.0414
  253POPC   C1A 3522   0.485   9.154   5.614 -0.3644 -0.1262 -0.0217
  253POPC   D2A 3523   0.851   9.001   5.795  0.0475  0.0873  0.0341
  253POPC   C3A 3524   0.804   8.880   6.274 -0.2397  0.0697 -0.1649
  253POPC   C4A 3525   0.822   8.803   6.708 -0.0143  0.0115  0.3402
  253POPC   C1B 3526   0.413   8.684   5.617 -0.1324 -0.0428  0.0252
  253POPC   C2B 3527   0.273   8.625   5.991  0.2875 -0.1129 -0.3324
  253POPC   C3B 3528  -0.128   8.787   6.110 -0.0548  0.4052  0.1040
  253POPC   C4B 3529  -0.300   9.045   6.478 -0.2058  0.0560  0.1307
  254POPC   NC3 3530   9.718   8.610   4.717  0.0085  0.1007  0.0710
  254POPC   PO4 3531   9.730   9.072   4.964 -0.2866  0.4159 -0.0572
  254POPC   GL1 3532   9.841   8.791   5.261 -0.4180  0.1916  0.4726
  254POPC   GL2 3533   9.942   8.421   5.149  0.2491 -0.2359  0.0401
  254POPC   C1A 3534   9.997   8.745   5.611 -0.0756 -0.0579 -0.0999
  254POPC   D2A 3535  10.024   8.384   5.833  0.0209 -0.3932  0.1676
  254POPC   C3A 3536  10.130   8.126   6.195  0.0218  0.3276  0.0509
  254POPC   C4A 3537  10.277   8.024   6.659 -0.4358  0.0681 -0.3028
  254POPC   C1B 3538   9.674   8.204   5.525  0.0675 -0.1553  0.0544
  254POPC   C2B 3539   9.785   7.913   5.938 -0.1146  0.0794 -0.0978
  254POPC   C3B 3540   9.741   7.477   6.106  0.0013  0.0971 -0.0000
  254POPC   C4B 3541   9.877   7.031   6.212  0.1962  0.0191 -0.1017
  255POPC   NC3 3542   5.355   2.179   4.828  0.0973  0.1190 -0.0715
  255POPC   PO4 3543   5.727   2.282   4.963  0.1993 -0.0487  0.0642
  255POPC   GL1 3544   5.838   2.632   5.272  0.0933 -0.1250  0.0431
  255POPC   GL2 3545   5.841   2.903   5.386 -0.1361 -0.2998  0.1391
  255POPC   C1A 3546   5.767   2.460   5.700  0.0188  0.2849  0.1036
  255POPC   D2A 3547   5.530   2.499   6.052 -0.1219 -0.0435 -0.0059
  255POPC   C3A 3548   5.190   2.720   6.258 -0.0015 -0.1988  0.3372
  255POPC   C4A 3549   4.809   2.536   6.231 -0.2285 -0.1318  0.2049
  255POPC   C1B 3550   5.634   3.022   5.718 -0.1682 -0.1716  0.0497
  255POPC   C2B 3551   5.492   3.206   6.080 -0.1719  0.0631 -0.2481
  255POPC   C3B 3552   5.113   3.195   6.454 -0.3315 -0.2629 -0.1589
  255POPC   C4B 3553   4.948   3.410   6.831 -0.1825  0.3510  0.1690
  256POPC   NC3 3554   1.519   3.366   4.130 -0.2660 -0.3061  0.0807
  256POPC   PO4 3555   1.429   3.750   4.107 -0.2010 -0.0624  0.0629
  256POPC   GL1 3556   1.595   3.902   4.435 -0.5257  0.0562  0.0640
  256POPC   GL2 3557   1.808   4.060   4.485  0.2654 -0.1062  0.2283
  256POPC   C1A 3558   1.498   4.005   4.886 -0.0537  0.1994 -0.1214
  256POPC   D2A 3559   1.706   3.945   5.305 -0.0320 -0.0586 -0.0634
  256POPC   C3A 3560   1.605   4.145   5.636  0.0296  0.1345 -0.3053
  256POPC   C4A 3561   1.798   4.392   5.927 -0.0356 -0.2580  0.0770
  256POPC   C1B 3562   1.687   4.481   4.690  0.3978 -0.0843 -0.2615
  256POPC   C2B 3563   1.375   4.692   4.776  0.1610 -0.1323  0.1049
  256POPC   C3B 3564   1.073   5.048   4.905  0.0979  0.0066  0.2247
  256POPC   C4B 3565   0.742   5.152   5.124 -0.2478  0.3337  0.0086
  257POPC   NC3 3566   4.674   3.875   4.104  0.5981  0.1350 -0.1010
  257POPC   PO4 3567   4.517   4.238   4.267  0.0268 -0.0373  0.0790
  257POPC   GL1 3568   4.228   4.268   4.625  0.2783 -0.0331 -0.2299
  257POPC   GL2 3569   4.468   4.177   4.905 -0.0059  0.1330  0.1020
  257POPC   C1A 3570   4.028   4.537   4.879 -0.2503  0.3665 -0.1491
  257POPC   D2A 3571   4.077   4.948   5.163  0.0448 -0.0656  0.0447
  257POPC   C3A 3572   4.043   4.899   5.558 -0.0435 -0.0086  0.0061
  257POPC   C4A 3573   4.121   4.712   5.852  0.0578 -0.1146 -0.1647
  257POPC   C1B 3574   4.346   4.329   5.248  0.0295 -0.0006 -0.0665
  257POPC   C2B 3575   4.494   4.429   5.628  0.2010  0.4072 -0.0920
  257POPC   C3B 3576   4.817   4.586   5.786 -0.0051 -0.3394  0.0678
  257POPC   C4B 3577   4.922   4.550   6.205 -0.0317 -0.1006  0.0888
  258POPC   NC3 3578  10.416   1.015   4.565 -0.1463  0.3006 -0.0843
  258POPC   PO4 3579  10.133   1.373   4.708  0.0016 -0.0281  0.2618
  258POPC   GL1 3580  10.142   1.401   5.186 -0.0031 -0.0198 -0.2113
  258POPC   GL2 3581  10.431   1.576   5.266  0.1894 -0.1051  0.0838
  258POPC   C1A 3582   9.864   1.564   5.483  0.0517  0.1972 -0.0676
  258POPC   D2A 3583   9.724   1.790   5.863  0.1608 -0.2632  0.0946
  258POPC   C3A 3584   9.484   1.589   6.221 -0.1467 -0.3062 -0.1111
  258POPC   C4A 3585   9.587   1.463   6.585  0.0507 -0.1749  0.0469
  258POPC   C1B 3586  10.399   1.332   5.710  0.0906 -0.0823  0.1883
  258POPC   C2B 3587  10.220   0.944   5.956  0.1958 -0.0994  0.1369
  258POPC   C3B 3588  10.166   0.568   6.068 -0.1521  0.1910 -0.4593
  258POPC   C4B 3589   9.997   0.374   6.392  0.1215  0.0598 -0.0585
  259POPC   NC3 3590   3.089   6.200   3.737  0.3204 -0.0286  0.0959
  259POPC   PO4 3591   3.016   6.588   3.543 -0.0820  0.2492 -0.0290
  259POPC   GL1 3592   2.869   6.572   3.941 -0.0444  0.0981  0.2216
  259POPC   GL2 3593   2.646   6.869   4.112 -0.1315 -0.4838 -0.1840
  259POPC   C1A 3594   2.487   6.411   4.223 -0.1571  0.1058  0.2076
  259POPC   D2A 3595   2.569   6.283   4.612  0.0370  0.1674  0.1685
  259POPC   C3A 3596   2.367   5.939   4.753 -0.1403 -0.0473  0.2401
  259POPC   C4A 3597   2.041   5.676   4.857 -0.0974  0.1777  0.2409
  259POPC   C1B 3598   2.763   6.780   4.627  0.2840  0.1724  0.1631
  259POPC   C2B 3599   2.933   6.549   4.980  0.1340 -0.0771  0.1471
  259POPC   C3B 3600   3.231   6.540   5.318  0.1664  0.1065  0.0057
  259POPC   C4B 3601   3.616   6.674   5.541 -0.1786  0.2790  0.2574
  260POPC   NC3 3602   1.795   7.253   3.220  0.0250 -0.2848 -0.2389
  260POPC   PO4 3603   2.205   7.345   3.430 -0.3750 -0.0875 -0.1965
  260POPC   GL1 3604   2.225   7.374   3.837  0.1285  0.0586  0.0134
  260POPC   GL2 3605   2.238   7.164   4.073  0.1107  0.1072  0.1718
  260POPC   C1A 3606   1.922   7.597   4.173  0.0105  0.2539 -0.2360
  260POPC   D2A 3607   1.574   7.570   4.451  0.0966  0.0918 -0.1313
  260POPC   C3A 3608   1.350   7.720   4.825  0.1419 -0.0451 -0.1421
  260POPC   C4A 3609   1.295   7.565   5.242 -0.6214  0.1098 -0.1029
  260POPC   C1B 3610   2.222   6.824   4.298 -0.1310 -0.0681  0.1364
  260POPC   C2B 3611   2.283   6.654   4.676  0.0017  0.1825 -0.0350
  260POPC   C3B 3612   2.449   6.426   5.079  0.2101  0.2688  0.2114
  260POPC   C4B 3613   2.763   6.137   5.259  0.3235 -0.2365 -0.4353
  261POPC   NC3 3614   3.086   2.381   4.319  0.0900  0.0306 -0.3145
  261POPC   PO4 3615   2.691   2.425   4.431  0.0859  0.0459  0.2718
  261POPC   GL1 3616   2.549   2.695   4.847 -0.0703 -0.0583  0.2718
  261POPC   GL2 3617   2.243   2.643   4.945 -0.0869 -0.0924 -0.0471
  261POPC   C1A 3618   2.450   2.903   5.315  0.2755 -0.1120  0.0689
  261POPC   D2A 3619   2.335   2.949   5.746  0.1603  0.1356 -0.0012
  261POPC   C3A 3620   2.374   3.497   5.774 -0.0550 -0.3304 -0.0178
  261POPC   C4A 3621   2.459   3.821   5.570  0.1084  0.1005  0.1506
  261POPC   C1B 3622   2.058   2.452   5.358  0.0350  0.1846  0.0837
  261POPC   C2B 3623   2.069   2.484   5.775  0.0780 -0.0682 -0.1767
  261POPC   C3B 3624   2.284   2.627   6.127  0.1192  0.0965  0.0375
  261POPC   C4B 3625   2.411   2.313   6.496 -0.1172  0.4298  0.3085
  262POPC   NC3 3626   9.166   9.118   5.141 -0.1831  0.2113  0.0544
  262POPC   PO4 3627   9.416   8.650   5.086 -0.1467  0.0608  0.0039
  262POPC   GL1 3628   9.465   8.668   5.564 -0.0494 -0.1015  0.1029
  262POPC   GL2 3629   9.262   8.821   5.824 -0.3190 -0.6197  0.0510
  262POPC   C1A 3630   9.542   8.453   5.968  0.2256 -0.0337  0.1328
  262POPC   D2A 3631   9.415   8.699   6.321 -0.1070  0.1868 -0.0505
  262POPC   C3A 3632   9.355   9.170   6.319 -0.0122  0.0909  0.1036
  262POPC   C4A 3633   9.316   9.576   6.601 -0.1186 -0.1732 -0.1736
  262POPC   C1B 3634   8.895   8.857   6.016  0.1113 -0.0007 -0.2661
  262POPC   C2B 3635   8.924   8.609   6.424  0.5181  0.0204  0.3412
  262POPC   C3B 3636   9.124   8.301   6.479  0.3999  0.1655 -0.1310
  262POPC   C4B 3637   9.315   8.041   6.753 -0.2375  0.2231 -0.3696
  263POPC   NC3 3638   3.171   8.843   4.191  0.2400  0.0357  0.0277
  263POPC   PO4 3639   2.939   8.836   4.399  0.0248 -0.3676  0.0727
  263POPC   GL1 3640   2.749   8.568   4.728 -0.0056 -0.0807 -0.3341
  263POPC   GL2 3641   2.993   8.756   4.988 -0.0043 -0.2086  0.1200
  263POPC   C1A 3642   2.714   8.114   4.945  0.1600 -0.4074 -0.0438
  263POPC   D2A 3643   2.623   7.938   5.326 -0.0434 -0.0245 -0.2028
  263POPC   C3A 3644   2.322   7.682   5.477  0.1975 -0.3156 -0.0630
  263POPC   C4A 3645   2.022   7.731   5.693 -0.2445 -0.0788  0.4385
  263POPC   C1B 3646   2.862   8.468   5.243  0.2489 -0.0424 -0.0679
  263POPC   C2B 3647   2.884   8.259   5.617  0.0747  0.0322 -0.0775
  263POPC   C3B 3648   2.810   7.817   5.827  0.2011  0.1127  0.3252
  263POPC   C4B 3649   2.440   7.528   5.937 -0.0187  0.0192  0.1529
  264POPC   NC3 3650   6.076   1.180   4.375 -0.0839 -0.0612  0.1774
  264POPC   PO4 3651   5.786   1.232   4.761 -0.1004  0.1326  0.3428
  264POPC   GL1 3652   5.680   1.288   5.169  0.0412 -0.1294  0.1112
  264POPC   GL2 3653   5.657   0.996   5.485  0.0093 -0.2860 -0.0381
  264POPC   C1A 3654   5.559   1.524   5.619 -0.2463  0.0809 -0.0402
  264POPC   D2A 3655   5.562   1.570   6.035  0.0450  0.0610 -0.0487
  264POPC   C3A 3656   5.120   1.702   6.131  0.3072 -0.0177 -0.3278
  264POPC   C4A 3657   4.811   1.932   6.104  0.0763  0.1811 -0.0468
  264POPC   C1B 3658   6.177   1.004   5.533  0.0707  0.5995 -0.0152
  264POPC   C2B 3659   6.282   1.011   5.976  0.1537  0.2229 -0.1629
  264POPC   C3B 3660   6.217   1.236   6.257  0.1310  0.2104  0.0533
  264POPC   C4B 3661   6.050   1.574   6.474 -0.3681  0.0730  0.0685
  265POPC   NC3 3662   9.004   1.932   4.116  0.0762  0.0329 -0.0924
  265POPC   PO4 3663   8.979   1.976   4.528  0.1496  0.0716  0.1835
  265POPC   GL1 3664   8.751   1.921   4.875 -0.3953  0.2703 -0.1346
  265POPC   GL2 3665   8.737   2.205   5.026 -0.2900  0.3278  0.1661
  265POPC   C1A 3666   8.406   1.774   5.096 -0.3838 -0.2937 -0.0876
  265POPC   D2A 3667   8.279   1.630   5.597 -0.0591 -0.2759 -0.4116
  265POPC   C3A 3668   8.273   1.874   5.940  0.1766  0.2622 -0.2250
  265POPC   C4A 3669   8.319   2.142   6.318  0.3204  0.1636 -0.2449
  265POPC   C1B 3670   8.530   2.108   5.422 -0.0154  0.1903 -0.1434
  265POPC   C2B 3671   8.635   2.256   5.928  0.1623  0.0894 -0.0012
  265POPC   C3B 3672   8.767   2.318   6.418  0.0453 -0.3558 -0.0361
  265POPC   C4B 3673   8.726   2.590   6.841  0.2670 -0.3528  0.2341
  266POPC   NC3 3674   7.321   1.124   4.353  0.2474 -0.1362 -0.0014
  266POPC   PO4 3675   7.295   1.215   4.795  0.0025  0.4037  0.3488
  266POPC   GL1 3676   7.235   1.269   5.159  0.0166 -0.1772  0.2591
  266POPC   GL2 3677   7.123   0.872   5.168 -0.3246  0.1475  0.3366
  266POPC   C1A 3678   7.202   1.333   5.596 -0.2037 -0.1024 -0.0227
  266POPC   D2A 3679   7.335   1.207   6.018  0.2073 -0.1019  0.0979
  266POPC   C3A 3680   7.632   1.182   6.272  0.0826 -0.1896  0.1175
  266POPC   C4A 3681   7.938   1.357   6.653  0.1598  0.0923  0.1849
  266POPC   C1B 3682   7.182   0.502   5.403  0.3394 -0.0074  0.0847
  266POPC   C2B 3683   7.101   0.557   5.740 -0.4279 -0.1492  0.0314
  266POPC   C3B 3684   6.799   0.283   6.013  0.0974  0.0105  0.1578
  266POPC   C4B 3685   6.768  -0.138   6.141 -0.1212 -0.0718  0.2171
  267POPC   NC3 3686   4.044   3.814   4.667  0.0129  0.0911 -0.0598
  267POPC   PO4 3687   4.505   3.768   4.567 -0.2000  0.0469 -0.2888
  267POPC   GL1 3688   4.378   3.697   5.010 -0.3469  0.0660  0.1834
  267POPC   GL2 3689   4.224   3.479   5.131  0.0068 -0.1456 -0.1062
  267POPC   C1A 3690   4.104   3.941   5.277 -0.0619 -0.0849 -0.3410
  267POPC   D2A 3691   4.213   4.056   5.752 -0.2755  0.0833 -0.1012
  267POPC   C3A 3692   4.018   4.250   6.083 -0.0424  0.0115  0.1301
  267POPC   C4A 3693   4.031   4.484   6.501  0.0748 -0.0110  0.0273
  267POPC   C1B 3694   4.187   3.516   5.572 -0.1786 -0.0176  0.1628
  267POPC   C2B 3695   4.411   3.657   5.950 -0.0663 -0.0429 -0.5261
  267POPC   C3B 3696   4.214   3.833   6.342 -0.1313  0.2605 -0.1543
  267POPC   C4B 3697   4.202   3.996   6.817 -0.0954 -0.0046 -0.0783
  268POPC   NC3 3698   9.734   7.685   4.472 -0.3064  0.0215  0.0595
  268POPC   PO4 3699  10.147   7.607   4.108  0.0033  0.0032 -0.0428
  268POPC   GL1 3700  10.303   7.110   4.229  0.1241 -0.2698 -0.2285
  268POPC   GL2 3701  10.636   7.200   4.126 -0.0380 -0.1888  0.3790
  268POPC   C1A 3702  10.585   6.908   4.580  0.3231  0.2726  0.1683
  268POPC   D2A 3703  10.874   6.713   4.879  0.2026 -0.0143 -0.4508
  268POPC   C3A 3704  10.807   6.267   4.956 -0.3985  0.0706 -0.0689
  268POPC   C4A 3705  11.093   5.896   4.921 -0.1925  0.5004  0.0228
  268POPC   C1B 3706  10.597   7.389   4.584 -0.0581  0.2724 -0.2366
  268POPC   C2B 3707  10.451   7.519   5.056  0.0974  0.1046 -0.0680
  268POPC   C3B 3708  10.290   7.599   5.532  0.3820  0.1179  0.2605
  268POPC   C4B 3709  10.310   7.753   5.955  0.2241 -0.1566  0.2422
  269POPC   NC3 3710  10.176  10.429   4.578  0.1921 -0.2285  0.2771
  269POPC   PO4 3711  10.164   9.872   4.548  0.0093  0.1538 -0.1876
  269POPC   GL1 3712  10.171   9.921   4.982 -0.0176 -0.2016 -0.1139
  269POPC   GL2 3713   9.810   9.930   5.123  0.0028 -0.0602 -0.1773
  269POPC   C1A 3714  10.124   9.798   5.455 -0.0134 -0.4243 -0.1866
  269POPC   D2A 3715  10.238   9.782   5.779 -0.2053  0.2527 -0.0858
  269POPC   C3A 3716   9.893   9.596   5.919  0.0357  0.4300 -0.2573
  269POPC   C4A 3717   9.810   9.422   6.292  0.1808 -0.2251 -0.2202
  269POPC   C1B 3718   9.641   9.949   5.537  0.1822  0.0932 -0.0544
  269POPC   C2B 3719   9.693  10.058   6.016  0.3989 -0.3400  0.1156
  269POPC   C3B 3720   9.311  10.099   6.405  0.1351 -0.2514  0.2911
  269POPC   C4B 3721   9.121  10.427   6.495 -0.2314  0.0502 -0.4042
  270POPC   NC3 3722   6.910   0.422   4.485  0.3689  0.1601 -0.0401
  270POPC   PO4 3723   6.914   0.019   4.706 -0.0514 -0.3242 -0.0332
  270POPC   GL1 3724   6.852   0.070   5.181  0.1113  0.1773 -0.1277
  270POPC   GL2 3725   6.613   0.267   5.395 -0.0834  0.0907  0.0927
  270POPC   C1A 3726   6.962  -0.030   5.679 -0.0038  0.1978  0.0454
  270POPC   D2A 3727   7.205  -0.403   5.888  0.1850 -0.2846  0.0564
  270POPC   C3A 3728   7.186  -0.370   6.321 -0.1923  0.2256  0.1723
  270POPC   C4A 3729   6.802  -0.306   6.603 -0.2637 -0.1942 -0.1909
  270POPC   C1B 3730   6.388   0.576   5.702  0.0574  0.2920 -0.2927
  270POPC   C2B 3731   5.978   0.503   5.764 -0.0940  0.1936 -0.1377
  270POPC   C3B 3732   5.990   0.655   6.260 -0.0134  0.1082  0.1019
  270POPC   C4B 3733   5.766   0.806   6.554  0.0201 -0.4895 -0.0221
  271POPC   NC3 3734   4.743   6.608   4.519  0.2198 -0.4054  0.1092
  271POPC   PO4 3735   4.451   6.987   4.615 -0.0528 -0.0460  0.0433
  271POPC   GL1 3736   4.181   6.962   4.929  0.0157  0.1014  0.0428
  271POPC   GL2 3737   4.440   7.081   5.175  0.3396 -0.3542 -0.1838
  271POPC   C1A 3738   3.960   7.063   5.277 -0.0460 -0.0839 -0.1571
  271POPC   D2A 3739   3.713   7.119   5.678 -0.3572 -0.1380  0.0062
  271POPC   C3A 3740   3.532   7.508   5.840  0.3592 -0.1136 -0.1130
  271POPC   C4A 3741   3.293   7.776   5.977 -0.1444  0.2294 -0.0123
  271POPC   C1B 3742   4.664   6.868   5.627  0.2265  0.1648 -0.0699
  271POPC   C2B 3743   4.748   6.555   5.995  0.1564  0.1429 -0.0024
  271POPC   C3B 3744   4.900   6.531   6.392  0.2620 -0.0374 -0.0364
  271POPC   C4B 3745   4.958   6.571   6.847 -0.1155 -0.1496  0.2310
  272POPC   NC3 3746   9.410   9.451   4.557  0.1540  0.3145 -0.1750
  272POPC   PO4 3747   9.504   9.546   5.042  0.0771 -0.4534  0.1023
  272POPC   GL1 3748   9.667   9.494   5.428  0.4234  0.0278  0.2132
  272POPC   GL2 3749   9.523   9.221   5.489 -0.1898  0.2332  0.0224
  272POPC   C1A 3750  10.038   9.242   5.657 -0.1988  0.0261 -0.1730
  272POPC   D2A 3751  10.314   9.347   6.006  0.0566 -0.0154  0.1470
  272POPC   C3A 3752  10.195   9.694   6.324 -0.2686  0.2731 -0.0810
  272POPC   C4A 3753  10.460   9.913   6.607  0.0666  0.1961  0.1402
  272POPC   C1B 3754   9.647   9.141   5.893 -0.2473 -0.0066  0.1295
  272POPC   C2B 3755   9.878   8.892   6.115  0.0090  0.0273  0.4199
  272POPC   C3B 3756   9.984   8.601   6.324 -0.1308 -0.0343  0.1912
  272POPC   C4B 3757   9.626   8.286   6.427  0.2713 -0.0351  0.3546
  273POPC   NC3 3758   6.857   8.232   4.370  0.1514  0.0674  0.1559
  273POPC   PO4 3759   6.456   8.294   4.701 -0.0828 -0.1255  0.1497
  273POPC   GL1 3760   6.444   8.278   5.084  0.1777  0.0662  0.1553
  273POPC   GL2 3761   6.170   8.301   5.127 -0.2290  0.1907 -0.0212
  273POPC   C1A 3762   6.432   8.042   5.502 -0.0531 -0.0129 -0.1380
  273POPC   D2A 3763   6.802   7.831   5.727  0.0575 -0.0761 -0.1425
  273POPC   C3A 3764   7.038   8.193   5.958  0.1392  0.0205  0.2022
  273POPC   C4A 3765   7.206   8.307   6.362  0.0183 -0.0995  0.1355
  273POPC   C1B 3766   5.903   8.414   5.466  0.1651  0.0690 -0.0744
  273POPC   C2B 3767   5.884   8.632   5.910  0.2650  0.0896  0.0520
  273POPC   C3B 3768   5.777   8.536   6.299 -0.0802  0.1324  0.2335
  273POPC   C4B 3769   5.774   8.281   6.637 -0.2078  0.1044  0.3421
  274POPC   NC3 3770   5.158   8.483   5.113  0.1007  0.2008  0.1956
  274POPC   PO4 3771   4.760   8.535   5.083 -0.0228 -0.0160 -0.2507
  274POPC   GL1 3772   4.638   8.611   5.388 -0.0053 -0.0789 -0.1289
  274POPC   GL2 3773   4.434   8.904   5.432 -0.3654  0.4290  0.1404
  274POPC   C1A 3774   4.458   8.515   5.893 -0.1828 -0.3084 -0.1198
  274POPC   D2A 3775   4.847   8.489   6.217  0.0162 -0.0944 -0.2085
  274POPC   C3A 3776   4.906   8.752   6.576 -0.1663 -0.1330  0.0864
  274POPC   C4A 3777   4.882   9.032   6.787 -0.1720  0.2606 -0.3214
  274POPC   C1B 3778   4.671   9.088   5.545 -0.0070  0.0078  0.3341
  274POPC   C2B 3779   4.679   9.200   6.002 -0.0283  0.1984 -0.1791
  274POPC   C3B 3780   4.554   9.117   6.446 -0.2053 -0.0196  0.1648
  274POPC   C4B 3781   4.305   8.948   6.751 -0.1600  0.2573 -0.3053
  275POPC   NC3 3782   6.569   4.981   4.581 -0.3273 -0.1334 -0.2985
  275POPC   PO4 3783   6.659   4.567   4.799  0.3261  0.2377 -0.0096
  275POPC   GL1 3784   6.526   4.285   5.103 -0.1088 -0.0518  0.2217
  275POPC   GL2 3785   6.650   3.942   5.019  0.0811 -0.1863  0.1819
  275POPC   C1A 3786   6.871   4.115   5.449  0.2617 -0.1122  0.5931
  275POPC   D2A 3787   7.192   3.845   5.443  0.0397  0.0512  0.2876
  275POPC   C3A 3788   7.240   3.847   5.774  0.1681 -0.1229  0.2639
  275POPC   C4A 3789   7.069   3.606   6.063 -0.0654  0.0577  0.3159
  275POPC   C1B 3790   6.331   3.879   5.249  0.0090  0.1067  0.0939
  275POPC   C2B 3791   6.306   3.750   5.629  0.0427 -0.1521 -0.2490
  275POPC   C3B 3792   6.267   3.684   6.067 -0.0064  0.0554 -0.0454
  275POPC   C4B 3793   6.234   3.566   6.478 -0.1258 -0.0157  0.0388
  276POPC   NC3 3794   7.134   3.832   4.942 -0.0336 -0.0040  0.1272
  276POPC   PO4 3795   7.265   3.427   4.695 -0.0837 -0.1330  0.0955
  276POPC   GL1 3796   7.261   3.420   5.125 -0.1292  0.1532 -0.2457
  276POPC   GL2 3797   7.062   3.156   5.329  0.0997 -0.0091 -0.1553
  276POPC   C1A 3798   7.417   3.398   5.581  0.0497  0.3635 -0.1759
  276POPC   D2A 3799   7.559   3.275   5.901  0.2733 -0.0296  0.2222
  276POPC   C3A 3800   7.445   3.463   6.333  0.0707 -0.0609  0.0527
  276POPC   C4A 3801   7.447   3.661   6.759  0.1819 -0.1974 -0.1168
  276POPC   C1B 3802   6.976   3.240   5.789 -0.2106 -0.3307  0.0628
  276POPC   C2B 3803   7.104   3.070   6.133  0.0418 -0.1872 -0.4610
  276POPC   C3B 3804   7.113   3.195   6.626 -0.0554  0.1181 -0.1512
  276POPC   C4B 3805   7.094   3.119   7.067 -0.0627 -0.0066  0.1061
  277POPC   NC3 3806   6.419   5.818   4.752  0.0982 -0.0112 -0.2315
  277POPC   PO4 3807   6.353   5.458   4.506 -0.2652  0.0495  0.1270
  277POPC   GL1 3808   6.088   5.461   4.869 -0.0925 -0.0027 -0.0282
  277POPC   GL2 3809   5.802   5.269   4.967  0.1707  0.2167  0.2664
  277POPC   C1A 3810   5.855   5.574   5.342 -0.0676 -0.1210 -0.2256
  277POPC   D2A 3811   5.735   5.535   5.673 -0.2817 -0.0150 -0.3287
  277POPC   C3A 3812   6.098   5.510   5.891 -0.0727  0.2437 -0.0870
  277POPC   C4A 3813   6.582   5.532   5.746 -0.0654 -0.0510 -0.2571
  277POPC   C1B 3814   5.870   5.097   5.334  0.3240  0.0710 -0.3110
  277POPC   C2B 3815   5.811   4.940   5.779 -0.0750 -0.2381  0.2359
  277POPC   C3B 3816   5.440   4.845   6.138 -0.1438 -0.0888  0.0425
  277POPC   C4B 3817   5.268   5.120   6.445  0.0766  0.5988  0.0520
  278POPC   NC3 3818   2.555   3.184   4.107  0.1151  0.0351 -0.1205
  278POPC   PO4 3819   2.346   3.409   4.358 -0.1871  0.2661 -0.3772
  278POPC   GL1 3820   2.301   3.484   4.872 -0.1158  0.1875  0.1326
  278POPC   GL2 3821   2.016   3.772   4.840 -0.0049 -0.0901 -0.1230
  278POPC   C1A 3822   2.575   3.389   5.241 -0.2212  0.1003  0.0802
  278POPC   D2A 3823   2.978   3.056   5.213  0.1547  0.0203 -0.1746
  278POPC   C3A 3824   3.353   3.142   5.391  0.1610  0.2645 -0.2565
  278POPC   C4A 3825   3.744   3.200   5.630  0.2753 -0.1215  0.1662
  278POPC   C1B 3826   1.750   3.489   5.076  0.1088 -0.0982 -0.0243
  278POPC   C2B 3827   1.600   3.431   5.413  0.1184 -0.0083 -0.2905
  278POPC   C3B 3828   1.366   3.213   5.634  0.1076  0.0427  0.0228
  278POPC   C4B 3829   1.400   3.202   6.045 -0.2192  0.1222 -0.1092
  279POPC   NC3 3830   7.673   4.077   4.159  0.0275  0.0781 -0.0501
  279POPC   PO4 3831   7.513   4.029   4.690 -0.0408 -0.1018  0.0878
  279POPC   GL1 3832   7.658   4.220   5.089  0.0497 -0.0382 -0.0927
  279POPC   GL2 3833   7.843   4.510   5.208  0.1979 -0.0846  0.0462
  279POPC   C1A 3834   7.387   4.320   5.481  0.2158 -0.0681  0.3090
  279POPC   D2A 3835   7.312   4.315   5.911 -0.2941  0.1683  0.2955
  279POPC   C3A 3836   7.144   4.041   6.225  0.1016  0.2533  0.0143
  279POPC   C4A 3837   6.943   4.008   6.660 -0.0401  0.1907 -0.1923
  279POPC   C1B 3838   7.779   4.525   5.668  0.1998 -0.2633 -0.2416
  279POPC   C2B 3839   7.828   4.292   6.142 -0.1517  0.1847 -0.2741
  279POPC   C3B 3840   7.821   4.462   6.631 -0.2290 -0.0230  0.3011
  279POPC   C4B 3841   7.834   4.350   7.023 -0.0484 -0.3236  0.0204
  280POPC   NC3 3842   6.738   4.594   4.237  0.0239  0.1807 -0.0670
  280POPC   PO4 3843   7.100   4.676   4.569 -0.0872  0.0082 -0.1036
  280POPC   GL1 3844   6.996   4.933   4.969 -0.1586 -0.2085 -0.2180
  280POPC   GL2 3845   7.116   4.788   5.228 -0.0288  0.0584  0.1002
  280POPC   C1A 3846   6.810   5.198   5.399 -0.0031  0.0363 -0.2230
  280POPC   D2A 3847   6.854   5.094   5.805  0.0453  0.4286  0.0057
  280POPC   C3A 3848   7.164   4.949   6.089 -0.0191  0.0993 -0.1123
  280POPC   C4A 3849   7.361   4.555   6.303 -0.0883 -0.1228  0.2451
  280POPC   C1B 3850   7.337   4.757   5.688 -0.3357 -0.0745  0.0513
  280POPC   C2B 3851   7.678   4.909   5.987  0.3310  0.1299 -0.0564
  280POPC   C3B 3852   8.138   4.969   6.312 -0.0331 -0.1562  0.1409
  280POPC   C4B 3853   8.247   5.159   6.692 -0.0583 -0.0738 -0.2334
  281POPC   NC3 3854   7.094   9.636   4.880 -0.5189 -0.0445 -0.0569
  281POPC   PO4 3855   6.687   9.604   4.826  0.2001 -0.0257  0.0483
  281POPC   GL1 3856   6.655   9.799   5.257  0.0536  0.0871 -0.4103
  281POPC   GL2 3857   6.832  10.087   5.431  0.0395  0.3182 -0.2066
  281POPC   C1A 3858   6.363   9.738   5.534  0.0573  0.1344 -0.0915
  281POPC   D2A 3859   6.355   9.684   5.869  0.4127  0.2172 -0.2872
  281POPC   C3A 3860   6.635   9.311   6.057 -0.0563 -0.1406  0.1092
  281POPC   C4A 3861   6.882   9.169   6.337  0.3235  0.0274 -0.0752
  281POPC   C1B 3862   6.776   9.942   5.848 -0.0535 -0.0860  0.0145
  281POPC   C2B 3863   6.810   9.744   6.281  0.0871 -0.3335  0.0566
  281POPC   C3B 3864   6.534   9.829   6.692 -0.0915 -0.6173 -0.4299
  281POPC   C4B 3865   6.417  10.215   6.965  0.1398  0.2777 -0.0686
  282POPC   NC3 3866  10.505   1.737   4.693  0.0524  0.1193 -0.0337
  282POPC   PO4 3867  10.814   2.100   4.710  0.1213 -0.0108  0.2971
  282POPC   GL1 3868  10.713   2.025   5.122  0.0121  0.0312 -0.1514
  282POPC   GL2 3869  10.468   2.129   5.330  0.0466  0.1894 -0.0882
  282POPC   C1A 3870  10.916   2.083   5.599  0.1730  0.3949 -0.1808
  282POPC   D2A 3871  10.527   2.205   5.889 -0.0639  0.3520 -0.1732
  282POPC   C3A 3872  10.747   1.941   6.229  0.1393  0.1710 -0.0978
  282POPC   C4A 3873  11.075   1.851   6.511 -0.1533  0.0296 -0.0550
  282POPC   C1B 3874  10.160   2.015   5.552  0.0976  0.0264  0.0386
  282POPC   C2B 3875  10.053   2.164   5.994 -0.1047 -0.1512  0.2218
  282POPC   C3B 3876   9.645   2.204   6.273 -0.0585  0.7972  0.0855
  282POPC   C4B 3877   9.607   1.958   6.646 -0.2210  0.2628  0.0052
  283POPC   NC3 3878   9.628   4.941   4.224 -0.0586 -0.2872 -0.2820
  283POPC   PO4 3879   9.663   4.640   4.527 -0.1696 -0.0344 -0.0554
  283POPC   GL1 3880   9.662   4.873   4.984 -0.2759  0.0213  0.1022
  283POPC   GL2 3881   9.644   5.267   5.022  0.1448  0.1397  0.1941
  283POPC   C1A 3882   9.730   4.734   5.440 -0.0447  0.3398  0.1620
  283POPC   D2A 3883   9.614   4.589   5.847  0.0191 -0.1187 -0.3088
  283POPC   C3A 3884   9.853   4.877   6.074  0.2863  0.1097  0.2334
  283POPC   C4A 3885   9.879   5.402   6.138 -0.2136 -0.2993  0.0073
  283POPC   C1B 3886   9.943   5.455   5.377 -0.3188  0.1452 -0.3719
  283POPC   C2B 3887   9.652   5.317   5.720  0.0462 -0.5480  0.0055
  283POPC   C3B 3888   9.401   5.196   5.950  0.0300  0.0414  0.0023
  283POPC   C4B 3889   9.335   4.877   6.287 -0.1479 -0.2449  0.1649
  284POPC   NC3 3890   4.599   0.058   4.916  0.2482  0.1876 -0.0865
  284POPC   PO4 3891   4.167   0.064   4.988  0.0398 -0.0068  0.5180
  284POPC   GL1 3892   4.356   0.128   5.388  0.1112 -0.4393  0.2207
  284POPC   GL2 3893   4.467  -0.121   5.673 -0.0567 -0.3373 -0.0552
  284POPC   C1A 3894   4.105   0.140   5.821 -0.0645  0.1230 -0.2613
  284POPC   D2A 3895   3.631   0.227   6.003 -0.3443  0.0718  0.1485
  284POPC   C3A 3896   3.458   0.192   6.315  0.0455 -0.1339 -0.3927
  284POPC   C4A 3897   3.366  -0.008   6.698 -0.1551  0.0864 -0.0828
  284POPC   C1B 3898   4.749   0.015   5.934  0.1739  0.1863  0.2669
  284POPC   C2B 3899   5.065   0.278   6.170 -0.1424 -0.0536  0.0061
  284POPC   C3B 3900   5.002   0.516   6.526  0.2637 -0.1985 -0.1120
  284POPC   C4B 3901   4.857   0.825   6.838 -0.0533  0.1703 -0.0074
  285POPC   NC3 3902   9.888   3.847   4.764  0.2046  0.0875  0.0901
  285POPC   PO4 3903  10.017   3.476   4.960  0.0649  0.0618  0.0882
  285POPC   GL1 3904  10.049   3.336   5.363 -0.1134 -0.1603  0.1385
  285POPC   GL2 3905  10.274   3.571   5.509  0.0397  0.1663  0.1686
  285POPC   C1A 3906  10.004   3.214   5.702  0.2066  0.1152 -0.1963
  285POPC   D2A 3907  10.080   3.109   6.089 -0.1660 -0.0745 -0.2944
  285POPC   C3A 3908   9.824   3.196   6.344 -0.0371 -0.1878 -0.1210
  285POPC   C4A 3909   9.536   3.159   6.777  0.0651 -0.0447 -0.1585
  285POPC   C1B 3910  10.145   3.666   6.013  0.2121 -0.0096 -0.2440
  285POPC   C2B 3911  10.091   3.922   6.383  0.1026  0.2041  0.0789
  285POPC   C3B 3912  10.370   4.050   6.692  0.3769  0.2951  0.3317
  285POPC   C4B 3913  10.416   3.947   7.070 -0.2185  0.2324  0.0859
  286POPC   NC3 3914   2.840   3.633   3.920 -0.1350 -0.1834  0.0624
  286POPC   PO4 3915   3.279   3.585   3.949  0.0235  0.2573  0.1730
  286POPC   GL1 3916   3.104   3.933   4.265  0.0144  0.0589 -0.2180
  286POPC   GL2 3917   2.806   3.938   4.386  0.1608 -0.5116 -0.0388
  286POPC   C1A 3918   3.192   4.285   4.634  0.0633 -0.2642  0.1859
  286POPC   D2A 3919   3.343   4.498   4.904 -0.1497 -0.1543  0.1073
  286POPC   C3A 3920   3.055   4.780   5.032 -0.0793  0.1835  0.0376
  286POPC   C4A 3921   2.609   4.900   5.068  0.1832 -0.0491  0.4296
  286POPC   C1B 3922   2.840   3.784   4.782  0.3257 -0.1388 -0.0527
  286POPC   C2B 3923   2.956   3.780   5.277 -0.0985  0.1252 -0.2006
  286POPC   C3B 3924   2.922   3.424   5.580 -0.1161  0.2711 -0.2514
  286POPC   C4B 3925   2.768   3.374   6.078  0.0940  0.0506  0.1533
  287POPC   NC3 3926   5.009   1.698   4.590 -0.1182 -0.2613 -0.2548
  287POPC   PO4 3927   4.987   1.335   4.847 -0.0861 -0.0669  0.2427
  287POPC   GL1 3928   5.168   1.529   5.278  0.0459  0.3174  0.1667
  287POPC   GL2 3929   5.208   1.228   5.539  0.2080  0.2691 -0.0220
  287POPC   C1A 3930   5.179   1.898   5.545 -0.0251  0.0772 -0.1341
  287POPC   D2A 3931   5.453   2.029   5.872  0.3346  0.1413 -0.2900
  287POPC   C3A 3932   5.589   2.035   6.349  0.2242  0.3328  0.0487
  287POPC   C4A 3933   5.821   2.091   6.758  0.1883 -0.1738 -0.0806
  287POPC   C1B 3934   5.214   1.189   6.001 -0.0247 -0.0271  0.0422
  287POPC   C2B 3935   5.435   1.200   6.418  0.1241  0.0202 -0.0810
  287POPC   C3B 3936   5.477   1.629   6.622  0.2231  0.2515 -0.2390
  287POPC   C4B 3937   5.328   1.980   6.801  0.0034 -0.2158 -0.0964
  288POPC   NC3 3938   3.502   1.331   4.725  0.2977  0.3268 -0.3280
  288POPC   PO4 3939   3.730   1.249   5.126  0.4202  0.0377 -0.0489
  288POPC   GL1 3940   3.852   1.296   5.454  0.3402  0.0873 -0.0681
  288POPC   GL2 3941   4.179   1.453   5.404 -0.0526 -0.3089  0.1537
  288POPC   C1A 3942   3.622   1.143   5.848 -0.1355 -0.1885 -0.3780
  288POPC   D2A 3943   3.492   1.271   6.250  0.0850 -0.3453 -0.2539
  288POPC   C3A 3944   3.697   1.208   6.621 -0.2390  0.1023  0.0492
  288POPC   C4A 3945   4.167   1.369   6.639  0.0355  0.0046 -0.0012
  288POPC   C1B 3946   4.185   1.314   5.830 -0.2742  0.0089  0.1489
  288POPC   C2B 3947   3.921   1.461   6.169  0.4602  0.0278  0.1405
  288POPC   C3B 3948   3.790   1.679   6.483  0.0838 -0.0923 -0.2287
  288POPC   C4B 3949   3.884   2.132   6.586  0.1007 -0.1682 -0.1682
  289POPC   NC3 3950   1.401   2.343   4.522  0.2149 -0.1959  0.1847
  289POPC   PO4 3951   1.282   1.994   4.636 -0.2951 -0.0367  0.1299
  289POPC   GL1 3952   1.239   2.131   5.015  0.0003 -0.0149  0.0516
  289POPC   GL2 3953   1.254   1.890   5.297  0.4362 -0.3392 -0.1591
  289POPC   C1A 3954   1.163   2.325   5.486  0.0348  0.0774  0.4424
  289POPC   D2A 3955   1.052   2.290   5.853  0.3517 -0.0433 -0.1825
  289POPC   C3A 3956   1.296   2.549   6.175 -0.2929 -0.0630  0.2293
  289POPC   C4A 3957   1.362   2.844   6.455 -0.2652 -0.1127 -0.0506
  289POPC   C1B 3958   1.608   2.067   5.403  0.1303  0.0767  0.3057
  289POPC   C2B 3959   1.618   2.130   5.908 -0.2671  0.0259 -0.0574
  289POPC   C3B 3960   1.834   2.336   6.184 -0.0292 -0.2529 -0.2202
  289POPC   C4B 3961   1.785   2.458   6.573 -0.0979  0.2863  0.1169
  290POPC   NC3 3962   1.319   0.774   4.753  0.2103 -0.2125 -0.1477
  290POPC   PO4 3963   1.108   0.458   4.674 -0.0313 -0.2899  0.0208
  290POPC   GL1 3964   0.746   0.386   4.971  0.2329 -0.3131 -0.4739
  290POPC   GL2 3965   0.997   0.103   5.074 -0.3092  0.0300  0.1258
  290POPC   C1A 3966   0.555   0.136   5.351  0.1557  0.2368 -0.1409
  290POPC   D2A 3967   0.426  -0.152   5.485 -0.0999  0.0796  0.0829
  290POPC   C3A 3968   0.033   0.004   5.660 -0.0547  0.0927  0.0178
  290POPC   C4A 3969  -0.151   0.124   6.142  0.0921 -0.0636  0.3315
  290POPC   C1B 3970   0.934   0.397   5.457  0.3149 -0.2312  0.0742
  290POPC   C2B 3971   1.112   0.292   5.856 -0.3426  0.2174 -0.0852
  290POPC   C3B 3972   0.873   0.337   6.330 -0.3694  0.1708  0.1085
  290POPC   C4B 3973   0.672   0.188   6.712  0.0087 -0.0913 -0.1335
  291POPC   NC3 3974   8.775   3.610   4.652  0.1457 -0.4638  0.2454
  291POPC   PO4 3975   8.611   3.175   4.665  0.2159 -0.1032  0.0826
  291POPC   GL1 3976   8.764   3.287   5.138  0.4943 -0.3427  0.1893
  291POPC   GL2 3977   8.973   3.527   5.110 -0.2068 -0.1116 -0.1971
  291POPC   C1A 3978   8.956   3.021   5.463 -0.3878 -0.2031  0.4118
  291POPC   D2A 3979   8.990   3.074   5.859  0.0207 -0.0938 -0.0360
  291POPC   C3A 3980   9.141   2.958   6.234  0.0390 -0.4205 -0.1607
  291POPC   C4A 3981   9.104   2.892   6.753 -0.0376 -0.2293  0.0101
  291POPC   C1B 3982   8.865   3.510   5.531  0.4876 -0.1850  0.0503
  291POPC   C2B 3983   8.619   3.416   5.944  0.0555 -0.1811 -0.2370
  291POPC   C3B 3984   8.564   3.569   6.372  0.3078  0.3293  0.2180
  291POPC   C4B 3985   8.605   3.617   6.804  0.1493  0.0804 -0.2602
  292POPC   NC3 3986   9.286   4.239   4.057  0.3195  0.1461 -0.1475
  292POPC   PO4 3987   9.031   4.180   4.453 -0.2299  0.1450  0.1688
  292POPC   GL1 3988   8.908   4.233   4.986 -0.0766  0.1238  0.2245
  292POPC   GL2 3989   8.831   4.508   5.178  0.0892 -0.3274 -0.1116
  292POPC   C1A 3990   8.845   4.125   5.434 -0.0345  0.1693 -0.3459
  292POPC   D2A 3991   8.763   3.952   5.867  0.1440  0.2530  0.0175
  292POPC   C3A 3992   8.811   3.975   6.292 -0.2813 -0.3551  0.0970
  292POPC   C4A 3993   8.708   4.133   6.767  0.5248 -0.3958  0.1711
  292POPC   C1B 3994   9.227   4.468   5.354  0.1015 -0.0307 -0.2405
  292POPC   C2B 3995   9.263   4.201   5.788  0.2604  0.0438 -0.3608
  292POPC   C3B 3996   9.251   3.814   6.026  0.2269 -0.0480 -0.3758
  292POPC   C4B 3997   9.129   3.486   6.125  0.0304  0.1608 -0.2083
  293POPC   NC3 3998   2.152   9.569   5.090  0.0861  0.1174 -0.0221
  293POPC   PO4 3999   1.996   9.847   4.824 -0.1601 -0.1223  0.0014
  293POPC   GL1 4000   2.039  10.045   5.191 -0.2823  0.0185  0.0850
  293POPC   GL2 4001   1.780  10.104   5.475 -0.0098  0.0139  0.0928
  293POPC   C1A 4002   2.305  10.030   5.598  0.0553 -0.2034  0.0138
  293POPC   D2A 4003   2.210   9.960   6.034 -0.0812 -0.2071 -0.0861
  293POPC   C3A 4004   2.458   9.840   6.344  0.0629  0.0924  0.0578
  293POPC   C4A 4005   2.421  10.012   6.767  0.0858  0.0786  0.0664
  293POPC   C1B 4006   1.794   9.865   5.840 -0.0968  0.1579 -0.0221
  293POPC   C2B 4007   1.840   9.631   6.137 -0.2361  0.0229 -0.0028
  293POPC   C3B 4008   1.681   9.270   6.217  0.0209 -0.2356 -0.3531
  293POPC   C4B 4009   1.799   8.938   6.203 -0.1574  0.0232  0.1754
  294POPC   NC3 4010   9.100   7.120   4.010  0.0280 -0.3187  0.1106
  294POPC   PO4 4011   8.801   7.432   4.265  0.0650  0.1708  0.0967
  294POPC   GL1 4012   8.917   7.107   4.546 -0.1474 -0.1816  0.2404
  294POPC   GL2 4013   8.610   7.106   4.614 -0.1187  0.3508 -0.2367
  294POPC   C1A 4014   9.097   7.112   4.865 -0.1011  0.1332 -0.2290
  294POPC   D2A 4015   9.131   6.895   5.233  0.0072  0.0765 -0.3849
  294POPC   C3A 4016   9.443   6.900   5.448  0.1400 -0.1387  0.3454
  294POPC   C4A 4017   9.753   7.251   5.585 -0.0851  0.3340 -0.1254
  294POPC   C1B 4018   8.604   7.182   5.047 -0.3438 -0.1394 -0.0438
  294POPC   C2B 4019   8.679   6.918   5.350  0.1301 -0.3064 -0.2196
  294POPC   C3B 4020   8.992   7.006   5.733  0.0243 -0.3195 -0.0004
  294POPC   C4B 4021   9.097   6.726   6.132  0.0999  0.4942  0.1470
  295POPC   NC3 4022   3.812   3.067   4.492  0.0391  0.0356 -0.1354
  295POPC   PO4 4023   4.086   2.783   4.623 -0.1421 -0.0020  0.0005
  295POPC   GL1 4024   4.035   3.063   4.954 -0.0518  0.2094 -0.0000
  295POPC   GL2 4025   3.867   2.958   5.207  0.2067  0.1517 -0.0210
  295POPC   C1A 4026   4.354   3.075   5.394 -0.0898  0.2371 -0.1059
  295POPC   D2A 4027   4.389   3.159   5.821 -0.1500  0.0600  0.2025
  295POPC   C3A 4028   4.175   3.350   6.239 -0.1758 -0.0617 -0.2924
  295POPC   C4A 4029   3.866   3.610   6.579  0.0613 -0.0721 -0.1693
  295POPC   C1B 4030   4.124   2.697   5.584  0.0258 -0.2621 -0.0737
  295POPC   C2B 4031   4.338   2.287   5.837 -0.0863 -0.3284  0.1373
  295POPC   C3B 4032   4.354   2.192   6.277 -0.2161  0.0251 -0.0726
  295POPC   C4B 4033   4.493   2.435   6.665 -0.0546 -0.0984  0.0956
  296POPC   NC3 4034   0.043   7.968   4.206 -0.0485  0.3468  0.0627
  296POPC   PO4 4035   0.474   8.074   4.103  0.0449  0.1052 -0.0075
  296POPC   GL1 4036   0.479   7.785   4.403 -0.2106  0.2880  0.0319
  296POPC   GL2 4037   0.545   7.373   4.439  0.1632  0.0412  0.0068
  296POPC   C1A 4038   0.304   7.764   4.779 -0.2533 -0.0373 -0.1005
  296POPC   D2A 4039   0.370   7.643   5.220 -0.2207  0.1429  0.1080
  296POPC   C3A 4040   0.695   7.640   5.472  0.0353 -0.0812 -0.0405
  296POPC   C4A 4041   0.940   7.405   5.741 -0.1351 -0.0027 -0.1292
  296POPC   C1B 4042   0.416   7.222   4.889  0.1544 -0.1373 -0.1056
  296POPC   C2B 4043   0.459   7.159   5.332 -0.1633  0.3387  0.1991
  296POPC   C3B 4044   0.546   7.028   5.731  0.1423 -0.1504 -0.1438
  296POPC   C4B 4045   0.761   7.007   6.141  0.1149  0.0157  0.3314
  297POPC   NC3 4046   7.981   9.347   4.169  0.1614  0.0934  0.2409
  297POPC   PO4 4047   8.123   9.090   4.411  0.0750 -0.1773 -0.0092
  297POPC   GL1 4048   8.102   9.116   4.886  0.1255 -0.3261 -0.1656
  297POPC   GL2 4049   8.342   8.876   5.130 -0.2607  0.2709 -0.0137
  297POPC   C1A 4050   7.797   9.144   5.179 -0.1290 -0.0292 -0.4920
  297POPC   D2A 4051   7.510   9.389   5.524 -0.2278  0.1885  0.1786
  297POPC   C3A 4052   7.668   9.401   5.960  0.1388  0.0253 -0.0455
  297POPC   C4A 4053   7.951   9.546   6.356 -0.0141 -0.0822  0.3203
  297POPC   C1B 4054   8.225   8.574   5.466  0.3569 -0.0386 -0.2845
  297POPC   C2B 4055   8.153   8.262   5.841 -0.0960  0.3852 -0.1164
  297POPC   C3B 4056   8.052   8.212   6.281 -0.0088  0.1159 -0.3416
  297POPC   C4B 4057   8.056   8.258   6.656  0.2243 -0.1173 -0.0075
  298POPC   NC3 4058   1.038   2.951   4.525 -0.1290  0.3031 -0.1593
  298POPC   PO4 4059   0.913   3.261   4.303  0.2650  0.4303 -0.2555
  298POPC   GL1 4060   0.854   3.502   4.663 -0.0550 -0.0346  0.4064
  298POPC   GL2 4061   0.731   3.738   4.695  0.0814  0.0967 -0.1027
  298POPC   C1A 4062   1.192   3.628   4.983  0.0075  0.1632 -0.1233
  298POPC   D2A 4063   1.219   3.796   5.399  0.0546 -0.0765 -0.0540
  298POPC   C3A 4064   1.380   3.656   5.830  0.0218  0.1092  0.0023
  298POPC   C4A 4065   1.497   3.942   6.061 -0.2231  0.0222  0.0228
  298POPC   C1B 4066   0.913   3.997   5.020  0.3186  0.1457 -0.0091
  298POPC   C2B 4067   0.726   4.268   5.430 -0.0611  0.2099  0.1632
  298POPC   C3B 4068   0.718   4.481   5.752  0.0384  0.1673 -0.0852
  298POPC   C4B 4069   0.672   4.283   6.106 -0.1153  0.0528  0.1834
  299POPC   NC3 4070   0.848   8.361   4.363  0.0366 -0.1219 -0.1478
  299POPC   PO4 4071   1.339   8.346   4.288 -0.2583  0.0891 -0.0735
  299POPC   GL1 4072   1.478   8.221   4.621 -0.5299 -0.0371  0.0633
  299POPC   GL2 4073   1.584   8.554   4.696 -0.1079  0.1360 -0.0252
  299POPC   C1A 4074   1.837   7.967   4.771  0.0427  0.0074  0.3317
  299POPC   D2A 4075   2.171   7.811   4.704 -0.2070 -0.2045 -0.0710
  299POPC   C3A 4076   2.465   7.622   4.953  0.4605 -0.2330 -0.1019
  299POPC   C4A 4077   2.851   7.479   5.241 -0.0658  0.0334  0.3775
  299POPC   C1B 4078   1.637   8.358   5.046 -0.1043  0.0581  0.1810
  299POPC   C2B 4079   1.426   8.472   5.496  0.1198 -0.1447  0.1522
  299POPC   C3B 4080   1.081   8.428   5.737 -0.1242  0.1232  0.1906
  299POPC   C4B 4081   0.735   8.397   6.018 -0.0561  0.1255  0.0029
  300POPC   NC3 4082   6.898   6.458   4.337 -0.1054 -0.1055 -0.2370
  300POPC   PO4 4083   6.889   6.530   4.794  0.0995 -0.0353 -0.2148
  300POPC   GL1 4084   7.076   6.706   5.142 -0.1345  0.1577 -0.0734
  300POPC   GL2 4085   7.213   6.932   4.984  0.1495 -0.1551 -0.2453
  300POPC   C1A 4086   7.345   6.471   5.346  0.1617 -0.0317  0.2921
  300POPC   D2A 4087   7.546   6.071   5.582  0.1109  0.4255  0.0847
  300POPC   C3A 4088   7.636   5.969   6.070 -0.1895  0.1848 -0.1225
  300POPC   C4A 4089   7.687   5.956   6.486  0.0718  0.1015  0.1745
  300POPC   C1B 4090   7.344   7.316   5.315 -0.0093 -0.2050  0.0578
  300POPC   C2B 4091   7.236   7.553   5.747 -0.0638 -0.1877  0.4578
  300POPC   C3B 4092   7.684   7.590   6.070 -0.0263  0.4832  0.0038
  300POPC   C4B 4093   7.709   7.839   6.461  0.0324  0.2144  0.3824
  301POPC   NC3 4094   0.913   9.079   4.828 -0.4141  0.1530 -0.2207
  301POPC   PO4 4095   0.633   8.925   4.656  0.4006 -0.2321  0.0717
  301POPC   GL1 4096   0.843   8.602   4.943 -0.1520 -0.1704  0.0620
  301POPC   GL2 4097   1.142   8.664   5.083 -0.0392 -0.0384 -0.2484
  301POPC   C1A 4098   0.757   8.454   5.322  0.2015  0.0178  0.0810
  301POPC   D2A 4099   0.510   8.159   5.534  0.3179  0.0593  0.2260
  301POPC   C3A 4100   0.042   8.003   5.400  0.2548 -0.4651 -0.3247
  301POPC   C4A 4101  -0.364   8.078   5.494  0.0611 -0.0797  0.3391
  301POPC   C1B 4102   1.194   8.179   5.087 -0.0375  0.2014  0.1986
  301POPC   C2B 4103   1.097   8.011   5.378 -0.1970 -0.1074 -0.3919
  301POPC   C3B 4104   0.979   7.890   5.764  0.2776 -0.0143 -0.0320
  301POPC   C4B 4105   0.539   7.817   6.023  0.0535  0.0134  0.1267
  302POPC   NC3 4106   1.523   2.383   3.963  0.1140  0.2008  0.0368
  302POPC   PO4 4107   1.846   2.547   4.341 -0.1153 -0.2486 -0.1040
  302POPC   GL1 4108   1.745   2.711   4.757  0.0310 -0.1282 -0.1575
  302POPC   GL2 4109   1.406   2.714   4.862 -0.3517  0.0355  0.0534
  302POPC   C1A 4110   1.760   2.938   5.248 -0.1242  0.3918 -0.0884
  302POPC   D2A 4111   1.874   3.090   5.643 -0.2338 -0.2885 -0.0676
  302POPC   C3A 4112   1.854   3.475   5.870  0.1073 -0.1381 -0.0581
  302POPC   C4A 4113   2.010   3.914   5.800  0.2848 -0.1558 -0.1240
  302POPC   C1B 4114   1.273   2.832   5.353 -0.0165  0.1233  0.2251
  302POPC   C2B 4115   1.013   2.859   5.719 -0.1965  0.0693  0.0875
  302POPC   C3B 4116   0.924   3.006   6.165  0.1864  0.2004  0.0094
  302POPC   C4B 4117   0.784   3.294   6.446 -0.0780 -0.1761 -0.2899
  303POPC   NC3 4118   0.888  10.472   4.545  0.1503  0.1161 -0.0519
  303POPC   PO4 4119   0.490  10.412   4.642  0.2432 -0.3913 -0.0443
  303POPC   GL1 4120   0.169  10.490   4.887  0.1656  0.1250 -0.2615
  303POPC   GL2 4121   0.097  10.172   4.992  0.0012 -0.1369 -0.2287
  303POPC   C1A 4122   0.112  10.824   5.211 -0.0695 -0.0457  0.1028
  303POPC   D2A 4123   0.324  11.217   5.236  0.0536  0.3022  0.0398
  303POPC   C3A 4124   0.493  11.165   5.626  0.1251 -0.0281  0.2401
  303POPC   C4A 4125   0.642  11.380   5.954 -0.2395 -0.2952  0.0761
  303POPC   C1B 4126  -0.223  10.272   5.307 -0.0768  0.3690 -0.4843
  303POPC   C2B 4127  -0.360  10.308   5.738 -0.4281  0.3709 -0.0164
  303POPC   C3B 4128  -0.331  10.128   6.139 -0.1593 -0.1382  0.2628
  303POPC   C4B 4129  -0.650  10.038   6.473  0.2914  0.0831 -0.1679
  304POPC   NC3 4130   3.909   6.204   3.669  0.1049  0.2504 -0.1192
  304POPC   PO4 4131   4.001   6.559   3.911  0.0657 -0.0605  0.4575
  304POPC   GL1 4132   3.800   6.434   4.155  0.1907 -0.3483 -0.0780
  304POPC   GL2 4133   3.545   6.302   4.059  0.0211 -0.1855 -0.0462
  304POPC   C1A 4134   3.519   6.623   4.491 -0.1693  0.1033 -0.0991
  304POPC   D2A 4135   3.557   6.776   4.978 -0.1457  0.1501  0.0894
  304POPC   C3A 4136   3.889   6.510   5.128  0.1195 -0.0051 -0.1565
  304POPC   C4A 4137   4.202   6.624   5.468 -0.2082 -0.0012  0.2799
  304POPC   C1B 4138   3.437   6.135   4.459 -0.1963  0.0178  0.2001
  304POPC   C2B 4139   3.462   6.213   4.898 -0.1835  0.1349 -0.0486
  304POPC   C3B 4140   3.738   5.974   5.076 -0.0035  0.0140  0.0487
  304POPC   C4B 4141   4.179   6.042   5.195 -0.1824 -0.0684  0.1185
  305POPC   NC3 4142   6.658   1.786   4.583  0.3879  0.1049 -0.1727
  305POPC   PO4 4143   6.205   2.014   4.811 -0.2206  0.1334  0.0769
  305POPC   GL1 4144   6.353   1.945   5.220  0.2031  0.1369  0.3214
  305POPC   GL2 4145   6.217   2.243   5.409  0.3323 -0.3605  0.1021
  305POPC   C1A 4146   6.478   1.851   5.681  0.0225  0.0073  0.1406
  305POPC   D2A 4147   6.505   1.601   6.092 -0.0275 -0.3244  0.0642
  305POPC   C3A 4148   6.680   1.644   6.497  0.1354  0.2089 -0.4632
  305POPC   C4A 4149   6.767   2.130   6.566 -0.1380  0.0584 -0.0289
  305POPC   C1B 4150   6.248   2.322   5.772  0.0657 -0.1527 -0.3757
  305POPC   C2B 4151   6.598   2.165   6.064 -0.0325 -0.0286 -0.0849
  305POPC   C3B 4152   7.032   2.109   6.101 -0.0009  0.0619 -0.1399
  305POPC   C4B 4153   7.462   2.085   6.270  0.1737  0.0034  0.2236
  306POPC   NC3 4154   8.470   4.939   4.150 -0.0688 -0.3074 -0.1149
  306POPC   PO4 4155   8.786   5.059   4.300 -0.0427  0.2276  0.5246
  306POPC   GL1 4156   8.827   5.092   4.805 -0.1435  0.3635 -0.0423
  306POPC   GL2 4157   8.504   5.248   4.887 -0.0236  0.0899  0.2004
  306POPC   C1A 4158   9.038   5.037   5.228  0.0787 -0.1807  0.1083
  306POPC   D2A 4159   9.206   4.896   5.602  0.3972 -0.3051  0.0658
  306POPC   C3A 4160   8.906   4.913   6.068 -0.1132 -0.2162 -0.0286
  306POPC   C4A 4161   8.635   4.985   6.357  0.0202 -0.2935  0.2346
  306POPC   C1B 4162   8.476   5.061   5.327 -0.0404 -0.0787 -0.1285
  306POPC   C2B 4163   8.708   4.710   5.591 -0.2103 -0.0740 -0.2851
  306POPC   C3B 4164   8.802   4.445   6.000 -0.0770  0.1871  0.2310
  306POPC   C4B 4165   8.951   4.427   6.401 -0.1005 -0.2828  0.0490
  307POPC   NC3 4166  10.052   6.506   3.337  0.0387 -0.2039  0.0055
  307POPC   PO4 4167   9.872   6.527   3.780 -0.1984  0.1914  0.0832
  307POPC   GL1 4168   9.821   6.435   4.188 -0.0123  0.0098  0.0087
  307POPC   GL2 4169   9.663   6.438   4.539 -0.0791 -0.0284  0.1314
  307POPC   C1A 4170  10.163   6.593   4.527 -0.2559 -0.1352 -0.0061
  307POPC   D2A 4171  10.366   6.635   4.929  0.0307  0.1427  0.0072
  307POPC   C3A 4172  10.513   6.525   5.373 -0.0280 -0.1535 -0.1829
  307POPC   C4A 4173  10.433   6.641   5.809 -0.1789  0.2811  0.2422
  307POPC   C1B 4174   9.911   6.277   4.842 -0.0540 -0.0438  0.0762
  307POPC   C2B 4175   9.810   5.945   5.029  0.4609 -0.0197 -0.0054
  307POPC   C3B 4176   9.519   5.678   5.267  0.3027  0.2201  0.5355
  307POPC   C4B 4177   9.183   5.479   5.537  0.0174  0.1254  0.0157
  308POPC   NC3 4178   4.235   2.326   4.805 -0.3625  0.0720  0.1774
  308POPC   PO4 4179   4.598   2.201   5.161  0.0912 -0.4902  0.1874
  308POPC   GL1 4180   4.814   2.236   5.459  0.1315 -0.1727 -0.1003
  308POPC   GL2 4181   4.933   2.605   5.415  0.1610 -0.1671  0.1172
  308POPC   C1A 4182   5.038   2.274   5.882 -0.1282  0.0411  0.0816
  308POPC   D2A 4183   5.155   2.214   6.394 -0.2029 -0.2313  0.0858
  308POPC   C3A 4184   4.985   2.359   6.670  0.3159  0.0766  0.1992
  308POPC   C4A 4185   4.815   2.572   7.026 -0.0605 -0.1813 -0.0426
  308POPC   C1B 4186   4.608   2.742   5.674  0.0355 -0.1077 -0.2040
  308POPC   C2B 4187   4.405   2.754   6.092  0.0177  0.2720 -0.4241
  308POPC   C3B 4188   4.112   2.891   6.424  0.1557  0.2180 -0.3599
  308POPC   C4B 4189   3.980   2.960   6.873 -0.3376 -0.1194 -0.0228
  309POPC   NC3 4190   0.014   9.902   3.999 -0.0653  0.1847  0.0032
  309POPC   PO4 4191   0.062   9.634   4.432  0.1479 -0.1327 -0.1090
  309POPC   GL1 4192   0.039   9.645   4.879  0.2462  0.0399  0.1300
  309POPC   GL2 4193  -0.179   9.340   4.824  0.1520 -0.1581  0.0726
  309POPC   C1A 4194   0.156   9.868   5.380 -0.4862  0.1214 -0.0786
  309POPC   D2A 4195   0.108  10.049   5.801  0.3011 -0.0390  0.2377
  309POPC   C3A 4196   0.232  10.257   6.097 -0.0304 -0.4404 -0.0238
  309POPC   C4A 4197   0.169  10.329   6.550 -0.1421  0.2152 -0.0632
  309POPC   C1B 4198   0.009   9.384   5.379  0.1137  0.3259  0.2893
  309POPC   C2B 4199   0.255   9.556   5.745  0.2386  0.1118  0.1730
  309POPC   C3B 4200   0.283   9.759   6.224 -0.1325 -0.1272 -0.0207
  309POPC   C4B 4201   0.654   9.563   6.416  0.3989  0.0414  0.4161
  310POPC   NC3 4202   8.753  10.174   3.959 -0.2542  0.0703 -0.2033
  310POPC   PO4 4203   8.596  10.235   4.429  0.3673  0.2877  0.2055
  310POPC   GL1 4204   8.750  10.385   4.824 -0.0577 -0.0086 -0.1328
  310POPC   GL2 4205   8.970  10.219   4.983 -0.3871 -0.0440  0.2357
  310POPC   C1A 4206   8.462  10.429   5.217  0.0439  0.1592 -0.2737
  310POPC   D2A 4207   8.305  10.036   5.555 -0.2994 -0.3239  0.0725
  310POPC   C3A 4208   8.580  10.112   5.928  0.0572 -0.0451 -0.1902
  310POPC   C4A 4209   8.862  10.301   6.085 -0.0410  0.3841 -0.1943
  310POPC   C1B 4210   8.895  10.131   5.436  0.0400  0.0643  0.2049
  310POPC   C2B 4211   9.155  10.018   5.814  0.1041 -0.2125 -0.0828
  310POPC   C3B 4212   8.987   9.827   6.107  0.3172 -0.1416 -0.1210
  310POPC   C4B 4213   8.915   9.421   6.334  0.0474  0.3321  0.0034
  311POPC   NC3 4214   7.991   1.118   4.287  0.3804  0.0857  0.4811
  311POPC   PO4 4215   7.659   1.433   4.506  0.0040  0.1519  0.0612
  311POPC   GL1 4216   7.773   1.189   4.836  0.0533 -0.0331 -0.0710
  311POPC   GL2 4217   8.035   0.961   4.991 -0.3358 -0.0736  0.1808
  311POPC   C1A 4218   7.672   1.007   5.311 -0.4437  0.1321  0.2302
  311POPC   D2A 4219   7.450   0.930   5.638 -0.0838  0.3047 -0.1393
  311POPC   C3A 4220   7.457   0.653   6.055 -0.3102 -0.1045  0.0148
  311POPC   C4A 4221   7.409   0.581   6.573  0.1810  0.0597  0.0088
  311POPC   C1B 4222   8.236   0.700   5.299  0.2340 -0.3784  0.0316
  311POPC   C2B 4223   8.314   0.509   5.608 -0.1681 -0.0780  0.1106
  311POPC   C3B 4224   8.283   0.527   6.149 -0.0423  0.1193  0.1306
  311POPC   C4B 4225   8.359   0.720   6.558 -0.2749  0.0282  0.2041
  312POPC   NC3 4226   8.317   2.397   4.891 -0.2211  0.0737  0.1407
  312POPC   PO4 4227   8.380   2.739   4.548 -0.2964  0.1416  0.0314
  312POPC   GL1 4228   8.460   2.863   5.029 -0.1297 -0.2458  0.2636
  312POPC   GL2 4229   8.710   2.670   5.255 -0.4945  0.2631  0.0015
  312POPC   C1A 4230   8.397   3.163   5.406 -0.2928  0.3653  0.3541
  312POPC   D2A 4231   8.227   3.130   5.828  0.1837  0.0179  0.2944
  312POPC   C3A 4232   8.205   2.864   6.221  0.2054 -0.1660  0.1419
  312POPC   C4A 4233   8.303   2.586   6.578  0.0597 -0.0466 -0.0471
  312POPC   C1B 4234   8.556   2.698   5.638  0.2424 -0.0774  0.1648
  312POPC   C2B 4235   8.679   2.813   6.097  0.2401 -0.0681 -0.2894
  312POPC   C3B 4236   8.707   3.092   6.417 -0.0536 -0.0732  0.1256
  312POPC   C4B 4237   8.974   3.291   6.583  0.2238  0.0231 -0.1753
  313POPC   NC3 4238   7.487   1.644   4.933 -0.3400 -0.2723 -0.0295
  313POPC   PO4 4239   7.485   1.987   4.755 -0.1109 -0.1061 -0.0777
  313POPC   GL1 4240   7.807   2.155   5.008 -0.2173  0.0214 -0.0835
  313POPC   GL2 4241   7.913   1.915   5.154 -0.0326 -0.0337  0.0243
  313POPC   C1A 4242   7.766   2.431   5.404 -0.0494 -0.2519  0.2403
  313POPC   D2A 4243   8.081   2.777   5.449 -0.2305  0.0438  0.0256
  313POPC   C3A 4244   7.836   3.238   5.300  0.0834  0.1555  0.1553
  313POPC   C4A 4245   7.738   3.720   5.237 -0.0127  0.1833  0.1026
  313POPC   C1B 4246   7.952   2.004   5.558 -0.1145  0.0149  0.0824
  313POPC   C2B 4247   7.984   2.246   5.977  0.1264 -0.0965  0.4150
  313POPC   C3B 4248   7.862   2.416   6.317  0.0634  0.3591 -0.1088
  313POPC   C4B 4249   7.696   2.387   6.723 -0.4272  0.0458  0.0756
  314POPC   NC3 4250   8.816   8.190   4.877  0.0926 -0.0900 -0.0573
  314POPC   PO4 4251   8.552   8.477   4.865 -0.3954  0.1517 -0.3153
  314POPC   GL1 4252   8.706   8.520   5.251  0.1959 -0.2026 -0.0777
  314POPC   GL2 4253   9.046   8.431   5.362  0.2369  0.5312 -0.1173
  314POPC   C1A 4254   8.673   8.864   5.556  0.0780 -0.0018  0.1885
  314POPC   D2A 4255   8.953   9.135   5.562 -0.3711 -0.3142  0.0040
  314POPC   C3A 4256   9.154   9.368   5.920  0.0133  0.0644  0.1749
  314POPC   C4A 4257   9.407   9.642   6.009 -0.0354 -0.0450  0.0192
  314POPC   C1B 4258   9.044   8.253   5.810  0.1660 -0.0621  0.0206
  314POPC   C2B 4259   9.296   7.975   6.074  0.0612  0.1395 -0.0311
  314POPC   C3B 4260   9.356   7.625   6.427  0.0511  0.3287 -0.0054
  314POPC   C4B 4261   9.396   7.464   6.903  0.0491  0.0519 -0.1051
  315POPC   NC3 4262   8.307   7.320   4.269 -0.0196 -0.0377 -0.0859
  315POPC   PO4 4263   8.163   6.927   4.368 -0.2003 -0.1449 -0.1579
  315POPC   GL1 4264   8.172   6.815   4.819  0.0224  0.0013  0.1284
  315POPC   GL2 4265   7.872   6.861   4.903 -0.1313 -0.1765 -0.1117
  315POPC   C1A 4266   8.392   6.515   5.097  0.0059  0.0314 -0.2259
  315POPC   D2A 4267   8.476   6.471   5.601  0.4527  0.3664 -0.1898
  315POPC   C3A 4268   8.558   6.813   5.876 -0.0829 -0.0778 -0.1469
  315POPC   C4A 4269   8.678   6.978   6.253 -0.2830  0.1873 -0.1242
  315POPC   C1B 4270   7.634   6.883   5.229 -0.3548  0.3741 -0.1161
  315POPC   C2B 4271   7.644   7.063   5.627 -0.0638  0.0253  0.0424
  315POPC   C3B 4272   8.081   7.189   5.888  0.0295 -0.0757 -0.0186
  315POPC   C4B 4273   8.102   6.901   6.229  0.2516  0.1814  0.0080
  316POPC   NC3 4274   6.827   9.404   4.053  0.1467  0.1444  0.0113
  316POPC   PO4 4275   6.980   9.238   4.526  0.0043  0.0698  0.0242
  316POPC   GL1 4276   6.995   9.063   5.001  0.5591  0.0848 -0.1549
  316POPC   GL2 4277   6.745   9.284   5.198  0.2143  0.0632 -0.1443
  316POPC   C1A 4278   7.195   9.045   5.344  0.2596 -0.0212  0.1189
  316POPC   D2A 4279   7.210   9.008   5.798 -0.2733  0.1047 -0.1625
  316POPC   C3A 4280   7.510   9.005   6.197 -0.0126  0.1890  0.2791
  316POPC   C4A 4281   7.627   9.229   6.526 -0.0667 -0.0459  0.0139
  316POPC   C1B 4282   6.915   9.410   5.574 -0.3252 -0.3154 -0.0767
  316POPC   C2B 4283   7.141   9.602   5.923  0.2395 -0.1386  0.1868
  316POPC   C3B 4284   7.338   9.593   6.307 -0.0854  0.0122  0.0257
  316POPC   C4B 4285   7.300   9.530   6.803 -0.2261 -0.4136  0.0750
  317POPC   NC3 4286   4.943   5.546   4.135 -0.0716  0.0303 -0.1298
  317POPC   PO4 4287   4.796   6.030   4.221 -0.1471 -0.1378  0.2678
  317POPC   GL1 4288   4.669   6.167   4.718  0.0159 -0.0661  0.2466
  317POPC   GL2 4289   4.978   6.298   4.850 -0.2219  0.1179  0.3519
  317POPC   C1A 4290   4.683   5.903   5.121  0.2077 -0.0645 -0.1019
  317POPC   D2A 4291   4.596   5.746   5.552 -0.0390 -0.0691 -0.0090
  317POPC   C3A 4292   4.162   5.900   5.650 -0.1422  0.0965  0.0418
  317POPC   C4A 4293   3.846   6.188   5.576  0.1688  0.2170 -0.1957
  317POPC   C1B 4294   5.072   6.191   5.227 -0.1420 -0.1137 -0.0574
  317POPC   C2B 4295   4.997   6.214   5.735 -0.2604 -0.0312  0.3014
  317POPC   C3B 4296   5.129   6.094   5.990 -0.0832  0.0024  0.1230
  317POPC   C4B 4297   5.124   5.779   6.258 -0.1878 -0.3389  0.0524
  318POPC   NC3 4298   0.996   1.644   4.896  0.1395  0.0807 -0.2163
  318POPC   PO4 4299   0.759   1.227   4.986  0.0872  0.1166 -0.0299
  318POPC   GL1 4300   0.658   1.557   5.325 -0.0762 -0.1267  0.2137
  318POPC   GL2 4301   0.385   1.624   5.307  0.0046  0.0834  0.0912
  318POPC   C1A 4302   0.830   1.783   5.648 -0.3898  0.0804 -0.0713
  318POPC   D2A 4303   1.228   1.788   5.826  0.1535  0.3779  0.0881
  318POPC   C3A 4304   1.273   1.386   6.136  0.1188 -0.1063 -0.0384
  318POPC   C4A 4305   0.973   1.092   6.299  0.1086 -0.1156  0.1432
  318POPC   C1B 4306   0.368   1.531   5.780 -0.5050 -0.0010  0.1431
  318POPC   C2B 4307   0.384   1.417   6.212 -0.1955 -0.1199  0.1252
  318POPC   C3B 4308   0.186   1.091   6.546 -0.1211 -0.1009  0.0643
  318POPC   C4B 4309  -0.066   1.050   6.937  0.0216  0.0163  0.2212
  319POPC   NC3 4310   0.581   5.970   3.064  0.0249 -0.0039  0.1832
  319POPC   PO4 4311   0.575   6.311   3.473 -0.0320 -0.1421 -0.1536
  319POPC   GL1 4312   0.526   6.173   3.844  0.0109  0.3043  0.0670
  319POPC   GL2 4313   0.146   6.189   3.828 -0.0938  0.0935 -0.2349
  319POPC   C1A 4314   0.650   6.062   4.271 -0.1760 -0.0189  0.1519
  319POPC   D2A 4315   0.876   5.955   4.551 -0.3198  0.0430 -0.0202
  319POPC   C3A 4316   1.025   6.120   4.811 -0.0303  0.0719  0.0629
  319POPC   C4A 4317   0.938   6.399   5.175  0.0463  0.0377  0.1874
  319POPC   C1B 4318   0.016   6.043   4.263  0.1845 -0.1111 -0.2361
  319POPC   C2B 4319  -0.095   6.031   4.670  0.0324  0.0299  0.1278
  319POPC   C3B 4320  -0.222   6.148   5.084 -0.0537 -0.1733 -0.1707
  319POPC   C4B 4321  -0.457   6.330   5.323  0.2289 -0.2000  0.0166
  320POPC   NC3 4322   1.285   4.221   3.816  0.3499 -0.0467 -0.0608
  320POPC   PO4 4323   1.582   4.577   3.726 -0.2077  0.2105 -0.0004
  320POPC   GL1 4324   1.711   4.747   4.114 -0.3412  0.0219  0.0884
  320POPC   GL2 4325   1.955   5.007   3.998 -0.0565  0.2704  0.1181
  320POPC   C1A 4326   2.049   4.887   4.467  0.1936 -0.0740  0.0788
  320POPC   D2A 4327   2.154   5.154   4.808  0.3470  0.0006 -0.2647
  320POPC   C3A 4328   1.830   4.942   5.082  0.0450 -0.1092  0.0323
  320POPC   C4A 4329   1.808   4.765   5.581 -0.0808 -0.0564  0.2325
  320POPC   C1B 4330   2.273   4.631   4.021 -0.2114 -0.1067 -0.2475
  320POPC   C2B 4331   2.590   4.420   4.252 -0.0907 -0.1408  0.3313
  320POPC   C3B 4332   2.643   4.328   4.638  0.0622 -0.2253  0.0584
  320POPC   C4B 4333   2.409   4.027   4.946 -0.2050  0.0387 -0.1695
  321POPC   NC3 4334   6.320   9.969   4.612  0.2278  0.1036 -0.0532
  321POPC   PO4 4335   5.876  10.275   4.544 -0.0187 -0.0129  0.1331
  321POPC   GL1 4336   5.971  10.122   5.025 -0.3074 -0.0921  0.4317
  321POPC   GL2 4337   5.737  10.111   5.302 -0.0491 -0.0650  0.0620
  321POPC   C1A 4338   6.283  10.203   5.319 -0.0260 -0.0184  0.1565
  321POPC   D2A 4339   6.357  10.188   5.734 -0.3072 -0.1854  0.2551
  321POPC   C3A 4340   6.404  10.599   5.859 -0.0519 -0.3311 -0.0980
  321POPC   C4A 4341   6.397  10.899   6.244  0.1142  0.3625  0.0905
  321POPC   C1B 4342   5.887  10.384   5.578  0.0854  0.3501 -0.4004
  321POPC   C2B 4343   5.931  10.366   5.949 -0.4426 -0.0349 -0.2527
  321POPC   C3B 4344   5.843  10.203   6.352 -0.0937 -0.0469  0.0891
  321POPC   C4B 4345   6.006   9.930   6.684 -0.1986 -0.1144 -0.2573
  322POPC   NC3 4346   2.878   0.549   4.697  0.0892  0.1332  0.1310
  322POPC   PO4 4347   2.611   0.749   5.096 -0.1359 -0.2602  0.3517
  322POPC   GL1 4348   2.526   0.555   5.475  0.0414  0.1212  0.1570
  322POPC   GL2 4349   2.798   0.508   5.626 -0.3770 -0.3403  0.2414
  322POPC   C1A 4350   2.276   0.430   5.781 -0.1144  0.4056 -0.2695
  322POPC   D2A 4351   2.225   0.390   6.166 -0.0434  0.0489 -0.0793
  322POPC   C3A 4352   1.908   0.739   6.285  0.2032 -0.0463 -0.1210
  322POPC   C4A 4353   1.720   1.151   6.064  0.2306 -0.0508 -0.2254
  322POPC   C1B 4354   2.857   0.683   6.036  0.1919  0.1534  0.2652
  322POPC   C2B 4355   2.879   0.890   6.417 -0.3588  0.5337 -0.0644
  322POPC   C3B 4356   3.216   0.976   6.564  0.1371  0.2879 -0.0887
  322POPC   C4B 4357   3.237   1.198   7.060 -0.0087 -0.1319 -0.0620
  323POPC   NC3 4358   1.586   9.511   4.449 -0.1453  0.1586 -0.0926
  323POPC   PO4 4359   1.220   9.468   4.726  0.0129  0.1117 -0.1642
  323POPC   GL1 4360   1.253   9.636   5.106  0.1573 -0.0868 -0.0549
  323POPC   GL2 4361   0.984   9.506   5.179  0.2212  0.0571 -0.0944
  323POPC   C1A 4362   1.475   9.531   5.454 -0.1682  0.0463  0.0136
  323POPC   D2A 4363   1.280   9.421   5.867 -0.3352 -0.0649 -0.1944
  323POPC   C3A 4364   1.360   9.779   6.148 -0.2322 -0.2598 -0.2852
  323POPC   C4A 4365   1.543   9.999   6.472 -0.0149  0.0310  0.1633
  323POPC   C1B 4366   0.831   9.536   5.662  0.1018  0.1075 -0.0224
  323POPC   C2B 4367   0.755   9.458   5.967  0.0378 -0.1265 -0.2183
  323POPC   C3B 4368   1.052   9.327   6.323  0.2163 -0.1327 -0.1072
  323POPC   C4B 4369   1.051   9.209   6.802  0.0826  0.2022 -0.2923
  324POPC   NC3 4370   9.337   1.000   4.534  0.2567  0.0308 -0.1253
  324POPC   PO4 4371   9.373   1.071   4.885  0.1623  0.4666  0.0686
  324POPC   GL1 4372   9.580   1.192   5.356 -0.2470  0.4029  0.5553
  324POPC   GL2 4373   9.496   0.897   5.357  0.0260  0.0534  0.0125
  324POPC   C1A 4374   9.712   1.242   5.816  0.0999 -0.0545 -0.2689
  324POPC   D2A 4375   9.921   1.375   6.188 -0.0245 -0.0509 -0.1593
  324POPC   C3A 4376  10.355   1.415   6.153 -0.0715  0.0558  0.1174
  324POPC   C4A 4377  10.376   1.764   5.916  0.0485  0.0070 -0.1024
  324POPC   C1B 4378   9.306   0.914   5.755 -0.2040  0.0174 -0.2398
  324POPC   C2B 4379   9.318   1.073   6.122  0.1375 -0.1457 -0.0050
  324POPC   C3B 4380   9.260   0.972   6.496  0.0497 -0.2089  0.1372
  324POPC   C4B 4381   9.020   0.822   6.873  0.1306 -0.0562  0.0895
  325POPC   NC3 4382   5.563   4.996   4.626  0.0475 -0.0703 -0.0165
  325POPC   PO4 4383   5.237   4.966   4.329  0.2534 -0.1114  0.0885
  325POPC   GL1 4384   5.066   4.976   4.751  0.3446 -0.0484 -0.2192
  325POPC   GL2 4385   5.205   4.855   5.052 -0.0970  0.2098  0.2746
  325POPC   C1A 4386   4.740   5.100   5.014  0.0967  0.2700 -0.1810
  325POPC   D2A 4387   4.372   5.365   5.284  0.2048  0.1196  0.0883
  325POPC   C3A 4388   4.058   5.388   5.579 -0.0408 -0.0071 -0.1164
  325POPC   C4A 4389   3.633   5.260   5.629 -0.2137 -0.0355  0.0406
  325POPC   C1B 4390   5.049   4.855   5.453  0.0465  0.0694  0.0442
  325POPC   C2B 4391   4.940   5.019   5.929 -0.1341  0.0936  0.0702
  325POPC   C3B 4392   4.812   5.143   6.267  0.0901  0.1563  0.1739
  325POPC   C4B 4393   4.745   5.501   6.485 -0.0987  0.1295  0.2768
  326POPC   NC3 4394   3.024   1.536   5.177  0.2743  0.0783  0.0731
  326POPC   PO4 4395   2.644   1.370   4.962  0.2070 -0.1753  0.0994
  326POPC   GL1 4396   2.483   1.403   5.395 -0.2682 -0.1315 -0.1112
  326POPC   GL2 4397   2.402   1.122   5.450  0.1955  0.0616  0.0248
  326POPC   C1A 4398   2.494   1.646   5.597 -0.0692 -0.2488 -0.2438
  326POPC   D2A 4399   2.811   1.726   5.975 -0.1748 -0.0244  0.0900
  326POPC   C3A 4400   3.079   1.533   6.381 -0.2973  0.1135  0.4124
  326POPC   C4A 4401   3.383   1.549   6.715  0.0304 -0.2306  0.1345
  326POPC   C1B 4402   2.563   0.977   5.821  0.0968 -0.1001 -0.1413
  326POPC   C2B 4403   2.432   0.894   6.185 -0.4098  0.1769 -0.0216
  326POPC   C3B 4404   2.496   0.550   6.570 -0.1460 -0.0136  0.1946
  326POPC   C4B 4405   2.421   0.626   7.130 -0.1619  0.4091 -0.0082
  327POPC   NC3 4406   4.511   8.231   4.758  0.3093 -0.2001  0.5487
  327POPC   PO4 4407   4.212   8.025   4.808  0.2128 -0.1598 -0.0146
  327POPC   GL1 4408   3.950   8.038   5.196 -0.1030  0.1218 -0.2033
  327POPC   GL2 4409   3.653   7.965   5.208  0.2341  0.1544 -0.0271
  327POPC   C1A 4410   3.718   7.944   5.689  0.0240 -0.2893 -0.1804
  327POPC   D2A 4411   3.846   7.891   6.041 -0.1709  0.2979 -0.1445
  327POPC   C3A 4412   3.555   8.058   6.315 -0.0729 -0.0160  0.3210
  327POPC   C4A 4413   3.511   8.450   6.504  0.0710 -0.1423 -0.2437
  327POPC   C1B 4414   3.584   7.501   5.246 -0.0788 -0.0799  0.3930
  327POPC   C2B 4415   3.293   7.236   5.371 -0.0837 -0.2689  0.3684
  327POPC   C3B 4416   3.135   6.914   5.639  0.2183  0.0464 -0.1838
  327POPC   C4B 4417   3.351   6.550   5.971  0.1286  0.0873  0.0335
  328POPC   NC3 4418   2.413   8.897   4.564 -0.2208 -0.1482 -0.2271
  328POPC   PO4 4419   2.563   9.196   4.897  0.2998 -0.0602  0.2698
  328POPC   GL1 4420   2.579   8.932   5.161  0.1328 -0.2402  0.1805
  328POPC   GL2 4421   2.749   9.083   5.366 -0.0238  0.0168  0.0006
  328POPC   C1A 4422   2.370   8.447   5.086  0.0123  0.2638 -0.1724
  328POPC   D2A 4423   2.171   8.154   5.112  0.0294  0.3578 -0.1198
  328POPC   C3A 4424   1.924   8.144   5.476  0.0959 -0.2635 -0.0778
  328POPC   C4A 4425   1.554   7.959   5.582 -0.4432 -0.1002 -0.1842
  328POPC   C1B 4426   2.676   8.730   5.715  0.1075 -0.3318 -0.2997
  328POPC   C2B 4427   2.552   8.443   6.076  0.1307  0.1324  0.0179
  328POPC   C3B 4428   2.384   8.677   6.369 -0.0621  0.0192  0.4092
  328POPC   C4B 4429   2.112   8.868   6.554 -0.1032 -0.1274  0.0590
  329POPC   NC3 4430   0.764   2.103   4.634  0.1585  0.2232  0.0334
  329POPC   PO4 4431   0.914   2.501   4.660 -0.1025  0.4478 -0.0897
  329POPC   GL1 4432   0.939   2.673   5.002 -0.0964  0.3457  0.3208
  329POPC   GL2 4433   0.797   3.070   4.996  0.3029  0.0190 -0.2735
  329POPC   C1A 4434   0.645   2.479   5.396  0.2835  0.0290  0.1559
  329POPC   D2A 4435   0.644   2.515   5.833 -0.0598 -0.0323 -0.0630
  329POPC   C3A 4436   0.482   2.782   6.009 -0.0974  0.0149  0.2056
  329POPC   C4A 4437   0.411   3.136   6.095  0.0804 -0.2235 -0.2022
  329POPC   C1B 4438   0.911   3.194   5.409  0.0568 -0.4437  0.2851
  329POPC   C2B 4439   0.846   3.449   5.869  0.2363  0.1486 -0.1973
  329POPC   C3B 4440   0.580   3.642   6.076 -0.3194 -0.1740  0.1304
  329POPC   C4B 4441   0.270   3.986   6.346  0.0748  0.2244  0.3475
  330POPC   NC3 4442   0.546   3.532   4.209  0.1418 -0.4177 -0.0545
  330POPC   PO4 4443   0.310   3.390   4.621 -0.1167 -0.1234 -0.2429
  330POPC   GL1 4444   0.446   3.494   5.037  0.0985  0.0323 -0.0952
  330POPC   GL2 4445   0.327   3.364   5.271  0.1729  0.2835  0.0968
  330POPC   C1A 4446   0.740   3.661   5.366  0.0685  0.0160 -0.1511
  330POPC   D2A 4447   0.852   3.892   5.776  0.1045 -0.1523  0.2911
  330POPC   C3A 4448   1.104   4.180   5.782 -0.0632 -0.1654 -0.1026
  330POPC   C4A 4449   1.351   4.556   5.739 -0.0979 -0.1994 -0.0848
  330POPC   C1B 4450   0.263   3.550   5.664  0.0313  0.4201  0.3443
  330POPC   C2B 4451   0.103   3.578   6.019  0.2572 -0.5371 -0.0467
  330POPC   C3B 4452  -0.093   3.459   6.440  0.0020 -0.1172  0.1004
  330POPC   C4B 4453  -0.324   3.092   6.602  0.1201 -0.0200 -0.0121
  331POPC   NC3 4454   9.025   6.144   3.910 -0.1253 -0.3312 -0.1582
  331POPC   PO4 4455   9.337   6.281   4.116  0.0886 -0.1194  0.2238
  331POPC   GL1 4456   9.203   6.082   4.561 -0.1005 -0.0748  0.0584
  331POPC   GL2 4457   8.780   6.109   4.693 -0.1430 -0.1106 -0.1381
  331POPC   C1A 4458   9.364   6.225   4.939  0.0768  0.2856  0.0502
  331POPC   D2A 4459   9.450   6.398   5.374 -0.1104 -0.1650  0.1921
  331POPC   C3A 4460   9.587   6.176   5.621  0.2305  0.1942  0.1149
  331POPC   C4A 4461   9.343   5.798   5.882  0.0986  0.0921  0.1912
  331POPC   C1B 4462   8.621   6.054   5.127  0.1430  0.1341 -0.2635
  331POPC   C2B 4463   8.523   5.935   5.599  0.2468 -0.1275 -0.0402
  331POPC   C3B 4464   8.815   5.668   5.839 -0.4555 -0.3600 -0.1593
  331POPC   C4B 4465   9.004   5.446   6.229 -0.1050 -0.0419  0.1371
  332POPC   NC3 4466   5.481  10.228   4.789 -0.0266 -0.1075  0.1182
  332POPC   PO4 4467   5.170  10.567   4.784 -0.2885  0.2664 -0.2568
  332POPC   GL1 4468   5.358  10.582   5.184 -0.2507  0.0227  0.0351
  332POPC   GL2 4469   5.283  10.900   5.284  0.3540  0.1134 -0.0101
  332POPC   C1A 4470   5.408  10.477   5.685  0.2308  0.1634  0.3502
  332POPC   D2A 4471   5.404  10.315   6.070 -0.1860 -0.1977  0.1880
  332POPC   C3A 4472   5.399  10.485   6.385 -0.0390  0.0451 -0.1540
  332POPC   C4A 4473   5.418  10.835   6.523 -0.0278 -0.0786 -0.1351
  332POPC   C1B 4474   5.496  10.970   5.660  0.2436  0.1667  0.1504
  332POPC   C2B 4475   5.641  10.777   6.051  0.3158 -0.2213 -0.2173
  332POPC   C3B 4476   5.943  10.720   6.453 -0.0828  0.0780 -0.0223
  332POPC   C4B 4477   6.040  10.956   6.889 -0.0386  0.1179  0.4270
  333POPC   NC3 4478   5.550   9.426   4.751 -0.2350  0.1701 -0.0029
  333POPC   PO4 4479   5.766   9.812   4.664 -0.2889  0.0417  0.2346
  333POPC   GL1 4480   5.861   9.663   5.179 -0.0911 -0.3646 -0.3820
  333POPC   GL2 4481   6.214   9.558   5.016  0.0037 -0.2560  0.0026
  333POPC   C1A 4482   5.884   9.868   5.657  0.1974 -0.0426 -0.0348
  333POPC   D2A 4483   5.957   9.797   6.095 -0.0657  0.1739  0.0787
  333POPC   C3A 4484   6.289   9.999   6.240  0.2340  0.0813  0.2102
  333POPC   C4A 4485   6.316  10.393   6.368 -0.1585 -0.1073  0.3029
  333POPC   C1B 4486   6.215   9.304   5.348 -0.2095 -0.5644  0.0043
  333POPC   C2B 4487   6.448   9.198   5.630 -0.0424  0.0484 -0.3521
  333POPC   C3B 4488   6.395   8.912   5.980 -0.0172  0.0551 -0.2235
  333POPC   C4B 4489   6.231   8.795   6.341  0.1532 -0.1893 -0.2757
  334POPC   NC3 4490   0.759   4.844   4.056 -0.2454 -0.0444 -0.1576
  334POPC   PO4 4491   1.146   4.680   3.922 -0.0372 -0.2109  0.0529
  334POPC   GL1 4492   1.242   4.921   4.264  0.1818 -0.0720 -0.0134
  334POPC   GL2 4493   1.243   5.261   4.148 -0.0775  0.1151 -0.1237
  334POPC   C1A 4494   1.494   5.156   4.577 -0.2747  0.0881  0.1659
  334POPC   D2A 4495   1.469   5.422   4.876  0.1389  0.3657 -0.2880
  334POPC   C3A 4496   1.473   5.832   4.959 -0.1871 -0.1820 -0.2041
  334POPC   C4A 4497   1.407   6.303   5.052  0.0683  0.1429  0.2723
  334POPC   C1B 4498   1.033   5.468   4.431  0.0322  0.1485  0.1871
  334POPC   C2B 4499   0.925   5.617   4.872 -0.3048  0.1824  0.0141
  334POPC   C3B 4500   0.599   5.619   5.312 -0.0318  0.2807  0.0310
  334POPC   C4B 4501   0.339   5.350   5.377 -0.2020 -0.0869 -0.1273
  335POPC   NC3 4502   9.187   0.578   5.056  0.0668 -0.0609 -0.1337
  335POPC   PO4 4503   8.885   0.419   4.891  0.3284 -0.3354 -0.0909
  335POPC   GL1 4504   8.683   0.580   5.301 -0.0830 -0.0315  0.0662
  335POPC   GL2 4505   8.793   0.199   5.361  0.1246  0.0426 -0.1114
  335POPC   C1A 4506   8.613   0.893   5.634 -0.1003 -0.0448 -0.0196
  335POPC   D2A 4507   8.809   0.941   6.118  0.2750 -0.2479  0.0172
  335POPC   C3A 4508   8.863   0.592   6.397  0.1675  0.2059  0.0351
  335POPC   C4A 4509   9.098   0.321   6.695  0.0089  0.1278  0.1320
  335POPC   C1B 4510   8.685   0.016   5.703 -0.2100 -0.2953 -0.0406
  335POPC   C2B 4511   8.270   0.057   5.845  0.3833  0.1942  0.1481
  335POPC   C3B 4512   8.135  -0.292   6.011  0.3022  0.1601 -0.0604
  335POPC   C4B 4513   7.684  -0.617   6.074  0.0341 -0.1768 -0.0797
  336POPC   NC3 4514   5.071   7.756   5.046 -0.0874 -0.1186 -0.0021
  336POPC   PO4 4515   4.973   8.133   4.804  0.1084  0.0585  0.0856
  336POPC   GL1 4516   4.729   8.092   5.245 -0.0264 -0.0891 -0.1591
  336POPC   GL2 4517   4.425   8.171   5.229 -0.3413  0.0005 -0.4569
  336POPC   C1A 4518   4.719   8.143   5.691  0.2298 -0.1774  0.1493
  336POPC   D2A 4519   4.983   7.991   6.025 -0.0891 -0.0715 -0.2147
  336POPC   C3A 4520   4.763   7.668   6.331 -0.1941  0.2160  0.1271
  336POPC   C4A 4521   4.682   7.438   6.603  0.4375  0.1739  0.2341
  336POPC   C1B 4522   4.207   8.091   5.668 -0.1267  0.0043  0.0143
  336POPC   C2B 4523   4.362   7.811   5.904  0.0506  0.0380 -0.0756
  336POPC   C3B 4524   4.251   7.681   6.303  0.0478  0.0961  0.2796
  336POPC   C4B 4525   4.181   7.358   6.520  0.1753  0.0226  0.0919
  337POPC   NC3 4526   5.341   2.909   4.499  0.0766  0.0599  0.2906
  337POPC   PO4 4527   4.993   2.720   4.527 -0.0933 -0.4350 -0.0705
  337POPC   GL1 4528   5.049   2.897   4.927 -0.2378  0.2562 -0.1368
  337POPC   GL2 4529   5.408   2.712   4.959  0.1302 -0.0484 -0.0132
  337POPC   C1A 4530   4.919   3.108   5.281  0.0895  0.1798  0.1285
  337POPC   D2A 4531   4.732   3.458   5.489  0.0725 -0.3842 -0.0548
  337POPC   C3A 4532   4.580   3.861   5.436 -0.2015 -0.2047 -0.1954
  337POPC   C4A 4533   4.828   4.322   5.253  0.1110  0.0487  0.4133
  337POPC   C1B 4534   5.344   2.794   5.361 -0.0098 -0.1290 -0.0312
  337POPC   C2B 4535   5.113   2.904   5.718  0.2255  0.0314 -0.1199
  337POPC   C3B 4536   4.831   2.998   6.087  0.0253 -0.0037  0.1121
  337POPC   C4B 4537   4.612   3.362   6.350  0.1175  0.1831 -0.4745
  338W        W 4538   6.429   9.831  10.924 -0.2851  0.0099  0.0923
  339W        W 4539   2.265   7.256  11.896  0.1589 -0.2374 -0.2609
  340W        W 4540   9.006   5.179   3.151  0.2008 -0.1508  0.1415
  341W        W 4541   4.195   3.488  11.000  0.0619 -0.0512 -0.4704
  342W        W 4542   2.968   0.712   9.365 -0.2303  0.0604 -0.2160
  343W        W 4543  10.173   5.451  11.542 -0.1978 -0.3676  0.1057
  344W        W 4544   7.066  10.003   9.995 -0.1273 -0.0099  0.1392
  345W        W 4545   0.057   4.851  10.798 -0.0747  0.1488 -0.2331
  346W        W 4546   8.712   7.114   2.986 -0.2700  0.0270  0.4556
  347W        W 4547   4.615   5.656  10.648  0.0289  0.1927  0.2585
  348W        W 4548   2.493   8.170  12.807  0.3335 -0.3629  0.0529
  349W        W 4549  10.205   5.443   1.390  0.1220 -0.4781 -0.1609
  350W        W 4550   4.272   5.844   0.124  0.1856 -0.0074 -0.1294
  351W        W 4551   7.313   9.643  10.865  0.1786 -0.2228  0.0184
  352W        W 4552   1.334  10.504   4.696 -0.1316  0.1574  0.0315
  353W        W 4553   9.113   8.744   0.167 -0.1364  0.1073  0.1612
  354W        W 4554   5.928   0.898   2.208  0.0970  0.2987  0.0251
  355W        W 4555   4.860   0.014   5.411 -0.0299 -0.0355 -0.1700
  356W        W 4556   1.479   6.038  10.248  0.0532  0.0777 -0.0997
  357W        W 4557   2.599   1.256  10.570 -0.1094 -0.2120 -0.0547
  358W        W 4558  10.033   2.841   0.985  0.3598 -0.0602 -0.2627
  359W        W 4559   7.798   8.410   0.897  0.0224  0.4245 -0.2352
  360W        W 4560   4.172   5.842  12.885  0.3190 -0.1317 -0.0566
  361W        W 4561   6.344   1.572  13.033  0.2291  0.0585 -0.0977
  362W        W 4562   1.262   7.989  11.179  0.1390 -0.0773 -0.2231
  363W        W 4563   9.639  10.511   1.526  0.1276  0.1752 -0.2173
  364W        W 4564   5.594  10.051   4.228  0.0053  0.0541 -0.1351
  365W        W 4565  10.238   9.365   9.778 -0.0234 -0.2305 -0.0861
  366W        W 4566   2.264   8.778   1.528  0.0798 -0.1146 -0.1145
  367W        W 4567   0.056   5.328  10.826 -0.0576  0.2852  0.2218
  368W        W 4568  10.194   0.791   1.626 -0.0304 -0.4025  0.3022
  369W        W 4569   9.690   6.591  13.219 -0.0900  0.0378 -0.0683
  370W        W 4570   4.582   7.611   0.473 -0.0685  0.0400  0.3015
  371W        W 4571   6.837   5.652   3.736 -0.1182  0.2868  0.0972
  372W        W 4572   7.622   8.879   0.081  0.2157 -0.0366  0.1258
  373W        W 4573   1.122   8.714   3.103 -0.3006  0.3447 -0.3483
  374W        W 4574   6.187   6.295  12.379  0.0980 -0.1029  0.0441
  375W        W 4575   1.151   8.249  10.733 -0.1341 -0.0350  0.3224
  376W        W 4576  10.014   4.005   2.098  0.1945 -0.1615 -0.1418
  377W        W 4577   5.498   2.889   9.045 -0.0287  0.0773  0.1340
  378W        W 4578   0.671   0.763  10.372  0.2888  0.1770 -0.0161
  379W        W 4579   6.411   0.383  11.117  0.2220 -0.0076  0.2725
  380W        W 4580   2.260   2.366   0.528  0.1901 -0.0066 -0.2439
  381W        W 4581   5.778   1.531  12.807 -0.0975 -0.0469 -0.2968
  382W        W 4582   6.214   6.212  10.471  0.2205 -0.0882  0.0686
  383W        W 4583   7.527   5.926  10.062  0.2291  0.0754  0.2395
  384W        W 4584   4.056   6.527   1.292 -0.1440  0.3683 -0.0486
  385W        W 4585   5.320   4.968   1.074 -0.2256  0.2553  0.0140
  386W        W 4586   8.779   5.463   9.594  0.2899 -0.0704 -0.1229
  387W        W 4587  10.405   3.214   2.233  0.1683 -0.6963 -0.0723
  388W        W 4588   6.087   9.951  11.530 -0.2705 -0.1268 -0.0062
  389W        W 4589   7.650   5.642   0.106 -0.4262  0.1018  0.5509
  390W        W 4590   7.737   6.848   4.103 -0.1403  0.2471 -0.0308
  391W        W 4591   3.923   0.231  13.339 -0.0935 -0.0750 -0.2957
  392W        W 4592   4.425   5.589  11.651  0.1159 -0.1890 -0.0301
  393W        W 4593   1.648   0.779   9.867 -0.0528  0.1992  0.1060
  394W        W 4594   3.723   0.271   2.842  0.1803 -0.0370 -0.0585
  395W        W 4595   5.106   2.870   1.239 -0.1766 -0.0227 -0.2693
  396W        W 4596   5.533   7.336   0.621  0.1292  0.2357 -0.1877
  397W        W 4597  10.310   4.483   9.678  0.1539 -0.0637 -0.3067
  398W        W 4598   4.120   9.946   1.433 -0.1933 -0.1155 -0.0633
  399W        W 4599   0.908   6.205   0.324  0.0256 -0.1073 -0.2615
  400W        W 4600   5.917   6.479  10.832 -0.0207 -0.1892  0.1137
  401W        W 4601   2.694   2.602   3.962 -0.2588 -0.0562 -0.0460
  402W        W 4602   3.790   9.578   3.938  0.0159  0.1064 -0.2429
  403W        W 4603   8.772   8.535   0.610  0.3067 -0.2767  0.2555
  404W        W 4604   6.711   4.192   0.555  0.0690  0.1384 -0.2550
  405W        W 4605   6.068   3.515  13.173 -0.0657 -0.1258 -0.5037
  406W        W 4606   0.375   0.109   4.119 -0.1913  0.0823  0.0087
  407W        W 4607   6.528   9.478  11.227 -0.1766 -0.1084  0.3010
  408W        W 4608   0.511   9.595   5.184  0.4570  0.0069  0.0375
  409W        W 4609   7.450   0.243   4.519 -0.0373 -0.0183 -0.5763
  410W        W 4610   8.463   7.008  12.872  0.2452  0.0742 -0.3612
  411W        W 4611   4.683   8.964   4.068 -0.0932  0.1843  0.0837
  412W        W 4612   4.129   1.597   1.715  0.3316 -0.2782 -0.0638
  413W        W 4613   7.443   6.182  11.024  0.3349 -0.0025 -0.0717
  414W        W 4614   9.130   3.339  11.992 -0.1751  0.0515  0.0744
  415W        W 4615   2.022   3.115   0.371  0.2411  0.0297  0.0111
  416W        W 4616  10.392   3.571   9.426  0.0270  0.0562 -0.2837
  417W        W 4617   6.656   8.361   3.853 -0.2616  0.0192  0.3825
  418W        W 4618  10.358   5.042  11.797 -0.1120  0.4080  0.1223
  419W        W 4619   4.706  10.011   5.451 -0.0514 -0.1100  0.0688
  420W        W 4620   3.343   6.120  10.229 -0.0096  0.0005 -0.1012
  421W        W 4621   5.231   3.967  13.147 -0.0454  0.0755  0.1013
  422W        W 4622   9.152   9.609   5.397  0.1947  0.2399 -0.0783
  423W        W 4623   0.584   9.131  12.339 -0.0535 -0.2019 -0.1319
  424W        W 4624   3.121   8.506  12.452 -0.0995  0.0686  0.2098
  425W        W 4625   1.123   8.741   4.535 -0.0852 -0.0129  0.1012
  426W        W 4626   0.591   7.762  11.899  0.0917  0.0125  0.0935
  427W        W 4627   8.987   3.699   1.185  0.2966  0.0094  0.1376
  428W        W 4628   0.429   1.158   0.034 -0.1594  0.1323 -0.1598
  429W        W 4629   5.868   4.588   2.371 -0.0048 -0.2335 -0.0252
  430W        W 4630  10.040   4.296  11.887 -0.1190 -0.1910 -0.1693
  431W        W 4631   0.739   2.153   2.474  0.0820 -0.1671  0.4755
  432W        W 4632   7.901   2.147   9.875 -0.2211 -0.0452 -0.0563
  433W        W 4633   2.057   1.459   2.346  0.0145 -0.1438  0.1033
  434W        W 4634   7.365   6.733   4.425  0.2231  0.0872 -0.1109
  435W        W 4635   3.066   3.744  10.874 -0.1015  0.1584 -0.0128
  436W        W 4636   8.319   7.557  10.064 -0.0753  0.1221  0.0767
  437W        W 4637   2.948   9.667   9.783  0.2152 -0.2787  0.1338
  438W        W 4638   9.637   3.151   4.849  0.2205 -0.4166 -0.5478
  439W        W 4639   5.362   1.134  10.405  0.0872 -0.2466  0.0545
  440W        W 4640  10.211   9.851   1.117  0.2557  0.5175  0.3421
  441W        W 4641   6.237   9.232   3.492 -0.1436 -0.1608 -0.2423
  442W        W 4642   4.946  10.151  11.766  0.2847 -0.2616  0.0154
  443W        W 4643   8.182   2.054  12.211 -0.2656 -0.2132  0.1742
  444W        W 4644   3.532   8.326  13.045 -0.3186 -0.4695  0.0970
  445W        W 4645   4.037   1.087   0.530  0.0039  0.1675 -0.0207
  446W        W 4646   8.805   6.516   0.270 -0.0966 -0.2471  0.1652
  447W        W 4647   0.348   3.907   0.174 -0.2277 -0.1222 -0.0438
  448W        W 4648   5.770   1.801   3.597  0.1259  0.1380  0.0693
  449W        W 4649   7.924   5.027   3.374 -0.2683  0.0891 -0.1470
  450W        W 4650   7.018   3.254  10.104 -0.0775  0.1362 -0.1423
  451W        W 4651   3.996  10.273   4.674 -0.1610 -0.0987 -0.0082
  452W        W 4652   9.652   6.307   9.467 -0.2368 -0.2127 -0.1393
  453W        W 4653   0.223   5.343  12.698  0.0652  0.0877  0.1398
  454W        W 4654   9.452   4.899   8.948 -0.2679  0.1103 -0.1313
  455W        W 4655   8.202   1.075  10.498 -0.1436  0.0953 -0.0548
  456W        W 4656   5.737   9.843   2.101  0.1044  0.0123 -0.1111
  457W        W 4657   8.472   0.506  12.954  0.2482 -0.2351 -0.0610
  458W        W 4658   1.572   9.376   8.848 -0.1258  0.1029 -0.0553
  459W        W 4659   3.888   6.553  12.378  0.1482  0.0599 -0.3498
  460W        W 4660   8.761   7.266  10.381 -0.0656  0.1891  0.3409
  461W        W 4661   9.018   9.969   2.991  0.1749 -0.1577  0.1043
  462W        W 4662   4.997   0.108  12.079  0.1921 -0.0902 -0.0982
  463W        W 4663   0.848   6.498  12.354  0.1849  0.0822  0.1653
  464W        W 4664   5.870   2.610   3.353 -0.0271 -0.1107  0.0049
  465W        W 4665   4.016   1.018  12.298  0.0161  0.0184  0.2104
  466W        W 4666   6.734   6.950  12.181  0.3056  0.2337 -0.0028
  467W        W 4667   4.729   8.643   2.599 -0.0884 -0.1734 -0.3399
  468W        W 4668   7.557   9.946  12.261 -0.0457 -0.0689  0.0717
  469W        W 4669   9.126   4.125  12.934  0.1873 -0.0213  0.2070
  470W        W 4670   3.364   0.954   9.212  0.0434  0.1559 -0.1031
  471W        W 4671   0.723   2.049   5.126  0.1227  0.2333  0.3317
  472W        W 4672   0.600   6.805  10.538 -0.1541 -0.3559 -0.0130
  473W        W 4673   5.592   8.714   0.507 -0.0053 -0.0509  0.3777
  474W        W 4674   5.494   3.638  11.397  0.1950 -0.0505 -0.0112
  475W        W 4675   2.805   2.187   3.382  0.2849 -0.2183  0.2712
  476W        W 4676   2.814   6.209   2.743 -0.1508 -0.1239  0.1827
  477W        W 4677   3.160   6.114  10.682  0.0466 -0.0184 -0.3556
  478W        W 4678   8.140   0.566  10.688  0.1351 -0.1454  0.0226
  479W        W 4679   5.064   0.673   9.948 -0.2662  0.0356 -0.1587
  480W        W 4680   0.799   6.024   9.418 -0.1292 -0.3509  0.1754
  481W        W 4681   2.031   7.481  12.240  0.3752  0.0841 -0.0315
  482W        W 4682   7.863   5.437   4.148 -0.0897 -0.2471  0.1085
  483W        W 4683   4.823   7.294   0.002 -0.3422  0.2310 -0.0152
  484W        W 4684   8.947   0.667  13.105 -0.2064  0.2834 -0.0423
  485W        W 4685   4.851   5.529   2.364  0.2335 -0.1832 -0.0374
  486W        W 4686   4.664   0.625  12.491 -0.4199 -0.2091  0.1404
  487W        W 4687   4.055   1.315   3.618 -0.2187 -0.2604  0.0820
  488W        W 4688   3.955   1.540  12.214  0.2109  0.1683  0.0477
  489W        W 4689   5.115   0.182   9.744  0.1199 -0.4014  0.2569
  490W        W 4690   3.659   2.216   0.071 -0.3464  0.0428 -0.1607
  491W        W 4691   4.975   6.392  12.677 -0.0489  0.1996  0.0425
  492W        W 4692   7.884   8.904   0.972  0.2342 -0.0398 -0.2460
  493W        W 4693   6.729   1.593  11.656 -0.1264 -0.2103  0.0315
  494W        W 4694   4.441   0.587   5.622 -0.0829  0.0946 -0.1043
  495W        W 4695   7.854   9.697   1.788 -0.0692  0.1548 -0.1570
  496W        W 4696   6.965   1.901   0.750  0.0426  0.1243 -0.0535
  497W        W 4697   5.770   2.547  11.538  0.3033 -0.1388  0.3545
  498W        W 4698   6.604   9.060   3.777 -0.0597  0.0332  0.0820
  499W        W 4699   5.404   4.716  11.627  0.2259 -0.0053 -0.2822
  500W        W 4700   6.991   6.152  11.496  0.3338 -0.0046  0.0600
  501W        W 4701   5.939   6.594  10.160  0.0958  0.0048 -0.3191
  502W        W 4702   5.359   7.294   2.149 -0.1381 -0.2321 -0.0434
  503W        W 4703   6.739   7.929   1.154 -0.1316 -0.2374 -0.1877
  504W        W 4704   7.146   6.051   2.727  0.2366  0.0587  0.1311
  505W        W 4705   8.746   8.111   9.363 -0.0743 -0.1767  0.1472
  506W        W 4706   3.263   0.498  12.379  0.1774 -0.0316  0.2361
  507W        W 4707   4.487   6.936   2.349  0.4222  0.0776  0.1230
  508W        W 4708   5.181   0.403   0.588 -0.1174  0.1346 -0.2096
  509W        W 4709   8.678   5.926   2.770 -0.0498  0.1487  0.1109
  510W        W 4710   8.519   2.093  12.565 -0.0428 -0.5112  0.0563
  511W        W 4711   8.143   4.128   9.936  0.4610 -0.0196  0.0100
  512W        W 4712   0.227   9.133   0.480 -0.2398 -0.2031  0.1688
  513W        W 4713   8.345   5.649   4.153  0.1575 -0.1766  0.1003
  514W        W 4714   5.308   3.515   3.416 -0.1062  0.1602 -0.3887
  515W        W 4715   6.602   6.508   2.229  0.2331  0.2164 -0.0363
  516W        W 4716   4.367   4.541   2.887 -0.1614 -0.0129 -0.1565
  517W        W 4717   4.773   7.037   4.213  0.0163  0.0374  0.1462
  518W        W 4718   0.063   4.317   2.660  0.2765 -0.1399 -0.0251
  519W        W 4719   9.050   2.206  11.029  0.0336 -0.3879 -0.0209
  520W        W 4720   2.982   0.828  12.090  0.2241  0.4779 -0.0194
  521W        W 4721   9.972   3.737   1.123  0.0327  0.1348  0.0397
  522W        W 4722   7.223   2.965   8.760  0.0411  0.0637 -0.4218
  523W        W 4723   4.158   6.825  10.247 -0.2391 -0.0593 -0.0916
  524W        W 4724   4.918   6.191   0.576 -0.0526  0.1206  0.2503
  525W        W 4725   5.040   0.815  12.714  0.1913  0.1516  0.3741
  526W        W 4726   8.378   4.691  10.918 -0.1143 -0.1077  0.3457
  527W        W 4727   2.867   8.631   0.821  0.1097 -0.0053  0.3255
  528W        W 4728   3.433   6.668   1.878 -0.0004  0.0331  0.0455
  529W        W 4729   7.144   3.647  13.129 -0.1999 -0.2624 -0.0099
  530W        W 4730   8.616   0.917   9.063  0.2251 -0.0573 -0.1862
  531W        W 4731   6.508   6.294  11.400  0.0794  0.2345  0.2391
  532W        W 4732   2.652   1.644  12.179 -0.0496 -0.1872 -0.0686
  533W        W 4733   3.209   2.898   1.752  0.0587  0.1646 -0.1650
  534W        W 4734   2.568   1.758  10.781 -0.1692 -0.0141  0.0370
  535W        W 4735   5.868   3.891   9.103  0.2056 -0.3057  0.1025
  536W        W 4736   3.714  10.315  10.871  0.4333  0.2388  0.1120
  537W        W 4737   5.462   5.075   0.600 -0.1722  0.2417 -0.5176
  538W        W 4738   0.284   6.935  11.531  0.1906 -0.1654 -0.1909
  539W        W 4739   2.344   3.339   2.796  0.0339  0.0287  0.1180
  540W        W 4740   6.141   6.182   9.321  0.3494  0.1064 -0.0709
  541W        W 4741   5.240   5.644   2.936  0.0799  0.0143 -0.1055
  542W        W 4742   7.977   9.488  12.867  0.1579  0.0032  0.0485
  543W        W 4743   5.071   4.103   4.218  0.1593  0.2094 -0.0716
  544W        W 4744   3.152   3.190   9.143 -0.0517 -0.2281  0.4043
  545W        W 4745   0.521   5.373  10.245 -0.0040 -0.1293  0.2476
  546W        W 4746   8.930   0.309  11.100  0.0036  0.2506 -0.0339
  547W        W 4747   6.870   9.343   9.628  0.1076 -0.0022  0.0111
  548W        W 4748   4.488   2.345   3.593  0.1460  0.1807 -0.1435
  549W        W 4749   4.170   2.365  13.121 -0.0056 -0.1267  0.2828
  550W        W 4750   3.024   3.472   0.800  0.1729  0.0751  0.1469
  551W        W 4751   9.285   9.855  10.961  0.0654  0.0504  0.1274
  552W        W 4752   8.290   9.050  10.368  0.0493  0.4872  0.1150
  553W        W 4753   7.053   2.170   3.375 -0.0888 -0.0174  0.1991
  554W        W 4754   7.842   5.276  12.572 -0.0429  0.0168 -0.0082
  555W        W 4755   0.843   4.035  12.669  0.1581  0.1295  0.3976
  556W        W 4756   2.382   3.033   3.220  0.3366 -0.0795 -0.1372
  557W        W 4757   7.803   9.665   3.710  0.0712 -0.1275 -0.0617
  558W        W 4758   0.968   5.303  10.997 -0.0703  0.1140 -0.0728
  559W        W 4759   1.212  10.499  12.322 -0.4776  0.1774  0.0741
  560W        W 4760   1.123   6.264   3.498 -0.0472 -0.0737 -0.2634
  561W        W 4761   4.830  10.227  12.815 -0.0009  0.1068 -0.3850
  562W        W 4762   7.062   9.717   1.766  0.2799 -0.1599  0.3147
  563W        W 4763   1.243   2.003   3.187  0.1840  0.1171  0.1443
  564W        W 4764   7.962   9.742   9.957 -0.0367 -0.1384 -0.1258
  565W        W 4765   5.015  10.158  12.252 -0.0976  0.1129 -0.2006
  566W        W 4766   2.420   1.560   1.604 -0.3263  0.0198 -0.0880
  567W        W 4767   5.832   7.908   3.903 -0.1791  0.0610  0.2107
  568W        W 4768   9.581   3.250   0.138 -0.1845  0.0146 -0.2231
  569W        W 4769   8.135  10.263   9.997 -0.2325 -0.2641 -0.0658
  570W        W 4770   2.143   1.030  12.860  0.3315  0.2550 -0.3334
  571W        W 4771   5.940   0.188   4.299 -0.2260 -0.0402 -0.0525
  572W        W 4772   4.885   7.935  11.385 -0.0261  0.1525  0.0748
  573W        W 4773   6.261   3.802   9.523 -0.0267  0.3319 -0.0809
  574W        W 4774  10.017   8.883  12.384 -0.1127  0.1967  0.0396
  575W        W 4775   3.290   3.023  10.295  0.0425 -0.0892 -0.0217
  576W        W 4776   2.961   8.679  11.416  0.0293  0.1737 -0.1550
  577W        W 4777   0.930   9.820   9.575  0.1680  0.2801 -0.2344
  578W        W 4778   1.665   8.219   9.826  0.1297 -0.4641  0.3010
  579W        W 4779   6.504   8.652   0.867  0.0688  0.1830 -0.1541
  580W        W 4780   3.314   9.982  11.690 -0.1075 -0.3139  0.2000
  581W        W 4781   5.090   4.804  10.518  0.0668 -0.0121  0.0946
  582W        W 4782   0.305   0.131  11.855 -0.2465  0.4589 -0.1217
  583W        W 4783   5.054   5.331   1.307  0.2084  0.2511  0.0298
  584W        W 4784   4.805   6.884   1.126  0.1270 -0.1997 -0.1892
  585W        W 4785   6.704   5.977  10.527  0.0987 -0.0645  0.2079
  586W        W 4786   6.915   9.026   9.994  0.1940  0.0613  0.2156
  587W        W 4787   0.602  10.485   0.387 -0.3688  0.4609 -0.1302
  588W        W 4788   5.975   6.892   4.004  0.1708  0.2463 -0.2832
  589W        W 4789   9.131   0.420  10.703  0.2509 -0.1730 -0.2521
  590W        W 4790   3.848  10.302   9.176 -0.1895 -0.0474  0.2531
  591W        W 4791   4.331   0.637  10.709 -0.0353 -0.0487  0.0499
  592W        W 4792   9.503   9.134   8.912  0.0281 -0.1165  0.2122
  593W        W 4793   3.292   7.725   9.390 -0.1040  0.0350 -0.0398
  594W        W 4794   2.320   2.205  11.043 -0.1023  0.1886 -0.0490
  595W        W 4795   8.348   9.892   4.095 -0.1656 -0.3338 -0.4822
  596W        W 4796   2.374   6.014  12.209 -0.0969  0.1684  0.1605
  597W        W 4797   7.824   0.896  11.429  0.1402  0.0933  0.1230
  598W        W 4798   3.554   0.857  12.625  0.0070 -0.1182  0.2938
  599W        W 4799   0.958   0.918   9.929  0.1074 -0.3429  0.1706
  600W        W 4800   1.505   5.666   1.945 -0.1536  0.1679  0.1418
  601W        W 4801   4.177   7.713  11.988 -0.0137  0.0257 -0.1017
  602W        W 4802   2.493   2.892   1.241 -0.1995  0.0554  0.0596
  603W        W 4803   2.486   3.199  10.866  0.0814  0.2387 -0.2199
  604W        W 4804   5.074   1.457   0.554 -0.0617 -0.1971 -0.2006
  605W        W 4805   2.981   7.989  10.884  0.1837 -0.1699  0.0696
  606W        W 4806   3.887   0.880   4.626  0.0477 -0.2797 -0.2158
  607W        W 4807   2.618   2.599  10.909 -0.3526  0.0859 -0.0180
  608W        W 4808   0.529   2.854   4.644 -0.0075  0.0748  0.0387
  609W        W 4809   3.152   6.122  12.778 -0.4839  0.0168 -0.1982
  610W        W 4810   2.105   0.881  11.599  0.1991 -0.0397  0.3041
  611W        W 4811   4.572   8.183   2.215  0.6016 -0.0693  0.0284
  612W        W 4812   7.582  10.152   0.280 -0.1300  0.1624 -0.0991
  613W        W 4813   1.267  10.379   2.960 -0.1253 -0.5390  0.1343
  614W        W 4814   2.200   8.622   3.017 -0.1257  0.3948  0.1724
  615W        W 4815   0.365   7.933   0.473 -0.2507 -0.0439 -0.1366
  616W        W 4816   1.444   0.502   2.362 -0.0774  0.1141 -0.4104
  617W        W 4817   1.109  10.259   0.409 -0.1673  0.1557  0.1426
  618W        W 4818   8.634   4.909  13.099  0.0823 -0.0799  0.1403
  619W        W 4819   3.555   2.406   0.596  0.4373  0.1053 -0.2037
  620W        W 4820   7.719   8.780   4.736  0.2840  0.1463 -0.0016
  621W        W 4821   1.209   6.370   1.645  0.0052  0.1899  0.0218
  622W        W 4822   7.900   2.709   4.983 -0.2226  0.1208  0.2635
  623W        W 4823   8.594   2.756   4.099  0.1058  0.0352  0.0211
  624W        W 4824   7.961   0.461  11.271  0.1650  0.2192  0.2067
  625W        W 4825   1.937   1.791   1.943 -0.5632  0.0019 -0.1334
  626W        W 4826   6.334   0.858   9.612  0.1441 -0.0331  0.3202
  627W        W 4827   3.292   6.820  13.226  0.3843 -0.1667  0.0234
  628W        W 4828   6.940   2.688   0.155  0.0841  0.1076  0.0685
  629W        W 4829   3.561   8.683  12.642 -0.3484  0.1685  0.1258
  630W        W 4830   8.852   5.344  12.138 -0.3966  0.3186  0.1897
  631W        W 4831   7.785   0.543   0.178  0.0560  0.1362  0.0047
  632W        W 4832   7.847   7.318   1.888 -0.1099 -0.3566 -0.2233
  633W        W 4833   5.957   6.972   2.943  0.1400 -0.1687 -0.2009
  634W        W 4834   2.552   8.355  10.710 -0.0870  0.2619  0.1375
  635W        W 4835   9.258   7.681   4.072  0.0211  0.1593  0.1177
  636W        W 4836  10.485   0.512   2.436  0.1810 -0.0480 -0.0383
  637W        W 4837   5.392   6.674  10.701 -0.0559  0.3190  0.1116
  638W        W 4838   3.251   5.739   0.779  0.3401 -0.2865  0.1201
  639W        W 4839   8.252   6.528   3.564  0.1584  0.0690 -0.0967
  640W        W 4840   0.726   6.119  12.028 -0.0509 -0.1119  0.2253
  641W        W 4841   5.359   5.989   9.935 -0.2163  0.0652 -0.1839
  642W        W 4842   1.083   4.678   2.049 -0.2694  0.0688  0.0703
  643W        W 4843   2.207   0.575  10.041  0.3739  0.3102  0.2841
  644W        W 4844   0.735   8.323   2.126  0.0265  0.0853 -0.4134
  645W        W 4845   4.196   1.600   9.592 -0.1571  0.2364 -0.0759
  646W        W 4846  10.506   3.739   1.285  0.2244 -0.0997 -0.0443
  647W        W 4847   3.040   7.614   3.256  0.0899 -0.0922 -0.2575
  648W        W 4848   2.936   9.319   2.017 -0.0324 -0.1645  0.3328
  649W        W 4849   9.761   6.447   2.842  0.1989  0.3645 -0.1641
  650W        W 4850   3.483   6.537   3.646 -0.1493  0.2383  0.3143
  651W        W 4851   4.282   8.189   2.968 -0.0731 -0.3639  0.0041
  652W        W 4852   5.903   6.301   9.783  0.0307  0.0785  0.3230
  653W        W 4853   7.473   3.490   9.965  0.3126 -0.1105  0.2253
  654W        W 4854   5.701   3.656  10.936  0.1465 -0.2923  0.1610
  655W        W 4855   7.532   7.339   8.693  0.0702  0.2661 -0.0171
  656W        W 4856   2.030   0.505   1.268  0.0269  0.0209  0.0279
  657W        W 4857   0.695   6.074  10.429  0.1048 -0.2711  0.0140
  658W        W 4858   6.472   4.352   3.834 -0.4730 -0.0481  0.1471
  659W        W 4859   9.071   8.372   8.399 -0.3280 -0.1318 -0.2704
  660W        W 4860   9.849   0.313   2.271  0.1092 -0.2385 -0.2086
  661W        W 4861   7.240   9.239   1.608  0.0488 -0.1436  0.1978
  662W        W 4862   4.427   9.595   5.257  0.0821 -0.0558 -0.1556
  663W        W 4863   4.080   3.032   1.297 -0.0688  0.1814  0.0267
  664W        W 4864   0.627   0.635   3.532 -0.0211  0.0258 -0.1219
  665W        W 4865   9.813   5.463  10.568  0.0447 -0.1319  0.3142
  666W        W 4866   1.806   5.277  10.931 -0.0835  0.1283  0.0537
  667W        W 4867   9.204   9.547  10.171 -0.1306  0.2143 -0.1105
  668W        W 4868   3.990   6.735   4.521  0.1489 -0.0760 -0.0349
  669W        W 4869   1.310   9.862   1.536  0.1858 -0.1445  0.0861
  670W        W 4870   1.060   2.596  11.586  0.2487  0.1959  0.0318
  671W        W 4871   6.025   5.075   2.757 -0.0263 -0.1724 -0.1109
  672W        W 4872   3.301   1.390   0.109 -0.2602 -0.3731  0.2244
  673W        W 4873   6.431   9.799  10.415 -0.1548  0.0170 -0.0064
  674W        W 4874   7.401   2.769   1.511 -0.1496  0.1761  0.0961
  675W        W 4875   8.197   0.693  12.450  0.0094  0.1664 -0.0878
  676W        W 4876   7.211  10.132   4.644  0.3692 -0.0047  0.0260
  677W        W 4877   0.957   1.658   4.412  0.0742  0.0721 -0.1213
  678W        W 4878   5.584   0.398   4.075  0.1662 -0.0416  0.1625
  679W        W 4879   8.851   8.135  13.199  0.2201  0.1857  0.1951
  680W        W 4880   8.357   5.958  10.566 -0.3138  0.0173  0.1756
  681W        W 4881   7.117   2.461  10.791  0.1912  0.1674  0.1422
  682W        W 4882   5.437   6.440   0.576 -0.2032  0.0188 -0.1917
  683W        W 4883   8.865   7.697   0.350 -0.3373  0.2927 -0.1438
  684W        W 4884   6.527   4.544   0.814 -0.1244 -0.0816  0.0419
  685W        W 4885   3.927   3.176   1.845 -0.1433 -0.1843  0.0859
  686W        W 4886   3.066   1.096   2.189 -0.4004 -0.2456  0.2452
  687W        W 4887   9.498  10.225   8.165 -0.1156 -0.0949  0.2507
  688W        W 4888   9.839   5.930   0.616  0.1706 -0.0310 -0.2361
  689W        W 4889   9.979   7.765   9.356  0.1723  0.0269 -0.0542
  690W        W 4890   6.668   1.462   0.648 -0.0912  0.0210 -0.1039
  691W        W 4891   9.321   8.769   2.840 -0.0783 -0.2636  0.1407
  692W        W 4892   6.384   9.924   3.828 -0.3183 -0.1671 -0.2159
  693W        W 4893   5.915   6.070   2.764 -0.3252 -0.1249  0.5517
  694W        W 4894   7.821   2.899  12.045 -0.4101 -0.3047  0.3487
  695W        W 4895   2.292   7.054   9.890  0.0837  0.0340  0.1344
  696W        W 4896   7.366   6.792   9.987 -0.2689  0.0430 -0.0376
  697W        W 4897   4.914   0.466   4.719 -0.1548  0.3840 -0.3216
  698W        W 4898   0.000   1.319   3.254 -0.1230 -0.0916 -0.0133
  699W        W 4899   2.615   8.643  12.627 -0.0858 -0.2268 -0.0863
  700W        W 4900   8.986   6.962   0.543 -0.2102  0.1193  0.0798
  701W        W 4901   1.640   6.005  12.731  0.0839 -0.1750 -0.1610
  702W        W 4902   3.373   4.547  13.083  0.0016  0.0533  0.2240
  703W        W 4903   9.511   3.949  12.621 -0.0168 -0.2231  0.0062
  704W        W 4904   9.887   0.929   4.523 -0.1918  0.1645  0.0478
  705W        W 4905   7.919   4.431   9.597  0.0778 -0.2104 -0.0321
  706W        W 4906  10.241   1.875  11.081  0.2545 -0.1471 -0.3814
  707W        W 4907   1.062   1.284  11.830  0.1554  0.2060  0.3599
  708W        W 4908   4.807   0.087   9.091  0.2289  0.1608  0.0366
  709W        W 4909   8.457   2.452   2.247  0.2482 -0.1328 -0.0660
  710W        W 4910  10.425  10.464   2.937 -0.4120  0.3052 -0.1872
  711W        W 4911   7.953   9.163  13.261 -0.1075 -0.1914 -0.1209
  712W        W 4912   9.227   8.135   9.577  0.1031  0.1918 -0.1309
  713W        W 4913   5.794   1.537   2.200 -0.0708 -0.0954 -0.0477
  714W        W 4914   8.469   4.694  11.456  0.0574 -0.1755 -0.0567
  715W        W 4915   0.903   3.001  12.847 -0.0717 -0.3329 -0.1381
  716W        W 4916   0.004   7.418   1.219 -0.2029  0.1560 -0.0274
  717W        W 4917   8.076   4.891   8.352 -0.2332 -0.0025  0.2236
  718W        W 4918   0.842   8.917   4.171  0.1407  0.2148  0.3267
  719W        W 4919   7.646   0.169   2.041 -0.3742 -0.0241 -0.1771
  720W        W 4920   9.617   2.992  12.073  0.0836 -0.2581 -0.1008
  721W        W 4921   9.153   3.425   1.633  0.0601 -0.3143 -0.0069
  722W        W 4922   4.020   3.792   0.832 -0.1365  0.3431 -0.1659
  723W        W 4923   8.155   2.393   4.110  0.0700 -0.2115 -0.0396
  724W        W 4924   9.541  10.412   2.228  0.0560 -0.1057  0.2592
  725W        W 4925   9.323   2.334   0.961  0.0756 -0.3462  0.1219
  726W        W 4926   4.358   6.016  11.115 -0.1899  0.2001  0.0064
  727W        W 4927   9.185  10.438   3.151  0.2421 -0.1409  0.0688
  728W        W 4928   4.401   2.584   1.348 -0.1086  0.1509  0.0736
  729W        W 4929   8.609   1.461  10.596  0.3693  0.2557 -0.0722
  730W        W 4930   2.363   5.253   1.680 -0.4928 -0.0199 -0.0563
  731W        W 4931   6.253   0.323   1.548  0.2199  0.0856 -0.1947
  732W        W 4932   4.858   9.466   9.056 -0.1052 -0.0656  0.0609
  733W        W 4933   7.756   5.064  11.759 -0.1128  0.0966  0.0230
  734W        W 4934   0.558   7.418   8.975  0.0924 -0.1294  0.1653
  735W        W 4935   8.267   3.410  12.430  0.0062 -0.1155 -0.0370
  736W        W 4936  10.204   7.117  10.430 -0.2177  0.1288 -0.0269
  737W        W 4937   9.929   5.632   3.354 -0.4561  0.0622 -0.3763
  738W        W 4938   9.966   5.712   2.467 -0.1315 -0.1474  0.3021
  739W        W 4939   0.609   7.531  11.414 -0.1758  0.1577 -0.1189
  740W        W 4940   6.080  10.218   4.078 -0.2283 -0.1045 -0.0740
  741W        W 4941   8.365   6.111   4.417 -0.0205  0.4181 -0.2593
  742W        W 4942   9.146   3.735   4.283  0.3243 -0.3072  0.0095
  743W        W 4943   9.976   7.878  11.499 -0.1375  0.0425  0.1340
  744W        W 4944   0.259   8.147   1.884 -0.0346  0.2623  0.0395
  745W        W 4945   2.462   7.772  12.513  0.0901 -0.0256  0.1668
  746W        W 4946   4.346   5.209   3.994  0.4220 -0.1682 -0.0914
  747W        W 4947   1.873   1.349  11.906 -0.0000  0.2705  0.3387
  748W        W 4948   1.323   8.893   2.652  0.0056 -0.2315  0.0912
  749W        W 4949   9.785   7.986  11.924 -0.0690 -0.1293 -0.2819
  750W        W 4950   6.134   3.267  11.001 -0.0462  0.1884 -0.2035
  751W        W 4951   9.575   6.330   0.742  0.0984  0.0113  0.0228
  752W        W 4952   7.945   8.103   1.791 -0.1405  0.0334 -0.2508
  753W        W 4953   4.505   8.605   0.365 -0.0504  0.3246  0.0643
  754W        W 4954   9.475   3.615   2.740 -0.1524 -0.2174 -0.2173
  755W        W 4955   3.148   4.849   1.093  0.2942  0.0615 -0.1603
  756W        W 4956   8.033   7.518  13.331  0.0394 -0.3893  0.1796
  757W        W 4957   7.902   4.046   2.825 -0.1464 -0.0622 -0.0225
  758W        W 4958   1.755   6.548  10.461 -0.1475  0.1547  0.0787
  759W        W 4959   9.036   8.541   2.523  0.1054  0.0500  0.0895
  760W        W 4960  10.263   9.112  11.662 -0.2377  0.1214  0.1213
  761W        W 4961   5.378   6.745   9.235  0.0149  0.1699 -0.0433
  762W        W 4962   7.961   3.036   2.394 -0.2157  0.1976  0.3202
  763W        W 4963   4.461   5.639   4.174 -0.0596 -0.4050 -0.1005
  764W        W 4964   3.517   6.584  12.014 -0.1165  0.0370  0.0262
  765W        W 4965   1.680   8.394  12.642  0.0828  0.1208  0.0755
  766W        W 4966   5.317   6.152  12.951  0.2775 -0.0924 -0.1856
  767W        W 4967   4.885   4.942   3.934  0.0727  0.1231  0.1503
  768W        W 4968   7.479   8.418  10.893 -0.0550 -0.0700 -0.0419
  769W        W 4969   1.775   4.029   1.334  0.0287 -0.1387  0.1344
  770W        W 4970   7.551   1.370  12.198 -0.4186  0.1105 -0.2341
  771W        W 4971   1.676   8.657   2.958 -0.0534 -0.2328 -0.1736
  772W        W 4972   2.002   1.074  10.497  0.1582  0.1719 -0.1465
  773W        W 4973   5.706   9.504   0.196 -0.0527 -0.1522 -0.2121
  774W        W 4974   8.875   2.809   3.662  0.0439  0.0212  0.0599
  775W        W 4975   6.124   6.938  12.882 -0.2815 -0.0846 -0.0784
  776W        W 4976   9.540   5.599  10.165  0.1697  0.1662 -0.0525
  777W        W 4977   7.158   5.262   2.453 -0.1509  0.3739  0.0134
  778W        W 4978   4.909   6.691  12.328 -0.2908  0.2410  0.2295
  779W        W 4979   2.527   0.397   1.268 -0.2987  0.0051  0.0668
  780W        W 4980   1.227   9.467   2.809 -0.1322 -0.2908  0.1901
  781W        W 4981   5.070   5.835  10.795 -0.4417 -0.1497 -0.0480
  782W        W 4982   2.732   1.124   3.574  0.0096 -0.0257 -0.1991
  783W        W 4983   7.840   5.877   1.871 -0.2267 -0.2949  0.1893
  784W        W 4984   1.829  10.081   9.815 -0.0124 -0.0664 -0.2535
  785W        W 4985   0.615   6.777  11.908  0.1108 -0.0839  0.2716
  786W        W 4986   0.783   2.200   8.739  0.5055 -0.0148  0.1682
  787W        W 4987   7.492   7.027   0.511 -0.0645  0.1604 -0.2810
  788W        W 4988   8.410   9.322   4.026  0.2090 -0.2310  0.0962
  789W        W 4989   3.505   5.079   2.493  0.0389  0.1400 -0.1729
  790W        W 4990   7.781  10.446   2.896  0.2315  0.0534  0.1732
  791W        W 4991   2.154   9.319   1.682 -0.2511 -0.4548 -0.2214
  792W        W 4992   1.144   1.757  11.694  0.0032  0.2152  0.0787
  793W        W 4993   0.307   7.790   9.709  0.0473  0.0537  0.2148
  794W        W 4994   3.658   9.075   8.342  0.0939  0.2485  0.0065
  795W        W 4995   1.444   2.359   2.345  0.1435 -0.1482 -0.1227
  796W        W 4996   2.302   1.732   3.612  0.1773 -0.3208  0.3664
  797W        W 4997   1.471   9.715  12.888  0.0766  0.0007  0.0816
  798W        W 4998   7.945   4.034  11.662  0.3532 -0.3985 -0.1835
  799W        W 4999  10.332   4.226  10.357  0.2381 -0.0504 -0.1527
  800W        W 5000   6.633   3.627   1.818 -0.1348 -0.0420 -0.1769
  801W        W 5001   9.095   8.203   4.219  0.1637 -0.1814  0.3531
  802W        W 5002   9.089   8.523  11.667 -0.0463 -0.1143  0.1762
  803W        W 5003   3.303   7.886  13.089  0.0789 -0.2878  0.1525
  804W        W 5004   0.534   6.738   9.946 -0.1954  0.2293  0.2490
  805W        W 5005   8.122   6.830  12.253  0.0711 -0.1390 -0.0218
  806W        W 5006   3.162   7.853   4.224  0.0756  0.1149  0.2361
  807W        W 5007   6.273   3.938   4.031 -0.1706  0.0031  0.1721
  808W        W 5008   4.031   4.475   4.208  0.1553 -0.2763 -0.2507
  809W        W 5009   9.207   9.150   3.572  0.2796  0.1838  0.0649
  810W        W 5010   6.977   0.563   9.315 -0.0211  0.1617 -0.0251
  811W        W 5011   1.074   8.429  12.862 -0.1069 -0.0437  0.2294
  812W        W 5012  10.061   2.385   4.185 -0.1825  0.1916  0.1647
  813W        W 5013   7.103   8.545   9.964 -0.0339  0.2064  0.1646
  814W        W 5014   6.992   5.571  11.349  0.2079 -0.0110 -0.1562
  815W        W 5015   0.686   0.137  12.141  0.0853 -0.3074  0.2730
  816W        W 5016   2.439   6.559   0.277  0.1775  0.1313  0.0935
  817W        W 5017   6.591   8.582   3.368  0.4009  0.1061 -0.1249
  818W        W 5018   4.520   5.488  12.974  0.0733 -0.2756 -0.2550
  819W        W 5019   8.257   6.269   9.546  0.2142  0.0118 -0.2625
  820W        W 5020   6.945   7.600   2.350  0.2056  0.0689  0.1775
  821W        W 5021   8.688   3.231   1.793  0.0597  0.2212 -0.5529
  822W        W 5022   5.280   3.627   9.791  0.0138  0.0564 -0.1489
  823W        W 5023   7.540   7.384   4.903  0.2717 -0.2895  0.0760
  824W        W 5024   0.145   6.862  12.715  0.2122  0.0199 -0.0208
  825W        W 5025   9.373   9.969   4.669 -0.1458 -0.0586 -0.1040
  826W        W 5026   6.982   4.866  12.909 -0.0792 -0.3000  0.2137
  827W        W 5027   3.767   2.513   4.867  0.0045 -0.1101 -0.0658
  828W        W 5028   6.578   1.375   9.625  0.1025 -0.0470  0.1478
  829W        W 5029   0.219   3.186   8.665  0.0815 -0.4069 -0.5204
  830W        W 5030   4.561   2.487   4.460 -0.0471  0.2683  0.0843
  831W        W 5031   4.828   1.710  12.308  0.0011 -0.1167 -0.0565
  832W        W 5032   8.409   1.428   2.298  0.0054  0.2151 -0.2366
  833W        W 5033   7.584   2.334   2.786 -0.1889 -0.1051 -0.0035
  834W        W 5034   0.319   6.678  10.972  0.0814 -0.0405 -0.0223
  835W        W 5035   9.762   8.439   3.889 -0.1487  0.0090 -0.0207
  836W        W 5036   1.555   3.199   9.323 -0.2505 -0.2538 -0.0692
  837W        W 5037   3.292   0.507  10.732  0.2298  0.1686 -0.0295
  838W        W 5038   6.520   0.410   8.950 -0.0528  0.0264 -0.2028
  839W        W 5039   3.744   4.703   8.747  0.3063 -0.2244  0.3098
  840W        W 5040   3.348   9.779   4.107 -0.2376  0.2178 -0.1146
  841W        W 5041   8.790   2.345   3.900  0.1410 -0.2803  0.2186
  842W        W 5042   8.294   3.620   1.659 -0.2490 -0.0791  0.1252
  843W        W 5043   3.074  10.050   0.638  0.0115  0.0913 -0.1617
  844W        W 5044   6.245   3.557  12.752 -0.1199 -0.1878 -0.1135
  845W        W 5045   4.408   5.729   9.549  0.2098  0.0163  0.2678
  846W        W 5046   2.145   7.457   0.678  0.0131  0.0274  0.0080
  847W        W 5047   8.351   0.654   1.235  0.1509  0.1958  0.1922
  848W        W 5048   7.467   6.549   1.485  0.3632  0.1494 -0.3673
  849W        W 5049   1.401   7.890   9.495  0.0772 -0.2424  0.1121
  850W        W 5050   8.534   3.805   1.031 -0.2168  0.0213  0.0495
  851W        W 5051  10.397   0.022  12.098  0.1303 -0.1020  0.1841
  852W        W 5052   9.897   7.256   2.966 -0.1023 -0.0042 -0.1769
  853W        W 5053   2.349   0.721  12.518 -0.3199 -0.0692  0.3383
  854W        W 5054   1.454   5.134   9.772  0.0033 -0.1265  0.0819
  855W        W 5055   5.914  10.279  12.796  0.0127  0.0856 -0.3011
  856W        W 5056   0.726   7.203   9.804 -0.1804  0.3205 -0.2254
  857W        W 5057   1.976   5.222   0.838 -0.2363  0.2159  0.0398
  858W        W 5058   5.399   4.048  11.170  0.2654  0.3148  0.1010
  859W        W 5059   7.403  10.140  11.804  0.2797  0.3237 -0.2333
  860W        W 5060   3.398   4.384  11.569 -0.3758 -0.0293 -0.2281
  861W        W 5061   3.212   4.999   9.499 -0.0029 -0.1557  0.0087
  862W        W 5062   8.970   8.684  11.138 -0.2582 -0.1199  0.2508
  863W        W 5063   6.117   7.638   1.063  0.1072  0.3603  0.0277
  864W        W 5064   5.890   9.643   3.755 -0.0192 -0.3450  0.0400
  865W        W 5065   7.964   3.031   2.931 -0.2184  0.1960  0.1085
  866W        W 5066  10.236   7.177   2.068  0.0201  0.0315 -0.0360
  867W        W 5067   8.733   9.796   2.108 -0.0212  0.1229  0.2876
  868W        W 5068   5.616   2.004   0.114  0.1919 -0.0362  0.1475
  869W        W 5069   2.744   6.606   0.670  0.0675  0.0398 -0.3248
  870W        W 5070   4.672   6.020  11.675  0.0923 -0.0628 -0.0751
  871W        W 5071   6.954   7.462  12.286  0.0550 -0.2222 -0.0487
  872W        W 5072   3.961   4.379   3.237  0.2058 -0.1205 -0.0482
  873W        W 5073  10.423   4.594  11.344 -0.0613  0.2044 -0.0240
  874W        W 5074   0.404   9.209   2.821  0.1388  0.1381 -0.1245
  875W        W 5075   6.036   1.462   3.853  0.1345  0.1275 -0.2169
  876W        W 5076   3.554   6.567   9.314  0.2323 -0.1866 -0.0192
  877W        W 5077   9.505   6.870  12.638  0.2371 -0.0496 -0.3787
  878W        W 5078   7.156  10.016  10.508 -0.0305  0.1582 -0.3079
  879W        W 5079   6.842   6.052   4.620  0.1497  0.0667 -0.2239
  880W        W 5080   0.222   9.566   3.164 -0.0374  0.1850  0.2914
  881W        W 5081   6.760   0.159   1.708 -0.0963  0.0255  0.0433
  882W        W 5082   2.798   3.466   3.018  0.0008 -0.0029 -0.2141
  883W        W 5083   4.215   5.998   1.953 -0.1202  0.0908  0.0030
  884W        W 5084   5.169   2.662   4.071 -0.0257 -0.3035  0.2571
  885W        W 5085   0.344   0.787   4.389  0.0497 -0.0511 -0.1572
  886W        W 5086  10.291   2.950  12.871  0.0478  0.1687 -0.0144
  887W        W 5087   7.585   4.418  12.157 -0.2072 -0.1042 -0.0374
  888W        W 5088   5.276   2.284   5.289  0.0318  0.0021 -0.0581
  889W        W 5089   4.458   8.368   1.044 -0.1119  0.0958 -0.0262
  890W        W 5090   4.589   1.425   3.624 -0.3249  0.2160 -0.0083
  891W        W 5091   6.611   6.869   1.273  0.2227 -0.1650  0.0827
  892W        W 5092   0.253   7.644   2.778  0.1215  0.0551  0.0571
  893W        W 5093   8.681   6.490   9.691  0.0590  0.0586 -0.1396
  894W        W 5094  10.205   0.196  12.515 -0.0804  0.0455  0.0991
  895W        W 5095   2.859  10.324  13.179 -0.0605  0.4209 -0.1010
  896W        W 5096   9.648   9.453   1.862  0.3043 -0.2460 -0.0617
  897W        W 5097   0.238   1.513   1.346  0.1550  0.0859 -0.0874
  898W        W 5098   6.668   9.032  12.911 -0.0179 -0.2403 -0.1833
  899W        W 5099   5.029   5.542  11.620 -0.0044 -0.2819  0.4089
  900W        W 5100   4.634   8.761   0.885  0.0557 -0.0741 -0.1298
  901W        W 5101   6.751   6.724   9.817  0.0744  0.1755 -0.1129
  902W        W 5102   7.295   0.766   0.205  0.1585 -0.0627 -0.0079
  903W        W 5103   4.514   3.818   1.703  0.0420  0.0918  0.3683
  904W        W 5104   1.386   9.122   2.093 -0.0502 -0.1583  0.0883
  905W        W 5105   3.253   1.588   3.027  0.2785 -0.3461  0.2762
  906W        W 5106   9.799   1.899   1.691  0.1482  0.0248 -0.2504
  907W        W 5107   2.644   4.861   0.968 -0.2925  0.0167 -0.0003
  908W        W 5108   7.539  10.456  12.445  0.0304  0.3799 -0.4958
  909W        W 5109   8.728   6.319   1.696 -0.2739 -0.0584 -0.2040
  910W        W 5110   0.747   1.176  12.170 -0.1434  0.0996  0.0468
  911W        W 5111  10.095   9.658   3.801  0.1292 -0.2881  0.1007
  912W        W 5112   4.785   5.770  11.261  0.0083  0.3710 -0.0576
  913W        W 5113   2.813   1.850   1.494 -0.2253  0.1387 -0.1180
  914W        W 5114   4.264   5.311   0.111 -0.2782  0.0097 -0.2679
  915W        W 5115   1.143   8.367  11.587  0.3104 -0.1060 -0.0780
  916W        W 5116   0.554   5.789   1.155 -0.2148  0.0902  0.5147
  917W        W 5117   2.798   0.086  10.819 -0.1335  0.1861 -0.1716
  918W        W 5118   7.341   7.591   9.720  0.0283 -0.1103 -0.0864
  919W        W 5119   0.318   4.108   0.621 -0.0883 -0.0932 -0.0302
  920W        W 5120   7.717   3.729   8.914 -0.0923  0.1317 -0.3178
  921W        W 5121   8.731   1.029   2.907 -0.0742  0.2000  0.1844
  922W        W 5122   0.045   6.187  10.802  0.2918 -0.0789 -0.0375
  923W        W 5123  10.473   8.983   1.571  0.0589  0.0599  0.1216
  924W        W 5124   2.834   8.802  10.439 -0.0044 -0.2270 -0.0431
  925W        W 5125  10.014   5.148   3.146 -0.1732 -0.0543  0.0153
  926W        W 5126  10.112   4.401   1.805  0.2864 -0.0172  0.1621
  927W        W 5127   4.497   9.508  12.809 -0.2801  0.1122 -0.0343
  928W        W 5128   7.697   5.405  10.759 -0.1590  0.3249 -0.2458
  929W        W 5129   2.731   0.256   9.325 -0.3792 -0.3327 -0.2158
  930W        W 5130   3.494   4.918   3.832  0.2469  0.1075  0.2829
  931W        W 5131   6.492   5.000  10.049 -0.2119  0.1166  0.1386
  932W        W 5132   0.056   1.197  10.863 -0.1503 -0.1145  0.1907
  933W        W 5133   4.069   7.987   0.919 -0.3803 -0.2151 -0.2314
  934W        W 5134   6.627   8.959  11.922 -0.1843  0.3896 -0.2297
  935W        W 5135   4.362   0.954  12.676 -0.4472 -0.0695 -0.1975
  936W        W 5136   7.721   1.317   9.410 -0.3084 -0.2038 -0.2200
  937W        W 5137   4.506   6.503   1.723  0.0252  0.0138  0.1658
  938W        W 5138   5.575   5.195  12.582 -0.1540  0.2679 -0.0305
  939W        W 5139   4.549   4.615  13.276  0.0244  0.3094 -0.0314
  940W        W 5140  10.492   9.662   0.411  0.1012 -0.2723  0.0640
  941W        W 5141   6.134   1.903  12.691  0.0122  0.0894  0.0146
  942W        W 5142   7.442   9.242   2.517  0.1422 -0.1744  0.0849
  943W        W 5143   1.012   5.363  10.073 -0.4909 -0.1374  0.0786
  944W        W 5144   4.469   6.573  10.573  0.3831 -0.1446  0.1342
  945W        W 5145   8.730   4.307   1.526 -0.0314 -0.2461  0.1113
  946W        W 5146   1.476   7.936   4.078  0.0543  0.1910  0.1977
  947W        W 5147   6.590   2.367   1.669  0.1795  0.1522  0.0244
  948W        W 5148   4.654   6.161  12.354 -0.1265  0.0092 -0.3409
  949W        W 5149   0.191   8.867   3.855 -0.2968 -0.0309 -0.2042
  950W        W 5150   5.157   5.849   2.165  0.0934 -0.2612 -0.3149
  951W        W 5151   5.220   8.643   1.576 -0.2685  0.3885  0.1702
  952W        W 5152   8.359   2.667   0.067  0.0156 -0.1449  0.0481
  953W        W 5153   4.254   2.932   9.177 -0.0598  0.0218 -0.1243
  954W        W 5154   5.749   3.290  12.817 -0.3165 -0.1357  0.3481
  955W        W 5155   8.734   0.082  13.034 -0.2012  0.0027  0.2203
  956W        W 5156   5.593   1.475  12.277 -0.2358  0.2683  0.0462
  957W        W 5157   5.849  10.325  10.285  0.1365 -0.3961  0.0036
  958W        W 5158   2.191   4.559  11.340 -0.0911 -0.0444  0.1910
  959W        W 5159   6.402   6.862   2.665  0.2250 -0.3054  0.1077
  960W        W 5160   8.117   4.326  12.119  0.1509  0.0600 -0.1436
  961W        W 5161   6.745   4.080   1.634  0.0104 -0.2807  0.0375
  962W        W 5162   1.939   4.171  12.838 -0.0436 -0.1045  0.0405
  963W        W 5163   5.265   0.240   3.693 -0.0314 -0.1716 -0.2141
  964W        W 5164  10.148   0.559   4.652 -0.2724 -0.2358  0.0557
  965W        W 5165   7.404   0.627   2.329  0.4751  0.0126 -0.0825
  966W        W 5166  10.487   2.945   1.068 -0.0846  0.2388  0.0129
  967W        W 5167   4.742   1.092  11.834  0.4829  0.1522 -0.1223
  968W        W 5168   9.492   5.035   3.109  0.1673  0.0019  0.2928
  969W        W 5169   5.848   6.886  11.977  0.0475 -0.1772 -0.0863
  970W        W 5170   4.382   2.741   5.067  0.0220  0.1660  0.1248
  971W        W 5171   3.227   9.403   1.247  0.0878 -0.1734 -0.2374
  972W        W 5172   3.842   9.632  12.006 -0.0735  0.0010 -0.1656
  973W        W 5173   2.881   5.384   1.829 -0.3267 -0.1633 -0.0940
  974W        W 5174   4.239   6.488   3.350  0.2261  0.2469  0.1255
  975W        W 5175   8.778   9.582   9.827  0.0081  0.3492 -0.1752
  976W        W 5176   3.310   2.660  12.891  0.2332  0.2512  0.0179
  977W        W 5177   7.722   9.577   0.136  0.1051 -0.1324 -0.0939
  978W        W 5178   9.078   8.053  10.053 -0.2330 -0.2676 -0.1849
  979W        W 5179   2.257   3.276  11.835  0.0617 -0.2320 -0.2022
  980W        W 5180   1.042   9.482  10.025 -0.2659 -0.0276  0.5899
  981W        W 5181   8.515   8.223  10.122  0.1991 -0.0522  0.0694
  982W        W 5182   6.312   5.750  11.442  0.2199  0.2139 -0.4583
  983W        W 5183   5.578   1.320   3.569  0.2242 -0.0583 -0.2468
  984W        W 5184   9.142   9.452   2.912 -0.0953 -0.0165 -0.1102
  985W        W 5185   3.407   5.282   9.899  0.3743 -0.1899  0.3774
  986W        W 5186   0.288   5.861   3.503  0.1119  0.2112 -0.2068
  987W        W 5187   2.805   7.890  11.933  0.0184  0.0232  0.0216
  988W        W 5188   0.205   3.271   1.327  0.0792  0.0250  0.0143
  989W        W 5189   5.746   2.895   4.186 -0.4738 -0.1593  0.1836
  990W        W 5190   1.167   0.193   4.183  0.1726 -0.1254 -0.1998
  991W        W 5191   5.116   0.857   2.517  0.1927  0.1862 -0.2462
  992W        W 5192   0.333   1.764   0.592  0.0606  0.0548 -0.1663
  993W        W 5193  10.044   3.603  10.695 -0.1693 -0.0012  0.3173
  994W        W 5194   1.575   2.280   2.915  0.1584 -0.0316 -0.2714
  995W        W 5195   7.371   7.444   2.585 -0.0794 -0.0055  0.4478
  996W        W 5196   9.655   0.403   9.147  0.0591  0.2465  0.2348
  997W        W 5197   6.620   7.308   1.606 -0.2731  0.2478 -0.2584
  998W        W 5198   4.389   1.722   2.234 -0.0111  0.0130  0.1762
  999W        W 5199   1.825   0.322   3.537  0.1490  0.2689  0.0113
 1000W        W 5200   7.191   5.764  12.812  0.0822 -0.2251 -0.0055
 1001W        W 5201   8.340   2.701   3.632 -0.0363 -0.3962 -0.3032
 1002W        W 5202   8.142   0.716   4.562  0.2063 -0.3028  0.0658
 1003W        W 5203   8.844   3.346   3.397 -0.1866 -0.0469  0.1489
 1004W        W 5204   9.145   3.143  12.968  0.0095 -0.5759 -0.4121
 1005W        W 5205   5.571   6.945   3.241  0.0437 -0.1432 -0.4016
 1006W        W 5206   2.964   8.887   3.434 -0.2035 -0.1232  0.2647
 1007W        W 5207   4.087   5.532   9.975  0.5337  0.0781  0.2510
 1008W        W 5208   7.549   2.011   3.797 -0.0919  0.0882 -0.0175
 1009W        W 5209   2.687   9.296  12.012  0.5355 -0.1957 -0.0668
 1010W        W 5210   5.980   7.252   2.535  0.3274  0.2101 -0.0602
 1011W        W 5211   5.678   2.481   2.487 -0.2508  0.3065  0.0943
 1012W        W 5212   4.358   6.380  12.035  0.4687 -0.0582  0.0472
 1013W        W 5213   5.051   3.172  12.672  0.1292  0.1532 -0.0162
 1014W        W 5214   0.740   0.586   3.076  0.2930  0.0725 -0.0080
 1015W        W 5215   3.104   0.999  12.551 -0.2414 -0.1148 -0.0473
 1016W        W 5216   4.696   9.707   4.412 -0.0682  0.2316 -0.0867
 1017W        W 5217   6.072   3.036   3.109 -0.1818 -0.1833 -0.1433
 1018W        W 5218   6.703   2.099  10.533  0.3270 -0.0619 -0.0216
 1019W        W 5219   6.223   9.951   2.110  0.3355 -0.0912 -0.1139
 1020W        W 5220   2.853   6.822   1.855 -0.0260 -0.1642 -0.1170
 1021W        W 5221   7.626   3.601  13.211 -0.1060 -0.0641 -0.0552
 1022W        W 5222   6.223   8.248   3.586  0.0596  0.1160  0.0772
 1023W        W 5223   3.915   1.967  11.855  0.0631 -0.1483 -0.1375
 1024W        W 5224   3.097   0.013   4.753 -0.0487 -0.1334  0.1979
 1025W        W 5225   7.873   5.430   2.038 -0.1394  0.1732 -0.1688
 1026W        W 5226   5.966  10.089   8.909 -0.2042  0.1958  0.1557
 1027W        W 5227   2.696  10.325   1.006  0.1632  0.0099 -0.1286
 1028W        W 5228   7.812   0.897   2.875 -0.1514  0.0580  0.0405
 1029W        W 5229   4.902   2.735  10.892  0.2381 -0.1784  0.4618
 1030W        W 5230   1.000   3.890  13.206 -0.0867 -0.1856  0.1120
 1031W        W 5231   2.877   2.432  12.861  0.2720 -0.0516 -0.0148
 1032W        W 5232   0.068   7.670   0.043  0.0238  0.0142 -0.0230
 1033W        W 5233   9.217   0.664   1.024 -0.0349  0.0056  0.2562
 1034W        W 5234   7.838   5.548  12.129  0.0262  0.1212  0.1352
 1035W        W 5235   2.908  10.386  11.858 -0.1094  0.1266 -0.0710
 1036W        W 5236   3.694   3.326  10.992  0.0057 -0.0285 -0.1101
 1037W        W 5237   9.567   7.692   8.098 -0.0569 -0.2690 -0.4716
 1038W        W 5238   5.475  10.333   1.464  0.0233  0.1731  0.0935
 1039W        W 5239   8.806   7.941   8.573  0.0112  0.0940  0.1775
 1040W        W 5240   9.115   3.439   0.299  0.0636 -0.1861 -0.1951
 1041W        W 5241   7.836   0.304   2.474  0.3332 -0.2938 -0.1896
 1042W        W 5242   0.441   7.383   1.593 -0.2677  0.4035 -0.0083
 1043W        W 5243   5.475   3.846  12.320 -0.1051 -0.2746  0.4444
 1044W        W 5244   8.583   0.974   9.581 -0.1591  0.1236 -0.2622
 1045W        W 5245   7.855   3.444   4.307  0.2885  0.2029 -0.2740
 1046W        W 5246   4.036   5.814   0.565  0.0144  0.0657  0.1031
 1047W        W 5247   7.798   5.950   9.634  0.2715  0.2126 -0.1712
 1048W        W 5248   9.972   9.436  12.249 -0.0737  0.2298 -0.0210
 1049W        W 5249   2.349  10.503  12.474  0.2897 -0.0574 -0.0838
 1050W        W 5250   0.695   1.825   2.073  0.3133  0.3213  0.0667
 1051W        W 5251   8.282   5.006   0.820  0.1144 -0.1076  0.0232
 1052W        W 5252   4.546   9.080   9.275 -0.1084  0.0522 -0.4324
 1053W        W 5253   7.572   6.631  12.503 -0.0596  0.0631 -0.1378
 1054W        W 5254   4.032   3.638  12.452 -0.0756 -0.1494  0.2167
 1055W        W 5255   9.984   3.249  13.125  0.0533  0.2420 -0.1600
 1056W        W 5256   9.055   7.220  12.047  0.0433  0.1064 -0.0916
 1057W        W 5257   5.069   3.898   9.393  0.0653 -0.3030 -0.2055
 1058W        W 5258   4.045   4.920   1.453  0.0764 -0.0583  0.0519
 1059W        W 5259   8.879   1.313   1.459 -0.2036  0.1799  0.1029
 1060W        W 5260   7.308   7.855   0.411  0.1668  0.1705  0.0779
 1061W        W 5261   4.670   0.988  13.139  0.1872 -0.3061  0.0699
 1062W        W 5262   9.939   5.846   1.510 -0.4883  0.0592  0.2038
 1063W        W 5263   6.917  10.313   0.304 -0.0844  0.1082 -0.1113
 1064W        W 5264   0.571   7.614  10.615  0.2088 -0.1884  0.0737
 1065W        W 5265   4.483   8.188   3.968 -0.0465 -0.1737 -0.1392
 1066W        W 5266   5.296   4.007  11.747 -0.5250  0.1003  0.1997
 1067W        W 5267   2.482  10.329  11.110 -0.2316  0.0331 -0.0123
 1068W        W 5268   7.050   7.004   1.522 -0.0609  0.1249  0.0630
 1069W        W 5269   8.209   1.616   0.872  0.2991  0.1143  0.1678
 1070W        W 5270  10.408   7.584  10.502  0.0312  0.3601 -0.0614
 1071W        W 5271   6.466   4.494  10.417 -0.0370 -0.0024  0.1893
 1072W        W 5272   4.957   9.363   4.144 -0.0457  0.1861 -0.1602
 1073W        W 5273   8.834   5.265  10.493  0.2319  0.1192 -0.1236
 1074W        W 5274   6.055   9.755   4.216  0.1186  0.0783  0.0230
 1075W        W 5275   4.352   5.284  12.171  0.2578  0.1200 -0.1248
 1076W        W 5276   2.521   4.219  13.318 -0.0654 -0.2504 -0.1159
 1077W        W 5277   2.047   6.523   0.608 -0.1037 -0.1705  0.0491
 1078W        W 5278   7.512   7.449  12.972 -0.0212 -0.0703  0.1903
 1079W        W 5279   3.493   9.096  10.297  0.0309 -0.1337  0.0277
 1080W        W 5280   3.246   6.703  10.238 -0.0031 -0.0713 -0.0663
 1081W        W 5281   8.519   9.517   0.679  0.1450  0.3875  0.4030
 1082W        W 5282   3.073   4.105  12.455 -0.0656 -0.1340 -0.1242
 1083W        W 5283   4.599   0.945   9.937  0.2893 -0.1384 -0.0605
 1084W        W 5284   9.589   8.105  12.341  0.3232 -0.0989  0.2162
 1085W        W 5285   1.308   9.281   9.687 -0.3465  0.0966  0.1294
 1086W        W 5286   5.383   5.477  10.047 -0.2611  0.0715  0.1363
 1087W        W 5287   0.715   1.653   9.615  0.0269  0.0878 -0.0587
 1088W        W 5288  10.306   7.390   9.449  0.3901 -0.1859 -0.0053
 1089W        W 5289   4.828   8.574   2.014 -0.4276  0.1172 -0.0214
 1090W        W 5290   9.052   4.295  10.465  0.1853 -0.2587  0.0239
 1091W        W 5291   7.369   2.334  12.005 -0.0567  0.3029 -0.1624
 1092W        W 5292   4.792   6.087   1.850 -0.1851 -0.0096 -0.2701
 1093W        W 5293   8.835   5.963   0.883 -0.2474  0.1659  0.0782
 1094W        W 5294   9.994   9.004  10.051 -0.1311 -0.2590 -0.1815
 1095W        W 5295   2.384   6.400  11.354 -0.2632 -0.1040  0.0667
 1096W        W 5296   3.133   2.844   3.516  0.2018  0.3752 -0.1804
 1097W        W 5297   8.416   0.197   2.533  0.0577 -0.1337  0.1083
 1098W        W 5298   5.776   4.864   3.250  0.0681 -0.1667  0.1210
 1099W        W 5299  10.398   9.823   2.967 -0.1181  0.0690 -0.2399
 1100W        W 5300   2.564   1.806   2.003  0.0567  0.2297  0.1575
 1101W        W 5301   6.238   8.134  11.752  0.0532  0.3427  0.2025
 1102W        W 5302   8.368   2.830   1.937  0.2206 -0.0757  0.0123
 1103W        W 5303   5.484   1.713  11.025 -0.0284 -0.0510 -0.0030
 1104W        W 5304   4.014   7.824  10.692 -0.1994  0.0040 -0.3293
 1105W        W 5305   1.603   0.479   0.213 -0.0425 -0.0962 -0.1904
 1106W        W 5306   4.979   3.346   1.608  0.2046  0.2058  0.2608
 1107W        W 5307   3.845   0.512  10.565  0.1531 -0.0464 -0.3770
 1108W        W 5308   6.322   4.044  13.016  0.2882  0.1192 -0.2322
 1109W        W 5309   1.129   6.041   2.004 -0.1396  0.0463 -0.0289
 1110W        W 5310   7.898   0.770   1.446  0.0957  0.0292  0.0075
 1111W        W 5311   6.567   0.051   1.222 -0.0771 -0.0437  0.2312
 1112W        W 5312   0.202   0.478   2.851  0.0608  0.0464  0.2035
 1113W        W 5313   5.823   0.961   9.493 -0.1055  0.1039 -0.1447
 1114W        W 5314   4.692   9.575   0.562 -0.0038  0.0833  0.0604
 1115W        W 5315   8.446   5.401   8.323  0.0057 -0.0419  0.2955
 1116W        W 5316   9.328   5.827   0.681  0.1656  0.0507  0.1146
 1117W        W 5317  10.522   1.212  13.088  0.0490 -0.2251  0.1545
 1118W        W 5318   4.021   0.408   8.603  0.0333  0.0023  0.0231
 1119W        W 5319   5.602   0.677   1.721  0.0097  0.0637  0.0577
 1120W        W 5320   1.449   2.934  11.190 -0.0505  0.1736 -0.0907
 1121W        W 5321  10.392  10.024   8.128 -0.2014 -0.1334  0.0185
 1122W        W 5322   0.094   3.689  11.421  0.0173  0.1925  0.0082
 1123W        W 5323   6.226   2.419  11.298  0.1658  0.1302 -0.2157
 1124W        W 5324   6.814   8.594  13.271 -0.1197 -0.2702 -0.2020
 1125W        W 5325   5.086   3.332  11.516 -0.1022  0.0521 -0.1321
 1126W        W 5326   3.385   7.440   8.962 -0.1558  0.1464 -0.1195
 1127W        W 5327   3.908   6.197  11.072  0.2125  0.1804  0.1680
 1128W        W 5328   8.510   9.941   3.149  0.3441 -0.2706  0.2153
 1129W        W 5329   6.814   1.805   8.777 -0.2023  0.2697 -0.1704
 1130W        W 5330   2.940   6.151  11.168  0.3471 -0.1826 -0.3847
 1131W        W 5331   4.943   5.295  11.051  0.1767  0.0046 -0.3376
 1132W        W 5332   1.632   9.736  12.409  0.0234 -0.3193  0.5388
 1133W        W 5333   3.088   4.668  11.843 -0.2034  0.3385  0.2734
 1134W        W 5334   0.207   5.419   0.449  0.2283  0.1388  0.1087
 1135W        W 5335   4.239   4.285  13.143  0.0452 -0.0624 -0.0343
 1136W        W 5336   0.343   9.256   2.288  0.2891 -0.3803 -0.0308
 1137W        W 5337   2.520   4.964  10.646 -0.1301 -0.1421 -0.1886
 1138W        W 5338   6.048   3.099   1.175 -0.0700  0.0384  0.2321
 1139W        W 5339   5.277   5.675   1.691 -0.0480 -0.0083 -0.0990
 1140W        W 5340   7.639   4.596   1.765  0.2194  0.1494 -0.0396
 1141W        W 5341   2.242   9.965   1.334  0.4151 -0.0859 -0.1269
 1142W        W 5342   0.756   5.138   1.726  0.0584  0.1801  0.1838
 1143W        W 5343   9.262   4.969   4.604 -0.2279  0.2061  0.2179
 1144W        W 5344   8.582   3.324  12.840 -0.5141  0.1378  0.2205
 1145W        W 5345  10.295   5.937  11.809  0.5223  0.3176 -0.1027
 1146W        W 5346   5.135   9.014   9.035  0.1319 -0.2089  0.0238
 1147W        W 5347   8.180   5.423   3.233 -0.1141 -0.2964  0.0995
 1148W        W 5348   7.749   4.865   9.898 -0.2120 -0.2431 -0.0650
 1149W        W 5349   3.986   9.067   1.970  0.1697 -0.0379  0.0186
 1150W        W 5350   0.627   7.717   0.020 -0.0283 -0.1504 -0.1796
 1151W        W 5351   6.503  10.134  11.314  0.0701 -0.0505 -0.1116
 1152W        W 5352   7.391   7.543   9.138  0.1641  0.0230  0.1789
 1153W        W 5353   4.251   7.624  11.093  0.1496  0.0317 -0.2019
 1154W        W 5354   3.808   8.507  11.337  0.0129 -0.1316  0.3951
 1155W        W 5355  10.111   5.310  13.019 -0.1959  0.0434  0.1333
 1156W        W 5356   9.666   8.000   0.118  0.0703 -0.1738 -0.3845
 1157W        W 5357   8.467   8.480  12.586 -0.0409  0.0506 -0.0462
 1158W        W 5358   3.539   3.969  10.782 -0.3663  0.2311  0.0511
 1159W        W 5359   1.002   1.542   3.039  0.1633 -0.4022  0.0408
 1160W        W 5360   1.038   0.408   3.604  0.0062 -0.1819 -0.3479
 1161W        W 5361   9.633   0.702   3.281  0.1361 -0.0492 -0.1293
 1162W        W 5362   9.282   0.458   3.567  0.2589 -0.0064  0.1125
 1163W        W 5363   9.728  10.425   9.116 -0.1635 -0.1169 -0.0943
 1164W        W 5364   5.596   5.189   2.950  0.0264 -0.0428 -0.0960
 1165W        W 5365   6.031   6.061   3.382 -0.0080  0.0451 -0.1063
 1166W        W 5366   7.410   7.513   2.115  0.0458  0.3834  0.0749
 1167W        W 5367   1.624   1.724  11.551  0.1415 -0.1582  0.0323
 1168W        W 5368   3.676   5.824  12.764 -0.2558 -0.2549  0.0403
 1169W        W 5369  10.294   2.409  11.054 -0.0172  0.3293 -0.1599
 1170W        W 5370   1.770   7.944   2.451 -0.3523  0.1673  0.0244
 1171W        W 5371   5.150   1.613   4.150  0.1013 -0.1062 -0.0685
 1172W        W 5372   4.305   1.852   3.559  0.1821  0.1267 -0.2216
 1173W        W 5373   2.440   9.150  10.317 -0.2568  0.1184 -0.0632
 1174W        W 5374   6.940   9.888  13.149  0.4447 -0.1528 -0.2362
 1175W        W 5375   7.509   8.428   2.683 -0.2746  0.1242 -0.0007
 1176W        W 5376   5.055   0.653   3.934  0.0617 -0.0084 -0.1666
 1177W        W 5377   7.429   6.311  11.516 -0.2334 -0.1302 -0.0925
 1178W        W 5378   2.322   2.963  13.311 -0.2429  0.3080  0.3311
 1179W        W 5379   4.610   2.621  13.314  0.0096 -0.1826 -0.1225
 1180W        W 5380   0.812   0.802  13.187 -0.1687 -0.2708 -0.0005
 1181W        W 5381   0.317  10.277   3.786 -0.1502 -0.0491 -0.4088
 1182W        W 5382   9.469   9.727   8.241 -0.0891  0.0191  0.4946
 1183W        W 5383   1.108   7.233   2.547  0.1536  0.3915  0.4073
 1184W        W 5384   3.645   8.016   0.612  0.0355  0.1873 -0.0220
 1185W        W 5385  10.393   7.266  12.559 -0.1946  0.3673 -0.1016
 1186W        W 5386   5.716   6.410   1.047  0.0530  0.1556  0.0689
 1187W        W 5387   5.910   0.645  10.905 -0.2842  0.2741  0.1537
 1188W        W 5388   9.234   4.127   1.404 -0.1311 -0.4069  0.2562
 1189W        W 5389   1.012   6.809   2.712  0.0002  0.1552 -0.0768
 1190W        W 5390   7.647   5.574   5.182 -0.0921 -0.2636  0.1174
 1191W        W 5391   8.883  10.194  11.669 -0.1479  0.0399  0.2021
 1192W        W 5392   8.011   3.902  13.048 -0.1388 -0.1813 -0.2715
 1193W        W 5393   5.538   7.918  11.176 -0.0418  0.0600  0.0020
 1194W        W 5394   1.275   4.014  11.119 -0.0755  0.1117  0.1371
 1195W        W 5395   6.273   8.707   3.804 -0.0433 -0.3040 -0.1307
 1196W        W 5396   1.381   4.502  11.474  0.1423  0.0762  0.0248
 1197W        W 5397   9.641   4.207   3.628 -0.0173 -0.0870 -0.3115
 1198W        W 5398   8.712   0.081   0.422  0.0474  0.0206 -0.1334
 1199W        W 5399   0.641   9.870  12.612  0.1394  0.3484 -0.0040
 1200W        W 5400   2.602   6.791   2.559 -0.0941 -0.0270  0.1260
 1201W        W 5401   4.445   0.392   9.770 -0.1568  0.0833  0.3494
 1202W        W 5402   5.887   7.585  10.150  0.0700 -0.1856  0.1849
 1203W        W 5403   5.310   6.757   1.975  0.5082  0.1042  0.0177
 1204W        W 5404  10.187   0.793   9.786  0.2026  0.0098  0.0224
 1205W        W 5405   6.769   1.351   4.898  0.1774  0.2296  0.1064
 1206W        W 5406  10.107   0.872  12.988  0.2433 -0.3536  0.3545
 1207W        W 5407   5.350   5.796  11.256 -0.2955  0.0423 -0.0593
 1208W        W 5408   0.966   6.920  10.148 -0.1332  0.1408  0.1070
 1209W        W 5409   9.388   7.545   0.535  0.1649  0.2474 -0.1256
 1210W        W 5410   3.236   9.944  11.173 -0.0004  0.0727 -0.2997
 1211W        W 5411   3.711   6.639  11.057 -0.1205 -0.2896  0.0213
 1212W        W 5412   7.587   9.366  12.150  0.1563 -0.1218  0.2802
 1213W        W 5413   2.400  10.477   5.277  0.0780 -0.0015  0.1545
 1214W        W 5414   4.944   8.050   3.820 -0.0628  0.1834 -0.0537
 1215W        W 5415  10.085   2.377   3.371  0.1102 -0.1010  0.0803
 1216W        W 5416   6.619   3.434  11.024 -0.1633  0.1181  0.2777
 1217W        W 5417   9.856   6.081  10.413  0.0617  0.3271  0.0954
 1218W        W 5418   9.598   1.643   5.027  0.2431  0.0766 -0.0651
 1219W        W 5419   7.442   0.473   0.646 -0.1732  0.2759  0.0172
 1220W        W 5420   6.473   2.903   9.888  0.0426 -0.2612  0.0230
 1221W        W 5421   5.005   8.569  10.189  0.0204  0.0398  0.0934
 1222W        W 5422   7.473   7.040   1.268  0.0865  0.3650  0.3412
 1223W        W 5423   2.919   0.967   1.712 -0.0106  0.1206  0.2791
 1224W        W 5424   3.173   8.953  12.684  0.1813 -0.0179  0.0132
 1225W        W 5425   1.638   8.242  10.957  0.1648  0.0176  0.2955
 1226W        W 5426   5.731   8.812  10.920 -0.0750 -0.0029 -0.1540
 1227W        W 5427   5.527   9.820   1.619 -0.1504  0.0693 -0.4839
 1228W        W 5428   1.264   7.178  11.630 -0.2107  0.0255 -0.0777
 1229W        W 5429   2.883   1.963  10.291 -0.3908  0.3385  0.2431
 1230W        W 5430   1.599   1.723   4.974 -0.2754  0.0414  0.0826
 1231W        W 5431   6.670   1.259   2.499  0.1139 -0.0259  0.1142
 1232W        W 5432   7.404   7.956   1.915  0.0594  0.0683  0.0261
 1233W        W 5433   7.305   4.953   1.150  0.0734 -0.1870 -0.1637
 1234W        W 5434   5.443   8.253   3.908  0.0941  0.0169  0.0564
 1235W        W 5435   7.189   5.319  13.110  0.7603  0.0642 -0.5306
 1236W        W 5436   6.619   3.005   0.389  0.1072  0.1627  0.3194
 1237W        W 5437   8.520  10.432  12.494  0.0960  0.3352  0.0912
 1238W        W 5438   6.197   1.334   0.953 -0.1552 -0.2640  0.1862
 1239W        W 5439   7.797   2.256  10.656 -0.0480  0.0317  0.0365
 1240W        W 5440   6.756   5.474  10.433  0.2419  0.1047 -0.0153
 1241W        W 5441   2.030   6.276  10.992  0.0585 -0.3633 -0.1109
 1242W        W 5442   8.760   2.743   1.680 -0.1446  0.1014 -0.0264
 1243W        W 5443   2.512   9.356  11.450  0.1521 -0.2558  0.2144
 1244W        W 5444   9.099   5.131   9.442  0.0937  0.0002 -0.1720
 1245W        W 5445   7.500   7.463  10.563  0.1205  0.1514 -0.2615
 1246W        W 5446   8.585   8.892   9.034 -0.1628  0.0132  0.1945
 1247W        W 5447   4.561   3.412   4.122 -0.3019  0.0132  0.1027
 1248W        W 5448   8.524   4.688   0.216 -0.0278 -0.1078 -0.1384
 1249W        W 5449   9.762   9.263  11.761 -0.2303 -0.0023  0.0553
 1250W        W 5450   0.513   6.848  12.376  0.2850 -0.4155  0.0613
 1251W        W 5451   5.061   4.964   2.277 -0.2095  0.0382  0.1842
 1252W        W 5452   3.057   6.721  11.799  0.0702  0.2047 -0.0429
 1253W        W 5453   4.914   7.857   1.371  0.0390 -0.0032  0.1880
 1254W        W 5454   7.799   7.006   8.293  0.2325 -0.4363  0.1540
 1255W        W 5455   6.814   7.841   4.714 -0.2176  0.3202 -0.3348
 1256W        W 5456   7.851   6.790  10.265  0.0384  0.2255 -0.1005
 1257W        W 5457   1.781   1.974  11.991  0.1352 -0.0482 -0.1398
 1258W        W 5458   4.280   8.660   3.949 -0.2268  0.0810  0.0505
 1259W        W 5459   2.916   5.722  10.900  0.4281 -0.0923  0.1609
 1260W        W 5460   2.493   7.135  10.357 -0.3473  0.1197 -0.0505
 1261W        W 5461   7.145   1.789   3.648  0.1837  0.0643  0.0770
 1262W        W 5462   3.477   7.216   3.586  0.0454 -0.2149 -0.0546
 1263W        W 5463   1.497   2.938   4.318 -0.2092 -0.3286 -0.1620
 1264W        W 5464   9.333   5.965   1.195  0.1076 -0.0037  0.0587
 1265W        W 5465   3.186   9.193   9.676 -0.3630 -0.3673  0.0950
 1266W        W 5466   7.810   4.997   8.857  0.0483 -0.2952 -0.1629
 1267W        W 5467   1.006   1.974   9.816  0.0391  0.0169 -0.0992
 1268W        W 5468   3.028   4.349  10.138  0.2101 -0.2011  0.2108
 1269W        W 5469   1.484  10.045  12.011  0.1095  0.2408  0.0112
 1270W        W 5470   9.484   2.373   1.618 -0.1146 -0.3408  0.2420
 1271W        W 5471   1.389   4.305  12.017  0.1582 -0.1877  0.1646
 1272W        W 5472   5.532   0.003  11.075 -0.1447 -0.0012  0.3634
 1273W        W 5473   3.521   3.573   0.884 -0.1294  0.0688 -0.1207
 1274W        W 5474   0.669   3.551   0.101 -0.0627  0.0228 -0.2276
 1275W        W 5475   0.731  10.179   0.777  0.0757  0.1036  0.0157
 1276W        W 5476   2.204   8.351   9.780  0.2678  0.0478 -0.0719
 1277W        W 5477   2.982   7.046  10.564  0.0750 -0.4454 -0.1173
 1278W        W 5478   8.202   1.598   9.466 -0.2217  0.0280  0.1996
 1279W        W 5479   3.616   1.401   3.793  0.0989 -0.2816 -0.1290
 1280W        W 5480   4.248   6.655   0.372 -0.1151  0.2428  0.2763
 1281W        W 5481   0.834   3.794  10.311  0.3789 -0.0179  0.1717
 1282W        W 5482   5.311   1.144   3.986  0.0409  0.2166 -0.1025
 1283W        W 5483   8.518   5.514  10.806 -0.1664  0.0225 -0.0795
 1284W        W 5484   4.215   5.688   1.572  0.0137  0.2281 -0.4681
 1285W        W 5485   8.725   3.345  10.472 -0.1888  0.2005 -0.0386
 1286W        W 5486   9.097   0.242   0.016  0.0234  0.0357 -0.0347
 1287W        W 5487   5.720  10.273  11.473  0.1128  0.1310  0.0952
 1288W        W 5488   3.420   4.425   1.294 -0.1501 -0.0426 -0.1233
 1289W        W 5489   5.960  10.041   2.520 -0.0849  0.3827 -0.1418
 1290W        W 5490   4.765   5.720  12.084 -0.0212 -0.0147  0.0193
 1291W        W 5491   7.881   3.701  12.566  0.4165  0.1295  0.0730
 1292W        W 5492   3.722   9.228   9.357 -0.1521 -0.1519 -0.0789
 1293W        W 5493   9.973   3.220   2.808 -0.3370 -0.1909  0.4863
 1294W        W 5494   6.171   8.903   0.477  0.0729 -0.2249 -0.0371
 1295W        W 5495   5.193   7.122   0.949 -0.0416 -0.0512  0.0498
 1296W        W 5496   7.939   7.133   0.307 -0.1977 -0.3220  0.0683
 1297W        W 5497   4.481   0.297   8.666 -0.3061 -0.0084 -0.0871
 1298W        W 5498   7.511   7.399  12.005 -0.1600  0.1630  0.2501
 1299W        W 5499   4.784   9.740  11.938 -0.2811 -0.0733 -0.0741
 1300W        W 5500   8.150   0.330  10.252 -0.0973 -0.0673  0.0239
 1301W        W 5501   1.349   6.825   0.741 -0.3081 -0.0811  0.0825
 1302W        W 5502   1.923   9.561   2.857  0.1806 -0.1155 -0.0970
 1303W        W 5503   9.023   1.649   2.003 -0.1761  0.0007 -0.0463
 1304W        W 5504   9.236   1.495   3.708 -0.0749  0.0034 -0.3530
 1305W        W 5505   2.941   0.995  10.321  0.0506 -0.1207 -0.5126
 1306W        W 5506   9.366   5.188  12.627 -0.1249 -0.2027  0.2885
 1307W        W 5507   5.712   4.602   3.767  0.1853  0.1198 -0.1333
 1308W        W 5508   2.194   1.803   0.510 -0.0948 -0.1382 -0.0884
 1309W        W 5509   9.190   0.279   9.312 -0.0806 -0.1371  0.0415
 1310W        W 5510   4.441   7.249   1.901 -0.1575 -0.1369  0.2158
 1311W        W 5511   8.862   9.796  12.537 -0.5426 -0.0633  0.1064
 1312W        W 5512   6.513   9.767   1.771 -0.0810 -0.1779  0.1820
 1313W        W 5513   8.195   7.631   2.529  0.1217 -0.3099  0.2097
 1314W        W 5514   4.975   7.650  12.290 -0.2270 -0.3636 -0.0113
 1315W        W 5515   0.852   8.982   5.311  0.0770  0.2707 -0.0160
 1316W        W 5516   0.221   6.998   1.411 -0.3767 -0.1760  0.0902
 1317W        W 5517   5.696   3.152  11.300  0.2733 -0.1879 -0.0958
 1318W        W 5518   3.637   5.368  11.313 -0.0596  0.0805 -0.0760
 1319W        W 5519   2.176   4.679  10.824  0.3278  0.1463 -0.0703
 1320W        W 5520   6.708  10.315  13.184 -0.0785 -0.3823  0.3701
 1321W        W 5521   1.950   2.835  11.750  0.2629 -0.2852  0.2498
 1322W        W 5522   2.951   9.984   4.786 -0.0067 -0.1964  0.1343
 1323W        W 5523   9.225   0.766   2.856  0.0803  0.2162  0.3503
 1324W        W 5524   4.346   9.425   3.477 -0.0459  0.0855 -0.1237
 1325W        W 5525   8.556   6.245   2.180 -0.2414 -0.3305  0.1816
 1326W        W 5526   6.732   7.811   8.916  0.0772  0.2913  0.1694
 1327W        W 5527   9.595   3.786   1.907 -0.2231  0.1619  0.1263
 1328W        W 5528   3.384   5.778  13.210 -0.3267  0.0156 -0.0902
 1329W        W 5529  10.092   6.556  11.532  0.0578 -0.0400  0.1434
 1330W        W 5530   9.141   9.084   9.278  0.0067  0.2406 -0.0693
 1331W        W 5531   7.857   9.253   8.159 -0.0547  0.1253  0.0611
 1332W        W 5532   8.554   2.199   1.303  0.0246 -0.0705 -0.2371
 1333W        W 5533   9.059   3.622   2.098 -0.2082 -0.0198 -0.2963
 1334W        W 5534   5.103   5.449  12.880  0.1335 -0.0672  0.1079
 1335W        W 5535   8.211   1.730  11.132 -0.1566 -0.4175  0.2920
 1336W        W 5536   2.494   1.818   1.069 -0.4300 -0.1098 -0.0290
 1337W        W 5537   6.249   1.197  13.336  0.3678 -0.1955 -0.0700
 1338W        W 5538   5.146   9.070   1.918 -0.0860  0.0289 -0.1677
 1339W        W 5539   7.638   8.547  11.387  0.0317  0.0849  0.2240
 1340W        W 5540   4.089   8.940   3.475  0.0851  0.1255 -0.0211
 1341W        W 5541   7.830  10.110   5.203  0.1380 -0.0080  0.0039
 1342W        W 5542   6.293   0.942  11.604  0.0309  0.0416 -0.0178
 1343W        W 5543   0.074   5.665  13.023 -0.0749  0.1478 -0.2217
 1344W        W 5544   5.923   0.488   9.575 -0.2105 -0.1480  0.4549
 1345W        W 5545   1.923  10.412   1.872  0.2122  0.0998 -0.1296
 1346W        W 5546   9.920   4.310  10.017 -0.2037 -0.1746  0.0194
 1347W        W 5547   5.189   4.549   4.027 -0.2446 -0.1829  0.3578
 1348W        W 5548   0.761   3.789   2.904  0.1684  0.0531 -0.0456
 1349W        W 5549   4.075   4.333   0.839 -0.3287 -0.2256 -0.2449
 1350W        W 5550   5.408   7.785  10.030 -0.4130  0.0303  0.0090
 1351W        W 5551   0.620  10.407  10.945  0.4029  0.3979  0.0501
 1352W        W 5552   2.792   9.759  12.488  0.2124  0.0243  0.0403
 1353W        W 5553   9.068   9.086   1.573 -0.1290  0.0037  0.0330
 1354W        W 5554   3.893   8.474   9.395 -0.3146 -0.1266  0.0144
 1355W        W 5555   8.036   8.738  12.450  0.2101  0.1709  0.0839
 1356W        W 5556   6.308   3.916  12.431  0.1437 -0.1972 -0.2350
 1357W        W 5557   0.643   1.189   2.684 -0.1009 -0.1085  0.1100
 1358W        W 5558   4.959  10.470   2.090 -0.2047  0.0622 -0.0195
 1359W        W 5559   8.479   2.821   2.748  0.0164 -0.2748  0.1730
 1360W        W 5560   6.194   3.243   0.626 -0.2597  0.1258 -0.0465
 1361W        W 5561   9.201   5.079   2.283 -0.0283 -0.1644 -0.0156
 1362W        W 5562   4.958   4.516   9.983  0.0459  0.0906  0.2962
 1363W        W 5563   2.680   4.063   2.390  0.0031  0.1501 -0.3314
 1364W        W 5564   6.777   5.935   0.861  0.0958  0.1338  0.3093
 1365W        W 5565   6.121   1.431  11.015  0.0658 -0.5377 -0.2273
 1366W        W 5566   0.692   9.312   9.457  0.0864 -0.0897  0.1001
 1367W        W 5567   0.433  10.171  12.956 -0.2049  0.0849 -0.2401
 1368W        W 5568   6.332   9.485   0.415  0.1130  0.2138  0.0747
 1369W        W 5569   9.663   4.303   1.955 -0.2418  0.0245 -0.2293
 1370W        W 5570   5.015   5.652   0.628 -0.0040  0.1375 -0.2429
 1371W        W 5571   5.401  10.288   2.555  0.1009 -0.2348  0.3902
 1372W        W 5572   2.899   5.301  10.604  0.2801 -0.5084  0.2710
 1373W        W 5573   7.512   9.514   3.355  0.3649  0.1236  0.1019
 1374W        W 5574   3.354   1.408   4.251  0.0385  0.2752  0.1043
 1375W        W 5575   7.551   9.666  11.408 -0.0302 -0.0478  0.2690
 1376W        W 5576   4.562   1.160   1.808  0.0629  0.2373 -0.0293
 1377W        W 5577   9.046   2.680  11.254 -0.0933 -0.0066  0.1179
 1378W        W 5578   0.583   8.696  10.736  0.1056  0.1418  0.3346
 1379W        W 5579   6.648   9.123   1.180 -0.0606  0.1144  0.1945
 1380W        W 5580   6.506   0.169   4.028  0.1285  0.0045 -0.0794
 1381W        W 5581   6.740   5.778   2.855  0.1243  0.2611 -0.0888
 1382W        W 5582   1.190   9.716  11.201 -0.2326 -0.1718 -0.1618
 1383W        W 5583   4.948   3.567   3.052 -0.0449  0.1461 -0.0428
 1384W        W 5584   7.701   2.642  10.107 -0.3266  0.0450 -0.1383
 1385W        W 5585   3.647   2.640  12.543 -0.3200  0.0449  0.1830
 1386W        W 5586   6.942   4.449   3.706 -0.0275 -0.1721 -0.0989
 1387W        W 5587   7.704   5.780   0.617  0.3235  0.3294 -0.0664
 1388W        W 5588   8.993   1.086   4.087  0.2811  0.0947  0.0440
 1389W        W 5589   0.663   8.281  12.083 -0.2154  0.0258  0.2675
 1390W        W 5590   9.075   3.413   3.840  0.1186 -0.0106  0.1566
 1391W        W 5591   0.204   2.289   1.975 -0.2273  0.3055 -0.2881
 1392W        W 5592   9.496   5.571   3.145 -0.1234  0.0301 -0.1106
 1393W        W 5593   5.960   3.669   2.520 -0.0006 -0.3160  0.3687
 1394W        W 5594   1.575   2.347   0.320 -0.2071 -0.1152  0.0766
 1395W        W 5595   9.443   8.033   4.943 -0.1373 -0.0071  0.0666
 1396W        W 5596   3.942   0.699   9.515 -0.4181  0.0361  0.4290
 1397W        W 5597   4.527   2.613  11.210  0.2695  0.0720  0.3127
 1398W        W 5598   0.708   1.417   0.918 -0.0488 -0.2055  0.1057
 1399W        W 5599   7.239   7.886  10.819 -0.0370  0.0944 -0.0079
 1400W        W 5600  10.092   6.410   0.758  0.1340 -0.0453  0.0774
 1401W        W 5601   9.523   3.452   2.269 -0.1977  0.0023  0.0579
 1402W        W 5602   9.720   9.807   1.377  0.1741 -0.1475 -0.3432
 1403W        W 5603   9.577   6.340  12.259  0.2218  0.3708  0.2208
 1404W        W 5604   0.248   4.676  11.663  0.2760 -0.1325 -0.0897
 1405W        W 5605   4.868   4.537   2.675  0.0592 -0.2527  0.3678
 1406W        W 5606   7.926   7.455  10.321 -0.2006 -0.1029 -0.0090
 1407W        W 5607   0.733   0.464   4.036  0.3590 -0.2055  0.1257
 1408W        W 5608   1.151   4.625   0.474  0.0996 -0.0379  0.1225
 1409W        W 5609   6.650   2.010   3.764  0.0717  0.1812 -0.0303
 1410W        W 5610   1.158   7.495   9.766  0.0822 -0.0385 -0.0224
 1411W        W 5611   6.823   5.573   9.580  0.0852  0.0630  0.3319
 1412W        W 5612   0.317  10.187   2.253  0.2160 -0.2623 -0.1638
 1413W        W 5613   8.838   4.875   3.808  0.1657  0.0365  0.1372
 1414W        W 5614   9.715   0.661   0.795  0.3621  0.3208 -0.0306
 1415W        W 5615   9.396   4.728   3.838  0.1362 -0.0408  0.2747
 1416W        W 5616   2.542   7.948   1.356 -0.0378 -0.0523  0.3669
 1417W        W 5617   0.649   1.566   0.237  0.1210  0.1798 -0.0795
 1418W        W 5618   5.407   1.356   0.192 -0.0436  0.1576 -0.1272
 1419W        W 5619   3.717   3.588   9.692 -0.1279  0.1063  0.0926
 1420W        W 5620   5.856   8.929   3.756 -0.1350 -0.0606  0.1449
 1421W        W 5621   0.136   6.670  13.155  0.5076 -0.2666 -0.3921
 1422W        W 5622   7.844   3.986  11.131 -0.3396  0.0937  0.2606
 1423W        W 5623   3.879   5.639   2.105  0.0683 -0.1886  0.0164
 1424W        W 5624   9.483   6.811   4.153 -0.1113  0.1525  0.2165
 1425W        W 5625   2.498   3.060  10.352  0.2421  0.0378 -0.1336
 1426W        W 5626   7.967   7.947   9.114 -0.0016 -0.0007  0.0253
 1427W        W 5627   4.857   1.229   1.044 -0.4678  0.2040  0.0810
 1428W        W 5628   9.555   8.144   1.621  0.1394 -0.2067  0.0395
 1429W        W 5629   8.986   0.923  10.531 -0.4643 -0.0847 -0.0470
 1430W        W 5630   4.211   9.269   8.975 -0.0565 -0.1904  0.0129
 1431W        W 5631   8.132   1.170  12.279  0.2627  0.0658 -0.0269
 1432W        W 5632   5.287   7.294   3.527 -0.0464 -0.2834  0.0310
 1433W        W 5633   6.681   9.554   9.139  0.0574  0.1307  0.1865
 1434W        W 5634   5.361   9.361   2.433  0.2573 -0.1654 -0.1961
 1435W        W 5635   9.420   7.635  12.049  0.0953  0.2865 -0.0455
 1436W        W 5636   1.976   5.738  10.977 -0.3513  0.3582 -0.1183
 1437W        W 5637   2.365   1.364   4.467 -0.0343  0.2295  0.0247
 1438W        W 5638   3.000   9.697   8.310  0.7997 -0.0150 -0.2870
 1439W        W 5639   1.116   5.635  12.083 -0.0349 -0.0903  0.0623
 1440W        W 5640   3.534   8.031  12.494 -0.0624 -0.0567  0.1047
 1441W        W 5641   2.450   1.074   9.325 -0.0685 -0.0238  0.1083
 1442W        W 5642   9.956   6.997   3.392  0.0353 -0.0940 -0.2865
 1443W        W 5643   5.171   8.735  11.024  0.2102  0.1407  0.0637
 1444W        W 5644   9.072   5.226  10.013  0.2736 -0.2414 -0.4051
 1445W        W 5645   1.018   7.161  10.582 -0.0170 -0.0039  0.1441
 1446W        W 5646   5.341   2.522   8.730 -0.0046  0.0308  0.0552
 1447W        W 5647   9.109   2.363   0.055  0.4041 -0.0724 -0.1133
 1448W        W 5648   1.560   1.938   9.050 -0.1695  0.1197  0.1404
 1449W        W 5649  10.454   5.071   1.584 -0.2845  0.0901 -0.1618
 1450W        W 5650   9.892   8.313  10.714  0.4361 -0.0440  0.0577
 1451W        W 5651   3.522   9.996   3.194 -0.5387  0.2058 -0.0486
 1452W        W 5652   7.775  10.245   3.734 -0.1542  0.0657 -0.0761
 1453W        W 5653   6.067  10.416   9.266 -0.1338 -0.2373 -0.0021
 1454W        W 5654   9.283   1.768   2.400  0.4703  0.3760  0.1330
 1455W        W 5655   6.378   1.236  11.983 -0.3371  0.2303  0.2866
 1456W        W 5656   9.877   9.870  13.233  0.0680  0.2056 -0.2883
 1457W        W 5657   7.226   2.347   0.961  0.0265 -0.1428 -0.0249
 1458W        W 5658   5.304   2.453  12.776  0.1200  0.3142  0.0070
 1459W        W 5659   1.064   6.730   1.213 -0.0471 -0.1543 -0.1670
 1460W        W 5660   0.429   2.391   4.285 -0.0395  0.0679 -0.1385
 1461W        W 5661   6.378   1.144   2.900 -0.1809  0.0419  0.1705
 1462W        W 5662   9.829   4.841  10.546  0.0123  0.0051  0.0174
 1463W        W 5663   9.210   7.533  11.197  0.1225  0.2402 -0.2657
 1464W        W 5664   5.219   6.588   3.511 -0.0083 -0.3422 -0.1237
 1465W        W 5665   4.882   0.516   9.425  0.0986  0.0402  0.1769
 1466W        W 5666   4.277   4.501  11.105  0.1847  0.3203  0.0969
 1467W        W 5667  10.034   7.885   1.687  0.1503 -0.2124 -0.3844
 1468W        W 5668   2.578   4.769  12.418  0.2466 -0.0915  0.0488
 1469W        W 5669   0.312   3.986  10.386 -0.2344 -0.4922 -0.0561
 1470W        W 5670   7.634   4.421  11.126  0.2404  0.1056 -0.0132
 1471W        W 5671   7.690   3.877   9.749  0.1649 -0.1197 -0.4051
 1472W        W 5672   4.584   8.245  10.055  0.1335  0.2705 -0.4024
 1473W        W 5673  10.417   4.507   9.207 -0.1955 -0.1810  0.0029
 1474W        W 5674   8.272   1.690   2.702  0.0890  0.1631  0.0701
 1475W        W 5675  10.061   8.163   0.869 -0.0014  0.0567 -0.2401
 1476W        W 5676   5.554   5.952   4.084 -0.1801 -0.1298 -0.1660
 1477W        W 5677   0.191   8.406  10.366 -0.0268  0.3791 -0.0935
 1478W        W 5678   3.176   8.794   0.483 -0.1724  0.1982  0.3938
 1479W        W 5679   4.933  10.115   4.484 -0.1890  0.0497  0.0411
 1480W        W 5680   1.991   8.761   9.424 -0.0167 -0.3011  0.0543
 1481W        W 5681   7.275   7.965   2.456  0.0978  0.0610 -0.0513
 1482W        W 5682   8.235   3.336   0.405 -0.2296  0.1633 -0.0825
 1483W        W 5683   8.350   6.080   1.141  0.1725  0.0559  0.5331
 1484W        W 5684   4.412   1.999   0.747 -0.1044 -0.0631 -0.1783
 1485W        W 5685   7.733   4.587   2.474  0.0436 -0.2700  0.1815
 1486W        W 5686   6.616   6.390   0.671 -0.2176 -0.1113  0.1320
 1487W        W 5687   0.198   6.337   2.438  0.0275  0.2200 -0.2558
 1488W        W 5688   7.479  10.067   1.574 -0.0088 -0.1749  0.0681
 1489W        W 5689   4.332   7.919  12.714  0.1563 -0.2148 -0.0171
 1490W        W 5690   1.996   1.296   1.842 -0.2023 -0.2123  0.0423
 1491W        W 5691   2.009   0.253  11.705  0.0781  0.0881  0.0486
 1492W        W 5692   6.407  10.517   4.512 -0.2073 -0.2122  0.0049
 1493W        W 5693  10.524   2.546  12.377 -0.1441 -0.0585  0.3421
 1494W        W 5694  10.337   8.509   1.757  0.1171 -0.1241  0.1266
 1495W        W 5695   7.135   5.216  11.035  0.1836  0.0885 -0.2539
 1496W        W 5696   4.685   4.843  12.245  0.1860  0.1522 -0.2796
 1497W        W 5697   7.867   8.659  11.917  0.0948  0.0977 -0.1078
 1498W        W 5698   0.134   8.153   3.371 -0.2203  0.3556  0.2404
 1499W        W 5699   7.324   1.156   2.066  0.3108  0.1572 -0.2361
 1500W        W 5700   3.260   8.515  10.547  0.0344  0.1903 -0.0010
 1501W        W 5701   7.913   8.397   3.632 -0.1227  0.1451 -0.2752
 1502W        W 5702   1.874   0.920   1.582 -0.0361  0.1445  0.2769
 1503W        W 5703   5.161   6.701   4.170  0.0960  0.0409  0.4671
 1504W        W 5704   8.689   2.936   9.684  0.1164 -0.1442 -0.1628
 1505W        W 5705   6.168   4.231   0.649 -0.2125 -0.1283 -0.2464
 1506W        W 5706   9.300   0.374   3.087 -0.2381 -0.2902  0.0516
 1507W        W 5707  10.173   3.505   1.831  0.2075  0.0374  0.0577
 1508W        W 5708   3.839   5.484   2.610 -0.3700 -0.1661 -0.0749
 1509W        W 5709   7.442  10.140   3.238 -0.1379 -0.2126  0.1752
 1510W        W 5710   8.902   7.162  11.328  0.0234  0.3338  0.3628
 1511W        W 5711   5.708  10.256  13.292  0.2716 -0.1484  0.1318
 1512W        W 5712   4.249   2.148   1.587  0.1134  0.0818  0.0924
 1513W        W 5713   3.103   2.210   0.472 -0.0134  0.1280 -0.0606
 1514W        W 5714   7.147   6.566   2.027 -0.0277 -0.0409  0.1397
 1515W        W 5715   1.373   4.608   9.546  0.0347  0.3059 -0.1287
 1516W        W 5716   1.977   7.249   1.310  0.2395  0.3099  0.1927
 1517W        W 5717   1.719   4.661  12.187  0.2579  0.1174 -0.1253
 1518W        W 5718   7.936   2.612   0.291  0.3435 -0.0272  0.2025
 1519W        W 5719   5.693   7.683   9.464  0.3616 -0.2148 -0.0772
 1520W        W 5720   4.699   2.218   1.697  0.1651  0.0211  0.1171
 1521W        W 5721   6.508   2.951   0.914  0.1032 -0.0375 -0.0584
 1522W        W 5722   2.086   4.470   3.551 -0.1654 -0.3720  0.1535
 1523W        W 5723   3.313   3.936  12.969  0.2343  0.1994 -0.0968
 1524W        W 5724   9.452   1.069   9.539  0.3046  0.0776  0.0110
 1525W        W 5725   2.770  10.179   3.887  0.0676 -0.0179 -0.0755
 1526W        W 5726   4.112   8.082  10.147 -0.1639 -0.2110  0.0680
 1527W        W 5727   8.684   0.524   0.761 -0.0916  0.0231 -0.0327
 1528W        W 5728   4.198   6.462   2.753  0.1367  0.2017  0.0753
 1529W        W 5729   8.121   0.020   2.157  0.1012 -0.0110 -0.3368
 1530W        W 5730  10.028   8.583   4.317  0.2216  0.1336  0.2442
 1531W        W 5731  10.037   3.177  10.938 -0.3721 -0.0506  0.1022
 1532W        W 5732   8.043   1.119   1.069  0.0321  0.3772  0.1331
 1533W        W 5733   7.207   1.163  13.239  0.1541 -0.2568  0.0405
 1534W        W 5734   8.866   2.250   0.948  0.0654  0.0784  0.1943
 1535W        W 5735   6.991   6.732   0.382  0.2691 -0.1441  0.1656
 1536W        W 5736   6.357   4.517   9.915 -0.0572  0.1190  0.0783
 1537W        W 5737   0.768   1.089   1.262  0.0645 -0.1879  0.1461
 1538W        W 5738   6.868   7.183   0.107 -0.0139  0.0525 -0.0675
 1539W        W 5739   2.328   6.085   9.690  0.1162  0.0431  0.0828
 1540W        W 5740   4.716   7.275   1.439 -0.0317  0.0998 -0.1916
 1541W        W 5741   7.289   7.803   4.938 -0.0715 -0.0127 -0.2054
 1542W        W 5742   7.180   1.554  11.167 -0.0328  0.0938 -0.1714
 1543W        W 5743   6.253   6.167   0.298  0.1134 -0.1537  0.0376
 1544W        W 5744   6.287   6.556   1.614  0.1309  0.0732  0.0422
 1545W        W 5745   5.762   8.459   1.264 -0.2200  0.0692 -0.4041
 1546W        W 5746   7.220   1.983  10.566  0.2295  0.2313 -0.1342
 1547W        W 5747   6.172   9.192   0.932 -0.0359  0.0790  0.3512
 1548W        W 5748   9.334   6.790   9.285  0.0051  0.0280 -0.1193
 1549W        W 5749   9.127   9.720   8.647  0.1996  0.2535 -0.0754
 1550W        W 5750   7.230   3.992   3.784 -0.0759  0.0413  0.1394
 1551W        W 5751   4.773   2.746   2.905  0.3682  0.3621 -0.1631
 1552W        W 5752   1.142   0.230   8.527  0.2584 -0.1110  0.2778
 1553W        W 5753   5.398   0.793   0.316 -0.1591 -0.0340  0.0052
 1554W        W 5754   2.733  10.100   9.899  0.0716  0.2152  0.1695
 1555W        W 5755   4.323   2.281   2.105 -0.2314 -0.4121 -0.3575
 1556W        W 5756   9.888   7.696   0.506  0.2536  0.4519  0.0164
 1557W        W 5757   2.304   2.931   3.745  0.0980 -0.1178 -0.0603
 1558W        W 5758   1.551   1.127  10.796  0.2732  0.1644  0.1103
 1559W        W 5759   7.179   8.417   9.401 -0.1847  0.2839 -0.0543
 1560W        W 5760   9.765   0.790  10.123 -0.0257  0.0593 -0.3455
 1561W        W 5761   4.301   0.339  12.363  0.0163 -0.0256 -0.0567
 1562W        W 5762   5.350   7.427   8.534  0.2886  0.2437 -0.0676
 1563W        W 5763   7.419   3.341  12.214 -0.2328 -0.1353 -0.1989
 1564W        W 5764   9.942   4.025  10.985 -0.1536  0.1268 -0.2130
 1565W        W 5765   3.923   5.316   9.526 -0.1302 -0.0788 -0.0486
 1566W        W 5766   5.996   8.696  12.115  0.2936 -0.0747 -0.0295
 1567W        W 5767   0.889   4.354   1.740  0.0335  0.0827  0.1139
 1568W        W 5768   6.831   4.387   8.926  0.0098 -0.0778  0.0112
 1569W        W 5769   6.710   6.795   3.954  0.2708 -0.0305  0.1924
 1570W        W 5770   1.716   8.622  11.883  0.2047 -0.2114 -0.1717
 1571W        W 5771   9.479   0.363  10.133  0.0956 -0.0925  0.0224
 1572W        W 5772   9.087  10.204  12.707 -0.1312 -0.0817  0.1010
 1573W        W 5773   0.786   1.892   3.475 -0.2946  0.1862 -0.1106
 1574W        W 5774   4.547   9.560   9.995 -0.3094  0.0796  0.1730
 1575W        W 5775   0.598   0.483   9.970 -0.0585  0.2195  0.0703
 1576W        W 5776   4.293   6.350   4.335  0.0771 -0.0860 -0.1115
 1577W        W 5777   5.346   6.601  11.976 -0.2563 -0.1965 -0.0907
 1578W        W 5778   2.438   3.379  12.397 -0.0495 -0.0358 -0.1565
 1579W        W 5779   7.234   2.975   8.285  0.0495 -0.3163 -0.1411
 1580W        W 5780   4.391   9.503  11.733 -0.0616  0.1310  0.0845
 1581W        W 5781   1.157   6.686   0.226  0.2793  0.1295 -0.4668
 1582W        W 5782   1.241   8.452  12.076  0.0643 -0.0414 -0.1447
 1583W        W 5783   7.056   7.096   3.700  0.1213  0.0324 -0.0724
 1584W        W 5784   4.695   2.808   3.427  0.1794  0.1380  0.1396
 1585W        W 5785  10.063   7.525   8.463  0.0132  0.1063  0.0486
 1586W        W 5786   8.203   9.259   1.740 -0.1725  0.1987 -0.0184
 1587W        W 5787   6.333   2.754   1.423 -0.1097  0.2852  0.1691
 1588W        W 5788   8.188   2.419  10.410 -0.1063  0.0716  0.0587
 1589W        W 5789   0.639   1.543  11.851  0.1659 -0.0466 -0.3127
 1590W        W 5790   6.262   1.442   4.793  0.1544  0.2935 -0.0275
 1591W        W 5791   9.959   9.669  12.735  0.0402  0.2090  0.2866
 1592W        W 5792   0.307   0.638  11.532  0.1933 -0.0542 -0.2178
 1593W        W 5793   0.606   3.033   9.596 -0.2287 -0.3640 -0.0349
 1594W        W 5794   1.384   9.932  10.792 -0.5068  0.0795 -0.1692
 1595W        W 5795   8.146   2.471   9.007  0.0955 -0.2555  0.0935
 1596W        W 5796   6.357   1.886   0.903 -0.3087  0.1725 -0.0696
 1597W        W 5797   4.535   1.445  11.515 -0.0166 -0.0849 -0.0316
 1598W        W 5798   1.105   1.373   1.485  0.0354  0.1155 -0.1946
 1599W        W 5799   5.154   6.431   0.159  0.1186  0.1197  0.2787
 1600W        W 5800   1.203   0.365  11.396 -0.2268  0.0476  0.1703
 1601W        W 5801   5.871   2.554   9.937 -0.1707  0.0082 -0.1821
 1602W        W 5802   7.694   1.093   9.996  0.0849  0.0591 -0.2359
 1603W        W 5803   1.547   7.085  10.472 -0.1654  0.2819 -0.1384
 1604W        W 5804   6.232  10.029   0.747  0.2818  0.1566 -0.0617
 1605W        W 5805   8.596  10.478  11.398 -0.2205  0.0781  0.1312
 1606W        W 5806   1.391   6.241   2.883 -0.0814  0.0914 -0.0865
 1607W        W 5807   5.380   7.016  12.291  0.0273 -0.1963  0.1275
 1608W        W 5808   3.047   8.965   2.351  0.2556  0.1250 -0.2558
 1609W        W 5809   4.651   3.306   3.452  0.1531 -0.0949 -0.1908
 1610W        W 5810   7.291   1.917   0.424 -0.0929 -0.3059  0.0434
 1611W        W 5811   4.796   5.831   3.755 -0.0506 -0.2689  0.0516
 1612W        W 5812   9.580   6.794   9.700  0.0130  0.1547 -0.0024
 1613W        W 5813  10.013   0.698  11.681  0.1401  0.0479  0.0584
 1614W        W 5814   5.344   5.373   2.196 -0.4205 -0.0155 -0.0520
 1615W        W 5815   3.431   7.595   0.250  0.0206  0.0090  0.3060
 1616W        W 5816   6.671   0.815   2.725  0.1516 -0.3222 -0.2222
 1617W        W 5817   7.361   3.200   9.545 -0.1185  0.0295  0.0415
 1618W        W 5818   6.810  10.067   2.801 -0.0328 -0.0915  0.0189
 1619W        W 5819   1.554   8.576   0.628  0.2545 -0.0957  0.3720
 1620W        W 5820   7.915   7.811   9.932  0.4386 -0.1052 -0.1040
 1621W        W 5821   4.709   0.032   4.395  0.2739 -0.0659  0.1067
 1622W        W 5822   1.290   8.023   1.178 -0.0150 -0.2686 -0.2856
 1623W        W 5823   5.290   7.850   4.145  0.2120  0.2881  0.0141
 1624W        W 5824   7.795  10.511  10.252 -0.0639  0.3182  0.3407
 1625W        W 5825   0.732   9.580   3.259  0.0081 -0.3284 -0.2384
 1626W        W 5826   7.401   9.600   4.474 -0.0198 -0.1236 -0.1315
 1627W        W 5827   6.486   8.600  12.302  0.1114  0.0922 -0.3640
 1628W        W 5828   9.832   8.877  12.841 -0.0806  0.1508 -0.2282
 1629W        W 5829  10.182   2.848   9.392 -0.2903 -0.1313  0.1038
 1630W        W 5830   8.992   0.658   2.011  0.0204  0.3114  0.1694
 1631W        W 5831   4.900   9.828   0.979 -0.0437 -0.1124 -0.0719
 1632W        W 5832   7.610   3.303   8.375  0.1254  0.0612 -0.0786
 1633W        W 5833   5.559   0.591   1.140 -0.1735  0.4222 -0.2808
 1634W        W 5834   5.593   6.041   8.640 -0.1939 -0.1383  0.0701
 1635W        W 5835   7.249   5.496   1.477  0.3230 -0.1155 -0.1101
 1636W        W 5836   8.498   0.924   3.369  0.1088 -0.1470 -0.4141
 1637W        W 5837   4.758   8.095  12.533 -0.0183  0.0337  0.1245
 1638W        W 5838   8.536   3.645   3.806  0.2137  0.2384 -0.0916
 1639W        W 5839   7.170   6.699   3.991 -0.0861  0.1271 -0.2056
 1640W        W 5840   1.445   4.478  10.146  0.0734  0.1048  0.2776
 1641W        W 5841   6.939   9.973   3.463  0.0697  0.1642  0.2437
 1642W        W 5842   9.889   4.682   2.242 -0.1416  0.0303  0.1255
 1643W        W 5843   2.161   5.964   3.646  0.0107 -0.0186  0.0985
 1644W        W 5844   1.109   9.895   0.065 -0.2119 -0.1092 -0.0353
 1645W        W 5845   1.070   1.614  11.059  0.0224 -0.0267  0.1030
 1646W        W 5846   7.882   7.106  10.777 -0.1697  0.0400 -0.4453
 1647W        W 5847   6.433   3.572  11.942 -0.2545 -0.2195  0.1824
 1648W        W 5848   9.595   2.640  11.234  0.1973 -0.0649  0.2607
 1649W        W 5849   9.545   1.059  12.499 -0.1054  0.1945  0.3023
 1650W        W 5850   8.184   4.445   2.209 -0.0624  0.1174 -0.3507
 1651W        W 5851   8.404   4.263  11.694 -0.0645  0.1165 -0.3620
 1652W        W 5852   3.251   7.199   2.528 -0.1609  0.1517  0.1892
 1653W        W 5853   8.161   4.434   0.436 -0.0121  0.1278  0.1792
 1654W        W 5854   5.075   8.369   3.405 -0.0091 -0.0438 -0.1081
 1655W        W 5855   9.638   2.089   9.984 -0.0177 -0.4298 -0.1782
 1656W        W 5856   0.418   8.665  12.250  0.2657 -0.3902  0.2336
 1657W        W 5857   8.049   7.331   9.134 -0.1043 -0.0152  0.1884
 1658W        W 5858   1.417   7.131   2.937  0.4434  0.2087 -0.3159
 1659W        W 5859   8.209  10.457  12.968  0.1259 -0.0845  0.3094
 1660W        W 5860   4.584   6.957   0.625 -0.3078  0.1342  0.0441
 1661W        W 5861   3.934   2.043   1.954 -0.1179 -0.1659  0.0514
 1662W        W 5862   5.746  10.134   9.817  0.2644  0.0918  0.3155
 1663W        W 5863   9.837   5.881   2.915  0.0204 -0.0508  0.2061
 1664W        W 5864   2.502   8.444   1.828  0.0315  0.0629  0.1208
 1665W        W 5865   4.657   9.451  13.314  0.1633  0.1329 -0.1281
 1666W        W 5866   1.896   2.712   0.648 -0.2035 -0.2511  0.2200
 1667W        W 5867   1.992   6.375   0.156  0.0213 -0.0204  0.0431
 1668W        W 5868  10.241   2.645  13.267  0.4953  0.0594 -0.0307
 1669W        W 5869   0.391   5.463   1.509 -0.4493  0.0401 -0.1112
 1670W        W 5870   2.692   2.334   0.226 -0.0566 -0.3632  0.1429
 1671W        W 5871   0.556   6.744   1.175  0.1149 -0.0688  0.2009
 1672W        W 5872   0.903   7.788   2.286 -0.1042 -0.1080 -0.2189
 1673W        W 5873   6.134   2.975  12.864 -0.0436  0.0811 -0.1088
 1674W        W 5874   6.571  10.242   3.242  0.3896 -0.1701  0.5008
 1675W        W 5875   0.530   2.068  10.907 -0.1146  0.3061  0.0212
 1676W        W 5876   3.729  10.166  12.576  0.1856  0.0944  0.0644
 1677W        W 5877   7.729   7.084  12.376  0.0305 -0.0546  0.1327
 1678W        W 5878   1.287   8.862  11.605  0.2860  0.2971 -0.0098
 1679W        W 5879   2.003   7.725  11.774  0.1004  0.0764  0.1340
 1680W        W 5880   6.619   9.078   0.645 -0.2246  0.1194  0.0063
 1681W        W 5881   3.802   1.564   0.850  0.0057  0.3713 -0.0080
 1682W        W 5882  10.406   1.260   9.137  0.0765  0.0664 -0.1998
 1683W        W 5883   2.831   7.821  13.001 -0.2978  0.0530  0.2744
 1684W        W 5884   9.389  10.151  10.511  0.3195  0.0519  0.3502
 1685W        W 5885   5.983   4.338   0.099  0.0546  0.0538 -0.0156
 1686W        W 5886   9.648   0.676   1.289 -0.2239  0.0054 -0.0825
 1687W        W 5887   3.682   5.509   0.870  0.0593  0.0272  0.0082
 1688W        W 5888   9.001   7.290   8.652 -0.2293  0.0781 -0.0576
 1689W        W 5889   1.665   3.359  11.861 -0.1677 -0.1667  0.1532
 1690W        W 5890   6.326   0.638   3.203 -0.2017 -0.0035 -0.0628
 1691W        W 5891   4.502   4.197   3.295 -0.0382 -0.1631 -0.1621
 1692W        W 5892   2.289   9.712   2.011 -0.1002 -0.1322  0.0597
 1693W        W 5893   6.132   6.190   2.290 -0.2675  0.1202  0.1469
 1694W        W 5894   1.947   5.605   0.502 -0.1623 -0.1327  0.1769
 1695W        W 5895   0.582   2.603   8.980  0.5318  0.3184  0.1165
 1696W        W 5896   3.338   7.771   0.951  0.3328  0.0898 -0.0861
 1697W        W 5897   7.074   7.390  10.840 -0.0574  0.2043 -0.1906
 1698W        W 5898   5.598   8.208   9.656  0.1575 -0.1047  0.1073
 1699W        W 5899   2.405   5.393   9.575  0.1578 -0.0553  0.1831
 1700W        W 5900   0.279   5.972   9.570  0.1189  0.3044  0.0603
 1701W        W 5901   6.468   3.093  10.658  0.1250  0.1680  0.1598
 1702W        W 5902   8.842   2.445  12.369 -0.0787 -0.1107  0.0977
 1703W        W 5903   1.240   4.993   1.478 -0.0094 -0.0138 -0.0074
 1704W        W 5904   5.342   4.957   3.846  0.0112  0.0781  0.2735
 1705W        W 5905   9.208   0.114  11.557  0.1564  0.0008 -0.0399
 1706W        W 5906   9.274  10.108   1.531  0.0721  0.1692 -0.0047
 1707W        W 5907   4.418   3.436   0.813 -0.0110  0.0397 -0.0763
 1708W        W 5908   5.800   9.353   1.214 -0.3642 -0.0671  0.1053
 1709W        W 5909   5.644   0.033   1.015  0.1498  0.3805  0.0699
 1710W        W 5910   2.241   1.775  11.187 -0.0181  0.3167  0.0836
 1711W        W 5911   5.908   7.327  11.708 -0.0790  0.2790 -0.4939
 1712W        W 5912   9.519   3.559   4.555 -0.4110  0.0133  0.2794
 1713W        W 5913   8.542   4.472   3.320 -0.2085 -0.2231  0.0398
 1714W        W 5914   8.719   3.931   3.477  0.1613  0.0054  0.2336
 1715W        W 5915   7.725   2.011   3.239 -0.1330  0.1568 -0.1991
 1716W        W 5916   7.040   3.273   2.078 -0.0134  0.1945 -0.2175
 1717W        W 5917   8.753   4.169   2.356  0.1899  0.1770 -0.1952
 1718W        W 5918   9.565   7.487   2.592 -0.1028 -0.1055  0.1473
 1719W        W 5919   8.640   2.326   4.382  0.2762 -0.2031  0.1161
 1720W        W 5920   7.251   5.345   8.266 -0.1847  0.1004  0.0634
 1721W        W 5921   2.106   4.593  13.116  0.0210  0.0058 -0.3803
 1722W        W 5922   9.424   4.189  10.800 -0.2000 -0.0026 -0.2096
 1723W        W 5923   3.227   9.117   0.845 -0.3372 -0.0889 -0.1381
 1724W        W 5924   7.635   8.332   1.418 -0.0870 -0.0289  0.0653
 1725W        W 5925   6.903   5.704   2.377 -0.2627 -0.2192 -0.1436
 1726W        W 5926   7.754   9.431   2.820  0.1193  0.1012  0.0113
 1727W        W 5927   0.150   0.472   1.553 -0.2011 -0.0886 -0.2393
 1728W        W 5928   8.500   9.972  10.689 -0.1364  0.2249 -0.2130
 1729W        W 5929   6.533   3.826   2.704 -0.1198  0.1137  0.0191
 1730W        W 5930   7.478   4.424   9.812  0.1728 -0.0740  0.1929
 1731W        W 5931   9.517   7.396  10.124  0.1757  0.1737 -0.1806
 1732W        W 5932  10.296   7.416  12.076 -0.1421 -0.2639  0.0525
 1733W        W 5933   3.062   7.091  11.046 -0.1451  0.0999  0.1341
 1734W        W 5934   9.420   9.008  10.029  0.2201  0.3179 -0.1051
 1735W        W 5935   0.265   8.689   0.703  0.2572  0.0250  0.1740
 1736W        W 5936   7.806   9.675   0.601 -0.0660  0.2037  0.0746
 1737W        W 5937   6.786   8.195  12.490  0.0571 -0.0506  0.3876
 1738W        W 5938   4.584   0.635   2.565  0.2559 -0.3519 -0.1177
 1739W        W 5939   8.473   5.423   1.383 -0.3265  0.1301  0.1727
 1740W        W 5940   9.034   2.640   1.269 -0.2088  0.2158  0.6689
 1741W        W 5941   5.820   7.332  12.238 -0.3304 -0.2980  0.1640
 1742W        W 5942   6.799   3.935   3.519  0.1871 -0.1461  0.0042
 1743W        W 5943   5.894   4.448   9.100 -0.1874  0.1304 -0.1919
 1744W        W 5944   3.653   5.028  12.962 -0.0798  0.1364 -0.0279
 1745W        W 5945   5.062   1.657   1.914 -0.2363 -0.2312  0.1682
 1746W        W 5946   8.108   5.146  12.111 -0.0087 -0.2373 -0.0745
 1747W        W 5947   2.632   9.643   1.592  0.0356 -0.0551 -0.1327
 1748W        W 5948   6.297   9.412  12.681  0.0063 -0.1267  0.2353
 1749W        W 5949   2.668   2.418  12.040  0.1535 -0.0287 -0.0310
 1750W        W 5950   9.896   6.876   1.865  0.0897  0.0405  0.0974
 1751W        W 5951   8.569   6.296  10.291 -0.2759 -0.0473 -0.0223
 1752W        W 5952   3.069   5.926   9.755  0.3114  0.2357  0.2894
 1753W        W 5953   1.803   9.178   4.140 -0.0746 -0.1978 -0.0176
 1754W        W 5954   5.922   8.253   3.038 -0.0077  0.1163  0.3750
 1755W        W 5955   0.684   2.823   4.172 -0.0593 -0.0293 -0.0983
 1756W        W 5956   6.256   9.729   9.986 -0.0205 -0.2193  0.4427
 1757W        W 5957   5.697   7.208   1.240  0.2194 -0.1605  0.0549
 1758W        W 5958   9.757   5.901  10.847  0.1877 -0.0125  0.0074
 1759W        W 5959   5.831   7.841   3.388  0.1591 -0.1590  0.3502
 1760W        W 5960   6.154   3.285   4.091  0.3615 -0.1248 -0.0234
 1761W        W 5961   1.538   3.195   0.535  0.0544 -0.2213 -0.1821
 1762W        W 5962   7.050   3.266  12.815 -0.1019 -0.0493  0.1222
 1763W        W 5963   6.858   6.295   3.765  0.1873  0.0286 -0.0920
 1764W        W 5964   1.538   1.188  10.180  0.1160 -0.3026 -0.2091
 1765W        W 5965   2.160   9.311  10.981 -0.1705 -0.2176  0.2853
 1766W        W 5966   0.536   0.190   3.617 -0.3009  0.3691 -0.1020
 1767W        W 5967   2.850   6.142  11.697 -0.2495 -0.2664 -0.5154
 1768W        W 5968   0.570   4.676   1.830  0.0945  0.4340 -0.1577
 1769W        W 5969   4.833   2.614   9.664 -0.0348  0.0642 -0.0321
 1770W        W 5970   8.100   4.772  13.262  0.0339  0.2342 -0.3841
 1771W        W 5971   9.853   5.180   0.076  0.2163 -0.0801  0.2133
 1772W        W 5972   3.728   2.126  12.943  0.0098  0.0043  0.2225
 1773W        W 5973   8.497   6.245   0.628 -0.2691  0.0817  0.1267
 1774W        W 5974   3.016   1.894  11.956 -0.0333  0.0612 -0.0938
 1775W        W 5975   6.176   7.636   9.022  0.1310 -0.2064 -0.1250
 1776W        W 5976   4.147  10.054   9.499 -0.1251 -0.3483  0.2475
 1777W        W 5977   0.436   0.516   2.114 -0.1199  0.0719 -0.0126
 1778W        W 5978  10.253   5.167   9.975  0.2421  0.1693  0.0533
 1779W        W 5979   5.570   5.777   2.544  0.0944 -0.1689 -0.0556
 1780W        W 5980   7.894   5.855   1.086 -0.0130 -0.0653  0.0352
 1781W        W 5981   8.679   6.941  10.883 -0.1345 -0.5849  0.0414
 1782W        W 5982   4.767   6.255   3.542 -0.1140 -0.4268  0.1492
 1783W        W 5983   6.330  10.347  11.759 -0.3324  0.1767 -0.0681
 1784W        W 5984   9.871   5.863  12.093 -0.1861 -0.1739 -0.1042
 1785W        W 5985   2.457   6.173  10.180  0.0852  0.1006 -0.3257
 1786W        W 5986   5.693   8.948   8.168 -0.0514 -0.0332 -0.0440
 1787W        W 5987   2.353   0.559   0.488 -0.3055 -0.1748 -0.0691
 1788W        W 5988   1.816   0.973   0.975  0.1981 -0.1418  0.2155
 1789W        W 5989   0.550   1.369   3.124  0.2670 -0.1758 -0.2896
 1790W        W 5990   2.898  10.354   9.050 -0.1070  0.1070 -0.0655
 1791W        W 5991   3.138   4.173   2.246  0.0034  0.0718 -0.0219
 1792W        W 5992   6.203   1.742   1.357 -0.2720 -0.1433  0.2399
 1793W        W 5993   6.343   6.599   3.662 -0.0086 -0.1136 -0.2383
 1794W        W 5994   9.425   8.806  10.773 -0.0697 -0.3521 -0.5950
 1795W        W 5995   2.638   7.238   0.393 -0.3340 -0.0724  0.1154
 1796W        W 5996   1.638   2.877   0.095 -0.1180  0.0179 -0.0921
 1797W        W 5997   8.214   6.957   1.129  0.0424 -0.1909  0.0587
 1798W        W 5998   2.502   9.415   0.126  0.0107  0.0377 -0.1434
 1799W        W 5999   9.195   6.186   1.774  0.3045 -0.2721 -0.1310
 1800W        W 6000   6.491   8.586   9.269  0.3580 -0.0447  0.6293
 1801W        W 6001   1.205   2.007   1.530 -0.0077 -0.0914  0.0902
 1802W        W 6002   1.637   7.725   9.935 -0.1721  0.1872  0.1707
 1803W        W 6003   9.303   0.521   4.556  0.0374 -0.1194  0.0505
 1804W        W 6004   3.513   0.170  12.700 -0.0438 -0.1169  0.2188
 1805W        W 6005   9.630   0.756  11.999 -0.1606 -0.0765  0.0547
 1806W        W 6006   0.548   0.447   0.641 -0.0191 -0.0790 -0.2203
 1807W        W 6007   4.655   4.500  10.337  0.1019 -0.2372  0.1191
 1808W        W 6008   3.381   8.902  12.190 -0.0539 -0.2960  0.1870
 1809W        W 6009   7.195   9.646   9.362 -0.3009 -0.0102 -0.0276
 1810W        W 6010   2.247   2.396   9.298  0.2218  0.2382  0.1999
 1811W        W 6011   8.285   6.729  11.100 -0.0153  0.0320 -0.1874
 1812W        W 6012   6.919   3.107  12.359 -0.1195 -0.1264  0.0905
 1813W        W 6013   4.796   3.591   1.219  0.1270 -0.1787  0.0533
 1814W        W 6014   2.003   7.768   3.295 -0.6133 -0.1697  0.0165
 1815W        W 6015   4.044   3.795   2.594 -0.1155 -0.3475 -0.3910
 1816W        W 6016   5.915   2.093   0.661  0.3813 -0.1312 -0.2570
 1817W        W 6017   8.850   4.735  10.688  0.3531  0.2475 -0.4073
 1818W        W 6018   8.797   8.735  13.022  0.0645 -0.1264 -0.0989
 1819W        W 6019   6.542   5.269   3.589 -0.4545 -0.2054 -0.1229
 1820W        W 6020   6.316  10.212  10.113  0.1324  0.2125 -0.0200
 1821W        W 6021   5.712   7.067  10.466 -0.0455 -0.0877  0.2892
 1822W        W 6022  10.196   7.413   0.847  0.0146  0.1475  0.0321
 1823W        W 6023   3.046   6.998   0.811 -0.1385 -0.1370  0.0542
 1824W        W 6024   4.777   2.380  12.963 -0.0576 -0.1107 -0.0059
 1825W        W 6025   5.348   1.662   2.399 -0.0654  0.1569 -0.2634
 1826W        W 6026   5.083   9.538   9.948 -0.0244 -0.1440 -0.0783
 1827W        W 6027   9.825   2.349   1.200 -0.1721 -0.3612 -0.1793
 1828W        W 6028  10.040   1.088   3.280 -0.1511  0.1986  0.1913
 1829W        W 6029   4.615   2.845  10.053  0.2832  0.2052  0.2735
 1830W        W 6030   9.294   5.559   9.697  0.1361  0.0574 -0.6816
 1831W        W 6031   8.834   2.734   0.828  0.1557  0.0503 -0.3463
 1832W        W 6032   6.658   7.945  12.094 -0.2837 -0.2246  0.0596
 1833W        W 6033  10.319   5.351   1.969 -0.4687 -0.1370  0.2510
 1834W        W 6034   7.037   6.727  12.654  0.1717  0.0232 -0.2800
 1835W        W 6035   2.243   1.643  10.379  0.0534 -0.1183 -0.0506
 1836W        W 6036   5.271   5.124  11.861 -0.3172 -0.2222  0.3689
 1837W        W 6037  10.458   4.892   0.089 -0.0124 -0.0321  0.1122
 1838W        W 6038   1.044   0.122  10.871  0.3760  0.1483  0.1882
 1839W        W 6039   8.595  10.067  12.154 -0.0185 -0.1130 -0.1912
 1840W        W 6040   6.950   1.229   3.940 -0.2048  0.3354  0.0500
 1841W        W 6041   3.685   5.674   3.056 -0.6228 -0.1884  0.2835
 1842W        W 6042   4.103   3.283   4.073 -0.0438 -0.1697 -0.1803
 1843W        W 6043   9.449   7.676   9.284  0.0442  0.1976 -0.1487
 1844W        W 6044   4.953   5.354   3.679 -0.0528 -0.0407 -0.0885
 1845W        W 6045   0.997   1.689  13.063  0.2932 -0.2001 -0.2581
 1846W        W 6046   7.937   1.952   1.666 -0.0757  0.1785  0.0738
 1847W        W 6047   1.829   3.217  10.961 -0.0372 -0.1823  0.2350
 1848W        W 6048   0.412   1.769   4.324  0.1357 -0.1484 -0.0766
 1849W        W 6049   7.003   7.135   2.105 -0.5681 -0.1872 -0.0219
 1850W        W 6050   2.758   1.638   3.381 -0.0016  0.1137 -0.0455
 1851W        W 6051   7.235   5.024   2.853 -0.1693 -0.1835 -0.4134
 1852W        W 6052   2.163   4.097  10.858 -0.1671  0.4568 -0.1922
 1853W        W 6053   6.620   4.071   2.160 -0.1743  0.0710  0.1038
 1854W        W 6054   8.116   7.786  11.281 -0.1837 -0.2075 -0.2253
 1855W        W 6055   7.111   6.356   0.674  0.1628  0.4204  0.3901
 1856W        W 6056   3.263   9.194   3.758 -0.3316 -0.1614 -0.0891
 1857W        W 6057   5.500   0.976   9.895 -0.1038 -0.5147 -0.0101
 1858W        W 6058   7.596   0.051   4.048  0.2501 -0.1963  0.6444
 1859W        W 6059   0.938   1.884  10.626 -0.1465 -0.0530 -0.1925
 1860W        W 6060   0.231   7.671   3.732  0.0832 -0.0103  0.0329
 1861W        W 6061   1.596   6.758  11.919  0.1574  0.0750  0.1536
 1862W        W 6062   1.410   1.761  12.533  0.0343  0.2769 -0.1931
 1863W        W 6063   5.853  10.145   3.549 -0.2341 -0.1138  0.0939
 1864W        W 6064   3.705   7.401  12.065 -0.1443  0.5389  0.0655
 1865W        W 6065   7.951   2.983  11.276  0.6931  0.0810 -0.0275
 1866W        W 6066   6.099   1.262   2.477 -0.0555  0.1337  0.0979
 1867W        W 6067   5.574   0.387   4.596 -0.0293 -0.2246 -0.0365
 1868W        W 6068   5.987   4.337  10.352 -0.0985 -0.3726  0.1580
 1869W        W 6069   6.626   9.680   3.114 -0.5801 -0.2177  0.1526
 1870W        W 6070   4.289   9.020  13.310 -0.0657  0.0372 -0.0636
 1871W        W 6071   9.527   9.210   3.083  0.1541  0.4382 -0.0769
 1872W        W 6072   3.851   8.687  13.233 -0.3881 -0.2279 -0.0047
 1873W        W 6073   6.404   6.788   0.418 -0.1685  0.0927  0.2341
 1874W        W 6074   6.624   1.528   3.707  0.0859 -0.1529 -0.2126
 1875W        W 6075   4.579   1.466   2.812 -0.0127  0.2523 -0.2556
 1876W        W 6076   1.608   9.130  10.228 -0.0763 -0.0758  0.2164
 1877W        W 6077   8.590   3.889   5.084  0.1587 -0.2039  0.4576
 1878W        W 6078   0.904  10.489   3.879 -0.0863 -0.0160  0.2177
 1879W        W 6079   9.345   0.252   2.551 -0.1915  0.2342 -0.1204
 1880W        W 6080   2.801   8.003   3.921  0.0475 -0.3416  0.0676
 1881W        W 6081   2.817   5.770  12.791  0.3664  0.0946 -0.2669
 1882W        W 6082   8.480   2.822   9.216 -0.0549  0.2891  0.1143
 1883W        W 6083   6.143   4.152   2.584 -0.0415  0.2550  0.3229
 1884W        W 6084   0.727   0.836   4.713 -0.0284 -0.4199 -0.2874
 1885W        W 6085   9.593   8.235   1.107 -0.3795 -0.1368  0.0081
 1886W        W 6086   8.773   0.002   8.795  0.2927 -0.0248  0.0886
 1887W        W 6087   8.140   1.814  12.814  0.0920  0.1268 -0.2465
 1888W        W 6088   7.858   0.324  13.059 -0.0697 -0.4263  0.0967
 1889W        W 6089   8.551   7.032   9.043  0.3263 -0.4331 -0.3385
 1890W        W 6090   0.489   3.925  11.591 -0.0423  0.0316  0.0044
 1891W        W 6091   7.613   5.327  11.259  0.2627 -0.2549  0.0082
 1892W        W 6092   6.102   5.885   4.312 -0.0899 -0.0693 -0.0155
 1893W        W 6093   4.127   0.644  11.130  0.2039 -0.0165 -0.1497
 1894W        W 6094   0.947   5.491   1.225 -0.0852 -0.0377 -0.0023
 1895W        W 6095   8.683   7.468   1.677 -0.1029 -0.1548 -0.0211
 1896W        W 6096   7.045   6.076   1.272 -0.1021  0.1695  0.1561
 1897W        W 6097   9.172   8.574  10.172 -0.1398  0.1744 -0.1409
 1898W        W 6098   1.521   9.807   0.464  0.3501  0.0311  0.0120
 1899W        W 6099   9.157   7.307   1.507 -0.0793  0.0124 -0.1182
 1900W        W 6100   0.478   9.923   1.214 -0.1697  0.0137 -0.2878
 1901W        W 6101   4.535   4.138  11.355 -0.3687 -0.0811 -0.0788
 1902W        W 6102   4.674   8.088  13.012 -0.1931 -0.1643 -0.0447
 1903W        W 6103   1.167   3.144   2.258  0.1893 -0.2525 -0.1235
 1904W        W 6104   3.876   6.316  12.822  0.3971  0.2975 -0.4930
 1905W        W 6105   8.556   6.294   3.928 -0.0319  0.2157 -0.1072
 1906W        W 6106   4.582   2.986   4.357 -0.2244  0.0175 -0.0430
 1907W        W 6107   7.625   3.549  11.176 -0.0605  0.3162  0.2078
 1908W        W 6108   8.645  10.517  11.910  0.0720 -0.2674 -0.1163
 1909W        W 6109   2.117   6.901  10.636  0.0345 -0.3681 -0.4180
 1910W        W 6110  10.398   1.184   2.256  0.2145 -0.0661  0.0331
 1911W        W 6111   1.800   0.660  10.866  0.0343  0.0707 -0.1729
 1912W        W 6112   0.638   3.034   1.578 -0.2704  0.1763 -0.1131
 1913W        W 6113   7.751   2.153   0.172  0.3089 -0.2448 -0.0121
 1914W        W 6114   0.045   6.201   0.515  0.2175 -0.0170 -0.0178
 1915W        W 6115   4.200   6.966   9.068  0.3158  0.1945  0.0823
 1916W        W 6116   9.539   7.869   2.207  0.3086 -0.3127 -0.1866
 1917W        W 6117   4.764   4.778   1.767 -0.1901 -0.1287 -0.2287
 1918W        W 6118   1.187   5.584  11.508  0.1275  0.1940 -0.0016
 1919W        W 6119   6.603   8.960  11.401 -0.1255  0.1372  0.3541
 1920W        W 6120   5.082   3.642   4.401 -0.1107 -0.0607 -0.0638
 1921W        W 6121  10.333   4.087  11.319 -0.1998  0.1749 -0.0925
 1922W        W 6122   5.491   5.599   9.139 -0.1894 -0.2079  0.0788
 1923W        W 6123   8.616   8.202  11.295  0.2289 -0.0501  0.1659
 1924W        W 6124   4.301   4.268  10.024 -0.0697 -0.3907  0.0004
 1925W        W 6125   7.313   2.281  12.554  0.2403  0.3207  0.1133
 1926W        W 6126   4.914   9.906  13.256  0.1479  0.0014 -0.4574
 1927W        W 6127   6.097   0.699   9.134 -0.0952  0.0101  0.0249
 1928W        W 6128   7.362   0.142   2.856 -0.1915 -0.3140  0.2852
 1929W        W 6129   2.707   5.125  12.843  0.1785 -0.0992  0.3947
 1930W        W 6130   5.572   2.989   1.181 -0.1554 -0.1171 -0.0046
 1931W        W 6131   5.444   4.067   4.614  0.0857 -0.0288 -0.0072
 1932W        W 6132   9.051   0.826   9.263 -0.3686  0.1748  0.4259
 1933W        W 6133   1.246  10.499   2.454 -0.1258 -0.0447  0.1975
 1934W        W 6134   9.949  10.441  12.221 -0.0763 -0.1048  0.0975
 1935W        W 6135  10.399   0.806   2.977  0.0350  0.5011  0.1206
 1936W        W 6136   9.960   8.998   3.102  0.2542 -0.0624 -0.0793
 1937W        W 6137  10.039   0.140   4.190 -0.0874  0.5041 -0.1205
 1938W        W 6138   5.473   5.546   0.409  0.2254 -0.0877 -0.2891
 1939W        W 6139   9.177   9.931  12.138  0.0648  0.4705  0.0911
 1940W        W 6140   0.242   3.601   1.730  0.1155  0.0613 -0.0949
 1941W        W 6141   4.493   0.611   3.675  0.2695 -0.0292  0.2169
 1942W        W 6142   4.682   6.483   2.623 -0.0067 -0.0703  0.1395
 1943W        W 6143   4.036   7.149  13.269  0.0047 -0.0532 -0.1438
 1944W        W 6144   4.025   5.961   3.273 -0.1008  0.1189  0.1608
 1945W        W 6145   5.645   6.033   9.416 -0.0880 -0.2737  0.1961
 1946W        W 6146   3.631  10.202   2.228 -0.0588  0.3578  0.0843
 1947W        W 6147   2.961   6.021   1.444  0.3584  0.4168  0.0868
 1948W        W 6148   3.963   4.599  11.998 -0.0241 -0.0288 -0.2504
 1949W        W 6149   5.292   8.692   3.755 -0.0218 -0.2071 -0.4932
 1950W        W 6150  10.108   0.853   1.139 -0.0654  0.1767 -0.3775
 1951W        W 6151   7.217   5.139   0.270  0.0552  0.0500 -0.2924
 1952W        W 6152   4.672   7.241   3.390  0.2358 -0.1081 -0.3019
 1953W        W 6153  10.431   7.064  13.288 -0.0132  0.0118 -0.2074
 1954W        W 6154   6.309   7.386   3.004 -0.1440 -0.3250 -0.1794
 1955W        W 6155   4.691   6.188  10.330 -0.1066 -0.0901 -0.1218
 1956W        W 6156   3.737   1.837  10.962  0.0597  0.2050 -0.1605
 1957W        W 6157   2.079   6.289   1.421  0.0561  0.0873 -0.2338
 1958W        W 6158   7.195   5.654   0.465 -0.1388  0.1914 -0.1123
 1959W        W 6159   8.108   0.026  10.662 -0.1584  0.0764 -0.0343
 1960W        W 6160   2.794   3.338  12.042  0.2157 -0.1406  0.1959
 1961W        W 6161   1.728   4.959   2.855  0.3638  0.0021  0.0376
 1962W        W 6162   8.972   9.955   9.501 -0.0595 -0.2035 -0.0432
 1963W        W 6163   2.976   0.064   0.289  0.1630 -0.3579  0.0304
 1964W        W 6164   6.260   6.830  12.386 -0.1070  0.0119  0.0271
 1965W        W 6165   5.945   9.707  13.186  0.1463  0.1389  0.0783
 1966W        W 6166   8.653   4.449  12.164  0.0578 -0.0580 -0.1693
 1967W        W 6167   6.189   2.799  10.941  0.2585  0.2437  0.4019
 1968W        W 6168   7.630   2.453   4.063  0.0950 -0.0471 -0.0180
 1969W        W 6169   8.667   7.568   2.748 -0.0807  0.1894  0.1401
 1970W        W 6170   4.974   2.144   4.325 -0.1070 -0.2647 -0.0378
 1971W        W 6171   5.871   5.215  10.609 -0.0221 -0.0790 -0.2202
 1972W        W 6172   0.915   6.365  13.223 -0.1323 -0.0478  0.0873
 1973W        W 6173   0.079   9.333   9.207 -0.1327  0.1611 -0.1636
 1974W        W 6174   6.582   1.343  10.958 -0.3024  0.1221  0.1117
 1975W        W 6175   6.919   0.472   9.828 -0.1034 -0.2232  0.0686
 1976W        W 6176   6.203   4.998   0.000  0.1000  0.1013  0.3515
 1977W        W 6177   4.689   1.750   0.427  0.0115 -0.0874  0.1333
 1978W        W 6178   4.673   4.302   1.850 -0.0159 -0.1265  0.2958
 1979W        W 6179   7.101   7.958   9.192 -0.3536  0.0687 -0.0263
 1980W        W 6180   0.040   8.803  12.565  0.0249  0.1997 -0.0485
 1981W        W 6181   1.772   1.507  10.439  0.2750 -0.1416  0.4634
 1982W        W 6182   4.450   9.879   0.217 -0.0081  0.0993  0.2375
 1983W        W 6183   6.603   9.509   3.580  0.0012 -0.1546  0.4769
 1984W        W 6184   1.073   0.095   1.444 -0.2213  0.0941  0.1968
 1985W        W 6185   0.144   3.393   0.825  0.2495  0.4007 -0.1075
 1986W        W 6186   7.867   6.875   9.771 -0.2160 -0.0534  0.0978
 1987W        W 6187   8.680   1.349   0.836 -0.1736  0.0353  0.2663
 1988W        W 6188   4.706   0.992   3.918  0.1066 -0.1236 -0.0792
 1989W        W 6189   8.073   8.640   9.430 -0.2712  0.1056  0.1089
 1990W        W 6190   6.910   2.220   0.326 -0.2078 -0.2527  0.0388
 1991W        W 6191   0.583   2.607   1.925  0.0934 -0.1053 -0.0326
 1992W        W 6192   6.132   2.577   1.948  0.0315  0.1429  0.5106
 1993W        W 6193   9.169   3.819  12.318 -0.0502  0.2766  0.1121
 1994W        W 6194   2.051   1.543   0.094  0.0642  0.0648 -0.1332
 1995W        W 6195   7.557   8.083   3.714  0.1075  0.2583 -0.1736
 1996W        W 6196   1.994   9.738   0.832 -0.1089 -0.1597  0.0040
 1997W        W 6197   9.493  10.292  12.367  0.1196  0.0275  0.4312
 1998W        W 6198   5.201   5.845   9.505 -0.1822  0.1792  0.2472
 1999W        W 6199   4.929   9.792  11.427  0.1039 -0.1700 -0.0446
 2000W        W 6200   3.851   1.497   2.262  0.0276  0.0736  0.5276
 2001W        W 6201   2.090   2.067   1.150  0.1384 -0.0534  0.4542
 2002W        W 6202   7.206   1.032  11.018 -0.0198 -0.3196 -0.0834
 2003W        W 6203   4.134   9.551   2.199 -0.1138 -0.1915  0.0849
 2004W        W 6204   5.962   8.417   4.003 -0.3459  0.0988  0.1268
 2005W        W 6205   6.523   9.136   4.302 -0.2997  0.4713 -0.0296
 2006W        W 6206   5.292   2.759   1.726 -0.1408 -0.1574  0.0612
 2007W        W 6207   5.289   1.719  11.474  0.0060  0.2406 -0.1507
 2008W        W 6208   8.640   6.592   3.041 -0.1950  0.3260 -0.1300
 2009W        W 6209   0.668   6.316   1.427 -0.0668  0.1089  0.0737
 2010W        W 6210   6.294   7.202  13.318 -0.1008 -0.0171 -0.1664
 2011W        W 6211   4.191   3.209   3.144  0.1078  0.1716  0.0845
 2012W        W 6212   5.036   5.842  12.567 -0.0663  0.1414 -0.0730
 2013W        W 6213   1.867   4.182   9.373 -0.2108  0.1745  0.1821
 2014W        W 6214   8.564   6.348  10.869  0.1497  0.2737 -0.0271
 2015W        W 6215   6.137   3.782  11.120 -0.0496 -0.0802  0.2369
 2016W        W 6216   2.589   4.202  12.315 -0.0276  0.0213 -0.0444
 2017W        W 6217   2.480   3.860   2.951  0.1650  0.1924 -0.1807
 2018W        W 6218  10.192   2.956   1.829 -0.1399  0.2755 -0.0988
 2019W        W 6219   3.869   7.749   1.685 -0.1313 -0.0476 -0.1938
 2020W        W 6220   2.468   7.055   3.049  0.3163 -0.4120  0.0368
 2021W        W 6221   1.975   5.728   3.168  0.0710  0.0414  0.1837
 2022W        W 6222   2.645   8.516   3.196 -0.0985 -0.0650 -0.1566
 2023W        W 6223   9.312   6.458  12.693  0.1793 -0.0756 -0.1010
 2024W        W 6224   0.049   1.255   0.331 -0.0775  0.1669 -0.2118
 2025W        W 6225   1.811   6.794  13.315  0.0597  0.1679 -0.4805
 2026W        W 6226   5.277   9.718   4.456 -0.0799 -0.0605 -0.1748
 2027W        W 6227   7.492   3.187  11.756  0.1304 -0.3173  0.0296
 2028W        W 6228   1.048   9.455  13.127  0.2085  0.0370 -0.2623
 2029W        W 6229   3.523   7.078   0.614  0.5033  0.1913 -0.1691
 2030W        W 6230   0.907   4.569   4.472 -0.1397  0.0529  0.0119
 2031W        W 6231   5.231  10.240   1.028 -0.0349 -0.3218 -0.1577
 2032W        W 6232   0.659   4.171  10.660 -0.1337 -0.2177  0.3691
 2033W        W 6233   8.213   3.159   1.491 -0.2456 -0.1053  0.2031
 2034W        W 6234   2.472   3.069  12.844 -0.2371 -0.0653 -0.3086
 2035W        W 6235   2.725   7.358   3.557  0.0384  0.1520 -0.1292
 2036W        W 6236   6.608   2.719  12.648 -0.2111  0.0448  0.1845
 2037W        W 6237  10.261   4.140  12.361  0.0942  0.0886  0.0012
 2038W        W 6238   9.333   2.591  10.778  0.1648  0.0239 -0.2526
 2039W        W 6239   4.813   9.069   5.063 -0.1196 -0.0010  0.1305
 2040W        W 6240   2.211   7.371  12.807 -0.0904  0.3779  0.0119
 2041W        W 6241   1.852   2.061   3.791 -0.1120 -0.1789 -0.3005
 2042W        W 6242   9.581   9.263  10.881  0.2089 -0.0422 -0.2498
 2043W        W 6243   0.167   7.825  12.231  0.0275  0.2682 -0.0178
 2044W        W 6244   6.158   2.320  10.759 -0.1506 -0.2988  0.1780
 2045W        W 6245   0.350  10.495   0.821  0.1407 -0.2147 -0.0482
 2046W        W 6246   6.893   4.450   1.948  0.1348 -0.1760 -0.2444
 2047W        W 6247   8.919   6.610  12.907  0.1095 -0.4007 -0.1255
 2048W        W 6248   7.321   8.251   0.688 -0.0381  0.1190  0.1909
 2049W        W 6249   5.364   4.796   0.190 -0.0340  0.1439 -0.0893
 2050W        W 6250   8.488   9.193  11.341  0.1292 -0.2939  0.0884
 2051W        W 6251   9.522   6.836  10.603  0.2915  0.0980 -0.1926
 2052W        W 6252   3.418   4.450   3.519 -0.0840  0.2901  0.0888
 2053W        W 6253   0.044   9.402   3.881  0.0534  0.1011  0.2186
 2054W        W 6254   3.222   0.255   9.143  0.0766 -0.3997 -0.2158
 2055W        W 6255   7.474   1.633  13.338  0.1495  0.3190 -0.2247
 2056W        W 6256   0.277   9.588  11.124 -0.0922 -0.0639  0.0086
 2057W        W 6257   0.486   2.832   1.134 -0.3550  0.2108 -0.0655
 2058W        W 6258   6.036   5.595   2.877 -0.2571 -0.0107 -0.0277
 2059W        W 6259   5.653   3.506   1.237  0.1367 -0.1234 -0.0407
 2060W        W 6260   1.972   8.813  10.984  0.1746 -0.1150 -0.0359
 2061W        W 6261   9.233   2.604  12.992  0.1530 -0.3661  0.0295
 2062W        W 6262   4.187   4.844   3.252 -0.1003 -0.2719  0.0413
 2063W        W 6263   2.663   8.499   4.135 -0.0953  0.1607  0.1898
 2064W        W 6264   0.615   9.312   8.537 -0.0598  0.2499  0.0193
 2065W        W 6265   9.542   7.221  12.222  0.1071  0.1354  0.0992
 2066W        W 6266   6.207   6.542   0.993 -0.2810 -0.1215  0.0426
 2067W        W 6267   4.032   9.776  12.554  0.4132  0.0563  0.0319
 2068W        W 6268   2.569   5.726   9.916 -0.1251  0.0751  0.1597
 2069W        W 6269   9.183   5.144   4.037 -0.0183  0.1020  0.0061
 2070W        W 6270   4.881   6.010   2.760  0.1954  0.0246 -0.1099
 2071W        W 6271   0.411  10.509   3.159 -0.0193 -0.2417 -0.0471
 2072W        W 6272   8.018   0.999  11.864  0.1297 -0.1787  0.1132
 2073W        W 6273   4.120   8.363   0.164  0.2581  0.1752  0.0038
 2074W        W 6274   7.601   2.008  10.227  0.3438 -0.0679  0.1427
 2075W        W 6275   8.018   1.292   2.595 -0.1607  0.0885  0.1304
 2076W        W 6276   1.463   0.295  10.977 -0.1195 -0.0908  0.2624
 2077W        W 6277   7.065   6.678   1.021 -0.1545 -0.0717  0.0990
 2078W        W 6278   3.498   9.617   0.014 -0.0414 -0.2335  0.0354
 2079W        W 6279  10.222   2.493   0.415  0.3357 -0.1547  0.2815
 2080W        W 6280   8.407   4.954   3.059  0.0874  0.3235 -0.0559
 2081W        W 6281   9.251   4.486   4.813  0.3566  0.1928  0.2122
 2082W        W 6282   2.119   2.581   3.239  0.2458 -0.1994 -0.0500
 2083W        W 6283   6.313   5.708   0.559 -0.0767 -0.1067 -0.0491
 2084W        W 6284   7.481   1.227   2.969  0.3358  0.0867  0.2233
 2085W        W 6285   9.897   7.234  12.628  0.0782  0.1297 -0.0853
 2086W        W 6286   8.719   9.469   2.537  0.1748 -0.0951  0.0886
 2087W        W 6287   4.416   6.789   3.714 -0.0765  0.0779  0.2641
 2088W        W 6288   5.337   4.228  12.667 -0.0872 -0.4813  0.0421
 2089W        W 6289   8.545   5.653   0.305  0.0213 -0.1387  0.0719
 2090W        W 6290   5.392   9.299  12.595  0.4355  0.1176  0.1988
 2091W        W 6291   5.473   7.416  10.818  0.1266 -0.0979  0.2075
 2092W        W 6292   1.944  10.410  12.752 -0.1657  0.1094  0.1577
 2093W        W 6293   9.918   4.334   3.092 -0.0416 -0.1205  0.1744
 2094W        W 6294   8.902   0.112   2.271  0.1547  0.1495 -0.2432
 2095W        W 6295   0.912  10.126   1.418  0.1685 -0.0975 -0.2179
 2096W        W 6296   1.611   9.271   2.566  0.1373  0.0976 -0.0197
 2097W        W 6297   4.160   0.935   3.923 -0.0721 -0.1482  0.0550
 2098W        W 6298   4.040   6.580   9.805  0.1105  0.0776  0.0459
 2099W        W 6299   6.356   7.749   1.904 -0.4819 -0.0356 -0.1487
 2100W        W 6300   1.288   1.633   3.619 -0.0486  0.0108  0.1408
 2101W        W 6301   6.237   0.736  10.409  0.1328 -0.0652 -0.0784
 2102W        W 6302   8.504   8.896   9.584 -0.3091 -0.2404 -0.0764
 2103W        W 6303   3.039   0.677   2.552 -0.2676 -0.0371  0.0665
 2104W        W 6304   6.513   5.891   9.160  0.0772  0.1930 -0.0422
 2105W        W 6305   3.071   3.194   2.664 -0.0493  0.0386  0.1503
 2106W        W 6306   2.269   8.386   1.107  0.3436 -0.1702 -0.1643
 2107W        W 6307   6.370   1.721  10.220  0.0363 -0.4038  0.1859
 2108W        W 6308   8.097   7.636   0.425 -0.0107  0.0567 -0.2088
 2109W        W 6309   4.808   3.044   0.836 -0.1469 -0.1049  0.2610
 2110W        W 6310   5.928   1.274  11.866 -0.1209  0.1503  0.3218
 2111W        W 6311   4.034   3.567   0.438 -0.1259 -0.0717  0.1439
 2112W        W 6312   1.619  10.379  10.924 -0.1523  0.0925 -0.0792
 2113W        W 6313   0.126   2.395   9.991  0.0618 -0.0190  0.1332
 2114W        W 6314   1.174   5.488   3.408 -0.0353 -0.1036 -0.0121
 2115W        W 6315   5.860   2.515   0.396 -0.1063 -0.0928  0.2461
 2116W        W 6316   3.011   5.029  10.118 -0.1563 -0.2524  0.2432
 2117W        W 6317   9.694  10.169  10.889  0.2045  0.2319  0.2935
 2118W        W 6318   0.777   1.050   9.040 -0.2602  0.0480 -0.0025
 2119W        W 6319   2.266   9.002   4.082 -0.0081  0.0079 -0.0099
 2120W        W 6320   4.168   8.291   2.449  0.0606  0.4017  0.0967
 2121W        W 6321   5.588   6.435   4.109 -0.1435 -0.1491  0.0330
 2122W        W 6322  10.063   1.680   9.242  0.3529 -0.3334 -0.0697
 2123W        W 6323   1.028   7.963   0.457  0.3206 -0.1255 -0.3096
 2124W        W 6324   1.921   0.339   4.017 -0.0984  0.3015  0.1141
 2125W        W 6325   9.125   4.665   4.242  0.1346 -0.1404  0.4694
 2126W        W 6326   8.761   1.116  13.044  0.0467 -0.0710 -0.3397
 2127W        W 6327   2.142   4.677  11.845 -0.2068  0.0811 -0.1324
 2128W        W 6328   0.935   2.289  10.279  0.0882  0.0557 -0.6577
 2129W        W 6329   0.657   0.285  12.922 -0.4520  0.1761 -0.0575
 2130W        W 6330   6.453   5.333   2.795 -0.1543  0.1181 -0.2862
 2131W        W 6331   4.411   6.831   9.563  0.3651 -0.2970  0.0389
 2132W        W 6332   9.077   8.121   1.290  0.0041 -0.2928 -0.2005
 2133W        W 6333   0.848   3.780  10.877 -0.1961 -0.0202 -0.2602
 2134W        W 6334   3.156   4.903   3.460  0.1007  0.3719 -0.0410
 2135W        W 6335   4.546  10.201   0.611  0.3746  0.0619 -0.2867
 2136W        W 6336   1.072   0.860  11.561 -0.3060  0.0249  0.1277
 2137W        W 6337   9.819   1.953   0.211 -0.3183  0.1936  0.2952
 2138W        W 6338   8.628   1.819  12.931  0.1202  0.0688  0.0036
 2139W        W 6339  10.430   8.965  12.985 -0.0629 -0.1738 -0.2911
 2140W        W 6340   9.326   2.676   2.353  0.1548 -0.2695 -0.2955
 2141W        W 6341   0.965   1.278   0.011  0.1222  0.1074  0.0090
 2142W        W 6342   9.821   7.403   9.672 -0.1887  0.0988 -0.0877
 2143W        W 6343   6.599   7.104  11.365 -0.2231 -0.0775  0.0302
 2144W        W 6344   0.905  10.006  10.726  0.0914  0.2423  0.0464
 2145W        W 6345   1.875   8.985   1.865 -0.0727  0.2593  0.5092
 2146W        W 6346   2.348   5.450  13.001  0.1983 -0.0816 -0.0702
 2147W        W 6347   2.480   5.329   2.883  0.1017  0.0208 -0.0065
 2148W        W 6348   6.682   7.308   2.666 -0.0298 -0.1258 -0.0550
 2149W        W 6349   8.877   8.459   1.808  0.0033 -0.0077  0.0473
 2150W        W 6350   5.951   4.839  10.255  0.1185  0.0686  0.2320
 2151W        W 6351   9.602   4.708  13.345 -0.0172 -0.2043 -0.2745
 2152W        W 6352   0.230   3.115   1.853 -0.1894  0.0735  0.2472
 2153W        W 6353   6.448   0.962   4.656 -0.0278 -0.0575 -0.0577
 2154W        W 6354   8.726   4.699   0.725 -0.3595  0.0624 -0.0148
 2155W        W 6355   8.990   1.982   0.357  0.0401 -0.0235 -0.1264
 2156W        W 6356   5.616   6.903   4.881 -0.0937 -0.1739  0.0457
 2157W        W 6357   8.126   4.635   9.190  0.2180 -0.0172 -0.1416
 2158W        W 6358   9.628   1.797   4.066 -0.1036 -0.0182 -0.0769
 2159W        W 6359   9.500   0.232   0.918 -0.1506 -0.2534  0.1045
 2160W        W 6360   1.484   1.659   1.763  0.2016  0.2412  0.2434
 2161W        W 6361   6.862   9.356   0.304 -0.0779  0.2202 -0.1243
 2162W        W 6362   5.461   1.086   0.852 -0.0226  0.0682 -0.2904
 2163W        W 6363   7.073   3.593   9.690 -0.0553  0.0993 -0.4003
 2164W        W 6364   1.438   6.337   0.463 -0.1682  0.2191 -0.0430
 2165W        W 6365   8.965   3.197  11.237  0.1811 -0.1762 -0.0150
 2166W        W 6366   5.996   6.557   2.600  0.2090  0.0169 -0.0549
 2167W        W 6367   3.382  10.517  11.931  0.0000  0.0237 -0.3450
 2168W        W 6368   8.049   9.636   3.185 -0.2922  0.0983 -0.1818
 2169W        W 6369   2.162   3.946   3.551  0.0490  0.0376  0.0169
 2170W        W 6370   1.480  10.377   9.130 -0.0845 -0.1169 -0.0696
 2171W        W 6371   6.788   9.721   2.181  0.2311  0.3380  0.0574
 2172W        W 6372   5.391   1.651  10.497 -0.2276 -0.4752  0.0012
 2173W        W 6373   5.936   4.125   4.438 -0.0885  0.0020  0.2502
 2174W        W 6374   3.234  10.404   2.891  0.2217 -0.0436  0.0909
 2175W        W 6375   0.513   0.880   9.611 -0.1367 -0.1237 -0.2509
 2176W        W 6376   3.204   5.476   3.037  0.4555  0.0571 -0.1790
 2177W        W 6377   8.382   7.468  12.969 -0.1582 -0.0022 -0.2677
 2178W        W 6378   1.633   1.209  12.780  0.1358  0.1549  0.1868
 2179W        W 6379   2.790   1.454   8.919 -0.3032 -0.0510  0.3802
 2180W        W 6380   1.777   5.111  12.632  0.0812 -0.1842  0.1055
 2181W        W 6381   4.189   7.885  13.228 -0.1006 -0.3241 -0.3624
 2182W        W 6382   2.397   5.457  10.932  0.1651 -0.1325 -0.4368
 2183W        W 6383   3.545   6.883   2.755 -0.0319  0.0410 -0.1893
 2184W        W 6384   2.834   0.648   0.240  0.0068  0.1464 -0.0179
 2185W        W 6385   9.508   1.490   1.725 -0.3238  0.0355 -0.1473
 2186W        W 6386   3.620   0.516   4.401  0.0725  0.0405 -0.2399
 2187W        W 6387   0.672   7.904   1.745  0.2978  0.1660  0.0157
 2188W        W 6388   0.182   7.080   1.922  0.0286 -0.0246 -0.0815
 2189W        W 6389   5.451   9.143   1.518  0.3265 -0.0502 -0.0210
 2190W        W 6390   6.617   4.562  12.967  0.0289 -0.1387 -0.0274
 2191W        W 6391   0.739   7.671  10.041 -0.2895 -0.3862  0.0983
 2192W        W 6392   7.127   7.395   0.505  0.1882 -0.0273 -0.0245
 2193W        W 6393   6.624   2.701  11.424  0.3367  0.0133 -0.1204
 2194W        W 6394   2.759   3.199   3.482 -0.0880  0.1892 -0.2172
 2195W        W 6395   4.262   4.348  11.716 -0.1423 -0.3264 -0.0251
 2196W        W 6396   3.194   8.408   2.180 -0.0949 -0.1143  0.0924
 2197W        W 6397   7.944   1.613  12.348 -0.0683 -0.4513 -0.4130
 2198W        W 6398   8.486   5.523  13.069  0.1682 -0.3098 -0.1085
 2199W        W 6399   0.326   3.108  10.633  0.0221  0.1710  0.3065
 2200W        W 6400   1.303   1.969  10.192  0.1918  0.1101  0.1656
 2201W        W 6401  10.305   1.687   1.662  0.1376 -0.3503 -0.0657
 2202W        W 6402   3.323   3.334  11.955  0.0137 -0.0732  0.2072
 2203W        W 6403   0.046   6.072  12.177 -0.1395  0.2493  0.0481
 2204W        W 6404   9.340   1.077   1.429  0.0060  0.0740  0.1038
 2205W        W 6405   4.062   1.269   2.645 -0.1191  0.0829  0.0321
 2206W        W 6406   1.981   5.161   9.800 -0.0912 -0.0617 -0.3097
 2207W        W 6407   5.856   9.222  12.636 -0.4688 -0.0542  0.0300
 2208W        W 6408   4.601   3.287   8.588  0.1608  0.0184  0.3006
 2209W        W 6409   1.924   8.313   3.455  0.1825  0.0404  0.2690
 2210W        W 6410   5.471   9.622   3.926 -0.2465 -0.0423 -0.0695
 2211W        W 6411   0.917   3.963   3.414 -0.0167 -0.1343  0.0407
 2212W        W 6412   1.824   9.672   1.345 -0.1600 -0.0019  0.0963
 2213W        W 6413   8.900   8.552   3.090  0.1302 -0.0274  0.1301
 2214W        W 6414  10.110   1.928   5.032 -0.0397 -0.4241 -0.0329
 2215W        W 6415   9.250   0.790  11.162  0.0438  0.3590  0.2038
 2216W        W 6416   1.602   4.216  10.752 -0.2042  0.0968  0.0355
 2217W        W 6417   3.605   4.954   1.221 -0.2912 -0.1200  0.1146
 2218W        W 6418   5.952   7.913   0.372 -0.1774  0.2918  0.2440
 2219W        W 6419   6.585   6.098   4.163  0.0318  0.1201  0.0192
 2220W        W 6420   6.165   0.470   5.290  0.1326 -0.1440  0.1112
 2221W        W 6421   4.881   4.769   0.260  0.0871  0.1995  0.3141
 2222W        W 6422   2.640   2.950   2.694 -0.2747 -0.2097  0.1687
 2223W        W 6423   4.026   0.558   1.069 -0.1410 -0.0296 -0.1154
 2224W        W 6424   3.189   0.629  12.885 -0.0205 -0.1746  0.0532
 2225W        W 6425   5.411   9.450   9.157  0.1255 -0.0972 -0.2570
 2226W        W 6426   9.230   9.303  11.839 -0.1325  0.1745  0.0827
 2227W        W 6427   9.664   5.928   1.930  0.2356 -0.3422 -0.0084
 2228W        W 6428   6.364   8.476   2.863  0.0497 -0.0567  0.0811
 2229W        W 6429   7.886   7.555  11.687 -0.1191  0.0629  0.2211
 2230W        W 6430  10.127   5.244   2.402 -0.1510  0.1925 -0.1033
 2231W        W 6431   3.721   9.222   9.873 -0.1098  0.3488  0.1615
 2232W        W 6432  10.236   0.805  10.808  0.2578 -0.0301 -0.1976
 2233W        W 6433   9.095   6.105   0.338 -0.1720 -0.2507  0.1694
 2234W        W 6434   0.539  10.144   1.803  0.2287 -0.0337  0.1767
 2235W        W 6435   7.027   0.468  12.774  0.2758  0.2763 -0.5042
 2236W        W 6436   8.164   0.421   0.485 -0.0236  0.1633 -0.5695
 2237W        W 6437   9.804   1.673  10.866 -0.0785 -0.1540  0.1260
 2238W        W 6438   9.153   2.344   9.154 -0.4245  0.0881  0.2961
 2239W        W 6439   9.524   8.981  12.301  0.0862 -0.1590  0.1797
 2240W        W 6440   8.304   8.342   9.132 -0.2661  0.0316  0.1661
 2241W        W 6441   6.849   5.242   3.118  0.2201 -0.1038 -0.0012
 2242W        W 6442   7.905   3.614   2.279 -0.3084  0.2005  0.1140
 2243W        W 6443   2.150   0.218   2.759 -0.2566 -0.2128 -0.2316
 2244W        W 6444   9.938   7.930   2.585 -0.0945  0.1434 -0.1636
 2245W        W 6445   6.059   9.549   3.045 -0.1064  0.1128 -0.2203
 2246W        W 6446   9.724  10.334   0.571  0.3588  0.2386 -0.4891
 2247W        W 6447   5.396   9.088   0.177 -0.3529 -0.5505  0.1027
 2248W        W 6448   4.908   7.643   3.461 -0.1170  0.4341 -0.2057
 2249W        W 6449   4.755   7.956  10.926  0.3396  0.1640 -0.0471
 2250W        W 6450   8.007   3.976   4.525  0.1821 -0.0083  0.0679
 2251W        W 6451   4.452   2.847   0.418 -0.0827  0.0147  0.1880
 2252W        W 6452   1.031   0.875   1.677 -0.0401  0.1355  0.2942
 2253W        W 6453   4.606   1.843   9.636  0.0457 -0.0763  0.0904
 2254W        W 6454   8.515   7.415   9.387 -0.1666 -0.0764 -0.1362
 2255W        W 6455   4.885   0.394   2.920 -0.2358 -0.0373  0.3541
 2256W        W 6456   8.809   4.583   2.858 -0.1685  0.0673  0.0614
 2257W        W 6457   8.866   9.426   1.264 -0.2993 -0.2408 -0.3267
 2258W        W 6458   2.966   4.486   3.821  0.0456 -0.0716 -0.0111
 2259W        W 6459   3.471   9.826   1.371  0.2918  0.2405 -0.0347
 2260W        W 6460   8.431   2.585   9.992 -0.1665  0.1791 -0.2500
 2261W        W 6461   5.378   9.897  11.816  0.2035  0.0417 -0.0432
 2262W        W 6462   4.799   8.366   9.632 -0.5126  0.2465  0.0154
 2263W        W 6463   6.555   5.682   3.336  0.0118  0.2744 -0.0306
 2264W        W 6464   2.582   2.072   2.624  0.2416  0.0061 -0.3675
 2265W        W 6465   3.848   2.586  10.497 -0.0721 -0.3399 -0.0138
 2266W        W 6466   3.800   3.215  13.278  0.0607 -0.1030  0.2930
 2267W        W 6467   9.963   6.929  10.869 -0.0084  0.0376  0.0292
 2268W        W 6468   7.690   7.315   3.044 -0.1270  0.3402  0.2550
 2269W        W 6469   8.748   2.055  12.039  0.0549 -0.0977  0.0230
 2270W        W 6470   7.181   9.081  12.580 -0.0260  0.0091  0.2849
 2271W        W 6471   2.612   0.898  11.055  0.1635 -0.1325  0.1554
 2272W        W 6472  10.339   3.594   3.119 -0.0304  0.0837  0.0913
 2273W        W 6473   0.763   1.704   1.459 -0.0167 -0.0241 -0.0672
 2274W        W 6474   1.683   6.197   9.503  0.2105 -0.1671  0.0595
 2275W        W 6475   8.164   3.558   2.760  0.0749  0.0742  0.2223
 2276W        W 6476   1.261   3.931  12.365  0.0491 -0.1424 -0.4094
 2277W        W 6477  10.387   0.703   8.979  0.1391 -0.0808 -0.2332
 2278W        W 6478   6.399   2.607   3.327  0.1479  0.0677  0.0956
 2279W        W 6479   1.741   6.854   0.456  0.3457 -0.2580 -0.0402
 2280W        W 6480   4.453   0.675   8.378  0.0411 -0.1816 -0.1025
 2281W        W 6481   3.970   2.216   8.699  0.2601  0.2339 -0.0462
 2282W        W 6482   0.500   9.788   9.319  0.0102  0.3885  0.1186
 2283W        W 6483   5.144   1.819   0.143 -0.0661  0.2810  0.0980
 2284W        W 6484   9.860   0.734   8.823 -0.1532 -0.4961 -0.3139
 2285W        W 6485   6.861   9.679  10.768  0.0078 -0.1970 -0.0088
 2286W        W 6486   9.184   0.641   1.589  0.0262  0.2381  0.1724
 2287W        W 6487   4.420   5.412  11.139 -0.2447  0.1913 -0.0639
 2288W        W 6488   3.169   5.680  11.336  0.0366 -0.0022  0.2981
 2289W        W 6489   3.576   1.634   1.802 -0.2932 -0.2444  0.2989
 2290W        W 6490   0.402   4.697   2.717  0.3470 -0.2835 -0.2780
 2291W        W 6491   7.518   5.115   4.372  0.1502 -0.0424  0.2835
 2292W        W 6492   0.441   1.205   3.582  0.2239 -0.3627 -0.2917
 2293W        W 6493   8.025   7.806   4.366  0.2451  0.2378 -0.1000
 2294W        W 6494   6.000   8.434   0.440 -0.1906  0.1463  0.0390
 2295W        W 6495   3.860   1.044   1.003 -0.0839 -0.0153 -0.2045
 2296W        W 6496   3.493   4.454  12.082  0.0320  0.5057 -0.0005
 2297W        W 6497   7.200   0.046  10.450 -0.1983 -0.2291 -0.1775
 2298W        W 6498   6.647   5.144   8.162  0.0622  0.0095 -0.3025
 2299W        W 6499   4.541   4.918  11.017  0.1262  0.2263 -0.0209
 2300W        W 6500   3.514   0.335   1.123 -0.2615  0.0321 -0.0263
 2301W        W 6501   3.721   7.275  10.004 -0.4165 -0.1572 -0.0324
 2302W        W 6502   2.506   2.905  12.230  0.0292  0.0599 -0.1361
 2303W        W 6503   9.273   2.691   8.419  0.1132  0.1215 -0.1715
 2304W        W 6504   0.351   6.023  11.731 -0.0791  0.1565  0.1006
 2305W        W 6505   8.311   7.113   1.736 -0.1870  0.2095 -0.1407
 2306W        W 6506   8.458   7.955   2.941  0.0664 -0.1197 -0.2022
 2307W        W 6507   9.987   9.967   2.734  0.0349  0.0414  0.0443
 2308W        W 6508   7.462   3.368   0.662 -0.0755 -0.4431 -0.0195
 2309W        W 6509   4.226   9.956   2.463 -0.1957 -0.0909 -0.0389
 2310W        W 6510   2.125   9.586   4.123  0.2181 -0.0366  0.0348
 2311W        W 6511   8.508   3.623   2.105  0.0950 -0.1248 -0.1258
 2312W        W 6512   5.328   9.603   8.635 -0.0653 -0.0445  0.4435
 2313W        W 6513   6.911   2.007  12.477  0.2446 -0.0452 -0.0877
 2314W        W 6514   8.050   9.748  11.420 -0.0269  0.0124  0.0567
 2315W        W 6515   1.460   7.966  12.884 -0.0147 -0.0550 -0.0959
 2316W        W 6516  10.105   8.785   1.253 -0.0585  0.0619 -0.1478
 2317W        W 6517   1.384   3.617   0.839 -0.0825 -0.1878 -0.0885
 2318W        W 6518   5.380   3.482   9.343  0.2297 -0.2103 -0.0536
 2319W        W 6519   8.214   7.878   9.544 -0.4065 -0.1124 -0.1769
 2320W        W 6520   5.501   8.943   1.021 -0.0317 -0.0304 -0.0599
 2321W        W 6521   0.656   2.075  13.072 -0.2191  0.3498  0.1851
 2322W        W 6522   9.023  10.454  12.232  0.0278 -0.0123  0.2855
 2323W        W 6523  10.001   4.843   1.264 -0.1353  0.0445 -0.0362
 2324W        W 6524   7.894   2.743   4.433  0.0169  0.3263  0.1165
 2325W        W 6525   8.260   3.818  10.374  0.0167  0.0212 -0.0830
 2326W        W 6526   2.426   8.134  10.240  0.1785  0.1381  0.3404
 2327W        W 6527   3.183   8.577   3.145  0.2276  0.0033 -0.1691
 2328W        W 6528   4.899   9.484   8.205  0.2168 -0.2550  0.4360
 2329W        W 6529   7.772   4.268   3.707  0.1119  0.4496  0.2808
 2330W        W 6530   1.509   5.960  11.259  0.2005 -0.2257  0.1240
 2331W        W 6531  10.365   6.724   1.727  0.0364 -0.3051 -0.2622
 2332W        W 6532   3.315   0.527  11.855 -0.0230  0.2001 -0.0865
 2333W        W 6533   1.999   4.245   3.122  0.0979  0.0022  0.1654
 2334W        W 6534   6.343   5.046  10.522  0.1523 -0.3403  0.0085
 2335W        W 6535   1.064   8.327   1.741 -0.3271 -0.1092  0.0469
 2336W        W 6536   9.207   8.727   9.610  0.2284 -0.1515 -0.0129
 2337W        W 6537   0.196   4.377  10.842 -0.1745 -0.2296  0.2477
 2338W        W 6538   1.528   4.104   9.810 -0.1502  0.0038  0.2242
 2339W        W 6539   2.294   0.634   9.109  0.1547 -0.2220 -0.3095
 2340W        W 6540   7.519   6.196   0.877  0.2648 -0.3971  0.0565
 2341W        W 6541   4.184   7.760   9.250 -0.2500 -0.1479  0.2710
 2342W        W 6542   5.804   8.052  12.912 -0.1151 -0.1708 -0.2034
 2343W        W 6543   5.197   0.832   4.410 -0.1442  0.2169 -0.4303
 2344W        W 6544   6.218   5.287  11.023 -0.2204  0.0998  0.1518
 2345W        W 6545   1.065   6.470  11.870 -0.0263  0.4173 -0.1632
 2346W        W 6546   3.031   4.140   3.271  0.0595  0.1169 -0.0579
 2347W        W 6547   3.578   6.129   2.157 -0.1614 -0.2567  0.2075
 2348W        W 6548   7.568   4.542   8.995  0.0622  0.2235  0.2273
 2349W        W 6549   6.924   2.644   3.176  0.0163  0.0326  0.1702
 2350W        W 6550   9.225   5.093   1.282 -0.2448 -0.2976 -0.1580
 2351W        W 6551   1.359   8.731  12.525  0.1897  0.1870 -0.0814
 2352W        W 6552   1.544   8.421   2.574 -0.0913 -0.0145  0.1179
 2353W        W 6553   7.357   1.990   4.278  0.0743  0.0630  0.2577
 2354W        W 6554   9.280   9.607   1.564 -0.0461 -0.0767 -0.1521
 2355W        W 6555   6.660  10.169   4.888 -0.2456  0.2518  0.0721
 2356W        W 6556   2.175   5.898   1.120 -0.2831 -0.1004 -0.1943
 2357W        W 6557   1.785   5.595   1.093  0.2589 -0.0993  0.0519
 2358W        W 6558   4.206   4.699   2.453  0.1917 -0.1917 -0.0181
 2359W        W 6559   4.910   1.205   0.191 -0.0529  0.3018  0.2786
 2360W        W 6560   6.667  10.169   1.987 -0.2111 -0.0536  0.2849
 2361W        W 6561   4.721   6.751   3.318 -0.1329 -0.1404 -0.1409
 2362W        W 6562   4.952   0.867  10.421  0.0861 -0.0465 -0.0118
 2363W        W 6563   7.359   9.382   0.421 -0.4126 -0.1153 -0.0528
 2364W        W 6564   4.798   8.383  11.152  0.0223 -0.1651 -0.1476
 2365W        W 6565   8.686   3.635  12.326  0.1362  0.2561  0.1332
 2366W        W 6566   1.541   8.421   3.796  0.3756  0.3261  0.1826
 2367W        W 6567   1.798   2.150   0.706  0.1342 -0.1796 -0.0317
 2368W        W 6568   5.794   2.126  13.001 -0.1974  0.3671  0.1221
 2369W        W 6569   9.728   2.683   3.495  0.3157 -0.4476  0.0922
 2370W        W 6570   4.479   4.684   4.018 -0.1631  0.0166 -0.0937
 2371W        W 6571   3.193   8.162  12.068 -0.3321 -0.0398  0.4533
 2372W        W 6572   7.559   0.462   3.755  0.4607  0.1935  0.0430
 2373W        W 6573   4.930   4.097   4.695 -0.1023 -0.0711  0.0378
 2374W        W 6574   5.111   4.495   1.988  0.1906  0.0934 -0.3644
 2375W        W 6575   9.046   1.883  10.387  0.3740  0.0546 -0.1731
 2376W        W 6576  10.138   2.750  11.322 -0.2102 -0.0914 -0.0537
 2377W        W 6577   5.949   3.224  11.925  0.1160 -0.0563 -0.1509
 2378W        W 6578   0.824  10.452  11.517 -0.1280  0.1441 -0.0067
 2379W        W 6579   7.997   6.316   0.245 -0.2171 -0.1592  0.0145
 2380W        W 6580   5.026   2.147  12.513 -0.0678 -0.3233  0.1870
 2381W        W 6581   5.732   0.284   1.484 -0.0772  0.1974 -0.2089
 2382W        W 6582   3.121   7.048   1.467 -0.2558 -0.1325  0.4268
 2383W        W 6583   7.742   7.995   0.593 -0.3412  0.0305 -0.0528
 2384W        W 6584   7.560   5.979   3.209  0.0326  0.0532 -0.0556
 2385W        W 6585   9.434   3.269   4.154 -0.0407  0.0498  0.2832
 2386W        W 6586   4.023   3.843  10.033 -0.0710  0.1047 -0.0102
 2387W        W 6587   0.197   0.117   9.692 -0.0918  0.1288 -0.0967
 2388W        W 6588   8.504   6.053  12.404  0.2222  0.0435 -0.2582
 2389W        W 6589   2.676   2.511  11.380  0.0347 -0.3375  0.2390
 2390W        W 6590   1.273   9.605   2.281  0.2960 -0.2088 -0.1062
 2391W        W 6591   0.485   9.147   8.975  0.0236 -0.2857 -0.0506
 2392W        W 6592   3.352   5.111  10.471  0.1322 -0.1490 -0.1381
 2393W        W 6593   7.999   6.296  12.618  0.0792 -0.0875 -0.2455
 2394W        W 6594   0.028   7.613   2.196  0.0167 -0.1784 -0.0720
 2395W        W 6595   2.910   4.640   3.037  0.2131 -0.2738 -0.0599
 2396W        W 6596   8.300   7.243  12.454 -0.3796 -0.0534 -0.2499
 2397W        W 6597   6.045   9.877   1.633 -0.3088 -0.1072 -0.0806
 2398W        W 6598   4.787   5.704   1.483 -0.1498 -0.1502 -0.0074
 2399W        W 6599  10.298   0.049   2.303  0.0212 -0.0294 -0.0234
 2400W        W 6600   8.498   3.170   3.799 -0.0823  0.0067 -0.0788
 2401W        W 6601   1.534   7.621  11.975  0.1176  0.0196 -0.3374
 2402W        W 6602   8.882   5.800  13.283  0.2051  0.0427  0.3234
 2403W        W 6603   7.129   8.269   3.395 -0.2139 -0.0673 -0.0675
 2404W        W 6604   7.358   3.280   1.153  0.2939 -0.0120  0.1654
 2405W        W 6605   6.242  10.303  10.602 -0.0353  0.1860  0.2499
 2406W        W 6606   0.195   2.625   1.606  0.0080  0.0442  0.1669
 2407W        W 6607   7.546   7.922  13.288 -0.0464 -0.2806 -0.1744
 2408W        W 6608   1.284   6.918  11.011 -0.0093 -0.1902 -0.0802
 2409W        W 6609   4.533   6.815  11.834  0.2123 -0.1851  0.1337
 2410W        W 6610   8.838   1.380   2.461 -0.2382 -0.0166 -0.1813
 2411W        W 6611   6.237   5.116   4.046  0.2143  0.1571  0.1295
 2412W        W 6612   4.081   0.175   9.396 -0.1147  0.0240  0.0325
 2413W        W 6613   5.004   2.228  11.493 -0.0280 -0.0665 -0.4639
 2414W        W 6614   1.534   9.466   1.756  0.0769  0.2261  0.0733
 2415W        W 6615   9.826   9.981  12.098 -0.1471 -0.0002  0.3504
 2416W        W 6616   5.201   8.468  12.449 -0.1474  0.0881 -0.1091
 2417W        W 6617  10.267   6.920   0.693 -0.2884 -0.0199  0.0339
 2418W        W 6618   9.041  10.506  10.357 -0.1214 -0.3012 -0.1939
 2419W        W 6619   3.879   7.241   1.883 -0.0776  0.2887  0.0069
 2420W        W 6620   6.293  10.366   3.641 -0.0013  0.0848  0.0497
 2421W        W 6621  10.264  10.062   0.115 -0.0708  0.1049  0.4117
 2422W        W 6622   1.650   9.608   3.994 -0.1068 -0.1371 -0.2430
 2423W        W 6623   9.636   6.032  12.626  0.2781  0.1349  0.0406
 2424W        W 6624   9.486   7.750   9.777 -0.1579 -0.1952 -0.1074
 2425W        W 6625   8.690   8.962  10.703 -0.0256 -0.1809  0.1252
 2426W        W 6626   4.117   2.435  10.986 -0.1692 -0.0945  0.2656
 2427W        W 6627   7.301   3.873  12.391 -0.0149 -0.1405 -0.0789
 2428W        W 6628   1.497  10.151   2.094  0.1005  0.2217  0.1587
 2429W        W 6629   6.956  10.092   9.070  0.3604  0.0983 -0.0706
 2430W        W 6630   3.710  10.240   1.583  0.3683 -0.2092 -0.3006
 2431W        W 6631   4.426   3.055   3.778  0.0363  0.1868 -0.2252
 2432W        W 6632   4.924   9.344   9.536  0.3509  0.1729 -0.2594
 2433W        W 6633   0.160   7.165   2.421  0.1334 -0.1782 -0.1852
 2434W        W 6634   1.852   0.875   3.882 -0.1543  0.1205 -0.2545
 2435W        W 6635   8.737   5.405   3.912  0.2443 -0.2538 -0.1316
 2436W        W 6636   0.774   9.538  10.937 -0.0475  0.1912 -0.0679
 2437W        W 6637   5.230   3.228   0.418  0.0048 -0.0758 -0.3321
 2438W        W 6638   1.205   1.201  12.387 -0.1410 -0.0239 -0.0312
 2439W        W 6639   8.813   9.516  11.125  0.0897  0.2754  0.0228
 2440W        W 6640   6.489   0.084   2.936 -0.0577 -0.0376  0.0296
 2441W        W 6641   1.313   1.325  11.388  0.3784  0.3793  0.2986
 2442W        W 6642   4.501   2.349   0.373 -0.2581 -0.0149 -0.0178
 2443W        W 6643   9.339  10.035   5.195  0.1997  0.1129  0.1553
 2444W        W 6644   6.892   1.199   2.990 -0.3985  0.1969  0.2225
 2445W        W 6645   8.802   5.094   2.621  0.1454  0.1913  0.0810
 2446W        W 6646   6.172  10.496   2.202 -0.0381  0.1548  0.3882
 2447W        W 6647   6.855   7.640  10.007  0.0593 -0.3705 -0.1352
 2448W        W 6648   1.758   3.583   0.307 -0.1584  0.3376 -0.1999
 2449W        W 6649   8.896   2.870   2.235  0.5696 -0.0245  0.2250
 2450W        W 6650  10.447   3.792   9.981  0.0549 -0.0416 -0.1762
 2451W        W 6651   0.450   9.418  10.313  0.0262  0.1897  0.1744
 2452W        W 6652   5.450  10.379  11.930  0.0156 -0.1616  0.2420
 2453W        W 6653   0.631   9.701   1.609 -0.2008 -0.0673  0.1326
 2454W        W 6654   2.819   8.122   4.447 -0.1996  0.2564  0.1296
 2455W        W 6655  10.201   7.532  12.975 -0.1314  0.2257  0.4010
 2456W        W 6656   0.252   7.559   0.820 -0.2126  0.0046  0.1006
 2457W        W 6657   8.357   5.548  11.937 -0.1281 -0.3062 -0.4321
 2458W        W 6658   8.897   7.696   9.010  0.0305 -0.3460  0.1091
 2459W        W 6659   5.833   4.425  11.736 -0.0810 -0.3476  0.0819
 2460W        W 6660   6.528   9.757  11.661  0.0761  0.0150 -0.1048
 2461W        W 6661   3.026   1.612  10.606  0.0153  0.1191  0.1866
 2462W        W 6662   5.936   5.067  11.590  0.1634 -0.2801 -0.0561
 2463W        W 6663   6.047   7.000  11.387 -0.2624  0.0229  0.2141
 2464W        W 6664   5.616   9.223  11.283 -0.1109  0.0934 -0.0426
 2465W        W 6665   1.982   7.791  12.843  0.0522 -0.3697 -0.1225
 2466W        W 6666   2.337   2.693  10.025  0.0137  0.0367 -0.1380
 2467W        W 6667   0.669   3.540   1.477 -0.0852 -0.2188 -0.0403
 2468W        W 6668   7.953   4.487   0.861  0.1366 -0.0755 -0.1407
 2469W        W 6669   1.869   8.553  10.154  0.1685  0.1958 -0.1934
 2470W        W 6670   5.719   6.315   9.044 -0.0045 -0.0669  0.1830
 2471W        W 6671   3.387   0.828   1.044  0.1190 -0.0015  0.1303
 2472W        W 6672   6.604   4.443   2.555 -0.1728 -0.0813 -0.2675
 2473W        W 6673   0.848   7.786  11.001  0.2462  0.2964 -0.0612
 2474W        W 6674   0.794   4.249   9.498 -0.0692  0.1802  0.1066
 2475W        W 6675   2.133   3.477  12.773 -0.1355  0.0242 -0.0310
 2476W        W 6676   0.963   6.411  10.220 -0.2167  0.1905 -0.3471
 2477W        W 6677   1.202   8.097  13.335  0.4087 -0.2344 -0.1263
 2478W        W 6678   9.317   7.410   2.040 -0.1254  0.0149  0.0916
 2479W        W 6679   3.508   1.170   2.493  0.0490  0.3152  0.0502
 2480W        W 6680   3.691   5.364  10.743 -0.0843  0.2109  0.1613
 2481W        W 6681   1.554   2.746   8.968  0.0650  0.1943 -0.2044
 2482W        W 6682   7.272   1.415   0.851  0.2566 -0.0977  0.1517
 2483W        W 6683   8.145   3.503  11.107  0.2296  0.1301 -0.2727
 2484W        W 6684   1.728   4.533  11.121  0.0960  0.1627  0.0884
 2485W        W 6685   5.250   6.276   1.956  0.2419  0.0684 -0.3552
 2486W        W 6686   1.186   0.456  13.238 -0.5046  0.2726 -0.0821
 2487W        W 6687   0.914   8.805   9.561  0.0503 -0.1984  0.0801
 2488W        W 6688   8.173   4.529   1.747  0.1314 -0.0145 -0.0387
 2489W        W 6689   6.177   5.059   9.662  0.2956  0.2609 -0.0976
 2490W        W 6690   6.069   9.396  10.279  0.0788  0.2525  0.1742
 2491W        W 6691   0.343   2.592   9.458 -0.1518  0.1862 -0.1148
 2492W        W 6692   5.121   0.740   1.041  0.3556 -0.0181 -0.1608
 2493W        W 6693   8.571   9.407   3.039 -0.0749  0.2317 -0.0275
 2494W        W 6694   1.756   7.781  13.328  0.3332 -0.4349  0.1603
 2495W        W 6695   4.988   1.867   1.470  0.2074  0.1378  0.0036
 2496W        W 6696   9.734   7.199   0.656 -0.0893  0.1555  0.2290
 2497W        W 6697   2.905   9.636  11.634  0.1058 -0.3043  0.2146
 2498W        W 6698   2.553   6.822  11.781  0.1652 -0.2244 -0.0231
 2499W        W 6699   3.180   1.537   9.695  0.3763  0.2867  0.2582
 2500W        W 6700   0.660   1.015   4.015  0.2782 -0.0923 -0.0593
 2501W        W 6701   7.491   1.279   0.341  0.2744  0.0941 -0.0200
 2502W        W 6702   9.168   0.609   4.077  0.0799 -0.0497  0.0036
 2503W        W 6703   3.325   3.148   4.339  0.0839 -0.0544 -0.0121
 2504W        W 6704   0.152   8.513   1.352  0.1082 -0.5108  0.0505
 2505W        W 6705   6.704   8.078  13.163  0.0032  0.0625 -0.2581
 2506W        W 6706   8.360   5.015   8.716  0.1518  0.0816 -0.1060
 2507W        W 6707   0.683   5.730  11.413 -0.1068 -0.0219 -0.1900
 2508W        W 6708   3.072   7.523  10.405 -0.2845  0.3210 -0.0977
 2509W        W 6709   0.219  10.389   0.028 -0.3432  0.1392  0.0005
 2510W        W 6710   7.055   5.177   4.544 -0.0755 -0.1662  0.3860
 2511W        W 6711   6.207   9.063  13.068 -0.2698 -0.1806  0.1030
 2512W        W 6712   3.275   9.615   4.766 -0.5310  0.0603  0.0605
 2513W        W 6713   4.801   2.283   3.187  0.0929  0.0905  0.0532
 2514W        W 6714   8.303   7.242  10.633 -0.0901 -0.0558  0.0181
 2515W        W 6715   0.721   0.319  11.193 -0.0250 -0.0217  0.0361
 2516W        W 6716   9.824   6.187   1.149  0.0671  0.0620  0.2410
 2517W        W 6717   9.047   2.199   1.450 -0.0306 -0.0075 -0.3278
 2518W        W 6718   7.266   3.576   8.804 -0.2159  0.2639 -0.3200
 2519W        W 6719   1.874   3.728   9.207 -0.2418 -0.1029  0.1874
 2520W        W 6720   4.715   0.259   3.960  0.0695  0.1808 -0.0784
 2521W        W 6721   5.807   7.954  10.516  0.1941 -0.3858 -0.2369
 2522W        W 6722   7.143   0.933   1.105 -0.0468 -0.0067 -0.3263
 2523W        W 6723   1.623   7.270   0.863  0.0861  0.1661  0.2499
 2524W        W 6724   4.956   5.397   9.807 -0.0089  0.2046  0.1529
 2525W        W 6725   8.070   1.946  11.614  0.3765  0.2896  0.2317
 2526W        W 6726   9.178   5.429   3.533 -0.0419  0.0008 -0.2334
 2527W        W 6727   7.264   2.863   9.898 -0.2408 -0.2719 -0.0557
 2528W        W 6728   5.445   7.528  12.448  0.4625 -0.0051 -0.2541
 2529W        W 6729   0.649   4.644  10.816  0.2536  0.0917  0.1715
 2530W        W 6730   9.115   9.012  10.439  0.0079  0.0366  0.1540
 2531W        W 6731   7.265   1.377   9.208  0.0735  0.0057  0.3284
 2532W        W 6732   1.553   7.017   1.309  0.2759 -0.2797  0.0516
 2533W        W 6733   6.177   0.367   3.639 -0.2082 -0.0538 -0.1377
 2534W        W 6734   3.557   4.093   0.865  0.0924 -0.2061  0.2077
 2535W        W 6735  10.176   8.608  10.429  0.0135  0.3006  0.2384
 2536W        W 6736   8.291   0.504   9.026  0.2285 -0.1256 -0.1437
 2537W        W 6737   8.741   3.058   0.298 -0.2596  0.2188 -0.0762
 2538W        W 6738   2.745   1.917  11.260 -0.1386 -0.1184 -0.0266
 2539W        W 6739   2.366   5.787  10.564  0.0317 -0.3058  0.1573
 2540W        W 6740   5.548   3.214   3.884  0.1565 -0.0816 -0.2657
 2541W        W 6741   4.188   3.761   4.197 -0.0690  0.1249  0.0041
 2542W        W 6742   3.376   4.355   0.445  0.0879  0.0862 -0.0657
 2543W        W 6743   1.205   6.922  12.608  0.0257 -0.0406  0.0159
 2544W        W 6744   0.023   6.229  11.408 -0.1871  0.0952 -0.0437
 2545W        W 6745  10.237   8.770   0.401 -0.1476  0.1811  0.1335
 2546W        W 6746  10.354   8.251   9.589 -0.1146 -0.1321 -0.0029
 2547W        W 6747   2.594   7.534   3.131  0.2343 -0.0833 -0.0721
 2548W        W 6748   5.405   1.562   9.961  0.1139  0.0079 -0.3897
 2549W        W 6749   9.826   3.145   4.422  0.0808  0.1217 -0.2202
 2550W        W 6750   7.431   9.025  10.158 -0.0185  0.2043  0.0341
 2551W        W 6751   1.766   0.625   8.944  0.0915  0.0745 -0.1850
 2552W        W 6752   0.368   3.736   8.781 -0.0170 -0.1492 -0.0112
 2553W        W 6753   5.343   7.293   0.114  0.0394 -0.1834  0.0167
 2554W        W 6754   6.501   1.828   9.256 -0.3701  0.0190 -0.2413
 2555W        W 6755   9.459   5.586   2.375 -0.2248  0.1017 -0.1320
 2556W        W 6756   0.080  10.171   4.450  0.0342  0.0023 -0.4086
 2557W        W 6757   8.050   2.537  11.418  0.3052 -0.0920  0.0269
 2558W        W 6758   9.838   9.163   2.221 -0.0316 -0.0264 -0.3865
 2559W        W 6759   7.487   4.394   1.002  0.2266  0.0505  0.1621
 2560W        W 6760   3.562   4.421  10.351 -0.1446  0.1785 -0.1542
 2561W        W 6761   5.936  10.137  12.002  0.0569  0.1371 -0.1949
 2562W        W 6762   6.165   4.298  11.208 -0.2274 -0.2183  0.2659
 2563W        W 6763  10.266   4.660   3.181  0.0064 -0.3410 -0.3488
 2564W        W 6764   9.213   3.906   3.624 -0.2008  0.1293 -0.1550
 2565W        W 6765   8.216   0.137  12.146  0.0337 -0.1953  0.3129
 2566W        W 6766   8.241   5.761   3.603 -0.0031 -0.1384  0.1450
 2567W        W 6767   9.222   5.965   3.520  0.1353  0.0124 -0.1386
 2568W        W 6768   2.804   4.856  11.425 -0.2109  0.1292  0.0664
 2569W        W 6769   3.946   2.337   4.377  0.0124  0.2189 -0.1315
 2570W        W 6770   6.807   5.405   0.162  0.0004 -0.1139  0.2169
 2571W        W 6771   7.999   7.682   1.023  0.1328 -0.3101  0.1962
 2572W        W 6772   2.776   0.424   0.826  0.0158 -0.0166 -0.3063
 2573W        W 6773   7.033   3.860   1.993  0.1438 -0.0179 -0.5076
 2574W        W 6774   6.148   2.072   0.146  0.4377 -0.2868 -0.1589
 2575W        W 6775   6.231   5.375   1.855  0.0914  0.0372  0.0789
 2576W        W 6776   2.044  10.077   2.186 -0.1816  0.0571  0.1997
 2577W        W 6777   4.842   9.861   8.640 -0.1061  0.1728 -0.1079
 2578W        W 6778   5.115   0.289   4.278 -0.1293  0.1220  0.0581
 2579W        W 6779   7.784   3.437   9.459 -0.5964 -0.4454  0.1191
 2580W        W 6780   4.621   3.068   9.537 -0.3380  0.2334  0.1459
 2581W        W 6781  10.419  10.078   2.530  0.4277  0.0826  0.1403
 2582W        W 6782   6.394   2.102  12.316  0.0197 -0.1675  0.0059
 2583W        W 6783   7.862   9.300  10.223 -0.0220 -0.3582  0.4880
 2584W        W 6784   2.805   4.439   1.350  0.1212 -0.0337  0.2422
 2585W        W 6785   1.956   5.708   1.633 -0.2267 -0.2059  0.1202
 2586W        W 6786   4.963   8.238   0.978 -0.0444  0.0297  0.0277
 2587W        W 6787   9.457   2.061   0.511 -0.0497 -0.1005 -0.0728
 2588W        W 6788   4.544   0.035   3.022  0.3068  0.2317 -0.1094
 2589W        W 6789   9.704   8.458  11.947 -0.2947  0.2350  0.2496
 2590W        W 6790   6.587   6.200   1.782  0.1704 -0.1258  0.2320
 2591W        W 6791   6.725   4.894   0.019 -0.0415 -0.2018  0.6093
 2592W        W 6792   1.075   0.848  12.056 -0.0655  0.1199 -0.1300
 2593W        W 6793   3.786   8.473   2.913 -0.0737  0.0384  0.0091
 2594W        W 6794   5.011   8.308  11.746  0.2145  0.1819 -0.2091
 2595W        W 6795   0.720   4.535   3.075 -0.1790 -0.0113  0.0205
 2596W        W 6796   7.088   0.802   3.759 -0.0910  0.1818 -0.0647
 2597W        W 6797   4.705   1.856  12.834 -0.0626 -0.2121  0.0755
 2598W        W 6798   7.637   4.036   2.370 -0.1954 -0.2767  0.2669
 2599W        W 6799   3.946   4.276   2.504 -0.0912 -0.0806  0.0078
 2600W        W 6800   6.491  10.151  12.281 -0.0893  0.1071 -0.2095
 2601W        W 6801   6.957   1.029   0.554 -0.0667 -0.0521  0.0280
 2602W        W 6802   7.271   7.960  12.162  0.0912  0.1636 -0.3799
 2603W        W 6803   2.717   9.290   2.480 -0.3245 -0.5022  0.0869
 2604W        W 6804   1.999   8.058  11.380  0.0105  0.1066 -0.2562
 2605W        W 6805   5.670   6.956   2.267 -0.0273 -0.2912  0.2024
 2606W        W 6806   2.343   1.834   9.923 -0.3427 -0.1690  0.3345
 2607W        W 6807   7.495   0.057   1.519  0.0509  0.0043 -0.0851
 2608W        W 6808   4.289   2.953   0.875 -0.2932  0.1602  0.0085
 2609W        W 6809   9.869   7.513  11.135  0.0246 -0.2552  0.2804
 2610W        W 6810   4.987   2.272   2.714  0.3227  0.0697  0.0947
 2611W        W 6811   9.766   5.678   1.021 -0.0939  0.0957 -0.0071
 2612W        W 6812   7.264   3.701   1.590  0.2146 -0.1730  0.1053
 2613W        W 6813   5.674   5.375  12.123  0.1386  0.1948  0.0551
 2614W        W 6814   7.591   5.975  11.879 -0.0873 -0.2629  0.1261
 2615W        W 6815   9.966   9.307  13.104 -0.2068 -0.0573  0.0188
 2616W        W 6816   5.845   3.245   0.305  0.3097 -0.0729  0.0906
 2617W        W 6817   0.504  10.065  11.690 -0.1431 -0.0472 -0.0779
 2618W        W 6818   2.910   5.428   9.655 -0.1492  0.0898  0.2037
 2619W        W 6819   8.025  10.305   1.242  0.3567 -0.0489 -0.2199
 2620W        W 6820   2.603  10.495   2.627  0.2484 -0.0686 -0.2552
 2621W        W 6821   9.531   1.263  12.034 -0.1291  0.1187 -0.0075
 2622W        W 6822   5.375   3.381  10.646 -0.2384 -0.0729 -0.0082
 2623W        W 6823   7.965   6.877   2.090 -0.0853 -0.0530 -0.1769
 2624W        W 6824  10.069   2.117  10.652 -0.0287  0.0327  0.0698
 2625W        W 6825  10.235   7.725   4.612  0.2220  0.0301  0.2660
 2626W        W 6826   6.415   0.288  10.627  0.0151  0.0497  0.1076
 2627W        W 6827   5.906   1.716   9.895  0.0955  0.0233 -0.3597
 2628W        W 6828   0.050   4.471  12.097  0.2534  0.0775  0.0266
 2629W        W 6829   8.182   4.613   9.960 -0.1734  0.0525  0.2044
 2630W        W 6830   5.933   5.401   4.275 -0.1775 -0.1079 -0.0536
 2631W        W 6831   6.294   4.091  10.757  0.4237  0.1790 -0.1659
 2632W        W 6832   4.983   4.111  10.505 -0.4263  0.1287  0.1653
 2633W        W 6833   0.510   1.073   0.553 -0.1842 -0.1843 -0.0563
 2634W        W 6834   5.008   2.558   2.230 -0.0745 -0.0651  0.1929
 2635W        W 6835   1.328   5.811   0.967  0.0368  0.2531 -0.0873
 2636W        W 6836   9.240   2.857   0.065  0.0923  0.0673  0.0845
 2637W        W 6837   3.355   3.792   0.386  0.1224  0.1131 -0.0320
 2638W        W 6838   9.909   0.864   0.396 -0.0674 -0.1199  0.1863
 2639W        W 6839   7.354   7.147   4.140  0.0379 -0.0187 -0.0173
 2640W        W 6840   9.905   3.157  12.576 -0.0261 -0.1083  0.1226
 2641W        W 6841   2.395   5.104   0.563  0.0093  0.1885  0.1884
 2642W        W 6842   3.305   1.902   3.411  0.2489 -0.1409  0.0689
 2643W        W 6843   2.050   4.603   0.294 -0.1615  0.0568  0.0814
 2644W        W 6844   7.982   6.311   1.396 -0.0725 -0.0472 -0.0090
 2645W        W 6845   1.613   2.361   8.663 -0.1392  0.0076 -0.0652
 2646W        W 6846   4.138   9.004   4.350  0.0244 -0.1630  0.2940
 2647W        W 6847   0.498   4.297  11.930 -0.3868  0.2149 -0.1918
 2648W        W 6848   7.784   1.106   1.759 -0.0621 -0.3172 -0.1658
 2649W        W 6849   3.590   4.114   2.023 -0.1017 -0.0439 -0.0536
 2650W        W 6850   9.360  10.110  11.355  0.4445 -0.2600  0.0130
 2651W        W 6851   1.445   1.267   3.132 -0.2875  0.1186 -0.0280
 2652W        W 6852   6.766   6.859   9.013  0.0083  0.1678  0.1067
 2653W        W 6853   6.678   2.321   5.155 -0.0605 -0.2912  0.2842
 2654W        W 6854   7.606   4.003   0.630  0.1044 -0.0811  0.1003
 2655W        W 6855   2.578   0.877   2.357 -0.2216 -0.0350  0.0036
 2656W        W 6856  10.302   4.722   2.533 -0.0620 -0.4018 -0.1093
 2657W        W 6857   0.072   0.511   9.966 -0.2442 -0.0452  0.0985
 2658W        W 6858   3.048   1.336  11.934  0.2461  0.1828 -0.0971
 2659W        W 6859   7.470   1.880   2.561  0.0931  0.0105 -0.1257
 2660W        W 6860   9.336   4.656  10.755 -0.0930  0.1366 -0.2084
 2661W        W 6861   9.465   6.533  10.231 -0.2194 -0.0267 -0.1175
 2662W        W 6862   5.446   3.012   8.591  0.4726 -0.0570  0.2053
 2663W        W 6863   0.601   9.700   4.180  0.1154  0.2144  0.0536
 2664W        W 6864   5.843   4.383   1.787  0.0441  0.0999 -0.2739
 2665W        W 6865   2.691   7.363  12.181 -0.3590 -0.0093 -0.0883
 2666W        W 6866   7.073   5.160  11.610 -0.0600  0.1805 -0.2958
 2667W        W 6867   0.352   8.561  11.688 -0.1509 -0.0975 -0.2924
 2668W        W 6868   4.557   1.156   2.411  0.2145 -0.0198 -0.0083
 2669W        W 6869   5.105   8.416   2.846  0.0453  0.0117 -0.0039
 2670W        W 6870   4.760  10.360   3.688  0.2429  0.0434 -0.0165
 2671W        W 6871   2.326   7.221   2.510  0.0501  0.0689 -0.2191
 2672W        W 6872   9.012   3.265   2.499 -0.2404  0.0237  0.1700
 2673W        W 6873   7.545   9.098  11.685  0.4380 -0.2499  0.2819
 2674W        W 6874   4.397   9.069   3.023  0.1921  0.2817  0.0898
 2675W        W 6875   5.734   0.028  12.373  0.0696 -0.0696  0.0456
 2676W        W 6876   9.391   1.482  11.540  0.0634  0.2280  0.4412
 2677W        W 6877   6.004   3.210   4.561  0.0041 -0.2767 -0.1089
 2678W        W 6878   0.323   8.101  13.241 -0.0653 -0.1288  0.4530
 2679W        W 6879   5.480   4.299   0.101 -0.0329  0.1932  0.0339
 2680W        W 6880   1.139   8.528   0.317  0.0486  0.0809  0.0295
 2681W        W 6881   9.936   9.046  10.609 -0.0906  0.1612  0.1513
 2682W        W 6882   3.193   0.664  11.274  0.2984 -0.2251  0.1763
 2683W        W 6883   0.380   2.443  11.719 -0.1520  0.0394  0.0764
 2684W        W 6884   5.314   1.770  12.674 -0.0316 -0.1683 -0.1110
 2685W        W 6885   0.730   9.570   2.715 -0.1680  0.0683 -0.0447
 2686W        W 6886   0.145   7.064  12.059  0.1263  0.2049 -0.1879
 2687W        W 6887   3.385   1.932  10.608  0.2723  0.0633  0.1148
 2688W        W 6888   4.542   3.509  12.643 -0.0283  0.1004 -0.4093
 2689W        W 6889   7.672   8.537   1.873 -0.0712  0.1455 -0.0102
 2690W        W 6890   9.266   8.775  12.819  0.0707  0.0752 -0.2703
 2691W        W 6891   1.821   9.753  13.324  0.2736 -0.1771  0.4052
 2692W        W 6892   9.103   0.265   9.809  0.0340  0.0585  0.2291
 2693W        W 6893   1.675   3.883   3.695 -0.0509 -0.1625  0.1031
 2694W        W 6894   0.672   8.667   1.031 -0.3273 -0.1201  0.1412
 2695W        W 6895   4.634   1.745   4.232  0.2250 -0.2419 -0.1619
 2696W        W 6896   4.491   7.613  12.409  0.0055  0.1185 -0.0728
 2697W        W 6897   8.136   9.303   3.610  0.3844 -0.2583 -0.1116
 2698W        W 6898   1.527   1.216   0.284 -0.4168 -0.0890  0.1386
 2699W        W 6899   2.943   7.665  11.315  0.1206 -0.0036  0.0032
 2700W        W 6900   0.265   4.639   2.233  0.2030 -0.1360  0.1426
 2701W        W 6901   1.975   3.717   2.872  0.1715 -0.0942 -0.2707
 2702W        W 6902   0.978   3.361   9.490 -0.1387 -0.1369  0.0897
 2703W        W 6903   6.874   8.285   8.875 -0.1526  0.1964 -0.1080
 2704W        W 6904   8.962   8.861  12.027 -0.0296 -0.0632  0.2293
 2705W        W 6905   2.248   3.440   1.256  0.2601  0.0345 -0.0449
 2706W        W 6906   2.976   9.836   1.075 -0.2026  0.1175 -0.0050
 2707W        W 6907   8.879   5.105  12.690 -0.2502  0.1058  0.0322
 2708W        W 6908   2.508   8.232   2.740  0.1305  0.0594  0.4386
 2709W        W 6909   5.451   0.845   9.150 -0.1408 -0.0803  0.2415
 2710W        W 6910   1.184   0.491   9.967 -0.3356 -0.0654  0.1468
 2711W        W 6911   5.822   4.003   1.432  0.1208  0.0976 -0.1576
 2712W        W 6912   0.495   6.132  13.060  0.4584 -0.0444 -0.1892
 2713W        W 6913  10.343   5.908   9.852  0.0282  0.2212  0.0839
 2714W        W 6914   6.161   9.259  12.135  0.2131 -0.3222 -0.1983
 2715W        W 6915   1.951   0.286   4.829  0.0410  0.2345  0.0430
 2716W        W 6916   7.180   5.881  13.303 -0.1365 -0.2289  0.2673
 2717W        W 6917   5.449   1.915   4.404 -0.1515 -0.2523 -0.1711
 2718W        W 6918   2.428   5.358   1.157 -0.0321 -0.0486 -0.0884
 2719W        W 6919   8.282   3.395   9.581 -0.2582  0.0791  0.2131
 2720W        W 6920   5.337   1.336   4.506 -0.0302 -0.3206 -0.0141
 2721W        W 6921   0.645   5.897   1.657  0.0296 -0.0778 -0.1915
 2722W        W 6922   9.733   4.266   4.971  0.1299  0.1319  0.2113
 2723W        W 6923   3.636   6.971  12.369 -0.0501 -0.1736 -0.1234
 2724W        W 6924   2.424   0.898  13.314 -0.3768  0.1748  0.0700
 2725W        W 6925   4.363  10.305  12.598 -0.1851 -0.0336  0.2750
 2726W        W 6926   7.436   5.030   3.303 -0.0209 -0.3331 -0.0760
 2727W        W 6927   2.757   9.009   0.513  0.2455 -0.1573  0.4039
 2728W        W 6928   9.937   1.625  11.352  0.1624 -0.0144 -0.0394
 2729W        W 6929   6.643   1.641  12.292 -0.2612 -0.0696 -0.3326
 2730W        W 6930  10.344   1.671   2.300 -0.1190 -0.0598 -0.0386
 2731W        W 6931   6.346   1.742  10.758 -0.2310 -0.1649  0.1563
 2732W        W 6932   4.666   5.122   4.410  0.1874 -0.1370 -0.1024
 2733W        W 6933   9.461   4.512  12.824 -0.0885 -0.0805  0.2342
 2734W        W 6934   0.628  10.257   9.382  0.1462  0.1322 -0.2620
 2735W        W 6935   1.628   4.856  11.767 -0.0745  0.0729 -0.0429
 2736W        W 6936   9.350   0.110   8.384  0.1920 -0.2148 -0.2907
 2737W        W 6937   1.037   8.783   1.725 -0.0008 -0.1192  0.0738
 2738W        W 6938   4.828   8.872  11.369  0.1290 -0.3396 -0.1283
 2739W        W 6939   0.050   5.069  12.268 -0.0282  0.1248 -0.3546
 2740W        W 6940   8.575   1.314  11.177 -0.0402  0.2620  0.1868
 2741W        W 6941   2.515   7.670  11.615 -0.0182 -0.3050 -0.1140
 2742W        W 6942   7.925   2.116  11.123 -0.1201 -0.0437  0.1513
 2743W        W 6943   4.181   1.568  10.591 -0.3233  0.0819 -0.1086
 2744W        W 6944   8.786   0.608   0.248  0.0113  0.2884  0.1303
 2745W        W 6945   3.421   4.797   0.173  0.1038  0.1400  0.0778
 2746W        W 6946   7.009   1.979  11.494 -0.1125  0.3476 -0.0357
 2747W        W 6947   9.590   3.966   9.732  0.2372  0.0909  0.2753
 2748W        W 6948   6.085   3.660   4.418 -0.1232  0.1148 -0.2074
 2749W        W 6949  10.136   6.017  12.472 -0.2498  0.0653  0.0117
 2750W        W 6950   3.363   9.098   3.223  0.0942  0.0822  0.1009
 2751W        W 6951   5.416   5.263  11.385  0.2720 -0.2483  0.0412
 2752W        W 6952   4.284   4.332   0.285 -0.0593  0.4397  0.0173
 2753W        W 6953   3.046   4.061  11.334 -0.1166 -0.4463 -0.0027
 2754W        W 6954   2.907   9.929   9.331  0.3581 -0.1489  0.0643
 2755W        W 6955   8.115   9.950   4.573  0.2520 -0.0371 -0.1328
 2756W        W 6956   8.908   0.335  12.579 -0.2895  0.1087 -0.4072
 2757W        W 6957   2.861   0.662   3.182  0.1979  0.1054 -0.1606
 2758W        W 6958   0.870   7.658   1.233 -0.0699 -0.2793 -0.0810
 2759W        W 6959   5.683   5.910  12.151  0.1205  0.0630 -0.1765
 2760W        W 6960   8.299   1.345   9.908  0.0627  0.0195  0.0129
 2761W        W 6961   6.967   4.718   3.263 -0.1534 -0.2761 -0.0231
 2762W        W 6962   7.746   9.644   2.320 -0.1362  0.0332  0.0422
 2763W        W 6963   6.500   9.620   0.961  0.3115 -0.1530 -0.1510
 2764W        W 6964   9.995   5.996   8.578 -0.1177 -0.1825  0.3642
 2765W        W 6965   2.088   0.418   1.807 -0.1910  0.1711  0.2614
 2766W        W 6966   1.216  10.322  10.552  0.1939 -0.0912  0.2463
 2767W        W 6967   9.305   8.873   0.587  0.2498  0.1446 -0.3523
 2768W        W 6968   4.397   0.034   1.871  0.2301  0.1146 -0.0579
 2769W        W 6969   4.039   3.744  11.472 -0.0021  0.0831  0.2732
 2770W        W 6970   3.498   8.746   2.587 -0.0575  0.0690  0.0703
 2771W        W 6971   7.989   2.421   2.104  0.1677  0.1839  0.1848
 2772W        W 6972  10.458   4.230   3.167 -0.2302 -0.4038 -0.1488
 2773W        W 6973   2.625   4.603  11.916 -0.2325 -0.5445  0.0608
 2774W        W 6974   1.640   0.555   9.404 -0.1675 -0.1798  0.0695
 2775W        W 6975   6.447   3.530   3.647 -0.2586  0.1866  0.2679
 2776W        W 6976   2.577   6.844   3.508  0.3214  0.3047 -0.1343
 2777W        W 6977   3.190   4.044   3.787  0.2798 -0.2498  0.1559
 2778W        W 6978   3.211   8.626  11.830  0.1843  0.1110  0.0463
 2779W        W 6979   0.270   1.140  11.293 -0.1101  0.2804 -0.3319
 2780W        W 6980   7.998   8.349  10.237  0.0186  0.1560  0.1870
 2781W        W 6981   6.797   0.637   1.926 -0.2418  0.0137 -0.1464
 2782W        W 6982   0.455   3.610  10.611 -0.1460  0.0826 -0.1535
 2783W        W 6983   5.162  10.525  10.703 -0.1408  0.1422 -0.1076
 2784W        W 6984   6.451   2.593  10.387  0.3288  0.0183 -0.0953
 2785W        W 6985   0.054  10.097  10.243  0.2745  0.3097 -0.0117
 2786W        W 6986  10.097   3.223  12.099 -0.0594 -0.2455 -0.2580
 2787W        W 6987   1.065   9.453  12.570  0.1475  0.0799  0.2571
 2788W        W 6988   0.346   1.256  10.353  0.0997 -0.2574 -0.0490
 2789W        W 6989   0.649   7.204  10.911  0.0382  0.0792 -0.0313
 2790W        W 6990   3.231   8.013  10.451 -0.2430 -0.1275 -0.0290
 2791W        W 6991   5.880   1.255   9.080 -0.2270 -0.0349  0.2772
 2792W        W 6992   1.647   6.935  11.402 -0.1715  0.1424  0.2137
 2793W        W 6993   8.267   4.318  13.004 -0.0005 -0.1685  0.0560
 2794W        W 6994   0.663  10.135  12.179 -0.1550  0.0488 -0.0507
 2795W        W 6995   4.289  10.149   5.216 -0.0956 -0.1520 -0.0397
 2796W        W 6996   2.819   6.900  13.267  0.3081 -0.2080 -0.0585
 2797W        W 6997   5.155   7.042   9.543 -0.3854  0.0849 -0.2445
 2798W        W 6998   2.195   2.511   1.446  0.2154  0.1648  0.1748
 2799W        W 6999   3.215   5.030   1.624  0.0260  0.0799  0.0595
 2800W        W 7000   3.448   5.350  11.880 -0.0805 -0.2560  0.1722
 2801W        W 7001   1.709   7.980   9.076  0.1507 -0.1119 -0.0976
 2802W        W 7002   6.185   0.389   8.141 -0.0784 -0.0161 -0.1046
 2803W        W 7003   7.512   2.676  11.633 -0.0902 -0.0821 -0.3155
 2804W        W 7004   7.943   5.470  13.043  0.1093  0.0952  0.2327
 2805W        W 7005   4.603   1.972   4.700 -0.4308  0.0626  0.0555
 2806W        W 7006   2.210   2.016   2.259 -0.1482 -0.0656 -0.3302
 2807W        W 7007   4.821   2.117   2.182 -0.3059  0.2481  0.0361
 2808W        W 7008   7.501   5.779   4.307 -0.3621  0.3560  0.0928
 2809W        W 7009   8.017   5.383   2.727 -0.1956  0.0612 -0.5845
 2810W        W 7010   6.911   5.281   9.974  0.2313  0.0001  0.0805
 2811W        W 7011   9.670   5.957   4.351  0.0257 -0.0763  0.0604
 2812W        W 7012   1.883   0.507   0.751 -0.1390  0.2940  0.0087
 2813W        W 7013   8.555   4.643   8.940 -0.1325 -0.0552  0.1813
 2814W        W 7014   2.447   4.343   2.749  0.3712  0.0203 -0.0150
 2815W        W 7015   2.804   1.236   3.081 -0.2332  0.0807  0.1104
 2816W        W 7016   1.982   3.197   1.681 -0.0055  0.0450 -0.1367
 2817W        W 7017   6.554   1.137   3.407  0.0929  0.2141 -0.4176
 2818W        W 7018   0.056   2.738   2.112  0.0590 -0.1794  0.0775
 2819W        W 7019   8.035  10.165  12.160  0.2522  0.0031  0.0376
 2820W        W 7020   1.141   7.696   1.666  0.2192 -0.4665  0.1574
 2821W        W 7021   4.555   2.132  11.614  0.2197 -0.1493  0.2448
 2822W        W 7022   0.178   9.252  12.652  0.1314 -0.2050  0.0828
 2823W        W 7023   6.573   7.076   9.460  0.1857  0.0397 -0.1531
 2824W        W 7024   4.403   0.155   3.512  0.3711  0.1816 -0.4845
 2825W        W 7025   4.607   0.767   1.026  0.0987 -0.1006 -0.0853
 2826W        W 7026   3.521   4.010   2.569  0.1374  0.1923  0.4080
 2827W        W 7027   8.381   0.270   0.044 -0.1207  0.1054  0.0340
 2828W        W 7028   2.880   0.676   4.183  0.2151 -0.2436  0.1970
 2829W        W 7029   3.526   7.500  12.584  0.3626  0.1573 -0.2955
 2830W        W 7030  10.214   4.009   0.367  0.2899  0.0988  0.1404
 2831W        W 7031   7.050   6.128   5.088  0.0268  0.0928  0.0857
 2832W        W 7032   4.656   6.070   9.314 -0.0676  0.2137  0.0191
 2833W        W 7033   5.252   4.099   9.870 -0.0444 -0.0469 -0.2077
 2834W        W 7034   9.554   2.989  10.123 -0.2243 -0.1517  0.3985
 2835W        W 7035   0.447   3.910   2.351  0.0227 -0.0379 -0.0012
 2836W        W 7036   7.971   6.638  11.562  0.0853 -0.0392 -0.0840
 2837W        W 7037   8.256   4.747  11.926 -0.3293  0.1456 -0.0999
 2838W        W 7038   7.218   6.952   8.625  0.2135  0.3801 -0.0858
 2839W        W 7039   7.652   0.289  10.593 -0.0322  0.0021 -0.0726
 2840W        W 7040   4.143   2.087   9.633  0.1691  0.0916  0.3434
 2841W        W 7041   5.034   1.335   1.504 -0.1027  0.0118 -0.2597
 2842W        W 7042   9.964   7.612   2.128 -0.2242  0.0360  0.4298
 2843W        W 7043   6.913   3.757   3.017 -0.0999 -0.1598 -0.0188
 2844W        W 7044   9.206   7.279  12.575 -0.0562  0.0503 -0.2058
 2845W        W 7045   8.099   1.804  13.346  0.0419  0.0136 -0.2131
 2846W        W 7046   8.946   2.863  10.150 -0.3253  0.1995  0.2911
 2847W        W 7047   9.140   3.204   3.015 -0.2272 -0.0303 -0.0309
 2848W        W 7048   8.232   4.012   3.232  0.1212 -0.1282  0.0575
 2849W        W 7049   0.360   8.426   2.423 -0.4008 -0.3638  0.4151
 2850W        W 7050   6.637   1.556   1.624 -0.0012  0.1259  0.1716
 2851W        W 7051   5.554   5.701  11.694  0.0446 -0.0305  0.3032
 2852W        W 7052   8.618   8.858   1.688  0.4982 -0.1366  0.1176
 2853W        W 7053   8.571   3.688   8.723  0.2865 -0.0260 -0.0310
 2854W        W 7054   9.404   9.105   4.171 -0.0307  0.0829  0.0737
 2855W        W 7055   2.854   4.560   2.528 -0.1694 -0.2242  0.0183
 2856W        W 7056   1.440   5.599  10.928  0.4050 -0.1961 -0.4090
 2857W        W 7057   8.234   8.625  10.638  0.1739  0.0270  0.0474
 2858W        W 7058   6.649   3.573  13.174  0.1822  0.1264  0.0517
 2859W        W 7059  10.408   0.969  11.769 -0.1143  0.1261 -0.0982
 2860W        W 7060   2.190   6.795  11.097  0.1744  0.0465 -0.3212
 2861W        W 7061   0.156   5.640   0.887  0.1388  0.3173  0.0639
 2862W        W 7062   2.241   0.550  12.979  0.0933 -0.3129 -0.1818
 2863W        W 7063   4.877   4.958   9.532 -0.3338  0.0423 -0.0301
 2864W        W 7064   4.484   9.583   1.889 -0.2317  0.0885  0.0185
 2865W        W 7065   7.497   7.511   1.160 -0.1691 -0.4334  0.0465
 2866W        W 7066   6.387   3.332   9.674 -0.2066  0.0673 -0.0196
 2867W        W 7067   6.287   4.067   3.462 -0.0071 -0.2836 -0.3767
 2868W        W 7068   9.992   8.210   2.065 -0.0514  0.0639  0.2262
 2869W        W 7069   0.448   1.294   4.471 -0.0151  0.0117  0.1325
 2870W        W 7070   1.895   0.180   9.107 -0.0320  0.1572  0.2777
 2871W        W 7071   0.900   3.697   0.916  0.1474 -0.2421 -0.2136
 2872W        W 7072   4.520   9.503   3.967  0.2968 -0.2156  0.0517
 2873W        W 7073   9.228   7.251  10.679 -0.1258 -0.0428 -0.1371
 2874W        W 7074   6.603   4.487  10.953 -0.3939 -0.1017  0.1159
 2875W        W 7075   3.164   0.198  13.183 -0.2929  0.0019  0.2036
 2876W        W 7076   1.268   7.497  10.264 -0.2842  0.0721 -0.2328
 2877W        W 7077   2.855   8.707  10.937  0.1013 -0.0465 -0.0718
 2878W        W 7078   1.242   0.953   1.078 -0.3132  0.1737 -0.2900
 2879W        W 7079   1.032   0.813   5.137  0.1459 -0.0401 -0.3182
 2880W        W 7080   5.581   8.740  11.424 -0.1286  0.2527  0.1435
 2881W        W 7081   8.064   2.546   2.651 -0.2860  0.4882 -0.0292
 2882W        W 7082   0.657   1.623   3.876  0.2067  0.0780  0.0253
 2883W        W 7083   2.162   4.419  12.249 -0.2488  0.1486  0.0271
 2884W        W 7084   3.646   8.714   3.306  0.0099 -0.0688 -0.0538
 2885W        W 7085   1.907   3.282   0.887 -0.0731 -0.1042  0.0183
 2886W        W 7086   9.662   5.082   2.399 -0.0635 -0.1559 -0.2403
 2887W        W 7087   2.837   3.266  10.061 -0.1745  0.0660 -0.1070
 2888W        W 7088   6.141   7.519   3.504 -0.0695 -0.1829 -0.1119
 2889W        W 7089   7.108   5.072  10.507 -0.0730 -0.0586  0.1055
 2890W        W 7090   4.093   6.788   2.041 -0.1219 -0.0428 -0.2351
 2891W        W 7091   5.808   3.934   2.081  0.3055  0.0187  0.2970
 2892W        W 7092   8.783   6.371   2.637  0.1619  0.0606  0.2113
 2893W        W 7093   3.420   2.550  11.644 -0.0598  0.0335 -0.0741
 2894W        W 7094   7.605   5.404   3.037  0.0276 -0.1625  0.1974
 2895W        W 7095   7.427   0.130  12.905  0.1894 -0.1645 -0.2158
 2896W        W 7096  10.281   9.413   3.384 -0.1994 -0.2531  0.0513
 2897W        W 7097   0.022   0.808   9.506 -0.2211 -0.1390  0.2376
 2898W        W 7098   4.530   7.636  10.098  0.3134  0.0012 -0.1304
 2899W        W 7099   7.003   0.295   3.866 -0.0288  0.0689 -0.0790
 2900W        W 7100   3.589   2.316   9.630 -0.2494 -0.0404 -0.0180
 2901W        W 7101   7.612   6.619   9.421 -0.0362  0.2641 -0.0919
 2902W        W 7102   9.707   3.592   3.714  0.0959  0.2193 -0.1161
 2903W        W 7103   6.769   0.984   9.893  0.0240  0.0877 -0.2338
 2904W        W 7104   8.209   6.283   2.982  0.2766  0.0832 -0.0696
 2905W        W 7105   2.960   3.174   0.368  0.2455 -0.1864  0.2019
 2906W        W 7106   9.922   0.675  12.518 -0.4388 -0.1346 -0.0841
 2907W        W 7107   8.740   9.418   0.229 -0.0685  0.3821  0.2195
 2908W        W 7108   2.576  10.313   9.487  0.1044 -0.0258 -0.0925
 2909W        W 7109  10.304   8.977   3.528 -0.0473 -0.1666 -0.2576
 2910W        W 7110   1.191   7.636  13.301 -0.2077  0.1300 -0.0737
 2911W        W 7111   3.283   0.619   3.385 -0.0733  0.2665  0.0397
 2912W        W 7112   8.454   1.798   1.564  0.3789 -0.2896  0.2325
 2913W        W 7113   0.179   3.280   3.333 -0.1468  0.1940 -0.1204
 2914W        W 7114   7.478   0.558   1.159  0.1395  0.0570 -0.1018
 2915W        W 7115   8.964  10.265  13.336  0.1457  0.0572  0.2949
 2916W        W 7116   0.191   5.029  10.293 -0.1594 -0.0188 -0.0587
 2917W        W 7117   3.245   2.769   4.026  0.2747  0.1036  0.2310
 2918W        W 7118   0.965   6.574   9.712 -0.2897  0.1360  0.0451
 2919W        W 7119  10.445   3.986   1.785  0.1339 -0.1601 -0.5552
 2920W        W 7120   9.157   7.838   2.539  0.0806 -0.2377  0.0219
 2921W        W 7121   5.902   4.169   3.757 -0.2773 -0.1654  0.1391
 2922W        W 7122   5.598   0.252  12.812 -0.4462 -0.1287  0.0046
 2923W        W 7123   9.802   7.342  10.586  0.1419 -0.5474  0.0247
 2924W        W 7124   1.067   7.263  12.952  0.0761  0.2514 -0.2228
 2925W        W 7125   4.003   9.553  10.235 -0.2992  0.0076 -0.0224
 2926W        W 7126   6.486   5.000  11.743  0.2346 -0.2129 -0.1482
 2927W        W 7127   0.105   3.013   4.909  0.0336 -0.0659  0.4938
 2928W        W 7128   4.221   5.146   2.746 -0.0587  0.0067 -0.2277
 2929W        W 7129   0.030   2.129  12.077  0.0316 -0.0623 -0.0056
 2930W        W 7130   1.907   9.901  12.818 -0.1509  0.2207 -0.1084
 2931W        W 7131   1.612   2.547  12.049  0.1358 -0.0331 -0.1305
 2932W        W 7132   0.812  10.374  13.194  0.0814  0.3081 -0.4772
 2933W        W 7133   2.411   0.961   4.100 -0.1404 -0.0326 -0.0766
 2934W        W 7134   8.671   3.998  10.164  0.1045 -0.0675 -0.0422
 2935W        W 7135   1.116   1.183   4.632 -0.0828 -0.1938 -0.1815
 2936W        W 7136   9.230   9.892   1.998 -0.2094  0.0538  0.0056
 2937W        W 7137   7.659   1.602   1.886 -0.0190  0.2698  0.1902
 2938W        W 7138   3.279   7.626   9.869  0.1665  0.3637 -0.2121
 2939W        W 7139   3.578   3.517   2.701 -0.0932  0.0500  0.0957
 2940W        W 7140   8.294   9.377   9.063  0.0152  0.0357 -0.1266
 2941W        W 7141   6.582   5.560  10.890 -0.1692 -0.1210 -0.3693
 2942W        W 7142   1.738   6.038   0.755 -0.3749 -0.0613 -0.0191
 2943W        W 7143   7.505   8.859  12.271  0.1094  0.1052 -0.1644
 2944W        W 7144   0.130   8.329   3.833 -0.3625  0.0807  0.2544
 2945W        W 7145   1.828   5.301   1.939 -0.1365 -0.0326 -0.2635
 2946W        W 7146   2.545  10.418   0.541  0.2279  0.1814  0.0477
 2947W        W 7147   5.286   2.012   1.086  0.0068 -0.2836 -0.0586
 2948W        W 7148   5.094   7.950   9.306  0.1766  0.0312 -0.1084
 2949W        W 7149   3.073   1.036  10.794 -0.1055  0.0755  0.1638
 2950W        W 7150   8.524   7.967   1.949 -0.0113 -0.0927  0.4213
 2951W        W 7151   3.859   6.921   3.556  0.1239 -0.0351  0.2166
 2952W        W 7152   6.869   0.034   2.684 -0.0536  0.0060  0.2027
 2953W        W 7153   9.428   1.467   0.138  0.4291 -0.2675 -0.0129
 2954W        W 7154   5.305  10.092   3.672 -0.1464 -0.1133  0.0116
 2955W        W 7155   8.387  10.459   3.218  0.0959 -0.0988 -0.1872
 2956W        W 7156   1.639  10.507  11.383  0.0829 -0.0647 -0.0111
 2957W        W 7157   1.832   9.532   9.947 -0.1324  0.0086 -0.0718
 2958W        W 7158   4.233   8.121   9.601  0.0380  0.0645  0.1377
 2959W        W 7159   1.937   4.548   2.685 -0.0497  0.1225 -0.0559
 2960W        W 7160   5.053   0.011   3.286  0.0072 -0.0087  0.0739
 2961W        W 7161   0.362   5.825   0.085  0.1540  0.0892 -0.2679
 2962W        W 7162   2.925   2.011   4.657  0.2200  0.0665 -0.2611
 2963W        W 7163   0.488   8.642   3.421 -0.0255 -0.1044  0.1116
 2964W        W 7164   8.379   4.070   1.932 -0.0280 -0.0262  0.0121
 2965W        W 7165   8.703   3.768   9.221  0.1367  0.2771 -0.0486
 2966W        W 7166   0.565   3.794   9.291  0.1256 -0.1110 -0.2746
 2967W        W 7167   5.783   8.934  10.408  0.2697  0.1331  0.1014
 2968W        W 7168   3.283   2.229  12.599 -0.2153  0.0328  0.1663
 2969W        W 7169   9.550   8.114   4.248 -0.0533 -0.2505 -0.2555
 2970W        W 7170   9.297   2.438  10.068 -0.3568 -0.2823  0.1998
 2971W        W 7171   5.397   1.100   3.148  0.0257 -0.1201 -0.4304
 2972W        W 7172   1.499   9.066   3.738  0.1942 -0.0569 -0.1198
 2973W        W 7173   8.578   3.266   9.090 -0.2926  0.2554 -0.2941
 2974W        W 7174   8.430   9.733  10.165  0.0726 -0.3770  0.0640
 2975W        W 7175   8.434   4.151   9.055 -0.0810 -0.1171  0.0559
 2976W        W 7176   1.005  10.482   1.922  0.3378  0.3204  0.1557
 2977W        W 7177   5.519   9.976   9.142 -0.2352  0.1669 -0.0677
 2978W        W 7178   9.251   5.367   2.739  0.0613  0.0693 -0.3404
 2979W        W 7179   9.034   8.347  12.717 -0.1121  0.0625  0.3078
 2980W        W 7180   9.131   2.864  12.147  0.0313  0.1675  0.1642
 2981W        W 7181   2.257   6.019   0.375 -0.1033 -0.0293  0.0602
 2982W        W 7182   9.896   6.307   9.971 -0.0598 -0.2308 -0.1675
 2983W        W 7183   5.327   7.821  11.605 -0.2045 -0.2246 -0.0972
 2984W        W 7184   6.647   3.169   3.349  0.1212  0.1488  0.1786
 2985W        W 7185   6.110   7.156   8.754 -0.1975 -0.0649  0.2671
 2986W        W 7186   5.915   4.270  12.211 -0.0345  0.0761 -0.1226
 2987W        W 7187   9.553   2.794   1.060 -0.2490  0.0630  0.3039
 2988W        W 7188   6.929   4.692  10.029  0.0159  0.0271  0.4213
 2989W        W 7189   8.759   4.380  13.222  0.1115 -0.0204  0.1199
 2990W        W 7190   5.108   0.985   9.563  0.0432 -0.0426 -0.0967
 2991W        W 7191   6.317   2.298   9.371 -0.0670  0.1744 -0.0150
 2992W        W 7192   7.919   4.179   9.051  0.1631  0.0628  0.0429
 2993W        W 7193   4.704   0.671   4.301  0.2027  0.3576  0.0547
 2994W        W 7194   4.945  10.514  10.188 -0.0605 -0.1837  0.0572
 2995W        W 7195   2.383   9.434   9.682 -0.1138  0.1532 -0.2026
 2996W        W 7196   9.188   9.440   9.654  0.0241  0.0362 -0.1917
 2997W        W 7197   0.992   2.096  12.591 -0.0215  0.2007  0.1364
 2998W        W 7198   7.531   8.160   9.907 -0.0231 -0.0379 -0.0985
 2999W        W 7199   1.299  10.274   8.647 -0.0599  0.0932  0.1746
 3000W        W 7200   6.791   9.300   1.745  0.0415  0.2251  0.2459
 3001W        W 7201   3.246   8.139   8.954 -0.0881 -0.3939  0.1141
 3002W        W 7202   4.412   8.746  10.314  0.1986  0.1711  0.0061
 3003W        W 7203   5.220   9.519   1.259 -0.1954  0.0498 -0.2040
 3004W        W 7204   3.621   9.588  10.525 -0.2079  0.0197  0.3119
 3005W        W 7205   4.020   7.596   4.022  0.0297 -0.1209 -0.0662
 3006W        W 7206   4.662   5.127  13.285 -0.2725 -0.0136  0.2581
 3007W        W 7207   9.100   1.432   9.767 -0.0443  0.0457 -0.1334
 3008W        W 7208   1.809   8.814  12.319  0.0149 -0.2310  0.2537
 3009W        W 7209   0.506   1.696   4.808  0.3102 -0.0880 -0.0225
 3010W        W 7210   6.528   9.022   0.113 -0.1079  0.3293  0.1637
 3011W        W 7211   1.787   6.505   2.778 -0.1103 -0.3740 -0.0324
 3012W        W 7212   7.117   4.744  12.400 -0.0864 -0.0548  0.0187
 3013W        W 7213   6.717   4.887   2.797 -0.2428 -0.1368  0.1133
 3014W        W 7214   5.400   5.997   0.321  0.3073 -0.1414  0.1950
 3015W        W 7215   3.545   1.218   0.604 -0.0951  0.3896  0.2397
 3016W        W 7216   3.418   4.410   4.065  0.1994 -0.3910 -0.2341
 3017W        W 7217   0.945   5.178  12.029  0.3459  0.0924  0.1202
 3018W        W 7218   7.131   3.556  10.899 -0.1442  0.2513 -0.3849
 3019W        W 7219   8.793   5.635  12.623  0.2559 -0.0652  0.3118
 3020W        W 7220   7.801   4.341  10.217 -0.1355  0.1401  0.2720
 3021W        W 7221   4.923   4.997  10.096  0.1044 -0.2374 -0.0834
 3022W        W 7222   1.319   3.385   4.587 -0.0128  0.0412  0.0947
 3023W        W 7223   9.761   2.246   3.779  0.5551 -0.0049  0.2057
 3024W        W 7224   6.956   1.729   9.490 -0.0699 -0.1110 -0.1900
 3025W        W 7225   6.782   8.539   2.073  0.0915 -0.1835  0.1485
 3026W        W 7226   5.694   4.567   9.747 -0.0859  0.0675 -0.0622
 3027W        W 7227   4.988   7.761  13.310 -0.1964  0.0146 -0.2532
 3028W        W 7228   3.575   1.941  12.238  0.3005  0.0187  0.2154
 3029W        W 7229   3.230   2.438  13.295 -0.0265 -0.0441  0.0122
 3030W        W 7230   9.057   9.780  13.054  0.3505  0.3210 -0.1571
 3031W        W 7231   6.719  10.214  10.520 -0.1949 -0.1350  0.2048
 3032W        W 7232   4.761   8.871  12.523 -0.1656  0.1968  0.0033
 3033W        W 7233   7.729   0.405  12.207  0.3058 -0.3817  0.0753
 3034W        W 7234   1.110   1.272  12.876  0.0886  0.0676  0.0918
 3035W        W 7235   2.358   6.352  11.831 -0.3191  0.1313 -0.0693
 3036W        W 7236   3.464   0.537   2.063 -0.0205 -0.1034 -0.2897
 3037W        W 7237   2.420   7.873   9.253  0.2512  0.1484  0.2188
 3038W        W 7238   9.076   0.016   3.826  0.1169  0.0586  0.0914
 3039W        W 7239   3.053   2.878  11.884  0.1724  0.2266 -0.1116
 3040W        W 7240   3.361   9.622   9.491  0.5485  0.2573 -0.0001
 3041W        W 7241   1.484   2.111  12.860 -0.1281 -0.2429  0.0584
 3042W        W 7242   7.575   5.676   2.573  0.1054  0.0676 -0.1025
 3043W        W 7243   6.934   8.830   1.545  0.0993  0.1115 -0.1188
 3044W        W 7244   3.611   7.699   3.364 -0.2501 -0.3415  0.4803
 3045W        W 7245   8.056   8.822  11.491  0.0994  0.0100 -0.1626
 3046W        W 7246   8.393   1.328   3.053  0.0891  0.0188 -0.1134
 3047W        W 7247   6.937   0.018   8.286  0.3874 -0.1063 -0.0623
 3048W        W 7248   3.817   8.679  10.110 -0.2046 -0.1353  0.2663
 3049W        W 7249   1.149   4.012   1.254 -0.1588 -0.0904  0.1366
 3050W        W 7250   2.798   9.344   3.393  0.0833  0.0667 -0.0815
 3051W        W 7251   4.934   9.347   3.668 -0.3745  0.0573  0.2912
 3052W        W 7252   0.924   0.591  10.786  0.1436  0.1240  0.1342
 3053W        W 7253   4.387   4.204   9.143  0.2331 -0.0302  0.0180
 3054W        W 7254   5.511   4.278   1.068 -0.1136  0.1578 -0.0050
 3055W        W 7255   7.376   6.101   8.763 -0.0108  0.1345  0.1582
 3056W        W 7256   6.371   3.955   0.218  0.0557 -0.1601  0.1686
 3057W        W 7257   4.197  10.059  12.136  0.1257  0.0599  0.2819
 3058W        W 7258   0.130  10.153  11.992  0.3076  0.0202 -0.1210
 3059W        W 7259  10.003   8.812   0.002  0.1028  0.0838  0.0189
 3060W        W 7260   9.499   7.671  10.741  0.1984  0.1100  0.2468
 3061W        W 7261   8.544   9.250  11.864  0.3322  0.0046  0.1403
 3062W        W 7262   6.074   8.564  10.590  0.4545  0.1278  0.0181
 3063W        W 7263   1.977   6.940   0.898 -0.0244  0.2548 -0.0799
 3064W        W 7264   0.999   9.979   1.947  0.0476  0.2668 -0.1663
 3065W        W 7265   0.916   1.082   8.177  0.2516 -0.2283 -0.1613
 3066W        W 7266   1.466   9.120   0.530 -0.1108 -0.1123  0.3891
 3067W        W 7267   4.377   8.029  11.462  0.0017 -0.3804  0.2112
 3068W        W 7268   6.699   7.534  13.076 -0.0813 -0.2954  0.2189
 3069W        W 7269   4.765   6.220  10.865  0.0049  0.0896 -0.0862
 3070W        W 7270   2.384   2.821   4.325 -0.0456  0.0729  0.0947
 3071W        W 7271   8.940   5.406   1.638 -0.3048  0.1320 -0.3640
 3072W        W 7272   3.362   7.286   1.109  0.2033 -0.0512 -0.2932
 3073W        W 7273   1.256  10.331  11.683 -0.0095 -0.1830  0.0330
 3074W        W 7274   2.125   3.426  10.591 -0.1420  0.5363  0.0395
 3075W        W 7275   9.670   1.146   0.941  0.5079 -0.0069  0.1957
 3076W        W 7276   5.054   8.252   2.385 -0.0174 -0.2221  0.1123
 3077W        W 7277   9.469   5.860   9.315  0.0952 -0.2636  0.0254
 3078W        W 7278   6.973   9.503  12.837  0.3845 -0.0408  0.0904
 3079W        W 7279   1.793   0.788  12.564 -0.2533 -0.0088 -0.0138
 3080W        W 7280   8.344   3.838  12.627 -0.0519 -0.1068  0.2212
 3081W        W 7281  10.109   9.845   9.909  0.2248 -0.0168 -0.1741
 3082W        W 7282   0.777   3.909  12.171 -0.1632 -0.2002 -0.1204
 3083W        W 7283   5.489   8.112   2.242  0.0607  0.0763 -0.1389
 3084W        W 7284   8.880   9.230  12.711  0.0010 -0.0781 -0.3113
 3085W        W 7285  10.329   9.598  13.234 -0.1462  0.2811  0.3474
 3086W        W 7286   1.170   4.316   2.923 -0.1755  0.0205  0.2683
 3087W        W 7287  10.376   1.459   4.292  0.2676  0.2788  0.3110
 3088W        W 7288   9.528   7.680  12.630 -0.0400  0.1976  0.0780
 3089W        W 7289   5.453  10.507   0.535 -0.0825 -0.1754  0.1057
 3090W        W 7290   8.347   7.459  11.568 -0.1683 -0.3976  0.1799
 3091W        W 7291   6.210   2.618   2.442 -0.3376 -0.0528 -0.0150
 3092W        W 7292   0.438   3.306  12.278 -0.0861 -0.0862 -0.5624
 3093W        W 7293   5.415   8.407   0.868 -0.1017 -0.2618 -0.2847
 3094W        W 7294   5.846   5.830  10.793 -0.0882 -0.2109  0.0112
 3095W        W 7295   3.973  10.240   0.536  0.1245  0.2061 -0.2135
 3096W        W 7296   5.208   7.135  10.442  0.0945  0.0432  0.1477
 3097W        W 7297   2.311   0.001   3.996 -0.2047 -0.1082 -0.0678
 3098W        W 7298   5.423   6.633  10.233  0.2275  0.0431 -0.2880
 3099W        W 7299   4.232   9.403   9.596  0.1286  0.3361 -0.0521
 3100W        W 7300   7.485   5.885   3.753 -0.0191 -0.0898 -0.0593
 3101W        W 7301   6.277   1.207   1.418  0.1725  0.1169  0.2198
 3102W        W 7302   6.840   8.760   4.207  0.0522 -0.2188  0.5578
 3103W        W 7303   6.073   4.224   9.562 -0.1147 -0.4245  0.0007
 3104W        W 7304   8.383  10.076   1.718 -0.1863 -0.2101  0.2460
 3105W        W 7305   8.759   7.406  12.567  0.0664  0.1021  0.1357
 3106W        W 7306   8.991   1.900  12.433 -0.3138 -0.1237  0.1352
 3107W        W 7307   4.386   3.643   3.045 -0.0195 -0.0100 -0.2738
 3108W        W 7308   6.667   1.994   1.334  0.1952  0.3639 -0.0402
 3109W        W 7309   5.879   9.598  11.832  0.1124  0.0449  0.1252
 3110W        W 7310   3.712   7.666   1.213  0.2302  0.2063 -0.3880
 3111W        W 7311   9.298   8.391  13.221  0.2335  0.0971  0.2247
 3112W        W 7312   6.027   6.499   4.923  0.0537 -0.1278 -0.1279
 3113W        W 7313   6.596   2.414   1.096  0.0353 -0.0519 -0.1200
 3114W        W 7314   2.819   0.186   5.238 -0.0404  0.1437 -0.0191
 3115W        W 7315   7.302   7.751  10.202  0.0045  0.0326 -0.2212
 3116W        W 7316  10.367   7.839   0.420  0.0298 -0.0060  0.3680
 3117W        W 7317   3.940   0.377   9.929  0.1951 -0.1827 -0.3009
 3118W        W 7318   1.991   4.266   9.918  0.2636 -0.0164  0.3516
 3119W        W 7319   2.795   3.695   1.974  0.0430  0.0488  0.1386
 3120W        W 7320   8.247   9.895   0.879 -0.1321 -0.3036 -0.0814
 3121W        W 7321   7.623   5.290   0.566  0.0312  0.1138  0.0375
 3122W        W 7322  10.222  10.289   9.179  0.0008 -0.1648  0.0045
 3123W        W 7323   9.379   3.681  13.174 -0.4102  0.3393  0.2339
 3124W        W 7324   7.196   0.384   1.912  0.1610  0.0434 -0.1135
 3125W        W 7325   3.075   7.458   0.607 -0.1539  0.0823 -0.0535
 3126W        W 7326   2.177   7.967   0.958 -0.0679  0.3185 -0.0393
 3127W        W 7327   4.381   9.301   1.475  0.1218  0.3545 -0.3443
 3128W        W 7328   5.994   3.737   0.531  0.1192 -0.1201 -0.0135
 3129W        W 7329   7.041  10.202   2.331  0.1521  0.1883 -0.2243
 3130W        W 7330   7.734   6.549   3.655 -0.1633 -0.0836 -0.1353
 3131W        W 7331   3.424   2.794   2.801  0.1906  0.2858  0.0904
 3132W        W 7332   5.428   1.636  13.143 -0.0580  0.1774 -0.0158
 3133W        W 7333   1.295   8.495  10.149 -0.3583  0.0625 -0.2107
 3134W        W 7334   3.678   6.098   2.771 -0.1868  0.0467 -0.1156
 3135W        W 7335   9.277   4.577   0.660  0.1186 -0.1897 -0.2853
 3136W        W 7336   5.138   3.100   3.626  0.2098  0.0310  0.0356
 3137W        W 7337   8.006  10.092  10.442  0.4062  0.0726  0.1386
 3138W        W 7338   9.792   4.436   4.110  0.1411  0.0291 -0.2184
 3139W        W 7339   0.274   0.334  13.179 -0.0530  0.0542  0.2011
 3140W        W 7340   6.799   0.474  11.796  0.0397 -0.0120  0.0910
 3141W        W 7341   9.826   1.481  12.369  0.0327  0.3140  0.0323
 3142W        W 7342   2.873   3.322  10.585 -0.2906 -0.0432  0.0728
 3143W        W 7343   6.665   1.162  12.425  0.3257  0.1551  0.0133
 3144W        W 7344   3.350   0.644  13.339 -0.3321  0.1420 -0.3561
 3145W        W 7345   9.987   3.249  10.113  0.0799 -0.0423 -0.0760
 3146W        W 7346   2.915  10.274  11.403  0.0777 -0.0376  0.1586
 3147W        W 7347   3.989   6.603  10.678  0.1363 -0.3641  0.1721
 3148W        W 7348   7.845   0.133   0.758  0.3005 -0.3405 -0.0540
 3149W        W 7349   8.158   7.070   8.705  0.0671 -0.1189 -0.2932
 3150W        W 7350   0.739   2.510  12.756 -0.2219  0.4130  0.0627
 3151W        W 7351   7.825   0.779   9.121 -0.1295  0.1493 -0.0387
 3152W        W 7352   3.436   3.369   1.860  0.0948  0.0520  0.0861
 3153W        W 7353   4.509  10.494  12.022 -0.0475  0.2102 -0.5295
 3154W        W 7354   4.134   6.773  11.410 -0.1377  0.1553 -0.0396
 3155W        W 7355   6.370   0.736  13.278  0.0401  0.1075  0.2819
 3156W        W 7356   8.232   0.870   0.193 -0.0156  0.3567  0.1000
 3157W        W 7357   2.466   4.879   2.662  0.1972  0.1868 -0.1500
 3158W        W 7358   3.972   0.631   1.897 -0.1121  0.2587 -0.4242
 3159W        W 7359   5.849   9.695   9.753  0.0257  0.2529 -0.3180
 3160W        W 7360   6.443   0.548   9.982 -0.0955  0.0470 -0.0829
 3161W        W 7361   4.173   5.304  10.564 -0.0507 -0.1363 -0.0742
 3162W        W 7362   0.125   1.254   2.734  0.1278  0.0569 -0.0464
 3163W        W 7363   9.952   6.534  12.567  0.1907  0.0424  0.3236
 3164W        W 7364   1.722   1.538   9.264  0.1774  0.1398 -0.2076
 3165W        W 7365   2.170  10.215   0.861  0.0810 -0.3002  0.3060
 3166W        W 7366   0.345   1.927  11.785  0.0051  0.1020  0.0177
 3167W        W 7367   0.936   0.584   1.244 -0.0140  0.2141  0.0467
 3168W        W 7368   6.793   1.047   1.524  0.1546 -0.1385 -0.4118
 3169W        W 7369   5.492   9.268   3.536 -0.2523 -0.0343 -0.0269
 3170W        W 7370   8.558   8.330   4.257 -0.1937 -0.0458 -0.0987
 3171W        W 7371  10.467   6.093  10.321  0.4156 -0.0981  0.0058
 3172W        W 7372   3.517   3.880  11.349 -0.1139 -0.1894  0.0130
 3173W        W 7373   9.660   5.417   0.483  0.2308 -0.2779  0.0770
 3174W        W 7374   9.244   8.600   1.424  0.0139 -0.0493  0.0751
 3175W        W 7375   2.904   5.515   1.310  0.3239 -0.3643 -0.0826
 3176W        W 7376   0.904   7.170   0.094  0.1451 -0.0411  0.0978
 3177W        W 7377   9.918   0.113  11.672 -0.1238 -0.2032 -0.0529
 3178W        W 7378  10.353   8.263  10.729 -0.3116 -0.1847 -0.0523
 3179W        W 7379   5.527   3.180   9.697 -0.0270  0.0862  0.1710
 3180W        W 7380   5.478   3.227   1.706 -0.5217 -0.0661  0.0731
 3181W        W 7381   4.882   2.676  12.620 -0.1919 -0.5036 -0.2563
 3182W        W 7382   9.148   9.572   4.004 -0.1374 -0.0832  0.0014
 3183W        W 7383   9.606   7.729   0.961  0.0886  0.0622  0.3501
 3184W        W 7384   9.907   6.671   1.200 -0.3313 -0.1014  0.0886
 3185W        W 7385   9.929  10.187  12.685  0.0130  0.1993  0.1765
 3186W        W 7386   7.124   4.260  12.107 -0.1329  0.0724 -0.0578
 3187W        W 7387  10.270   5.545   2.821 -0.1114 -0.0995 -0.2930
 3188W        W 7388   0.031   3.513  10.967  0.0108 -0.0572  0.3527
 3189W        W 7389   3.261   4.899  12.630  0.3374  0.1092 -0.1330
 3190W        W 7390   0.390   9.900  10.667  0.0013  0.3955 -0.0036
 3191W        W 7391   3.164   1.194  11.379  0.1383 -0.0810  0.3166
 3192W        W 7392   9.197   3.218   1.138  0.0828  0.3990  0.1932
 3193W        W 7393   6.679   9.826   9.575  0.0798 -0.1071  0.1951
 3194W        W 7394   5.240   7.985  12.701 -0.1034 -0.0179 -0.4007
 3195W        W 7395   1.600   1.404   1.254 -0.0341 -0.0822  0.4169
 3196W        W 7396   4.280   4.147   3.838  0.0830  0.0881  0.3762
 3197W        W 7397   1.917  10.010   4.359  0.1527  0.2808 -0.2569
 3198W        W 7398   7.917   6.385  12.028 -0.1968  0.1919 -0.0117
 3199W        W 7399   5.904   3.472  12.360 -0.3170  0.1466 -0.1609
 3200W        W 7400   1.194   7.221   0.488 -0.0292 -0.1855 -0.0171
 3201W        W 7401   6.848   4.226   8.440 -0.0406 -0.2197 -0.0625
 3202W        W 7402   6.936   0.565   1.405 -0.1037  0.2674  0.3990
 3203W        W 7403   9.368   5.576  10.681  0.1461  0.0936 -0.4469
 3204W        W 7404   0.913   2.472   9.505  0.2268 -0.0813  0.0899
 3205W        W 7405   8.729   1.097  10.184 -0.0911 -0.3315  0.1790
 3206W        W 7406   0.968   5.993   2.630 -0.0488  0.0859 -0.5329
 3207W        W 7407   1.185   6.731  11.455  0.1383 -0.0803  0.2680
 3208W        W 7408   2.326   3.481   3.747 -0.1473 -0.2409 -0.0348
 3209W        W 7409   2.822   2.945  11.188  0.2173 -0.0546  0.0736
 3210W        W 7410   3.458   6.658  12.707  0.0107  0.1014  0.0598
 3211W        W 7411   2.830   9.893   2.027  0.4656  0.0916 -0.0132
 3212W        W 7412   1.703   4.013  10.241 -0.1314 -0.0432  0.1787
 3213W        W 7413   7.154   9.793   3.075 -0.1339 -0.1277  0.0868
 3214W        W 7414   6.567   5.355   2.318  0.3186 -0.0597 -0.2727
 3215W        W 7415   8.233   9.139  10.894 -0.1746  0.1028 -0.2473
 3216W        W 7416   3.741   7.382   2.643 -0.0934  0.1708  0.1733
 3217W        W 7417   3.442   9.648   3.616  0.2012  0.0045  0.0116
 3218W        W 7418   6.241   7.385   8.201  0.2380 -0.1309 -0.0629
 3219W        W 7419   8.680   1.135   0.230  0.0191  0.4517  0.3587
 3220W        W 7420   0.969   0.789   4.309 -0.0002 -0.0035 -0.1031
 3221W        W 7421   8.592   5.301   3.473  0.0702  0.0639 -0.0044
 3222W        W 7422   4.622   2.558   0.860  0.3447  0.1404 -0.1983
 3223W        W 7423   3.708   2.268  11.353  0.2653 -0.6832  0.2649
 3224W        W 7424   9.780   7.527  13.293  0.2411 -0.0703 -0.0326
 3225W        W 7425   6.595   2.519   3.854  0.1658  0.0491 -0.0893
 3226W        W 7426  10.069   4.005   3.861  0.1269  0.2370 -0.1009
 3227W        W 7427   0.969   5.152   9.643 -0.1784  0.1629  0.3608
 3228W        W 7428   2.929   8.444   3.710 -0.0046  0.1813 -0.0912
 3229W        W 7429   1.912   2.870  13.049  0.1691 -0.0778 -0.1594
 3230W        W 7430   0.093   6.280  12.724  0.0494 -0.0374 -0.1440
 3231W        W 7431   8.894   9.801   4.419 -0.3756  0.0332 -0.0109
 3232W        W 7432   2.982   9.843  13.066 -0.0338 -0.2649  0.0766
 3233W        W 7433   5.738   3.769   9.564  0.0682 -0.0817 -0.2948
 3234W        W 7434  10.052   7.614   3.303  0.1638 -0.0226 -0.1403
 3235W        W 7435   3.214   4.388   1.788  0.1770 -0.2318  0.0190
 3236W        W 7436   8.699   3.364   9.904 -0.1888 -0.2690  0.0902
 3237W        W 7437   1.195   4.226   0.753  0.1205 -0.1207  0.1478
 3238W        W 7438   1.649   5.393  11.435 -0.1371 -0.2610  0.3291
 3239W        W 7439  10.503   8.646  12.035  0.1053  0.1184 -0.0979
 3240W        W 7440   4.861   4.075   2.256 -0.0661 -0.0068  0.1373
 3241W        W 7441   9.427   7.215  11.603 -0.4073 -0.0210 -0.0948
 3242W        W 7442   3.577   7.740   3.870 -0.0214  0.1084  0.0915
 3243W        W 7443   4.775   1.302  12.661 -0.3115  0.0390  0.2180
 3244W        W 7444   6.227   9.356   9.053  0.2897 -0.2389  0.0189
 3245W        W 7445   1.832   9.307  12.273 -0.0357 -0.1436 -0.0306
 3246W        W 7446   3.983   5.997   2.413  0.1575  0.0105 -0.0237
 3247W        W 7447   3.183   4.842   2.155  0.0649 -0.0009  0.2880
 3248W        W 7448   3.305   7.119  11.949  0.0592 -0.0395 -0.2663
 3249W        W 7449   3.245   1.633  11.034 -0.1981  0.1650  0.1935
 3250W        W 7450   9.039   9.571   0.690 -0.1294 -0.1299 -0.2584
 3251W        W 7451   8.834   0.456   1.272  0.1027  0.1557  0.2381
 3252W        W 7452   4.137   3.991   9.562  0.0917  0.1738  0.0308
 3253W        W 7453   5.927   2.157   9.033 -0.2140 -0.1665 -0.0975
 3254W        W 7454   9.241   1.122   3.186  0.1153  0.2745  0.1086
 3255W        W 7455  10.230   5.948   3.699 -0.0027  0.1200  0.1285
 3256W        W 7456   9.761   7.237   9.177  0.2095  0.2147 -0.0123
 3257W        W 7457   5.773   6.398  12.062 -0.0767 -0.1533 -0.0863
 3258W        W 7458   5.282   2.837   0.742  0.0082 -0.0930 -0.2122
 3259W        W 7459   7.878   4.220  12.602 -0.1564  0.0580 -0.1339
 3260W        W 7460   2.922   9.733   3.780  0.2013  0.3682  0.3549
 3261W        W 7461   1.326   0.973  13.224  0.0765  0.2125 -0.3359
 3262W        W 7462   5.722   1.319   2.786 -0.0155 -0.2892 -0.1304
 3263W        W 7463   5.284   5.251   9.493 -0.1373  0.0674 -0.0637
 3264W        W 7464   1.469   1.185   3.794 -0.1646  0.1082 -0.1391
 3265W        W 7465   9.728   9.655  11.184 -0.0726 -0.0898  0.0252
 3266W        W 7466   8.178   8.116   0.783 -0.1934  0.1824 -0.1300
 3267W        W 7467   9.718   0.624   4.188  0.3095  0.0089  0.0566
 3268W        W 7468   2.562   3.754  10.646 -0.2949  0.1919 -0.0516
 3269W        W 7469   4.857   6.984   1.916  0.2371 -0.0923  0.0346
 3270W        W 7470   9.587   8.004  10.162  0.0586  0.0482 -0.2938
 3271W        W 7471   3.823   8.259   3.353 -0.2111  0.4300  0.2222
 3272W        W 7472   7.953   8.125   0.130  0.1155  0.0374 -0.2756
 3273W        W 7473   2.854   7.140   2.250  0.0199 -0.2836 -0.0465
 3274W        W 7474   0.911   7.238  12.427  0.0269  0.0148  0.2284
 3275W        W 7475   0.325   7.833  11.148  0.0167 -0.1992  0.1066
 3276W        W 7476   0.152   1.455  11.621 -0.1881 -0.0724  0.3076
 3277W        W 7477   9.437   8.905  11.806  0.1308  0.0651 -0.2379
 3278W        W 7478   4.717   9.055  10.076 -0.3130 -0.4209  0.3096
 3279W        W 7479   8.768   0.930   1.109  0.1162  0.0016  0.1520
 3280W        W 7480   0.543   3.888   9.865  0.2408  0.3573 -0.2455
 3281W        W 7481  10.284  10.089   3.549 -0.0895  0.0358 -0.0920
 3282W        W 7482   4.920   8.857  11.857 -0.0407  0.1840 -0.3059
 3283W        W 7483   9.412   4.927   9.881 -0.0152 -0.2642  0.1063
 3284W        W 7484   1.908   0.403   2.325 -0.1515 -0.3064  0.3847
 3285W        W 7485   8.732   7.964  11.747  0.0254 -0.0090 -0.3055
 3286W        W 7486   9.548   7.119   0.201  0.1436 -0.1879 -0.2269
 3287W        W 7487  10.475   2.687   3.389 -0.2333  0.1374 -0.0419
 3288W        W 7488   2.806   7.313   2.729 -0.1267 -0.0536 -0.3162
 3289W        W 7489   4.989  10.463   0.592 -0.1909  0.1565 -0.1173
 3290W        W 7490   3.639   2.413   1.621  0.2792 -0.2445 -0.1794
 3291W        W 7491   5.475   4.488  10.233  0.0703 -0.1435 -0.3475
 3292W        W 7492   9.585   2.483   0.076  0.0289  0.0855  0.0662
 3293W        W 7493   2.582   9.971   3.437  0.0367  0.2969  0.2565
 3294W        W 7494   2.778   2.256   9.381  0.0395  0.1904  0.0264
 3295W        W 7495   9.676   2.651   4.082  0.3655 -0.0601  0.2060
 3296W        W 7496   8.317   1.441   0.401 -0.0576 -0.0874  0.2042
 3297W        W 7497   9.702   5.422   4.245 -0.0122  0.0526 -0.1588
 3298W        W 7498   0.468   1.828   1.072  0.0754 -0.1834  0.0322
 3299W        W 7499   9.415   1.026   0.502 -0.1172 -0.2663  0.0756
 3300W        W 7500   2.012   5.360   2.754  0.1275  0.2741 -0.2333
 3301W        W 7501   2.374   1.170   2.779 -0.2964 -0.0054  0.4572
 3302W        W 7502   5.747   7.062  10.985 -0.1175 -0.1429 -0.0316
 3303W        W 7503   5.485   1.158   2.397  0.0314  0.2773  0.0670
 3304W        W 7504   8.606  10.245   0.991 -0.1617  0.0932  0.0069
 3305W        W 7505   0.270   7.066   0.758 -0.0365  0.2018  0.0352
 3306W        W 7506   0.720   0.958   2.131  0.1017  0.0349 -0.2522
 3307W        W 7507   0.292   5.823  10.564 -0.0467  0.2804 -0.0198
 3308W        W 7508   2.772   0.530  13.082  0.0639 -0.1606 -0.1555
 3309W        W 7509   5.914   1.988  11.122  0.0085 -0.0213 -0.0254
 3310W        W 7510   1.340   4.924  10.242  0.3620 -0.0086  0.1438
 3311W        W 7511   4.106   2.301   5.296 -0.1296 -0.0661 -0.0342
 3312W        W 7512   9.260  10.504   8.865 -0.0847  0.0358  0.1434
 3313W        W 7513   9.724   3.515  11.851 -0.1741 -0.2229 -0.2134
 3314W        W 7514   8.738   8.364   8.826 -0.0710 -0.2082 -0.3536
 3315W        W 7515   4.206   7.877   3.340  0.3761 -0.1380 -0.2793
 3316W        W 7516   6.039   7.387  10.599 -0.5539 -0.1304 -0.3480
 3317W        W 7517   4.836   8.912   0.012 -0.1761  0.2782  0.1868
 3318W        W 7518  10.479   3.440   4.203 -0.2490 -0.1033 -0.0842
 3319W        W 7519   8.823   3.379  13.251 -0.3125  0.0742 -0.1415
 3320W        W 7520   9.494   8.303  11.504 -0.1369 -0.0585 -0.2054
 3321W        W 7521   9.232   0.147   1.401 -0.0144  0.1882 -0.0015
 3322W        W 7522   5.855   9.071   3.228  0.2421  0.2202 -0.0900
 3323W        W 7523   5.379   8.627  10.553 -0.0155 -0.3649 -0.0604
 3324W        W 7524   0.608   8.845   2.488 -0.1425  0.0782  0.0227
 3325W        W 7525   6.641   3.661   9.912 -0.1883  0.0408 -0.2281
 3326W        W 7526   7.153   4.709  10.973  0.2650  0.2452 -0.3225
 3327W        W 7527   2.518   7.363   9.072 -0.2356  0.0359 -0.2091
 3328W        W 7528   1.511   8.596   1.821  0.0091  0.0389  0.1611
 3329W        W 7529  10.073   8.137   4.113 -0.2287 -0.0311 -0.2436
 3330W        W 7530   4.222   3.837   0.029  0.1497  0.1339 -0.0395
 3331W        W 7531   2.973   7.688   0.110  0.0031 -0.0643 -0.2386
 3332W        W 7532   2.777   7.553   9.550 -0.1443 -0.0683  0.4426
 3333W        W 7533   3.187   3.183  10.981  0.1673  0.0843  0.0275
 3334W        W 7534   2.756   7.477  10.886  0.0370  0.2797 -0.0958
 3335W        W 7535   1.552   4.857   0.670 -0.2980  0.0710  0.2182
 3336W        W 7536   2.667  10.314   4.417 -0.1889  0.1383  0.1479
 3337W        W 7537   1.884   9.112   1.277 -0.0222 -0.0975 -0.2366
 3338W        W 7538   5.061   5.185   1.852 -0.2661 -0.1668 -0.3258
 3339W        W 7539   5.396   9.091   4.020 -0.1533 -0.1568  0.0357
 3340W        W 7540   3.713   4.858  12.429  0.0047  0.4898  0.0451
 3341W        W 7541   8.039   2.801  12.875  0.0476 -0.0720 -0.0235
 3342W        W 7542   3.959   9.842   0.110 -0.0234  0.0665 -0.1576
 3343W        W 7543   6.364   8.048  12.835  0.0850 -0.0359 -0.1350
 3344W        W 7544   9.509   2.648   2.900 -0.0966 -0.1790 -0.0175
 3345W        W 7545   6.327   3.462   1.054 -0.1625  0.0016 -0.0273
 3346W        W 7546   3.881   5.121  12.063  0.1312  0.0605  0.2345
 3347W        W 7547   6.752   4.283  11.696 -0.0887 -0.0151 -0.2974
 3348W        W 7548   0.643   4.324   0.006 -0.1244  0.1728 -0.0784
 3349W        W 7549   7.967   6.310  11.052 -0.2308  0.3008 -0.3344
 3350W        W 7550   8.965   9.913   1.078 -0.0334 -0.1632  0.0018
 3351W        W 7551   2.996   8.710   9.513  0.1223 -0.0416 -0.2696
 3352W        W 7552   4.349   7.969   1.551 -0.0908 -0.1239 -0.1271
 3353W        W 7553   9.080   7.285   0.155  0.0580 -0.0651  0.0710
 3354W        W 7554   3.786   4.649   2.196 -0.1576  0.1390  0.0772
 3355W        W 7555   7.523   6.333   4.067 -0.2948  0.4661 -0.0336
 3356W        W 7556   8.524   7.690   0.689 -0.1263 -0.1221 -0.0552
 3357W        W 7557   6.780   4.226  12.487 -0.2651 -0.0896 -0.1907
 3358W        W 7558   9.700   1.432   3.140 -0.1334  0.1576 -0.4328
 3359W        W 7559   2.125  10.368  13.279 -0.1133  0.1321  0.1726
 3360W        W 7560  10.056   8.339  12.256 -0.2137  0.4084  0.1648
 3361W        W 7561   8.662   7.260   9.850  0.2042 -0.2975  0.3683
 3362W        W 7562   3.400   7.868  11.307 -0.0858 -0.3215 -0.1431
 3363W        W 7563   2.661   8.364   9.338  0.0935  0.1028  0.3923
 3364W        W 7564   6.253   9.377   3.975 -0.0411 -0.2343  0.0778
 3365W        W 7565   3.209   9.547  10.782  0.2685  0.2519  0.1049
 3366W        W 7566   8.177   3.590   9.050  0.0419 -0.1668  0.0822
 3367W        W 7567   6.789   1.507  10.027 -0.0337  0.2633  0.1823
 3368W        W 7568   3.173   0.257   4.325  0.2056 -0.0077 -0.0213
 3369W        W 7569   4.732   7.889   1.830  0.1525  0.0603  0.1233
 3370W        W 7570   8.966   8.937   2.070 -0.2849  0.2185  0.1298
 3371W        W 7571   4.325   9.123  12.498  0.1595 -0.2518 -0.0528
 3372W        W 7572   7.484   7.008  12.792 -0.0249 -0.1473 -0.2510
 3373W        W 7573   7.006   8.530  12.764 -0.0199  0.0657 -0.1660
 3374W        W 7574   9.710   1.880   3.443 -0.2263  0.1490 -0.1966
 3375W        W 7575   1.907   4.291   1.791 -0.2166  0.1955  0.1217
 3376W        W 7576   4.642   4.638  11.479  0.1375  0.0372  0.1990
 3377W        W 7577   5.554   2.934  11.782  0.0405  0.1458  0.1880
 3378W        W 7578   7.903   3.720  10.665 -0.1642  0.0485 -0.2397
 3379W        W 7579   9.555   4.883  12.267  0.2624 -0.2571  0.2322
 3380W        W 7580   0.212   7.208   9.286  0.1769 -0.1543  0.0518
 3381W        W 7581   4.168   5.037  13.000 -0.0288  0.0069 -0.0180
 3382W        W 7582   7.742   9.779  11.859 -0.0695  0.1961  0.0063
 3383W        W 7583   9.300   3.577  11.340  0.0232 -0.0304 -0.0730
 3384W        W 7584   3.259   0.140  11.466  0.1985  0.2895 -0.1918
 3385W        W 7585   8.639   7.780  10.386 -0.1732  0.2126 -0.1136
 3386W        W 7586   2.058   9.646  11.538  0.3313  0.0905  0.0284
 3387W        W 7587   8.168   4.897   2.601  0.2011 -0.1349 -0.1797
 3388W        W 7588   2.382   1.280  11.886  0.0061  0.2872 -0.1077
 3389W        W 7589   2.181  10.299   3.522  0.0349  0.0514  0.1767
 3390W        W 7590   2.666   7.808  10.516 -0.0202 -0.1489 -0.4019
 3391W        W 7591   8.124   0.549  11.764  0.3905  0.2551  0.0711
 3392W        W 7592   8.132   5.764   8.238  0.0563  0.1762  0.2313
 3393W        W 7593   4.596  10.115   1.684  0.1042 -0.0601 -0.2055
 3394W        W 7594   6.334   4.017   8.591 -0.3230 -0.2094 -0.1896
 3395W        W 7595   4.679   2.689   3.964  0.1679 -0.0141  0.0919
 3396W        W 7596   8.127   5.156  10.836  0.0415  0.1053 -0.4326
 3397W        W 7597   2.279   2.000  12.141  0.1090 -0.1237  0.1905
 3398W        W 7598   5.486   2.288   1.443 -0.0424  0.0446  0.1215
 3399W        W 7599   5.724   8.611   5.053 -0.3266 -0.0078  0.2563
 3400W        W 7600   9.239   8.048  11.873 -0.0549 -0.3778 -0.2839
 3401W        W 7601   6.385   1.086   3.977  0.1975 -0.0538  0.1486
 3402W        W 7602   0.119   2.604   3.906 -0.0181  0.1663 -0.0487
 3403W        W 7603   6.806   4.090   4.066 -0.1248  0.1962 -0.1338
 3404W        W 7604   1.259   1.893   2.172  0.1899  0.0608  0.1906
 3405W        W 7605   0.750  10.509   2.726  0.1711 -0.1448 -0.4053
 3406W        W 7606   1.181  10.318  11.186  0.1393  0.2497 -0.1243
 3407W        W 7607   8.731   9.603   8.982 -0.1854  0.1321  0.2051
 3408W        W 7608   0.527   5.575  10.939 -0.2297  0.1279 -0.2105
 3409W        W 7609   3.680   6.701   0.334 -0.1390  0.0129 -0.2421
 3410W        W 7610   0.593   2.505  12.237 -0.2836 -0.2818  0.1909
 3411W        W 7611   7.917   0.949   0.519 -0.2249 -0.1249 -0.2197
 3412W        W 7612   2.623   2.326   1.306 -0.2188 -0.2383  0.3269
 3413W        W 7613   3.457   8.688   1.028 -0.2077  0.1861  0.0759
 3414W        W 7614   3.323   6.593   0.649 -0.0083 -0.2972  0.1577
 3415W        W 7615   9.641   6.097  11.260  0.0810 -0.2813 -0.0519
 3416W        W 7616   7.858   4.437   4.651  0.0018 -0.2274  0.0894
 3417W        W 7617  10.479   8.125  10.034 -0.0341  0.0803  0.0052
 3418W        W 7618   0.874   2.360  10.769  0.1692 -0.2812 -0.1999
 3419W        W 7619   9.420   4.422   3.016  0.3774  0.0654  0.1191
 3420W        W 7620   7.036  10.493   3.156 -0.1340  0.0698  0.3256
 3421W        W 7621  10.293   7.423  11.573 -0.1943 -0.4009  0.1913
 3422W        W 7622   6.846   4.786  11.392  0.4442  0.1857 -0.0163
 3423W        W 7623   5.446   2.729   3.501  0.1930  0.0192  0.1431
 3424W        W 7624   9.507   5.341   9.241  0.2079  0.1296 -0.1630
 3425W        W 7625   9.475   8.618   4.240 -0.1732  0.2088 -0.1038
 3426W        W 7626   7.566   0.868   3.399 -0.0332  0.2056  0.5380
 3427W        W 7627   0.323   3.455   2.347 -0.0079  0.1560  0.1878
 3428W        W 7628   1.114   9.283   3.333  0.3193  0.0092  0.1629
 3429W        W 7629   8.983   5.764  10.166 -0.0738  0.1814  0.0413
 3430W        W 7630   9.769   6.708   9.133 -0.5030 -0.0256 -0.2759
 3431W        W 7631  10.178   2.302   4.678  0.2807  0.3096  0.1972
 3432W        W 7632   5.497  10.436   3.299  0.3236  0.1554 -0.1612
 3433W        W 7633   9.997   2.195  11.407 -0.0985 -0.2795  0.0184
 3434W        W 7634   5.343   4.102   2.107 -0.2227 -0.4226  0.1158
 3435W        W 7635   7.537   3.047  13.019  0.1045 -0.0200  0.4109
 3436W        W 7636   5.289   4.819   9.797  0.1817  0.0631 -0.1265
 3437W        W 7637   3.189   3.607   3.410  0.4833  0.0906 -0.4354
 3438W        W 7638  10.154   5.848   2.027  0.1295  0.1789 -0.1828
 3439W        W 7639   9.298   3.082   2.057  0.1476 -0.0968  0.2176
 3440W        W 7640   9.528   4.586   1.545  0.1871  0.1383 -0.1002
 3441W        W 7641   3.453   2.831  12.140  0.2164  0.1021  0.0737
 3442W        W 7642   3.697   9.234  10.868  0.1320  0.2698 -0.1238
 3443W        W 7643   2.105   0.800   9.579  0.0371 -0.0500 -0.0680
 3444W        W 7644   3.462   8.790   2.055  0.1588  0.1689 -0.3270
 3445W        W 7645   4.968   9.410  10.412 -0.2656 -0.1390  0.0020
 3446W        W 7646   4.330   5.655   3.663  0.2437  0.2569 -0.1086
 3447W        W 7647   0.781  10.117   2.390 -0.1684 -0.3899  0.0105
 3448W        W 7648   5.180   3.846   2.590  0.3568  0.0761  0.2465
 3449W        W 7649   4.069   0.524   4.168  0.2306  0.1373 -0.2037
 3450W        W 7650   9.265   3.883   4.825 -0.2169 -0.2138 -0.1644
 3451W        W 7651   2.300   4.750  10.248 -0.1549  0.2556  0.1859
 3452W        W 7652   8.133   4.943   9.611  0.1666  0.2813  0.0148
 3453W        W 7653   5.404   8.988   9.439  0.5304  0.2361 -0.2971
 3454W        W 7654   6.825   3.727  12.647  0.1193  0.1776 -0.0018
 3455W        W 7655   3.876   5.487  13.185 -0.1518 -0.2050 -0.0156
 3456W        W 7656   7.962   7.625   8.703 -0.2015  0.3600 -0.2117
 3457W        W 7657   4.489   0.599   0.090  0.1135 -0.0397  0.1802
 3458W        W 7658  10.088   2.248   9.093  0.2474 -0.1206 -0.1616
 3459W        W 7659   7.115   4.953   4.087 -0.0853 -0.0927  0.1056
 3460W        W 7660   1.848   3.455   4.465 -0.1824  0.1451  0.0132
 3461W        W 7661   2.771   5.014   1.398  0.0776  0.0671  0.0055
 3462W        W 7662   8.608   1.319   1.837 -0.2439  0.0207 -0.0205
 3463W        W 7663   0.721   6.064  12.656  0.0766  0.2017 -0.0152
 3464W        W 7664   8.383  10.295   0.068 -0.0532  0.0404  0.2297
 3465W        W 7665   9.880   8.682   0.742  0.1353  0.0255 -0.0631
 3466W        W 7666   2.888  10.067   1.497  0.5760  0.0508 -0.2699
 3467W        W 7667   6.708   9.855   0.311 -0.0496  0.0538 -0.0867
 3468W        W 7668  10.408   8.714  11.388  0.3653  0.0334 -0.1256
 3469W        W 7669   3.106   5.660   0.316 -0.0631 -0.0848 -0.2689
 3470W        W 7670   2.492   8.782   2.574 -0.3852 -0.0679  0.0881
 3471W        W 7671   5.360   8.589   2.123 -0.2828  0.0966 -0.0799
 3472W        W 7672   0.578   0.755   1.577  0.1793  0.0310  0.1684
 3473W        W 7673  10.479   0.490  12.832 -0.3076  0.1407 -0.2488
 3474W        W 7674   2.545   7.108   0.854  0.0336  0.0778  0.1965
 3475W        W 7675  10.383   4.997   3.562  0.1580  0.1411 -0.2515
 3476W        W 7676   1.674   9.966   9.265  0.0878  0.1380 -0.1526
 3477W        W 7677   2.140   6.951   9.344 -0.3096 -0.0836  0.1601
 3478W        W 7678   0.641   7.388   3.416 -0.1397  0.0763 -0.2283
 3479W        W 7679   0.229   1.775   0.075 -0.0295 -0.0350 -0.0335
 3480W        W 7680   1.872   5.080   0.338  0.1955  0.3286  0.0178
 3481W        W 7681   8.564   1.877   3.118 -0.0907  0.0415  0.3048
 3482W        W 7682   0.316   9.291   1.731 -0.1941  0.0920 -0.1578
 3483W        W 7683   9.935   1.955   2.544 -0.2408  0.3369  0.0093
 3484W        W 7684   6.861   5.804   1.694 -0.5043  0.1589 -0.1051
 3485W        W 7685  10.207   1.536   8.734  0.0991  0.2025  0.0522
 3486W        W 7686   0.490   3.964   3.801  0.0935 -0.1099 -0.2299
 3487W        W 7687   0.017   4.070  11.795 -0.2756 -0.0066 -0.3603
 3488W        W 7688   1.220   1.201   2.629  0.0208  0.1242 -0.0211
 3489W        W 7689   5.711   8.180   4.356  0.0872  0.0669  0.2437
 3490W        W 7690   6.693   0.646   0.415  0.1842 -0.0519 -0.2902
 3491W        W 7691   8.629   9.943   2.629 -0.0867  0.3795 -0.2015
 3492W        W 7692   6.104   0.021   0.674 -0.2213  0.1673 -0.3779
 3493W        W 7693   9.525   1.348  11.074 -0.1546 -0.0011  0.0978
 3494W        W 7694   3.113   9.103  11.634  0.1404  0.3724 -0.0853
 3495W        W 7695   7.065   6.122  12.003 -0.1594  0.0754 -0.0719
 3496W        W 7696   8.787   2.811  13.215  0.1562 -0.1557 -0.2640
 3497W        W 7697   7.121   0.302  11.391  0.1005 -0.2406 -0.1120
 3498W        W 7698   2.295   7.553   9.623  0.1437 -0.0546  0.1667
 3499W        W 7699   9.829   3.909   9.263  0.0933 -0.4422  0.0645
 3500W        W 7700   3.765   0.203  11.591  0.1058 -0.2981  0.2308
 3501W        W 7701   2.875   2.762  13.254 -0.1189  0.1534 -0.0982
 3502W        W 7702   0.538   0.661  12.052 -0.2006 -0.0108 -0.1326
 3503W        W 7703   8.871  10.350   1.376 -0.1040  0.1758  0.0170
 3504W        W 7704   1.950   1.669   4.650  0.2193  0.1334 -0.0139
 3505W        W 7705   1.751   2.456   1.180  0.3403 -0.2911  0.0492
 3506W        W 7706  10.100   4.935  11.022  0.1206  0.3185  0.1810
 3507W        W 7707   8.210   0.864   1.805 -0.1030  0.1175  0.0943
 3508W        W 7708   6.772   1.623  10.510 -0.2072  0.0095 -0.5045
 3509W        W 7709   1.247   8.192  12.451  0.2407 -0.0701 -0.1303
 3510W        W 7710   2.285   6.564   2.255 -0.2636  0.1203 -0.0949
 3511W        W 7711   7.208   4.525   1.551  0.2785 -0.3031 -0.1179
 3512W        W 7712   5.970   2.032   3.128 -0.2569 -0.1316 -0.1446
 3513W        W 7713   5.905   8.782   2.790 -0.1728 -0.0062 -0.2604
 3514W        W 7714   8.441   1.538   3.560 -0.2273 -0.0055  0.4018
 3515W        W 7715   4.614   1.020   3.388  0.4023  0.0566 -0.3443
 3516W        W 7716   6.797   1.708   3.216 -0.4396  0.4786 -0.3422
 3517W        W 7717   7.574   1.113   1.288 -0.3110 -0.4083  0.0343
 3518W        W 7718   7.583   7.254  10.043 -0.2867 -0.0803 -0.0683
 3519W        W 7719   3.226   2.259   9.979  0.0957 -0.0001 -0.0654
 3520W        W 7720   7.919   6.910   3.355 -0.2999 -0.0905 -0.0124
 3521W        W 7721   1.566   8.295   8.612  0.0998 -0.0320  0.1443
 3522W        W 7722   7.227   2.472  11.308  0.2766  0.3434  0.1119
 3523W        W 7723   9.954   3.320   9.245  0.1029  0.0159  0.2200
 3524W        W 7724   1.749   0.712  10.337 -0.2514 -0.2939  0.0167
 3525W        W 7725   8.274   3.862  12.057  0.0406 -0.0917 -0.2444
 3526W        W 7726  10.064   4.717  13.198 -0.1046  0.2944 -0.0282
 3527W        W 7727   7.192   5.210   0.721 -0.1264  0.0786  0.1017
 3528W        W 7728   5.059   9.286  11.239  0.1910  0.1348 -0.1085
 3529W        W 7729   3.520  10.100   0.886 -0.1538  0.0360  0.0120
 3530W        W 7730   8.822   6.032  11.177 -0.1867 -0.0003  0.0667
 3531W        W 7731   5.675   8.250  11.860 -0.0659  0.0586  0.1423
 3532W        W 7732   4.295   6.324  13.343 -0.0985  0.1829 -0.2525
 3533W        W 7733   0.998   1.194   0.602  0.2522  0.0766 -0.1959
 3534W        W 7734   0.605   4.760  12.084 -0.2130 -0.2014  0.2132
 3535W        W 7735   2.022   0.706   4.311  0.1635 -0.1039  0.0193
 3536W        W 7736   6.388   0.537  12.115 -0.3929 -0.0023 -0.1607
 3537W        W 7737   5.009   2.371   1.243  0.1451  0.0480  0.5493
 3538W        W 7738   6.816   2.768   1.446  0.0690 -0.0245  0.2277
 3539W        W 7739   2.804   0.593  12.506 -0.1230  0.1122  0.0724
 3540W        W 7740   2.569   7.919   1.823 -0.1196  0.0593 -0.1849
 3541W        W 7741  10.477   4.711   1.195  0.0532 -0.0481 -0.1075
 3542W        W 7742   3.405   1.849   0.453  0.0026  0.2107  0.0319
 3543W        W 7743   8.506   3.652   3.120  0.1398  0.1287  0.0131
 3544W        W 7744   9.747   7.852   3.865 -0.1599  0.1617 -0.3049
 3545W        W 7745   5.362   3.078  12.306 -0.0346  0.2357  0.1598
 3546W        W 7746   6.131   4.878   0.720  0.0991  0.1729  0.0025
 3547W        W 7747   3.722   7.891  12.040 -0.1743 -0.2109 -0.1423
 3548W        W 7748   6.657   3.010   1.885  0.1297 -0.0049 -0.0707
 3549W        W 7749   1.525   8.605   8.214 -0.2757  0.1620 -0.0853
 3550W        W 7750   1.148   3.502   1.301  0.3582  0.1738 -0.2296
 3551W        W 7751   1.408   7.314  12.392 -0.2181 -0.0943 -0.1409
 3552W        W 7752   6.431   8.975   1.743  0.0438  0.2681  0.1323
 3553W        W 7753   3.347   7.814   2.635  0.3675 -0.1316  0.1075
 3554W        W 7754   4.522   7.769   3.711  0.0712  0.1442  0.1168
 3555W        W 7755   1.132   3.979   2.529  0.1125  0.1839  0.2323
 3556W        W 7756   3.184   1.657  12.447  0.0424  0.1254  0.1933
 3557W        W 7757   8.993   6.888   3.388 -0.4049 -0.0117  0.2665
 3558W        W 7758   0.986   5.021   3.597  0.0190  0.1220  0.1417
 3559W        W 7759   7.556   1.833   0.885  0.3366 -0.0486  0.0440
 3560W        W 7760   1.134   2.401   2.725 -0.3775  0.2071 -0.1738
 3561W        W 7761   3.820   0.521  12.400  0.1178  0.1585  0.0215
 3562W        W 7762   2.658   2.384   9.862  0.0045 -0.3774  0.0582
 3563W        W 7763   4.711   6.497   4.022  0.0303  0.3228  0.1231
 3564W        W 7764   4.695   0.458  10.249 -0.1719 -0.1526  0.3800
 3565W        W 7765  10.145   6.386  12.990 -0.0746  0.4889  0.2080
 3566W        W 7766  10.024  10.487   2.690 -0.1315 -0.0530 -0.2507
 3567W        W 7767   7.885   6.643   8.696 -0.0562 -0.3734  0.1679
 3568W        W 7768   3.303   9.981   9.786  0.1629 -0.3553 -0.1771
 3569W        W 7769   4.048   3.374  10.076 -0.0945  0.0587 -0.0107
 3570W        W 7770   6.542   7.791   3.797 -0.0255  0.1695  0.1195
 3571W        W 7771   2.775   7.452  10.034  0.1635 -0.0721 -0.0332
 3572W        W 7772   9.619   7.462   3.552 -0.1438  0.1148 -0.0292
 3573W        W 7773   6.888   2.284  12.929  0.1499 -0.5256  0.0992
 3574W        W 7774   7.705   4.827   9.398  0.0527 -0.1456  0.2794
 3575W        W 7775   2.714   5.874   0.985  0.0208  0.0550  0.2674
 3576W        W 7776   1.931   6.958   2.287 -0.4031  0.1440 -0.2234
 3577W        W 7777   4.104   1.735  10.072 -0.0356  0.2643  0.1468
 3578W        W 7778   7.310   6.227   9.382 -0.3924  0.2063  0.1380
 3579W        W 7779   8.318   7.928  12.386  0.1498  0.1697  0.0737
 3580W        W 7780   1.042   6.942  12.074 -0.1659  0.1728 -0.1166
 3581W        W 7781   1.840   6.255  11.833  0.1723  0.1793 -0.1822
 3582W        W 7782   1.142   8.990  10.116 -0.0768  0.3119  0.0022
 3583W        W 7783   2.037   4.108   2.426  0.0995 -0.3126  0.0652
 3584W        W 7784   1.885   3.018   3.515  0.0474  0.1178 -0.0447
 3585W        W 7785   7.872  10.209   1.821  0.0370  0.3411 -0.3465
 3586W        W 7786   2.422   6.473  10.598 -0.2308 -0.1041  0.0473
 3587W        W 7787   7.174   1.614   2.087 -0.4067 -0.1613  0.2065
 3588W        W 7788   6.887   3.347  11.878  0.2406  0.2144 -0.0223
 3589W        W 7789   2.534  10.178   2.286 -0.3635 -0.1138  0.3183
 3590W        W 7790   8.396   7.331  11.125 -0.0734  0.1542 -0.3141
 3591W        W 7791   0.493   9.734   0.792  0.1285  0.0993  0.0514
 3592W        W 7792   9.293   4.156  11.291  0.1190 -0.1789  0.1533
 3593W        W 7793   5.366   6.565   4.640  0.2741 -0.1849  0.1071
 3594W        W 7794   4.686   1.048   5.305 -0.3513 -0.1284 -0.2026
 3595W        W 7795   7.756   6.046  13.125 -0.2437 -0.1230  0.1737
 3596W        W 7796   3.883   7.240   1.010 -0.0250 -0.0130  0.0923
 3597W        W 7797   5.046   4.862   9.059  0.1772 -0.1177  0.1933
 3598W        W 7798   7.193   9.784   2.551 -0.0905  0.1342 -0.1519
 3599W        W 7799   6.444   6.649  10.220 -0.1743  0.0010  0.0638
 3600W        W 7800   4.268   2.847   2.173  0.1275 -0.4750  0.2668
 3601W        W 7801   3.957   9.575   8.666 -0.0310  0.0344 -0.0380
 3602W        W 7802   2.457   8.983   3.521 -0.1788 -0.0430  0.2317
 3603W        W 7803   1.317   3.409  10.956 -0.2771 -0.0946 -0.4601
 3604W        W 7804   6.664   2.414   2.734  0.0013  0.3550 -0.0863
 3605W        W 7805   5.572   8.354   2.700 -0.3032 -0.4000 -0.2782
 3606W        W 7806   8.734  10.436  10.819  0.1236 -0.0123  0.2392
 3607W        W 7807   5.990   9.715  10.696 -0.1378  0.1041  0.1473
 3608W        W 7808   1.259   4.809   2.909  0.0852 -0.0131  0.0657
 3609W        W 7809   1.282   1.499  10.622 -0.1591  0.0874  0.0099
 3610W        W 7810   2.393   3.782  12.072 -0.0683 -0.0626  0.1222
 3611W        W 7811   5.050   8.054   0.409  0.1817  0.0830  0.2662
 3612W        W 7812   2.635   3.168   4.675  0.0892  0.2308 -0.0188
 3613W        W 7813   9.969   8.709   2.024 -0.0935  0.0126  0.1478
 3614W        W 7814   9.050   4.728  10.207 -0.1544  0.1033 -0.1809
 3615W        W 7815   8.698   6.955   0.001 -0.1862 -0.1034 -0.2387
 3616W        W 7816  10.361   6.049   0.982  0.2001 -0.0558 -0.2294
 3617W        W 7817   6.065   9.239   8.543  0.3124  0.4617 -0.4543
 3618W        W 7818   9.380   0.548  12.402 -0.0942  0.0263 -0.1228
 3619W        W 7819   4.682   7.758   4.725  0.0700  0.1179  0.4027
 3620W        W 7820   3.607   4.177  13.334  0.0345 -0.0053  0.1080
 3621W        W 7821   8.314   3.566  13.334  0.2688  0.0218  0.2583
 3622W        W 7822   0.133   3.025   9.511  0.2228  0.2120 -0.0793
 3623W        W 7823   4.839   4.605   4.378  0.0717  0.0659 -0.0619
 3624W        W 7824   8.739   7.071   1.330 -0.0784  0.3006 -0.1933
 3625W        W 7825   4.256  10.163   3.819  0.1783 -0.3277 -0.0466
 3626W        W 7826   6.269   3.129  12.402  0.0240 -0.0397  0.1238
 3627W        W 7827   3.334   0.581  10.231  0.1194  0.1142  0.1456
 3628W        W 7828   3.432   5.468   9.389  0.0309  0.0046  0.2316
 3629W        W 7829   7.827   7.403   4.058  0.0394  0.1375 -0.1729
 3630W        W 7830   7.733   3.543   4.795  0.3584 -0.2318 -0.0178
 3631W        W 7831   3.178   2.732   2.325 -0.1403  0.1612  0.3295
 3632W        W 7832   2.163   3.247   9.376 -0.0427 -0.0709 -0.0218
 3633W        W 7833   9.731   6.194  11.760  0.0373  0.0746  0.1848
 3634W        W 7834   8.107   8.792   9.942  0.0271  0.1494  0.2145
 3635W        W 7835   9.757   6.117  13.122  0.3530  0.1957 -0.2345
 3636W        W 7836   0.025   5.098  11.316 -0.0923 -0.4086  0.0562
 3637W        W 7837   6.776   5.493   0.683 -0.0921  0.0796 -0.0638
 3638W        W 7838   5.103   2.225   9.890  0.0376 -0.1784  0.4744
 3639W        W 7839   3.928   7.985  11.190  0.1267 -0.1956 -0.1313
 3640W        W 7840   8.083   8.179  10.874 -0.2407 -0.1794 -0.0581
 3641W        W 7841   3.694   4.932   1.798 -0.0446 -0.0005 -0.2839
 3642W        W 7842   0.698   6.959   1.780 -0.0237  0.0112 -0.1861
 3643W        W 7843   4.123   2.468   0.738  0.0337  0.3717  0.1735
 3644W        W 7844   4.772   6.145   8.793  0.1297  0.1292 -0.1966
 3645W        W 7845   4.546   6.471  11.512  0.4780  0.0293  0.0654
 3646W        W 7846   9.568   9.822   2.326 -0.2681 -0.1969 -0.1679
 3647W        W 7847   5.921   6.707   4.462 -0.0753 -0.1307  0.1081
 3648W        W 7848   8.119   1.914   3.730 -0.1121  0.4045  0.1076
 3649W        W 7849   8.441   3.226   2.326  0.1254  0.0998 -0.2413
 3650W        W 7850   2.563   6.143  10.895 -0.2275  0.3147 -0.3547
 3651W        W 7851   8.279   9.740   3.589 -0.3721 -0.0608 -0.3456
 3652W        W 7852   3.828   7.943   2.874  0.2155 -0.3084 -0.0191
 3653W        W 7853   7.007   1.405  12.064  0.0052  0.0939  0.0843
 3654W        W 7854   8.815   1.508   4.443 -0.1378  0.2041 -0.0895
 3655W        W 7855   7.886   3.163  12.569  0.2683  0.1036 -0.2173
 3656W        W 7856   2.656   1.136  12.357 -0.0569 -0.1728 -0.0948
 3657W        W 7857   1.484   7.728   0.395 -0.1844 -0.1939  0.0726
 3658W        W 7858   0.222   4.618   3.324  0.1203  0.1352 -0.1560
 3659W        W 7859   3.211   0.960   0.395  0.1413 -0.0478  0.0245
 3660W        W 7860   6.844   9.645  10.226  0.0028 -0.0470 -0.1186
 3661W        W 7861   0.752   4.267   2.205 -0.0048  0.0644 -0.2197
 3662W        W 7862   4.592   5.628   8.826 -0.4285  0.0798  0.1743
 3663W        W 7863  10.094   2.273  12.421 -0.0383  0.3899  0.5607
 3664W        W 7864   9.587   8.850   3.770  0.2249  0.0485 -0.1074
 3665W        W 7865   5.153   2.248   1.795 -0.0256 -0.0849 -0.0918
 3666W        W 7866   4.787   4.904   1.290  0.0529 -0.0387 -0.2879
 3667W        W 7867   4.207   3.842  11.920 -0.1630 -0.0546  0.0950
 3668W        W 7868   5.308   4.175   3.731  0.2906  0.0558  0.1110
 3669W        W 7869   5.470   8.693   9.938 -0.0072 -0.0434 -0.2506
 3670W        W 7870   1.430   3.441  12.347 -0.1196 -0.1410 -0.3432
 3671W        W 7871   0.369   1.073   8.215 -0.0421  0.0239  0.0997
 3672W        W 7872   0.967   9.908  11.826  0.1447 -0.2740  0.0041
 3673W        W 7873   3.722   0.080   3.903 -0.0463  0.2601 -0.1259
 3674W        W 7874   4.868   1.744   0.956 -0.0246  0.1238 -0.0678
 3675W        W 7875   7.399   5.054  12.698 -0.2000 -0.1405 -0.0506
 3676W        W 7876   0.703   7.901   0.834 -0.3193  0.3213 -0.1402
 3677W        W 7877   3.788   5.931   1.709 -0.1424 -0.0905 -0.0027
 3678W        W 7878   8.574   5.054   9.841 -0.0478  0.1203  0.3499
 3679W        W 7879   9.037   4.656   8.702 -0.2764 -0.0787 -0.3435
 3680W        W 7880   4.143   6.087  11.615  0.0774 -0.2021 -0.3034
 3681W        W 7881   8.524   9.993   9.232 -0.0242  0.1724  0.0489
 3682W        W 7882   4.702   7.879  11.895  0.0691  0.0036  0.1207
 3683W        W 7883   5.432   0.528   9.581  0.0737 -0.0426  0.3528
 3684W        W 7884   9.267   5.937  11.029  0.1381 -0.1521  0.0610
 3685W        W 7885   7.112   4.396  12.931 -0.3970 -0.2250  0.1112
 3686W        W 7886   8.805   3.883  11.251  0.2358 -0.4095  0.1133
 3687W        W 7887   5.279   0.199   1.795 -0.5664  0.2106 -0.1193
 3688W        W 7888   1.776   3.721  10.851 -0.0135 -0.0772  0.0141
 3689W        W 7889   7.194   4.709  11.776 -0.2995  0.3429  0.2108
 3690W        W 7890   1.791   3.828  13.158  0.0957  0.2320 -0.2186
 3691W        W 7891   3.885   7.633   4.788  0.0018 -0.0389  0.0639
 3692W        W 7892   3.685   4.794   3.343 -0.0317  0.1714  0.1886
 3693W        W 7893   3.562   0.060   4.592 -0.0350 -0.0993  0.1193
 3694W        W 7894   4.977   5.337  12.350  0.1758  0.0825 -0.1187
 3695W        W 7895   8.529   4.914  12.321 -0.2912 -0.2278 -0.1406
 3696W        W 7896   8.138   2.174   2.998 -0.1166  0.0367 -0.0797
 3697W        W 7897  10.389   0.797  11.295  0.1522 -0.0065 -0.0752
 3698W        W 7898   3.824   4.109  12.890  0.1177 -0.1909 -0.5788
 3699W        W 7899   9.588   0.084  10.604  0.0728  0.3254 -0.4131
 3700W        W 7900   0.142   1.628  10.648 -0.0190 -0.0207  0.0172
 3701W        W 7901   9.946   7.627  12.328 -0.0074  0.0273  0.3438
 3702W        W 7902   5.823   1.834   2.612 -0.2282 -0.0661 -0.0593
 3703W        W 7903   3.379   6.347  13.228 -0.2938  0.1605 -0.3896
 3704W        W 7904   2.441   0.071  12.956 -0.1170 -0.1859  0.2308
 3705W        W 7905   3.506   5.747   9.830  0.2365  0.1536 -0.1001
 3706W        W 7906   4.857  10.100   3.207  0.1823 -0.2259 -0.2074
 3707W        W 7907   4.082   3.994  10.984 -0.1201 -0.2234 -0.1554
 3708W        W 7908   4.578   1.822  10.466  0.1639 -0.1907  0.0121
 3709W        W 7909   1.787   4.820  10.104 -0.1514 -0.0814  0.1617
 3710W        W 7910   4.895   3.107  12.134 -0.1287 -0.3673 -0.0891
 3711W        W 7911   0.611   2.593  13.217  0.0506  0.3121  0.1851
 3712W        W 7912   6.087   7.129   9.236 -0.0291 -0.0974  0.2043
 3713W        W 7913   4.793   7.517   9.246 -0.0035  0.0090  0.1514
 3714W        W 7914   1.915   4.730   9.521 -0.1956 -0.2009 -0.0304
 3715W        W 7915   1.410   2.932  12.967 -0.1180  0.0995 -0.0902
 3716W        W 7916  10.292   2.100   0.028  0.0887  0.1903  0.0269
 3717W        W 7917   5.097   3.022   9.876  0.0485  0.0305 -0.0762
 3718W        W 7918   8.098   7.320   9.651 -0.0237 -0.3548 -0.0279
 3719W        W 7919   2.321   9.910   9.620  0.1261  0.0226 -0.0577
 3720W        W 7920   0.432   2.479  10.398 -0.2408  0.0633 -0.3441
 3721W        W 7921   3.702   9.969  10.181 -0.0226 -0.3768  0.1034
 3722W        W 7922   0.762  10.411  12.596  0.0213  0.1015  0.2301
 3723W        W 7923   2.332   0.446  11.315  0.0273 -0.2010  0.2148
 3724W        W 7924   9.302   0.228   1.946  0.0046  0.1785  0.0066
 3725W        W 7925   4.987   2.291   0.150 -0.1423  0.1419  0.1529
 3726W        W 7926   8.235   5.276   4.465  0.1579  0.2102  0.1551
 3727W        W 7927   9.362   3.477   3.354  0.1193  0.2159 -0.1949
 3728W        W 7928   9.806   1.181   2.289 -0.0628 -0.0105 -0.0340
 3729W        W 7929   1.455   6.355  13.203 -0.1534 -0.0215 -0.3314
 3730W        W 7930  10.148   6.461   9.585  0.1669  0.0345 -0.1540
 3731W        W 7931   6.706   5.225   4.149  0.1905  0.0169  0.1879
 3732W        W 7932   8.246   9.541   5.048 -0.0635 -0.0869  0.0407
 3733W        W 7933   0.363   3.561  10.158  0.2222  0.2723 -0.0928
 3734W        W 7934   6.167   8.918   9.409  0.0179 -0.1947 -0.0423
 3735W        W 7935   4.708   0.125  12.511 -0.0671  0.0448  0.2254
 3736W        W 7936   5.608   2.194   3.387  0.0656  0.0153 -0.0648
 3737W        W 7937   2.966   5.115   2.723  0.0377  0.0668 -0.0084
 3738W        W 7938   4.534   3.624  11.522 -0.2743 -0.1463  0.3399
 3739W        W 7939   7.141   8.706   0.293 -0.0335 -0.2113 -0.1072
 3740W        W 7940   3.817   6.636  13.219 -0.1466  0.0594  0.0740
 3741W        W 7941   1.045   7.160   3.797 -0.1530  0.2367  0.2945
 3742W        W 7942   7.872   4.064   1.038 -0.1820  0.0404 -0.0692
 3743W        W 7943   0.407   0.831   1.003  0.3684 -0.1519 -0.0067
 3744W        W 7944   1.898   9.395  12.871 -0.1950 -0.3064  0.0825
 3745W        W 7945   1.412   3.282   9.875 -0.0379 -0.1969  0.2289
 3746W        W 7946   3.967   0.099  12.782 -0.0469  0.0798 -0.0676
 3747W        W 7947   7.160   4.413  11.400 -0.0151  0.0046  0.1092
 3748W        W 7948   9.058   4.750   3.363 -0.1851  0.1741 -0.0626
 3749W        W 7949   1.941   2.535   3.726  0.1332  0.2616  0.5736
 3750W        W 7950   8.096   0.368   1.729  0.2687  0.0438  0.0533
 3751W        W 7951   3.835  10.450  10.286  0.0463  0.2965  0.0944
 3752W        W 7952   6.568   8.583   0.373  0.0528 -0.0049 -0.1725
 3753W        W 7953  10.470   7.870  11.514 -0.0509 -0.0450 -0.0205
 3754W        W 7954   5.326   4.861  11.009 -0.0036 -0.0643 -0.0436
 3755W        W 7955   3.909   5.588  11.772 -0.1136 -0.0978 -0.1418
 3756W        W 7956   2.939   0.256   2.359 -0.2883 -0.1382 -0.1048
 3757W        W 7957   7.745   3.926  12.092  0.0053  0.0531  0.0219
 3758W        W 7958   6.195   5.857   9.718 -0.0496 -0.0232  0.2819
 3759W        W 7959   5.831   0.280   3.012  0.2354 -0.3777  0.4092
 3760W        W 7960   7.614   5.740   8.347 -0.0629  0.3842 -0.0294
 3761W        W 7961   5.521   9.498  10.446 -0.1686 -0.0088 -0.0304
 3762W        W 7962   8.455   2.402   1.777 -0.0578  0.2772 -0.2748
 3763W        W 7963   5.005   7.408   2.670  0.1404  0.1162  0.4139
 3764W        W 7964   7.960   6.119   3.409  0.0664  0.0979  0.0912
 3765W        W 7965   1.131   5.417  13.135 -0.0519 -0.1467 -0.0988
 3766W        W 7966   3.830   6.012  13.229 -0.1129  0.0448  0.1781
 3767W        W 7967   2.989   0.194  12.719  0.3186  0.1238 -0.0800
 3768W        W 7968   6.419   8.644   2.415  0.1829 -0.0203 -0.0262
 3769W        W 7969   3.411   3.133   1.016  0.3595 -0.0758 -0.0217
 3770W        W 7970   9.189   8.399   3.724  0.0962 -0.1510 -0.0133
 3771W        W 7971   1.416   9.739   9.702 -0.2487 -0.1766 -0.1352
 3772W        W 7972   7.593   4.625   4.304  0.0841  0.0760 -0.1314
 3773W        W 7973   3.290   9.315   0.365 -0.4825  0.0990  0.1985
 3774W        W 7974   9.497   4.073  10.199 -0.0682 -0.0680 -0.0594
 3775W        W 7975   4.884   3.533   0.629 -0.0932  0.0923  0.1191
 3776W        W 7976   5.230   2.627  12.208  0.3226 -0.2270 -0.1762
 3777W        W 7977   0.976   7.835  10.471 -0.0037  0.1844  0.1500
 3778W        W 7978   6.406   0.928  10.964 -0.0382 -0.2412 -0.1056
 3779W        W 7979   9.063   1.156   1.959 -0.2362 -0.1841  0.1242
 3780W        W 7980   1.206   5.149   0.955  0.0311  0.1032 -0.0532
 3781W        W 7981   6.015   4.971  12.527 -0.3204  0.1059  0.2713
 3782W        W 7982   5.618   7.820   0.783 -0.1591  0.0159  0.0178
 3783W        W 7983   1.300   3.751  10.086 -0.2894  0.2093  0.0772
 3784W        W 7984   6.427  10.367  12.747  0.1339  0.0859 -0.2819
 3785W        W 7985   9.507   7.729  11.567  0.0481 -0.0094 -0.1872
 3786W        W 7986   3.457  10.138   3.790 -0.1337 -0.1008  0.2610
 3787W        W 7987   8.161   1.976   8.219  0.0660  0.3002  0.0180
 3788W        W 7988   2.011   2.994   4.115  0.3107 -0.0239  0.0929
 3789W        W 7989  10.306   1.329  11.312 -0.1348  0.0474  0.0055
 3790W        W 7990   5.726   1.708   9.193 -0.0553 -0.0420  0.0767
 3791W        W 7991   3.469   5.729   2.418 -0.3316  0.0961  0.4112
 3792W        W 7992   0.625   6.732   0.094 -0.1310  0.0321  0.1239
 3793W        W 7993   7.089   9.462   3.605 -0.0044  0.2487  0.0369
 3794W        W 7994   4.483   3.740   9.802  0.1265  0.0813  0.2398
 3795W        W 7995   1.542   0.129   2.037  0.1568  0.1287  0.0009
 3796W        W 7996   0.201   6.825   8.976 -0.0581 -0.1081 -0.0603
 3797W        W 7997   2.053   9.091  11.455 -0.1789  0.1170  0.0428
 3798W        W 7998   8.065   8.494   5.019 -0.2305  0.2758  0.0707
 3799W        W 7999   2.126   8.375   3.990 -0.0976 -0.0722  0.0935
 3800W        W 8000   8.076   8.316  12.177 -0.0298  0.0131 -0.0748
 3801W        W 8001   8.322   3.075  13.185  0.0490  0.0567 -0.1937
 3802W        W 8002   3.167   6.872   9.632 -0.1015 -0.0707  0.2919
 3803W        W 8003   3.254   3.297   3.081  0.1322  0.2717 -0.0025
 3804W        W 8004   8.018   0.232  12.606  0.0820  0.2346 -0.1306
 3805W        W 8005   4.986   0.727   0.039 -0.0585 -0.0969 -0.0584
 3806W        W 8006   2.839   3.723  12.343 -0.2466  0.2103  0.1416
 3807W        W 8007   6.318   4.531  11.644  0.0213  0.1769  0.0668
 3808W        W 8008   8.263   0.061   8.698  0.1688 -0.1662 -0.0999
 3809W        W 8009   2.462   9.633   9.199  0.0489 -0.0581 -0.1635
 3810W        W 8010   3.036   0.534   8.387  0.0557 -0.0709 -0.0631
 3811W        W 8011   2.799   8.171  13.333  0.1714 -0.0569 -0.3150
 3812W        W 8012   7.212   0.395   4.947 -0.2123  0.0386  0.1488
 3813W        W 8013   6.654   1.866  12.853 -0.1322 -0.0770  0.0450
 3814W        W 8014   7.712   0.469   3.121 -0.2411  0.3369  0.0401
 3815W        W 8015   6.946   2.543  12.327  0.2234 -0.2161 -0.0416
 3816W        W 8016   7.606   2.799   9.548  0.2015 -0.0036 -0.1495
 3817W        W 8017   5.651   8.988   2.194 -0.2085  0.1440 -0.1318
 3818W        W 8018   9.823   5.492   1.981  0.2409 -0.1601 -0.1653
 3819W        W 8019   3.390   4.561   2.557 -0.3968  0.0094  0.1223
 3820W        W 8020   4.829   5.950   9.793  0.0382  0.2729 -0.2850
 3821W        W 8021   7.076  10.323  11.412 -0.3168  0.1688 -0.1391
 3822W        W 8022   0.892   5.106  10.467 -0.0895 -0.0111  0.0085
 3823W        W 8023   7.680   8.572   4.256 -0.1081 -0.0993 -0.3503
 3824W        W 8024   7.383   7.847   2.955 -0.0182 -0.1577  0.0197
 3825W        W 8025  10.254   4.608  12.440  0.2606 -0.0687  0.0168
 3826W        W 8026   2.055   6.781  11.660  0.4202  0.2414  0.4599
 3827W        W 8027   7.555   7.261   3.673 -0.2181  0.0777  0.2603
 3828W        W 8028   0.273   9.687   2.587 -0.2267 -0.0311 -0.0797
 3829W        W 8029   4.644   9.917  12.467  0.2898 -0.1600  0.1944
 3830W        W 8030   3.792   9.331   3.442 -0.1558  0.1195 -0.1851
 3831W        W 8031   0.264   5.626  12.111  0.0350  0.1161 -0.1245
 3832W        W 8032   3.731   3.429   1.379 -0.1306  0.2127 -0.3012
 3833W        W 8033   3.313   6.444   2.769  0.0451  0.0663 -0.2904
 3834W        W 8034   0.188   0.417   3.316 -0.0785  0.1363  0.2933
 3835W        W 8035   4.687   5.089  10.521  0.0848  0.2477 -0.0295
 3836W        W 8036   9.704   1.653  13.032  0.0154  0.0200  0.0195
 3837W        W 8037   0.377   3.089   0.477 -0.0987 -0.2952  0.2339
 3838W        W 8038   4.536   4.492   1.340 -0.0395  0.1688  0.2033
 3839W        W 8039   5.623   6.329   2.354 -0.2957 -0.1335  0.0715
 3840W        W 8040   4.442   3.185   1.764 -0.0998 -0.0199  0.2535
 3841W        W 8041   1.410   2.934  12.338  0.0507 -0.1040  0.0636
 3842W        W 8042   6.306   8.925  10.279  0.0849  0.2560 -0.1264
 3843W        W 8043   1.087   6.791  13.099 -0.1491 -0.2513 -0.0168
 3844W        W 8044   5.705   0.636   5.109  0.2220  0.0969 -0.0384
 3845W        W 8045   7.349   9.556   3.991  0.0611 -0.0108 -0.0495
 3846W        W 8046   5.019   7.417  11.465 -0.1685 -0.5637 -0.1056
 3847W        W 8047   7.653   9.840   9.552 -0.1384  0.1398  0.0707
 3848W        W 8048   8.154   7.484   3.065 -0.1118 -0.0501 -0.4819
 3849W        W 8049   1.683   2.888  10.564 -0.1550 -0.3083 -0.0742
 3850W        W 8050   0.337   9.596  12.256 -0.1288 -0.1541  0.2077
 3851W        W 8051   0.439   8.824   9.338  0.0058 -0.0926 -0.3876
 3852W        W 8052   9.686   4.081   2.753 -0.2276  0.1001  0.0213
 3853W        W 8053   9.519   9.811   2.886  0.1598  0.1586 -0.0325
 3854W        W 8054   2.884   1.448   1.850 -0.0237  0.3013 -0.0552
 3855W        W 8055   3.354   8.333  10.021  0.0505 -0.1969  0.1923
 3856W        W 8056   4.513   5.266   1.536 -0.0188 -0.1099 -0.0236
 3857W        W 8057   7.916   3.917   1.833  0.1701 -0.2095  0.3922
 3858W        W 8058  10.444   2.110   4.198 -0.3878 -0.2479  0.1181
 3859W        W 8059   8.748   9.273  10.245  0.1368 -0.2007 -0.0386
 3860W        W 8060   6.556   0.661   3.755  0.1919  0.2052  0.0228
 3861W        W 8061   0.649   2.389  11.300 -0.0763  0.2923  0.0492
 3862W        W 8062   3.587   7.454  10.504  0.0448 -0.3190 -0.3174
 3863W        W 8063   4.620   3.165  11.688 -0.2541 -0.3043  0.1148
 3864W        W 8064   4.648   1.819   3.178  0.0509 -0.3570  0.0527
 3865W        W 8065   0.911   1.226   9.496  0.0371  0.0568  0.1166
 3866W        W 8066   2.783   5.893   1.919  0.1991 -0.0965 -0.1525
 3867W        W 8067   8.537   8.300   8.290  0.0326  0.1001  0.0905
 3868W        W 8068   2.391   0.411   2.284 -0.0692 -0.3007 -0.0376
 3869W        W 8069   5.494   6.302  11.574  0.0226 -0.1283  0.0380
 3870W        W 8070   5.558   7.699   1.813  0.1411  0.0351  0.0943
 3871W        W 8071   3.986   0.416   3.614  0.3385  0.0933  0.1554
 3872W        W 8072   8.119   6.054  10.023 -0.2443 -0.4636 -0.0689
 3873W        W 8073   8.647   2.017   9.399 -0.3228  0.2059  0.2236
 3874W        W 8074   2.343   7.852  12.061  0.0031  0.2824  0.0534
 3875W        W 8075   4.393   4.876  11.821 -0.0947  0.0786  0.1167
 3876W        W 8076   9.644   9.432   9.865  0.0280 -0.1926 -0.0043
 3877W        W 8077  10.112   1.244   0.108  0.0963 -0.4311 -0.0298
 3878W        W 8078   5.050   3.169   4.125 -0.3181 -0.2166 -0.0982
 3879W        W 8079   0.500   1.010  10.767 -0.3781 -0.0378  0.0703
 3880W        W 8080   3.570   3.871  12.456  0.1677  0.2321  0.1103
 3881W        W 8081   8.378   7.907   3.496  0.1826 -0.1681 -0.4811
 3882W        W 8082   0.387   4.652   0.939 -0.4910 -0.1672  0.2255
 3883W        W 8083   9.087   4.322   1.947 -0.0198 -0.1278  0.2347
 3884W        W 8084   0.412   9.687   3.631 -0.1099 -0.1106 -0.2554
 3885W        W 8085   4.301   0.222  10.290  0.0577  0.0845 -0.2830
 3886W        W 8086   2.894   7.914  10.097 -0.1419 -0.0946 -0.1783
 3887W        W 8087   6.097   2.507   2.958  0.1932  0.1012  0.1818
 3888W        W 8088   5.541   8.205   0.439 -0.3242  0.1839 -0.2464
 3889W        W 8089   2.000   8.349   0.609  0.3128  0.2341  0.2854
 3890W        W 8090  10.300   0.411   1.932  0.0451  0.2009  0.0626
 3891W        W 8091   7.857   9.185   0.499  0.0561  0.3464 -0.2592
 3892W        W 8092   2.917   6.154   0.548 -0.2312  0.1393 -0.1158
 3893W        W 8093   4.525   3.046  10.882 -0.0530  0.4783  0.3977
 3894W        W 8094   6.982   3.224   1.585  0.0801 -0.0476  0.1061
 3895W        W 8095   2.229   9.227   2.345 -0.0931 -0.0633 -0.0915
 3896W        W 8096   8.278   4.113   1.437  0.0003 -0.1288 -0.3754
 3897W        W 8097   8.156   8.646   4.540 -0.2955 -0.1105 -0.1598
 3898W        W 8098   6.923   0.441  10.805  0.1972 -0.1578 -0.1697
 3899W        W 8099   9.390   5.397   0.909  0.1813 -0.0974 -0.0525
 3900W        W 8100  10.194   3.925   2.817 -0.1206  0.2395 -0.0818
 3901W        W 8101   3.943   1.516  13.136 -0.2740  0.0082 -0.2866
 3902W        W 8102   3.340   9.408   2.538  0.0751  0.1114 -0.0971
 3903W        W 8103   6.145   9.359   4.535  0.1380 -0.0668 -0.0951
 3904W        W 8104   1.421   6.561  10.055 -0.0155 -0.1281  0.1263
 3905W        W 8105   9.484   2.002   1.306  0.3434  0.3295 -0.0011
 3906W        W 8106   8.958   6.776   8.787 -0.2356  0.2223 -0.4371
 3907W        W 8107  10.138   6.698   0.022 -0.0719  0.2010 -0.2418
 3908W        W 8108   9.634   5.696  11.703 -0.1089  0.0709  0.2649
 3909W        W 8109   5.538   3.057  10.261 -0.0275 -0.1192 -0.1261
 3910W        W 8110   9.007   9.668   4.940  0.1005  0.0432 -0.0596
 3911W        W 8111   9.858   3.233  11.437  0.5392 -0.1852  0.2533
 3912W        W 8112   5.486   0.722  13.059  0.0397  0.1718 -0.0521
 3913W        W 8113   3.087   1.883   1.904 -0.1518 -0.1428 -0.1899
 3914W        W 8114   3.025   7.942   0.528 -0.1634 -0.1884 -0.3454
 3915W        W 8115   4.197   2.755   4.150 -0.1022  0.2083 -0.0119
 3916W        W 8116   4.178   1.920  12.896 -0.0801 -0.0440  0.0637
 3917W        W 8117   1.385   3.901   0.190 -0.0517 -0.0447 -0.1734
 3918W        W 8118   7.112   8.840   2.496 -0.0774 -0.1831  0.0797
 3919W        W 8119   4.413   7.174   0.258  0.1576  0.0239  0.0605
 3920W        W 8120   4.392   7.451  13.139 -0.0399 -0.1830  0.0170
 3921W        W 8121   0.209   3.024   2.613 -0.2388  0.1201 -0.2226
 3922W        W 8122   0.559   8.376   1.621 -0.2161 -0.0632 -0.1890
 3923W        W 8123   0.586   1.282  12.977  0.2513  0.0196  0.1752
 3924W        W 8124   2.723   2.447   0.730  0.0065  0.0506  0.4314
 3925W        W 8125   9.244  10.084   3.917  0.5040  0.1324  0.0927
 3926W        W 8126   0.075   7.358   0.408  0.0181  0.0365 -0.0970
 3927W        W 8127   6.827   7.904   5.236  0.1753  0.1968  0.1293
 3928W        W 8128   3.704   9.730   4.491 -0.1780 -0.0107 -0.1352
 3929W        W 8129   1.881   1.305  11.344  0.0819  0.2312  0.0504
 3930W        W 8130   3.893   7.833   2.354  0.1821  0.2508  0.1747
 3931W        W 8131   8.226   7.691   1.587 -0.1099 -0.1076  0.2020
 3932W        W 8132   1.768   9.303   0.825 -0.1103 -0.1694  0.0019
 3933W        W 8133   6.267   8.564  13.232  0.0880 -0.0045 -0.2211
 3934W        W 8134   0.279   8.701   1.966 -0.0526  0.5368  0.1202
 3935W        W 8135   8.335   2.944  12.565 -0.0831 -0.4720  0.3959
 3936W        W 8136   0.658   4.072   1.408  0.1562  0.1917 -0.0409
 3937W        W 8137   5.228   3.654   3.931  0.1847  0.0489  0.3366
 3938W        W 8138   3.083  10.243   2.407  0.1853  0.0180  0.1858
 3939W        W 8139   5.816   8.364  13.322 -0.1494  0.0054 -0.0766
 3940W        W 8140   4.551   7.449   4.350 -0.1396  0.2376 -0.2206
 3941W        W 8141   5.651   8.264   1.760  0.1070  0.4202 -0.1713
 3942W        W 8142   6.842   6.397  10.219  0.3300  0.0994  0.0569
 3943W        W 8143   1.423   2.373   1.819 -0.2613 -0.0214 -0.3459
 3944W        W 8144   4.457   6.273   9.705  0.0980 -0.2264  0.2510
 3945W        W 8145   0.035   8.246  12.422  0.1417  0.2548 -0.0120
 3946W        W 8146   2.517   5.956  13.227  0.0716  0.2430  0.1237
 3947W        W 8147   4.824   7.617  12.764 -0.2200  0.4566 -0.0548
 3948W        W 8148   7.478   6.911   1.874  0.2902 -0.1765 -0.2431
 3949W        W 8149   1.492   8.445  13.098 -0.0195 -0.3797 -0.1719
 3950W        W 8150   1.036   8.785  13.234 -0.2212 -0.1000 -0.0078
 3951W        W 8151   4.940   9.970   0.426 -0.0731  0.1704 -0.0298
 3952W        W 8152   8.780   5.855   4.229  0.0581 -0.1901 -0.1708
 3953W        W 8153   0.901   0.171   0.890  0.2349  0.2790  0.1431
 3954W        W 8154   2.770   6.806  10.051  0.0585  0.3283 -0.0231
 3955W        W 8155   1.517   5.441   0.661 -0.1114 -0.0468  0.1089
 3956W        W 8156   2.958   1.205   2.639  0.0393  0.3164 -0.0431
 3957W        W 8157   6.099   9.035  11.264 -0.0215  0.2697 -0.1446
 3958W        W 8158   5.032   4.453   1.130 -0.1034  0.1891  0.4898
 3959W        W 8159   5.681   6.239  10.426 -0.1495 -0.0568  0.0757
 3960W        W 8160   3.666  10.267   2.720 -0.1745  0.1442  0.1638
 3961W        W 8161   2.778   9.248   9.400 -0.0458  0.2593  0.1902
 3962W        W 8162   5.464   2.161   2.887  0.1438  0.0365  0.0545
 3963W        W 8163   1.642   6.035   1.303 -0.3873 -0.0165 -0.0429
 3964W        W 8164   4.076   2.837  10.042 -0.0921  0.0651 -0.3848
 3965W        W 8165   9.001   3.921   0.082  0.0161  0.1427 -0.1653
 3966W        W 8166   0.819   8.581  10.202  0.1996 -0.1751 -0.3024
 3967W        W 8167   3.981   8.655  12.334 -0.2606  0.0634  0.1091
 3968W        W 8168   2.077   0.474   0.094  0.1335  0.0131  0.3489
 3969W        W 8169   2.029   0.892   2.540 -0.2317  0.2850 -0.0849
 3970W        W 8170   9.461   1.514   0.666 -0.0693  0.0172  0.0159
 3971W        W 8171   9.872   9.072   4.465 -0.1388  0.3109 -0.1309
 3972W        W 8172   8.011   2.473   1.460 -0.1744  0.0026  0.4477
 3973W        W 8173   0.402   2.486   4.976  0.1685 -0.3559 -0.0208
 3974W        W 8174   0.126   5.913   2.838  0.3716 -0.2747 -0.0874
 3975W        W 8175   1.842   4.221   4.040 -0.4444 -0.2360  0.0261
 3976W        W 8176   6.341   7.309  12.323 -0.0543  0.0847  0.2514
 3977W        W 8177   6.928   4.202   4.581 -0.1040  0.5543  0.0698
 3978W        W 8178   0.514   3.507  11.285 -0.1948  0.1184 -0.0391
 3979W        W 8179   9.899   0.576   8.344  0.1969  0.0277  0.2514
 3980W        W 8180   2.102   1.120  12.267  0.0916 -0.0545 -0.1004
 3981W        W 8181   9.887   9.756   3.319  0.0253 -0.0626  0.0648
 3982W        W 8182  10.005   6.314   2.032 -0.0413  0.1470 -0.0412
 3983W        W 8183   9.076   0.775   9.791 -0.0835 -0.4491  0.1021
 3984W        W 8184   5.127   1.224  12.130  0.1512 -0.0853 -0.0135
 3985W        W 8185   2.159   4.972  12.244 -0.0612 -0.2455 -0.0521
 3986W        W 8186   7.583   6.015   1.461 -0.2774  0.0854  0.0506
 3987W        W 8187   8.934  10.289   9.841 -0.2808 -0.2667 -0.2233
 3988W        W 8188   1.297   3.259   2.863 -0.0542  0.0807 -0.0451
 3989W        W 8189   4.527   4.649   4.877 -0.1850 -0.1291  0.0579
 3990W        W 8190   1.427   1.531   4.437  0.0743 -0.2157  0.0388
 3991W        W 8191   2.205   3.498   3.279 -0.0590 -0.2624  0.1224
 3992W        W 8192   2.943   9.607   8.989 -0.0587  0.2086 -0.1912
 3993W        W 8193   9.701   9.580   9.398  0.1862  0.1538 -0.1482
 3994W        W 8194   3.381   0.668   4.801  0.0239 -0.1076  0.0561
 3995W        W 8195  10.021   3.521   9.691 -0.1548  0.2590 -0.0878
 3996W        W 8196   8.556   5.497  10.143  0.2545 -0.0155  0.0096
 3997W        W 8197   4.990   6.963  11.909 -0.0713 -0.1141  0.0032
 3998W        W 8198   7.648   7.518   0.585 -0.1278  0.1031  0.3007
 3999W        W 8199   1.269   9.179   4.157 -0.1123 -0.0508 -0.3072
 4000W        W 8200   5.154   6.146   1.513  0.1389 -0.0257  0.2848
 4001W        W 8201   8.424   7.842   9.059 -0.2710 -0.0206  0.2859
 4002W        W 8202   4.541   9.769  11.101 -0.0054 -0.0075 -0.0372
 4003W        W 8203   8.076   1.543   1.362 -0.0696  0.1732 -0.1041
 4004W        W 8204   7.868   7.737   2.177 -0.1591  0.1156  0.1029
 4005W        W 8205   1.999   2.286  11.564  0.1446 -0.0910  0.2072
 4006W        W 8206   8.636   8.019  12.768 -0.3222  0.2059  0.0639
 4007W        W 8207   6.621   3.230  11.479  0.2960 -0.2688  0.1162
 4008W        W 8208   2.498   8.813  11.234 -0.0984  0.1427 -0.2674
 4009W        W 8209   9.965  10.384  13.198 -0.0918  0.0885  0.0136
 4010W        W 8210   6.021   0.379   1.094  0.1307 -0.1357  0.0511
 4011W        W 8211   1.931   6.380  13.015  0.4614 -0.0471 -0.2930
 4012W        W 8212  10.061   0.553   9.338 -0.1632 -0.2859  0.0790
 4013W        W 8213   1.868   8.107   4.316  0.1089  0.3604  0.1603
 4014W        W 8214   8.674   9.316   9.395  0.0770  0.1019 -0.0128
 4015W        W 8215   1.078   7.709  11.577 -0.0758 -0.2834  0.3163
 4016W        W 8216   3.204   3.871   1.178  0.0454 -0.1185 -0.1968
 4017W        W 8217   1.624   7.440   1.715 -0.0402  0.1412 -0.1667
 4018W        W 8218   9.455   9.959   9.104  0.1216  0.0835  0.3906
 4019W        W 8219  10.521   5.497   3.836 -0.1826  0.1090 -0.0228
 4020W        W 8220   7.915   4.107   0.181  0.2486  0.4033  0.0246
 4021W        W 8221   7.386   6.258  12.841  0.3482  0.1131 -0.0858
 4022W        W 8222   2.518   7.978   0.342 -0.2870 -0.3597 -0.3674
 4023W        W 8223   5.371   0.823  10.807 -0.3094 -0.3745  0.1831
 4024W        W 8224   6.009   1.360   3.232 -0.1684 -0.1525  0.0601
 4025W        W 8225   4.800   4.497  10.869 -0.1680  0.1171  0.2142
 4026W        W 8226   1.849   1.038   9.229 -0.0317 -0.1034  0.2797
 4027W        W 8227   4.197   9.752   4.790  0.0379  0.1521 -0.0257
 4028W        W 8228   5.679   9.282  13.088  0.1316 -0.2546  0.0220
 4029W        W 8229   1.553   9.152   3.049 -0.1422  0.3521 -0.2154
 4030W        W 8230   3.111   7.033  12.806 -0.1896  0.3240  0.2262
 4031W        W 8231   6.688   8.999   2.182 -0.3740  0.0422 -0.2472
 4032W        W 8232   0.524   1.033  11.701  0.0057  0.2420 -0.1248
 4033W        W 8233   9.831   2.640   2.542  0.0868  0.0555  0.2715
 4034W        W 8234  10.402   6.673  12.352 -0.5342 -0.1670 -0.0135
 4035W        W 8235   0.364   4.933   3.732  0.1827 -0.1136 -0.0440
 4036W        W 8236   7.346   9.646   1.298 -0.0105  0.1709 -0.1772
 4037W        W 8237   8.142   5.214   9.139 -0.0964 -0.2197 -0.2924
 4038W        W 8238   4.266   5.535   2.406  0.3967 -0.0184  0.5044
 4039W        W 8239   5.797   6.444   3.062 -0.0311  0.1855  0.3042
 4040W        W 8240   2.715   7.501   4.015  0.2441 -0.2322  0.0014
 4041W        W 8241   3.221  10.097   0.130 -0.0659 -0.2576  0.0207
 4042W        W 8242   5.331  10.077  11.095  0.1640  0.0149  0.1596
 4043W        W 8243   4.222   0.299   2.703 -0.0085 -0.1477 -0.3438
 4044W        W 8244   1.101   8.400   3.485  0.0306 -0.1162 -0.0009
 4045W        W 8245   3.770   8.679  10.761 -0.1857 -0.1840 -0.3059
 4046W        W 8246   1.004   9.008   1.270  0.0326 -0.1245  0.4879
 4047W        W 8247   9.069   2.134   8.254 -0.0975  0.0785 -0.0813
 4048W        W 8248   4.742   0.350   0.756 -0.0713 -0.2638  0.2391
 4049W        W 8249   7.702   8.375  13.094 -0.3465  0.0575  0.0391
 4050W        W 8250  10.026   1.837   4.499 -0.0349  0.3831  0.2653
 4051W        W 8251   0.371  10.144   8.340 -0.2364  0.0168 -0.1457
 4052W        W 8252   7.900   3.092   0.689 -0.3523 -0.1330  0.2154
 4053W        W 8253   5.219   4.788  12.288 -0.0339 -0.0786 -0.1246
 4054W        W 8254   1.464   5.529   1.450 -0.3219 -0.1445  0.1479
 4055W        W 8255   0.993   6.536   0.702  0.0627  0.3266  0.1860
 4056W        W 8256   6.624   4.030  11.191 -0.2189  0.0084  0.2742
 4057W        W 8257   1.133   5.846  12.884  0.0802 -0.1918  0.0295
 4058W        W 8258   2.365   1.411   3.186 -0.0391 -0.1513  0.0065
 4059W        W 8259   3.260   5.695   1.732  0.1492  0.1830 -0.0955
 4060W        W 8260   2.847   5.307   0.763  0.2500  0.1441 -0.0956
 4061W        W 8261   5.138   9.039   0.602 -0.1987  0.1958 -0.0483
 4062W        W 8262   3.417   2.356   2.624 -0.3202 -0.0084 -0.1173
 4063W        W 8263   2.795   3.775  11.709 -0.0777  0.0522  0.1710
 4064W        W 8264   3.089   2.889   8.747 -0.0616 -0.0887 -0.1806
 4065W        W 8265   6.405   7.050   4.287 -0.0598 -0.1713  0.0060
 4066W        W 8266   3.902   5.143   3.642 -0.0560  0.1918 -0.0139
 4067W        W 8267  10.451   3.580  12.368 -0.3119  0.0071 -0.0188
 4068W        W 8268   5.619   8.187  12.395  0.1015  0.2021  0.4015
 4069W        W 8269   5.236   5.080  13.169 -0.0063 -0.2196  0.1408
 4070W        W 8270   8.736   2.514   0.398 -0.1107 -0.3669 -0.3669
 4071W        W 8271   4.597   9.045  12.943  0.1231 -0.2848  0.0796
 4072W        W 8272   1.240   6.382   2.432  0.0025 -0.0123  0.1412
 4073W        W 8273   0.754   9.004   3.077 -0.3205 -0.0058  0.0304
 4074W        W 8274   2.336   2.173  10.489  0.0387 -0.1407  0.2339
 4075W        W 8275   2.350   1.998   3.156 -0.0783  0.1936 -0.0801
 4076W        W 8276   4.496   0.998   2.886 -0.2612 -0.0776 -0.0613
 4077W        W 8277   7.102  10.220  12.255 -0.3031 -0.1312  0.0068
 4078W        W 8278   6.295   5.001   3.164  0.0510 -0.2818  0.0595
 4079W        W 8279   9.224   4.860   2.697 -0.0079 -0.1585 -0.3730
 4080W        W 8280   3.720   6.467  10.197 -0.1398 -0.1269 -0.1790
 4081W        W 8281   5.021   1.180   2.054  0.0299 -0.1816  0.2370
 4082W        W 8282   3.829   4.990   9.856 -0.0551  0.3230  0.0467
 4083W        W 8283   7.622   2.167   1.250  0.0271  0.0267 -0.2286
 4084W        W 8284   0.500   1.993   9.943  0.3158 -0.1920  0.0660
 4085W        W 8285   5.954   8.366  11.448  0.1585  0.0443  0.3932
 4086W        W 8286  10.057   4.116   4.405  0.0319 -0.2024  0.0486
 4087W        W 8287   0.171   1.612  11.174  0.2446  0.2441  0.2728
 4088W        W 8288   4.731   0.372   1.294  0.1658 -0.5231  0.0685
 4089W        W 8289   9.969   8.841  11.898 -0.1202 -0.2119  0.2087
 4090W        W 8290   7.111   0.126   1.193 -0.1984 -0.1723 -0.2096
 4091W        W 8291   4.653   8.076   3.305 -0.6152  0.0290  0.0645
 4092W        W 8292   3.842   2.424   2.950  0.3158  0.0185  0.0081
 4093W        W 8293   2.894   6.527  10.814  0.0770 -0.0291  0.0123
 4094W        W 8294   5.377   2.693   9.636  0.2276 -0.0294 -0.2364
 4095W        W 8295   2.807   9.405   0.851  0.0002 -0.0022  0.1173
 4096W        W 8296   9.137   1.392  10.441  0.1857 -0.1489  0.2202
 4097W        W 8297   1.959   1.082  13.305 -0.1800  0.2162 -0.1572
 4098W        W 8298   5.919   2.292   4.488  0.0849 -0.2461 -0.0886
 4099W        W 8299   4.008   8.079   3.788  0.0668  0.0113  0.2541
 4100W        W 8300   3.762   6.720   0.842  0.0450  0.0560  0.0115
 4101W        W 8301   1.907   0.892   0.393 -0.0489 -0.1739 -0.1011
 4102W        W 8302   4.861   9.850   9.582  0.0149  0.0067  0.1252
 4103W        W 8303   5.425  10.471  10.081 -0.1762  0.5179  0.3560
 4104W        W 8304   9.124   7.677   3.014 -0.0760  0.0921 -0.3014
 4105W        W 8305   0.172   0.039   1.859 -0.2955 -0.1030 -0.2662
 4106W        W 8306   8.083   9.956   0.284 -0.0517 -0.1243 -0.1713
 4107W        W 8307   4.479   0.571   3.126  0.0312  0.3320 -0.0781
 4108W        W 8308   5.090   6.240  11.299 -0.0289 -0.4173 -0.0259
 4109W        W 8309   2.902   2.464   2.659  0.0395  0.2904 -0.0119
 4110W        W 8310   8.312  10.249   3.667 -0.5747 -0.0658 -0.0487
 4111W        W 8311   7.160   7.305   3.196  0.0184  0.3538 -0.1615
 4112W        W 8312   6.082   0.095   9.765 -0.0031  0.2873 -0.0430
 4113W        W 8313   9.380   2.267   9.572 -0.0957 -0.0030  0.1133
 4114W        W 8314   4.948   4.556  11.924 -0.0093 -0.2481  0.1519
 4115W        W 8315  10.402   9.707  12.529  0.1523 -0.1420 -0.0417
 4116W        W 8316   8.980   7.632   9.505 -0.2240 -0.0692  0.0402
 4117W        W 8317   6.893   3.609   1.220  0.0804 -0.2018 -0.1895
 4118W        W 8318   0.464   3.263   9.116  0.1165  0.3101  0.0343
 4119W        W 8319   3.033   5.315  12.397  0.0868 -0.2193 -0.1344
 4120W        W 8320   4.051   1.522  11.701  0.3722 -0.0443 -0.0388
 4121W        W 8321   6.041   5.720   9.266 -0.1383  0.5143 -0.1336
 4122W        W 8322   0.467   0.377   1.165 -0.4165 -0.3389 -0.0611
 4123W        W 8323   4.065   1.138   9.746  0.0667 -0.2024  0.0055
 4124W        W 8324   5.022   8.854   9.725 -0.1581  0.0607 -0.1393
 4125W        W 8325   9.545   2.084  10.474 -0.0109 -0.0465 -0.0275
 4126W        W 8326   1.549   9.738  10.319  0.3819  0.0712 -0.0029
 4127W        W 8327   4.439   9.691   9.282  0.0848  0.4778 -0.0415
 4128W        W 8328   0.178   9.073   9.799  0.1265  0.1454 -0.1648
 4129W        W 8329   6.836   9.338   2.560  0.1176 -0.0016  0.0794
 4130W        W 8330   2.233   7.494   0.179 -0.1155  0.1439  0.0824
 4131W        W 8331   2.533   8.934   1.956  0.1348  0.0355  0.1083
 4132W        W 8332   4.516   2.319  10.091 -0.0225  0.3343 -0.0382
 4133W        W 8333   0.590   9.461   0.226 -0.2320  0.3162  0.0955
 4134W        W 8334   8.477   3.176  11.368 -0.2966  0.1743  0.4435
 4135W        W 8335   6.240   8.480   1.799  0.1082 -0.0893  0.2239
 4136W        W 8336   8.735   6.557   8.323 -0.0121  0.3166  0.1409
 4137W        W 8337   1.523   6.899   2.545 -0.1948 -0.2260  0.0583
 4138W        W 8338   7.480   8.373   0.205  0.4310  0.2855 -0.0155
 4139W        W 8339   5.419  10.228   1.956  0.1684  0.3351  0.3183
 4140W        W 8340   3.731   9.678  11.477 -0.0554 -0.2030 -0.3238
 4141W        W 8341   3.475  10.415   0.546 -0.1605  0.2310  0.0436
 4142W        W 8342   7.302   1.575  10.236 -0.0786  0.0752 -0.1141
 4143W        W 8343   9.249   6.786  12.249 -0.2195  0.0417 -0.1125
 4144W        W 8344   3.870   7.387   9.192 -0.3689  0.0009  0.1591
 4145W        W 8345   9.303  10.512   0.430 -0.0367 -0.0504 -0.0065
 4146W        W 8346   0.509   3.084  10.102 -0.1045  0.1951 -0.1075
 4147W        W 8347   3.822   9.403   0.637 -0.0900 -0.0408 -0.0680
 4148W        W 8348   0.938   3.397  10.022  0.0630 -0.1814  0.2944
 4149W        W 8349   4.221   5.336   0.594  0.1715  0.0009 -0.0250
 4150W        W 8350   3.845   5.114   0.305  0.4642 -0.2065 -0.0096
 4151W        W 8351  10.399   4.805   2.032  0.1577 -0.1374 -0.0382
 4152W        W 8352   9.052   6.387   0.736 -0.1709 -0.3128 -0.0150
 4153W        W 8353   6.197   7.110  10.158 -0.0278  0.2458  0.0473
 4154W        W 8354   9.493   9.545  12.200  0.2009 -0.2240 -0.0351
 4155W        W 8355   8.018   6.778   0.642 -0.1692 -0.1352  0.1293
 4156W        W 8356   7.332   2.864   3.272  0.1089  0.3303 -0.0171
 4157W        W 8357   8.730   0.625   4.386 -0.0166  0.0381 -0.4205
 4158W        W 8358   4.124   7.277  12.347 -0.0938  0.1314  0.1383
 4159W        W 8359   6.313   6.553   4.126 -0.1925 -0.0324 -0.3201
 4160W        W 8360   7.977   1.729   4.708 -0.0140  0.1160  0.0250
 4161W        W 8361   1.566   7.410   9.342  0.1639  0.0500  0.2281
 4162W        W 8362   2.671   3.720  13.280 -0.1265 -0.0218  0.0140
 4163W        W 8363   1.080   8.365   0.807  0.0402 -0.0572 -0.1144
 4164W        W 8364   9.662   5.628  12.944  0.0005  0.1382 -0.2039
 4165W        W 8365   9.590   9.307  10.384 -0.2018 -0.0817 -0.0713
 4166W        W 8366   9.950   7.813  10.684  0.1911  0.0150 -0.1122
 4167W        W 8367   6.689   2.556   2.138 -0.0150  0.2936  0.1778
 4168W        W 8368   7.118   1.112  10.253 -0.1504  0.1329  0.0748
 4169W        W 8369   6.126   9.870  12.561 -0.2279 -0.0460  0.1195
 4170W        W 8370   1.684   9.829   2.419  0.3048  0.3784 -0.0700
 4171W        W 8371   7.308   6.123   1.840 -0.0754  0.1038  0.1200
 4172W        W 8372   8.809   2.867  12.689 -0.0449  0.2370  0.0883
 4173W        W 8373   1.894   5.082  13.122  0.1081  0.1647 -0.1584
 4174W        W 8374   9.793   9.219   3.514  0.1070  0.0904  0.1517
 4175W        W 8375   9.076   9.678  11.595 -0.2105  0.0753 -0.1150
 4176W        W 8376   6.913   9.158  10.902 -0.1790 -0.0188  0.0375
 4177W        W 8377   3.578   6.812   9.867  0.0463  0.5156  0.2549
 4178W        W 8378   6.061   1.655  12.209 -0.1687  0.1596 -0.1930
 4179W        W 8379   1.213   5.226   0.352  0.2924 -0.0965 -0.2404
 4180W        W 8380   4.855   3.226   0.088  0.4792  0.2298 -0.0299
 4181W        W 8381   0.976   9.721   1.117 -0.0227  0.1074 -0.1459
 4182W        W 8382   6.722   6.967   3.056 -0.2501  0.1850  0.1660
 4183W        W 8383   5.188   3.351   1.051  0.2712 -0.2835 -0.0116
 4184W        W 8384   6.428   0.366   9.466 -0.0639 -0.0427 -0.0327
 4185W        W 8385   0.565   3.566   0.555  0.3083 -0.0041 -0.1701
 4186W        W 8386   3.454   3.147   3.666  0.0239 -0.0364 -0.0091
 4187W        W 8387   7.801   2.848   3.392  0.2241 -0.0347 -0.1965
 4188W        W 8388   1.154   1.445   9.949  0.2996  0.0179 -0.1106
 4189W        W 8389   8.492   2.874  10.486  0.1820  0.4945  0.2486
 4190W        W 8390   4.823   8.373  10.600  0.1729  0.2103  0.1494
 4191W        W 8391   7.380   0.377   9.561  0.1564  0.0959  0.0964
 4192W        W 8392   0.641   5.624  11.870 -0.2221 -0.4258 -0.1273
 4193W        W 8393   4.785   4.259   3.789 -0.2209  0.3779 -0.1404
 4194W        W 8394   5.373   3.634  12.795 -0.0163 -0.0444  0.0560
 4195W        W 8395   3.666   0.880  10.014 -0.2805 -0.0572  0.3253
 4196W        W 8396   1.409   7.729   2.091  0.1590 -0.0396  0.3575
 4197W        W 8397   9.256   6.988   2.345 -0.0318 -0.1735 -0.2942
 4198W        W 8398   2.716   7.325   1.748  0.3142 -0.2787 -0.1968
 4199W        W 8399   5.384   0.520  11.200  0.0262 -0.3827 -0.1815
 4200W        W 8400   6.111   2.927  11.430 -0.1737 -0.0364 -0.0064
 4201W        W 8401   6.879   6.875   2.462 -0.0502 -0.1199 -0.0888
 4202W        W 8402   3.326   4.686  10.674 -0.1396 -0.1992 -0.3926
 4203W        W 8403   8.913  10.251   1.927 -0.1557  0.1136  0.4018
 4204W        W 8404   0.957   3.381   3.216 -0.1894  0.2647  0.2609
 4205W        W 8405   2.641   7.044   9.463  0.2641 -0.1559  0.1438
 4206W        W 8406   2.354   1.328  11.359 -0.1386  0.2814  0.1169
 4207W        W 8407   4.161   9.128   8.514 -0.2742 -0.3984  0.0090
 4208W        W 8408   9.804   8.143   3.361  0.3203 -0.2429  0.4897
 4209W        W 8409   6.962   6.521   1.588 -0.0833  0.0433 -0.1315
 4210W        W 8410   7.866   2.819   1.773 -0.1942 -0.1823 -0.3737
 4211W        W 8411   9.923   3.780  12.934  0.1925 -0.2646 -0.1341
 4212W        W 8412   3.027   8.458  12.970 -0.0375 -0.1026 -0.1232
 4213W        W 8413   3.187   3.507  11.357  0.1929 -0.0957  0.1315
 4214W        W 8414   2.850   9.825   4.281  0.2817 -0.2373 -0.1243
 4215W        W 8415   2.139  10.348  10.629  0.0613  0.0990  0.1944
 4216W        W 8416   2.713   8.298   8.827 -0.2397 -0.1195 -0.2504
 4217W        W 8417   8.793   1.786   8.948 -0.0266 -0.1115  0.2470
 4218W        W 8418   5.460   8.403  12.843  0.2368  0.0447 -0.0338
 4219W        W 8419   7.108   1.780   1.268  0.3393 -0.1454 -0.0681
 4220W        W 8420   9.912  10.274  10.395 -0.1016 -0.0410 -0.1300
 4221W        W 8421   9.400   9.676   1.016 -0.0645 -0.2003  0.1471
 4222W        W 8422   1.838   1.688   0.891  0.0297 -0.1338  0.0331
 4223W        W 8423   4.825   6.419  11.914  0.1052  0.0031 -0.1588
 4224W        W 8424   8.737   6.863   2.572  0.1433 -0.0298  0.0945
 4225W        W 8425   1.220   3.596   3.653 -0.0781 -0.1626  0.2661
 4226W        W 8426   9.134   3.398  10.793 -0.0734  0.1315 -0.1893
 4227W        W 8427   0.427   3.682   3.350  0.0941  0.0112  0.2160
 4228W        W 8428   9.622   8.547   0.267  0.0836  0.2018  0.0953
 4229W        W 8429   3.300   2.810   9.587  0.4903 -0.0010  0.2155
 4230W        W 8430   8.015   8.280   9.775  0.0775 -0.1556 -0.0123
 4231W        W 8431   8.786   6.272  11.743 -0.2151  0.0256  0.0303
 4232W        W 8432   6.884  10.088  11.804  0.0268 -0.0414 -0.0896
 4233W        W 8433   5.798   5.109   0.986 -0.1745  0.3869 -0.0818
 4234W        W 8434   7.382   8.588  10.350 -0.1693  0.2016 -0.0524
 4235W        W 8435   8.293   0.589   4.017 -0.0190 -0.1722  0.1552
 4236W        W 8436   6.724   6.645  11.731  0.0834 -0.1894 -0.2970
 4237W        W 8437   0.649   9.341  12.815  0.4010  0.1341  0.3126
 4238W        W 8438   4.204   2.089   3.034 -0.0028  0.0117  0.0159
 4239W        W 8439   6.248   3.119   2.163 -0.0876  0.3498 -0.0843
 4240W        W 8440   2.276   5.896   2.742  0.0298 -0.0889 -0.0658
 4241W        W 8441   1.777   9.201   9.543  0.1081  0.0754 -0.3223
 4242W        W 8442   0.328   7.889  12.757  0.0151  0.1398 -0.2513
 4243W        W 8443   4.661   9.188  12.108 -0.1616  0.0691  0.1379
 4244W        W 8444   0.400   8.693  11.152 -0.2109 -0.0559 -0.0348
 4245W        W 8445   5.107  10.344   4.064  0.0349  0.2414 -0.1444
 4246W        W 8446  10.146   7.961  13.289 -0.1619  0.2477 -0.4901
 4247W        W 8447   5.760   0.769  10.424  0.3389 -0.0650  0.0697
 4248W        W 8448   7.484   1.081  12.740 -0.5625  0.2683 -0.1966
 4249W        W 8449   8.873   3.590  11.637  0.2718 -0.0545  0.0880
 4250W        W 8450   2.982   4.333  10.736 -0.0313  0.2445 -0.1403
 4251W        W 8451   8.699   4.938   1.201 -0.1200  0.0763 -0.3981
 4252W        W 8452   2.452   9.750  11.920  0.3684 -0.1106 -0.1871
 4253W        W 8453  10.348   9.997  12.978  0.2756  0.1622  0.1498
 4254W        W 8454   1.393   8.414   9.404  0.2484  0.2413 -0.1873
 4255W        W 8455  10.449   3.829   2.294 -0.0947 -0.0886 -0.2232
 4256W        W 8456   4.957   0.850   3.027  0.1291 -0.1295  0.0934
 4257W        W 8457  10.398   0.048   3.455  0.3398 -0.0075 -0.0381
 4258W        W 8458   9.742   8.631   1.572 -0.3105 -0.0405  0.2534
 4259W        W 8459   1.953   3.490  12.238 -0.1465 -0.0089 -0.1076
 4260W        W 8460   1.627   3.327   2.000 -0.2210  0.0573  0.2597
 4261W        W 8461   0.190   0.123  12.493  0.0335  0.5959 -0.0637
 4262W        W 8462   6.837   8.124  10.135 -0.0943  0.0555 -0.2618
 4263W        W 8463   6.013   6.169   1.342  0.1058  0.0485  0.1253
 4264W        W 8464   3.712   8.101   4.720 -0.1021  0.1333 -0.1128
 4265W        W 8465   2.628   1.703  13.093 -0.0664  0.0964  0.2523
 4266W        W 8466   3.591   2.764   0.224  0.0147  0.0414  0.0985
 4267W        W 8467   1.880   3.174   9.807  0.1891 -0.1523  0.2037
 4268W        W 8468   2.909   0.263  12.130  0.0182  0.1165  0.2812
 4269W        W 8469   3.547   8.050   1.966 -0.1334 -0.1950  0.1324
 4270W        W 8470   4.320   5.991   8.968 -0.0568  0.2991 -0.2570
 4271W        W 8471   5.663   9.146  12.228  0.3906  0.0693 -0.1028
 4272W        W 8472   1.902   8.815   0.888  0.1674 -0.1519 -0.3638
 4273W        W 8473   6.516   2.147   3.152 -0.1195 -0.2008  0.0602
 4274W        W 8474   0.932   0.701   0.772  0.2004  0.0564 -0.0093
 4275W        W 8475   4.312   6.932  10.930  0.1761 -0.3544 -0.0544
 4276W        W 8476   5.813  10.027   1.212  0.3732  0.3512 -0.0925
 4277W        W 8477   8.475   1.949   4.100  0.2332 -0.0950  0.3295
 4278W        W 8478   2.520   1.095   9.962 -0.2644 -0.0764 -0.0048
 4279W        W 8479   5.561   2.111  12.466  0.0044  0.0963  0.3312
 4280W        W 8480   2.351   8.592   8.985  0.0827  0.2167 -0.1291
 4281W        W 8481   0.517   7.844   3.177  0.1326 -0.1136  0.1653
 4282W        W 8482   9.017   4.664   9.187  0.0229  0.1541 -0.0082
 4283W        W 8483   8.639   0.288  10.522  0.1749 -0.2328 -0.0137
 4284W        W 8484   3.081   9.400   4.302 -0.2054 -0.4345 -0.2330
 4285W        W 8485   5.984   6.233   3.904  0.2271  0.0141 -0.1895
 4286W        W 8486   7.224   9.225   2.953  0.1198 -0.0222 -0.2982
 4287W        W 8487   3.039   3.071  12.861  0.2433 -0.1745  0.3062
 4288W        W 8488   7.809   7.236   2.475 -0.4342 -0.0134 -0.2207
 4289W        W 8489   1.892   7.918   1.897  0.0310 -0.0830 -0.2022
 4290W        W 8490   7.718  10.306  13.076  0.1411  0.2887 -0.1065
 4291W        W 8491  10.392   2.226   2.520 -0.2335  0.1193 -0.1698
 4292W        W 8492   3.773   1.657  12.686 -0.2762  0.2583  0.0141
 4293W        W 8493  10.370   7.803  10.981 -0.1768 -0.0441 -0.1855
 4294W        W 8494   6.244   9.874   3.381  0.0464  0.0661 -0.1504
 4295W        W 8495   9.326   7.279   9.611  0.1391  0.1021  0.0240
 4296W        W 8496   5.734   3.182   3.425 -0.3822  0.0490 -0.0812
 4297W        W 8497   7.925  10.323   8.974  0.2994 -0.0230 -0.2568
 4298W        W 8498   7.907   3.383  12.083 -0.0899 -0.1044 -0.3237
 4299W        W 8499   8.992   1.420  11.898 -0.0802  0.3770  0.2479
 4300W        W 8500   9.845  10.108  11.476 -0.0265  0.0130 -0.1123
 4301W        W 8501   5.726   7.662   4.372  0.1195  0.2569 -0.1108
 4302W        W 8502   2.349   7.074  12.396  0.1473  0.1142  0.2854
 4303W        W 8503   4.431   6.806  13.245 -0.1443 -0.0191  0.1382
 4304W        W 8504   9.959   3.154   3.458 -0.0689 -0.0290 -0.3053
 4305W        W 8505   8.989   7.937  10.917  0.0147  0.0283 -0.0371
 4306W        W 8506   7.848   9.932   2.748 -0.1236  0.0569 -0.0762
 4307W        W 8507   8.685   8.802  10.187 -0.0950  0.1547 -0.1790
 4308W        W 8508   2.636   4.095   3.881 -0.0652  0.0776  0.0134
 4309W        W 8509   3.460   7.440   1.666 -0.0193  0.0506  0.0564
 4310W        W 8510   5.926   5.833  10.249  0.0919 -0.1713  0.3642
 4311W        W 8511   5.861   0.803   3.174 -0.0054 -0.0794 -0.0109
 4312W        W 8512   9.853   4.871  12.659  0.0513 -0.2319 -0.1512
 4313W        W 8513   8.531  10.059   9.790 -0.2983 -0.0108 -0.0332
 4314W        W 8514   0.049   3.580   0.365 -0.0666  0.1956  0.1033
 4315W        W 8515   5.775   6.830   8.918 -0.2071  0.0004  0.0117
 4316W        W 8516   9.813   5.828   9.702 -0.3111  0.0426  0.0646
 4317W        W 8517   3.054   5.699   3.858  0.0437  0.0751 -0.1703
 4318W        W 8518   3.286   9.902   2.754  0.1415 -0.0358 -0.0626
 4319W        W 8519   0.227   2.984   4.254 -0.1544 -0.3015 -0.2676
 4320W        W 8520   9.081   0.922  12.649 -0.2235  0.3058  0.0396
 4321W        W 8521   4.671   5.719   3.316 -0.2379 -0.3289  0.1987
 4322W        W 8522   3.608   1.946   2.338 -0.3196 -0.4216  0.1127
 4323W        W 8523   7.781   3.093   9.923 -0.0244 -0.0657 -0.3978
 4324W        W 8524   3.946   5.981   1.245  0.1832 -0.2655  0.1492
 4325W        W 8525   9.808   7.003  10.112  0.0077 -0.0213 -0.1522
 4326W        W 8526   5.701   4.592  12.608 -0.0069 -0.0270 -0.3226
 4327W        W 8527   9.908  10.334   9.899 -0.2784  0.4664  0.0361
 4328W        W 8528   9.209   9.527   9.137  0.0434 -0.2622 -0.0458
 4329W        W 8529   9.949   0.326  12.953 -0.0512 -0.2011  0.1369
 4330W        W 8530   6.210   1.374  12.555  0.2613 -0.0113 -0.0917
 4331W        W 8531   9.530   9.887  12.709 -0.1545 -0.0214 -0.2377
 4332W        W 8532   0.311   3.813  12.112 -0.0133 -0.0542  0.1197
 4333W        W 8533   3.002   2.755   3.011  0.0586 -0.2720 -0.1581
 4334W        W 8534   2.930   7.323  11.628 -0.2013  0.1688  0.0979
 4335W        W 8535   2.004   1.700  12.978  0.2199  0.2387  0.0900
 4336W        W 8536   8.599   0.973  12.435 -0.2343  0.0214  0.2610
 4337W        W 8537   3.065   0.364   9.810 -0.0226  0.6051 -0.0466
 4338W        W 8538   3.222   0.752   8.810  0.2702  0.2247 -0.0513
 4339W        W 8539   8.160   1.062   9.358  0.1453 -0.0072 -0.0524
 4340W        W 8540   1.599   2.555  11.473  0.1898  0.0480  0.0563
 4341W        W 8541   7.271   8.824  13.057 -0.1520 -0.2407  0.1186
 4342W        W 8542   3.852   4.037   0.431 -0.0767  0.2843 -0.3106
 4343W        W 8543   6.195   8.013   1.526 -0.1183 -0.2005 -0.0335
 4344W        W 8544  10.244   3.553   3.678 -0.1230  0.0461  0.0298
 4345W        W 8545   9.475   6.893   1.366  0.3125  0.0661  0.3927
 4346W        W 8546   8.361   8.378  11.751 -0.0662 -0.0332  0.1989
 4347W        W 8547   8.372   2.869   0.656 -0.3721  0.2108  0.0304
 4348W        W 8548   9.082   7.272   2.726 -0.2389  0.0507  0.0267
 4349W        W 8549   7.856   0.328   9.321 -0.0743 -0.3149  0.0218
 4350W        W 8550   5.782   6.955   9.848  0.1600  0.0210 -0.1527
 4351W        W 8551   5.821   9.259  10.789  0.0189 -0.1890  0.0911
 4352W        W 8552   2.304   3.418   1.920 -0.1099 -0.1672 -0.0939
 4353W        W 8553   6.231   2.122   2.674 -0.0570 -0.0688  0.1655
 4354W        W 8554   2.905   2.866   4.407 -0.0491  0.2706  0.1003
 4355W        W 8555   5.957   3.871   1.013 -0.1148  0.0476 -0.2496
 4356W        W 8556   5.626   0.088   2.276  0.1365  0.0235  0.1280
 4357W        W 8557   1.522   7.157   2.120 -0.2822 -0.1726 -0.2017
 4358W        W 8558  10.354   0.029  10.108 -0.0852  0.1200 -0.3890
 4359W        W 8559  10.240   8.338  11.673  0.3456  0.2858  0.2221
 4360W        W 8560   7.625   7.919  11.102  0.0482 -0.1996  0.1283
 4361W        W 8561   4.056   2.737   1.674  0.2184  0.0880 -0.3120
 4362W        W 8562  10.484   8.071   1.447  0.3715 -0.2015 -0.1127
 4363W        W 8563   9.401   2.299   3.246  0.0101  0.0666  0.0486
 4364W        W 8564   9.934   1.183  11.635  0.0690  0.0819  0.0569
 4365W        W 8565   7.420   7.599  12.493  0.0097  0.5775  0.1084
 4366W        W 8566   7.092   9.213   9.178 -0.2695  0.0779 -0.0978
 4367W        W 8567   0.596   5.165   2.641  0.0282 -0.1161 -0.0752
 4368W        W 8568   1.993   7.215  10.298  0.1274  0.0663  0.0696
 4369W        W 8569   1.401   2.210  12.317  0.0263 -0.2383  0.0436
 4370W        W 8570  10.138   5.846   4.206  0.0649  0.0411  0.0912
 4371W        W 8571   8.667   3.668   0.351 -0.1910 -0.1368 -0.1058
 4372W        W 8572   9.812   6.707   0.377  0.0458 -0.3572 -0.1509
 4373W        W 8573   7.372   4.309   9.369  0.3369  0.2416  0.0149
 4374W        W 8574   6.463   3.227   1.467  0.0420  0.2226  0.1818
 4375W        W 8575   4.126   5.211  11.513  0.0432  0.2745  0.2724
 4376W        W 8576   8.776   7.267   0.859  0.0690  0.1963  0.0901
 4377W        W 8577   0.159  10.202  11.059 -0.1002  0.0623 -0.2371
 4378W        W 8578   9.251   3.872  11.783 -0.1513 -0.1516 -0.0021
 4379W        W 8579   4.086   2.716  12.303 -0.0552 -0.2513 -0.0398
 4380W        W 8580   8.689   8.486   1.321  0.2664 -0.0645 -0.0422
 4381W        W 8581   7.842   9.750   1.254  0.0913 -0.4533 -0.0198
 4382W        W 8582  10.388   0.750   0.057  0.2135  0.2355 -0.0597
 4383W        W 8583   1.242   6.393  11.032 -0.1014  0.0793 -0.0629
 4384W        W 8584   7.893   3.548   3.207 -0.3711 -0.0094 -0.2946
 4385W        W 8585   7.258   0.592   4.214  0.1855 -0.0075  0.0092
 4386W        W 8586   2.959   1.049   0.886 -0.1941 -0.1837 -0.0379
 4387W        W 8587   0.861   2.718   0.751 -0.2867  0.1943 -0.1267
 4388W        W 8588   1.436   9.819   0.940  0.1935 -0.3958 -0.2972
 4389W        W 8589   2.444   6.200   0.778 -0.2616  0.1301  0.3122
 4390W        W 8590  10.063   1.908   1.259  0.2340  0.3193  0.0777
 4391W        W 8591   2.102   2.223   2.782  0.0193  0.3298  0.2124
 4392W        W 8592   2.974   0.216  10.329 -0.0766  0.0497 -0.0509
 4393W        W 8593   5.120   3.635  10.279  0.2633 -0.3483  0.0489
 4394W        W 8594   9.156   9.795   0.274  0.0708  0.0865 -0.0980
 4395W        W 8595   9.447   8.956   1.867  0.3341  0.1793  0.0224
 4396W        W 8596   9.520   8.439  11.060  0.1485  0.1748  0.0762
 4397W        W 8597   3.937   3.613  10.546 -0.2131 -0.1183  0.2219
 4398W        W 8598   7.449   2.433   3.548  0.0079 -0.0757  0.0863
 4399W        W 8599   5.311   9.184  10.786  0.0399  0.1830  0.1902
 4400W        W 8600   0.700   7.443   0.480  0.1843  0.3783 -0.2015
 4401W        W 8601   6.087   8.112   2.572  0.1579  0.0470 -0.0440
 4402W        W 8602   9.389   6.943   1.877  0.0121  0.2408 -0.1669
 4403W        W 8603   9.367   9.384  11.329  0.2325 -0.1195  0.0337
 4404W        W 8604   7.654   8.024  10.572  0.0298 -0.1084  0.1061
 4405W        W 8605   2.556   0.661   9.632 -0.4191  0.1148  0.0480
 4406W        W 8606   1.165   2.691   3.579 -0.0491  0.1193  0.0823
 4407W        W 8607   0.403   7.884   2.363 -0.1786 -0.1983  0.1660
 4408W        W 8608   0.042   2.849   9.055  0.0882 -0.0222  0.1302
 4409W        W 8609   9.236   2.778   9.700 -0.3071 -0.2814 -0.1706
 4410W        W 8610   9.284   8.363   4.649  0.2432 -0.3701  0.0287
 4411W        W 8611   4.303   4.759  10.567  0.2079 -0.0786  0.0991
 4412W        W 8612   5.100   5.919   8.466 -0.2593 -0.4046  0.0153
 4413W        W 8613   3.710   3.556  12.863 -0.2991 -0.0065 -0.0482
 4414W        W 8614   7.743   3.228  10.813 -0.4903 -0.2337  0.0237
 4415W        W 8615   3.815   3.983   2.988  0.2568  0.0230  0.2261
 4416W        W 8616   2.564   1.455   2.366 -0.0284 -0.1399  0.0673
 4417W        W 8617   5.427   7.700   0.331  0.1726 -0.0303  0.3436
 4418W        W 8618   4.500   1.103  10.553 -0.1272 -0.3229  0.2574
 4419W        W 8619   8.604   5.107  11.135 -0.1247 -0.1546  0.0046
 4420W        W 8620   6.767   8.753   2.864 -0.1457 -0.1426  0.0391
 4421W        W 8621   0.830   7.945   9.648  0.0464 -0.1584 -0.0956
 4422W        W 8622   9.872   1.225   1.417 -0.0193 -0.0868 -0.1141
 4423W        W 8623   3.411   7.298  11.348 -0.1022 -0.1458  0.4351
 4424W        W 8624   5.121   9.704   1.813  0.0252 -0.0062 -0.0284
 4425W        W 8625   8.084   1.527  10.606 -0.0073 -0.1310  0.2238
 4426W        W 8626   4.769   9.250   1.058 -0.1206 -0.0124 -0.2031
 4427W        W 8627   8.357   7.153   0.638 -0.2089  0.0115  0.1705
 4428W        W 8628   8.223   5.463  11.218 -0.0705 -0.0820  0.0938
 4429W        W 8629   8.756   2.042   1.949 -0.1507 -0.2857 -0.0833
 4430W        W 8630   5.007   4.111  12.192  0.1729  0.1049 -0.2877
 4431W        W 8631   1.227   0.410   1.781 -0.1892  0.3387  0.1213
 4432W        W 8632   3.981   9.912   2.904 -0.0287  0.0910 -0.0398
 4433W        W 8633   6.446   9.999   9.149  0.2040 -0.0054 -0.0624
 4434W        W 8634   3.855   5.158   3.036  0.2186  0.1123  0.0761
 4435W        W 8635   4.879   1.707  11.764  0.1633 -0.0185  0.0422
 4436W        W 8636   5.920   7.680   2.771 -0.1012 -0.1293 -0.1621
 4437W        W 8637   0.664   4.481   0.513 -0.0704  0.3057  0.2159
 4438W        W 8638   4.026   9.189  11.484  0.1063  0.1268  0.0417
 4439W        W 8639   3.411   9.463  11.826 -0.0207 -0.0048  0.1876
 4440W        W 8640   9.567   6.966   2.744 -0.2742 -0.0625  0.0075
 4441W        W 8641   5.493   5.412   4.069 -0.0056 -0.1303 -0.1675
 4442W        W 8642   3.741   4.054  11.790  0.0112 -0.3476 -0.5263
 4443W        W 8643   8.510   0.844   4.890 -0.0156 -0.1609 -0.1440
 4444W        W 8644   3.710   7.551   0.693 -0.0506  0.1418  0.1467
 4445W        W 8645   3.032   1.524   4.589 -0.0791 -0.1579 -0.2199
 4446W        W 8646   4.409   8.733  12.109  0.2214 -0.1497 -0.1749
 4447W        W 8647   3.965   8.868   0.971  0.1262 -0.0576  0.1728
 4448W        W 8648   7.718   0.690  10.219  0.1553 -0.3117 -0.0927
 4449W        W 8649   8.493   6.018   3.221 -0.0210 -0.2472  0.2513
 4450W        W 8650   3.161  10.263  10.181 -0.1493 -0.0737 -0.0908
 4451W        W 8651   4.650  10.197   9.261 -0.0224 -0.1846  0.1018
 4452W        W 8652   6.523   8.444  11.479  0.0588 -0.2188 -0.0831
 4453W        W 8653   9.648   0.003  11.316  0.2439  0.0574  0.1761
 4454W        W 8654   4.226   0.935   8.783  0.0771  0.3300  0.1356
 4455W        W 8655   7.760   1.019   2.292 -0.0919  0.0820  0.0424
 4456W        W 8656   2.765   4.002  12.837 -0.0357 -0.3279  0.1941
 4457W        W 8657   4.714   0.505  12.983  0.0087  0.0615 -0.0036
 4458W        W 8658   9.752   1.696   2.159  0.0662  0.0952 -0.1100
 4459W        W 8659   0.027   9.473  10.644  0.2529  0.1149 -0.0385
 4460W        W 8660   6.221   8.539  11.068  0.0552  0.0983  0.2646
 4461W        W 8661   2.213   3.884  12.517  0.0009  0.3439 -0.1425
 4462W        W 8662   9.159   8.275   0.314  0.5039  0.1098  0.1349
 4463W        W 8663   6.538   3.467   0.300 -0.0201  0.0213 -0.0113
 4464W        W 8664   3.728  10.398   5.090  0.0813 -0.1949  0.0105
 4465W        W 8665   0.646   8.778   0.351 -0.1893 -0.1250  0.0076
 4466W        W 8666   2.455   9.494  12.965  0.2367  0.2830 -0.1709
 4467W        W 8667   5.908   2.179   1.682 -0.0816  0.0572  0.0000
 4468W        W 8668   8.875   7.057   1.945 -0.0661  0.0273 -0.0097
 4469W        W 8669   4.935   2.760   0.376  0.0090 -0.0325  0.2472
 4470W        W 8670   0.605   5.548   2.048 -0.0144  0.1426 -0.1111
 4471W        W 8671   2.013   5.965  11.399  0.1374  0.1851  0.2370
 4472W        W 8672   7.076   8.008   9.720 -0.0487 -0.0787 -0.0598
 4473W        W 8673   0.436   3.733  12.568  0.0890 -0.2924 -0.0858
 4474W        W 8674   4.239   5.492   3.174 -0.4898  0.1333 -0.1479
 4475W        W 8675  10.226   6.656  10.074 -0.1369  0.1006  0.0017
 4476W        W 8676   2.425   1.959   9.443 -0.2222 -0.0275  0.2261
 4477W        W 8677   8.523   0.372  11.569 -0.0767  0.0545 -0.0621
 4478W        W 8678   8.769   0.624   3.782 -0.0038 -0.1126 -0.0094
 4479W        W 8679   8.569   9.769  11.514 -0.3189  0.1336 -0.1227
 4480W        W 8680   9.090   1.899  11.712 -0.0360  0.2005  0.0850
 4481W        W 8681   2.211   6.995   0.395 -0.1623 -0.1074  0.1595
 4482W        W 8682   3.134   9.414  12.229  0.3189 -0.0027 -0.2044
 4483W        W 8683   0.615   1.233   9.932  0.0291 -0.0306 -0.2413
 4484W        W 8684   9.539   7.658   1.465  0.4561 -0.0655  0.3034
 4485W        W 8685   2.512   0.633   1.841 -0.1561  0.0788  0.1327
 4486W        W 8686   0.088   1.043   9.974  0.0559  0.0105  0.3236
 4487W        W 8687   9.003   2.777   2.782 -0.0133 -0.1252 -0.3108
 4488W        W 8688   3.400   8.860   0.039  0.0653  0.1871  0.2338
 4489W        W 8689   6.805   3.893  10.642  0.0040  0.1544 -0.0053
 4490W        W 8690   6.482   9.480  13.263  0.2886 -0.1394  0.1507
 4491W        W 8691   1.562   4.793   1.848 -0.3970  0.0554 -0.2718
 4492W        W 8692   6.580   7.084  12.661 -0.1362  0.1912 -0.3056
 4493W        W 8693   7.957   8.720   1.437 -0.0775 -0.0548  0.1244
 4494W        W 8694   3.352   6.632  10.743 -0.1296  0.0706 -0.1057
 4495W        W 8695   6.173   4.464   4.738 -0.1384  0.1010 -0.0620
 4496W        W 8696   1.663  10.074   3.420 -0.4501 -0.0275  0.0372
 4497W        W 8697   9.360   7.326   4.489  0.1065 -0.2812 -0.0399
 4498W        W 8698   6.151   6.886   2.200 -0.0968  0.4706  0.0058
 4499W        W 8699   7.104   4.227   3.173  0.3491  0.1221  0.3339
 4500W        W 8700   0.268   1.259  12.574 -0.0445 -0.1061  0.2150
 4501W        W 8701   2.432   7.797   3.620 -0.3477 -0.0267  0.0215
 4502W        W 8702   6.577   5.992  11.836  0.0515 -0.0474  0.0645
 4503W        W 8703   0.964   6.153  11.428  0.0094 -0.0592  0.4561
 4504W        W 8704   4.549   5.732   0.594  0.1423  0.1680 -0.0845
 4505W        W 8705   4.910   3.515  13.028  0.0667  0.1870  0.0363
 4506W        W 8706   0.601   0.364   4.488  0.1258 -0.2437  0.3999
 4507W        W 8707   5.152  10.141   9.847  0.0292  0.4534  0.1973
 4508W        W 8708   7.610  10.118   9.922  0.1182  0.1914  0.1188
 4509W        W 8709   5.406   5.380  10.843 -0.0098 -0.0791  0.1203
 4510W        W 8710   0.005   5.045   2.967  0.0300  0.2741  0.0881
 4511W        W 8711   5.161   6.050  11.838  0.0672 -0.3268 -0.1137
 4512W        W 8712   9.310   6.669   0.303 -0.0120  0.0300  0.1974
 4513W        W 8713   2.965   1.247   9.322 -0.2127  0.3481 -0.1899
 4514W        W 8714   1.069   1.107  10.881 -0.0208 -0.3052  0.0030
 4515W        W 8715   9.498   7.307  12.925  0.1263 -0.1466  0.2219
 4516W        W 8716  10.187   0.093   9.527  0.0687  0.0288  0.1518
 4517W        W 8717   1.634   1.076   8.769  0.0420  0.3063 -0.2226
 4518W        W 8718   4.459   8.032  10.502  0.0030  0.1006 -0.0054
 4519W        W 8719   1.736  10.402   2.483 -0.0198 -0.0075  0.1692
 4520W        W 8720   6.341   1.359   2.050 -0.1123 -0.0631 -0.2290
 4521W        W 8721   2.808   2.094  12.416  0.2529  0.0306 -0.0879
 4522W        W 8722   8.057   5.568  10.410  0.0998  0.0499 -0.3129
 4523W        W 8723   4.652   6.004  12.914  0.2078 -0.2994  0.1872
 4524W        W 8724   8.561   5.503   9.128 -0.0922  0.0613  0.4540
 4525W        W 8725   5.772   9.245   0.606  0.0027 -0.2910  0.0871
 4526W        W 8726   9.689   0.332   0.396 -0.1207 -0.3603 -0.0894
 4527W        W 8727   6.437   8.208   2.198  0.2538 -0.2757 -0.1247
 4528W        W 8728   7.841   2.919   8.645 -0.0469 -0.1902  0.3844
 4529W        W 8729   1.579   5.347   0.073 -0.0619  0.0632  0.2296
 4530W        W 8730   6.683   0.886   8.508  0.0684  0.2002  0.1603
 4531W        W 8731   1.424   0.004   3.813  0.0727 -0.2453 -0.3448
 4532W        W 8732   7.077   7.808  12.813 -0.1866  0.0858 -0.1410
 4533W        W 8733   3.791   8.018   0.128  0.2068  0.4494 -0.1316
 4534W        W 8734   2.576   9.334   4.390 -0.2143  0.1609  0.1127
 4535W        W 8735   0.170   5.581  11.541  0.2605  0.0669  0.2996
 4536W        W 8736   2.226   0.268   9.513  0.1164  0.1203  0.2439
 4537W        W 8737   2.354   0.399   3.190 -0.0015  0.1920 -0.3489
 4538W        W 8738   2.019   3.350  13.293 -0.0869 -0.3356 -0.2065
 4539W        W 8739   0.152   1.119   4.038 -0.0730 -0.0585  0.0129
 4540W        W 8740   8.829   3.049  11.721  0.2455  0.0622 -0.3902
 4541W        W 8741  10.355   7.233   3.118  0.4361 -0.0981 -0.3140
 4542W        W 8742   6.340   9.436   1.421 -0.0235  0.0257 -0.0249
 4543W        W 8743   9.265  10.347   9.389 -0.1434  0.0309 -0.1305
 4544W        W 8744   1.713   5.979   0.257 -0.0255  0.1788 -0.0239
 4545W        W 8745   1.621   3.955   2.231 -0.0339 -0.0259 -0.0371
 4546W        W 8746   3.900   9.663   9.208 -0.4787 -0.2887  0.3559
 4547W        W 8747   8.618   8.582   2.210  0.0732 -0.1175 -0.2702
 4548W        W 8748   0.913   2.222   1.863 -0.0889  0.2527 -0.0660
 4549W        W 8749  10.246   6.149   2.546  0.1639 -0.1930 -0.2088
 4550W        W 8750   2.820   8.141  12.438  0.0560  0.1582 -0.1515
 4551W        W 8751   7.383   8.586   1.078  0.0851  0.1766 -0.2988
 4552W        W 8752   4.056   2.183   2.500  0.0337  0.2324  0.0292
 4553W        W 8753   6.532   2.699  13.133  0.1994  0.0380 -0.0369
 4554W        W 8754   4.122   9.448   2.959  0.0552  0.0271 -0.3392
 4555W        W 8755   0.246   1.793   3.222  0.0551 -0.0830  0.1540
 4556W        W 8756   8.148   8.716   1.915 -0.0547 -0.0571  0.1490
 4557W        W 8757   5.022   9.570   2.707  0.3198  0.1427  0.1662
 4558W        W 8758  10.228   4.493  10.832  0.0167  0.2584  0.0294
 4559W        W 8759   1.917  10.263  11.746  0.0272 -0.2581 -0.2930
 4560W        W 8760   0.232   0.031   2.547 -0.2548  0.0811 -0.1868
 4561W        W 8761   1.870  10.287  12.278  0.2086  0.0497 -0.1235
 4562W        W 8762   1.609   1.015  12.159 -0.1221 -0.1568  0.0087
 4563W        W 8763   6.889   4.582   9.488 -0.0465  0.2716  0.1457
 4564W        W 8764   9.195   6.337  11.337 -0.0353  0.0759  0.1014
 4565W        W 8765   2.421  10.334  12.009  0.1716 -0.1310  0.0554
 4566W        W 8766   8.425   8.710  11.126  0.2600  0.0937  0.1003
 4567W        W 8767   7.136   7.771   0.891  0.0730  0.0904  0.0881
 4568W        W 8768   9.540   4.168   4.500 -0.1151 -0.0066  0.0244
 4569W        W 8769   4.391   8.853   1.302 -0.0819  0.1719 -0.0685
 4570W        W 8770   8.395   1.408  13.176  0.2351 -0.1361 -0.2781
 4571W        W 8771   5.849   4.773   0.313  0.0148  0.2121 -0.2665
 4572W        W 8772   2.971   6.028  13.334 -0.1938  0.0593 -0.0977
 4573W        W 8773   7.543   7.978   1.070 -0.0714 -0.4902 -0.0543
 4574W        W 8774   2.555   1.429   3.896  0.0937  0.3172  0.0963
 4575W        W 8775   5.042   8.976   3.372  0.1088  0.1451  0.1197
 4576W        W 8776  10.052   0.397  11.222 -0.0607  0.0156 -0.3279
 4577W        W 8777   3.807   3.614   3.836 -0.0243 -0.2402  0.0503
 4578W        W 8778   1.649   7.749  12.465 -0.1763  0.0040 -0.2634
 4579W        W 8779   3.217   9.006  10.720  0.0093 -0.0481  0.1027
 4580W        W 8780   3.837   3.111   2.802 -0.2111 -0.2525 -0.1016
 4581W        W 8781   6.758   2.798   4.270 -0.3373 -0.5862 -0.0734
 4582W        W 8782   4.208   3.787  12.920  0.1868  0.1180 -0.0075
 4583W        W 8783   5.464   3.307   2.962 -0.2004  0.1819 -0.0789
 4584W        W 8784   9.147   1.807   9.385  0.0420  0.0791  0.2082
 4585W        W 8785   3.893   3.275   0.869  0.0927 -0.3485  0.1996
 4586W        W 8786   6.604   8.595  10.153 -0.2188 -0.2140 -0.0017
 4587W        W 8787   4.466   8.480  12.651 -0.0014  0.1747 -0.1782
 4588W        W 8788   5.900   5.341   0.551 -0.0412 -0.0835 -0.1308
 4589W        W 8789   8.841   2.478   9.548 -0.2493  0.1573  0.1906
 4590W        W 8790   2.711   0.971  11.626 -0.1634 -0.0462  0.1650
 4591W        W 8791   0.210   7.981  10.680 -0.1787 -0.1110  0.1802
 4592W        W 8792   7.282   6.994   2.816  0.2495  0.1956 -0.0359
 4593W        W 8793   6.545   2.182  11.629 -0.4648  0.0932 -0.4308
 4594W        W 8794   7.782   1.881   9.363 -0.1612  0.0647 -0.1277
 4595W        W 8795   8.114   3.874   4.011 -0.1108 -0.3070  0.0832
 4596W        W 8796   5.428   6.106   2.927 -0.1953  0.0844 -0.0220
 4597W        W 8797   7.795   9.998  12.688  0.0906 -0.1108  0.0766
 4598W        W 8798   2.472   2.778  11.752  0.0162 -0.1519  0.3898
 4599W        W 8799   0.699   7.928  12.397  0.0832  0.1454  0.3843
 4600W        W 8800   4.368   4.257  12.671  0.0761  0.3681  0.1795
 4601W        W 8801   8.064   9.832   9.080  0.2106  0.0306  0.2359
 4602W        W 8802   9.945   1.426   4.095  0.0502 -0.1001 -0.0515
 4603W        W 8803   5.816   5.685   3.809 -0.1700  0.0162  0.0351
 4604W        W 8804   6.424   5.198   0.401  0.0711 -0.0906  0.1437
 4605W        W 8805   4.886   8.891  10.530  0.3142  0.1092  0.0607
 4606W        W 8806   5.857   3.381   9.230  0.0764  0.1243 -0.1245
 4607W        W 8807   8.569   1.908  10.412  0.3447  0.1547 -0.0293
 4608W        W 8808   2.147   5.555  10.092 -0.0457  0.0944  0.0223
 4609W        W 8809   7.390  10.015   3.702  0.1291  0.3119 -0.0676
 4610W        W 8810   0.597   0.045   2.144  0.0371 -0.0745 -0.0714
 4611W        W 8811   0.394   5.198   4.176  0.1574 -0.1511  0.2415
 4612W        W 8812   7.921   4.256  10.693 -0.2609  0.3050 -0.2617
 4613W        W 8813   1.435   7.517   1.247 -0.1987  0.1065 -0.2776
 4614W        W 8814   5.866   7.508   0.096  0.1484 -0.2554  0.0334
 4615W        W 8815   4.257   6.183  10.668  0.1471 -0.2289  0.2600
 4616W        W 8816   2.705   6.242  12.503  0.1564 -0.0059 -0.1698
 4617W        W 8817   7.895   0.246   1.255 -0.0177  0.0172 -0.5893
 4618W        W 8818   1.918   4.599  12.634 -0.0676 -0.0495  0.1991
 4619W        W 8819  10.182   2.628   3.772  0.2959  0.2290  0.2516
 4620W        W 8820   3.090   1.455   0.561  0.2820 -0.0747  0.0306
 4621W        W 8821   8.368   0.292   4.964 -0.2046  0.3314 -0.3481
 4622W        W 8822   1.697   6.442  11.437 -0.3493  0.1098 -0.2672
 4623W        W 8823   1.696   8.804   2.298 -0.1130 -0.2520  0.0553
 4624W        W 8824   3.227   8.371  11.136  0.0602 -0.1270  0.2994
 4625W        W 8825  10.002  10.511   3.722 -0.0591  0.1596 -0.3107
 4626W        W 8826  10.339   1.875  11.581 -0.0609  0.4246  0.1428
 4627W        W 8827   2.054   6.133  10.445 -0.0390 -0.0137  0.0258
 4628W        W 8828   6.694   4.970  10.938 -0.0892  0.0761 -0.0817
 4629W        W 8829   6.478   8.927  10.915  0.0433  0.0392  0.1046
 4630W        W 8830   9.550   0.474  11.477 -0.2232  0.0174 -0.1781
 4631W        W 8831   7.586   6.775  11.970 -0.0955  0.1297 -0.0848
 4632W        W 8832   5.699   7.392   3.172 -0.0639 -0.0193  0.0253
 4633W        W 8833   4.597   9.817   3.585  0.1669  0.0090 -0.1801
 4634W        W 8834   0.161   0.811  10.426  0.1759  0.2609 -0.1260
 4635W        W 8835   6.859   6.063  10.985 -0.0698 -0.1100 -0.2297
 4636W        W 8836   7.769   6.347   1.852 -0.1309  0.0009 -0.2629
 4637W        W 8837   4.993   1.523   9.566 -0.3116  0.0519  0.0156
 4638W        W 8838   3.537   2.361   4.118  0.1632  0.2166  0.0402
 4639W        W 8839   3.878   9.008   2.999  0.1278 -0.0570  0.1607
 4640W        W 8840   3.744   4.468   1.671  0.1566 -0.0727 -0.2548
 4641W        W 8841   1.144   8.703  10.574 -0.1457  0.2374 -0.4179
 4642W        W 8842   3.120   6.318  12.075 -0.1060 -0.0059 -0.0337
 4643W        W 8843   1.132   8.641   3.885  0.2716  0.1883  0.0387
 4644W        W 8844   2.800   2.621   1.654 -0.3929  0.1212 -0.0517
 4645W        W 8845   5.209   5.762  13.287  0.1261 -0.1001  0.2075
 4646W        W 8846   6.508   8.564   1.351 -0.2167  0.2564 -0.2116
 4647W        W 8847   9.341   9.925   9.842 -0.0523  0.2062  0.1204
 4648W        W 8848   0.989   4.153  11.778 -0.2572 -0.1589  0.0985
 4649W        W 8849   6.809   1.398  13.033 -0.1434  0.3165 -0.3131
 4650W        W 8850   3.790   4.881  10.588 -0.0883  0.2690  0.1782
 4651W        W 8851  10.191   4.720  10.250 -0.2114  0.2492  0.1186
 4652W        W 8852   5.561   0.956  12.139  0.2476  0.2788 -0.0617
 4653W        W 8853   8.984   8.733   4.898 -0.0808  0.0321  0.0806
 4654W        W 8854   6.109   2.272   3.628  0.4740 -0.0178  0.3219
 4655W        W 8855   9.183   6.474   9.700 -0.0433  0.1601 -0.2580
 4656W        W 8856   2.506   0.182   0.138 -0.0529  0.1996 -0.1853
 4657W        W 8857   0.621   1.882  11.371  0.0067 -0.1152 -0.1804
 4658W        W 8858   8.626   1.855  10.909  0.2579 -0.1092  0.1947
 4659W        W 8859   2.236   8.044   2.294  0.2322  0.0957 -0.0791
 4660W        W 8860   2.738   2.821   2.117  0.0459 -0.3267  0.0765
 4661W        W 8861   5.308   9.990   2.989  0.4781  0.0562 -0.0450
 4662W        W 8862   6.397   7.158   3.812 -0.1673 -0.2086  0.2470
 4663W        W 8863   1.819   0.063   1.038 -0.0521 -0.1036 -0.0793
 4664W        W 8864   5.321   7.860   2.694 -0.2852  0.2100 -0.3115
 4665W        W 8865   0.212   1.566   9.965 -0.1335  0.0231  0.0600
 4666W        W 8866   2.066   0.126  11.051  0.3930 -0.2660  0.2536
 4667W        W 8867   1.302   0.725  12.768  0.2876 -0.0494  0.1461
 4668W        W 8868   4.886   2.553  10.407  0.4711  0.1181  0.1472
 4669W        W 8869   9.975   2.418   5.287 -0.1720  0.0839  0.2848
 4670W        W 8870   9.360   5.192   0.109 -0.0250  0.0634  0.0250
 4671W        W 8871   4.452   9.228  10.460  0.0161  0.3435 -0.0104
 4672W        W 8872   7.640   4.915  10.881  0.1700 -0.4528 -0.1538
 4673W        W 8873   7.979   1.380  11.361 -0.0711  0.3951 -0.1666
 4674W        W 8874   3.840   6.631   3.106 -0.2354  0.0513 -0.1364
 4675W        W 8875   7.215  10.340  13.187  0.2327  0.0926  0.0956
 4676W        W 8876   7.255   5.750   9.603 -0.0937 -0.1808  0.0882
 4677W        W 8877   7.669   1.003  13.298  0.1177 -0.0219  0.0108
 4678W        W 8878   3.310   3.042  11.493 -0.1001  0.1585 -0.0928
 4679W        W 8879   8.314   7.522   2.046 -0.2388  0.2927 -0.1206
 4680W        W 8880   2.151   8.707   2.183 -0.0738 -0.3374 -0.0150
 4681W        W 8881   5.525   6.622  13.132 -0.0239 -0.0712 -0.1214
 4682W        W 8882   6.961  10.517   8.858 -0.0200  0.0912  0.2383
 4683W        W 8883   7.980   7.883   3.853  0.0230  0.0796  0.0598
 4684W        W 8884   2.414   0.235  10.328  0.0373 -0.1680 -0.3333
 4685W        W 8885   0.684   1.468  12.549 -0.0014  0.1271  0.2688
 4686W        W 8886   4.626   5.509   2.791  0.1627  0.3619  0.2723
 4687W        W 8887   4.467   3.359   0.326 -0.1203  0.0149  0.2329
 4688W        W 8888   0.460   1.893   9.013  0.0279  0.1599 -0.1227
 4689W        W 8889   8.820   9.613  12.026 -0.1614  0.3059 -0.0034
 4690W        W 8890   8.431   4.086   0.137 -0.0643 -0.0680 -0.2635
 4691W        W 8891   7.475   0.607  12.582 -0.1165  0.3196 -0.0556
 4692W        W 8892   6.607   5.260  11.312  0.0178  0.1582 -0.0469
 4693W        W 8893   4.210   5.313   4.523  0.2109 -0.0008  0.1154
 4694W        W 8894   5.652   4.512  11.244 -0.1126 -0.0615 -0.1709
 4695W        W 8895  10.283   3.455  12.834 -0.3504  0.0616  0.4347
 4696W        W 8896   2.108   8.297   1.584  0.0918  0.1350 -0.3090
 4697W        W 8897   6.045  10.485   2.687  0.4842 -0.0856 -0.3685
 4698W        W 8898   9.867   0.904   3.738  0.0021  0.0779 -0.1438
 4699W        W 8899   1.115   2.578  12.063  0.2759  0.1128 -0.0426
 4700W        W 8900   3.250   7.184  10.090  0.2519 -0.1199 -0.0167
 4701W        W 8901   8.207   7.064  10.101  0.0738  0.1812  0.0734
 4702W        W 8902   9.063   7.489   9.999  0.2085 -0.1714 -0.0393
 4703W        W 8903   6.251   7.848  13.270  0.3069 -0.0344  0.0377
 4704W        W 8904   5.962   7.034   0.328  0.0468  0.0032  0.0059
 4705W        W 8905   2.216   1.185   3.618  0.4009  0.2610 -0.0812
 4706W        W 8906  10.362  10.147   2.002 -0.0714  0.4686  0.0115
 4707W        W 8907   2.322   2.039   1.640  0.1398  0.1605  0.0085
 4708W        W 8908   8.745   6.500  12.242  0.2642 -0.1675 -0.2480
 4709W        W 8909   0.142   6.791   0.340 -0.0891  0.1318 -0.1448
 4710W        W 8910   5.581  10.447   9.013 -0.1124 -0.2285  0.1652
 4711W        W 8911   2.627   1.500   9.607  0.0355  0.4152  0.3309
 4712W        W 8912   7.341   0.016   3.552  0.1689 -0.1801  0.1379
 4713W        W 8913   0.051   0.312   9.253 -0.3392 -0.0097 -0.1447
 4714W        W 8914   4.461  10.018  13.034  0.0951  0.2829 -0.1932
 4715W        W 8915  10.397   8.780   9.538  0.2048  0.0045  0.1652
 4716W        W 8916   0.522   5.240   9.284 -0.3357 -0.1264  0.0542
 4717W        W 8917   4.995   1.801  10.805  0.2234 -0.3031 -0.0438
 4718W        W 8918   8.706   5.866   1.926 -0.0278 -0.0803  0.3176
 4719W        W 8919   9.375   1.945  13.342  0.1393 -0.0648  0.2318
 4720W        W 8920   2.289   6.148  12.808 -0.2146 -0.1837  0.1639
 4721W        W 8921   9.985   8.956   8.870  0.0067  0.0652  0.4736
 4722W        W 8922   9.757  10.080   9.481 -0.0017 -0.2342 -0.1590
 4723W        W 8923   7.383   9.021   9.600 -0.0539 -0.0571  0.0802
 4724W        W 8924   6.204   4.586   4.202 -0.1531  0.2947  0.0592
 4725W        W 8925   5.922   7.554  11.029  0.0551  0.1358 -0.2296
 4726W        W 8926   9.691   1.417   4.506  0.2197  0.1826 -0.0074
 4727W        W 8927   7.254   5.571  10.270  0.2587 -0.1179 -0.0199
 4728W        W 8928   3.445   0.625   9.618 -0.2058 -0.0674 -0.0472
 4729W        W 8929   2.025   6.913   3.596 -0.0358 -0.2178  0.0692
 4730W        W 8930  10.028  10.201   1.510 -0.4309  0.0928  0.1078
 4731W        W 8931   3.750  10.241   9.777  0.1762  0.2355 -0.1138
 4732W        W 8932   4.915   7.918  10.269  0.0366 -0.1559  0.4229
 4733W        W 8933   4.120   8.146   1.989 -0.3612  0.0630 -0.2359
 4734W        W 8934   8.808   3.298   0.759 -0.0073  0.0369  0.4618
 4735W        W 8935   0.371   2.299   3.308 -0.0689 -0.1088  0.5197
 4736W        W 8936   8.284   4.517  12.562  0.3050 -0.0065 -0.1596
 4737W        W 8937   4.837   1.253   4.369 -0.2655  0.0611 -0.1720
 4738W        W 8938   7.209   6.742  11.604  0.0024  0.1703 -0.1850
 4739W        W 8939   5.069   0.706  12.179  0.0527 -0.2770  0.0303
 4740W        W 8940   4.497   5.231   9.666  0.0288 -0.1300 -0.2380
 4741W        W 8941   7.086   2.796   1.948  0.1040 -0.0534  0.0919
 4742W        W 8942   3.829   0.850   1.487  0.0283  0.2220  0.0615
 4743W        W 8943   9.891   0.567   0.010 -0.1661 -0.3311 -0.0549
 4744W        W 8944   3.878   5.656  12.234  0.0715  0.2637 -0.1264
 4745W        W 8945   6.766   0.704  10.334 -0.1046  0.0128  0.0712
 4746W        W 8946   9.050   4.790  12.303 -0.1096  0.0310  0.0216
 4747W        W 8947   3.666   8.265  10.427 -0.2492  0.1080 -0.1732
 4748W        W 8948   9.765   1.075   8.515  0.2535  0.3447 -0.0819
 4749W        W 8949   2.876   7.441  12.669 -0.2676  0.1128  0.0753
 4750W        W 8950   7.382   2.345   9.867 -0.0377  0.1241 -0.2405
 4751W        W 8951   8.115   0.053  11.585 -0.0214 -0.0537  0.1266
 4752W        W 8952   6.011   8.435   9.156 -0.0379 -0.2210  0.1185
 4753W        W 8953   5.599   0.763   2.766 -0.0752 -0.0724  0.0761
 4754W        W 8954   4.343   0.424   2.160 -0.2367  0.1265 -0.1998
 4755W        W 8955   6.986   8.755   3.674 -0.1640  0.4718  0.1550
 4756W        W 8956   2.833   0.614  10.631 -0.0811 -0.0545 -0.0585
 4757W        W 8957   9.027   6.070  12.449  0.0990  0.1302  0.1114
 4758W        W 8958   1.093   2.782  13.302 -0.1635  0.1070  0.4335
 4759W        W 8959   4.762   4.006  10.056 -0.3794  0.0970  0.0208
 4760W        W 8960   9.241   8.198   8.914 -0.2139 -0.1784  0.0050
 4761W        W 8961   5.826   1.099   0.476 -0.1414 -0.4193  0.3271
 4762W        W 8962   7.157   2.509   2.561  0.3612 -0.1184  0.1551
 4763W        W 8963   3.941   4.110  10.435  0.1971 -0.1094 -0.1529
 4764W        W 8964   7.027   1.884  13.326  0.1844 -0.2413 -0.1025
 4765W        W 8965   2.136   0.912  11.132  0.0677 -0.1542 -0.2011
 4766W        W 8966   1.870   8.764   3.837  0.2126 -0.0759 -0.1659
 4767W        W 8967   8.092   5.378   1.096  0.0010  0.1041  0.2548
 4768W        W 8968   0.389  10.167   8.875  0.0133  0.2158  0.0432
 4769W        W 8969   4.099   4.204   8.701  0.1654  0.1484  0.3172
 4770W        W 8970   2.528   0.163   4.766 -0.3320  0.2139  0.1947
 4771W        W 8971   2.055   2.500   0.109  0.3362 -0.0145  0.3477
 4772W        W 8972  10.357   0.019   0.730 -0.3239 -0.0067 -0.0941
 4773W        W 8973   3.279   5.323   1.042 -0.4393  0.0860 -0.1950
 4774W        W 8974   4.775   1.882   3.767 -0.0917 -0.0687  0.2525
 4775W        W 8975   1.587   6.982  12.882  0.1565 -0.0272 -0.2096
 4776W        W 8976   7.142   7.171  11.432 -0.1080  0.3978  0.2794
 4777W        W 8977   3.083   1.051   4.918  0.0481 -0.1630  0.0255
 4778W        W 8978   0.266   4.879   9.106  0.4043  0.0778  0.0184
 4779W        W 8979   6.866   7.692  10.516  0.1077 -0.1686 -0.1701
 4780W        W 8980   4.820   0.497  10.793  0.2316 -0.3229 -0.1886
 4781W        W 8981   3.928   4.714  13.316 -0.1057  0.0240 -0.0562
 4782W        W 8982   8.984   2.978   9.241 -0.2340  0.2438 -0.0461
 4783W        W 8983   8.545   6.123   0.148 -0.0493  0.0271 -0.0013
 4784W        W 8984   2.946   2.837  10.665 -0.4009 -0.0080  0.0693
 4785W        W 8985   1.753   8.843  12.854  0.0225  0.0758 -0.0344
 4786W        W 8986   1.061   3.163   0.845 -0.1908  0.0360  0.1922
 4787W        W 8987  10.367   5.424   0.055 -0.0488 -0.0919  0.0717
 4788W        W 8988   1.398   2.446  10.928 -0.0216 -0.0350 -0.1169
 4789W        W 8989   9.246  10.449  10.907 -0.1290  0.2435 -0.0032
 4790W        W 8990   2.730   6.369   2.231  0.0101 -0.1985  0.4877
 4791W        W 8991   7.712   2.558  11.104  0.1562 -0.0324  0.2261
 4792W        W 8992   1.138   6.101  10.596  0.0852  0.2964 -0.3148
 4793W        W 8993   8.020  10.180   9.497 -0.1704 -0.1466  0.0572
 4794W        W 8994   4.243   1.365   0.969  0.0632 -0.1957  0.2311
 4795W        W 8995   0.178   9.497  11.608 -0.1642  0.1222 -0.0642
 4796W        W 8996   4.678   8.559   3.137 -0.0410  0.3884 -0.0475
 4797W        W 8997   3.490   7.537   2.204  0.1200 -0.1306  0.0195
 4798W        W 8998   6.609   4.180   3.045  0.0451  0.3817 -0.0170
 4799W        W 8999   3.430   1.468   9.215 -0.0949  0.4027  0.1241
 4800W        W 9000   8.429   4.208   3.720  0.1284 -0.0649 -0.1001
 4801W        W 9001   7.092   1.494  12.555 -0.3639 -0.2469 -0.2675
 4802W        W 9002   8.953   1.315   9.017 -0.0019 -0.1217  0.3406
 4803W        W 9003   1.563   2.837  10.043  0.1566  0.3623 -0.3533
 4804W        W 9004   2.947   4.925  10.922  0.0412  0.0489 -0.1515
 4805W        W 9005   8.146   1.037   8.852  0.1845 -0.4018 -0.1618
 4806W        W 9006   9.196   6.301   9.160  0.4368 -0.0064 -0.0233
 4807W        W 9007   3.259   7.698  11.755 -0.1259  0.0898 -0.1136
 4808W        W 9008   1.954   7.893   0.447 -0.4620  0.1677  0.1847
 4809W        W 9009   4.410   0.827  12.111 -0.0194  0.2403  0.1412
 4810W        W 9010   2.268   4.529   2.237  0.1985  0.1173  0.2569
 4811W        W 9011   1.501   8.782   0.156 -0.4100 -0.1128 -0.1669
 4812W        W 9012   2.324   6.092   2.311  0.0272  0.0241 -0.0510
 4813W        W 9013   0.917   2.339   3.278  0.1342 -0.2601  0.1521
 4814W        W 9014   3.251   9.438  12.736 -0.0500  0.3675  0.1850
 4815W        W 9015   7.695   4.348  13.105  0.0990  0.0686  0.0081
 4816W        W 9016   7.475  10.144  11.164  0.1523 -0.2369 -0.1815
 4817W        W 9017   4.653   2.680  12.189  0.0314  0.1968  0.1651
 4818W        W 9018   7.431   3.001  10.318  0.1710  0.2828 -0.1404
 4819W        W 9019   5.725   5.068   9.835 -0.4460  0.1766  0.2061
 4820W        W 9020   5.625   9.708   3.342  0.0743 -0.0712 -0.3078
 4821W        W 9021   2.622   9.162   1.525  0.0458  0.0831 -0.1185
 4822W        W 9022   7.853   4.491   1.323 -0.2549 -0.0063  0.0241
 4823W        W 9023   9.324   5.269  11.959  0.0319 -0.5370 -0.1149
 4824W        W 9024   9.875   7.506  11.820 -0.2165  0.0666  0.0042
 4825W        W 9025   0.476   9.584   9.804 -0.3044 -0.0531  0.0345
 4826W        W 9026   3.617   9.735  12.888 -0.1965 -0.0346 -0.1395
 4827W        W 9027   1.003   3.763  11.464  0.0992  0.1949  0.3738
 4828W        W 9028   7.886   7.767   4.920  0.2167  0.0125  0.0439
 4829W        W 9029   7.964   8.820   3.948  0.2168  0.2809  0.4384
 4830W        W 9030   6.301   3.634   2.179  0.0762  0.0874 -0.0016
 4831W        W 9031   3.683   8.760   4.282 -0.2911  0.2680 -0.2181
 4832W        W 9032   7.210   6.047  10.551  0.0344 -0.1746 -0.0836
 4833W        W 9033   5.005   1.928   5.062  0.3581  0.1931  0.1921
 4834W        W 9034   3.252   7.579  10.855 -0.0070 -0.0564  0.2423
 4835W        W 9035   0.774   8.303  11.041 -0.5556 -0.3421  0.1320
 4836W        W 9036   7.319   3.936  11.286 -0.0869 -0.2420  0.1922
 4837W        W 9037   5.160   4.092   0.447  0.0895  0.1396  0.0462
 4838W        W 9038   9.650   3.961  12.141  0.2291 -0.0027  0.2606
 4839W        W 9039   9.637   2.006  12.285 -0.0124 -0.0011  0.1003
 4840W        W 9040   7.334   4.053   8.894 -0.0601 -0.2011 -0.0348
 4841W        W 9041   9.616  10.301   4.163 -0.0706  0.2069 -0.3239
 4842W        W 9042   4.639   3.027  12.970 -0.1569 -0.1312  0.2352
 4843W        W 9043   3.681   3.372  11.488 -0.0084 -0.2523 -0.1880
 4844W        W 9044   5.139   1.536   9.096 -0.0309 -0.1857 -0.2465
 4845W        W 9045   8.660   4.048   2.927 -0.1870 -0.0145  0.0217
 4846W        W 9046   4.963   0.890   0.579 -0.3265  0.1354 -0.2825
 4847W        W 9047   0.739   1.690  10.211 -0.1431  0.0611 -0.0334
 4848W        W 9048  10.326   3.309   8.947  0.0806 -0.0019 -0.0961
 4849W        W 9049   6.427   7.747   0.696 -0.1543  0.0379 -0.1286
 4850W        W 9050   0.218   9.742  12.874 -0.0505 -0.3493 -0.2116
 4851W        W 9051   8.765   8.746   3.626  0.1597  0.2033  0.2183
 4852W        W 9052   8.118   1.117  10.984  0.1402 -0.1011 -0.2577
 4853W        W 9053   7.174   2.985   0.533 -0.4977 -0.2755  0.0564
 4854W        W 9054   6.480   0.662  12.622 -0.1981  0.2250  0.2874
 4855W        W 9055   2.883   1.442  10.063 -0.0446 -0.2330 -0.3829
 4856W        W 9056   1.240   0.617   3.184 -0.2175  0.1692 -0.1269
 4857W        W 9057   4.240   5.919   2.794 -0.0006  0.0962  0.0888
 4858W        W 9058   7.026   1.525   0.302 -0.1164 -0.3024 -0.4425
 4859W        W 9059   5.129   5.318  10.450  0.1372 -0.0440 -0.0819
 4860W        W 9060   0.327   9.144  10.811  0.1827  0.0331  0.2909
 4861W        W 9061  10.043  10.519   0.281  0.3613 -0.0648 -0.1866
 4862W        W 9062   4.615   3.695   2.595 -0.0922  0.0622  0.0830
 4863W        W 9063   6.854   0.674  12.326  0.1345 -0.0626  0.1229
 4864W        W 9064   6.133   5.985   1.875 -0.0604 -0.1751  0.0390
 4865W        W 9065   2.203   3.936  10.368 -0.1677  0.2058  0.2903
 4866W        W 9066  10.472   0.377  10.478 -0.2511 -0.2743  0.0164
 4867W        W 9067   6.281   9.485   9.549  0.0005  0.1125 -0.0871
 4868W        W 9068   3.997   4.185  12.279  0.0134  0.1917 -0.0825
 4869W        W 9069   7.721   2.042  12.496 -0.1142 -0.2203 -0.2007
 4870W        W 9070   0.793   4.984   0.608  0.2619  0.0301 -0.1083
 4871W        W 9071   8.926   5.315  11.611 -0.1184  0.4732  0.0755
 4872W        W 9072   8.681   8.941   2.641 -0.1395  0.2159 -0.2667
 4873W        W 9073   9.310   2.005   1.890 -0.0525  0.0900 -0.1981
 4874W        W 9074   7.170   5.636  10.832  0.0351 -0.2897 -0.0666
 4875W        W 9075   1.989   0.680  12.125  0.1135  0.2370  0.1162
 4876W        W 9076   2.114   0.833   2.051 -0.0946  0.1502 -0.0434
 4877W        W 9077   7.213  10.481   9.911  0.0233  0.0704  0.4461
 4878W        W 9078   8.204   0.846   9.985  0.0710 -0.0428 -0.2584
 4879W        W 9079   4.823   2.152  12.015 -0.2183  0.1098 -0.0276
 4880W        W 9080   1.471   4.025  11.550  0.0473 -0.4635 -0.0019
 4881W        W 9081   4.184   9.957   4.292 -0.0474 -0.2871  0.1147
 4882W        W 9082   2.145   4.658   0.813  0.1311 -0.1147  0.0152
 4883W        W 9083   0.254   1.672  12.930  0.0354 -0.2852  0.1173
 4884W        W 9084   3.673   3.686  13.327  0.0485  0.1146 -0.2458
 4885W        W 9085   0.699   9.091  13.246 -0.0761 -0.1694 -0.1591
 4886W        W 9086   0.148   9.096  11.312  0.1168  0.1107 -0.1866
 4887W        W 9087   8.691   2.315   9.018  0.1763 -0.0528 -0.0379
 4888W        W 9088  10.167   3.758  11.974 -0.2166 -0.0599  0.0909
 4889W        W 9089   2.418  10.483  11.527  0.0867  0.1254  0.2072
 4890W        W 9090   6.365   2.077   4.313 -0.2440 -0.2672 -0.2746
 4891W        W 9091   5.894   2.465  12.700  0.1619  0.0145 -0.1348
 4892W        W 9092   2.221  10.029  10.159 -0.3668 -0.0967 -0.3438
 4893W        W 9093   2.190   6.625   3.237 -0.0326  0.2122 -0.1368
 4894W        W 9094   8.666   4.486  10.061 -0.0513 -0.1782 -0.0056
 4895W        W 9095   8.079   3.070   9.103  0.3596 -0.0111 -0.5250
 4896W        W 9096   8.907   2.442  10.444  0.0268 -0.0926  0.0824
 4897W        W 9097   7.285   3.324   2.961  0.2462 -0.3611 -0.2224
 4898W        W 9098   5.939   2.109  12.124 -0.2200  0.1669 -0.2590
 4899W        W 9099   8.104   5.452   0.563 -0.2379  0.1987  0.2628
 4900W        W 9100   5.213   0.844  11.727  0.0039  0.2780  0.0897
 4901W        W 9101   7.077   7.126   9.763  0.2617 -0.0198 -0.1871
 4902W        W 9102   7.718   7.769   1.540  0.1320 -0.1941 -0.3391
 4903W        W 9103   1.988   5.006   2.410 -0.0792  0.0246  0.0617
 4904W        W 9104   4.671   5.355   0.998  0.0844  0.3728  0.3060
 4905W        W 9105   5.701   3.019  10.807 -0.0915 -0.2590 -0.2829
 4906W        W 9106   6.687   4.102   1.036 -0.2394  0.0860 -0.0934
 4907W        W 9107   2.667   4.009  11.030 -0.3112  0.2401  0.0113
 4908W        W 9108   2.356   0.551  10.796  0.2565 -0.0566 -0.2716
 4909W        W 9109   9.811   0.877  11.228 -0.0317  0.1440 -0.0945
 4910W        W 9110   4.207   7.491   0.768 -0.1031 -0.2235  0.1775
 4911W        W 9111   7.204   8.874   1.997 -0.0421 -0.0636  0.2359
 4912W        W 9112   2.299   3.850  12.995 -0.2485 -0.0566 -0.1375
 4913W        W 9113   5.805   1.310  10.208  0.0512 -0.0808 -0.1486
 4914W        W 9114   7.233   3.477   2.468  0.4080 -0.0295 -0.1465
 4915W        W 9115   8.871   9.266   4.438  0.1127  0.1529  0.1812
 4916W        W 9116   5.425   1.055  11.253 -0.0443  0.1060  0.2972
 4917W        W 9117   7.323   0.713  10.573  0.2445 -0.2116  0.1326
 4918W        W 9118   7.293   0.835   9.775  0.0886 -0.2165 -0.1784
 4919W        W 9119   4.297   0.322  11.595 -0.1296 -0.2592 -0.2388
 4920W        W 9120   3.679   6.974  11.645 -0.3756  0.5185 -0.0272
 4921W        W 9121   8.222   9.428   0.264 -0.1898 -0.4703  0.0867
 4922W        W 9122   5.228   1.141  13.119  0.0911 -0.0023 -0.1158
 4923W        W 9123   2.296   0.198   0.897  0.2726  0.1950  0.0014
 4924W        W 9124   6.959   4.960   1.524  0.0177 -0.0589 -0.0809
 4925W        W 9125   0.758   3.482   3.723 -0.0754  0.1958 -0.0484
 4926W        W 9126   9.223   8.459  12.252 -0.0165  0.0629 -0.2505
 4927W        W 9127   2.537   5.196  10.028  0.3238 -0.1797 -0.0685
 4928W        W 9128   1.623   4.943   1.153  0.0944 -0.0721 -0.1886
 4929W        W 9129   6.626   0.851   9.039 -0.1160 -0.0255 -0.0324
 4930W        W 9130  10.272  10.114  12.320  0.1678 -0.1194  0.1255
 4931W        W 9131   0.612   2.055   0.277  0.1645  0.0886  0.1331
 4932W        W 9132  10.052   3.341   0.318 -0.2429  0.0134  0.0814
 4933W        W 9133   9.641   9.809   4.210  0.1441  0.0891  0.0395
 4934W        W 9134  10.048   6.326  10.925 -0.0718  0.3908  0.2674
 4935W        W 9135   5.521   0.636   2.276  0.1608 -0.0443 -0.3416
 4936W        W 9136   1.392   4.382  12.523  0.2086  0.0282 -0.1456
 4937W        W 9137   8.128   0.702   2.309 -0.3582 -0.0609 -0.1961
 4938W        W 9138   1.316   5.026  12.896  0.1298  0.0287 -0.0214
 4939W        W 9139   9.776   1.729  11.869  0.1824 -0.2391  0.0213
 4940W        W 9140   3.437  10.305  12.973 -0.0930 -0.1917  0.0420
 4941W        W 9141   0.158   3.570  13.167 -0.1267  0.0547 -0.0811
 4942W        W 9142   3.545   1.554  11.916 -0.0622 -0.1196  0.1480
 4943W        W 9143   7.952   2.875   3.922  0.2838  0.2550 -0.1459
 4944W        W 9144   8.645   4.496   1.977 -0.0822  0.4528 -0.3228
 4945W        W 9145   9.079   0.379  12.053  0.2134 -0.1763 -0.1362
 4946W        W 9146   7.345   9.149   8.295 -0.1849 -0.3508  0.2334
 4947W        W 9147   8.257   3.956   2.414 -0.0750  0.0661 -0.2548
 4948W        W 9148   6.002   6.535   0.556 -0.0600  0.0408  0.1223
 4949W        W 9149   6.898   1.725   4.092  0.1929 -0.0288  0.0958
 4950W        W 9150   1.923   7.070   1.746  0.0702 -0.2684 -0.2783
 4951W        W 9151   0.903   8.604  12.424 -0.0358 -0.1623  0.0772
 4952W        W 9152   4.351   4.862   0.333  0.0314 -0.1740 -0.0005
 4953W        W 9153   7.151   8.782  11.473 -0.0807  0.0041 -0.2506
 4954W        W 9154   6.275   6.064   0.856  0.2185 -0.3155  0.0105
 4955W        W 9155   9.613   1.620   9.599 -0.2442 -0.0644 -0.1430
 4956W        W 9156   8.700   3.053  12.244 -0.1109 -0.2115  0.1273
 4957W        W 9157   9.741   8.891   9.606  0.3628  0.1157  0.0345
 4958W        W 9158   2.268   9.028  12.441  0.0237 -0.1588  0.1551
 4959W        W 9159   6.162   4.673  10.840 -0.1182  0.0698 -0.0557
 4960W        W 9160   3.358   1.109   1.521 -0.1060  0.1699 -0.1800
 4961W        W 9161   4.004   1.149   1.820  0.0318  0.1242 -0.1054
 4962W        W 9162   0.368   5.167  11.878  0.2149  0.1028 -0.0479
 4963W        W 9163  10.387   2.139   3.690  0.0279 -0.2928  0.1301
 4964W        W 9164   3.057   7.638   1.490  0.3008  0.0713 -0.2147
 4965W        W 9165   7.169   3.071  10.818  0.1202  0.0113  0.0131
 4966W        W 9166   3.122   9.299  13.203  0.0628 -0.0294 -0.1242
 4967W        W 9167   4.759   5.203  11.882 -0.3563 -0.0621 -0.1467
 4968W        W 9168   6.848  10.211   1.509  0.0216 -0.0797 -0.0495
 4969W        W 9169   9.403   2.863   4.477 -0.2684 -0.1700 -0.0249
 4970W        W 9170  10.425   8.164   2.547 -0.1940 -0.0198 -0.1275
 4971W        W 9171   9.741   2.760   2.018  0.0922  0.1290 -0.3295
 4972W        W 9172   8.551   0.964  10.799  0.0834  0.0189 -0.4755
 4973W        W 9173   9.671   6.628  11.219 -0.2751 -0.1972 -0.0464
 4974W        W 9174   7.133   2.266   3.912  0.0469  0.0602  0.1978
 4975W        W 9175   3.841   0.230   0.613  0.2580 -0.2596  0.2213
 4976W        W 9176   9.429   0.193   4.186  0.3570  0.1217  0.0127
 4977W        W 9177   9.769   4.419  12.310  0.0809 -0.0812  0.3135
 4978W        W 9178   5.590   8.225   9.128 -0.2939 -0.1865  0.1774
 4979W        W 9179   3.618   7.528  13.137  0.2931 -0.3146 -0.2283
 4980W        W 9180   2.911   0.691   1.278  0.0175 -0.2601  0.3171
 4981W        W 9181   8.043   7.105  11.858 -0.1190 -0.0112  0.1343
 4982W        W 9182   1.382   0.337   9.060 -0.0077  0.2246  0.0273
 4983W        W 9183   6.297   4.845  11.283 -0.0327  0.0466  0.4376
 4984W        W 9184   2.888   9.226  11.146  0.1152  0.1131 -0.2520
 4985W        W 9185   0.492   6.785   2.798  0.2503 -0.2172 -0.1916
 4986W        W 9186   6.068   4.376   1.126  0.0103 -0.0238  0.0793
 4987W        W 9187   3.256   7.111   1.943  0.3394  0.1168  0.3709
 4988W        W 9188   1.884   7.799   1.381  0.1748  0.0652 -0.1634
 4989W        W 9189   0.172   4.503   0.379 -0.0409 -0.0793  0.3208
 4990W        W 9190   3.514   0.691   2.627 -0.0402  0.1352  0.3146
 4991W        W 9191   9.256   2.976   0.624 -0.1698 -0.0981  0.0512
 4992W        W 9192   4.360  10.244  10.368 -0.1310  0.3324 -0.0221
 4993W        W 9193   2.588   4.420   0.816  0.1096 -0.0773 -0.0596
 4994W        W 9194   5.102   9.476   0.223 -0.2383 -0.1492 -0.0931
 4995W        W 9195   6.339   6.594   3.115 -0.3730  0.1817  0.3487
 4996W        W 9196   3.233   9.190   9.188 -0.0634 -0.0732  0.1315
 4997W        W 9197   9.940   3.691  12.458  0.0753  0.3963 -0.1480
 4998W        W 9198   0.571   8.907   1.489 -0.1136  0.0070 -0.0351
 4999W        W 9199   7.472   3.765   1.030 -0.4482 -0.1197 -0.0994
 5000W        W 9200   1.770   2.704   1.655  0.1388  0.4987  0.0312
 5001W        W 9201   2.277   4.862   1.287  0.0098 -0.0054 -0.2458
 5002W        W 9202   6.942   0.542   2.460 -0.0254  0.3018  0.0682
 5003W        W 9203   6.438   0.706   1.320 -0.4438 -0.0349 -0.2555
 5004W        W 9204   4.291   1.917  10.928  0.2901  0.1208 -0.0273
 5005W        W 9205   0.574   9.669   2.159 -0.1173 -0.1265  0.2017
 5006W        W 9206   1.734   5.748  11.768  0.1655  0.4445  0.0524
 5007W        W 9207   7.339   6.982  10.968  0.1957  0.1529  0.0554
 5008W        W 9208   8.786   5.302   0.050  0.0744 -0.1488  0.2008
 5009W        W 9209   8.403   1.962   4.597  0.1019 -0.0689 -0.0415
 5010W        W 9210   6.920   9.940   3.931  0.1946  0.1824 -0.0723
 5011W        W 9211   7.397   3.725   9.343 -0.0561  0.1660  0.1461
 5012W        W 9212  10.226   9.266  12.670  0.3261 -0.1954  0.0445
 5013W        W 9213   1.687   9.991   2.896  0.0694 -0.1042 -0.0629
 5014W        W 9214   3.561   2.331  10.874 -0.2587 -0.1044  0.0128
 5015W        W 9215   7.921   5.576   4.743  0.2702 -0.2085  0.2138
 5016W        W 9216   6.331   3.929  10.196 -0.2196 -0.1328  0.0278
 5017W        W 9217   0.328   1.384   9.007  0.0075 -0.1318  0.1756
 5018W        W 9218   8.164   5.919   0.545  0.1819  0.1110  0.2993
 5019W        W 9219   8.188   2.895  11.730 -0.1295 -0.0956  0.3608
 5020W        W 9220   0.908   3.054   0.347  0.2799 -0.2529 -0.1214
 5021W        W 9221   9.372   6.040  10.439 -0.2180  0.0613  0.1909
 5022W        W 9222  10.223   0.880   5.418 -0.1457  0.1975 -0.1739
 5023W        W 9223   5.881   9.398   2.321  0.0265  0.2798 -0.1759
 5024W        W 9224   3.142   7.296  13.192 -0.1341 -0.0129 -0.0075
 5025W        W 9225   1.002   2.399   0.266 -0.1247  0.2234 -0.1972
 5026W        W 9226   5.223   3.080   2.104  0.1149  0.0567  0.0159
 5027W        W 9227   6.107   2.156  10.208  0.0944  0.1284  0.1941
 5028W        W 9228   5.706   0.443   0.650 -0.1169  0.1705 -0.3299
 5029W        W 9229   5.476   1.388   9.519  0.0097 -0.3337 -0.0228
 5030W        W 9230   2.061   8.224  13.094 -0.2405 -0.1067  0.3705
 5031W        W 9231   9.478   1.892   2.954 -0.1651  0.0845  0.2108
 5032W        W 9232   0.747  10.023  11.234 -0.0312  0.0919  0.0719
 5033W        W 9233   5.488   3.622   0.400  0.1619  0.1042 -0.0726
 5034W        W 9234   3.021   8.161  11.556 -0.0905  0.1086 -0.0742
 5035W        W 9235   4.240  10.506   4.263  0.1867  0.2837 -0.0564
 5036W        W 9236   7.208   4.382   4.202  0.1872  0.0325 -0.5699
 5037W        W 9237   1.216   9.865   3.109  0.2110 -0.0969  0.0947
 5038W        W 9238   2.438   3.369   0.271  0.0501 -0.0203  0.3847
 5039W        W 9239   4.834   8.002   2.819 -0.2022  0.2316  0.0908
 5040W        W 9240   8.397   6.950   9.561 -0.0647 -0.1028  0.0476
 5041W        W 9241   5.807   4.544   2.846 -0.4110  0.1158  0.1452
 5042W        W 9242   5.780  10.181   3.019 -0.0475 -0.2483  0.2642
 5043W        W 9243   7.550   2.589   2.200 -0.0632 -0.0670 -0.3436
 5044W        W 9244   4.988   8.544   0.620 -0.0213 -0.0616  0.1954
 5045W        W 9245   4.072   5.394  12.667 -0.2865 -0.2487  0.2929
 5046W        W 9246   2.966   2.713   9.261  0.1327 -0.2803 -0.2150
 5047W        W 9247   7.591   7.070  11.597 -0.0765 -0.2025 -0.1549
 5048W        W 9248   3.731  10.006   8.797 -0.2696 -0.1138  0.2853
 5049W        W 9249  10.008   8.483   2.467 -0.1032  0.4872 -0.0509
 5050W        W 9250   8.451   1.639  12.108 -0.0125  0.2317 -0.0739
 5051W        W 9251   9.807   6.094   3.393 -0.0424 -0.2143 -0.2936
 5052W        W 9252   7.201   7.100   9.210  0.1518  0.1714 -0.2006
 5053W        W 9253   8.824   2.259  11.528 -0.0576 -0.1544 -0.0737
 5054W        W 9254   6.322   0.401  11.617  0.1655 -0.2800 -0.1062
 5055W        W 9255   3.067   6.556   1.495  0.2095  0.1061  0.1861
 5056W        W 9256   8.130   1.793  10.187 -0.0887 -0.0834  0.3749
 5057W        W 9257   8.287   4.395   2.851  0.0502 -0.3337 -0.1186
 5058W        W 9258   4.113   0.948  13.123  0.0301 -0.1990  0.1982
 5059W        W 9259  10.432   8.848   8.987  0.0621 -0.2094 -0.1635
 5060W        W 9260   6.074   3.531   1.576  0.0862 -0.0605 -0.0860
 5061W        W 9261   5.436   1.649   1.547  0.0787 -0.2084  0.0083
 5062W        W 9262   0.408   8.729   2.949 -0.1697 -0.4332  0.1220
 5063W        W 9263   2.870   9.527   5.055 -0.0130 -0.0932  0.1464
 5064W        W 9264   7.111   7.206   0.988  0.0417 -0.0642 -0.0288
 5065W        W 9265   9.585   3.647   5.103  0.0953 -0.2396  0.1532
 5066W        W 9266   1.702   2.753   2.993  0.0891  0.2097 -0.0215
 5067W        W 9267   6.492   0.260   0.230 -0.0534 -0.1200 -0.2264
 5068W        W 9268   6.108   7.003   3.429 -0.0619 -0.1246 -0.0595
 5069W        W 9269   8.979   0.555  10.199 -0.1425 -0.2812 -0.1292
 5070W        W 9270   4.238   4.694   1.914 -0.2449 -0.0735  0.0654
 5071W        W 9271   5.364   2.555  10.193 -0.1381 -0.1026  0.0334
 5072W        W 9272   6.962   9.628   8.591  0.0986  0.0388  0.2928
 5073W        W 9273   3.256   1.655   1.442  0.3970 -0.1466  0.3171
 5074W        W 9274   6.598   4.858  12.493 -0.0383  0.3726  0.2063
 5075W        W 9275   3.980   3.072   0.388 -0.0507  0.1905 -0.1273
 5076W        W 9276   2.321   4.195  11.804 -0.1148  0.0793 -0.0815
 5077W        W 9277   0.471   5.914   0.574 -0.2672  0.1444 -0.2269
 5078W        W 9278   3.778   5.402   1.542  0.3435 -0.0333 -0.6553
 5079W        W 9279   1.964   5.865  13.123 -0.2140  0.0190 -0.1019
 5080W        W 9280   3.958   8.732   2.352  0.1276  0.2123  0.4856
 5081W        W 9281   5.291   2.160   2.353  0.0516  0.2834 -0.1604
 5082W        W 9282   3.047   2.708   0.373  0.2344  0.1997  0.0952
 5083W        W 9283   0.700   5.681  12.335  0.0872 -0.0179  0.1202
 5084W        W 9284   7.303   1.872  12.253 -0.1019  0.2587 -0.0265
 5085W        W 9285   1.623  10.171  13.092  0.3937  0.3435 -0.1218
 5086W        W 9286   9.055   1.993   9.886  0.2658 -0.1797 -0.0179
 5087W        W 9287   7.066   0.998   8.854 -0.1802  0.1158  0.1413
 5088W        W 9288   8.777   6.397   3.491  0.0903 -0.1664  0.2400
 5089W        W 9289  10.500   1.914  12.554  0.1617 -0.1176  0.2576
 5090W        W 9290   4.469   8.736   8.857 -0.0846  0.0560 -0.3409
 5091W        W 9291   9.793   3.719   0.619 -0.0921 -0.1542  0.2057
 5092W        W 9292   4.041   2.312  10.078  0.0416  0.3920 -0.0974
 5093W        W 9293   2.271   6.493   3.759  0.0749  0.0486  0.3118
 5094W        W 9294   4.952   6.623   1.588  0.0817  0.0995  0.1892
 5095W        W 9295   5.335   8.848   2.573  0.1935 -0.2226 -0.0273
 5096W        W 9296   3.609   7.848  10.144  0.2763  0.2464 -0.4089
 5097W        W 9297   1.750   7.238  10.924  0.1435  0.0633 -0.2050
 5098W        W 9298   0.618  10.198   4.210  0.0673 -0.0150  0.0505
 5099W        W 9299   2.225   3.935   1.457  0.1614 -0.2937 -0.0800
 5100W        W 9300   1.037   6.802   2.215  0.0524  0.0608  0.0849
 5101W        W 9301   2.240   8.377   0.163 -0.1852  0.4687  0.0498
 5102W        W 9302  10.152   9.955  11.082  0.0773 -0.0576  0.1739
 5103W        W 9303   1.438   6.392  12.233  0.1298  0.0678 -0.0267
 5104W        W 9304   8.628   5.722  11.542 -0.0636  0.2963 -0.0450
 5105W        W 9305   1.694   9.511   4.985  0.0668  0.0324 -0.2332
 5106W        W 9306   0.780   1.532   9.104  0.1309 -0.0023  0.3911
 5107W        W 9307   9.648   2.504  10.367 -0.1450 -0.0160 -0.3890
 5108W        W 9308   4.506   3.413  12.107  0.0267 -0.2208 -0.1116
 5109W        W 9309   8.652   1.859   0.730 -0.0125  0.2468  0.0061
 5110W        W 9310   5.047   9.930   9.098  0.0872  0.0005  0.2065
 5111W        W 9311   9.253   0.481   0.518 -0.0592 -0.1638 -0.0745
 5112W        W 9312   9.580   9.274   1.400 -0.0683  0.5787  0.1485
 5113W        W 9313   3.503   0.177  10.037 -0.2254 -0.0428  0.0014
 5114W        W 9314   8.157   4.932   2.102  0.1935 -0.2356  0.0192
 5115W        W 9315   0.867   9.982   3.861 -0.2041  0.4959  0.1461
 5116W        W 9316   3.609   0.942   3.568  0.0501 -0.0479 -0.1359
 5117W        W 9317   7.687   4.021   3.300  0.2232  0.0265 -0.0754
 5118W        W 9318   4.705   9.986   2.749  0.0317 -0.2667  0.1397
 5119W        W 9319   4.181   7.982   4.288  0.2649  0.0702 -0.1666
 5120W        W 9320   6.154   7.984  11.171  0.2546  0.0583 -0.0664
 5121W        W 9321   0.742   4.178   0.943  0.0762  0.2909  0.3501
 5122W        W 9322   2.807   0.205   3.084 -0.0931  0.1667 -0.0157
 5123W        W 9323   5.287   7.968   3.196 -0.2633 -0.1293 -0.0716
 5124W        W 9324   6.236   4.407   2.135 -0.0741 -0.0850  0.0546
 5125W        W 9325   5.947   1.007  11.230  0.0251  0.2819 -0.1573
 5126W        W 9326   3.061   1.927  12.905  0.3111 -0.2216 -0.1628
 5127W        W 9327   4.117   3.094   9.638 -0.2354  0.0956  0.0440
 5128W        W 9328   7.875   3.137   0.025 -0.0518  0.1775 -0.3078
 5129W        W 9329   4.706   0.013  11.591  0.6623 -0.2169  0.0751
 5130W        W 9330   6.840   8.230   3.023 -0.3340  0.0840  0.0773
 5131W        W 9331   7.313   2.835  12.047  0.2295 -0.0180  0.0600
 5132W        W 9332   5.155   1.542   3.676 -0.0644 -0.2295  0.0160
 5133W        W 9333   4.785  10.014   2.177  0.1146  0.1961 -0.2119
 5134W        W 9334   5.171   8.961  12.959  0.0025  0.2547 -0.1397
 5135W        W 9335   6.456   2.122   0.500 -0.0244 -0.0588  0.0319
 5136W        W 9336   1.222   2.903  10.712 -0.2238  0.0907  0.0142
 5137W        W 9337   9.570   4.369  11.803 -0.0463  0.3366  0.1949
 5138W        W 9338   3.087   8.149   1.136 -0.2474  0.1839  0.1513
 5139W        W 9339   1.294   4.512   2.494 -0.3674  0.0420 -0.0937
 5140W        W 9340   6.205   3.979   1.779  0.0833 -0.2499  0.0326
 5141W        W 9341   7.322   4.199  10.254 -0.3638 -0.2916  0.0854
 5142W        W 9342   0.750   4.694  11.613  0.1931 -0.0406 -0.2215
 5143W        W 9343   4.486   8.508  13.189  0.1117 -0.1642  0.0834
 5144W        W 9344   8.925   1.428  12.677 -0.0487 -0.2085  0.0402
 5145W        W 9345   5.830   5.643   8.382 -0.3113 -0.2881 -0.1066
 5146W        W 9346   0.366   7.833   1.247  0.0210  0.2113 -0.1814
 5147W        W 9347   3.249   3.377   9.613  0.0618  0.0619 -0.0695
 5148W        W 9348   2.382   5.619   0.695 -0.0331  0.0275  0.3757
 5149W        W 9349   9.484   4.446   9.735 -0.0167  0.1468  0.0571
 5150W        W 9350   2.317   6.376   2.762 -0.0417 -0.2312 -0.0027
 5151W        W 9351   3.827   1.151  11.267 -0.0375  0.0885  0.0185
 5152W        W 9352   6.497   2.429   8.240  0.2389  0.1091  0.1548
 5153W        W 9353   2.612  10.013   5.218  0.1719  0.3967 -0.0946
 5154W        W 9354   8.617  10.102  12.896  0.0323  0.2360 -0.1206
 5155W        W 9355   5.989   9.051   9.901  0.1395  0.6209  0.0984
 5156W        W 9356   3.878   0.498   2.356  0.0834  0.0794  0.2621
 5157W        W 9357   3.341   2.011   9.209  0.1603 -0.0877 -0.1361
 5158W        W 9358   0.429   8.225   9.483  0.1624  0.3586 -0.4132
 5159W        W 9359   4.077   6.901  12.735 -0.1566  0.4221 -0.1374
 5160W        W 9360   5.644   5.927   2.041  0.1576  0.2779 -0.0159
 5161W        W 9361   5.131   6.710  11.416  0.1425  0.1234 -0.1574
 5162W        W 9362   2.453   0.791   0.938  0.2286  0.0252 -0.2293
 5163W        W 9363   7.158   9.155  12.019 -0.0650  0.0922  0.1672
 5164W        W 9364   7.454   0.523  11.091  0.1169 -0.1554  0.0889
 5165W        W 9365   8.378   2.362   0.823 -0.0805 -0.0398  0.1511
 5166W        W 9366   4.850   8.631   9.223 -0.1317 -0.2266 -0.0441
 5167W        W 9367   2.309   4.007   2.040 -0.2015  0.2312 -0.1376
 5168W        W 9368   9.913   6.549  10.484  0.0722 -0.2942  0.2019
 5169W        W 9369   3.535   9.703  12.396  0.5378 -0.4326  0.3240
 5170W        W 9370   9.742   2.588   9.869 -0.0975  0.0109 -0.1873
 5171W        W 9371   1.457   5.533  12.513  0.0230 -0.1292 -0.1667
 5172W        W 9372   2.113   9.981   8.484  0.0843  0.1107 -0.1514
 5173W        W 9373   6.610   7.445   1.058  0.2571  0.2825 -0.1128
 5174W        W 9374   9.167   1.251   0.917 -0.2583  0.2632  0.2400
 5175W        W 9375   1.999   8.700  13.229  0.1219  0.0169  0.1036
 5176W        W 9376   3.986   1.229  10.240 -0.1666 -0.0277  0.1761
 5177W        W 9377   3.832   0.025  12.228 -0.0684  0.2610  0.2943
 5178W        W 9378   3.583   9.527   2.998  0.3726  0.1450  0.1805
 5179W        W 9379   5.830   9.088  11.747 -0.3263 -0.3801 -0.0936
 5180W        W 9380   4.525   3.041  12.475  0.1514  0.1075 -0.1121
 5181W        W 9381   9.730   0.529   2.803  0.1859  0.2247  0.1824
 5182W        W 9382   3.091   4.086   0.014 -0.2012 -0.0532  0.0291
 5183W        W 9383   2.768   5.371   3.679  0.1616  0.3129  0.0012
 5184W        W 9384   9.081   0.667  11.636 -0.1651  0.2087 -0.1737
 5185W        W 9385   3.655   7.518   4.378 -0.0444  0.1530  0.4638
 5186W        W 9386   4.365   2.616   9.626 -0.0689  0.1144 -0.2252
 5187W        W 9387   5.748   6.707  12.487 -0.2074  0.1095 -0.0528
 5188W        W 9388   9.015   0.926   8.724  0.0973  0.1115 -0.1679
 5189W        W 9389   5.028   2.580   9.130 -0.1281 -0.2326  0.0268
 5190W        W 9390   7.142   3.223   3.550  0.1689 -0.0697 -0.0913
 5191W        W 9391   0.464  10.388   1.373 -0.1006 -0.2374 -0.1453
 5192W        W 9392   6.367   3.094  13.341 -0.0744  0.1025  0.1698
 5193W        W 9393   5.771   6.292   0.196  0.1667  0.1544  0.1245
 5194W        W 9394   3.034   7.245   9.239 -0.2655 -0.2909  0.2793
 5195W        W 9395   2.465   5.727   1.532  0.0056  0.2144 -0.4240
 5196W        W 9396   9.388   1.110  10.071  0.2341 -0.2999 -0.1602
 5197W        W 9397   4.178   9.009  10.988  0.2101 -0.0546 -0.1523
 5198W        W 9398   3.890   2.718   2.535 -0.2686 -0.0561  0.1847
 5199W        W 9399   0.810   6.968   0.560  0.0250  0.0250  0.2126
 5200W        W 9400   6.274   6.452  11.835 -0.0278 -0.0447 -0.2091
 5201W        W 9401   6.404   7.280   0.477  0.3237  0.2144  0.4960
 5202W        W 9402  10.280   7.916  11.951  0.0692  0.0829  0.0678
 5203W        W 9403   8.261   8.457   0.470 -0.0886 -0.2107 -0.1864
 5204W        W 9404   6.364   2.400   9.879 -0.1852  0.0748 -0.1216
 5205W        W 9405   2.997   2.551   4.799 -0.2475  0.2075  0.3072
 5206W        W 9406   8.363   8.378   1.667 -0.0238 -0.0179 -0.1268
 5207W        W 9407   6.726   5.623  13.051 -0.0534  0.4287 -0.0690
 5208W        W 9408   2.010   2.952   1.237 -0.3870 -0.4252 -0.0554
 5209W        W 9409   8.807   8.493   9.784 -0.0207  0.2459  0.0657
 5210W        W 9410   4.138   9.192   3.888  0.0405  0.0883 -0.0830
 5211W        W 9411   6.339   0.049   4.999  0.0691 -0.0342 -0.0344
 5212W        W 9412   6.153   8.796   5.017  0.0828  0.1676  0.1988
 5213W        W 9413   0.938   8.851  11.145  0.2473 -0.1033  0.1507
 5214W        W 9414   4.321   0.930   4.452 -0.3891  0.2061 -0.0003
 5215W        W 9415   7.240   5.319   9.290 -0.1304  0.1767 -0.4933
 5216W        W 9416   0.247   4.284  11.312 -0.1390 -0.0366  0.1279
 5217W        W 9417   2.437   3.102   9.827  0.0566  0.2929  0.3800
 5218W        W 9418   9.191   2.380   4.236 -0.0088 -0.0259 -0.0950
 5219W        W 9419   5.056   2.811  11.766  0.1579  0.1047  0.0060
 5220W        W 9420   6.697   4.732   8.567  0.1356 -0.1155 -0.3549
 5221W        W 9421   2.194  10.227   2.699 -0.1066  0.2001 -0.1423
 5222W        W 9422   4.992   3.714   0.180  0.4780  0.3657  0.3215
 5223W        W 9423  10.256   9.890  10.526 -0.2180 -0.1187  0.1769
 5224W        W 9424   0.982   2.735  11.115 -0.1301  0.2453 -0.0036
 5225W        W 9425   4.949   0.411   8.668 -0.1826 -0.0674 -0.3291
 5226W        W 9426   5.879   2.132   9.603  0.1914 -0.2370 -0.0686
 5227W        W 9427   7.386   4.161   1.944  0.0022  0.1571  0.4759
 5228W        W 9428   0.796   7.047  11.462 -0.2045  0.0908 -0.0343
 5229W        W 9429   2.856   1.926   9.806  0.0418 -0.2345 -0.2079
 5230W        W 9430   7.555   3.855   8.433 -0.0114  0.0858 -0.0675
 5231W        W 9431   4.101   6.960   2.689  0.2821 -0.1430 -0.0903
 5232W        W 9432   3.716   0.112   1.994 -0.1930  0.0092 -0.2341
 5233W        W 9433   8.175   7.920  10.452 -0.2228  0.4927  0.1934
 5234W        W 9434   4.858   1.603   2.367 -0.0417 -0.0243 -0.1516
 5235W        W 9435  10.521   1.924  10.292  0.0954  0.2305  0.0957
 5236W        W 9436   4.816   1.056   9.190 -0.0996 -0.0115  0.0083
 5237W        W 9437   7.102   4.304   5.026  0.0299 -0.3221 -0.0430
 5238W        W 9438   9.774   5.149   8.638  0.0834  0.0439 -0.1849
 5239W        W 9439   3.522   2.341   1.138  0.0519  0.1338 -0.1115
 5240W        W 9440   1.673  10.274  10.306 -0.1958 -0.1471  0.3055
 5241W        W 9441   6.720   2.591   0.640 -0.1119 -0.3535  0.0069
 5242W        W 9442   9.432   5.727   0.030  0.0637 -0.2881 -0.2803
 5243W        W 9443   8.049   7.371   3.558 -0.4287  0.4622 -0.1544
 5244W        W 9444   1.483   9.181  13.055  0.2044  0.2916 -0.0013
 5245W        W 9445   8.700   9.712   3.857  0.0454  0.0867  0.2093
 5246W        W 9446   2.062   5.722  12.650 -0.2186  0.0410  0.0582
 5247W        W 9447   1.454   3.078   1.506 -0.1122  0.1706  0.0920
 5248W        W 9448   1.574   9.575  11.680  0.2632 -0.1069 -0.1727
 5249W        W 9449   7.612   1.318  10.975 -0.1144 -0.0463  0.0836
 5250W        W 9450   4.702   5.018   2.561  0.1659 -0.0063 -0.0326
 5251W        W 9451   5.243   4.782   2.896 -0.2321 -0.0383 -0.3001
 5252W        W 9452   6.611   7.185   9.935 -0.1992 -0.1274  0.4418
 5253W        W 9453   1.925   0.284  10.594 -0.2502 -0.1774  0.4215
 5254W        W 9454   2.145   8.927   9.944 -0.1109 -0.1870  0.0112
 5255W        W 9455   4.853   4.454  12.552 -0.3648  0.1628  0.3380
 5256W        W 9456   0.682   0.349   9.412  0.0039  0.0195 -0.2453
 5257W        W 9457   6.357   6.696  11.141  0.1659 -0.0002  0.0220
 5258W        W 9458   6.326   9.289   2.589 -0.3923 -0.1493 -0.0101
 5259W        W 9459   6.516   7.253   2.116 -0.1367  0.2145  0.2483
 5260W        W 9460   3.421   9.544  10.040  0.3165 -0.2165 -0.0798
 5261W        W 9461   4.066   3.905   3.403  0.0112 -0.0492 -0.0697
 5262W        W 9462   0.742   8.363   3.090  0.0641  0.1393  0.1986
 5263W        W 9463   2.961   2.763   9.978 -0.4316  0.3152 -0.0228
 5264W        W 9464  10.095   8.459   9.223 -0.0629 -0.0067  0.3151
 5265W        W 9465   8.553   2.268   2.784  0.3057 -0.0214  0.0403
 5266W        W 9466   4.902   3.997   0.895  0.2006  0.1949  0.1660
 5267W        W 9467   8.982  10.169   2.398 -0.3245  0.1435 -0.1041
 5268W        W 9468   6.060   5.475   3.409 -0.0451 -0.0782  0.2783
 5269W        W 9469   6.426  10.033   1.256  0.2007 -0.4455 -0.0050
 5270W        W 9470   8.268   8.600   1.019 -0.1441  0.1864 -0.1017
 5271W        W 9471   9.283   2.586  11.732  0.0474  0.1196  0.1684
 5272W        W 9472   5.564   2.779   3.019 -0.1319  0.2346  0.1159
 5273W        W 9473  10.152   0.110  10.778 -0.0292  0.0437 -0.0816
 5274W        W 9474   1.578   0.547  11.772  0.0322 -0.0288  0.0314
 5275W        W 9475   3.616   8.951  11.712 -0.0446 -0.0889 -0.1411
 5276W        W 9476   9.175   1.699   1.497 -0.0302 -0.0818  0.0514
 5277W        W 9477   7.782   5.420   9.489  0.2510  0.2090 -0.2481
 5278W        W 9478   7.587   4.066   1.432 -0.2777  0.1501  0.1704
 5279W        W 9479   5.424   8.642   0.002 -0.2155 -0.0210  0.2449
 5280W        W 9480   6.430   1.065  12.849 -0.1396 -0.0080  0.2042
 5281W        W 9481   2.361   3.140   2.303  0.2153 -0.0915 -0.0819
 5282W        W 9482   8.227   2.639   3.168  0.1186  0.0942  0.0624
 5283W        W 9483   3.524   1.861   3.854  0.6036 -0.1578 -0.2495
 5284W        W 9484   8.995   4.157   0.945  0.1364 -0.1831 -0.2439
 5285W        W 9485   6.542   2.845   2.904 -0.0548 -0.2608  0.0466
 5286W        W 9486   6.364   7.027  11.822 -0.0186  0.0343 -0.2786
 5287W        W 9487   2.448   0.089   1.900 -0.3274  0.0112 -0.1207
 5288W        W 9488   6.275   7.531  11.382  0.0967 -0.2652 -0.1129
 5289W        W 9489   4.119   9.940  11.257  0.1586 -0.0847 -0.1732
 5290W        W 9490   7.492   3.995  12.851  0.1120  0.1241  0.1223
 5291W        W 9491   9.262   5.629   4.055  0.1228  0.2438 -0.0878
 5292W        W 9492   6.748   3.825  12.123 -0.0043  0.0795  0.0178
 5293W        W 9493   8.629   1.748  11.503  0.0011 -0.1785  0.0493
 5294W        W 9494  10.226   4.276   1.298  0.0222  0.0311  0.2880
 5295W        W 9495   6.668   8.180   0.737 -0.5052 -0.2783  0.1198
 5296W        W 9496   4.110   7.524   2.922  0.1696 -0.0727 -0.0456
 5297W        W 9497   9.756   3.991  11.507  0.0168 -0.0379  0.0071
 5298W        W 9498   1.514  10.201  12.589  0.0951  0.0449 -0.0629
 5299W        W 9499   7.241   0.579  11.992 -0.2354 -0.0067  0.1552
 5300W        W 9500   5.166   0.704   1.964 -0.0009  0.0162 -0.0815
 5301W        W 9501   6.728   2.742  10.929  0.0074  0.0784 -0.0970
 5302W        W 9502   9.694   0.225  12.531 -0.0682  0.2316 -0.1093
 5303W        W 9503   9.963   4.310  12.754  0.0662 -0.3515 -0.1970
 5304W        W 9504   5.611   0.052   9.533 -0.3037  0.1144  0.2239
 5305W        W 9505   0.620   4.935   9.992 -0.2192 -0.3510  0.2083
 5306W        W 9506   8.149   2.857   9.540  0.2248  0.2052 -0.0942
 5307W        W 9507   0.778   9.322   4.407 -0.6070 -0.0486 -0.1576
 5308W        W 9508   5.406   3.914   8.448  0.0940 -0.0357 -0.0216
 5309W        W 9509   9.257   7.234   0.963  0.0001 -0.1219  0.4082
 5310W        W 9510   5.913   0.806   1.410 -0.1127 -0.1276  0.0912
 5311W        W 9511   5.886   7.364   2.070 -0.4716 -0.0844 -0.0325
 5312W        W 9512   2.852   4.210   9.591 -0.1051 -0.4720  0.0705
 5313W        W 9513   2.853   8.075   3.354  0.0524 -0.0247  0.0956
 5314W        W 9514  10.466   7.605   1.662 -0.4390 -0.3112  0.1483
 5315W        W 9515   0.154   7.161   3.549 -0.1438  0.1042  0.1545
 5316W        W 9516   3.605   2.583  10.025  0.2044 -0.1482  0.0264
 5317W        W 9517   7.215   0.811  11.484  0.3809 -0.1777  0.0297
 5318W        W 9518   0.204  10.142  12.509 -0.1833 -0.1427 -0.0723
 5319W        W 9519   1.997   9.219   3.699  0.1046  0.0686 -0.0069
 5320W        W 9520   3.952   0.703   0.222 -0.3611  0.0226 -0.3870
 5321W        W 9521  10.039   2.720  12.251 -0.1851  0.0958  0.0113
 5322W        W 9522   6.346   5.751   1.513  0.0376 -0.0386 -0.0578
 5323W        W 9523   0.671   7.018  12.994  0.1185  0.1780  0.0536
 5324W        W 9524   6.761   3.360   0.771  0.1444  0.1855  0.2999
 5325W        W 9525   0.016   0.531  12.154  0.1159 -0.1089 -0.0213
 5326W        W 9526  10.344   4.430   4.093 -0.0061 -0.0287  0.1599
 5327W        W 9527   7.812   3.046   1.183  0.0565  0.0156  0.0972
 5328W        W 9528   6.077   8.917   4.247  0.0062 -0.1219  0.0537
 5329W        W 9529   3.391   9.091   1.620 -0.1485 -0.1267 -0.0319
 5330W        W 9530   0.999   9.694   0.548  0.5166 -0.0305  0.1226
 5331W        W 9531   5.314   9.841   2.292 -0.0962  0.1498  0.1385
 5332W        W 9532   1.788   8.326   2.128  0.0831  0.1900  0.0480
 5333W        W 9533   3.994   4.620  10.178  0.3377  0.0339  0.1070
 5334W        W 9534   2.293   5.628   2.008 -0.3139 -0.2983 -0.0994
 5335W        W 9535   1.095   7.451  11.999  0.0721  0.1017  0.1107
 5336W        W 9536   4.867   2.953  11.320  0.0946 -0.2896 -0.0873
 5337W        W 9537   4.800   7.366   2.221  0.2122  0.1904  0.0585
 5338W        W 9538   9.436   3.963   0.316  0.1711  0.0996 -0.2644
 5339W        W 9539   5.940   3.166   8.817  0.2564  0.3433 -0.0066
 5340W        W 9540   1.186   5.923   1.441 -0.2549  0.2813  0.1643
 5341W        W 9541   1.187   1.660   9.382  0.1889  0.3817  0.1906
 5342W        W 9542   3.244   0.397   2.921  0.0464  0.2472  0.0399
 5343W        W 9543   0.500   2.006  12.522  0.1137  0.1003  0.0513
 5344W        W 9544   8.185   7.902  11.864 -0.0408  0.0275 -0.2870
 5345W        W 9545  10.276   2.895   2.552  0.1611  0.0121  0.1464
 5346W        W 9546   4.316   2.914   2.684 -0.0897 -0.2258 -0.1937
 5347W        W 9547  10.526   9.907  11.459  0.1379  0.0161  0.5155
 5348W        W 9548   2.503   5.463  12.513  0.3551  0.1160  0.2417
 5349W        W 9549  10.521   6.784   2.731  0.1744  0.0897  0.4078
 5350W        W 9550   1.576   3.332  13.246  0.3044 -0.3094  0.3741
 5351W        W 9551  10.008   2.835  10.386  0.2446  0.1149  0.0759
 5352W        W 9552   8.499   8.727  12.156 -0.1386 -0.1496  0.2270
 5353W        W 9553   3.544   6.284   1.447  0.2414 -0.2184  0.0893
 5354W        W 9554   8.229   5.648   9.738  0.1184  0.1642  0.0679
 5355W        W 9555   5.209   0.224   1.053  0.2638 -0.1135  0.2320
 5356W        W 9556   8.009   0.894   3.720 -0.2065 -0.2649 -0.0728
 5357W        W 9557  10.287   8.458   8.684 -0.0789 -0.2086  0.1647
 5358W        W 9558  10.368   7.788  12.603 -0.1231  0.1897 -0.4729
 5359W        W 9559   3.861   2.186   3.366 -0.1524 -0.0629  0.0193
 5360W        W 9560   4.933   4.486   3.206  0.0922 -0.0378 -0.1532
 5361W        W 9561   7.409   0.312   8.421 -0.1641 -0.1055 -0.2046
 5362W        W 9562   6.190   1.606   0.472  0.1125  0.2278 -0.1709
 5363W        W 9563   4.361   2.630  12.721 -0.3442  0.1296 -0.1757
 5364W        W 9564   7.351   1.692   3.123 -0.1581 -0.0325 -0.3512
 5365W        W 9565   2.579  10.064   0.177 -0.0586  0.0423  0.1948
 5366W        W 9566   7.593   8.662  12.709 -0.0141 -0.1194 -0.2285
 5367W        W 9567   1.651   9.299  10.767  0.0168 -0.0354  0.2525
 5368W        W 9568   7.619   2.553  12.892  0.0351  0.1522  0.0469
 5369W        W 9569   4.198   0.554  12.864 -0.1838  0.0002 -0.2035
 5370W        W 9570   6.955   1.053   9.403 -0.4207 -0.0426  0.3026
 5371W        W 9571   1.890   2.011  10.257  0.1157  0.1424 -0.2594
 5372W        W 9572   3.728   3.958   1.316 -0.0461  0.0068 -0.1894
 5373W        W 9573   7.419   3.837   2.879  0.1946  0.2565 -0.1530
 5374W        W 9574   4.655   0.071  10.626 -0.2439  0.2781  0.1999
 5375W        W 9575  10.165   4.539   0.328  0.0785 -0.1912  0.0077
 5376W        W 9576   4.298   3.520   1.370 -0.3045 -0.2982  0.0011
 5377W        W 9577   9.372   1.225  12.951  0.1822 -0.3068 -0.3070
 5378W        W 9578   1.914   5.673   2.345 -0.2151  0.0464  0.2312
 5379W        W 9579   7.417   5.245   4.846  0.0651  0.1318 -0.0484
 5380W        W 9580   9.099   8.112   2.077 -0.4581 -0.0959 -0.1677
 5381W        W 9581   4.447   9.677   1.160  0.2129  0.1436 -0.0490
 5382W        W 9582   6.474   7.626   8.564  0.3541  0.1446 -0.0097
 5383W        W 9583   4.212   3.312   4.564  0.0635  0.3458  0.0252
 5384W        W 9584   3.671   6.184  10.649 -0.1548 -0.0481 -0.3593
 5385W        W 9585   5.660   2.415   0.945 -0.0528 -0.0185  0.0471
 5386W        W 9586   0.675  10.326  10.444  0.1575 -0.0828 -0.2241
 5387W        W 9587   3.980   8.228  12.525  0.4516  0.0154 -0.0773
 5388W        W 9588   5.282   8.223   1.324  0.0155  0.1464 -0.2464
 5389W        W 9589   7.781   8.823  10.500 -0.0859 -0.0821  0.0649
 5390W        W 9590   2.437   2.531   2.497  0.2725  0.2108  0.1254
 5391W        W 9591  10.390   9.682  12.028 -0.1151 -0.2397  0.1781
 5392W        W 9592   7.198   6.494   2.545 -0.0494 -0.4288  0.1548
 5393W        W 9593   9.547   3.426  12.317 -0.3339 -0.0448  0.3252
 5394W        W 9594   5.540   2.163  11.348 -0.0765  0.0802 -0.2360
 5395W        W 9595   3.213   8.328   2.693 -0.0823 -0.1208 -0.0895
 5396W        W 9596   9.403   0.592   0.070 -0.1152  0.0850  0.1753
 5397W        W 9597   1.689   1.704   3.043  0.1672 -0.2134 -0.1787
 5398W        W 9598   8.896   9.116   3.937  0.3734  0.0642  0.1669
 5399W        W 9599   8.858   7.914   3.768 -0.1713 -0.0708  0.0807
 5400W        W 9600   5.556   3.417   4.362  0.0587  0.3426 -0.1712
 5401W        W 9601   4.143   0.884   3.361 -0.2194 -0.0616  0.1478
 5402W        W 9602   6.788   2.295  11.146  0.3921 -0.1167 -0.5055
 5403W        W 9603   3.622   7.072  12.903 -0.0774  0.1087  0.2824
 5404W        W 9604   1.719   9.125  11.811  0.2139  0.1557 -0.0464
 5405W        W 9605   0.727   2.533   3.751 -0.1375  0.0259  0.4431
 5406W        W 9606   8.581   7.926   1.347  0.3336  0.0558 -0.2572
 5407W        W 9607   1.434   2.414  10.420 -0.0538  0.0820  0.5325
 5408W        W 9608   7.243   2.842   9.282  0.0266  0.2051 -0.1899
 5409W        W 9609   9.683   6.783  11.731  0.1622  0.0994 -0.1177
 5410W        W 9610   0.529   7.455   2.069 -0.2711  0.0153 -0.1344
 5411W        W 9611   8.957   0.976   5.250 -0.1990 -0.2364  0.1249
 5412W        W 9612   8.277   1.986   2.100 -0.2881 -0.5088  0.1812
 5413W        W 9613   8.474   7.016   3.409  0.1514 -0.3296  0.0862
 5414W        W 9614   6.787   5.653   4.355 -0.2918  0.1799 -0.1845
 5415W        W 9615   6.337   3.590  10.642  0.2891 -0.1069 -0.3510
 5416W        W 9616   4.942   2.414   4.916  0.1490 -0.1868  0.2481
 5417W        W 9617   5.820  10.469   1.856  0.0040  0.0793 -0.0132
 5418W        W 9618   4.592   2.129   1.188  0.1630  0.2365 -0.1091
 5419W        W 9619   9.854  10.443   1.114  0.1147  0.1444  0.4016
 5420W        W 9620   9.825   3.614   3.067 -0.4201  0.0753  0.0315
 5421W        W 9621   4.314   6.501   4.813  0.4563  0.1399  0.0548
 5422W        W 9622   1.415   3.173   3.428 -0.0124  0.2963 -0.0761
 5423W        W 9623   9.052   6.743  10.450  0.0115 -0.0671 -0.2247
 5424W        W 9624   2.941   4.539  12.856  0.0028 -0.1216  0.2912
 5425W        W 9625   6.323   1.726   3.408 -0.0781 -0.1419 -0.1779
 5426W        W 9626   1.345   4.432   1.510 -0.1898  0.2241  0.0184
 5427W        W 9627   0.032   9.066   3.092 -0.1177 -0.0536  0.0338
 5428W        W 9628   2.950   8.817   2.818 -0.0443 -0.0706 -0.1650
 5429W        W 9629   3.785   0.216   5.439 -0.0685 -0.4570 -0.1953
 5430W        W 9630   8.429   1.428  12.578  0.2943 -0.0298 -0.1441
 5431W        W 9631   7.160   7.847   4.357 -0.6899  0.1692 -0.4714
 5432W        W 9632   9.382   5.080  10.488 -0.1630  0.1496 -0.3211
 5433W        W 9633   5.842   8.897   0.087 -0.1271 -0.2255 -0.0882
 5434W        W 9634   8.259   6.477   1.831 -0.4500 -0.2632 -0.0089
 5435W        W 9635   5.850   9.242   9.475  0.0283 -0.0895  0.0378
 5436W        W 9636   9.739   5.237   1.330  0.0160  0.0600 -0.4340
 5437W        W 9637   8.507   9.107   2.207 -0.1575 -0.2098 -0.0229
 5438W        W 9638   8.788   8.937   1.192 -0.1156  0.1586 -0.0658
 5439W        W 9639  10.024   1.008  12.161  0.2390  0.0211  0.0188
 5440W        W 9640   5.399   9.663   9.584 -0.0269  0.2474 -0.1565
 5441W        W 9641   0.204   8.150  11.884  0.2124  0.1006  0.0954
 5442W        W 9642   3.474   0.214   0.195 -0.0205  0.3307  0.1063
 5443W        W 9643   3.213   2.643   0.854 -0.3409  0.2415 -0.0713
 5444W        W 9644   6.404   5.610   3.972  0.0018  0.1552 -0.2943
 5445W        W 9645   7.352   4.804  10.213  0.0776 -0.5041  0.1254
 5446W        W 9646   9.651   1.270  10.519  0.0105  0.0848  0.2373
 5447W        W 9647   8.232   6.551  10.043  0.5551  0.2492  0.0150
 5448W        W 9648   2.828   2.282   2.200 -0.2446 -0.2363 -0.0650
 5449W        W 9649   6.265   1.135   8.722  0.1109 -0.2834 -0.2519
 5450W        W 9650   6.217   1.630   8.853 -0.2173  0.1418  0.2484
 5451W        W 9651   2.607   9.888   0.685 -0.1517  0.2901  0.0487
 5452W        W 9652   3.976   7.733  12.424  0.0810  0.0225  0.2774
 5453W        W 9653   3.976   6.384   1.793 -0.0247  0.1665 -0.0621
 5454W        W 9654   2.629   4.576  11.004  0.0112 -0.2249 -0.2720
 5455W        W 9655   0.999   8.369   9.797 -0.0946 -0.2554 -0.2734
 5456W        W 9656   5.644   3.932   3.415 -0.5095  0.6331 -0.0935
 5457W        W 9657   3.072  10.260   3.416 -0.1344 -0.0676  0.0334
 5458W        W 9658   0.428   2.010  10.428 -0.0368  0.0190 -0.0933
 5459W        W 9659   6.715   3.521   2.403 -0.2444  0.0686 -0.1984
 5460W        W 9660   7.987   1.330  12.773  0.0629  0.1937 -0.1639
 5461W        W 9661   3.828   7.881  12.850 -0.1087 -0.1254  0.0855
 5462W        W 9662   2.539   3.575   2.400 -0.0325  0.2174  0.3810
 5463W        W 9663   6.792   0.087   2.210 -0.3709  0.1828 -0.2243
 5464W        W 9664   0.409   8.258   0.981  0.0337 -0.2947  0.0023
 5465W        W 9665   1.183  10.254   3.449 -0.2038 -0.0742 -0.0554
 5466W        W 9666   7.278  10.107   8.545 -0.1473  0.0101  0.3877
 5467W        W 9667   3.658  10.135  12.013  0.1764 -0.1140 -0.4649
 5468W        W 9668   3.835   7.155   4.020  0.1501 -0.3704  0.0655
 5469W        W 9669   0.536   7.063   3.920  0.0040 -0.2074 -0.1657
 5470W        W 9670  10.236   8.030   8.910 -0.0379  0.0963 -0.0966
 5471W        W 9671  10.023   8.249   1.365  0.0493 -0.0009 -0.0346
 5472W        W 9672   3.048   8.637   9.027 -0.1031 -0.1305 -0.1324
 5473W        W 9673  10.471   3.677  10.474  0.1060  0.1100 -0.1324
 5474W        W 9674  10.430  10.467   4.007 -0.1061  0.4551 -0.0840
 5475W        W 9675   2.478   4.377  10.581  0.1422 -0.0452 -0.1542
 5476W        W 9676   1.719   8.300   0.197  0.1746 -0.1297 -0.1703
 5477W        W 9677   4.411   6.863  12.386 -0.1706 -0.3262 -0.0387
 5478W        W 9678   6.327   1.884   1.870  0.0105  0.2816 -0.0850
 5479W        W 9679   2.004   7.617   9.097  0.0297 -0.0622  0.0420
 5480W        W 9680   0.368   4.051  12.947 -0.1471  0.1893 -0.0524
 5481W        W 9681   7.450   5.442  11.750  0.1952  0.1334 -0.1127
 5482W        W 9682   7.640  10.311   2.423  0.1548  0.1328  0.0628
 5483W        W 9683   7.955   0.011   0.171 -0.2026  0.0490 -0.2237
 5484W        W 9684   0.079   1.565   3.829  0.5800 -0.0701  0.1678
 5485W        W 9685   3.844   5.003   4.182  0.0394 -0.2836 -0.0447
 5486W        W 9686   4.178   1.850   4.468 -0.4599  0.0798  0.0490
 5487W        W 9687   7.409   2.048  11.036  0.1997  0.1749 -0.2339
 5488W        W 9688   2.907   4.696   9.718  0.0172  0.1647  0.2076
 5489W        W 9689   7.898   4.776  10.419 -0.4136  0.0911  0.0835
 5490W        W 9690   0.041   1.308   1.813 -0.0139  0.0611 -0.0048
 5491W        W 9691   5.360   6.490   9.689 -0.1799  0.1385 -0.1307
 5492W        W 9692  10.298   2.047   2.000  0.1321 -0.2881  0.0889
 5493W        W 9693   2.486   5.183  11.647  0.0394  0.0852  0.1702
 5494W        W 9694   9.197   4.408   0.057 -0.3315  0.1401 -0.3743
 5495W        W 9695   0.935   4.595  10.344  0.1788  0.0308 -0.1441
 5496W        W 9696   5.236   7.513   3.083  0.1558 -0.2424 -0.0274
 5497W        W 9697   8.239   8.810   3.538 -0.0921  0.0163 -0.3549
 5498W        W 9698   7.510   3.621   2.014 -0.2583 -0.3382  0.1132
 5499W        W 9699   5.302   4.592   0.644 -0.0167  0.2625 -0.2469
 5500W        W 9700   6.071  10.448   1.237  0.2552 -0.0456 -0.1870
 5501W        W 9701   2.463   1.161   1.927 -0.2163 -0.0825  0.0837
 5502W        W 9702   2.409   7.873  13.191 -0.1649  0.0438 -0.1958
 5503W        W 9703   3.139   4.516  11.197 -0.0864  0.4133  0.1397
 5504W        W 9704   6.122   3.138   5.058 -0.3784 -0.0122  0.0571
 5505W        W 9705   4.883   4.136   9.017  0.2724 -0.1531 -0.0665
 5506W        W 9706   7.277   6.437   3.105  0.1134  0.1804 -0.2564
 5507W        W 9707   9.278  10.027   0.655 -0.3686  0.0752 -0.0105
 5508W        W 9708   9.183   1.847   0.939  0.0458 -0.0895  0.1603
 5509W        W 9709   0.887   0.124   3.268 -0.1888 -0.1119  0.1076
 5510W        W 9710   6.476   3.580   3.138 -0.0563  0.0080 -0.2676
 5511W        W 9711   7.407   5.797  11.418 -0.0254 -0.3241 -0.0690
 5512W        W 9712   7.290   3.707   3.387  0.1769  0.2322  0.0758
 5513W        W 9713   7.736   4.764   2.916  0.3029 -0.1016 -0.3782
 5514W        W 9714   7.210   7.063  12.379 -0.0940 -0.2220  0.2298
 5515W        W 9715  10.489   3.073  12.425  0.0643  0.0596  0.2016
 5516W        W 9716   7.956   1.192   3.270  0.3990  0.0792  0.1001
 5517W        W 9717   4.284   4.800   4.470  0.1034 -0.0639  0.0382
 5518W        W 9718   1.733   3.732  12.649  0.1577  0.0960 -0.1020
 5519W        W 9719   9.377   7.951   3.516  0.2525  0.2817 -0.1606
 5520W        W 9720   5.768   8.309  10.942 -0.2247  0.0811 -0.0868
 5521W        W 9721   0.785   5.037   1.229 -0.1084 -0.1274  0.3524
 5522W        W 9722   6.865   1.924   1.817 -0.0533  0.1968 -0.2492
 5523W        W 9723   3.048   0.238   1.295  0.0324 -0.0495  0.1047
 5524W        W 9724   4.600   3.199   4.936  0.0395 -0.0106 -0.1033
 5525W        W 9725   5.710   0.274   3.503 -0.0163  0.1758 -0.4127
 5526W        W 9726   5.598   4.765   2.003  0.3745  0.1507 -0.0376
 5527W        W 9727   3.981   2.173   3.809  0.0615  0.1480 -0.0918
 5528W        W 9728   4.450   0.260  11.073  0.3075 -0.1927  0.0136
 5529W        W 9729   9.487   3.064   2.618 -0.2796  0.0099  0.2658
 5530W        W 9730  10.122   4.416   3.586 -0.2721  0.4749 -0.0323
 5531W        W 9731   4.139   2.640   3.688  0.1625 -0.0655  0.1327
 5532W        W 9732   3.447   8.208   3.673  0.1053 -0.0810 -0.0324
 5533W        W 9733   5.701   3.793   4.080  0.0449  0.3295 -0.1319
 5534W        W 9734  10.306   5.550  12.086 -0.0548  0.1120  0.0274
 5535W        W 9735   3.142   2.239   1.517 -0.1704  0.1761  0.0309
 5536W        W 9736   5.396   0.179   8.621 -0.0995  0.1533  0.1271
 5537W        W 9737   3.159   1.697  11.499 -0.1150 -0.1717 -0.1794
 5538W        W 9738  10.364   6.758   3.671  0.2361  0.0966 -0.2292
 5539W        W 9739   7.126   6.620  12.094  0.0564 -0.0227  0.0773
 5540W        W 9740   1.222   0.963   2.113 -0.1229  0.1956  0.0958
 5541W        W 9741   9.451   2.064  12.826  0.1206  0.0155  0.0066
 5542W        W 9742   8.174   6.914   3.823 -0.1488  0.1501  0.0510
 5543W        W 9743  10.058   1.278   1.864 -0.1246 -0.0033  0.0023
 5544W        W 9744   8.367   6.709  10.598 -0.1228 -0.0149  0.0708
 5545W        W 9745   4.175   9.506  10.961  0.1860  0.1965  0.0686
 5546W        W 9746   3.913   8.579   1.796 -0.0688 -0.1574  0.0925
 5547W        W 9747   7.950   2.419   3.628 -0.5396  0.0781  0.0778
 5548W        W 9748   5.939   0.429   1.945  0.3491  0.3127 -0.0852
 5549W        W 9749   0.203   7.480  11.785  0.0203  0.1360  0.3996
 5550W        W 9750   2.729   8.446  11.890 -0.0641  0.0773 -0.1694
 5551W        W 9751   2.931   0.345   1.767  0.0915  0.0173  0.2011
 5552W        W 9752   2.726   8.513   2.279 -0.2428  0.0034  0.1713
 5553W        W 9753   9.119   4.245   8.424 -0.1521  0.2578  0.4593
 5554W        W 9754   3.477   2.975   4.880  0.0457  0.1918 -0.2476
 5555W        W 9755   0.722   7.659   3.901 -0.1452 -0.2698  0.1568
 5556W        W 9756   1.070   2.099  11.280  0.0846 -0.3102 -0.0341
 5557W        W 9757   0.045   8.716  10.818 -0.0074 -0.1227  0.0538
 5558W        W 9758   2.905   7.948   2.887 -0.1635  0.0265 -0.1776
 5559W        W 9759   3.614   3.129   9.338  0.0675 -0.0704  0.4164
 5560W        W 9760   7.585   2.354   1.701  0.2139 -0.0427  0.3951
 5561W        W 9761   3.513   1.279  10.868  0.0636  0.1878 -0.0497
 5562W        W 9762   0.554   7.252   1.105  0.1466  0.0297 -0.0300
 5563W        W 9763   4.333   6.800   4.192  0.1061  0.0331 -0.1829
 5564W        W 9764   8.476   2.035   9.872 -0.2248  0.0375  0.1848
 5565W        W 9765   4.700  10.019  10.061  0.1474 -0.1780 -0.1974
 5566W        W 9766   4.638   4.069  11.844 -0.0000  0.1115  0.2449
 5567W        W 9767   5.639   8.766   4.260  0.0316 -0.1662 -0.0116
 5568W        W 9768   2.258   9.417   1.166  0.1334 -0.0876 -0.0919
 5569W        W 9769   5.143  10.378   9.353 -0.1182 -0.2299 -0.0927
 5570W        W 9770   5.576   0.837   3.580  0.1327 -0.2954 -0.0116
 5571W        W 9771   3.066   4.567  12.324 -0.0351  0.0259 -0.1009
 5572W        W 9772   9.501   1.534   1.193 -0.2344  0.0601 -0.2102
 5573W        W 9773  10.330   9.131   2.153 -0.0576 -0.1819 -0.0067
 5574W        W 9774   8.457   6.926  11.523 -0.2227  0.1211 -0.0284
 5575W        W 9775  10.321   0.781   4.084  0.0867  0.0399  0.0462
 5576W        W 9776   8.717   1.474   9.467 -0.0192  0.1277 -0.1799
 5577W        W 9777   9.466  10.117   0.098 -0.1322 -0.0078 -0.2662
 5578W        W 9778   7.005   7.549   1.335  0.1951  0.1099 -0.0440
 5579W        W 9779   0.356   2.564  10.923  0.3387 -0.5837  0.1806
 5580W        W 9780   7.595   2.066   2.118 -0.5800 -0.1162 -0.2245
 5581W        W 9781   5.766   1.018   4.000  0.0968  0.2496 -0.2217
 5582W        W 9782   0.718  10.190   3.398  0.1932 -0.3781  0.1197
 5583W        W 9783   6.559   7.321   8.979 -0.1524 -0.0062 -0.0693
 5584W        W 9784   2.385   8.637  10.268  0.1154 -0.0003  0.0729
 5585W        W 9785   0.968   5.383  12.661  0.0299 -0.1398  0.2638
 5586W        W 9786   2.646  10.275  10.420  0.0329 -0.1447 -0.1428
 5587W        W 9787   9.766   5.370   2.787 -0.2460  0.1125 -0.0775
 5588W        W 9788   6.641   6.434  12.171 -0.0991  0.1532 -0.1932
 5589W        W 9789   8.647   8.797  11.595  0.2063 -0.0473  0.1638
 5590W        W 9790   0.886   3.950   0.395  0.0151 -0.0910 -0.1425
 5591W        W 9791   1.784   4.127  12.356  0.1594 -0.0361  0.0938
 5592W        W 9792   4.982   1.222  10.003 -0.2231  0.1136  0.2220
 5593W        W 9793   4.090   0.771   2.749 -0.0014  0.0895  0.0616
 5594W        W 9794   5.810   3.426   2.034  0.2160 -0.3128  0.0565
 5595W        W 9795   3.225   8.348   4.104  0.5145  0.1660  0.0226
 5596W        W 9796   0.902   6.690   3.752 -0.1640 -0.0875 -0.0198
 5597W        W 9797  10.453   3.841   0.783 -0.1553  0.0723 -0.0301
 5598W        W 9798   5.185   8.087   1.808  0.1916  0.2932  0.2502
 5599W        W 9799   0.943   3.810   4.056 -0.0604 -0.1380 -0.1768
 5600W        W 9800   0.433   4.172   3.310 -0.4147 -0.1742 -0.1198
 5601W        W 9801   7.479   1.003  11.831 -0.1080 -0.1862  0.3324
 5602W        W 9802   4.464   9.036  11.702 -0.1327  0.0556 -0.4271
 5603W        W 9803   7.309   6.323   3.577  0.0206 -0.0920 -0.1195
 5604W        W 9804   9.375   3.485   0.740  0.2007 -0.3353  0.2274
 5605W        W 9805   9.641   2.354   4.503  0.0858 -0.0231  0.2724
 5606W        W 9806   0.351   2.865   3.110 -0.0081  0.3344  0.0207
 5607W        W 9807   2.462   8.972   0.960 -0.0430 -0.2105  0.0148
 5608W        W 9808   4.305   3.280  10.480  0.3992  0.1150 -0.4172
 5609W        W 9809   8.416   8.966   0.309  0.1885 -0.0399  0.2117
 5610W        W 9810   6.471   4.170   4.420  0.0542 -0.0284 -0.3104
 5611W        W 9811   3.158   6.242   1.891  0.2719  0.2423 -0.1766
 5612W        W 9812   7.777   8.189  11.743  0.0760 -0.2474 -0.1105
 5613W        W 9813  10.196  10.436  11.229 -0.0093 -0.0144  0.1934
 5614W        W 9814   6.131  10.515  13.174  0.3502  0.1231  0.1339
 5615W        W 9815   7.648   1.210   8.860 -0.1218  0.0328  0.3055
 5616W        W 9816   7.711   9.362   9.188  0.0308 -0.3706 -0.3130
 5617W        W 9817   1.266   2.473   1.364  0.1124  0.2267 -0.6001
 5618W        W 9818   1.259   4.205   2.090 -0.0454  0.1353  0.2738
 5619W        W 9819   9.787  10.073   3.728  0.2269  0.0593 -0.0255
 5620W        W 9820   5.423   6.185  10.892  0.3372 -0.0876  0.3241
 5621W        W 9821   2.853   5.094   0.269  0.0936 -0.4346  0.3490
 5622W        W 9822   5.606   9.695   2.732 -0.0540  0.1408  0.3633
 5623W        W 9823   2.298  10.170   1.760 -0.1575  0.3015 -0.0658
 5624W        W 9824   0.972   5.092   3.082  0.2879 -0.0787  0.0234
 5625W        W 9825   5.373   2.327  11.781  0.0828 -0.0618 -0.0110
 5626W        W 9826   9.924   3.093   3.979 -0.0124  0.0518 -0.1215
 5627W        W 9827   1.936   1.917   9.476 -0.1658  0.0902  0.2762
 5628W        W 9828   0.137   7.371  12.969  0.1680 -0.1882 -0.0235
 5629W        W 9829   7.606   8.081   4.224  0.0299  0.0784  0.1100
 5630W        W 9830   9.592   8.495  12.625 -0.1144  0.2112 -0.3478
 5631W        W 9831   5.029   3.831   1.765 -0.0939 -0.1268 -0.1375
 5632W        W 9832   5.032   6.719   0.704 -0.0563  0.3040  0.0702
 5633W        W 9833   2.398   0.869   3.168 -0.0226 -0.3219  0.1016
 5634W        W 9834   4.078   4.683   3.761 -0.1669 -0.2501 -0.2038
 5635W        W 9835   9.060   3.765  10.297 -0.0638 -0.1756 -0.2035
 5636W        W 9836   3.785   0.725  11.541  0.3362 -0.1974  0.0926
 5637W        W 9837   7.444   8.580   3.697 -0.1110 -0.0155  0.3576
 5638W        W 9838   1.112   6.757   3.213  0.1483  0.1622 -0.0957
 5639W        W 9839   5.435   9.425   8.169 -0.2559 -0.3452 -0.0256
 5640W        W 9840   5.669   1.504   4.150 -0.0816  0.3848 -0.1334
 5641W        W 9841   1.211   9.561  12.095  0.1346  0.0746  0.1664
 5642W        W 9842   4.678   5.219   0.485  0.6609  0.1259 -0.1441
 5643W        W 9843   6.053   5.347   1.335  0.1894 -0.2644 -0.1301
 5644W        W 9844   2.654   8.163   0.865  0.0713 -0.1946  0.2790
 5645W        W 9845   4.083   9.187  12.028 -0.0493 -0.0208  0.1498
 5646W        W 9846   8.565   2.415  10.838  0.2770 -0.1695 -0.3579
 5647W        W 9847  10.338   0.380   3.837  0.0714 -0.1025  0.0204
 5648W        W 9848   5.015   1.301  11.404  0.0770 -0.0448  0.0692
 5649W        W 9849   9.101   8.751   8.814 -0.0064 -0.3348  0.0938
 5650W        W 9850   1.126   1.605   1.085 -0.0547  0.1214  0.2266
 5651W        W 9851   9.891   1.524   0.438 -0.0547 -0.5469  0.2755
 5652W        W 9852   4.564   1.540   1.366 -0.2610  0.0458  0.1164
 5653W        W 9853  10.513   5.708   2.385  0.0193 -0.1762 -0.1340
 5654W        W 9854   8.800   8.606   7.981 -0.0186 -0.0148 -0.3358
 5655W        W 9855   6.841   6.948  10.872  0.2320 -0.2218  0.0745
 5656W        W 9856   7.279   4.144  13.304  0.2276  0.0335  0.1017
 5657W        W 9857   8.906  10.148   3.489 -0.1686  0.3307  0.0766
 5658W        W 9858   2.261   2.562   0.975  0.1915  0.3090 -0.0504
 5659W        W 9859   2.064   6.948   2.828 -0.2886 -0.0498  0.0885
 5660W        W 9860   5.844   6.684   9.388 -0.0098  0.2677  0.1591
 5661W        W 9861   5.695   6.882   0.781 -0.1528  0.1156 -0.2069
 5662W        W 9862   8.182   9.959  13.068  0.2145  0.3436 -0.1399
 5663W        W 9863   1.979   3.750   4.114 -0.2491  0.3309 -0.2083
 5664W        W 9864   3.194   7.537  12.231  0.1855 -0.2288 -0.0609
 5665W        W 9865   0.093   8.277  11.280 -0.0839 -0.0090 -0.2262
 5666W        W 9866   7.862   4.726   3.772 -0.1307 -0.0682 -0.1971
 5667W        W 9867   8.006   2.643   0.944  0.0263  0.2439  0.3912
 5668W        W 9868   1.628   1.036  11.630 -0.0033 -0.0259 -0.0549
 5669W        W 9869   9.919   6.696   2.381  0.1710  0.4466 -0.3838
 5670W        W 9870   3.303   2.475  10.428  0.1353 -0.3950  0.1234
 5671W        W 9871   8.286   0.997  12.934  0.0879  0.0237  0.0837
 5672W        W 9872   4.866  10.128  10.551  0.3113  0.1162  0.0748
 5673W        W 9873   2.451   2.424  13.124  0.0110 -0.1094  0.2491
 5674W        W 9874  10.242   1.293   9.683  0.0359 -0.0402  0.1782
 5675W        W 9875   9.082   8.038  11.388  0.0834 -0.0554 -0.1313
 5676W        W 9876   3.642   7.041   2.274  0.0422  0.1081 -0.0366
 5677W        W 9877   0.335   1.337   2.207 -0.2262 -0.2812  0.3413
 5678W        W 9878   3.891   1.180  12.751 -0.0766  0.0779 -0.2804
 5679W        W 9879   7.608  10.453   9.543 -0.1401  0.3026 -0.0590
 5680W        W 9880  10.379   9.513   8.390  0.0423 -0.1613 -0.3000
 5681W        W 9881   5.162   7.089   1.506 -0.1669 -0.1569  0.0722
 5682W        W 9882   7.877   3.591   1.366  0.0575  0.2417 -0.4831
 5683W        W 9883   7.837   0.356   9.824 -0.3123 -0.2098 -0.1026
 5684W        W 9884   7.721   8.184   2.307  0.4700 -0.1525  0.1012
 5685W        W 9885   5.243   6.285  12.283  0.0802  0.0819 -0.2834
 5686W        W 9886   4.224  10.455   9.841  0.0267  0.4011  0.0926
 5687W        W 9887   9.954   3.841  10.232  0.0016  0.2508 -0.1135
 5688W        W 9888   6.136   6.851  10.617 -0.0399  0.0284 -0.0117
 5689W        W 9889   6.603   7.713  12.594  0.2294 -0.0616  0.0923
 5690W        W 9890   4.426   6.502  11.052 -0.0309 -0.2737 -0.2199
 5691W        W 9891   5.644   4.070   2.560 -0.2959  0.1046  0.0154
 5692W        W 9892   4.977   7.439  10.111  0.1575  0.3282 -0.2606
 5693W        W 9893   8.609   9.848   0.013 -0.0628 -0.1151  0.0529
 5694W        W 9894   9.281   6.421   2.554 -0.1928 -0.0554  0.1656
 5695W        W 9895   5.447   7.262   9.959  0.2048 -0.0546  0.1646
 5696W        W 9896   3.548   4.846  11.750  0.2478 -0.1568  0.1058
 5697W        W 9897   7.427   2.870  12.566 -0.1461  0.0530 -0.1681
 5698W        W 9898   6.757   5.852   0.297  0.0383  0.1350  0.0565
 5699W        W 9899   6.858   3.865   0.184  0.0599  0.0071  0.3417
 5700W        W 9900   8.529   2.203  13.219 -0.3912 -0.1326 -0.0165
 5701W        W 9901   7.719   3.883  10.224  0.0048 -0.5255 -0.0140
 5702W        W 9902   3.014   3.274   2.174 -0.2127 -0.0897  0.1477
 5703W        W 9903   9.682   9.185   0.860 -0.0258  0.0396 -0.0207
 5704W        W 9904   4.514   7.852   0.967  0.1943  0.1391 -0.0136
 5705W        W 9905  10.342   3.256   4.618 -0.1138  0.2075  0.0433
 5706W        W 9906   6.089   1.454   9.473  0.3145 -0.3306 -0.0006
 5707W        W 9907   9.482   3.133  11.028 -0.1157  0.1459 -0.2090
 5708W        W 9908   9.672   9.881  10.189  0.0581 -0.0781 -0.1995
 5709W        W 9909   4.440   0.049  13.023 -0.0862 -0.1411  0.1408
 5710W        W 9910  10.109   5.896  11.339  0.1750 -0.0954  0.0332
 5711W        W 9911   7.432   2.752   0.020 -0.0871  0.0838  0.1283
 5712W        W 9912   5.979   3.993   3.059 -0.1258  0.2423 -0.1141
 5713W        W 9913   0.407   3.412   2.892  0.3760  0.1911  0.0747
 5714W        W 9914   9.143   5.393  12.981 -0.0685 -0.2019 -0.1414
 5715W        W 9915   6.231   7.162   1.300 -0.2233  0.2868  0.1219
 5716W        W 9916   0.357   4.882   1.421 -0.2345 -0.3564  0.0235
 5717W        W 9917   0.047   0.784   1.942 -0.0239 -0.0097 -0.0865
 5718W        W 9918   2.115   1.431   9.600 -0.3065  0.0124  0.2949
 5719W        W 9919   3.927   2.007  10.481  0.1372  0.1090 -0.0066
 5720W        W 9920   6.308   4.414  12.562  0.0844  0.0374 -0.3977
 5721W        W 9921   1.764  10.220   0.275 -0.1298  0.0933  0.1852
 5722W        W 9922   7.647   2.547  12.311 -0.2920 -0.0918  0.0554
 5723W        W 9923   6.370   4.892   2.456  0.0168 -0.1634 -0.1211
 5724W        W 9924   0.711   1.492  10.689  0.0287 -0.1337 -0.1607
 5725W        W 9925  10.162   9.436  10.274  0.0414 -0.0172  0.1978
 5726W        W 9926   6.848   3.111  13.320 -0.4909 -0.4161  0.2366
 5727W        W 9927  10.183   9.453   8.871  0.1916 -0.0460 -0.2379
 5728W        W 9928   4.511   2.210  12.489  0.0819 -0.2913 -0.2313
 5729W        W 9929   6.666   9.496  12.047 -0.0123  0.0730  0.2957
 5730W        W 9930   3.708   5.389  10.250  0.1967  0.2920  0.0114
 5731W        W 9931   2.449   7.062   1.359  0.0234  0.0351  0.4559
 5732W        W 9932  10.064   7.268   0.259  0.1635  0.1345  0.0818
 5733W        W 9933   1.884   2.378  10.779  0.0025  0.1309 -0.0403
 5734W        W 9934   8.935   5.851  10.666  0.3183  0.2600  0.1154
 5735W        W 9935   9.838   2.195  13.123  0.0454 -0.2791 -0.0879
 5736W        W 9936   6.528   8.580  12.778 -0.0281 -0.1724 -0.2105
 5737W        W 9937   4.410   7.370   8.897  0.2057 -0.0968  0.0877
 5738W        W 9938   2.994   3.749   9.879 -0.0322 -0.0191 -0.2905
 5739W        W 9939   3.605   3.270  12.387 -0.1966 -0.0376 -0.0770
 5740W        W 9940   9.014   1.421   0.459  0.4261  0.0300 -0.0126
 5741W        W 9941   8.459   9.015  12.724 -0.0144  0.3262  0.1008
 5742W        W 9942   3.804   9.217   2.520 -0.1664 -0.2213 -0.3818
 5743W        W 9943   2.429   2.931   1.746  0.2889 -0.0725 -0.1969
 5744W        W 9944   5.249   3.805   1.253 -0.1747 -0.2197 -0.1301
 5745W        W 9945   5.518   7.230   2.710 -0.1576 -0.4630  0.1167
 5746W        W 9946   7.990   8.809  12.944 -0.1644  0.2919  0.1742
 5747W        W 9947   5.545   7.632   5.095  0.0142 -0.2020  0.1421
 5748W        W 9948   4.828   8.457  12.154  0.0696  0.1900 -0.0876
 5749W        W 9949   7.747   9.062   1.948 -0.0791  0.0341 -0.2073
 5750W        W 9950   0.326   0.799  13.034 -0.0300  0.1810 -0.4738
 5751W        W 9951   5.359   6.740   1.179 -0.2445  0.2250 -0.1076
 5752W        W 9952   6.943   3.540   3.814  0.1628 -0.3188 -0.1533
 5753W        W 9953   7.901   8.794  11.003  0.0324  0.0187 -0.0687
 5754W        W 9954   1.359   0.358  10.512  0.1208 -0.3396  0.1500
 5755W        W 9955   1.313   5.172  10.686 -0.0261 -0.1022 -0.0621
 5756W        W 9956   0.999   2.890  10.221  0.0292 -0.2591  0.0534
 5757W        W 9957   2.325   8.118   3.209  0.3037 -0.0658  0.0393
 5758W        W 9958   7.554   5.151   1.646 -0.1085 -0.0853 -0.0973
 5759W        W 9959   4.860  10.211  11.101 -0.2772  0.5140  0.1889
 5760W        W 9960   7.425   8.922   0.654  0.3026  0.2011  0.1359
 5761W        W 9961   1.214   9.232  10.929  0.4353  0.0234 -0.1154
 5762W        W 9962   1.499   8.056   3.463 -0.1217  0.2351  0.0090
 5763W        W 9963   8.192   1.969   0.493 -0.0438  0.1049  0.1419
 5764W        W 9964   6.813   4.914   0.540 -0.2872  0.0126 -0.1918
 5765W        W 9965  10.496   0.834   3.481  0.0399 -0.1981 -0.2474
 5766W        W 9966   4.640   2.585  11.660  0.1055 -0.0033  0.0856
 5767W        W 9967   8.330   4.621   1.298  0.2397  0.2351 -0.0114
 5768W        W 9968   5.887   0.137   0.239  0.1581 -0.0756 -0.2921
 5769W        W 9969   7.598   8.873   2.831  0.0244  0.0141 -0.2469
 5770W        W 9970   1.568   2.845   3.819 -0.3163 -0.0592  0.0968
 5771W        W 9971  10.345   7.718   9.832  0.2248  0.2857  0.2060
 5772W        W 9972   7.466   0.934   0.746 -0.2607  0.0455  0.1117
 5773W        W 9973   5.001  10.449   2.803  0.3413 -0.1051  0.2464
 5774W        W 9974   9.492   8.979  13.227 -0.0469  0.0861 -0.2424
 5775W        W 9975   4.426  10.219  10.901  0.0992  0.0840  0.0917
 5776W        W 9976   5.588   7.227   1.714 -0.0965 -0.2473  0.1361
 5777W        W 9977   7.522   1.410   2.513 -0.3282 -0.0674 -0.0504
 5778W        W 9978   8.764   9.346   1.805  0.1820  0.1355 -0.2090
 5779W        W 9979   5.554   5.725  12.657  0.1898  0.0035  0.0279
 5780W        W 9980   9.046   7.553  11.663 -0.0864 -0.4276 -0.2526
 5781W        W 9981  10.268   8.061   3.077  0.1758  0.0338 -0.0700
 5782W        W 9982   4.429   1.558   0.007 -0.0523 -0.0922 -0.0273
 5783W        W 9983   3.198   3.858  10.339 -0.0126  0.2218 -0.0063
 5784W        W 9984   9.753   0.237   4.550 -0.2070  0.0199 -0.1296
 5785W        W 9985   9.903   1.587   0.906  0.1061  0.0418 -0.2855
 5786W        W 9986   4.073   7.546  10.269  0.0357  0.3221 -0.1647
 5787W        W 9987   4.753   8.961   1.543 -0.1968 -0.1275  0.0186
 5788W        W 9988   2.290   7.586  10.242 -0.0205  0.0598  0.2453
 5789W        W 9989   9.057   6.801   1.067 -0.2043 -0.0508 -0.2999
 5790W        W 9990   8.215   9.509  10.566  0.1690 -0.0199  0.0278
 5791W        W 9991   7.023   8.339  10.682  0.3346  0.1912 -0.0206
 5792W        W 9992   5.746   5.323   1.855  0.1369  0.1107 -0.0842
 5793W        W 9993   5.245   9.451  12.042 -0.1630 -0.2161  0.1455
 5794W        W 9994   1.998   9.809  12.037  0.1614  0.0396 -0.0491
 5795W        W 9995   7.316  10.210   2.767 -0.3198 -0.1359 -0.3282
 5796W        W 9996  10.488   5.494  10.238 -0.1156  0.0801 -0.0080
 5797W        W 9997   3.295   0.436   0.669  0.1760 -0.0475  0.0943
 5798W        W 9998   8.974   9.087   9.853  0.2924 -0.0914  0.0999
 5799W        W 9999   8.090  10.283   4.150 -0.0390 -0.5682 -0.4756
 5800W        W10000   5.478   4.010  10.455 -0.2384  0.1406  0.0373
 5801W        W10001   9.877   4.824   2.780 -0.1397 -0.1682 -0.2226
 5802W        W10002   2.943   1.772   9.305  0.2568  0.2841  0.1442
 5803W        W10003   5.706   9.604  12.276  0.0304  0.0015 -0.3577
 5804W        W10004   9.181   5.700   1.978 -0.0909 -0.1919 -0.0164
 5805W        W10005   6.065   5.401  13.042  0.0810 -0.0902  0.0521
 5806W        W10006   4.772   2.722   1.759 -0.0114  0.2882 -0.3215
 5807W        W10007   0.024   5.223   1.140  0.2402 -0.0775  0.4254
 5808W        W10008   8.026   1.440   3.773 -0.1574 -0.0289 -0.0031
 5809W        W10009   8.235   6.785   2.984  0.2201  0.2431 -0.0805
 5810W        W10010   4.130   0.924   2.307 -0.4167  0.1019 -0.2757
 5811W        W10011   6.666   9.891  12.674 -0.0002 -0.3787  0.0815
 5812W        W10012   7.420   5.345   9.863 -0.0195 -0.2474 -0.1662
 5813W        W10013   6.664  10.378   9.664 -0.0686 -0.0081 -0.0526
 5814W        W10014   2.222   1.096   8.845 -0.1449  0.1202  0.2394
 5815W        W10015   4.693   0.483  11.858 -0.2576 -0.0483  0.1857
 5816W        W10016   0.149   2.717  13.019 -0.2168  0.0179  0.1425
 5817W        W10017   0.873   4.652   2.569  0.0425  0.1555 -0.0431
 5818W        W10018   6.733   4.682  12.048 -0.0469 -0.1811  0.0724
 5819W        W10019   1.141   5.775   0.465  0.0252  0.1595 -0.0786
 5820W        W10020   7.931   7.526  12.665  0.2713  0.2566  0.1179
 5821W        W10021   9.097   5.145  10.913  0.1150 -0.2115  0.0802
 5822W        W10022   6.098  10.468   3.219 -0.0875  0.2566 -0.2786
 5823W        W10023   1.439   5.063   3.304 -0.0934  0.0341  0.1392
 5824W        W10024   6.102   0.085  11.347 -0.1049 -0.1274  0.0938
 5825W        W10025   9.866   4.548  11.437 -0.1143 -0.3507 -0.4516
 5826W        W10026   3.449   4.345   3.029  0.2948 -0.0787  0.2119
 5827W        W10027   0.667   8.513  13.115 -0.2614 -0.2866  0.3876
 5828W        W10028   7.221   1.902   9.044  0.1287 -0.3408  0.1757
 5829W        W10029   4.675   2.279  10.853 -0.1047 -0.2360 -0.1051
 5830W        W10030   4.171   3.339  11.783 -0.1430 -0.1429 -0.0196
 5831W        W10031   0.607   6.577  12.770 -0.0477  0.0774  0.1629
 5832W        W10032   9.532   1.873  11.306 -0.1541 -0.3277  0.0353
 5833W        W10033   2.175   9.847   0.356 -0.3042 -0.0250  0.1740
 5834W        W10034   4.175   0.749  10.151 -0.1971  0.0219  0.0536
 5835W        W10035   9.996   9.569   0.258  0.1143  0.2277 -0.0357
 5836W        W10036   7.042   2.019  10.051 -0.0172  0.1634  0.2779
 5837W        W10037   4.406   7.248   3.921 -0.4360  0.0615 -0.2087
 5838W        W10038   6.364   2.018   8.633  0.0204  0.1675  0.0442
 5839W        W10039   7.018   3.973   2.482  0.1128  0.0996 -0.1427
 5840W        W10040   5.948   9.246   1.741 -0.1562 -0.2991 -0.0520
 5841W        W10041   9.802   1.341   9.985 -0.1614 -0.0153 -0.0594
 5842W        W10042   4.271   8.691   2.767  0.0226  0.0209 -0.1490
 5843W        W10043   0.132   1.002   1.378 -0.0551  0.1243 -0.1707
 5844W        W10044   2.125   1.563   5.125 -0.1735  0.3843  0.1977
 5845W        W10045   3.548   6.231   3.228  0.0898  0.0896 -0.3501
 5846W        W10046  10.468   9.038  10.429 -0.1885 -0.0716  0.2449
 5847W        W10047   3.309   7.790   4.672 -0.1985 -0.1265 -0.0234
 5848W        W10048   9.713   5.660   8.845 -0.1700 -0.0672  0.2417
 5849W        W10049   0.416   3.056  13.261 -0.0993 -0.0479  0.1512
 5850W        W10050   1.779   8.522   9.045  0.1565  0.1251 -0.1775
 5851W        W10051   2.607   0.526   2.724  0.3901  0.0856  0.0915
 5852W        W10052   6.968   2.940   0.981 -0.0739 -0.2070  0.1180
 5853W        W10053   7.567   1.615  12.749  0.2105 -0.1074 -0.3909
 5854W        W10054   1.137   6.380  12.747 -0.1319 -0.0390  0.1465
 5855W        W10055   5.246   9.918  10.310  0.0560 -0.0183 -0.0401
 5856W        W10056   0.179   6.479   1.403 -0.0086  0.0235 -0.1398
 5857W        W10057   1.729   3.484  10.228 -0.1480  0.0411  0.0096
 5858W        W10058   2.565   5.227   2.280  0.2444  0.1050  0.0534
 5859W        W10059  10.424   2.107   3.045 -0.2692 -0.0931  0.0060
 5860W        W10060   8.235  10.376   0.568 -0.1506  0.0674 -0.3147
 5861W        W10061   6.835   6.255   3.247  0.1891  0.1999 -0.0169
 5862W        W10062   9.381   8.957   4.608  0.4388  0.0594 -0.0161
 5863W        W10063   1.152   9.345  11.521 -0.3683 -0.0800  0.2871
 5864W        W10064  10.151   2.514   2.192 -0.0394 -0.0992 -0.3428
 5865W        W10065   4.174   8.800  12.857  0.1549  0.0303 -0.3612
 5866W        W10066   7.733   9.615   5.179 -0.0155  0.0039 -0.3330
 5867W        W10067   5.133   1.279   2.772  0.1911  0.1277 -0.0848
 5868W        W10068   0.296   6.556   1.971 -0.2897 -0.3356  0.2216
 5869W        W10069   9.555   8.434   9.773  0.2848 -0.0363 -0.4674
 5870W        W10070   4.510   7.575  10.656  0.0258 -0.1081  0.2189
 5871W        W10071   1.423   7.114  13.348 -0.1545 -0.2282  0.0976
 5872W        W10072   1.597   2.914   1.023  0.2365  0.1239  0.3362
 5873W        W10073   5.462   0.380  12.085  0.0576  0.0105  0.0306
 5874W        W10074   2.793   3.756   1.485  0.3680  0.2172  0.1679
 5875W        W10075   7.007   9.753  11.374 -0.1927  0.1841 -0.0057
 5876W        W10076   6.656   8.006   3.366 -0.1077  0.0267  0.1931
 5877W        W10077   3.325   9.419  11.282  0.0935 -0.0723 -0.0164
 5878W        W10078   1.780   4.262  13.342 -0.1203 -0.1270 -0.0280
 5879W        W10079   6.601  10.476  10.969 -0.0314  0.1291 -0.0230
 5880W        W10080   0.350   4.555  10.326 -0.0803  0.1423  0.0573
 5881W        W10081   4.981   3.239   4.624  0.0630 -0.0368  0.3200
 5882W        W10082   8.078   3.417   3.807 -0.3223  0.3317  0.0468
 5883W        W10083   2.326   1.571   9.136 -0.0484  0.0973 -0.0418
 5884W        W10084   6.912   1.873  10.960 -0.0247  0.0969  0.0616
 5885W        W10085   7.278   5.706  12.325 -0.2469 -0.2466  0.0381
 5886W        W10086   7.061   2.035   2.374  0.0242 -0.1064  0.4807
 5887W        W10087   0.339   0.093  10.211 -0.3305  0.0565  0.1021
 5888W        W10088   8.973  10.087   9.000 -0.2309  0.1643  0.1431
 5889W        W10089   2.433   4.414  12.746  0.2066 -0.1334  0.0736
 5890W        W10090   0.211   2.112  11.344 -0.0856 -0.1815 -0.3090
 5891W        W10091   1.301   2.044   0.614 -0.2417  0.2337  0.2820
 5892W        W10092  10.315   6.968  11.735  0.1872 -0.0638  0.0257
 5893W        W10093   9.894   2.614  10.818 -0.2792  0.3383  0.2110
 5894W        W10094   0.931   4.393  12.266 -0.1776  0.2661 -0.2478
 5895W        W10095   1.768   0.024   8.577  0.1458 -0.1507  0.1007
 5896W        W10096   1.557   6.655   2.123 -0.1965  0.2430 -0.2018
 5897W        W10097   0.402   8.696   4.275  0.3744 -0.1299  0.0368
 5898W        W10098   9.140   9.698   2.497  0.4687 -0.3046  0.0179
 5899W        W10099   0.551   4.214   2.691 -0.1649 -0.0636 -0.0619
 5900W        W10100   3.696   1.491   9.953 -0.2446  0.1425  0.0238
 5901W        W10101   8.713   8.759   8.507  0.0472  0.1158 -0.0308
 5902W        W10102   3.556   4.791  11.127 -0.0200  0.0596 -0.1511
 5903W        W10103   8.917   8.113   2.819  0.0449  0.4543  0.4441
 5904W        W10104   4.010   7.250  11.340  0.0678  0.0601  0.2459
 5905W        W10105   5.140   5.218   2.725 -0.2180 -0.2096 -0.3605
 5906W        W10106   3.327  10.311   1.323  0.0829 -0.1117  0.1153
 5907W        W10107   0.397   4.771  11.206  0.0922 -0.0740 -0.1631
 5908W        W10108   9.455   6.806   0.779  0.0137 -0.0530 -0.4343
 5909W        W10109   8.242   3.261  10.632  0.0892  0.0445  0.0416
 5910W        W10110   3.173   1.025   3.855  0.0950 -0.1874  0.0559
 5911W        W10111   4.688   3.368  10.109  0.0084 -0.1779  0.1551
 5912W        W10112   4.783   4.056   1.403  0.2174  0.4298 -0.0212
 5913W        W10113   5.110   6.500   3.010 -0.2210  0.1785 -0.0521
 5914W        W10114  10.250   1.702   3.452  0.1595 -0.1029  0.2466
 5915W        W10115   1.464   1.554  13.244 -0.1739 -0.3361  0.1511
 5916W        W10116   1.569   7.465  12.875 -0.0655  0.1759  0.1564
 5917W        W10117   9.070   9.246  12.290 -0.1463 -0.0605  0.1324
 5918W        W10118   2.242   4.952  12.746  0.0497 -0.3546 -0.1868
 5919W        W10119   1.428  10.021   3.825 -0.1511  0.0927  0.0191
 5920W        W10120   8.770   5.886  12.047 -0.2439  0.2316  0.0308
 5921W        W10121   6.189   5.583  10.611 -0.1261  0.0341  0.1419
 5922W        W10122   0.623   7.495  12.914  0.2648  0.1909 -0.1119
 5923W        W10123   5.801   0.041   4.980  0.0923  0.0640 -0.0910
 5924W        W10124   5.552   4.196   9.403  0.3562 -0.1125  0.3501
 5925W        W10125   6.842   1.202  11.391 -0.3531  0.0133  0.1927
 5926W        W10126   5.158   1.956   3.362 -0.3609  0.0264 -0.2720
 5927W        W10127   3.031   9.349   2.936 -0.1768 -0.0389 -0.0360
 5928W        W10128   7.415   2.911   4.341  0.0315  0.0021 -0.3147
 5929W        W10129   8.769   2.610  11.924 -0.0935 -0.0257  0.2496
 5930W        W10130   2.315   1.988  13.331 -0.0781  0.0351 -0.0320
 5931W        W10131   8.946   0.927   0.641  0.2982  0.4704 -0.0499
 5932W        W10132   2.447   9.895  10.594 -0.0045 -0.1144 -0.0119
 5933W        W10133  10.388   2.166   1.524 -0.4649 -0.2569 -0.1951
 5934W        W10134   9.583   0.134  13.282 -0.0399  0.1329  0.2142
 5935W        W10135   1.101   5.889   3.178 -0.0488 -0.0413  0.2669
 5936W        W10136  10.466   3.209  11.368  0.0829 -0.0712  0.4701
 5937W        W10137   2.748   6.739  11.292 -0.1100 -0.0399 -0.0392
 5938W        W10138   2.715   4.380  11.470  0.1052 -0.1226  0.0171
 5939W        W10139   5.542   1.680   3.100  0.0876 -0.1923 -0.6312
 5940W        W10140   1.944   7.477   2.163  0.3308  0.0189  0.3301
 5941W        W10141   3.524   8.045  10.861  0.1975 -0.1052 -0.0415
 5942W        W10142   4.866   0.885   8.551  0.1503  0.3228  0.1968
 5943W        W10143  10.181   7.513   8.989 -0.1278  0.2717  0.1357
 5944W        W10144   9.323   4.704  11.257  0.1684 -0.1019 -0.1029
 5945W        W10145   6.700   1.635   2.177 -0.2283 -0.1193 -0.0370
 5946W        W10146   4.527   7.437  11.606  0.0224  0.0877 -0.3117
 5947W        W10147   6.002   7.460   0.635 -0.3524  0.1015  0.1099
 5948W        W10148   9.872   7.061  13.157  0.2816 -0.3042  0.4660
 5949W        W10149   3.625   0.731  11.033  0.0645 -0.0588  0.0247
 5950W        W10150   1.032   5.554   1.727  0.2216  0.1930  0.0690
 5951W        W10151   5.142   6.904   2.477  0.1211 -0.1731  0.0368
 5952W        W10152   4.352   9.107   2.414  0.0238  0.1253 -0.1508
 5953W        W10153  10.020   3.629   4.278  0.0135  0.3879  0.3883
 5954W        W10154   6.935   0.875   4.690 -0.0780  0.1429  0.1924
 5955W        W10155   0.257   1.112  12.082  0.1196  0.0101 -0.0228
 5956W        W10156   9.255   3.884   9.290 -0.1325  0.2335 -0.0644
 5957W        W10157   2.185   7.514   1.687  0.2038  0.1425 -0.0381
 5958W        W10158   5.925   3.805  11.900  0.2151  0.1355  0.0405
 5959W        W10159   7.257   4.871   9.645  0.4849 -0.3414  0.2024
 5960W        W10160   4.392   8.472   1.744  0.0771 -0.2432  0.3230
 5961W        W10161   5.433   8.516   4.662 -0.2563 -0.1175 -0.1351
 5962W        W10162   7.354   9.517   9.972 -0.1754 -0.2250 -0.1179
 5963W        W10163   0.067   0.251  11.149 -0.0058 -0.0284 -0.1280
 5964W        W10164   8.510   6.469  13.171 -0.0048  0.1457 -0.0340
 5965W        W10165   7.829   7.203   0.906 -0.1385  0.1407  0.0930
 5966W        W10166   4.135   8.390  10.561 -0.0138  0.0736 -0.1448
 5967W        W10167   1.591   7.558  11.439 -0.0482 -0.1845 -0.0668
 5968W        W10168   3.768   3.093  10.385  0.1356 -0.0864 -0.1977
 5969W        W10169   9.105   6.022   2.345 -0.0226  0.1375  0.2534
 5970W        W10170   6.412   0.375   2.108 -0.0881 -0.1733  0.2319
 5971W        W10171   1.635   6.073  10.769  0.3237 -0.3903  0.3277
 5972W        W10172   1.496   7.681   2.996  0.1497  0.4565  0.1450
 5973W        W10173   1.593   4.390   0.437  0.0225 -0.1358  0.1872
 5974W        W10174   7.195   4.458   2.344  0.0216  0.2071 -0.0848
 5975W        W10175   3.829   8.546   3.800 -0.0013 -0.0059 -0.0474
 5976W        W10176   7.303   2.455  10.349 -0.0527 -0.2314 -0.2347
 5977W        W10177   3.944   4.618  12.844 -0.0453  0.0510  0.1850
 5978W        W10178  10.129   3.601  11.208 -0.3172 -0.2314 -0.3085
 5979W        W10179   7.468   3.502  12.746 -0.0961 -0.0734  0.3327
 5980W        W10180   6.594   7.625  10.958  0.0788  0.0698 -0.0703
 5981W        W10181   0.889   6.024   0.903  0.3323  0.0041 -0.1697
 5982W        W10182   0.666   8.186  10.498  0.1800 -0.3456 -0.2862
 5983W        W10183   7.967   1.539   9.018 -0.1241  0.1589 -0.0070
 5984W        W10184   6.119   3.430  11.462 -0.0997 -0.0754 -0.3527
 5985W        W10185   7.583   2.186  11.505 -0.1781 -0.3267 -0.0729
 5986W        W10186   2.408   8.511   3.633 -0.1204  0.0689  0.2068
 5987W        W10187   1.992  10.147  11.244 -0.3106  0.1592 -0.1095
 5988W        W10188   7.385   0.891   9.294 -0.2633 -0.0292 -0.1681
 5989W        W10189   8.045   5.964  12.281 -0.0428 -0.0233  0.3808
 5990W        W10190   1.662   5.898  12.211 -0.2537  0.1184 -0.2556
 5991W        W10191   9.269   6.815  11.418 -0.0709 -0.3368 -0.1381
 5992W        W10192   4.831   6.547   2.149 -0.1579  0.2234 -0.2960
 5993W        W10193   4.821   6.575   9.590 -0.0352 -0.3356  0.0162
 5994W        W10194   8.874   8.573   9.262 -0.2291 -0.2713 -0.0146
 5995W        W10195   2.141   8.525  12.678 -0.0136 -0.1602 -0.3564
 5996W        W10196   2.516   3.491   0.755  0.0475 -0.1650  0.0539
 5997W        W10197   7.186   4.674   0.138  0.2463 -0.0402 -0.0136
 5998W        W10198   8.550  10.391  10.206  0.1527  0.3590 -0.0026
 5999W        W10199   4.184   7.175   9.901 -0.3976 -0.0248  0.0413
 6000W        W10200   2.001   3.042  10.231 -0.0186  0.1316 -0.0579
 6001W        W10201   6.732   2.541   4.735 -0.2206  0.0887  0.0525
 6002W        W10202   0.357   3.469   9.631  0.1313 -0.2163 -0.0914
 6003W        W10203   6.173   2.999   3.613 -0.1526 -0.3640 -0.0749
 6004W        W10204   3.898   6.233   0.311  0.0598  0.1926  0.1485
 6005W        W10205   1.013   7.309   2.063  0.2235 -0.1562  0.0935
 6006W        W10206   7.720   0.875  12.282 -0.6898 -0.2127  0.1080
 6007W        W10207   9.577   9.601   0.568  0.0691 -0.3897  0.0558
 6008W        W10208   4.226  10.133   0.977 -0.2205  0.1696 -0.0507
 6009W        W10209   0.075  10.152   1.015  0.2407  0.0344  0.2028
 6010W        W10210   1.201   0.258  11.950  0.0046  0.1760  0.1219
 6011W        W10211   2.992   1.015  13.275  0.2056  0.0887  0.6275
 6012W        W10212   7.936   0.639   0.918 -0.0085 -0.1674 -0.0305
 6013W        W10213   4.094   8.855   0.415  0.2554  0.2231  0.0656
 6014W        W10214   6.238   4.672  12.127 -0.1955  0.0615  0.2596
 6015W        W10215   1.960   8.015  10.149  0.1306  0.1862 -0.1459
 6016W        W10216   7.158   1.177   8.284  0.0012  0.1118 -0.0728
 6017W        W10217   7.432   0.536   8.974 -0.1228 -0.1093  0.1514
 6018W        W10218   5.566   2.031  10.110  0.0362  0.0833  0.1344
 6019W        W10219   8.855   0.234   1.715  0.2619 -0.1038  0.0042
 6020W        W10220   5.852   6.087  11.209  0.2417 -0.1911  0.1107
 6021W        W10221   5.784   0.889   8.741  0.3477 -0.2499 -0.1390
 6022W        W10222   8.482   1.437   9.004  0.0753 -0.2372 -0.0327
 6023W        W10223   5.958   8.584  10.079 -0.0264 -0.4315  0.4274
 6024W        W10224   8.270   6.826   0.130  0.0808  0.0146 -0.1352
 6025W        W10225   3.023   2.298  11.677 -0.0567 -0.1314  0.2342
 6026W        W10226   7.466   2.789   0.888  0.0614  0.0982 -0.1960
 6027W        W10227   6.731   0.655  11.327  0.2327  0.0916 -0.0058
 6028W        W10228   9.539   8.726   8.603 -0.1900  0.0397  0.0404
 6029W        W10229   9.893   8.012   9.762  0.0774  0.4562  0.1660
 6030W        W10230   0.505   0.374  10.604 -0.0396 -0.0143 -0.1647
 6031W        W10231   3.670   9.241   1.091  0.2470 -0.2754  0.1721
 6032W        W10232   4.587   4.672   3.504 -0.1507  0.2204  0.4552
 6033W        W10233   6.654   6.843  13.154  0.2846 -0.2746  0.1652
 6034W        W10234   6.498   9.635   4.330 -0.1112  0.1155  0.2577
 6035W        W10235   6.029   8.400  12.665  0.1427  0.4875 -0.0906
 6036W        W10236   7.618   6.717  11.247  0.1704  0.0701 -0.0509
 6037W        W10237   3.940   8.949   1.452  0.0245  0.0129 -0.1023
 6038W        W10238   2.534   9.406   3.809 -0.2757 -0.0031  0.0757
 6039W        W10239   4.705   9.218   4.556 -0.0309 -0.0983 -0.0621
 6040W        W10240   6.293   1.726   2.406  0.1901 -0.0951 -0.2665
 6041W        W10241   4.744   3.438  11.125 -0.0069  0.2171  0.0511
 6042W        W10242   4.780   6.386   1.174  0.3294  0.0541 -0.2200
 6043W        W10243   0.571   5.625  12.998  0.2697  0.1320  0.3377
 6044W        W10244   4.119   3.235  12.795 -0.1570  0.3206 -0.2994
 6045W        W10245   3.024   2.894   1.260 -0.1570 -0.0233 -0.3183
 6046W        W10246   4.610   1.744   1.775 -0.0533  0.2200 -0.0716
 6047W        W10247   3.143  10.520   0.862  0.1812  0.1289 -0.0145
 6048W        W10248   9.867   1.282  12.827 -0.1127  0.2827  0.0433
 6049W        W10249   5.628  10.055  10.686 -0.1041  0.1503 -0.0670
 6050W        W10250   5.988   3.258  10.466 -0.0942  0.0364  0.2921
 6051W        W10251   5.791   1.565  11.423  0.2574  0.3182  0.0895
 6052W        W10252  10.495   0.015   1.314  0.0799 -0.0977 -0.0217
 6053W        W10253   8.666   1.843   2.394  0.0652  0.0539 -0.0758
 6054W        W10254   2.831   3.235   1.704 -0.0684  0.0595  0.1405
 6055W        W10255   7.089   0.282   0.400  0.0631 -0.2006 -0.0489
 6056W        W10256   3.344   5.827   3.390  0.3844  0.1045  0.2840
 6057W        W10257   0.842   3.314  10.930  0.1918  0.2402  0.0722
 6058W        W10258   3.604   3.538  10.168  0.0077  0.0289 -0.3566
 6059W        W10259   6.877   6.925   4.490 -0.0560 -0.3826 -0.2991
 6060W        W10260   3.201   2.363   3.693  0.1302 -0.0830 -0.0717
 6061W        W10261   4.116   2.515  11.510  0.1032 -0.1135  0.3377
 6062W        W10262   2.946   9.694   0.246 -0.2911  0.3999 -0.0043
 6063W        W10263   8.222  10.247   2.702  0.0676  0.0134 -0.2600
 6064W        W10264   5.477   4.485   8.277  0.0626  0.0895 -0.2457
 6065W        W10265   3.300  10.095   1.779  0.0268  0.0115  0.1877
 6066W        W10266   1.362   0.575   5.455 -0.0049 -0.3926  0.2510
 6067W        W10267   4.732  10.450   9.685  0.0933  0.1029 -0.0696
 6068W        W10268   5.135   6.398   2.494 -0.0048  0.3356 -0.0692
 6069W        W10269  10.336   6.957   1.194  0.3132  0.0801 -0.0624
 6070W        W10270   8.400   7.455   1.179  0.2632  0.3023 -0.4992
 6071W        W10271   3.167  10.230   4.382  0.0370 -0.0053  0.1815
 6072W        W10272   9.609   4.907   0.452 -0.2404  0.1813 -0.0849
 6073W        W10273   6.215   2.532  11.810  0.3685 -0.0299  0.3379
 6074W        W10274   2.924  10.382   1.966 -0.1477 -0.0492  0.2101
 6075W        W10275   9.902   8.504   8.287 -0.0825  0.1034  0.0974
 6076W        W10276   7.862   2.415   9.484  0.3784  0.1344  0.3583
 6077W        W10277   9.771   7.361   1.753  0.0551 -0.1554 -0.3173
 6078W        W10278   2.761   2.508  10.389 -0.3288  0.4785  0.2476
 6079W        W10279   2.379   4.428   1.605  0.1012  0.1209 -0.1863
 6080W        W10280   6.434   6.053   3.695 -0.3390  0.5862 -0.1440
 6081W        W10281   2.483   9.960  11.463 -0.1245  0.3803  0.0985
 6082W        W10282   0.070   9.670   1.987  0.0119 -0.0206  0.1369
 6083W        W10283   6.375   7.627  10.237 -0.1115 -0.2228  0.1181
 6084W        W10284   0.895   0.449   8.933 -0.1514  0.2816  0.0728
 6085W        W10285   7.716   5.929  10.532  0.2377  0.0840  0.4075
 6086W        W10286   9.128   9.121   2.529  0.0124 -0.0909  0.1780
 6087W        W10287   6.588   7.924  11.489 -0.4549  0.0407 -0.1654
 6088W        W10288   7.990   1.311   0.067  0.0095  0.1336  0.0180
 6089W        W10289   0.177   1.514   9.487  0.1921 -0.2953 -0.0373
 6090W        W10290  10.041   4.700   0.774 -0.3763 -0.0899  0.0747
 6091W        W10291   8.683   2.029   8.538 -0.2095 -0.0930 -0.1196
 6092W        W10292   3.736   1.094   0.111  0.3015 -0.0089 -0.1525
 6093W        W10293  10.394   9.011   4.292  0.0728 -0.1857  0.0900
 6094W        W10294  10.056   5.326   3.928 -0.1389 -0.0983 -0.1906
 6095W        W10295   0.843   3.286  10.464  0.0861  0.2326 -0.0105
 6096W        W10296   4.510   5.121  12.617 -0.2072 -0.0186  0.1667
 6097W        W10297   0.099   9.605   1.433  0.0820 -0.1580  0.0408
 6098W        W10298   0.223  10.095   3.259 -0.0431 -0.0255 -0.0149
 6099W        W10299   7.324   8.436   2.175  0.5168 -0.2113 -0.0127
 6100W        W10300   0.150   2.738   0.177 -0.0867 -0.0004  0.0518
 6101W        W10301  10.347   9.189   0.161  0.3531  0.0440  0.1143
 6102W        W10302   6.681   9.163  12.436  0.0044 -0.2812 -0.1994
 6103W        W10303   6.325   9.057   3.061  0.1158 -0.1149  0.0531
 6104W        W10304   9.560   7.125  11.057  0.1200  0.2611  0.1700
 6105W        W10305   2.778   0.122   4.049  0.0087  0.2672  0.0831
 6106W        W10306   2.593   0.180   9.852  0.1157  0.3259 -0.0808
 6107W        W10307   7.515   7.126   9.554  0.0334  0.1098  0.2701
 6108W        W10308   2.202  10.419   9.824  0.3214  0.2191  0.1160
 6109W        W10309   4.497   7.202  12.735  0.0097 -0.1829 -0.1272
 6110W        W10310   4.896   9.318  12.560  0.2054 -0.0271  0.2919
 6111W        W10311   7.922   7.634  10.815  0.0689  0.0124 -0.0135
 6112W        W10312   4.886   0.869   1.450  0.0694 -0.0529 -0.2683
 6113W        W10313   9.567   8.765   1.080  0.2335  0.2550  0.0465
 6114W        W10314   0.809   4.271  11.142 -0.0752 -0.1758 -0.0950
 6115W        W10315   5.368   4.070   8.963  0.1415 -0.1020 -0.1695
 6116W        W10316  10.410   1.687   2.800 -0.0873  0.2320  0.2237
 6117W        W10317   0.668   8.059  11.522 -0.1465  0.0879  0.1773
 6118W        W10318   1.039   5.849  10.108 -0.1461 -0.1026  0.1702
 6119W        W10319   3.796   1.132  11.841  0.1780 -0.5289 -0.0502
 6120W        W10320   9.248   1.376   2.771  0.3910  0.1147 -0.0105
 6121W        W10321   3.274   3.841   1.730 -0.0675 -0.1080  0.3240
 6122W        W10322   2.707   1.343   0.098  0.0770  0.0397  0.1285
 6123W        W10323   7.945   7.915   3.123  0.0353  0.3371  0.1030
 6124W        W10324   0.442   8.164   9.987  0.1845 -0.1830  0.1617
 6125W        W10325   7.070   0.620   8.201  0.2627 -0.3074 -0.0133
 6126W        W10326   4.189   5.422   1.153  0.0652  0.3064  0.0940
 6127W        W10327   8.892   1.154   3.597  0.0706 -0.2632 -0.2463
 6128W        W10328   2.657   1.902   4.259 -0.0261  0.0196  0.0432
 6129W        W10329   9.226   7.861   0.044  0.0605 -0.1492  0.1253
 6130W        W10330  10.448   8.126  12.925 -0.4390  0.1082 -0.4540
 6131W        W10331   5.370  10.229  12.868 -0.1608  0.2002 -0.0257
 6132W        W10332   4.122   8.414   0.714  0.2060 -0.0661  0.0328
 6133W        W10333   7.561   1.602   1.324 -0.2178  0.0992 -0.1193
 6134W        W10334   7.817   9.121   3.296 -0.2944  0.0564  0.0574
 6135W        W10335   9.243   6.911  13.218 -0.0807  0.0074 -0.0839
 6136W        W10336  10.296   0.241  13.274  0.1427  0.0865  0.1975
 6137W        W10337   1.636   6.526   1.527 -0.0732 -0.0798  0.2009
 6138W        W10338   1.430   8.933   1.014 -0.2172  0.1570  0.2047
 6139W        W10339   2.387   8.343  12.264  0.3171  0.2309 -0.1247
 6140W        W10340   4.079  10.451  11.196  0.0532  0.1081  0.3588
 6141W        W10341   3.644   1.772   4.416  0.1066 -0.0900 -0.2166
 6142W        W10342   1.747   3.408  11.391  0.0947 -0.1007 -0.0665
 6143W        W10343   7.403   4.705   3.728  0.0525  0.2948 -0.0907
 6144W        W10344   7.067   7.316  10.279  0.0492 -0.1175 -0.0038
 6145W        W10345  10.393   6.695  10.664 -0.0881 -0.0138 -0.1522
 6146W        W10346   3.373   6.819   3.260 -0.0326  0.0642 -0.2801
 6147W        W10347   0.743   5.069   2.194 -0.2012 -0.2710  0.1649
 6148W        W10348   4.415   8.705   2.173 -0.0416 -0.0379  0.1061
 6149W        W10349   7.214  10.083   1.067 -0.2951  0.3262  0.2780
 6150W        W10350   0.129   5.472   9.709  0.0039  0.3657 -0.0817
 6151W        W10351   9.036   4.859   0.212 -0.2399  0.1656  0.0074
 6152W        W10352   9.203   5.779  11.486  0.2231 -0.1776  0.0210
 6153W        W10353   1.397   2.937  11.772  0.0536 -0.0941 -0.1628
 6154W        W10354  10.194  10.155  11.773  0.0770 -0.1919  0.1495
 6155W        W10355   0.836   8.200   1.240 -0.0444 -0.3527 -0.3350
 6156W        W10356   1.155   4.716  11.938  0.2216  0.6163  0.0880
 6157W        W10357   6.185   8.022   4.262 -0.0703 -0.1375  0.0325
 6158W        W10358   1.641   8.455  11.433 -0.2621 -0.0077  0.0514
 6159W        W10359   2.247   9.250   0.540 -0.0925  0.1210 -0.0571
 6160W        W10360   4.644   4.627   2.232  0.1844 -0.1837 -0.3844
 6161W        W10361   9.590   5.119  10.947  0.0670 -0.0955 -0.0028
 6162W        W10362   1.762   3.179  12.649  0.0333 -0.1122 -0.1346
 6163W        W10363   8.322   2.386   9.474 -0.1475  0.1542  0.2218
 6164W        W10364   4.352   7.306   9.373 -0.0048  0.2907  0.1152
 6165W        W10365   6.301   9.329  10.725 -0.0304  0.1175  0.2220
 6166W        W10366   8.933   2.389   3.365  0.0552  0.0256 -0.1163
 6167W        W10367   6.613   6.350   1.165  0.0048 -0.0445 -0.0293
 6168W        W10368   0.672   9.016   2.001  0.0712 -0.0368 -0.1271
 6169W        W10369   7.097   5.989   4.084  0.1570  0.1378  0.2276
 6170W        W10370   2.421   0.842  10.405 -0.1948  0.2520  0.1863
 6171W        W10371   6.998   9.208  13.222  0.2052 -0.1612  0.0483
 6172W        W10372   5.761   2.528  11.037 -0.2282 -0.1603  0.0097
 6173W        W10373   4.300   9.245   0.893  0.3453  0.0663 -0.0537
 6174W        W10374   8.976   9.127  11.437 -0.1291  0.1505  0.0944
 6175W        W10375   3.584   7.171   0.094  0.0194 -0.2589  0.1483
 6176W        W10376   4.602   9.109   1.993  0.0585 -0.0319  0.3281
 6177W        W10377   1.480   2.065   1.098 -0.0467  0.1207  0.0031
 6178W        W10378   1.812   5.999   2.718  0.1163 -0.1301  0.4380
 6179W        W10379   0.189   0.479   4.799  0.0423 -0.1640 -0.0985
 6180W        W10380   3.667   8.144   4.223 -0.1479 -0.0080 -0.0323
 6181W        W10381   2.358  10.222   4.843  0.1420 -0.2048  0.2885
 6182W        W10382   2.854   5.744  12.241 -0.1603 -0.4967  0.0267
 6183W        W10383   8.734   3.976   4.098 -0.2097 -0.0705  0.0450
 6184W        W10384   7.959   8.289  12.676 -0.2006  0.1118  0.1117
 6185W        W10385   8.440   2.753   1.255 -0.1147 -0.0742  0.0682
 6186W        W10386   3.740   2.835   3.984  0.1160  0.0007 -0.2145
 6187W        W10387   2.361   9.715   2.480  0.0011  0.2691 -0.3398
 6188W        W10388   3.214   3.980   9.280 -0.2691 -0.0540 -0.1509
 6189W        W10389   4.654   9.083   0.433 -0.1408  0.0409 -0.1068
 6190W        W10390   5.746   4.621   0.823 -0.4472 -0.1164 -0.1761
 6191W        W10391   5.761   0.370   9.066 -0.1575 -0.0017 -0.2660
 6192W        W10392   2.126   0.694   3.524 -0.1514  0.0913 -0.0108
 6193W        W10393   5.533   4.927   2.511  0.0546  0.1135  0.3414
 6194W        W10394   9.133   4.399  11.947  0.2105 -0.0386  0.1989
 6195W        W10395   0.217   3.458   3.810  0.0106  0.1285 -0.0110
 6196W        W10396   4.884   8.535  12.925  0.2503 -0.0149 -0.1766
 6197W        W10397   4.568   8.759   9.648  0.3512 -0.3940 -0.1766
 6198W        W10398   7.901   8.417   8.368  0.1586  0.2857  0.2027
 6199W        W10399   8.719   5.070   2.109 -0.0507  0.1366 -0.0213
 6200W        W10400   9.949  10.103   2.239  0.0296 -0.0500  0.0695
 6201W        W10401   4.298   5.876  12.059  0.2230 -0.0142  0.1307
 6202W        W10402   7.572   8.397   3.259 -0.1200 -0.2343 -0.1890
 6203W        W10403   8.775   6.601  11.310 -0.1221 -0.0857  0.1452
 6204W        W10404   3.058   8.123   1.803 -0.3966 -0.1696 -0.1172
 6205W        W10405   4.194   8.514   9.891 -0.0409  0.2080  0.0119
 6206W        W10406   9.262   2.549   3.766 -0.3258  0.1905  0.0491
 6207W        W10407   8.426   6.531  12.654 -0.0082 -0.2779 -0.1463
 6208W        W10408   1.071   3.291   1.744 -0.2579  0.3089 -0.2466
 6209W        W10409   0.702   1.329  11.347  0.0060 -0.2498  0.0347
 6210W        W10410   1.354   0.368   0.871 -0.0257 -0.1588  0.0040
 6211W        W10411   4.716   0.677   8.964 -0.0980 -0.0238  0.0153
 6212W        W10412   3.698   0.974   4.129 -0.0285  0.0164  0.1566
 6213W        W10413   3.114   7.001   0.326 -0.0231  0.1540 -0.1488
 6214W        W10414   6.666   4.824   3.826 -0.2779 -0.1380 -0.1554
 6215W        W10415   6.270   1.424  11.472 -0.1850  0.0309 -0.0774
 6216W        W10416   5.971   0.139  10.818  0.3619  0.0260 -0.2468
 6217W        W10417   0.037   8.273   0.564 -0.1294 -0.0804  0.0265
 6218W        W10418   3.334   1.557   2.210  0.0116 -0.5144  0.0474
 6219W        W10419   6.822   2.276   4.264  0.1459  0.4364  0.0534
 6220W        W10420   6.015   9.912   0.286 -0.0146 -0.2939 -0.3729
 6221W        W10421   1.439   0.576  12.300  0.0364 -0.0104  0.0300
 6222W        W10422   5.792   0.908   0.005 -0.0031  0.0141 -0.0557
 6223W        W10423   4.600   7.994   9.315 -0.2716  0.2273  0.1589
 6224W        W10424   2.970   8.688   1.795 -0.1723 -0.0859  0.1376
 6225W        W10425   9.849   2.931   1.447  0.0402  0.0776 -0.0553
 6226W        W10426   2.960   1.824   2.425 -0.0759 -0.0822 -0.0674
 6227W        W10427   4.983   5.742  10.242  0.0256  0.1158 -0.3644
 6228W        W10428   0.575   2.994  11.188 -0.0085 -0.4564 -0.2469
 6229W        W10429   2.897  10.092  10.800 -0.1880  0.1502  0.1981
 6230W        W10430  10.129   9.723   1.746 -0.1980  0.1567 -0.0847
 6231W        W10431   4.326   7.060   1.039 -0.0304 -0.1340 -0.0279
 6232W        W10432   6.010   3.045   1.713 -0.0966  0.3798 -0.1627
 6233W        W10433   9.070   7.779   1.663  0.3949 -0.0857 -0.1831
 6234W        W10434   4.779   7.921   4.287 -0.0903 -0.0103  0.2255
 6235W        W10435   6.428   3.292  10.174  0.0629  0.0860 -0.0041
 6236W        W10436   8.472   7.335   3.831  0.0753  0.0465  0.3066
 6237W        W10437   5.676   9.199   2.783  0.0072 -0.1413 -0.0217
 6238W        W10438   7.183   3.441  11.381  0.1985  0.0370  0.0146
 6239W        W10439   6.327   1.878   9.747  0.0476  0.2609 -0.2131
 6240W        W10440   8.313   7.139   2.663 -0.0226  0.0981 -0.0732
 6241W        W10441   1.479   0.696   1.446  0.0917  0.1059 -0.0947
 6242W        W10442   0.028  10.455  12.909 -0.0078  0.0349 -0.0378
 6243W        W10443   3.311   5.278   0.520 -0.0026  0.2233  0.0007
 6244W        W10444   5.856   8.467   2.196  0.2966  0.1376  0.0241
 6245W        W10445   2.850   8.850  12.234 -0.0332  0.1030  0.1094
 6246W        W10446   7.768   9.123  12.580 -0.1437 -0.1107 -0.4701
 6247W        W10447   0.533   2.293   0.763  0.0456  0.0296 -0.1438
 6248W        W10448   4.008  10.500   2.373 -0.1276 -0.0313 -0.0522
 6249W        W10449   7.688   1.734  11.348 -0.4083  0.1390  0.0215
 6250W        W10450   3.517   1.309  12.386  0.0474  0.3282 -0.2519
 6251W        W10451   5.660   7.162  12.765 -0.2575  0.0505  0.2393
 6252W        W10452   0.282   5.287  13.225  0.0156 -0.0392  0.0351
 6253W        W10453  10.270   2.617   1.380  0.0779 -0.1277  0.0235
 6254W        W10454   3.202   9.990  12.644 -0.0263 -0.2128 -0.1395
 6255W        W10455   8.271   3.241   0.967  0.0588 -0.2043 -0.2794
 6256W        W10456   6.683   2.994   2.403  0.3259  0.0717 -0.2615
 6257W        W10457   1.304   0.854  10.479 -0.0058  0.0392 -0.0510
 6258W        W10458   9.632   5.114  12.992  0.0519 -0.3131 -0.1857
 6259W        W10459   3.656   2.778   1.990  0.1390  0.2360 -0.2797
 6260W        W10460   8.588   0.170   3.896 -0.3260  0.1571  0.1638
 6261W        W10461   6.847   0.961  11.900 -0.0543  0.0323 -0.3243
 6262W        W10462   2.134   1.284   1.212  0.2255 -0.3026  0.1575
 6263W        W10463   0.635   6.203   9.905  0.2132  0.1016 -0.2010
 6264W        W10464   7.989   5.020   1.420  0.3103  0.0581  0.0487
 6265W        W10465   3.031   7.621   2.075 -0.1643 -0.1397 -0.0339
 6266W        W10466   9.016   4.826   1.726 -0.0114 -0.2662  0.3774
 6267W        W10467   6.504   5.894   2.158 -0.1014 -0.0141  0.1207
 6268W        W10468   8.575   6.815   4.031 -0.2496  0.1155 -0.1294
 6269W        W10469   9.635   5.570  11.225  0.2345 -0.2352  0.0667
 6270W        W10470   1.890   1.597  12.320  0.2234  0.6179  0.1374
 6271W        W10471   3.724   3.524   3.315  0.0138 -0.1281  0.2069
 6272W        W10472   0.952   0.387  12.488  0.2878  0.0837  0.0693
 6273W        W10473   8.600   8.279  10.687  0.0249  0.1172 -0.1085
 6274W        W10474   9.287   1.836  10.864 -0.3028  0.1975 -0.1166
 6275W        W10475   9.047   7.876  12.391 -0.0305  0.0830 -0.0955
 6276W        W10476   5.675   9.755  12.728  0.1654 -0.1499  0.0375
 6277W        W10477   3.399   9.636   0.805 -0.2308  0.1427  0.2899
 6278W        W10478   1.771   0.758   4.815 -0.0142  0.1407  0.1918
 6279W        W10479   1.467   0.535   4.013  0.3581  0.0542 -0.3330
 6280W        W10480   0.300   6.392   2.999 -0.2987  0.0113 -0.1115
 6281W        W10481  10.468   9.153  12.231  0.3188 -0.0052 -0.2629
 6282W        W10482   8.634   3.858  13.071 -0.1379  0.2401  0.2884
 6283W        W10483   2.706   3.530  11.174 -0.1049 -0.1160  0.0066
 6284W        W10484   3.521   9.259   2.101  0.0243  0.1876  0.0216
 6285W        W10485   4.174   9.072  10.006  0.2880 -0.0999 -0.2898
 6286W        W10486   4.929   3.919  12.720  0.0276 -0.4225  0.2898
 6287W        W10487   4.983  10.502   1.489 -0.1348 -0.2739  0.2337
 6288W        W10488   4.319   0.518   4.872 -0.0059 -0.1116  0.0117
 6289W        W10489   2.985   4.591   0.031 -0.0972  0.2816  0.1619
 6290W        W10490   7.726   5.112   0.063  0.0361 -0.1484 -0.0675
 6291W        W10491   3.308   3.870  11.827 -0.0068 -0.1146 -0.2649
 6292W        W10492   4.463   4.408  12.173  0.1127 -0.0094 -0.2421
 6293W        W10493   6.702   8.359   9.715 -0.2180 -0.2492  0.2164
 6294W        W10494   5.785   5.179   3.693  0.1015 -0.1378 -0.1124
 6295W        W10495   8.367   8.356   3.228  0.1526 -0.0425 -0.2903
 6296W        W10496   8.594   0.429  12.122 -0.2915  0.2639  0.1785
 6297W        W10497   0.350   0.920   3.039  0.1768  0.0370 -0.2040
 6298W        W10498   5.696   3.062  13.216  0.0597 -0.1640  0.0459
 6299W        W10499   5.650   8.727  12.469  0.0574  0.1270 -0.0344
 6300W        W10500   6.174   7.005   0.811 -0.4128  0.1357 -0.1616
 6301W        W10501   3.051   6.238   3.194  0.0723 -0.3405 -0.1032
 6302W        W10502   8.873   4.563  12.774 -0.0485 -0.2337  0.3050
 6303W        W10503   8.338   6.528   2.579  0.2563  0.0098  0.2157
 6304W        W10504  10.181   0.172   5.014 -0.0300 -0.1552 -0.0807
 6305W        W10505   4.100   7.463   3.560 -0.2215  0.1409 -0.0339
 6306W        W10506   9.698   3.311   1.105  0.1932 -0.1147  0.0185
 6307W        W10507   1.134   4.473  10.793  0.0448  0.1248  0.2671
 6308W        W10508   7.542   3.220   9.061 -0.3407  0.2559 -0.1468
 6309W        W10509   8.762   1.521   3.949  0.1815 -0.0669  0.1396
 6310W        W10510   3.991   9.809   3.459 -0.0731 -0.1306  0.4552
 6311W        W10511  10.425  10.187   9.746  0.5460 -0.3347 -0.1008
 6312W        W10512   1.529   0.832   2.747 -0.2534  0.2336 -0.3037
 6313W        W10513   1.740   8.263   1.023  0.4232 -0.2124 -0.1397
 6314W        W10514  10.335   1.455  12.665 -0.1086 -0.0057 -0.4168
 6315W        W10515   6.172   7.022   1.761  0.2483 -0.2349  0.1831
 6316W        W10516   2.026   2.554   8.875 -0.0114 -0.1623 -0.0490
 6317W        W10517  10.071   2.313  10.125  0.0687  0.0225 -0.4379
 6318W        W10518   2.852   9.768   2.513 -0.2413 -0.2382 -0.1737
 6319W        W10519   9.811   3.699   0.101 -0.0272  0.2147 -0.0221
 6320W        W10520   3.707   9.038   3.855  0.1596 -0.2974 -0.2551
 6321W        W10521  10.072   9.389   5.179 -0.2181 -0.1730 -0.5340
 6322W        W10522   5.056   7.521  10.691  0.1845 -0.2616  0.1059
 6323W        W10523   8.465   5.610   0.807 -0.4553 -0.1890 -0.3083
 6324W        W10524  10.021   9.907   8.947 -0.1248 -0.1649 -0.1412
 6325W        W10525   3.906   4.576   0.444  0.0444  0.0781  0.0966
 6326W        W10526   5.469   2.467   4.437 -0.0881  0.0789 -0.1680
 6327W        W10527   2.442   1.967  12.688  0.1079  0.3417  0.0783
 6328W        W10528   0.064  10.116   1.577  0.1341  0.0714  0.0998
 6329W        W10529   7.070   8.530  12.265 -0.0453 -0.1945  0.2294
 6330W        W10530   8.027   6.320   0.759 -0.0139 -0.0463  0.0002
 6331W        W10531   5.284   9.360   3.073  0.0449  0.1204 -0.3658
 6332W        W10532   5.482   4.975  10.265  0.2697 -0.0081  0.2619
 6333W        W10533   9.703   6.208   2.394 -0.2302  0.1692 -0.5078
 6334W        W10534   3.951   3.121   3.613  0.1786  0.1241 -0.0058
 6335W        W10535   2.387   3.950   9.887 -0.0397 -0.0100  0.0794
 6336W        W10536   6.580   7.216  10.531  0.1835 -0.0928  0.3552
 6337W        W10537   5.326   1.869   0.620 -0.1588  0.1611  0.1122
 6338W        W10538   6.222   8.385   9.687 -0.3193  0.0960 -0.4711
 6339W        W10539   4.402   1.078   0.202 -0.0889  0.3227 -0.0829
 6340W        W10540   6.969   6.242  12.512 -0.0784 -0.0041 -0.2002
 6341W        W10541   4.916   9.027   2.352 -0.1027  0.0130  0.0226
 6342W        W10542   9.726   7.156   2.224 -0.0135  0.1594  0.2962
 6343W        W10543   6.836   0.762   3.350 -0.0403 -0.0602  0.2617
 6344W        W10544   7.889   0.110   3.466  0.0541 -0.1118 -0.0131
 6345W        W10545   5.478   9.977   0.319  0.1387 -0.0915 -0.1764
 6346W        W10546   3.936   2.648   9.435 -0.1246  0.1354 -0.1471
 6347W        W10547   4.409   1.743  11.957  0.2958  0.1057  0.1220
 6348W        W10548   9.972   2.372   1.695  0.1647  0.0168  0.0710
 6349W        W10549   4.972   0.197  11.122  0.0328  0.0974 -0.1693
 6350W        W10550   8.516   9.942   4.895  0.0460 -0.2566 -0.4582
 6351W        W10551   8.968   1.133  11.469  0.1071 -0.1067  0.0269
 6352W        W10552   9.619   0.594   9.656  0.0254  0.1397  0.2015
 6353W        W10553   0.735   0.854  11.200 -0.1595  0.1354  0.3145
 6354W        W10554   5.084   4.889   3.442  0.2437 -0.0536 -0.0494
 6355W        W10555   3.784   2.848   0.804 -0.2499  0.4049 -0.1968
 6356W        W10556   7.748   9.264   1.466 -0.0044 -0.0357 -0.0786
 6357W        W10557   7.410   3.932  10.708  0.3657  0.0687 -0.1080
 6358W        W10558   5.036   3.647   8.995  0.0273  0.0167 -0.3820
 6359W        W10559   1.647   8.116  12.142  0.1317 -0.1221  0.1029
 6360W        W10560   4.421   6.170   0.469 -0.1389  0.0590 -0.0267
 6361W        W10561   4.251   2.858  11.879 -0.1655 -0.0098  0.3378
 6362W        W10562   0.015   6.774   9.674  0.0399 -0.1532 -0.0961
 6363W        W10563   0.948   3.215  11.492 -0.0656  0.1576 -0.0297
 6364W        W10564   4.916   6.961   3.742 -0.3597 -0.0593 -0.2052
 6365W        W10565   6.920   9.454   0.812 -0.2330 -0.0341  0.0471
 6366W        W10566   4.114   5.230   1.859 -0.0580  0.0477  0.3058
 6367W        W10567   5.836   5.652   0.094 -0.2409 -0.0059  0.2780
 6368W        W10568   8.215   9.600   9.512  0.2770 -0.0559 -0.3050
 6369W        W10569   7.254  10.050  12.794  0.1286 -0.0839 -0.1276
 6370W        W10570   5.421   3.454  13.237 -0.2820 -0.2808 -0.3838
 6371W        W10571   6.757  10.041   0.764 -0.0155 -0.0617  0.1525
 6372W        W10572   8.166   9.118   2.861 -0.2629  0.1922 -0.2426
 6373W        W10573   4.086  10.441  11.782 -0.1805  0.1014  0.1596
 6374W        W10574   8.300   9.922  12.566  0.1732 -0.1533 -0.1283
 6375W        W10575   2.370   3.506  10.133 -0.1766  0.3285 -0.2847
 6376W        W10576   4.056   2.577   0.239 -0.1472 -0.0806 -0.1594
 6377W        W10577   5.534   1.937   1.967  0.0096  0.1722 -0.2647
 6378W        W10578   3.316   6.269  11.567  0.3265 -0.0363 -0.4312
 6379W        W10579   9.065   4.279   9.939 -0.1547 -0.0018  0.0850
 6380W        W10580   3.479   5.755  10.971 -0.0354 -0.0997 -0.2602
 6381W        W10581   6.781   2.800   9.082 -0.0750  0.3280 -0.0287
 6382W        W10582   1.238   3.828   3.012 -0.1494 -0.3626  0.0533
 6383W        W10583   8.713   0.867   1.632  0.0031 -0.0549 -0.2649
 6384W        W10584   7.188  10.429   1.910  0.0707 -0.0386  0.1312
 6385W        W10585   3.692   2.770  11.186 -0.0579 -0.0105 -0.0800
 6386W        W10586   5.503   4.733   9.358 -0.0386  0.0900 -0.1577
 6387W        W10587   7.697  10.473  11.994  0.1225 -0.0573  0.0429
 6388W        W10588   7.289   0.841   1.661 -0.1263 -0.0833 -0.1020
 6389W        W10589   8.403   5.852   8.690  0.2089  0.1735 -0.2633
 6390W        W10590   5.700   7.080   8.520 -0.0035  0.0174 -0.0258
 6391W        W10591  10.266   1.446  11.906  0.1954 -0.0961 -0.0050
 6392W        W10592   5.043   3.351   2.504  0.0027  0.0242  0.0377
 6393W        W10593   2.033   5.465  12.232  0.0924  0.0363 -0.4062
 6394W        W10594   6.288   1.158  10.038  0.2504 -0.1957  0.0681
 6395W        W10595   8.083   8.190   1.296  0.0367 -0.1023  0.1366
 6396W        W10596   6.868  10.409   3.638 -0.2351 -0.0967  0.1903
 6397W        W10597   3.309   4.969  12.167 -0.0462  0.0623 -0.2744
 6398W        W10598   6.347   7.953  10.687  0.0538 -0.0948 -0.1641
 6399W        W10599   3.073   1.442  12.945  0.0564 -0.0170 -0.1486
 6400W        W10600   1.510   8.054   1.637 -0.1054 -0.0739  0.1795
 6401W        W10601   5.839   4.013  11.431  0.0698  0.0400  0.0537
 6402W        W10602  10.165   0.462   0.496 -0.0492  0.1483  0.0688
 6403W        W10603   5.530   5.472  13.094 -0.0502  0.0340  0.1240
 6404W        W10604   5.893   6.776   1.371  0.0788 -0.0433 -0.1660
 6405W        W10605   9.545   4.536  10.269  0.0331 -0.2329  0.5839
 6406W        W10606   4.527   9.528   2.656 -0.0699  0.1863  0.0426
 6407W        W10607   1.155  10.194   4.202  0.1679 -0.1768  0.0544
 6408W        W10608   4.106   6.138  12.427  0.0858  0.2608  0.1423
 6409W        W10609   7.538   4.510   3.261  0.0682  0.0094  0.2517
 6410W        W10610   8.653   7.253   2.309  0.0381 -0.1538 -0.2428
 6411W        W10611   0.322  10.167   2.809 -0.2387  0.0374 -0.2179
 6412W        W10612   1.021   4.117   4.524 -0.1034 -0.1385 -0.5419
 6413W        W10613   6.998   0.095   9.380 -0.0142  0.1891  0.0689
 6414W        W10614   8.535   7.568  12.041 -0.0954 -0.1598 -0.2661
 6415W        W10615   1.890   0.644   3.090 -0.0807 -0.2149  0.2491
 6416W        W10616   1.486   1.183   1.762 -0.2856  0.1990  0.0518
 6417W        W10617   5.344   2.858   2.521  0.1338  0.0931 -0.3383
 6418W        W10618   4.874   0.229   0.122  0.0199 -0.2389  0.0875
 6419W        W10619   1.569   1.258   9.658  0.1982  0.3424  0.2730
 6420W        W10620   6.782   5.821  12.260 -0.1118  0.1922 -0.0624
 6421W        W10621   7.634   1.222   8.327  0.0860 -0.0727 -0.1407
 6422W        W10622   6.214   7.626   2.376  0.2723  0.0834 -0.1725
 6423W        W10623   4.591   5.603   1.916 -0.0079 -0.2314 -0.2274
 6424W        W10624   9.362   1.444   9.195  0.0239  0.1347  0.0754
 6425W        W10625   0.784   4.346   4.016 -0.2091  0.0220 -0.1591
 6426W        W10626   1.444   0.840  11.182  0.1798  0.1715 -0.2387
 6427W        W10627   1.447   4.958  11.130  0.1605  0.0939  0.2787
 6428W        W10628   9.106   4.604   1.170 -0.4193  0.2857  0.1622
 6429W        W10629   2.891   1.222   4.178  0.0100  0.0284 -0.1810
 6430W        W10630   5.758   7.387   3.783 -0.0836  0.4666 -0.0847
 6431W        W10631   1.915  10.261   3.915  0.3425  0.0862  0.1176
 6432W        W10632  10.064   0.247   1.504 -0.1736  0.2129 -0.1562
 6433W        W10633   7.205   8.017   1.467  0.3127 -0.2820 -0.2109
 6434W        W10634   1.601   8.160  10.444  0.1259 -0.2414  0.1495
 6435W        W10635   9.634   9.581   8.877  0.1385  0.1278 -0.0289
 6436W        W10636   4.367   5.000  10.118  0.0003 -0.1304 -0.1833
 6437W        W10637   6.675   0.131  10.166 -0.0127  0.2963  0.1744
 6438W        W10638   0.872   1.685   2.537  0.1428  0.0009  0.2498
 6439W        W10639   7.197   8.286  13.163 -0.1415 -0.0487 -0.1070
 6440W        W10640   7.485   0.095   0.099  0.0943 -0.3763 -0.2674
 6441W        W10641   1.211  10.223   9.559 -0.0790 -0.0895  0.0409
 6442W        W10642   8.561   2.696  11.425  0.0524 -0.2414 -0.4554
 6443W        W10643   4.920   1.770  10.059  0.0039 -0.0217 -0.0628
 6444W        W10644   5.676   5.774   3.285 -0.1171  0.0809 -0.0394
 6445W        W10645   4.592   7.095  10.258 -0.1172 -0.0584 -0.3987
 6446W        W10646   4.887   7.258   8.774  0.3347 -0.1383 -0.0599
 6447W        W10647   4.723   7.387  11.066  0.2110  0.2851 -0.3148
 6448W        W10648   9.026   2.941  10.685 -0.0298  0.1985  0.3581
 6449W        W10649   8.435   0.365  11.043 -0.0107 -0.1690 -0.0742
 6450W        W10650   1.010   9.316   1.742 -0.1847 -0.1697 -0.0724
 6451W        W10651   1.150   2.182   3.661 -0.0926  0.2196  0.1141
 6452W        W10652   6.694   5.030   9.555  0.2566 -0.0956  0.2526
 6453W        W10653   9.949   8.038  12.752 -0.0780 -0.2523  0.3672
 6454W        W10654   1.180   5.072  11.570 -0.0622  0.0271 -0.1861
 6455W        W10655   6.142   4.863   3.635  0.1592  0.2781 -0.0935
 6456W        W10656   4.176   9.960  10.009 -0.2851  0.2119  0.0002
 6457W        W10657   8.138   5.158  10.118  0.1729 -0.2177  0.0505
 6458W        W10658   3.791   5.617   3.571 -0.1576  0.2633  0.3727
 6459W        W10659   7.322   9.262  11.197 -0.1484 -0.3145  0.3434
 6460W        W10660   9.775   0.204   3.193 -0.0081  0.1518  0.0607
 6461W        W10661   2.140   2.482  12.010 -0.0599  0.0476  0.1540
 6462W        W10662   9.872   1.211   9.342 -0.0878 -0.0770  0.4573
 6463W        W10663   6.640   7.966   2.588  0.2084  0.0644  0.2013
 6464W        W10664   6.969   3.252   4.193  0.0977  0.0502  0.1075
 6465W        W10665   2.442   9.990  13.038  0.0005  0.0331  0.1801
 6466W        W10666   6.356   6.067   3.023  0.1522 -0.2526  0.1547
 6467W        W10667   8.824  10.445   9.368  0.1611  0.3484 -0.1497
 6468W        W10668   7.212   5.521   2.852  0.3011 -0.1464 -0.0253
 6469W        W10669   8.237   9.526   2.168 -0.1371 -0.3731 -0.1701
 6470W        W10670   1.165   0.057  12.897 -0.0182  0.4484 -0.0208
 6471W        W10671  10.492   6.157  13.285  0.0461  0.0522  0.0796
 6472W        W10672  10.294   1.435   1.175 -0.0314 -0.0190  0.5025
 6473W        W10673   4.772   6.112   0.046  0.0476 -0.4187  0.3353
 6474W        W10674   2.036   9.058   2.764  0.1593 -0.2315  0.0153
 6475W        W10675   2.880   5.447  11.758 -0.1198 -0.2376 -0.2032
 6476W        W10676   2.682   0.986   4.595  0.4385 -0.1752 -0.2906
 6477W        W10677   3.424   5.328   3.448  0.1480  0.0264  0.0141
 6478W        W10678   7.599   1.176  10.511  0.0781 -0.1202 -0.0144
 6479W        W10679   9.564   6.351  10.787 -0.0468 -0.1727 -0.2805
 6480W        W10680   1.864   8.153   2.949  0.0825 -0.3019 -0.2173
 6481W        W10681   6.464   7.933   9.824  0.2353  0.1295  0.1933
 6482W        W10682   4.519   1.272  12.244 -0.2264  0.0149  0.2451
 6483W        W10683   4.290   5.427   9.182  0.0710 -0.2984  0.1592
 6484W        W10684  10.508   6.217   1.978  0.1519 -0.2696  0.4762
 6485W        W10685   8.339   2.321  11.770 -0.0480  0.1732 -0.2120
 6486W        W10686   1.687   0.204   1.576  0.2499 -0.1625  0.3121
 6487W        W10687   5.838   1.748  10.647 -0.0931  0.2798  0.1324
 6488W        W10688  10.223   1.242   0.721  0.0627 -0.0418 -0.0869
 6489W        W10689   5.577   6.426   1.589  0.1310  0.0684  0.2092
 6490W        W10690   3.852   2.155   9.201  0.1155 -0.0124  0.2686
 6491W        W10691   8.305   5.156  12.805 -0.1922  0.1376  0.1526
 6492W        W10692   8.031   2.376  13.176 -0.0914 -0.4528 -0.0899
 6493W        W10693   9.257   2.854   5.055  0.0140  0.1587  0.0354
 6494W        W10694   2.063   9.745   3.693  0.0599  0.0315 -0.0148
 6495W        W10695   2.389  10.004   4.136 -0.0685 -0.5263  0.0238
 6496W        W10696   4.814   8.401   1.427  0.3628 -0.1005  0.0950
 6497W        W10697   3.730   2.927  11.758 -0.3640  0.1887 -0.1821
 6498W        W10698   2.732   3.225  11.578 -0.2177  0.1064 -0.0252
 6499W        W10699   9.118   5.436   0.429  0.1070  0.1879 -0.0084
 6500W        W10700   1.388   8.274   3.046  0.1077  0.2657  0.0779
 6501W        W10701   2.395   7.797  11.137  0.1181 -0.2364 -0.2656
 6502W        W10702   9.544   0.238  11.984  0.1396 -0.1714 -0.2353
 6503W        W10703   7.501   8.101  12.746  0.2464  0.0590 -0.2326
 6504W        W10704   9.304   2.399  12.517 -0.1802 -0.2396 -0.2340
 6505W        W10705   7.673   5.143   2.525 -0.0120 -0.2023  0.3443
 6506W        W10706   9.365   7.239   3.120 -0.1983  0.4416 -0.0725
 6507W        W10707   0.393   3.945  10.994  0.0077 -0.0423 -0.3306
 6508W        W10708   4.189   1.825   1.203  0.5345 -0.1479  0.0304
 6509W        W10709   6.417   4.232  12.057  0.0105  0.1877  0.2792
 6510W        W10710   0.889   8.305   9.310  0.1379 -0.0384 -0.1168
 6511W        W10711   5.735   3.893   0.049 -0.0117  0.1027 -0.1513
 6512W        W10712  10.395   8.588   2.816  0.1392 -0.1429  0.0316
 6513W        W10713   4.579   3.892   0.505  0.0329  0.1480  0.2641
 6514W        W10714   0.606   1.287   1.698  0.2095  0.2192  0.2688
 6515W        W10715   4.927   8.942   2.904 -0.1313  0.0092 -0.0453
 6516W        W10716   5.932   6.448  12.881  0.1800 -0.0981  0.0560
 6517W        W10717   2.703   3.996  10.294 -0.1588 -0.0489  0.0202
 6518W        W10718   3.882   1.703   2.696 -0.0090  0.3405  0.2975
 6519W        W10719   1.321   6.330   1.116  0.2587 -0.2992  0.1289
 6520W        W10720   0.291   8.246   4.608  0.0750  0.1164  0.0884
 6521W        W10721   3.232   5.102  11.441  0.1966 -0.1912  0.1411
 6522W        W10722   1.497   4.829   0.119  0.2182  0.0731 -0.0212
 6523W        W10723   6.981   8.390   2.534 -0.1697  0.5245  0.3209
 6524W        W10724   9.762   9.983   0.925 -0.0866 -0.3000  0.3028
 6525W        W10725   9.940   8.177   4.577  0.0072  0.1050  0.0229
 6526W        W10726   3.036   6.834   2.790  0.1714  0.0027 -0.0585
 6527W        W10727   0.831   1.872   0.722  0.3229  0.2755  0.0588
 6528W        W10728   4.050   7.215  10.635 -0.1142  0.1393  0.2298
 6529W        W10729   6.941   8.835  10.476  0.0372  0.2070 -0.0940
 6530W        W10730   5.103   2.999   9.372  0.1103 -0.1471  0.0375
 6531W        W10731   4.849   5.424   9.274  0.2733 -0.4234  0.0831
 6532W        W10732  10.084   3.953   3.355 -0.0533 -0.1950 -0.1059
 6533W        W10733   9.809   8.540   2.966 -0.3193  0.0090 -0.1946
 6534W        W10734   6.815   7.715   2.989  0.0378  0.3229 -0.2218
 6535W        W10735  10.094   7.736   1.231 -0.1692  0.0154 -0.1615
 6536W        W10736   9.720   1.575   2.643  0.1641  0.1546  0.0780
 6537W        W10737   4.588   7.607   3.026  0.0295 -0.0629  0.0272
 6538W        W10738   8.580   5.932   9.439 -0.2037  0.1644  0.1870
 6539W        W10739   9.421   7.997  12.955 -0.2325  0.2895 -0.1799
 6540W        W10740   8.454   1.227   1.327  0.2698  0.0352  0.0371
 6541W        W10741   5.747   0.442   8.481 -0.0061 -0.0574  0.2771
 6542W        W10742  10.172   1.790  12.230  0.0726 -0.1150  0.0654
 6543W        W10743   0.886   1.349   3.512 -0.0548  0.2165  0.2006
 6544W        W10744   4.659   0.794   2.109 -0.1128  0.2848  0.2433
 6545W        W10745   0.351   2.087   3.790  0.0463 -0.1731 -0.0619
 6546W        W10746   3.531   3.086  12.834  0.0050 -0.0250  0.1059
 6547W        W10747   7.189   5.474   4.079  0.2573 -0.0794 -0.0038
 6548W        W10748   7.410   4.879  11.343  0.0036  0.2095 -0.1976
 6549W        W10749   3.503   4.001   9.900  0.2425  0.2915 -0.1148
 6550W        W10750   7.546   7.372   0.094  0.0483 -0.0456  0.0996
 6551W        W10751   4.484   6.970   8.584  0.0684 -0.0480 -0.2381
 6552W        W10752   7.089   7.743   3.544 -0.0256  0.3137  0.0993
 6553W        W10753   9.973   0.341   9.995  0.3473  0.3084  0.1789
 6554W        W10754   7.039   8.733   9.015  0.0242 -0.3312 -0.0639
 6555W        W10755   7.747   4.863  12.276  0.4237 -0.0863  0.0602
 6556W        W10756   3.587   3.117   9.868  0.5088  0.0225  0.2522
 6557W        W10757   4.804   3.751   3.612  0.0335 -0.3131  0.0022
 6558W        W10758   4.572   8.053   0.152 -0.2015 -0.2790  0.3979
 6559W        W10759   1.774   7.198  11.845  0.0581 -0.1634  0.1309
 6560W        W10760   3.537   7.110  10.913  0.2379  0.1992  0.1613
 6561W        W10761   3.072   3.679   2.491  0.1591 -0.1906 -0.2108
 6562W        W10762   0.458   8.617   9.799 -0.1163 -0.0579  0.0866
 6563W        W10763   2.308   3.964   4.477  0.0581 -0.0825  0.4616
 6564W        W10764   8.933   4.362  10.989  0.1708  0.0688  0.1785
 6565W        W10765   0.362   3.112  11.619 -0.1985 -0.1429  0.3378
 6566W        W10766   4.038   2.083  12.410 -0.2346  0.0267 -0.2970
 6567W        W10767   3.816   6.131  12.003  0.2108 -0.2662 -0.2522
 6568W        W10768   8.757   0.207   3.393 -0.0927  0.1076 -0.0572
 6569W        W10769  10.312   9.106  10.930  0.1977  0.1201  0.1060
 6570W        W10770   8.663   3.675   2.589 -0.2574  0.3181 -0.3781
 6571W        W10771   1.476   2.614   9.532  0.0699 -0.1769 -0.0035
 6572W        W10772   5.021   2.405   3.635  0.0419  0.2378 -0.0226
 6573W        W10773   5.772   0.783  11.680 -0.3675  0.1193  0.1437
 6574W        W10774   7.126   6.519  10.719  0.4429  0.0977  0.1075
 6575W        W10775   7.564   5.780   9.206  0.3744 -0.0466  0.1262
 6576W        W10776   3.641   1.613  11.405  0.0281 -0.0075 -0.1116
 6577W        W10777   9.874   2.727  11.747  0.0252  0.1942  0.1984
 6578W        W10778   3.575   0.915  10.512 -0.0850  0.1600  0.0065
 6579W        W10779   1.277   2.755   0.429 -0.0499  0.1773  0.4659
 6580W        W10780   6.281   1.770  11.775  0.0776 -0.3073 -0.0560
 6581W        W10781   6.395   2.578   0.273  0.0452  0.0947  0.0437
 6582W        W10782   1.266   6.918   1.746 -0.0698 -0.1807 -0.1790
 6583W        W10783   5.324   2.699  10.655  0.1060 -0.0899  0.0697
 6584W        W10784   5.601   0.301  11.579 -0.0694  0.0240 -0.1207
 6585W        W10785   0.424   2.827  12.532  0.0314 -0.2161 -0.0534
 6586W        W10786   0.433   1.672   2.760 -0.0110 -0.0126 -0.3462
 6587W        W10787   6.467   0.405   2.578  0.0412 -0.0211 -0.0354
 6588W        W10788   6.632   8.129  11.033 -0.2803 -0.0334  0.0179
 6589W        W10789   3.088   8.980   8.207  0.1982  0.1019 -0.0212
 6590W        W10790   1.644  10.477   4.303 -0.0478 -0.1090 -0.0468
 6591W        W10791   3.982   7.093   0.549 -0.0703 -0.0374 -0.0272
 6592W        W10792   7.764   6.515   3.167 -0.1338  0.2927  0.1164
 6593W        W10793   1.033   5.666   2.323 -0.0472 -0.1779 -0.0353
 6594W        W10794   2.315   2.994   0.767 -0.0423 -0.0524 -0.4375
 6595W        W10795   7.166   9.105   1.118 -0.3000 -0.0068 -0.1909
 6596W        W10796   1.071   1.447   2.074  0.1185  0.4053  0.0484
 6597W        W10797   3.688   0.581  13.024 -0.0786  0.0575 -0.1375
 6598W        W10798   0.892   4.846  12.586 -0.0425  0.2477 -0.1915
 6599W        W10799   3.568   8.719   9.698 -0.0458  0.0839 -0.1867
 6600W        W10800   1.937   3.758   1.841  0.1583 -0.3114  0.4455
 6601W        W10801   8.469   0.699  10.393 -0.2471 -0.1094 -0.1952
 6602W        W10802   5.554   6.609  11.180 -0.1599 -0.0351 -0.1063
 6603W        W10803   5.067   7.769   2.240 -0.0239  0.0704 -0.1666
 6604W        W10804   8.167   3.945   8.710  0.0069 -0.1221 -0.2483
 6605W        W10805   1.927   3.782   9.757 -0.3150 -0.2478  0.0769
 6606W        W10806   3.629   2.629   3.581  0.0099 -0.1219  0.2603
 6607W        W10807   1.475   5.422   2.451  0.1110 -0.8420  0.3729
 6608W        W10808   4.597   1.295   0.614 -0.0050  0.1540  0.1522
 6609W        W10809   4.755   4.264   0.180  0.1070 -0.0944 -0.1321
 6610W        W10810   6.575   3.189  12.842  0.1323  0.1794 -0.1126
 6611W        W10811   8.771   8.234  12.246 -0.0535 -0.0673 -0.3399
 6612W        W10812   5.256   3.593   2.097 -0.0639  0.0753 -0.3036
 6613W        W10813   1.744   9.721  11.100 -0.1469  0.1346  0.0264
 6614W        W10814   7.909   0.771  12.824  0.0738 -0.3578  0.0633
 6615W        W10815   2.605   6.987  12.827  0.0578  0.1883  0.2149
 6616W        W10816   9.221   9.152   1.008  0.1062  0.0094 -0.1549
 6617W        W10817   0.625   7.394   2.565  0.1172  0.0052 -0.0796
 6618W        W10818   4.950   5.362   3.186  0.1005  0.2617 -0.0118
 6619W        W10819   8.308   4.409  10.392 -0.2322  0.1845  0.2127
 6620W        W10820   3.863   6.226   4.678 -0.1031 -0.0032 -0.1187
 6621W        W10821   3.140   7.837  12.615  0.1218  0.0550 -0.2649
 6622W        W10822   8.867   1.418   3.165 -0.1900 -0.1781 -0.1382
 6623W        W10823  10.414   4.411   0.791 -0.1695 -0.1195  0.1824
 6624W        W10824   0.308   9.002  11.861  0.3343 -0.1560 -0.0519
 6625W        W10825   0.730   5.141  13.024 -0.0855 -0.2948  0.0663
 6626W        W10826   6.494   4.879   1.951 -0.0152  0.0325  0.2450
 6627W        W10827   8.516   4.300   0.855 -0.0424 -0.1438  0.1198
 6628W        W10828   8.346   4.772   3.655  0.0340 -0.0833  0.0900
 6629W        W10829   5.496  10.070  12.307  0.3035  0.0348 -0.0621
 6630W        W10830   7.145   9.371   2.159 -0.2143  0.1586  0.4234
 6631W        W10831   8.938   0.099   0.897 -0.3112  0.0406 -0.1471
 6632W        W10832   8.317   6.031  11.867  0.0346  0.1388  0.1601
 6633W        W10833   3.344   1.201   5.428 -0.1114 -0.3103  0.2051
 6634W        W10834   6.545   8.047   9.340  0.2422  0.3674  0.2250
 6635W        W10835   4.927   0.587   3.425 -0.1255 -0.1235  0.1476
 6636W        W10836   2.890   6.360  10.300 -0.1916 -0.1890 -0.0071
 6637W        W10837   4.142   4.139   2.060 -0.1156  0.1346  0.1130
 6638W        W10838   4.934   0.397   2.345 -0.2367 -0.0831  0.0354
 6639W        W10839   6.505   8.814   9.756 -0.0925 -0.0846 -0.4018
 6640W        W10840   8.222   4.320  11.231  0.1258  0.0418  0.1377
 6641W        W10841   5.415   6.834   0.275 -0.3794  0.1675  0.1358
 6642W        W10842   6.380   0.481   0.767 -0.3110  0.0519 -0.0291
 6643W        W10843   3.739   6.462  11.514 -0.2577 -0.2543  0.4006
 6644W        W10844   7.047   6.596   9.437  0.1218 -0.2112 -0.0677
 6645W        W10845   9.428  10.027   3.348  0.0961 -0.0726  0.2221
 6646W        W10846   3.242   1.369   3.453 -0.6077  0.1371  0.1388
 6647W        W10847   0.253   2.333  12.764  0.0778 -0.3470  0.3065
 6648W        W10848   4.759   0.422   8.141 -0.1774  0.0568 -0.1668
 6649W        W10849   3.830   4.686   2.805  0.1040 -0.1744  0.1970
 6650W        W10850   1.674   4.493   1.012  0.1267 -0.0274  0.0218
 6651W        W10851   0.354   6.182   0.941  0.0980  0.0537 -0.1506
 6652W        W10852   8.482   6.600   1.394  0.1447  0.3212 -0.0327
 6653W        W10853   6.645   7.355   3.448  0.3087 -0.0766  0.3340
 6654W        W10854   1.601   2.457  13.169 -0.1166 -0.1881 -0.1005
 6655W        W10855   1.909   9.006   8.946 -0.1131 -0.2026 -0.3009
 6656W        W10856   2.569   4.748  13.146 -0.1411  0.2085 -0.1537
 6657W        W10857   4.402   6.060   0.954 -0.0099 -0.1505 -0.1622
 6658W        W10858  10.288   9.038   0.808  0.1538 -0.4346  0.1797
 6659W        W10859   3.465   1.075  13.082 -0.2247 -0.3951  0.2933
 6660W        W10860   4.369   1.367   4.206  0.2221  0.1262  0.1404
 6661W        W10861   8.455   3.374  11.930  0.2583 -0.1317 -0.2487
 6662W        W10862   4.329   3.592   3.660 -0.2006 -0.2316  0.0897
 6663W        W10863   5.077   3.152   8.872  0.0383  0.0725 -0.2401
 6664W        W10864   4.908   6.654  10.423  0.0506  0.3303  0.0135
 6665W        W10865   6.322   0.822   1.791  0.0529 -0.1387 -0.1804
 6666W        W10866   5.971   3.078   9.975  0.0067 -0.0005  0.3420
 6667W        W10867   4.879   1.487  13.148 -0.0963  0.2665 -0.1426
 6668W        W10868   5.621   9.768  11.418 -0.1656  0.0642  0.1897
 6669W        W10869   8.830   4.248   0.439 -0.2619 -0.0466 -0.0942
 6670W        W10870   6.436   3.163   9.112 -0.1078 -0.2161 -0.0921
 6671W        W10871   0.276   5.192   1.939  0.0841 -0.1229 -0.3516
 6672W        W10872   5.744   4.272  12.997  0.2159  0.2749  0.0234
 6673W        W10873   2.308   4.382   9.479 -0.2023  0.0430  0.0852
 6674W        W10874   6.604   1.661   0.145 -0.2994 -0.1858 -0.2173
 6675W        W10875   0.808   9.240  11.961  0.3660  0.1876  0.0270
 6676W        W10876   9.617   0.702  12.952 -0.2225 -0.2596 -0.3710
 6677W        W10877   0.774   1.958   2.960  0.1780 -0.1012 -0.5212
 6678W        W10878   9.429   3.966   2.334 -0.0014  0.0465 -0.3441
 6679W        W10879   1.998   1.350   0.581 -0.1747 -0.2855 -0.4510
 6680W        W10880   2.009   2.334  12.970  0.0545 -0.0845  0.1307
 6681W        W10881   3.801   9.710   9.719 -0.1196  0.0471 -0.4936
 6682W        W10882   3.027   9.796  10.367 -0.1151  0.1811 -0.2483
 6683W        W10883   7.793   5.553   3.573  0.1193  0.3498 -0.0252
 6684W        W10884   0.174   8.555  12.987 -0.1345 -0.0272 -0.1838
 6685W        W10885   2.763   8.022   2.259  0.0606 -0.0890 -0.0675
 6686W        W10886   8.768   4.873  11.845  0.2807 -0.1269 -0.1862
 6687W        W10887   2.168  10.508   2.290 -0.0319 -0.1683  0.2621
 6688W        W10888   3.692   1.989  10.012  0.1762  0.0102 -0.0421
 6689W        W10889   5.919   3.737  10.490  0.3148 -0.1529 -0.3051
 6690W        W10890   2.737   8.995  12.995 -0.1128  0.0917  0.1037
 6691W        W10891   9.869   7.240   1.214  0.0854 -0.0607  0.1336
 6692W        W10892   2.785   9.004   3.894 -0.1360 -0.0453 -0.2494
 6693W        W10893   5.588   7.645   2.401  0.0557  0.1935  0.1656
 6694W        W10894   9.222   5.917  12.912 -0.0786 -0.2507  0.1149
 6695W        W10895   6.760   0.785   4.171 -0.0910  0.1286 -0.0727
 6696W        W10896   2.272   1.684   2.747 -0.0615  0.1859  0.1619
 6697W        W10897   7.781   6.820   2.752 -0.0011 -0.3046  0.0390
 6698W        W10898   5.124   2.031  13.071 -0.2008  0.0331  0.1262
 6699W        W10899   9.848   9.102   0.368 -0.3558  0.1179 -0.2974
 6700W        W10900   9.856   4.946   1.785 -0.0181 -0.0173 -0.0015
 6701W        W10901   0.276   7.756  10.223 -0.1824  0.0097  0.2063
 6702W        W10902   3.943   1.034  10.818  0.0405  0.0741 -0.0381
 6703W        W10903   9.052   3.798   9.782 -0.0131  0.1818 -0.1915
 6704W        W10904   9.524   9.435   2.600  0.2188  0.2543 -0.2144
 6705W        W10905   4.561   6.256   3.061 -0.2870 -0.2802  0.4260
 6706W        W10906   1.667   6.579  12.615  0.0668 -0.2250 -0.0631
 6707W        W10907   0.380   4.771  12.658 -0.0745 -0.0696  0.1915
 6708W        W10908   6.196   5.834  12.204  0.0510 -0.0972  0.1615
 6709W        W10909   5.200   7.099  11.079 -0.2504  0.2348  0.4051
 6710W        W10910   8.794   9.817   1.626 -0.0246  0.4031  0.0221
 6711W        W10911   4.984   3.848  11.420  0.1304 -0.1365  0.0586
 6712W        W10912  10.393   2.370   9.476 -0.3470  0.2200 -0.1337
 6713W        W10913  10.309   7.930   3.691 -0.1056 -0.0806 -0.0553
 6714W        W10914   8.056   4.942  11.275  0.0174 -0.0346  0.2470
 6715W        W10915   1.490   0.966   4.285  0.2716 -0.0440  0.0296
 6716W        W10916  10.301   5.601  12.626 -0.3070 -0.1783  0.0095
 6717W        W10917   5.783   4.974  12.951 -0.1157 -0.1717 -0.0820
 6718W        W10918   8.202   9.094  12.185 -0.2933 -0.1676  0.2602
 6719W        W10919   0.015   4.486   1.641  0.4322  0.0169 -0.2525
 6720W        W10920   8.407   0.040   9.655 -0.0818  0.0652  0.0721
 6721W        W10921   7.485   6.048   0.293  0.2280 -0.2813  0.0856
 6722W        W10922   8.391   2.265   3.440 -0.0392  0.1381  0.1272
 6723W        W10923   8.899   0.182   4.309 -0.1342 -0.2100 -0.0063
 6724W        W10924   2.983   3.154   3.914  0.0254  0.1447 -0.2419
 6725W        W10925  10.399   3.029   0.541 -0.0745  0.1707 -0.0336
 6726W        W10926   0.829   5.842   3.591 -0.1953 -0.0583 -0.0598
 6727W        W10927   7.580   8.636   9.826 -0.1204  0.1005 -0.0092
 6728W        W10928   4.418   0.833   9.447 -0.0136 -0.1746  0.0835
 6729W        W10929   7.426  10.462   9.022 -0.1079 -0.0416 -0.2097
 6730W        W10930   7.829   9.882  10.922 -0.4157  0.0875 -0.0642
 6731W        W10931   7.434   9.220   4.848 -0.0317  0.1681 -0.0294
 6732W        W10932   5.054   7.022   3.039 -0.1923  0.0051  0.3669
 6733W        W10933   5.702   2.552  12.106  0.1286 -0.1370 -0.1677
 6734W        W10934   2.581   5.596   0.272  0.1240 -0.0341  0.1150
 6735W        W10935   5.177   0.327  12.496  0.1533 -0.0204  0.0537
 6736W        W10936   8.592   6.764   0.819  0.4087  0.0506 -0.0852
 6737W        W10937   0.940   5.857  11.017 -0.0994  0.1016 -0.2078
 6738W        W10938   5.999   2.670   9.076 -0.1019  0.1107 -0.2031
 6739W        W10939   5.351   0.271   2.725 -0.0070  0.1398  0.2199
 6740W        W10940   0.401   5.011   0.270 -0.0575  0.4008 -0.2500
 6741W        W10941   2.847   5.481  13.243  0.2866  0.1495  0.0635
 6742W        W10942   9.595   2.970  13.049 -0.1403  0.0024 -0.0913
 6743W        W10943   1.916   7.325  13.160 -0.1030  0.0502 -0.4929
 6744W        W10944   1.405   9.432   0.147  0.0779 -0.2990  0.0904
 6745W        W10945   8.854  10.157   0.486  0.1224  0.1008  0.0783
 6746W        W10946   5.087  10.330   8.774  0.2478 -0.2165 -0.1673
 6747W        W10947   5.478   5.108   8.988 -0.0368 -0.1008  0.3469
 6748W        W10948   3.285   5.737  12.474 -0.2998 -0.2179 -0.0929
 6749W        W10949   2.944   1.544   1.017 -0.1946 -0.0380 -0.1378
 6750W        W10950   6.607   9.072   9.207  0.0043  0.1688  0.1364
 6751W        W10951   6.226   6.675  13.348  0.3344 -0.0494  0.1320
 6752W        W10952   1.056   2.739   1.804 -0.2121  0.2713 -0.1101
 6753W        W10953   7.253   3.793   4.280 -0.0173 -0.1104  0.0329
 6754W        W10954   1.927   9.243   0.005  0.1787 -0.2187 -0.1315
 6755W        W10955   6.417   5.807  10.197  0.0700 -0.0360 -0.1047
 6756W        W10956   1.202   3.636   2.101  0.3067 -0.0434 -0.0540
 6757W        W10957   4.959   6.899   9.968  0.0275 -0.3719  0.1053
 6758W        W10958   5.568   0.671  12.546  0.0557 -0.0351  0.1910
 6759W        W10959  10.458   6.588   4.122  0.3655  0.0448  0.1908
 6760W        W10960   1.245   5.166   2.015  0.0177 -0.0215  0.0444
 6761W        W10961   7.590   7.378  11.087  0.0088  0.0176  0.3340
 6762W        W10962   4.909   2.164   0.732 -0.0180  0.0624  0.1087
 6763W        W10963   9.598  10.314   2.855  0.1764 -0.0572  0.2782
 6764W        W10964   7.260   9.762   0.146 -0.2886 -0.2437 -0.0654
 6765W        W10965   5.760   1.572   0.702 -0.1088  0.0397  0.2826
 6766W        W10966   8.658   1.896   8.017  0.3659  0.0484 -0.1807
 6767W        W10967   7.780   2.232   0.674 -0.3202  0.1555  0.2386
 6768W        W10968   5.201   0.403  10.352 -0.1454  0.2072 -0.3117
 6769W        W10969   3.450   5.337   2.053 -0.1239  0.0095  0.0252
 6770W        W10970   0.020   7.831   9.304 -0.1984  0.4549 -0.4210
 6771W        W10971   4.196   7.511   1.307  0.0112  0.0688  0.0183
 6772W        W10972   7.675   3.339   2.660  0.1546 -0.2583 -0.1005
 6773W        W10973   8.812   7.429  10.872 -0.0488 -0.4481 -0.0183
 6774W        W10974   8.620   4.946   9.340  0.3644  0.0017 -0.0092
 6775W        W10975   3.526   4.664   0.773 -0.3658 -0.2581 -0.1644
 6776W        W10976  10.351   2.561  10.519  0.0382  0.1363  0.1215
 6777W        W10977   1.815   6.261   9.953  0.0145 -0.1314  0.0968
 6778W        W10978  10.509   7.951   0.986 -0.1237  0.3401  0.1885
 6779W        W10979   1.589   3.584   3.284  0.0778 -0.1304 -0.2355
 6780W        W10980   3.014   1.876   0.051 -0.3099  0.0230  0.1472
 6781W        W10981   6.954  10.469   4.198 -0.0991 -0.1202 -0.1491
 6782W        W10982   4.378   8.462   9.288 -0.0440 -0.1408 -0.0868
 6783W        W10983   0.694   2.818  11.798  0.1771  0.1099  0.0612
 6784W        W10984   3.443   8.006   1.454  0.1692 -0.2090  0.1787
 6785W        W10985   8.346   3.934  10.964  0.1201 -0.5168  0.4889
 6786W        W10986  10.406   0.833   4.995 -0.0179 -0.0165 -0.0897
 6787W        W10987   9.042   6.340  10.748 -0.0373  0.3311 -0.1474
 6788W        W10988   6.784   4.225  10.175 -0.0855 -0.2899  0.1717
 6789W        W10989   2.384   7.027   2.054 -0.2100 -0.1376 -0.4664
 6790W        W10990   0.857   4.779   0.050  0.0713 -0.0441 -0.3436
 6791W        W10991   5.938   0.798   9.982  0.0989 -0.3076 -0.1256
 6792W        W10992   9.271   6.454  11.860  0.0269 -0.2829 -0.1227
 6793W        W10993   7.414   0.601  13.118 -0.1822 -0.1829  0.1671
 6794W        W10994  10.210   5.195  10.511 -0.0477 -0.1895 -0.0680
 6795W        W10995   0.777   0.449  11.677 -0.1714 -0.0820 -0.0445
 6796W        W10996   8.950   4.203   8.972  0.3785 -0.3355  0.1194
 6797W        W10997   7.605   5.392   1.092  0.1004 -0.1924  0.0402
 6798W        W10998   6.566   9.283   8.718  0.0722 -0.0240 -0.0038
 6799W        W10999   9.521  10.514   3.619 -0.0689  0.1190 -0.0439
 6800W        W11000  10.095   6.789   2.955 -0.0583  0.0377 -0.0063
 6801W        W11001   6.852   6.317  13.004  0.0764  0.0517  0.3669
 6802W        W11002   3.679   0.245  11.026  0.2500  0.1180 -0.0383
 6803W        W11003   1.833   2.020   0.041  0.3300 -0.0349  0.3479
 6804W        W11004   4.506   8.444   8.465  0.1567  0.3039 -0.2572
 6805W        W11005  10.056   7.004  12.149 -0.3049  0.0670 -0.3150
 6806W        W11006   1.214   3.567  12.872  0.2213 -0.0582  0.2156
 6807W        W11007   3.237   2.340  12.132 -0.0231  0.0611  0.3346
 6808W        W11008   3.747   1.867   1.405 -0.1358 -0.2589  0.2322
 6809W        W11009   7.003   0.516   8.700 -0.1608 -0.0389  0.3903
 6810W        W11010  10.122   9.669  11.641  0.2180  0.0400 -0.0818
 6811W        W11011   9.676   2.197  10.974  0.1791 -0.3681  0.0084
 6812W        W11012   0.041   4.261  13.289  0.1056  0.0038  0.3473
 6813W        W11013   6.017   4.449   3.301 -0.0011 -0.0050 -0.1150
 6814W        W11014   9.970   4.183   0.783  0.1450  0.0738 -0.2081
 6815W        W11015   0.118   6.917  10.201 -0.1271  0.1471  0.0332
 6816W        W11016   0.161   5.950   1.361 -0.1285 -0.0164 -0.1760
 6817W        W11017   7.399   3.782   0.265  0.2169 -0.0406  0.0076
 6818W        W11018   6.661   7.642   0.220 -0.1575 -0.1976 -0.1052
 6819W        W11019   3.100  10.440   9.503 -0.0773 -0.2536 -0.2884
 6820W        W11020   8.222   9.616   2.687  0.0506 -0.1808  0.0275
 6821W        W11021   3.707   6.943   1.440  0.1532  0.3414  0.1700
 6822W        W11022   4.713  10.346   1.126  0.0337  0.0995  0.2863
 6823W        W11023   6.580   6.492  10.716 -0.0669  0.1122  0.0297
 6824W        W11024   6.748   5.018   1.029  0.1241  0.3047  0.0690
 6825W        W11025   3.516   0.861  12.123 -0.0077  0.2837  0.1837
 6826W        W11026   6.232   9.792  12.091 -0.0686  0.1877 -0.1289
 6827W        W11027   1.799   9.418   2.136  0.1517 -0.2529  0.2007
 6828W        W11028   0.827   7.135   3.008  0.0367 -0.1625  0.1228
 6829W        W11029  10.105   9.147   9.293 -0.3738 -0.0450 -0.0805
 6830W        W11030   2.241   7.379  10.711  0.0542 -0.1186 -0.2130
 6831W        W11031   4.058   8.325  13.012 -0.2925 -0.0328  0.3265
 6832W        W11032   1.746   2.554  12.533 -0.2381  0.0821 -0.0408
 6833W        W11033   0.923   2.148   1.154 -0.2288  0.0684  0.1120
 6834W        W11034   9.116   6.746   2.912  0.1351 -0.0322 -0.1152
 6835W        W11035   5.821   3.854  12.711 -0.3350 -0.2940  0.1450
 6836W        W11036   7.541   3.272   1.641  0.2100 -0.1734  0.1929
 6837W        W11037   3.803   1.716   3.456  0.1031 -0.0548  0.3506
 6838W        W11038   5.145   7.633   0.759  0.1064 -0.2815 -0.0923
 6839W        W11039   6.383   6.203  13.085  0.1409 -0.0671 -0.3521
 6840W        W11040   6.124   2.251   1.191  0.1190  0.1430 -0.1429
 6841W        W11041   9.396  10.411  10.000  0.1188  0.1033  0.0976
 6842W        W11042   7.580   2.817   2.730  0.0381  0.1245 -0.1330
 6843W        W11043   6.412   5.436   9.823 -0.2461 -0.0842  0.0394
 6844W        W11044   1.209   2.604  12.614  0.0282  0.1552 -0.0139
 6845W        W11045   9.001   6.722   1.577  0.0294  0.1112  0.0634
 6846W        W11046   4.211   4.763  12.425 -0.0322 -0.3184 -0.1608
 6847W        W11047   4.143   2.968   8.648 -0.1631  0.0660  0.2604
 6848W        W11048   7.074   7.096  11.903 -0.0312 -0.3071 -0.1075
 6849W        W11049   7.423   6.937  10.491 -0.0546  0.0964 -0.0300
 6850W        W11050   7.078   5.875   3.238 -0.1219  0.1216  0.1452
 6851W        W11051   7.927   1.471  11.822 -0.2523  0.1108 -0.1475
 6852W        W11052   2.587   5.695   2.421  0.1912 -0.3947  0.2881
 6853W        W11053   2.033   5.478   0.050  0.0651  0.0275 -0.0570
 6854W        W11054   5.521   2.468  13.250  0.4616 -0.1603  0.1843
 6855W        W11055   1.413   5.889   2.485 -0.0261 -0.2131  0.2789
 6856W        W11056   7.255   5.786   0.944 -0.2950  0.1754  0.2100
 6857W        W11057   3.999   6.290   0.809 -0.2081 -0.2416  0.2239
 6858W        W11058   4.031   0.551  11.962  0.0598 -0.3104  0.2460
 6859W        W11059   4.672   4.959   3.094 -0.2893  0.5026  0.3969
 6860W        W11060  10.506   4.889   0.689  0.0123 -0.0593  0.1809
 6861W        W11061   5.199  10.408   0.103 -0.0428 -0.1968  0.0788
 6862W        W11062   3.473   2.881  10.750  0.0699  0.4147  0.1997
 6863W        W11063   1.832   2.152   1.574 -0.0922 -0.1453  0.1018
 6864W        W11064   3.459   3.276   0.451 -0.2151  0.1753 -0.0898
 6865W        W11065   8.466   4.508   9.522 -0.2632 -0.1784  0.1341
 6866W        W11066   7.315   8.442  11.844  0.1304  0.1037 -0.1293
 6867W        W11067   4.095   8.458   4.465 -0.2253 -0.0832  0.3566
 6868W        W11068   0.622   9.868  10.229 -0.2846 -0.1202 -0.0013
 6869W        W11069   8.462   1.131   3.869  0.1703 -0.2399  0.1996
 6870W        W11070   7.958   2.220   4.535  0.1309 -0.2847 -0.1350
 6871W        W11071  10.290   1.414  10.245 -0.0290  0.0868  0.2746
 6872W        W11072   6.335   2.292  12.864  0.2762 -0.2314  0.1563
 6873W        W11073   3.886   4.541   1.210 -0.2701 -0.0834  0.1484
 6874W        W11074   0.255   2.951  12.048 -0.0337 -0.3597  0.3015
 6875W        W11075   8.505   4.920   1.717 -0.1344  0.0299  0.0190
 6876W        W11076   4.598  10.074   4.104 -0.2497 -0.1336 -0.2535
 6877W        W11077   6.851   6.293   9.094 -0.2023 -0.1746  0.2282
 6878W        W11078   1.836   3.253   3.086 -0.0775 -0.0010  0.0229
 6879W        W11079   3.346   3.432  10.604  0.0120 -0.0249 -0.0758
 6880W        W11080   2.512   7.220  11.378  0.1908  0.2794  0.0909
 6881W        W11081  10.134   9.976   0.576  0.0331 -0.2354  0.0653
 6882W        W11082   2.278   9.532  12.511  0.0656 -0.0771  0.0147
 6883W        W11083   9.159   7.007  10.065 -0.0330 -0.1359  0.0697
 6884W        W11084   8.293   6.178   9.053 -0.0068  0.1207  0.0049
 6885W        W11085   9.773   1.395   3.635  0.0858  0.0662  0.3505
 6886W        W11086   7.904   2.403  11.879 -0.0969 -0.2449  0.1158
 6887W        W11087   3.010   5.529  10.115  0.2165 -0.0839  0.0885
 6888W        W11088   1.629   4.071   2.725  0.1646 -0.0936  0.0994
 6889W        W11089   0.133  10.454  10.585  0.2532  0.1025  0.3264
 6890W        W11090   0.361   4.715  13.215  0.0161  0.1213 -0.2848
 6891W        W11091  10.119   5.844  12.994 -0.0108  0.0827  0.2202
 6892W        W11092   8.637   3.505  10.957  0.1735  0.0925 -0.1495
 6893W        W11093   8.329   3.190   3.336  0.1581  0.0977  0.0324
 6894W        W11094   0.811   7.982  12.940  0.0615 -0.1439  0.0090
 6895W        W11095   1.490   5.426   2.928 -0.0120  0.1287 -0.0634
 6896W        W11096   2.270   3.173  11.314  0.2577 -0.0621  0.2729
 6897W        W11097   7.949   6.830   1.570  0.3540 -0.1339  0.0225
 6898W        W11098   7.867   3.369  10.334 -0.1020 -0.1491  0.2857
 6899W        W11099   7.742   0.813  10.811 -0.4650 -0.1202 -0.1040
 6900W        W11100   2.675   1.034  12.850 -0.0504 -0.0262 -0.2516
 6901W        W11101   2.800   2.958   0.787 -0.0124 -0.0050 -0.3188
 6902W        W11102   9.636   9.746  10.643 -0.3823  0.0292  0.2565
 6903W        W11103   3.506   6.182  12.421 -0.1186  0.0413  0.4176
 6904W        W11104   2.518   1.016   0.467 -0.2448  0.0687 -0.0128
 6905W        W11105   8.034   9.545  12.361  0.3123  0.1799  0.0653
 6906W        W11106  10.193   0.953  10.307 -0.1770  0.1312  0.1622
 6907W        W11107   9.730   3.128   0.624  0.3050  0.1487  0.0876
 6908W        W11108   5.649   4.680   1.362 -0.0185 -0.1191  0.1446
 6909W        W11109   8.335   0.752   2.780 -0.1446  0.0529 -0.0679
 6910W        W11110   8.723   7.693  11.310  0.0801  0.2893  0.0616
 6911W        W11111   2.599   6.954  10.860  0.0679 -0.1493  0.2529
 6912W        W11112   5.194   7.503   9.648 -0.0069 -0.0840 -0.1095
 6913W        W11113   8.315  10.152  11.727  0.2277  0.3886 -0.0816
 6914W        W11114   3.597   2.886   1.412 -0.0671  0.1530 -0.1132
 6915W        W11115   1.088   9.261   0.842 -0.1180  0.1113 -0.1395
 6916W        W11116   1.953   7.873   9.576 -0.2862 -0.3219  0.1069
 6917W        W11117   0.577   8.878  12.812 -0.1407 -0.0237  0.1651
 6918W        W11118   2.266   4.780   3.074 -0.1455  0.1210 -0.1051
 6919W        W11119   1.803   7.621  10.492  0.0046  0.2133  0.0528
 6920W        W11120   4.372   9.596  12.236  0.1899  0.1950  0.0440
 6921W        W11121   7.776   1.392   0.752  0.1947 -0.1671 -0.0750
 6922W        W11122  10.225   9.303   1.231  0.0237 -0.0282 -0.1228
 6923W        W11123   0.246   5.854  12.607  0.2355  0.2464 -0.0541
 6924W        W11124   3.494   4.414  12.619  0.1536  0.0358 -0.0029
 6925W        W11125   6.580   5.972  12.704 -0.2452  0.1225  0.0997
 6926W        W11126   4.237   6.979   3.191 -0.1403 -0.3480 -0.3160
 6927W        W11127   5.811   8.658   9.566  0.2032  0.0322  0.1561
 6928W        W11128   9.463   8.288   2.574 -0.1019 -0.2157  0.1942
 6929W        W11129   8.302   6.015   1.646  0.0403  0.1126  0.0305
 6930W        W11130   5.963   7.495   1.583 -0.0692  0.0250 -0.0041
 6931W        W11131   7.037   2.679   3.673  0.2121 -0.0904  0.1134
 6932W        W11132   1.429   0.810   0.616  0.4567 -0.2745 -0.0530
 6933W        W11133   8.662   4.475   4.202  0.2385 -0.1244 -0.0670
 6934W        W11134   4.613   2.306   9.301  0.4551 -0.0749  0.1886
 6935W        W11135   0.177   5.727   1.866 -0.2579  0.0836 -0.1997
 6936W        W11136   3.665  10.262   0.081  0.0005  0.2858  0.0748
 6937W        W11137   5.758   5.994  13.078 -0.0383  0.1105  0.0688
 6938W        W11138   8.724   0.443   9.473 -0.1109 -0.3333 -0.4000
 6939W        W11139  10.250   3.231   1.394 -0.2019  0.1234 -0.0261
 6940W        W11140   7.899   4.812  12.766  0.1049  0.0508  0.1267
 6941W        W11141  10.089   6.366  12.020  0.2191  0.3431  0.1862
 6942W        W11142   3.077   5.162   3.952 -0.0854  0.0629 -0.1361
 6943W        W11143   0.254   2.361   1.169  0.0317 -0.0260 -0.0917
 6944W        W11144   5.744   7.044  13.264  0.0048 -0.0523  0.1478
 6945W        W11145   4.546   5.142   2.121  0.2739  0.0874 -0.3020
 6946W        W11146   1.987   5.203  11.823 -0.2220  0.1943 -0.3113
 6947W        W11147   9.516   4.904   0.921  0.1482  0.0671  0.1008
 6948W        W11148   4.507   4.618   9.755  0.2356  0.3440  0.1069
 6949W        W11149   2.793   8.420   0.369  0.1832 -0.0057 -0.1410
 6950W        W11150   9.899   1.696  10.410  0.0064  0.1364 -0.1138
 6951W        W11151   5.124   9.437  13.073 -0.0231 -0.0003  0.0306
 6952W        W11152   6.199   6.748   9.723  0.2921 -0.0220  0.2145
 6953W        W11153   8.057   3.924   9.443 -0.1532  0.1440 -0.1061
 6954W        W11154   5.479  10.502   4.339 -0.1016 -0.1413  0.0258
 6955W        W11155   1.911   2.060  12.524 -0.0307 -0.0277 -0.0111
 6956W        W11156   1.244   9.957   2.636  0.3303  0.1168 -0.0721
 6957W        W11157   9.731   4.501  10.993 -0.0856 -0.2261 -0.0453
 6958W        W11158   1.538   1.475   2.259  0.0624 -0.2441  0.3880
 6959W        W11159   4.369   6.406   2.230 -0.1988  0.0303 -0.3972
 6960W        W11160   8.385   6.300  11.395  0.0460 -0.1773  0.0316
 6961W        W11161   4.588   3.037   1.328  0.1230  0.0779  0.1936
 6962W        W11162   4.338   0.492   1.607 -0.0585  0.0008  0.1365
 6963W        W11163   1.484   8.030  11.637 -0.0001 -0.0095  0.0749
 6964W        W11164   3.271   3.020  13.273 -0.3204  0.0970  0.0052
 6965W        W11165   9.072   4.673   8.152 -0.2210  0.0803  0.0861
 6966W        W11166   7.656   7.652   3.411 -0.6708  0.0632 -0.0006
 6967W        W11167  10.055  10.140   4.124  0.0199  0.0375  0.0035
 6968W        W11168   0.193   2.265   0.391 -0.0622  0.2590 -0.1435
 6969W        W11169   0.103   6.555  11.919 -0.0735  0.2596  0.2483
 6970W        W11170  10.363   0.366  11.606  0.0665 -0.2044  0.0467
 6971W        W11171   1.578   0.416   4.482  0.1143  0.0014  0.0049
 6972W        W11172   8.376   9.590   8.607 -0.3110  0.0922  0.1148
 6973W        W11173   1.890   2.119   3.294  0.1743 -0.0305 -0.1942
 6974W        W11174   2.563   2.803   0.372  0.2068 -0.1452 -0.1639
 6975W        W11175   5.634   6.230  12.535  0.0427 -0.0777 -0.2253
 6976W        W11176   7.954   7.491  12.153 -0.3201 -0.2347  0.0032
 6977W        W11177   9.103   4.094   2.689 -0.1863 -0.3709  0.0685
 6978W        W11178   3.713   9.761  10.981 -0.0146 -0.1358  0.3362
 6979W        W11179  10.058   1.854   9.987  0.2568 -0.1743 -0.2222
 6980W        W11180   4.512   4.698  12.819  0.0005 -0.0099 -0.3769
 6981W        W11181   4.684   1.423  10.941  0.0628  0.0108 -0.0188
 6982W        W11182   1.591   9.243  11.289 -0.2250 -0.0560 -0.0849
 6983W        W11183   9.689   0.468   1.772 -0.0787 -0.0688  0.0860
 6984W        W11184   5.627   8.271  10.197 -0.0163  0.2113  0.0895
 6985W        W11185   3.804   1.160   9.071 -0.0646 -0.1775 -0.2540
 6986W        W11186   9.396   3.095  11.517  0.1052  0.2951  0.0567
 6987W        W11187   1.617   4.554   3.090 -0.1669 -0.3555  0.1880
 6988W        W11188   1.891   2.330   2.026 -0.1803  0.0305  0.0036
 6989W        W11189   2.803   5.052  12.065  0.0422 -0.2468 -0.3033
 6990W        W11190   0.524   5.672   2.547 -0.1280  0.0111 -0.0432
 6991W        W11191   1.454   7.024   3.514 -0.3645 -0.0489 -0.0967
 6992W        W11192   7.071   7.276  12.846  0.1820 -0.1268 -0.0381
 6993W        W11193   4.152   1.515  11.155 -0.1636  0.0810  0.2061
 6994W        W11194   8.503   7.598   4.757 -0.0446 -0.7374  0.1885
 6995W        W11195   1.901   7.966   3.802 -0.0957  0.1809  0.0074
 6996W        W11196   1.666   0.065   9.551  0.1833  0.5304 -0.1069
 6997W        W11197   0.906   2.022   9.218 -0.0106 -0.1280 -0.1147
 6998W        W11198   8.294   0.905  11.427 -0.0244 -0.1238  0.4249
 6999W        W11199   3.065   6.291   1.046 -0.0336  0.1339  0.0388
 7000W        W11200   8.210   1.990  10.721  0.1941 -0.0715  0.1820
 7001W        W11201   6.490   5.535  12.546 -0.2172  0.1311 -0.1060
 7002W        W11202   6.367   1.595   4.189  0.2526 -0.0947  0.0911
 7003W        W11203   1.805   0.530  11.339  0.0097  0.2596 -0.0119
 7004W        W11204   8.892   6.996   9.490 -0.1306 -0.1364  0.1167
 7005W        W11205   1.066   4.704   9.883  0.2077  0.2368  0.1248
 7006W        W11206   3.762   1.350   1.373  0.0204  0.3478  0.0846
 7007W        W11207   9.705   3.195  10.536  0.0115 -0.1693  0.1648
 7008W        W11208   3.172   6.725   2.321 -0.1679 -0.3560 -0.0630
 7009W        W11209   9.830   4.790  11.891 -0.2117 -0.0520  0.3299
 7010W        W11210   3.133   1.041   9.829  0.2564 -0.1102 -0.0459
 7011W        W11211   7.531   0.717   4.618  0.0091 -0.3616 -0.3645
 7012W        W11212   9.671   1.016   2.845 -0.1351 -0.2537  0.0833
 7013W        W11213   0.221   7.340  11.244  0.1294  0.1962 -0.1113
 7014W        W11214   0.028   7.642   3.253  0.0416 -0.1220  0.1056
 7015W        W11215   9.153   3.337   9.576 -0.0360 -0.0119 -0.1080
 7016W        W11216   9.371   3.051   3.644  0.2257  0.0196 -0.0458
 7017W        W11217   0.655   7.524   9.454  0.0799 -0.1697 -0.0577
 7018W        W11218   5.878   2.771   4.691  0.1061 -0.3219  0.0208
 7019W        W11219   2.540   7.728   2.635 -0.2425  0.1449 -0.1891
 7020W        W11220   6.509   0.304  12.967  0.0833  0.2065  0.1606
 7021W        W11221   7.150   8.177  11.284 -0.0890 -0.1762 -0.2319
 7022W        W11222   0.258   2.290  13.277  0.0103  0.1458 -0.0761
 7023W        W11223   2.386  10.444   3.095  0.3157 -0.2130  0.2462
 7024W        W11224   7.545   9.790  13.064  0.0014  0.1943  0.3876
 7025W        W11225  10.054   4.310   2.510  0.3022 -0.2400 -0.1241
 7026W        W11226   4.528   8.161   0.625  0.0171  0.3094  0.0337
 7027W        W11227   1.847   0.238  10.024 -0.1217  0.1855 -0.2474
 7028W        W11228   6.591   2.153  13.297  0.0537  0.0984 -0.0189
 7029W        W11229   8.307   1.923   9.051  0.3124 -0.1085  0.0422
 7030W        W11230   4.280   1.018   1.342  0.2152  0.0132 -0.1152
 7031W        W11231   2.644   2.671   3.484 -0.0840  0.2226  0.1241
 7032W        W11232   6.367   4.433   1.591 -0.1932  0.1535 -0.4171
 7033W        W11233   5.890   2.853   0.815  0.3278 -0.1898  0.1277
 7034W        W11234   4.209   4.662   8.914  0.3160  0.6860 -0.0848
 7035W        W11235   4.330   2.699  10.548  0.2241 -0.1965  0.0896
 7036W        W11236   4.183   4.135   1.509  0.0439 -0.2867  0.1281
 7037W        W11237   0.924   1.197  10.331  0.0344  0.1212  0.0936
 7038W        W11238  10.044   5.722  10.170 -0.2105  0.0052 -0.2272
 7039W        W11239   9.990   0.803   2.070  0.0141  0.0054  0.1795
 7040W        W11240   9.547  10.271  13.003  0.0967 -0.0447  0.3261
 7041W        W11241   9.673   1.034   0.010 -0.4195 -0.2001 -0.0769
 7042W        W11242  10.018   1.901  12.754  0.0607 -0.0613  0.0402
 7043W        W11243   5.484   6.938   3.803  0.1961 -0.1274 -0.4042
 7044W        W11244   3.422   6.859   4.068 -0.1845  0.1831 -0.1432
 7045W        W11245   0.272   9.012   1.123 -0.1685  0.3185  0.0956
 7046W        W11246   0.610   3.312   1.013 -0.1096 -0.0388 -0.0450
 7047W        W11247   6.386   4.619   0.302  0.3417 -0.3849  0.0029
 7048W        W11248   5.332   8.328  11.317 -0.2271 -0.1492 -0.3559
 7049W        W11249   7.674   8.035   8.643  0.2025  0.0590  0.1472
 7050W        W11250   5.810   5.713   1.039 -0.0329 -0.2518  0.3668
 7051W        W11251   5.472   8.726   3.116  0.2637 -0.0877  0.3055
 7052W        W11252   4.021   3.295   2.387  0.1214 -0.1632 -0.0558
 7053W        W11253   2.160  10.518   1.401 -0.2331 -0.0947 -0.0402
 7054W        W11254   7.205   8.646   3.020  0.1665  0.1136 -0.2828
 7055W        W11255   0.849   5.868   0.004 -0.1136  0.4519  0.4441
 7056W        W11256   4.911   1.442  10.461 -0.1814 -0.4359 -0.0386
 7057W        W11257   0.928   1.758  12.206  0.0171  0.1847 -0.0397
 7058W        W11258   1.334   3.275  10.348  0.3999  0.0052  0.1123
 7059W        W11259   2.756   9.103   9.938  0.2866  0.0491  0.0876
 7060W        W11260   5.059   8.713   1.139  0.3489 -0.1306 -0.3138
 7061W        W11261   6.321   5.313   0.910  0.1839 -0.0521 -0.0376
 7062W        W11262   3.334   8.686   3.681 -0.1993 -0.1208 -0.0193
 7063W        W11263   6.406  10.263   0.285 -0.3794 -0.4847 -0.2700
 7064W        W11264   7.606   6.232   2.755 -0.0905  0.1186 -0.2145
 7065W        W11265   3.039   4.186   2.721 -0.2461 -0.0069  0.0920
 7066W        W11266  10.266   1.209   3.785  0.2336 -0.0525 -0.2575
 7067W        W11267   8.753   5.783   3.578 -0.2466  0.0582  0.0707
 7068W        W11268   3.858   4.288  11.311  0.0977 -0.2026  0.0749
 7069W        W11269   2.016   7.584   2.807 -0.1806 -0.6534  0.3985
 7070W        W11270   0.954   4.843  11.212  0.2180  0.1991 -0.2858
 7071W        W11271   2.193   5.238  10.496  0.3441 -0.3671 -0.0144
 7072W        W11272   9.468   3.087   9.226 -0.1020 -0.1553  0.0496
 7073W        W11273  10.227   2.759   9.906 -0.0754 -0.0216  0.4246
 7074W        W11274   8.349   6.544  11.866  0.1777  0.2528  0.0047
 7075W        W11275   7.697   6.620  10.783  0.2300  0.3182 -0.1408
 7076W        W11276   1.560   0.283  12.665  0.0225 -0.1670  0.1896
 7077W        W11277   8.437   3.818  11.548 -0.0079  0.0957 -0.1162
 7078W        W11278   6.069   5.620   2.272 -0.2712  0.3401  0.5114
 7079W        W11279   9.635   0.128   9.579  0.3308  0.1323  0.3017
 7080W        W11280   8.928   2.272   2.421  0.0597  0.1032  0.0634
 7081W        W11281   2.644   8.896  11.714  0.1581 -0.1251 -0.1659
 7082W        W11282  10.309   2.313  12.843  0.0783 -0.0061  0.0568
 7083W        W11283   2.310   6.931  13.271 -0.0124 -0.3376  0.2231
 7084W        W11284   8.691   6.093  12.892 -0.3068 -0.0219 -0.4222
 7085W        W11285   0.058   9.467   0.933  0.1007 -0.2109 -0.2080
 7086W        W11286   8.631   9.248   3.518  0.0136 -0.1559  0.3220
 7087W        W11287   2.248   9.195   9.209 -0.5230 -0.1481  0.0734
 7088W        W11288   9.937   2.165   9.607 -0.0855 -0.0795  0.3673
 7089W        W11289   9.004   9.029   3.112  0.0963 -0.2691 -0.0912
 7090W        W11290   4.811   0.353   1.828  0.1776 -0.1521 -0.2187
 7091W        W11291  10.372   5.703   0.526 -0.0190  0.0982  0.0652
 7092W        W11292   4.572   5.466  10.097 -0.0508 -0.3575 -0.1697
 7093W        W11293   1.399  10.347   1.674 -0.0986  0.0479  0.3011
 7094W        W11294   5.981   2.134  11.633  0.0147 -0.0051 -0.0647
 7095W        W11295   7.565   1.048   3.870 -0.4723  0.2188  0.1287
 7096W        W11296   6.928   8.220   0.340  0.2253 -0.1840  0.1463
 7097W        W11297   7.670   6.520   2.400  0.0042 -0.3789  0.5016
 7098W        W11298   3.389  10.034  10.655  0.0456 -0.0298  0.2376
 7099W        W11299   9.467   0.850  10.717  0.1599  0.2943 -0.5080
 7100W        W11300   5.968   5.477  12.479  0.0829 -0.3036  0.0162
 7101W        W11301   4.990   9.851   3.962  0.0444 -0.0166  0.4605
 7102W        W11302   5.825   6.613   3.581  0.1550 -0.0887  0.1579
 7103W        W11303   1.584   1.570  11.017 -0.0210  0.1253  0.0177
 7104W        W11304   7.486   4.535  12.636  0.0821 -0.2381 -0.1120
 7105W        W11305   7.329   8.857  10.814  0.0765  0.2494  0.1295
 7106W        W11306   3.409   0.581   1.528  0.0062  0.4242  0.0523
 7107W        W11307   6.343   5.317   9.227  0.0995 -0.1216  0.2301
 7108W        W11308   1.638   4.717  10.603  0.1313  0.0488 -0.0395
 7109W        W11309   6.845   0.752  13.193 -0.1447  0.3342  0.0138
 7110W        W11310   1.506   4.964   2.354 -0.0015 -0.0681 -0.2417
 7111W        W11311   4.017   7.418  12.797 -0.3062  0.1329 -0.3292
 7112W        W11312   4.402   2.194   4.109  0.1634 -0.2363 -0.3026
 7113W        W11313   5.403   7.313  11.876  0.0555  0.1073  0.1057
 7114W        W11314   2.639   9.447  10.687  0.1028  0.1285  0.1763
 7115W        W11315   4.089   9.931   8.323 -0.0398  0.0388 -0.2207
 7116W        W11316   0.850   2.194  11.839 -0.0912  0.1030 -0.0462
 7117W        W11317  10.243   6.249   1.485  0.0134 -0.0309 -0.0131
 7118W        W11318   4.575   8.498  11.692  0.0927  0.0107  0.2186
 7119W        W11319   7.722   9.341   9.737 -0.3659  0.2309 -0.1280
 7120W        W11320   2.014   8.082  12.475  0.1309 -0.1915  0.0549
 7121W        W11321   4.758   7.801   9.711 -0.0580  0.0062 -0.0399
 7122W        W11322   6.307  10.311   1.707  0.2426  0.1644 -0.0742
 7123W        W11323   3.542   2.023   2.968 -0.1601 -0.1823 -0.2319
 7124W        W11324   8.221   3.160   4.271  0.0739  0.0656 -0.1484
 7125W        W11325   3.588   0.134   9.464  0.0533 -0.1504 -0.2022
 7126W        W11326   7.835   3.634   0.314  0.1603  0.2229  0.0584
 7127W        W11327   1.515   8.700   3.416  0.1524  0.1793 -0.0355
 7128W        W11328   7.240   5.485   3.462  0.2536  0.1473  0.0442
 7129W        W11329   9.963   5.767   0.120  0.0496 -0.0002 -0.1675
 7130W        W11330   7.562   2.734  10.683  0.0672  0.2699  0.1631
 7131W        W11331   8.172  10.235  11.147 -0.0345  0.1546 -0.1014
 7132W        W11332   2.452   7.589   2.163  0.0282 -0.1728 -0.1397
 7133W        W11333   4.623   4.407   0.641  0.2942  0.1918  0.0068
 7134W        W11334  10.512   0.843   0.653  0.0655 -0.2037 -0.0399
 7135W        W11335   7.469   1.566   4.002  0.0249  0.0351  0.0027
 7136W        W11336   2.016   3.544   2.306 -0.1282 -0.0533  0.2378
 7137W        W11337   3.082   9.744   3.249 -0.0235 -0.1127 -0.0239
 7138W        W11338   5.425   4.454   3.343  0.2206  0.2832  0.1933
 7139W        W11339   5.712   4.210   0.517  0.0854  0.0464 -0.4130
 7140W        W11340   1.144   8.711   2.174 -0.0844 -0.0685  0.0040
 7141W        W11341   1.158   9.348   8.609 -0.0054  0.0203  0.2603
 7142W        W11342   6.162  10.091   9.634 -0.1611 -0.2401  0.1121
 7143W        W11343   3.733   9.215  12.551  0.2489 -0.0321  0.0384
 7144W        W11344   3.610   8.945   0.598 -0.5339 -0.3090  0.0658
 7145W        W11345   0.709   0.412   0.128  0.0677  0.2104 -0.0245
 7146W        W11346   2.418   2.490   2.000  0.0361  0.1673  0.2579
 7147W        W11347   6.843   4.854   2.249 -0.1453 -0.0449  0.1407
 7148W        W11348   0.400   7.221   0.087  0.3787 -0.2658  0.2854
 7149W        W11349   0.511   7.273  10.313 -0.0536  0.0107 -0.0022
 7150W        W11350   5.421   5.356   3.445  0.2044 -0.3139  0.1734
 7151W        W11351   1.142   6.032  12.392  0.0716  0.0161 -0.2035
 7152W        W11352   2.847   4.264   0.383  0.0639  0.2773  0.1537
 7153W        W11353   1.752   7.375   0.318 -0.0001  0.1211  0.2473
 7154W        W11354   5.469   3.839   0.821  0.1361  0.2722  0.1061
 7155W        W11355   0.114   4.254   9.982 -0.0858  0.0790  0.0664
 7156W        W11356   0.147   4.960   9.700  0.2682  0.2000 -0.0427
 7157W        W11357   6.944  10.438  12.660 -0.1043  0.1332 -0.2346
 7158W        W11358   2.826   8.779   8.608 -0.3072  0.2454  0.0608
 7159W        W11359   1.277   1.946   4.118 -0.0512  0.4269 -0.0966
 7160W        W11360   8.396   5.317   2.419  0.0946 -0.0564 -0.2340
 7161W        W11361   9.238   1.512   4.240 -0.1055 -0.0600 -0.1516
 7162W        W11362   5.657   2.376   3.917  0.0860 -0.1125 -0.1260
 7163W        W11363  10.260   3.714  13.297  0.0430 -0.0288  0.1065
 7164W        W11364   5.715  10.497   3.897 -0.1775 -0.0541 -0.2590
 7165W        W11365   4.033   5.741  10.786  0.1329 -0.1516 -0.2342
 7166W        W11366  10.396   6.711   2.204  0.3195  0.4565 -0.0794
 7167W        W11367   1.853   7.042  12.474  0.0985 -0.0003 -0.1727
 7168W        W11368   4.133   0.066  10.746 -0.1504 -0.0652 -0.0637
 7169W        W11369   2.536   7.981   9.727 -0.1859 -0.0428  0.0172
 7170W        W11370   0.147   2.335   9.061  0.1811 -0.0846 -0.3566
 7171W        W11371   3.564   9.894   0.409  0.2016 -0.0553 -0.0087
 7172W        W11372   8.817   5.617   8.619  0.0882  0.0625  0.0138
 7173W        W11373   9.631   3.295   1.688  0.0888  0.1776 -0.3520
 7174W        W11374   1.088   0.858   3.746  0.2519  0.0581 -0.1228
 7175W        W11375   9.920   3.165   2.281 -0.2445 -0.1145 -0.2144
 7176W        W11376   7.789   7.947  12.304  0.4195  0.2768 -0.2860
 7177W        W11377   8.439   7.371   0.194 -0.2252 -0.1752  0.2127
 7178W        W11378   1.710   0.657  13.053  0.0862  0.0542  0.1896
 7179W        W11379   9.053   5.063   0.819  0.1936 -0.2503  0.1513
 7180W        W11380   4.768   2.100   8.860 -0.2122  0.0427  0.0564
 7181W        W11381   3.325   2.321   2.052  0.0157  0.0561  0.0004
 7182W        W11382   5.263   5.668  12.141  0.1453  0.1128  0.0310
 7183W        W11383   7.818   9.848   4.169 -0.1167 -0.0955  0.0695
 7184W        W11384   9.532   6.501   2.074 -0.1009 -0.3183 -0.3165
 7185W        W11385   9.466   6.967   3.694  0.0107  0.1154  0.2792
 7186W        W11386   8.328   5.567  12.478  0.2220  0.0145  0.1877
 7187W        W11387   7.357   5.241  12.235 -0.1254  0.0967  0.0079
 7188W        W11388  10.177   8.516  12.823 -0.0874  0.1001  0.1390
 7189W        W11389  10.045   8.425   9.936  0.1285 -0.1075  0.0757
 7190W        W11390   3.091   4.394   0.915  0.1718 -0.1462  0.1839
 7191W        W11391   2.280   6.601   9.687  0.2779 -0.1741 -0.1631
 7192W        W11392   0.563   9.390   1.217  0.0978  0.0137 -0.1177
 7193W        W11393   5.188   3.237  11.051  0.0821  0.0744  0.3833
 7194W        W11394   1.066   8.807   0.688  0.2222 -0.0459 -0.0937
 7195W        W11395   3.699   9.754   1.944 -0.2381 -0.0703 -0.0024
 7196W        W11396   6.103   0.243  12.692 -0.1813  0.0056  0.0532
 7197W        W11397   5.422   7.760   3.671 -0.1042  0.1605 -0.0245
 7198W        W11398   6.208   1.219  10.541 -0.0543 -0.3670 -0.5038
 7199W        W11399   3.234   8.347   0.698  0.0220 -0.2169  0.1186
 7200W        W11400   7.051   2.751  12.972  0.2588 -0.0570  0.0127
 7201W        W11401   2.992   2.084   1.025  0.0883 -0.2479 -0.1709
 7202W        W11402   5.352   4.617  13.025  0.3692  0.0886 -0.0477
 7203W        W11403   2.647   3.784   3.467 -0.0233 -0.0279 -0.4333
 7204W        W11404   5.038   3.021  10.458 -0.0862  0.2202  0.6106
 7205W        W11405   4.065   4.729  11.475 -0.0928  0.3538 -0.1398
 7206W        W11406   8.184   3.380   8.611  0.1783  0.2724  0.1303
 7207W        W11407   5.554   6.892  11.566  0.1580  0.0224 -0.2695
 7208W        W11408   5.584   6.172   3.634  0.1893 -0.0452 -0.0073
 7209W        W11409   0.681   9.088   9.885 -0.2021  0.0906 -0.3543
 7210W        W11410   6.569   6.135   2.555  0.0294  0.0257 -0.0174
 7211W        W11411   7.124  10.175   9.529 -0.2905  0.0458 -0.1516
 7212W        W11412   0.662   8.364   0.578  0.0008  0.2333  0.3629
 7213W        W11413   3.212   5.390  12.853  0.0427 -0.0278 -0.0507
 7214W        W11414   7.076   4.202  10.950  0.0078  0.0707 -0.1980
 7215W        W11415   4.417   3.819  10.337 -0.4153 -0.0035  0.2032
 7216W        W11416   0.827  10.467   9.833 -0.0087  0.1793  0.0069
 7217W        W11417   3.806   2.698  13.081  0.1913  0.0258 -0.4415
 7218W        W11418   7.173   0.412   3.383  0.1287  0.1228 -0.0827
 7219W        W11419  10.106   4.842   4.359 -0.3052  0.2507 -0.1125
 7220W        W11420   7.543   9.398   0.952  0.3489  0.2485 -0.0667
 7221W        W11421   2.366   8.386   8.495 -0.0362 -0.0148  0.2283
 7222W        W11422   7.753   7.630   9.455  0.1326 -0.1482 -0.3276
 7223W        W11423   4.569   9.009   3.594  0.2583  0.0588 -0.3256
 7224W        W11424   4.871   3.492   9.590  0.0342  0.2136  0.0440
 7225W        W11425   7.605   8.755   9.280  0.4530  0.0805 -0.1230
 7226W        W11426   7.472   1.290  11.426  0.0829 -0.2328 -0.1150
 7227W        W11427   4.194   7.899   0.415  0.2157 -0.1080 -0.2893
 7228W        W11428   6.953   6.174   2.206 -0.0851  0.1153  0.3266
 7229W        W11429   7.978   6.000  11.494  0.0425  0.0941 -0.2301
 7230W        W11430   8.818   6.370   1.143 -0.1582 -0.1524  0.1102
 7231W        W11431   8.643   5.231   0.525 -0.0851  0.1190 -0.0886
 7232W        W11432   1.450   3.692   1.687 -0.0505 -0.0789 -0.0030
 7233W        W11433   5.973   2.127   2.190 -0.0683 -0.0757 -0.2282
 7234W        W11434   7.234   0.087  11.847 -0.1224 -0.0030 -0.1429
 7235W        W11435   8.039   3.470  11.629 -0.0992  0.0305  0.1259
 7236W        W11436   1.190   9.525   3.765 -0.0203  0.2227 -0.2393
 7237W        W11437   5.442   1.135  12.605  0.0337  0.1973 -0.0604
 7238W        W11438   7.751   1.801  10.790  0.1808  0.2758 -0.0521
 7239W        W11439   4.543   2.070  13.333 -0.1936  0.1431  0.0674
 7240W        W11440   6.968   4.526  10.537 -0.2061  0.2672  0.1185
 7241W        W11441   6.642   7.466  11.836  0.0818  0.3139 -0.2486
 7242W        W11442   9.557   9.605   3.721  0.5277  0.3023 -0.1759
 7243W        W11443   2.915   6.576  12.860 -0.0558  0.0333 -0.0945
 7244W        W11444   0.035   6.568   0.938 -0.1968 -0.1910 -0.1443
 7245W        W11445   1.316   5.646  10.463 -0.1924 -0.1595 -0.0069
 7246W        W11446  10.154   8.226  11.176 -0.1195  0.1225 -0.4347
 7247W        W11447   8.088  10.397   4.786  0.1759  0.0882  0.0707
 7248W        W11448   6.482   3.207   4.409 -0.3134  0.0451 -0.1616
 7249W        W11449   4.927   4.889   0.789 -0.2333  0.2059  0.1883
 7250W        W11450   6.347   3.290   2.758 -0.2562 -0.0804  0.0417
 7251W        W11451   1.057   7.977  11.972  0.1247  0.0051 -0.2515
 7252W        W11452   7.360  10.371   0.631 -0.2713 -0.4677 -0.0735
 7253W        W11453   6.306  10.018  13.142 -0.1194  0.0187  0.1979
 7254W        W11454   8.277   9.707  11.980  0.3391 -0.1190  0.1053
 7255W        W11455   7.750   1.597   9.843  0.2372  0.3821 -0.0759
 7256W        W11456   8.677   6.018   9.892 -0.1763 -0.0713 -0.2431
 7257W        W11457   6.379   3.951  11.614 -0.4202  0.1509  0.4108
 7258W        W11458   3.862   7.697  11.612  0.1444 -0.2044  0.1376
 7259W        W11459   1.283   3.702  10.568  0.1477 -0.2041  0.1235
 7260W        W11460   5.752   2.956   2.097  0.0493  0.0947  0.2182
 7261W        W11461  10.432   3.197   0.051 -0.0776  0.2587  0.0488
 7262W        W11462   5.418   4.386  12.028  0.3210  0.0374 -0.1072
 7263W        W11463   8.370   7.917   0.031  0.2887  0.3960  0.0595
 7264W        W11464   4.597   5.979   2.285 -0.2075  0.2036  0.0246
 7265W        W11465   1.458   9.022   1.554  0.2596  0.2293  0.1803
 7266W        W11466   6.162   7.479  12.819  0.0838 -0.0698  0.1191
 7267W        W11467   1.972   2.878   2.137 -0.1661 -0.0475 -0.0297
 7268W        W11468   2.387   7.866   4.232 -0.1486 -0.2084 -0.1041
 7269W        W11469   0.594   8.595   8.929 -0.0940  0.0084  0.0606
 7270W        W11470   7.208   1.383  10.682  0.1115  0.1809  0.3007
 7271W        W11471   5.444   8.033  13.282  0.1101  0.1432  0.1154
 7272W        W11472   1.303   9.487   9.265 -0.0440 -0.0163  0.0149
 7273W        W11473   6.360   5.595   0.081 -0.1033 -0.1307 -0.1584
 7274W        W11474   4.853   7.476   3.922 -0.1034 -0.0424 -0.0310
 7275W        W11475   0.651   9.764  13.140 -0.1930  0.1379  0.1126
 7276W        W11476   2.680   4.822   1.909 -0.2139  0.2243  0.2491
 7277W        W11477   5.970   8.673   0.870  0.0765 -0.2224 -0.0228
 7278W        W11478   5.123   0.191  13.004  0.2867 -0.0779  0.0296
 7279W        W11479   6.818   8.574  11.104 -0.0375  0.0097 -0.1729
 7280W        W11480   2.389   5.607   3.359  0.0296  0.2304  0.0652
 7281W        W11481   5.365   5.417   0.924 -0.1264  0.1437  0.1091
 7282W        W11482   0.509   5.106  10.791 -0.0105  0.0478  0.2113
 7283W        W11483   8.074   2.392  12.590  0.2666 -0.0158  0.1524
 7284W        W11484   7.793   4.575  11.654  0.0030  0.0206 -0.2045
 7285W        W11485   7.908   5.521  11.597 -0.1731  0.0278 -0.0732
 7286W        W11486   3.415   0.107   3.325  0.1288 -0.0374 -0.2947
 7287W        W11487   4.733   2.965   2.412 -0.0802 -0.0402 -0.0294
 7288W        W11488   0.980   7.226   1.520 -0.0616 -0.2575  0.3629
 7289W        W11489   5.112   0.386  11.628  0.2720  0.0275 -0.2115
 7290W        W11490   5.106   4.475  11.308  0.1439  0.0558 -0.1328
 7291W        W11491   0.379   2.553   2.435 -0.0178  0.2761  0.4983
 7292W        W11492   1.201   4.606   3.421 -0.0533 -0.2246  0.0357
 7293W        W11493   5.825   5.556  11.196 -0.2824  0.0436 -0.0367
 7294W        W11494   8.144   8.715   2.481  0.3371 -0.1183 -0.2346
 7295W        W11495   0.908   9.233   2.400  0.2004 -0.0945 -0.0320
 7296W        W11496   8.348   9.705  11.068  0.0618  0.0728  0.1218
 7297W        W11497   7.215   1.372   1.573  0.0415 -0.3652  0.3298
 7298W        W11498   4.442   9.764   3.130 -0.0108  0.0608  0.0645
 7299W        W11499   9.603   8.177   9.289 -0.3114  0.0246  0.0560
 7300W        W11500   5.340   4.470   2.492 -0.2712 -0.1969  0.2041
 7301W        W11501   9.787   0.180   8.642  0.2574  0.1725 -0.2310
 7302W        W11502   5.310   2.045   3.821 -0.1368  0.1308  0.1862
 7303W        W11503   7.321   9.041   3.436 -0.0215  0.0669 -0.0369
 7304W        W11504   8.039   8.277   2.745 -0.1870 -0.1953 -0.1829
 7305W        W11505   0.017   0.482   0.953  0.0917  0.0736  0.1190
 7306W        W11506   2.497   8.831   9.480 -0.0957 -0.0754 -0.1049
 7307W        W11507   3.337   5.626  10.511 -0.0863 -0.1457  0.2404
 7308W        W11508   0.683   9.330   3.852  0.2287  0.4699 -0.2476
 7309W        W11509   6.733   5.218  12.104  0.2798  0.1722  0.1477
 7310W        W11510   6.723   0.063  12.008  0.3608  0.1103  0.1742
 7311W        W11511   1.681  10.208   0.773  0.3696  0.0413 -0.0720
 7312W        W11512   1.586   7.403   2.569  0.0099 -0.2497 -0.0483
 7313W        W11513   5.127   5.249   0.292 -0.2311  0.0319  0.0363
 7314W        W11514   5.515   6.733   2.773 -0.1739  0.2530  0.2111
 7315W        W11515   7.462   4.198  11.698  0.2391 -0.0792 -0.2507
 7316W        W11516   2.881   4.696  10.416 -0.0639 -0.2085  0.1319
 7317W        W11517   4.395   0.129   0.342  0.5173 -0.2843 -0.1408
 7318W        W11518   5.141   9.762  12.628 -0.1441  0.0100  0.2097
 7319W        W11519   8.997   5.690   3.111  0.0784 -0.1084  0.1037
 7320W        W11520   0.682   5.513   3.232  0.1373  0.3557  0.0573
 7321W        W11521   6.033   4.048   4.924 -0.0241 -0.1165 -0.1225
 7322W        W11522   5.202   7.239  12.999  0.4275 -0.0328 -0.0756
 7323W        W11523   6.908   0.507   0.836 -0.2471 -0.1434 -0.1087
 7324W        W11524   8.985   8.593  10.624 -0.2916  0.0965  0.1144
 7325W        W11525   5.096   2.740  13.155  0.2218  0.2946  0.1483
 7326W        W11526   7.506   4.483  10.624 -0.3796  0.2944  0.1831
 7327W        W11527   6.032   8.949   1.331  0.0769  0.0169 -0.4824
 7328W        W11528   9.968   9.107   1.751  0.2336 -0.1796  0.3698
 7329W        W11529   2.266   9.416   3.275 -0.3771 -0.0346 -0.0552
 7330W        W11530   0.167   7.136  10.660 -0.1783 -0.1725 -0.0703
 7331W        W11531   1.992   4.387  10.389  0.0026 -0.3693 -0.2850
 7332W        W11532   1.993   4.108   0.442 -0.0467  0.3969 -0.0922
 7333W        W11533   1.729   7.754   0.878  0.1554 -0.1573  0.2476
 7334W        W11534   4.533   9.746  10.519 -0.1721 -0.3167 -0.1655
 7335W        W11535   3.974   5.104   2.298  0.2912  0.0635  0.3880
 7336W        W11536   9.100   7.517   3.517  0.0726 -0.3955  0.0658
 7337W        W11537   2.239   9.004  12.908 -0.0661  0.1323 -0.0516
 7338W        W11538  10.505   6.300   3.419 -0.4320  0.1472 -0.0426
 7339W        W11539   3.654   4.776   9.402 -0.1936  0.1580  0.1327
 7340W        W11540   9.786   5.463  12.478 -0.1960 -0.0127 -0.3803
 7341W        W11541   1.110   3.530   0.383 -0.3565 -0.2280  0.0052
 7342W        W11542   7.705  10.062   0.896 -0.2240  0.0262  0.3081
 7343W        W11543   8.370   0.918   0.702  0.2264 -0.4523 -0.4356
 7344W        W11544  10.452   3.257   9.972 -0.1838  0.0015  0.1997
 7345W        W11545   3.122   9.937  12.106 -0.0064 -0.0640  0.1240
 7346W        W11546   9.247   6.374  13.214 -0.1550 -0.0486 -0.1300
 7347W        W11547   7.436  10.472   4.906 -0.1030 -0.2325  0.1275
 7348W        W11548   6.133   0.648   0.386  0.1015 -0.0216  0.5864
 7349W        W11549   4.117   2.059   0.360 -0.1451 -0.2537 -0.0527
 7350W        W11550   2.493   6.641  12.385  0.0064 -0.0153  0.2775
 7351W        W11551   7.288   0.424  10.142 -0.1234  0.1061  0.1847
 7352W        W11552   3.124   1.870   4.201 -0.1422 -0.1999 -0.2443
 7353W        W11553   2.172   2.873   2.795 -0.3595  0.1016 -0.1065
 7354W        W11554   9.980   3.628   2.439 -0.2045  0.3693  0.2454
 7355W        W11555   1.054   7.343  11.150 -0.2599  0.0847 -0.0119
 7356W        W11556   5.268   7.292   9.109  0.2380  0.0593  0.0594
 7357W        W11557   6.175   1.617   2.866 -0.1130  0.1700  0.2110
 7358W        W11558   0.300   0.766  12.505  0.0257  0.3702 -0.3490
 7359W        W11559   7.764   1.718   0.384 -0.2478 -0.0727 -0.2526
 7360W        W11560   4.417   6.080   1.485  0.0330  0.1355  0.3596
 7361W        W11561   7.974   8.896   8.961  0.1916 -0.2321 -0.1063
 7362W        W11562  10.291   5.738  10.639  0.2050  0.0305 -0.2347
 7363W        W11563   5.960   6.091  11.666 -0.2012 -0.1105 -0.0857
 7364W        W11564  10.212   0.388   2.857  0.3735  0.4887  0.2117
 7365W        W11565   8.672   6.795  10.132  0.0646  0.2924  0.0969
 7366W        W11566   1.481   2.791   2.058  0.0380  0.0031 -0.1079
 7367W        W11567   2.747   1.671   2.839 -0.5560  0.0255  0.0147
 7368W        W11568   1.099   3.293  11.988  0.1217 -0.2997  0.1227
 7369W        W11569   2.363   7.543   1.149 -0.0980 -0.1133  0.2823
 7370W        W11570   5.329   7.334   4.069 -0.0819 -0.2800  0.2076
 7371W        W11571   7.860   6.260   9.202  0.0871  0.1180 -0.0663
 7372W        W11572   7.303   6.191   4.500 -0.0312 -0.0423  0.0702
 7373W        W11573   7.951   5.876   2.831 -0.4081 -0.4788 -0.1672
 7374W        W11574   8.358  10.463   9.155 -0.2367 -0.0830  0.2492
 7375W        W11575   9.690   5.884   3.839  0.3779  0.0341 -0.1955
 7376W        W11576   8.890   9.975  10.207  0.0146 -0.1974 -0.2857
 7377W        W11577   4.256   1.151   4.955  0.1493 -0.1480  0.1604
 7378W        W11578   9.135   6.263   3.092  0.1763  0.0950  0.0053
 7379W        W11579   2.262   9.813  11.025 -0.0596  0.1204  0.3294
 7380W        W11580   7.691   1.971  12.010 -0.1502 -0.0785  0.3959
 7381W        W11581  10.394   2.503  11.739  0.1827  0.1869  0.0542
 7382W        W11582   4.358  10.207   3.368  0.1302  0.0854  0.0780
 7383W        W11583   1.452   8.092   0.701 -0.0986 -0.4963  0.2459
 7384W        W11584   8.077   8.295  11.338 -0.1498 -0.1538  0.4586
 7385W        W11585   0.127   2.722  11.346  0.1598 -0.1049 -0.4074
 7386W        W11586   7.947   5.928   3.971 -0.3485 -0.0621 -0.0493
 7387W        W11587   8.793   1.931   3.570  0.1545  0.0093  0.0863
 7388W        W11588   4.647   5.546   4.779  0.1256 -0.0669  0.3257
 7389W        W11589   4.235   9.754   0.668  0.1975 -0.2521 -0.0272
 7390W        W11590   9.922   2.873   0.261 -0.0732 -0.0980  0.2718
 7391W        W11591   4.510   5.212   3.526 -0.1816  0.1111  0.1389
 7392W        W11592   7.475   8.855   1.462  0.2793  0.1484 -0.2156
 7393W        W11593   0.699   5.440   0.233 -0.0663 -0.0448 -0.0187
 7394W        W11594   4.061  10.165   1.973 -0.0996  0.1655 -0.2580
 7395W        W11595   8.027   4.930   0.415  0.0288 -0.1436  0.0322
 7396W        W11596   5.439   8.686  11.993 -0.0544  0.0561  0.2408
 7397W        W11597   2.731   3.345   1.236 -0.2365  0.1901  0.0370
 7398W        W11598   2.065   8.417  10.585  0.1380  0.1466 -0.1935
 7399W        W11599   5.766   1.892   1.136 -0.2376  0.0941 -0.3183
 7400W        W11600   6.358   4.586   9.429  0.1384 -0.0951 -0.0678
 7401W        W11601   7.905   3.569   0.829 -0.4367 -0.2173  0.3254
 7402W        W11602   6.286   7.895   3.095 -0.0213  0.0948 -0.2496
 7403W        W11603  10.423   3.094   3.717  0.1205 -0.0072  0.1306
 7404W        W11604   6.970   9.626  12.379  0.2641  0.1160  0.1106
 7405W        W11605   0.381   2.953   3.626  0.0042  0.0751  0.0090
 7406W        W11606   3.728   7.542  11.018  0.0195 -0.1591 -0.0263
 7407W        W11607   7.572   0.018  11.460  0.0045  0.0755  0.1108
 7408W        W11608  10.440   8.638   2.254 -0.0777 -0.1337  0.0734
 7409W        W11609   3.093   4.998  13.127  0.2598  0.0143 -0.2415
 7410W        W11610   8.345   5.911  11.065  0.0693 -0.2291 -0.0001
 7411W        W11611   6.259   3.584   4.854 -0.2514  0.0960 -0.2004
 7412W        W11612  10.027   2.226  11.958 -0.1615 -0.1047  0.0247
 7413W        W11613   6.810   4.023  13.012 -0.0866 -0.1812  0.1514
 7414W        W11614  10.289   2.901   4.191  0.0876 -0.4943 -0.1663
 7415W        W11615   2.463   3.962   0.595 -0.0459 -0.2305 -0.0467
 7416W        W11616   4.280   2.385  11.944 -0.2037  0.0117 -0.2224
 7417W        W11617   0.849   5.626  10.570  0.0860  0.0044  0.0183
 7418W        W11618   7.727   7.798   2.634  0.2043  0.0259  0.3837
 7419W        W11619   8.552   0.536   9.928  0.1315  0.0830  0.0185
 7420W        W11620   7.255   1.383   9.761 -0.2041  0.1975 -0.3665
 7421W        W11621   2.014   0.333  12.515 -0.2325  0.1730 -0.1262
 7422W        W11622   2.007   6.263  12.430  0.1268  0.0751  0.2576
 7423W        W11623   7.170   1.172   3.394 -0.1073  0.2336  0.0868
 7424W        W11624   2.520   4.674   0.344 -0.3129  0.0091 -0.0575
 7425W        W11625   2.986   6.519   0.218  0.2504 -0.1453 -0.1614
 7426W        W11626   7.654   3.752   3.744  0.1507  0.0249 -0.3476
 7427W        W11627   8.665   7.543   3.287 -0.2627  0.1291  0.0717
 7428W        W11628  10.245   7.625   2.776 -0.2632 -0.0171 -0.2856
 7429W        W11629   0.720   2.851  10.677  0.1227 -0.0621  0.0310
 7430W        W11630   7.722   0.656   1.919  0.1006  0.4063 -0.0687
 7431W        W11631   0.281   5.422   2.896  0.1213 -0.0626 -0.0032
 7432W        W11632   3.406   1.833   0.997  0.1082  0.1330 -0.1040
 7433W        W11633   9.943   3.915   1.558  0.1622  0.0860  0.0415
 7434W        W11634   6.622   4.171   9.673 -0.0694 -0.0539  0.0581
 7435W        W11635   0.211   0.679  10.951 -0.1487 -0.1779  0.2715
 7436W        W11636   0.022   9.833   9.051 -0.1650 -0.1886  0.1124
 7437W        W11637   5.268   8.467   9.472 -0.0613 -0.1650 -0.0600
 7438W        W11638   3.506   8.235  11.645 -0.0342  0.0127  0.1531
 7439W        W11639   6.193   8.740  11.664  0.0675 -0.0011 -0.2810
 7440W        W11640  10.182   7.179   2.563  0.0002  0.3045 -0.0098
 7441W        W11641   4.757   0.476   5.200  0.1086  0.0294  0.1745
 7442W        W11642   3.493   8.923  11.234 -0.0540  0.0993 -0.0100
 7443W        W11643   3.313   4.898   2.967  0.0585  0.1346  0.0022
 7444W        W11644   5.084   4.478   9.473  0.0843 -0.1328 -0.0930
 7445W        W11645   2.797   1.398  11.053 -0.0309  0.3128  0.2393
 7446W        W11646   7.941   9.190   2.425  0.0147 -0.5377 -0.0428
 7447W        W11647   8.718  10.374   2.898  0.2388 -0.1283  0.2131
 7448W        W11648   1.982   2.737  11.196  0.0351 -0.1318  0.2952
 7449W        W11649   1.336   9.432   1.257 -0.2144  0.0502  0.2335
 7450W        W11650   3.171   3.520  13.194 -0.1520 -0.0369  0.2001
 7451W        W11651   4.602   8.524   4.338 -0.1738  0.0318  0.2332
 7452W        W11652   9.482   3.940   3.201  0.0164  0.2581  0.2194
 7453W        W11653   7.568  10.255  10.630  0.2573 -0.1374 -0.1552
 7454W        W11654   0.072   2.163  10.743 -0.0795 -0.0955  0.0783
 7455W        W11655  10.467   8.549   3.339  0.2439 -0.1836  0.2529
 7456W        W11656   7.089   2.302   1.503 -0.4815  0.2014  0.3109
 7457W        W11657   5.796   6.095   0.684  0.0667 -0.2233  0.0048
 7458W        W11658   4.238   9.386   0.329  0.2002  0.0393 -0.0389
 7459W        W11659   6.859   2.571  10.023 -0.0646 -0.1654 -0.1218
 7460W        W11660   2.814   3.157   9.520  0.0437  0.2104 -0.2439
 7461W        W11661   7.372   1.931   1.708  0.2990 -0.0964 -0.1148
 7462W        W11662   3.643   8.270   2.458 -0.0898  0.1078  0.1957
 7463W        W11663   6.489   5.505  11.804 -0.0955 -0.1904  0.3337
 7464W        W11664   9.681  10.081   1.846  0.1441 -0.0371  0.1664
 7465W        W11665   7.704   6.764   0.112 -0.3796 -0.0723 -0.4881
 7466W        W11666   5.790   4.990  11.106 -0.1126 -0.2224 -0.0228
 7467W        W11667   6.767   6.530   2.821  0.0993  0.0339  0.0302
 7468W        W11668   0.076   3.445  11.851 -0.1602 -0.2444 -0.0643
 7469W        W11669   2.037   6.731  12.165 -0.3249 -0.3386  0.0662
 7470W        W11670   6.847   9.106   3.308  0.1669  0.1884  0.1409
 7471W        W11671   4.856   9.320  11.695  0.1738  0.0473  0.0132
 7472W        W11672   3.245   8.295   0.156  0.0720 -0.0810 -0.0811
 7473W        W11673   8.931   1.795   2.781  0.0657  0.2654  0.2306
 7474W        W11674   8.340   0.423   3.538 -0.3200 -0.2020  0.1967
 7475W        W11675   8.611   3.368   1.265 -0.2773  0.0858 -0.1016
 7476W        W11676   9.699   4.351   0.401 -0.2184  0.0124  0.2139
 7477W        W11677   9.093   0.898  12.144 -0.1939 -0.1280 -0.2698
 7478W        W11678  10.192   3.342   0.910  0.4771  0.2264  0.1681
 7479W        W11679   5.918   0.500  12.095  0.0981 -0.6225  0.0923
 7480W        W11680   0.313   5.772  10.055 -0.2609 -0.5129  0.1862
 7481W        W11681   8.690   8.105   2.397  0.3824  0.2127 -0.0046
 7482W        W11682   3.093   3.972   0.711  0.0833  0.3159  0.2070
 7483W        W11683   6.448   3.844   1.340  0.4566 -0.0296 -0.2482
 7484W        W11684   8.078   8.295   4.123 -0.1943 -0.0535 -0.0959
 7485W        W11685   0.697   4.545   3.564  0.0013 -0.2976 -0.1443
 7486W        W11686   3.998   9.001  10.470  0.0034  0.2106  0.1030
 7487W        W11687   6.721   8.460  11.933  0.1616 -0.0099  0.3361
 7488W        W11688   9.181   4.894  13.105  0.0850  0.3667  0.0489
 7489W        W11689   6.473   3.772   0.726 -0.0118 -0.0649 -0.2596
 7490W        W11690   1.860   6.311   2.284  0.0027  0.1534 -0.0597
 7491W        W11691   8.043   4.376   4.188 -0.2223  0.0451  0.1452
 7492W        W11692   5.994   5.052   2.213 -0.2009 -0.1328 -0.1538
 7493W        W11693  10.030  10.295   3.165 -0.1140 -0.1758  0.0204
 7494W        W11694   6.824   3.364  10.509 -0.0734 -0.0613 -0.1772
 7495W        W11695   9.039   9.643   3.475  0.1883 -0.0016  0.1574
 7496W        W11696   7.387   4.402   2.815 -0.1375 -0.0756  0.2815
 7497W        W11697   5.573   0.374  10.700 -0.0998  0.2295  0.0042
 7498W        W11698   1.825   1.543   3.504 -0.0371 -0.0514  0.0397
 7499W        W11699   2.821   6.774   1.179  0.2407  0.3472 -0.0495
 7500W        W11700   0.252   1.918   2.324 -0.1824  0.3266  0.2335
 7501W        W11701   9.914   4.796   9.818  0.0201  0.2407  0.1477
 7502W        W11702   5.103   1.634   8.590 -0.1675  0.1582  0.3307
 7503W        W11703   5.580   5.695   4.522 -0.1538  0.0843  0.1409
 7504W        W11704  10.387   9.408   2.699 -0.2189  0.1816 -0.2585
 7505W        W11705   5.730   8.774   1.725 -0.2198 -0.5940 -0.0626
 7506W        W11706   3.344   0.589   3.949 -0.0786 -0.0443  0.1282
 7507W        W11707   2.682   0.421  11.726  0.1878 -0.3213  0.1144
 7508W        W11708   9.367  10.277   1.069 -0.1437 -0.1482  0.1446
 7509W        W11709   8.862   6.775  11.800  0.0502 -0.1469  0.0786
 7510W        W11710   5.041   9.418   4.803 -0.0674 -0.0024  0.2229
 7511W        W11711   1.805   4.357  11.724 -0.4757 -0.0658 -0.2108
 7512W        W11712   1.140   0.289   2.830  0.1021 -0.0970 -0.2025
 7513W        W11713   9.427   4.000   0.834 -0.0606 -0.4233 -0.0760
 7514W        W11714   9.613   3.491   8.924 -0.2248  0.2790 -0.0462
 7515W        W11715   4.322   8.672  11.330 -0.2939  0.1057  0.4218
 7516W        W11716   3.032   2.078   2.936 -0.0852 -0.1123 -0.0018
 7517W        W11717   9.026   6.283  10.159  0.0919  0.0245 -0.2016
 7518W        W11718   0.873   2.996   2.741  0.3086 -0.1515  0.0168
 7519W        W11719   0.036  10.417  11.566  0.4569  0.0810 -0.1143
 7520W        W11720   4.413   6.395  12.761  0.1677  0.2108 -0.0529
 7521W        W11721   9.036   6.017   9.563  0.0960  0.1243  0.0499
 7522W        W11722   2.185   9.320  11.881  0.0493 -0.1513 -0.2719
 7523W        W11723   6.144   2.961   9.505 -0.0683 -0.0231  0.0969
 7524W        W11724   3.647  10.236  11.427  0.2394 -0.2376  0.0791
 7525W        W11725   7.548   4.798  13.101  0.1291  0.2961 -0.1838
 7526W        W11726   3.476   3.181   2.348  0.0973 -0.1335 -0.3496
 7527W        W11727   9.327   1.078   2.365 -0.0312 -0.1374 -0.1328
 7528W        W11728   7.874   9.268  11.275  0.2052 -0.0562 -0.2595
 7529W        W11729   6.909   6.539  11.198 -0.0781  0.0321 -0.0446
 7530W        W11730   2.150   2.274   9.763 -0.1783 -0.2983  0.0236
 7531W        W11731  10.059   5.252   0.936  0.0545 -0.0862  0.0639
 7532W        W11732   6.012   4.946   9.030 -0.0486 -0.0563  0.0282
 7533W        W11733   5.234   1.849  12.148 -0.0009 -0.1925  0.0568
 7534W        W11734   5.087   1.036   3.557 -0.0463  0.1591  0.0108
 7535W        W11735   4.505   8.680  10.828 -0.1163 -0.1490  0.2614
 7536W        W11736   6.149   8.978   2.179  0.3531 -0.1804 -0.0169
 7537W        W11737   2.502   9.710   4.733 -0.3019  0.0876  0.0386
 7538W        W11738   8.652   3.251   2.882  0.1205  0.0360 -0.2405
 7539W        W11739   9.062   1.616  13.121  0.1562 -0.2434 -0.1468
 7540W        W11740   6.747   1.379   1.124  0.2431  0.0218  0.2553
 7541W        W11741   7.151   1.585   4.481 -0.0071  0.0947  0.3486
 7542W        W11742   8.047   3.593   9.933 -0.0141 -0.0641  0.1529
 7543W        W11743   5.691   5.163   0.112 -0.1107 -0.0715  0.1215
 7544W        W11744   9.432   8.654   9.172 -0.0190 -0.2889  0.0845
 7545W        W11745   1.338  10.476   0.037  0.3013  0.1450 -0.3050
 7546W        W11746   6.875   2.262   9.177 -0.0876  0.1541  0.0331
 7547W        W11747   7.848   5.765  11.092  0.1124 -0.1537  0.0071
 7548W        W11748   1.202   4.362   0.030 -0.0308  0.0373 -0.2526
 7549W        W11749   1.067   7.761  12.614 -0.2391  0.0068  0.0703
 7550W        W11750   4.962   7.188  12.553  0.0218 -0.1505 -0.2102
 7551W        W11751   5.475   2.811   0.263 -0.3343  0.0121  0.0394
 7552W        W11752   2.774   0.356   8.851 -0.1977  0.3649 -0.2602
 7553W        W11753   3.788   9.175   0.165 -0.0762 -0.0550 -0.1481
 7554W        W11754   7.335   3.704  11.848  0.2130 -0.1483 -0.3951
 7555W        W11755   7.753   6.373   9.954 -0.0930 -0.0328  0.2610
 7556W        W11756   0.779  10.026   2.883  0.2097 -0.0179  0.0345
 7557W        W11757   9.279   4.296  12.376 -0.0208 -0.0350  0.1183
 7558W        W11758   6.659   1.175  10.388 -0.2943  0.0203 -0.0681
 7559W        W11759   2.208   8.742  12.020  0.1718  0.0192  0.1554
 7560W        W11760   9.313   1.706  12.100  0.1226 -0.1465 -0.2876
 7561W        W11761   7.185   9.343  10.455 -0.3059  0.1293  0.0406
 7562W        W11762   6.972  10.089  10.999 -0.1364 -0.2557 -0.0370
 7563W        W11763   2.625   7.398  13.137 -0.1853  0.1383 -0.1298
 7564W        W11764   9.667   7.817   2.992  0.5157  0.4186  0.2280
 7565W        W11765   6.897   2.840  10.470 -0.1154 -0.3206 -0.0562
 7566W        W11766   2.013   9.002  10.500 -0.0922 -0.0484 -0.0982
 7567W        W11767   6.754   4.365   0.073 -0.0595  0.0542  0.1172
 7568W        W11768   9.688   7.989  11.100 -0.0295  0.0161  0.3946
 7569W        W11769   6.929   9.819   4.434  0.1288 -0.0769 -0.0066
 7570W        W11770   3.865   5.062   9.059 -0.0977  0.0899 -0.0914
 7571W        W11771   4.890   5.897   1.039  0.1250  0.4616 -0.1216
 7572W        W11772   8.606   0.960   2.175 -0.2151 -0.1309  0.1431
 7573W        W11773   9.627   8.128   0.593 -0.3176 -0.2630  0.0580
 7574W        W11774   1.238   7.980   2.662  0.0465 -0.0088 -0.1303
 7575W        W11775   7.228   8.458   4.146 -0.1049 -0.0382  0.0862
 7576W        W11776   0.703   3.473  12.981  0.0097 -0.1871  0.2258
 7577W        W11777   2.486   0.425   4.344 -0.0818  0.1205 -0.1507
 7578W        W11778   7.709   4.579   0.236  0.2756 -0.0641  0.5425
 7579W        W11779   1.250   6.153   9.727  0.0359  0.0504 -0.2199
 7580W        W11780   9.372   1.630  12.605 -0.1689  0.0985 -0.0626
 7581W        W11781   0.639   9.192  11.307  0.2414 -0.2677 -0.0937
 7582W        W11782   9.784   5.110  10.169  0.1300  0.2076  0.0792
 7583W        W11783   7.507   6.464  10.320  0.3153 -0.0672  0.0747
 7584W        W11784  10.515   3.999   3.631 -0.0146  0.1591  0.1198
 7585W        W11785   7.853   5.545   1.509  0.0815 -0.0404 -0.2500
 7586W        W11786   9.425   8.453   2.001 -0.0044 -0.1495 -0.1459
 7587W        W11787   0.364   6.634   3.767  0.2557  0.0819  0.0528
 7588W        W11788   0.747   2.540   1.434 -0.0943 -0.3510 -0.0314
 7589W        W11789   9.545   0.942   1.858  0.2746  0.1125 -0.1535
 7590W        W11790   5.960   0.313  10.369 -0.1919 -0.3218  0.0559
 7591W        W11791   4.286   5.871   4.556 -0.2210 -0.0807  0.1221
 7592W        W11792   0.512   8.344  12.624  0.2385  0.1158 -0.1145
 7593W        W11793   9.949   7.043  11.369  0.0824 -0.1434 -0.0061
 7594W        W11794   8.641   1.759   0.086  0.1415 -0.1934  0.0812
 7595W        W11795   6.047  10.158  11.021  0.2363  0.0335 -0.0048
 7596W        W11796  10.109   9.450   4.268  0.0456 -0.0847 -0.1808
 7597W        W11797   8.080   9.137   9.439 -0.0996  0.1999  0.0722
 7598W        W11798   4.742   9.199  10.866  0.1112 -0.1859 -0.2605
 7599W        W11799   1.682   6.619  10.928  0.2414 -0.2506  0.0396
 7600W        W11800   4.968   1.381   3.207  0.2789  0.1092 -0.2358
 7601W        W11801   3.110   1.569   3.856  0.1536  0.0452 -0.1031
 7602W        W11802  10.423   3.467   2.643 -0.1346  0.0836  0.0016
 7603W        W11803   4.593   3.903  12.339 -0.1102  0.1374 -0.2609
 7604W        W11804   8.830   9.084   0.593 -0.0640  0.1752  0.1365
 7605W        W11805   1.258   8.227   2.188 -0.0594  0.1871  0.1083
 7606W        W11806   6.051   9.600  11.187 -0.1872  0.1288 -0.0364
 7607W        W11807   1.771   3.154   2.478  0.1962 -0.2862 -0.3421
 7608W        W11808   1.414   0.159   3.304  0.3018 -0.0394  0.0700
 7609W        W11809   3.564   1.113   2.017  0.0417 -0.0270  0.0676
 7610W        W11810   7.618   5.434   8.845 -0.0372 -0.2569  0.3854
 7611W        W11811   6.697   9.248  10.474 -0.1045  0.0930  0.1654
 7612W        W11812   0.404   4.253  12.444 -0.1459  0.0565  0.1070
 7613W        W11813   4.031   9.492  13.134 -0.2147 -0.0429  0.0882
 7614W        W11814   3.319   2.387   3.198 -0.0174  0.0723 -0.1588
 7615W        W11815   9.563   3.721  10.530  0.2853 -0.5137 -0.2120
 7616W        W11816   7.307   2.286  13.242 -0.1860 -0.1744 -0.1446
 7617W        W11817   1.888   3.832  11.855 -0.0473 -0.1337  0.2343
 7618W        W11818   4.240   9.467   4.385 -0.1571 -0.1136 -0.0556
 7619W        W11819   8.113   6.423   4.068  0.3238  0.3178  0.1120
 7620W        W11820   8.614   0.869  11.829  0.1185 -0.1371 -0.0647
 7621W        W11821   7.279   0.115   2.360 -0.2329 -0.0054 -0.0841
 7622W        W11822  10.043   8.127  10.309 -0.1550  0.1201 -0.2403
 7623W        W11823   1.125   2.370  13.016  0.1144  0.0503  0.0697
 7624W        W11824   4.452   7.339   2.633 -0.2331  0.3686 -0.0124
 7625W        W11825   1.559   5.830   3.398 -0.3599 -0.1164 -0.4161
 7626W        W11826   4.075   8.723  11.787  0.2836  0.1004  0.0835
 7627W        W11827   2.091   9.923   3.175  0.1580 -0.1477  0.3186
 7628W        W11828   9.692   2.623   9.344  0.2715  0.0885  0.0596
 7629W        W11829   7.482   2.883   3.827  0.2094 -0.0114 -0.1036
 7630W        W11830   8.549   8.890   3.127 -0.2724 -0.1054  0.0408
 7631W        W11831   3.467   2.046  11.732 -0.0203 -0.2120 -0.3538
 7632W        W11832   5.166   8.214   9.901  0.1430  0.1675 -0.3204
 7633W        W11833   1.019   3.069   3.789  0.0728 -0.2184 -0.2741
 7634W        W11834   3.600   8.421  12.083 -0.0101  0.2910 -0.0218
 7635W        W11835   1.629   5.540  12.988  0.0735 -0.0685 -0.1454
 7636W        W11836   0.294   0.695   0.244 -0.2144  0.1541 -0.0317
 7637W        W11837   9.066   7.693  12.874 -0.0988  0.1473  0.4782
 7638W        W11838   3.592   7.048   4.489 -0.0439 -0.1058  0.0472
 7639W        W11839   8.860   0.303   2.941 -0.0402  0.0957  0.4045
 7640W        W11840   8.528   0.472   2.008  0.2675 -0.1793 -0.0514
 7641W        W11841   3.658  10.193   4.273 -0.1871  0.1724  0.2035
 7642W        W11842   7.473   6.162  12.349  0.2060  0.2244  0.0519
 7643W        W11843   9.620   6.195   0.256  0.0269 -0.0294  0.1503
 7644W        W11844   4.548   6.606  10.042 -0.1170  0.0373  0.1783
 7645W        W11845   2.729   9.265  12.558 -0.1362 -0.0452  0.0925
 7646W        W11846  10.333   2.973  11.761  0.4070 -0.3022 -0.1367
 7647W        W11847   4.160   1.544   0.471 -0.4453  0.3807  0.1748
 7648W        W11848   0.942   3.869   1.745 -0.0125 -0.1930  0.1741
 7649W        W11849   0.137   3.979   9.494  0.0866 -0.2463  0.0722
 7650W        W11850   1.260   1.404   5.232  0.0163 -0.0381  0.1046
 7651W        W11851   7.914   7.064  13.162 -0.1708  0.0789  0.1612
 7652W        W11852   5.931   1.591  13.336 -0.0359 -0.1661 -0.1428
 7653W        W11853   1.687   5.230  10.431 -0.0746 -0.1225  0.1418
 7654W        W11854   7.355   6.609   8.957 -0.1245 -0.1851 -0.3201
 7655W        W11855   5.034  10.020   1.443 -0.0232 -0.2578  0.0069
 7656W        W11856   6.937   4.026   9.290 -0.2948 -0.1942  0.2520
 7657W        W11857  10.200   7.230   1.583  0.1482 -0.1652 -0.3093
 7658W        W11858   8.526   8.445   2.731  0.0881 -0.0699 -0.2329
 7659W        W11859   7.405   7.668   3.970 -0.0980  0.1677  0.0447
 7660W        W11860   2.348   5.015  11.197 -0.2527 -0.1436 -0.0801
 7661W        W11861   4.187  10.302   0.092 -0.1347  0.3041  0.1186
 7662W        W11862   2.675   6.547   3.100 -0.3350 -0.2057 -0.0553
 7663W        W11863   0.813   6.402   3.040 -0.2824  0.0009 -0.0226
 7664W        W11864   3.367   6.755   1.115 -0.0419  0.2431  0.3002
 7665W        W11865   4.226   1.008  11.621  0.1977  0.0916  0.0580
 7666W        W11866   5.828   9.836  10.249 -0.1135 -0.3857 -0.0510
 7667W        W11867   8.445   8.822   4.110 -0.0919 -0.0424 -0.3580
 7668W        W11868   8.475   9.173  13.208 -0.1936  0.1027 -0.0842
 7669W        W11869   3.255   3.822   2.958 -0.1790 -0.0673 -0.0634
 7670W        W11870   9.975   4.822   3.869 -0.0701  0.1643  0.0495
 7671W        W11871   1.077   3.251  13.242 -0.1871 -0.1468 -0.0219
 7672W        W11872   8.065   9.288  11.729 -0.0618  0.2989 -0.0353
 7673W        W11873   6.342   9.289  11.663  0.0147  0.1468  0.2408
 7674W        W11874   2.886   3.426   4.383  0.1013 -0.0930 -0.0003
 7675W        W11875   9.977   9.098   3.964  0.0365 -0.1793 -0.1838
 7676W        W11876   5.525   9.430   1.963 -0.0833  0.3071  0.1427
 7677W        W11877   2.946   8.731   0.051  0.2838  0.0359 -0.0709
 7678W        W11878   6.896   6.852  10.386  0.0790 -0.1314 -0.2835
 7679W        W11879   8.909  10.128  11.145 -0.2776  0.1257  0.3530
 7680W        W11880   8.953   4.736   9.755  0.2159  0.0006  0.0425
 7681W        W11881   6.189   8.182  12.243 -0.0695  0.0022  0.2265
 7682W        W11882   9.979   0.504  10.491  0.3044  0.1835 -0.1833
 7683W        W11883   1.642   4.614  13.042  0.2489 -0.1247  0.2298
 7684W        W11884   7.115   7.601  11.760  0.1555  0.1713 -0.1190
 7685W        W11885   3.957   7.520   0.247 -0.1823  0.3255  0.3867
 7686W        W11886   6.847   7.405   4.151  0.0328  0.0398 -0.1185
 7687W        W11887   2.387   0.836   1.412 -0.0687 -0.1286 -0.2287
 7688W        W11888   9.395   6.413   1.232  0.4029 -0.1068  0.1893
 7689W        W11889   1.355   5.789   0.009  0.1783  0.0798  0.2074
 7690W        W11890   0.699   2.974   8.660 -0.3588 -0.1163  0.1504
 7691W        W11891   5.629   1.838  11.863  0.0025  0.0715  0.2682
 7692W        W11892   2.301   5.038   0.064  0.0333  0.0448  0.0280
 7693W        W11893   2.784   5.174   3.230  0.2412 -0.3060 -0.1299
 7694W        W11894  10.070   5.484  11.022 -0.1123  0.1792  0.2791
 7695W        W11895   1.160   9.601  10.526  0.4227 -0.0037  0.0887
 7696W        W11896   5.290   2.659  11.295 -0.2333  0.2664  0.0349
 7697W        W11897   3.737   0.704   0.671  0.3001 -0.1862  0.2493
 7698W        W11898   2.563   8.536  13.130 -0.0429  0.2472 -0.2151
 7699W        W11899   3.552   9.240   4.385  0.0096  0.1738  0.1357
 7700W        W11900   2.006   9.001   3.291  0.1062 -0.1101  0.2531
 7701W        W11901   0.238   9.879   0.036  0.0219  0.0616  0.2284
 7702W        W11902   3.816   7.224   3.163  0.2421  0.1890 -0.0602
 7703W        W11903   0.835   9.125  10.601  0.0347 -0.1303  0.0896
 7704W        W11904   3.636   8.229   1.062  0.0361 -0.1015  0.1670
 7705W        W11905   9.147   3.341  10.076  0.0500  0.0930 -0.3190
 7706W        W11906   9.645   4.426   1.051 -0.1010 -0.0035 -0.0386
 7707W        W11907  10.394   6.830  11.195 -0.2185 -0.0486  0.2566
 7708W        W11908   1.859   3.417   3.742  0.2348 -0.1230 -0.0314
 7709W        W11909   7.545   3.051   4.846 -0.2163  0.1116  0.1744
 7710W        W11910   4.970   9.684  10.838 -0.4057 -0.2111  0.3589
 7711W        W11911   8.871   4.436  11.527 -0.3498  0.0759 -0.0237
 7712W        W11912   8.777   4.087  12.496 -0.1739  0.0975 -0.2501
 7713W        W11913   7.974   2.899  10.463 -0.0625  0.1277  0.0066
 7714W        W11914   5.791   5.603   9.752  0.0703 -0.2285 -0.0958
 7715W        W11915  10.423   4.297   2.163 -0.0358 -0.1472  0.0811
 7716W        W11916   3.144   2.599  11.041  0.1197  0.2907  0.3710
 7717W        W11917   7.036   5.061   3.584  0.1115 -0.1169 -0.0446
 7718W        W11918   4.966   6.635  10.947 -0.0899 -0.1833  0.1212
 7719W        W11919  10.106   0.531   3.399  0.1119  0.3604  0.1996
 7720W        W11920   5.086   3.067   3.088  0.2197 -0.1900  0.1421
 7721W        W11921   9.379   1.637  10.112 -0.0698  0.1016  0.1171
 7722W        W11922   2.487   6.516  13.052  0.0002  0.2007 -0.0236
 7723W        W11923   3.555   6.133   0.881  0.2507  0.1685 -0.0119
 7724W        W11924   6.278   4.627   2.884 -0.1715 -0.3589  0.1715
 7725W        W11925   7.988   7.103  11.271  0.0528 -0.1952  0.0429
 7726W        W11926   1.930   1.698   1.454 -0.0994 -0.0164 -0.0272
 7727W        W11927   7.552   9.742  10.366  0.0128 -0.0295  0.1115
 7728W        W11928   5.822   9.037   9.049 -0.2181  0.0938  0.0418
 7729W        W11929   2.929   7.107   3.202 -0.0298 -0.1346  0.3645
 7730W        W11930   5.382   9.802   0.802 -0.2083 -0.0930 -0.2733
 7731W        W11931   7.841  10.160  11.584 -0.2660 -0.1775  0.4786
 7732W        W11932   8.406   8.340   3.703  0.2516 -0.1240  0.0178
 7733W        W11933   5.924   9.666   0.864  0.1859 -0.2524 -0.0848
 7734W        W11934  10.172   5.151   0.400  0.0856  0.1933 -0.0967
 7735W        W11935   1.085   5.146   2.523  0.0033  0.2081  0.0252
 7736W        W11936   3.245  10.407  11.042  0.1655  0.3682 -0.1626
 7737W        W11937  10.067   1.852   3.849  0.0966 -0.0796 -0.2976
 7738W        W11938   1.045   2.949   1.276  0.1723  0.0743 -0.2535
 7739W        W11939   4.728   6.634   0.276  0.2107 -0.2296 -0.0442
 7740W        W11940   2.521   1.443   0.759 -0.0213 -0.2285  0.1839
 7741W        W11941   8.425   9.529   4.503  0.2481 -0.3264  0.3216
 7742W        W11942   7.743   2.036  12.995 -0.1391 -0.1149  0.4414
 7743W        W11943   9.202   9.239   0.292  0.1961  0.1443 -0.1391
 7744W        W11944   8.882   4.241   9.482 -0.1594  0.0440  0.1316
 7745W        W11945  10.455   2.555   5.081  0.0445  0.0143  0.0634
 7746W        W11946   5.085   6.328   9.234 -0.2223 -0.1968  0.0077
 7747W        W11947   1.982   4.120  11.323  0.0016  0.4189 -0.1756
 7748W        W11948   4.662   7.285   9.768  0.0228 -0.2321 -0.1760
 7749W        W11949   5.420   0.550   3.197 -0.0300  0.2276 -0.2547
 7750W        W11950   3.873   4.432   9.712  0.1001  0.2512  0.2273
 7751W        W11951   0.250   9.271  13.174 -0.2331 -0.0591 -0.0837
 7752W        W11952   9.457   4.725   2.060 -0.0633  0.1163  0.1093
 7753W        W11953   8.434   5.669   4.650 -0.1639  0.0662 -0.0091
 7754W        W11954   1.599   0.253   2.778 -0.2439 -0.0947 -0.0848
 7755W        W11955   7.493   9.034   8.857  0.0949  0.1560  0.3079
 7756W        W11956   6.976   8.738   0.814  0.1380 -0.0933 -0.0869
 7757W        W11957   7.243   0.036  10.975  0.3159 -0.1065 -0.0343
 7758W        W11958   5.492   0.330   0.026 -0.2647 -0.2381  0.2413
 7759W        W11959   2.127   1.741  11.712  0.2698  0.1975  0.1772
 7760W        W11960  10.004   1.842   3.021  0.0826  0.0276 -0.0200
 7761W        W11961   7.992   6.843  12.688 -0.1370  0.0147 -0.0477
 7762W        W11962   3.212   3.405   1.402 -0.2465 -0.5279 -0.0115
 7763W        W11963   2.889   7.376   1.105 -0.0566  0.1361 -0.3382
 7764W        W11964   7.150   1.026   2.535  0.0416  0.1650 -0.0749
 7765W        W11965   1.129   2.609   4.160  0.0251  0.0293  0.0960
 7766W        W11966   6.659   0.064   0.689  0.0390  0.0394  0.2127
 7767W        W11967   4.938   3.632  11.923 -0.0317  0.1997 -0.0703
 7768W        W11968   4.238   7.655   9.723 -0.2243 -0.0372  0.2098
 7769W        W11969  10.195   6.891  12.825  0.0686 -0.3674 -0.2815
 7770W        W11970   5.765   1.136  10.792  0.1829 -0.2204 -0.2272
 7771W        W11971   6.767   5.993   8.701  0.2461 -0.2348  0.0482
 7772W        W11972   8.979   8.724   4.375  0.3820  0.1569  0.0329
 7773W        W11973   4.793   1.828  11.277  0.1875 -0.1920  0.1268
 7774W        W11974   5.953   6.547  11.478  0.2229 -0.2583 -0.0291
 7775W        W11975   6.731   1.265   4.394 -0.3039 -0.2564  0.0480
 7776W        W11976   0.671   5.602   9.741  0.0046  0.0315 -0.2714
 7777W        W11977   6.096   8.683   3.282 -0.1317  0.0300  0.0391
 7778W        W11978   0.135   8.904   2.574  0.2391 -0.1011 -0.0221
 7779W        W11979   8.670   7.813   9.851  0.1337  0.1191 -0.1683
 7780W        W11980   2.119   4.800   1.806 -0.2765 -0.0248  0.0367
 7781W        W11981   6.631   0.235  12.479 -0.0581  0.2738 -0.0057
 7782W        W11982   2.787   9.786  11.133  0.0308  0.1816  0.0063
 7783W        W11983   3.098   4.793   0.539  0.0269  0.3995  0.1039
 7784W        W11984   3.824  10.387   3.471 -0.2280  0.3297  0.1160
 7785W        W11985   3.322   0.077   1.685  0.1384 -0.0429  0.2097
 7786W        W11986   1.952   1.147   3.129 -0.2106 -0.2641  0.3052
 7787W        W11987   9.278   0.157  12.869  0.1164  0.0320 -0.0567
 7788W        W11988   7.614   8.355  12.272 -0.1458 -0.0688 -0.1009
 7789W        W11989   6.635   1.839   2.747  0.1011  0.0362 -0.1220
 7790W        W11990   3.564   3.661   2.207  0.1780 -0.0187  0.0912
 7791W        W11991   1.179   4.167  10.392  0.2852  0.0236  0.1259
 7792W        W11992   5.780  10.132   0.685 -0.2755 -0.1156 -0.0491
 7793W        W11993   4.676   0.653  11.338  0.2096  0.1408  0.3210
 7794W        W11994   4.005   5.092  11.057  0.1469  0.3116 -0.1003
 7795W        W11995   2.450   0.829  12.015  0.0391  0.2737  0.0895
 7796W        W11996   6.682   6.406   0.125  0.1265 -0.0844  0.0164
 7797W        W11997   6.067   0.937   5.037 -0.0626 -0.0878 -0.1208
 7798W        W11998   5.374   8.612   8.412 -0.1555 -0.0713  0.0565
 7799W        W11999   1.321   3.712  11.863 -0.0161 -0.1464 -0.1109
 7800W        W12000  10.038   9.488  10.759  0.0866  0.0761  0.0403
 7801W        W12001   2.328   2.491  12.527 -0.0875 -0.0802  0.1165
 7802W        W12002   5.610   0.360  10.047  0.2476 -0.0555 -0.1101
 7803W        W12003   1.491   9.256  12.587  0.1553  0.3674 -0.1592
 7804W        W12004   2.841   8.314  10.338 -0.1375 -0.1370  0.0240
 7805W        W12005  10.380   8.550   0.912  0.2189  0.1531  0.4344
 7806W        W12006   2.641   3.958   1.014  0.0577  0.1961 -0.0879
 7807W        W12007  10.217   9.777   9.416 -0.1330 -0.1931  0.1076
 7808W        W12008   1.845   4.618   1.441  0.1565  0.1825  0.1714
 7809W        W12009   1.985   9.640   9.431  0.4559  0.0312 -0.0535
 7810W        W12010  10.153   0.198   9.009  0.0782 -0.0554 -0.3362
 7811W        W12011   5.871   7.806  11.576 -0.1708 -0.3955 -0.0228
 7812W        W12012   0.982   0.777   2.542 -0.1282 -0.2274  0.2587
 7813W        W12013   8.585   8.117   0.409  0.0390  0.1453  0.1859
 7814W        W12014   7.823   1.672   2.873  0.0531 -0.2579 -0.0137
 7815W        W12015   1.696   4.495   2.227  0.1469 -0.1137  0.1336
 7816W        W12016   6.592   7.795   4.267 -0.0234  0.0550  0.0178
 7817W        W12017   8.762   6.573   9.224 -0.0725  0.2977  0.0128
 7818W        W12018   4.602   3.854  10.855  0.2428 -0.0083  0.0147
 7819W        W12019   1.917   5.238   1.392 -0.2379 -0.0984 -0.1590
 7820W        W12020   4.808   3.468   2.052  0.1139 -0.1191 -0.1894
 7821W        W12021   4.122   8.926   9.494  0.1071  0.0986  0.1061
 7822W        W12022   0.140   6.354   9.892  0.1030 -0.5511 -0.0701
 7823W        W12023   1.445   8.831  11.038 -0.0266 -0.0434  0.1362
 7824W        W12024   1.320   2.126   9.460  0.0752  0.0718 -0.0179
 7825W        W12025   2.789   0.333  11.208  0.3198 -0.3955 -0.0635
 7826W        W12026   5.854   2.607   1.395  0.2287 -0.0220 -0.0718
 7827W        W12027   7.026   3.798  10.192 -0.1300  0.0231 -0.0280
 7828W        W12028   0.030   4.430  12.807  0.0753 -0.0289 -0.1063
 7829W        W12029   4.153   2.728   3.174  0.0607 -0.0459  0.0477
 7830W        W12030   0.368   9.136   3.443 -0.0150  0.1931 -0.1896
 7831W        W12031   1.235   7.976  10.034  0.0602  0.2012 -0.1659
 7832W        W12032   9.080   2.265   2.883 -0.0618  0.2336 -0.2386
 7833W        W12033   8.267   5.287   0.095 -0.1292 -0.0596 -0.2077
 7834W        W12034   9.502   3.746   1.297  0.0166  0.1713 -0.0233
 7835W        W12035   9.915   4.507   9.411 -0.1835 -0.3950  0.1030
 7836W        W12036   6.805   1.188   2.022  0.2301 -0.0459  0.0910
 7837W        W12037   2.703   0.601  10.109  0.2208  0.0358  0.0629
 7838W        W12038   0.441   6.084  11.197 -0.0732  0.0588 -0.3664
 7839W        W12039   8.853   8.757  12.498  0.0899 -0.0834  0.1704
 7840W        W12040   5.645   7.784  12.017 -0.0719  0.1672 -0.3800
 7841W        W12041   7.999   8.618   3.095  0.0370 -0.2731  0.0420
 7842W        W12042   3.678   9.179  13.054 -0.1375  0.1916  0.0325
 7843W        W12043   0.112   2.831  10.217 -0.0168 -0.1696  0.1140
 7844W        W12044   9.843   5.334  11.926 -0.1881  0.0522 -0.1817
 7845W        W12045   9.095   7.706  10.452 -0.0212 -0.2222  0.0566
 7846W        W12046   0.208  10.115   0.556  0.1772  0.1934  0.0233
 7847W        W12047   1.447   4.129  12.979  0.3874 -0.0690  0.0407
 7848W        W12048   4.147   8.535   4.992 -0.0738  0.0392 -0.1428
 7849W        W12049   4.248   0.619   0.597 -0.3328 -0.2908 -0.0978
 7850W        W12050   8.212   8.254   2.244 -0.1421  0.0060 -0.1301
 7851W        W12051   5.360   2.343   0.474 -0.1561  0.0521  0.0514
 7852W        W12052   6.997   7.657   1.814  0.0195  0.1540 -0.1607
 7853W        W12053   6.988   0.241  13.236  0.2910  0.2918 -0.1426
 7854W        W12054   5.782   5.761   1.541 -0.2471  0.0424 -0.0910
 7855W        W12055   8.935   9.612  10.588 -0.1177 -0.2174 -0.0142
 7856W        W12056  10.338   6.385   2.956  0.0238 -0.1294  0.3264
 7857W        W12057   1.849   5.647  10.526  0.1179  0.0379 -0.0102
 7858W        W12058   7.353   1.690  11.728  0.0240 -0.1554  0.2885
 7859W        W12059   7.412   6.987   2.375 -0.0179  0.2719  0.3564
 7860W        W12060   1.426   4.329   4.294  0.2214 -0.0677 -0.0848
 7861W        W12061   0.415   4.094   1.862 -0.1225 -0.3489  0.1723
 7862W        W12062   5.468   9.818  13.205  0.4285 -0.0435  0.2437
 7863W        W12063   0.323   6.437  10.349 -0.3028 -0.1298 -0.3247
 7864W        W12064   9.589   9.711  11.736 -0.3119  0.0968  0.0445
 7865W        W12065   1.139   7.680   0.826 -0.0432 -0.0743 -0.6130
 7866W        W12066   9.701   2.541   0.649 -0.1892  0.0756  0.0551
 7867W        W12067   6.606   3.085   3.894  0.0494 -0.1401  0.1168
 7868W        W12068   4.939   4.391  13.093 -0.0818 -0.0145  0.1948
 7869W        W12069   3.056   5.387   2.339  0.3715 -0.1356 -0.3499
 7870W        W12070   1.514   5.326  11.970 -0.2228 -0.0083 -0.0860
 7871W        W12071   4.692  10.301   0.088 -0.1642  0.1536 -0.1646
 7872W        W12072   1.939   2.469  10.176  0.0744 -0.2581 -0.0840
 7873W        W12073   1.914   4.939  11.360  0.1347  0.1889  0.1195
 7874W        W12074   3.614   5.641   0.273  0.0936  0.0401 -0.0930
 7875W        W12075   2.182   7.881  10.638  0.0922  0.1141 -0.0102
 7876W        W12076   4.433   1.030  11.148  0.1965  0.0325 -0.2541
 7877W        W12077   0.495   2.133   1.574 -0.0731 -0.2883 -0.1298
 7878W        W12078   4.761   6.992   9.206 -0.1466  0.2426  0.1070
 7879W        W12079   4.559   1.273   9.602 -0.2436  0.1165  0.3105
 7880W        W12080   5.188   8.985  12.268 -0.3025 -0.3118  0.1341
 7881W        W12081   0.209   3.180  12.850 -0.0268 -0.2259  0.0858
 7882W        W12082   0.568   8.412   8.353  0.4836 -0.2024 -0.0482
 7883W        W12083   5.657   3.393   8.330  0.3702  0.1346  0.1268
 7884W        W12084   1.872   7.295   9.809 -0.2131 -0.2646  0.0689
 7885W        W12085   2.428   0.480   3.860 -0.0558 -0.1249  0.0023
 7886W        W12086   5.526   3.785   2.964  0.0157 -0.0863 -0.1181
 7887W        W12087   3.251   9.800   2.219 -0.0417  0.1477  0.0689
 7888W        W12088   2.636   7.671   0.729 -0.3203  0.1979 -0.0121
 7889W        W12089   2.816   3.680   0.397  0.1033  0.1889  0.2635
 7890W        W12090   1.360   0.006  10.062  0.1242 -0.0988 -0.0728
 7891W        W12091   2.295  10.015  12.514 -0.2141  0.0144  0.2917
 7892W        W12092   5.495   9.637  10.933 -0.0198  0.1688 -0.2441
 7893W        W12093   1.342   8.470   1.330  0.2871  0.1862 -0.1066
 7894W        W12094   2.652  10.496   1.462 -0.1555  0.2939 -0.3679
 7895W        W12095   5.434   1.020   1.394  0.0857  0.1007 -0.0314
 7896W        W12096   9.977   7.569  10.147  0.1519 -0.1864 -0.2439
 7897W        W12097   6.569   8.412  10.647  0.0307 -0.0065 -0.3308
 7898W        W12098   4.747   3.447  10.611  0.1844 -0.1739 -0.0561
 7899W        W12099   2.563   9.632   2.967 -0.1569  0.1576  0.0819
 7900W        W12100   2.256   6.111   1.857  0.0275 -0.0422  0.1032
 7901W        W12101   7.248   2.466   8.826 -0.0269  0.0833  0.0760
 7902W        W12102   6.944   8.780   9.564 -0.3252 -0.0986 -0.0551
 7903W        W12103   4.281   7.676   2.065 -0.1252 -0.2167  0.1349
 7904W        W12104   7.401   1.883   9.718  0.0667 -0.0853 -0.2401
 7905W        W12105   6.596   0.260   3.403 -0.3887 -0.1996  0.1657
 7906W        W12106   2.129   3.051   4.664  0.0054 -0.3108  0.0331
 7907W        W12107   1.213   2.780   3.086 -0.0214  0.1954  0.4231
 7908W        W12108   6.817   3.277   2.880  0.1007  0.0056 -0.2027
 7909W        W12109   2.528   2.705   9.534  0.1120 -0.1416 -0.2816
 7910W        W12110   9.949   2.063   0.695 -0.1503 -0.1652  0.3086
 7911W        W12111   5.511   7.379  11.377  0.1384 -0.0657 -0.1731
 7912W        W12112   2.188   1.752   4.089 -0.0558  0.0894  0.2168
 7913W        W12113   0.852   5.433   0.717  0.2025 -0.0164 -0.0686
 7914W        W12114   3.184   0.088   3.771  0.1189  0.1287 -0.3740
 7915W        W12115   8.954   0.718   3.327 -0.0786 -0.1771 -0.0124
 7916W        W12116   2.197   3.643  11.050 -0.0679 -0.4511 -0.0121
 7917W        W12117   7.011   7.698  11.224 -0.1403 -0.0729 -0.0703
 7918W        W12118   8.747   0.757  11.250 -0.2000 -0.1222  0.0989
 7919W        W12119   7.914   1.780   4.222  0.3442  0.0019 -0.3438
 7920W        W12120   4.962   4.946  12.761 -0.2408  0.2151  0.2814
 7921W        W12121   8.515   7.030  12.006  0.0110 -0.1966 -0.2965
 7922W        W12122   1.332   7.669  10.824  0.0423  0.1556  0.2852
 7923W        W12123   8.594   4.648   2.424  0.2582  0.2237 -0.2489
 7924W        W12124   9.066   2.914   4.106 -0.1938 -0.1505 -0.2577
 7925W        W12125   3.798   5.878  10.248 -0.2033 -0.0485  0.0647
 7926W        W12126   3.595   2.970   3.215  0.2774  0.1552 -0.0604
 7927W        W12127   3.402   8.120   3.142  0.2699  0.1559  0.2139
 7928W        W12128   9.199   8.450   0.845 -0.0893 -0.1535  0.1152
 7929W        W12129   6.912   7.433   9.393 -0.1065 -0.1593 -0.1514
 7930W        W12130   7.437   3.000  11.245 -0.2549 -0.3274 -0.3763
 7931W        W12131   5.255   4.253   2.896  0.3677 -0.1681 -0.2215
 7932W        W12132   9.194   2.230  12.077  0.0418  0.0189  0.1950
 7933W        W12133   0.400   6.309   0.188 -0.1170  0.2217 -0.2394
 7934W        W12134   0.044   4.249   4.520  0.1329 -0.1445  0.0201
 7935W        W12135   3.035   5.997   2.343  0.3069  0.1378 -0.1236
 7936W        W12136   2.459   8.164  11.634  0.0707  0.1102 -0.1045
 7937W        W12137   8.799   3.892  10.724  0.1291 -0.1814 -0.1210
 7938W        W12138   3.881   0.300   1.530 -0.0214  0.3474  0.2902
 7939W        W12139   2.531   3.567   9.667  0.0858  0.0405  0.2485
 7940W        W12140  10.075   0.867   2.585 -0.1491  0.4673  0.0531
 7941W        W12141   8.378   9.045   0.808 -0.1419 -0.0443 -0.0313
 7942W        W12142   3.206   3.431   4.844 -0.1647  0.2374  0.0504
 7943W        W12143   2.977   4.205  11.928 -0.0388 -0.1686 -0.1978
 7944W        W12144   8.514   9.586  12.883  0.0483 -0.1504  0.0659
 7945W        W12145   6.345   9.403   2.028  0.2712 -0.1481  0.2433
 7946W        W12146   1.902   9.964  10.683 -0.1262  0.1495 -0.1502
 7947W        W12147   5.627   3.547  10.202  0.1717  0.1230 -0.0913
 7948W        W12148   9.434   8.869  11.329  0.1682 -0.0259 -0.2755
 7949W        W12149   0.683   3.613   2.034 -0.2636 -0.2129 -0.0010
 7950W        W12150   7.186   0.245  12.344  0.0590  0.0948 -0.3252
 7951W        W12151   4.493   6.545   0.816 -0.0275  0.1611 -0.1953
 7952W        W12152   0.504   5.233  11.330  0.1833 -0.1027  0.0869
 7953W        W12153   3.826   2.018   0.807 -0.0158  0.0933 -0.1746
 7954W        W12154   6.543   0.944   0.922  0.0255 -0.1525  0.4452
 7955W        W12155   6.907   2.476  11.824 -0.2725  0.0936  0.0889
 7956W        W12156   4.285  10.485   1.324 -0.0351 -0.0605  0.0412
 7957W        W12157   2.328   1.463  12.623 -0.0451 -0.2192 -0.2724
 7958W        W12158   5.757   9.349   4.234  0.0643 -0.1199 -0.3446
 7959W        W12159   1.646   0.639   1.905  0.1446  0.1345 -0.1090
 7960W        W12160   3.735   9.805   2.489 -0.1502  0.0815  0.1265
 7961W        W12161   5.794   5.239   9.345  0.1301 -0.3617 -0.0910
 7962W        W12162   3.691   6.950  10.430  0.1956  0.0408 -0.0612
 7963W        W12163   0.968   5.533   2.795  0.0875  0.2760  0.0142
 7964W        W12164   2.878   0.521   3.660  0.2229  0.1321 -0.2894
 7965W        W12165   1.643   6.132   1.833  0.4266 -0.2624 -0.2027
 7966W        W12166   8.694   2.843   3.202  0.1950  0.0049 -0.0590
 7967W        W12167   0.703   2.528   2.859  0.0636 -0.0588 -0.2518
 7968W        W12168   4.115   1.988  11.407 -0.1119 -0.1132 -0.1469
 7969W        W12169   7.950  10.102   3.276 -0.0054  0.0671 -0.0679
 7970W        W12170   0.678   9.625  11.561 -0.0631  0.0979  0.1330
 7971W        W12171   2.046   8.240  11.873 -0.0029  0.3148 -0.1791
 7972W        W12172   4.629   3.296   9.085  0.2950 -0.1215  0.1864
 7973W        W12173   7.231   2.034   8.575 -0.3915  0.4472  0.2468
 7974W        W12174   0.081   9.621  10.132 -0.0569  0.4125 -0.1410
 7975W        W12175   2.164   1.426  10.838  0.2159  0.0971 -0.0252
 7976W        W12176   6.988   0.992  12.755  0.0399 -0.0178  0.1309
 7977W        W12177   4.773   7.065  10.731  0.1247  0.1785  0.1000
 7978W        W12178   5.752   4.697  10.670  0.0054 -0.0270 -0.2304
 7979W        W12179   7.322   9.804   0.647 -0.0041  0.1595  0.1656
 7980W        W12180   1.801   7.730  11.046 -0.0975 -0.2006 -0.0270
 7981W        W12181   8.411   2.183  11.278  0.1683  0.0747 -0.0232
 7982W        W12182   7.020   2.959  11.503 -0.2373 -0.2111  0.1416
 7983W        W12183   9.986  10.498   1.930 -0.2094 -0.0377  0.0477
 7984W        W12184   7.598   8.806   2.353 -0.1083 -0.3018 -0.1525
 7985W        W12185  10.329   7.304  10.974  0.3458 -0.0398  0.1186
 7986W        W12186   1.620   8.757  10.553  0.2477  0.0014  0.2268
 7987W        W12187   9.473   1.013  11.555  0.0500  0.1456 -0.0569
 7988W        W12188   6.006   5.589  11.811  0.0844  0.0576 -0.0113
 7989W        W12189   3.773   0.423   4.927 -0.1568  0.0430 -0.0247
 7990W        W12190   7.152   4.335   0.501  0.3739  0.2544 -0.1519
 7991W        W12191   2.779   5.358  11.216  0.0038  0.0720 -0.3064
 7992W        W12192   7.107   7.620  13.321 -0.1075 -0.0156  0.3788
 7993W        W12193   6.380   8.533   4.284 -0.0606 -0.0200  0.1677
 7994W        W12194   6.131   0.804   2.686 -0.1767 -0.2192  0.0149
 7995W        W12195   9.579   0.443  10.992  0.0661 -0.2951  0.0119
 7996W        W12196   4.604   6.944  11.372  0.1700  0.2953  0.0411
 7997W        W12197   5.818   2.954  12.341 -0.0122  0.3073 -0.2916
 7998W        W12198   0.225   0.637   3.874 -0.2562 -0.0107  0.0209
 7999W        W12199   3.983   8.788   9.028 -0.0176  0.1373 -0.0696
 8000W        W12200  10.497   1.864   9.168  0.1763  0.3088 -0.0453
 8001W        W12201   6.391   6.222   9.960  0.2364 -0.3990  0.2687
 8002W        W12202   1.211  10.255   1.061 -0.3060  0.2659 -0.0060
 8003W        W12203   7.810   8.723   0.461  0.0712  0.2867 -0.1269
 8004W        W12204   2.704   8.504   9.896  0.1657  0.2422 -0.1088
 8005W        W12205   9.550   3.428  12.803  0.0124  0.2293 -0.3622
 8006W        W12206   2.852   5.909  10.385 -0.0180  0.2498  0.0955
 8007W        W12207   0.354   2.015   9.488  0.2322  0.0680  0.2204
 8008W        W12208   8.479   6.811   2.158  0.0327 -0.0162  0.0003
 8009W        W12209   1.641   1.730   0.397 -0.0995 -0.0189  0.0060
 8010W        W12210   5.276   8.038  10.723  0.2253  0.4004 -0.0535
 8011W        W12211   9.798   8.417  13.119  0.1912 -0.0611 -0.0203
 8012W        W12212   8.486   2.526  12.872 -0.0859 -0.0228 -0.1216
 8013W        W12213   4.221   6.992   1.499 -0.0211 -0.0899  0.0820
 8014W        W12214  10.124   9.003   2.639  0.0067 -0.5645  0.1563
 8015W        W12215   1.809   0.184  13.104  0.0697  0.1133 -0.2533
 8016W        W12216   9.347   8.541   8.033 -0.0220  0.3093  0.0731
 8017W        W12217   5.241   6.788  12.777 -0.1882 -0.4127  0.0846
 8018W        W12218   2.881   1.095   5.404  0.1667  0.2870  0.0447
 8019W        W12219   9.095   9.181  10.905  0.0641 -0.0626 -0.2654
 8020W        W12220   8.967   1.189  10.935  0.0364  0.0032 -0.1014
 8021W        W12221   7.578   5.145   3.828 -0.0614 -0.0766  0.0490
 8022W        W12222   5.130   3.985   3.287 -0.0272 -0.1561 -0.4232
 8023W        W12223   2.100   3.797   0.913 -0.3307  0.0895 -0.4287
 8024W        W12224   5.375   7.923   4.680 -0.2913 -0.3201  0.1292
 8025W        W12225   3.427   8.547   1.524  0.2039 -0.0171 -0.1177
 8026W        W12226   7.633   9.194   3.790  0.0321 -0.1875  0.1328
 8027W        W12227   3.615   1.270   3.128  0.1616  0.2520 -0.0641
 8028W        W12228   8.366   9.630   1.357 -0.1942  0.0896 -0.0509
 8029W        W12229   8.906   4.411   3.731 -0.1024  0.3205 -0.0320
 8030W        W12230   1.747   1.876   2.451 -0.1096 -0.0805 -0.0975
 8031W        W12231   8.075   8.649   0.056  0.1587 -0.2551  0.1131
 8032W        W12232   9.611   3.511   9.953  0.4155 -0.0973  0.1101
 8033W        W12233   4.736   5.612   0.126  0.1280  0.1250 -0.1057
 8034W        W12234   7.999   4.949   4.191  0.1779  0.3002 -0.0632
 8035W        W12235   7.248   0.694   2.942  0.0151  0.4925  0.0176
 8036W        W12236   6.922   8.415   1.234 -0.2483 -0.0797  0.1017
 8037W        W12237   1.681   0.988   2.251 -0.2128  0.1866 -0.0265
 8038W        W12238   4.810   9.489   1.498  0.1589  0.3110 -0.3439
 8039W        W12239   1.875  10.404   3.014  0.1658  0.1539 -0.0256
 8040W        W12240   5.190   6.200  10.482 -0.1440  0.0136 -0.2914
 8041W        W12241  10.480   4.949  12.924  0.1088  0.0773 -0.0314
 8042W        W12242   9.158   9.413   2.113  0.1057  0.0463  0.1323
 8043W        W12243   5.653   2.246  10.516 -0.2627 -0.4864  0.0555
 8044W        W12244   7.744   0.025  11.014 -0.2262 -0.0046 -0.0181
 8045W        W12245   3.945   1.373   4.506  0.0847  0.0872  0.0859
 8046W        W12246   9.306   2.869   1.612 -0.0950  0.0393  0.0215
 8047W        W12247   0.862   6.461   1.977  0.1857 -0.2122  0.0093
 8048W        W12248   3.506   8.791   9.204  0.1074 -0.1876 -0.0270
 8049W        W12249   1.472   4.142   3.294 -0.0112 -0.1719  0.0350
 8050W        W12250   2.820   5.822   3.416 -0.0622  0.1576  0.1516
 8051W        W12251   3.237   5.886   2.822 -0.1631 -0.2751 -0.1648
 8052W        W12252   3.070   8.869   1.300  0.0300  0.0071 -0.3389
 8053W        W12253  10.225   1.688  13.145  0.3304  0.2630 -0.0548
 8054W        W12254   4.242   2.946  13.299 -0.1544  0.0512  0.0502
 8055W        W12255   4.676   0.924   4.849  0.1816  0.2684  0.2279
 8056W        W12256   7.248   4.900   1.938 -0.3355 -0.0396  0.0703
 8057W        W12257   4.998   4.966  11.447  0.2577 -0.1450 -0.3059
 8058W        W12258   9.053   3.694  12.783 -0.0333 -0.2675 -0.2246
 8059W        W12259  10.459   1.887   0.951 -0.0240 -0.1367 -0.2217
 8060W        W12260   1.760   2.338   9.278  0.3069 -0.1020  0.0402
 8061W        W12261   2.284   5.618  11.821 -0.0894 -0.2057  0.1867
 8062W        W12262   7.868   9.459   4.661 -0.0573  0.1366  0.1316
 8063W        W12263   3.292   0.968   4.396  0.0910 -0.0277  0.1325
 8064W        W12264   6.226   8.915  12.512 -0.1041  0.0539 -0.1076
 8065W        W12265  10.199   7.336   3.683 -0.0216 -0.0293  0.2175
 8066W        W12266   9.997   0.424  12.077  0.0396 -0.0442  0.0347
 8067W        W12267   9.538   6.712   3.185 -0.3697  0.0293 -0.2118
 8068W        W12268   6.417   8.092   0.365 -0.0770  0.0419  0.3794
 8069W        W12269   0.369   6.391  12.348 -0.1425  0.4438  0.2409
 8070W        W12270   9.597   4.875   9.419 -0.0661  0.0156  0.1899
 8071W        W12271   5.335   4.415  10.781  0.4199 -0.2799 -0.0494
 8072W        W12272   3.360   7.339   3.019  0.1070 -0.1069 -0.4200
 8073W        W12273   7.271   7.008  13.251 -0.0103  0.2536  0.1219
 8074W        W12274   6.776   0.445   2.994 -0.0701 -0.0036  0.0340
 8075W        W12275   4.572   2.021   2.607  0.3175 -0.1581  0.0046
 8076W        W12276   1.310   5.028  12.338  0.2312 -0.0934 -0.1753
 8077W        W12277   5.943   3.005   2.648 -0.1051 -0.0631  0.0820
 8078W        W12278   6.402   1.062   0.473  0.1730 -0.2173 -0.1388
 8079W        W12279   5.642   2.465   1.989 -0.2976  0.0433  0.0026
 8080W        W12280   5.125   2.270  11.045  0.0724  0.1462 -0.0271
 8081W        W12281   4.474   9.276  11.284 -0.0756  0.1002 -0.2586
 8082W        W12282   7.639   0.458  11.695  0.0494 -0.2590 -0.2755
 8083W        W12283   4.526   2.539   2.540  0.3962  0.0586 -0.0827
 8084W        W12284   6.425   0.478   4.380  0.1419 -0.0135  0.2130
 8085W        W12285   3.602   5.310  12.469  0.1670  0.0984  0.0944
 8086W        W12286   0.837   4.476  12.935 -0.0381  0.1056  0.2350
 8087W        W12287  10.075   9.511   0.704  0.0550 -0.3041 -0.1449
 8088W        W12288   6.539   2.126   2.307 -0.4584  0.2689  0.1330
 8089W        W12289   4.320  10.487   9.011 -0.0054  0.0288 -0.0676
 8090W        W12290   6.769   1.161   0.125 -0.1923 -0.2093 -0.1495
 8091W        W12291   1.187   6.681  10.571  0.1517  0.0139 -0.2006
 8092W        W12292   4.349   1.394  12.912 -0.3528 -0.0415 -0.2752
 8093W        W12293   3.785   2.397  12.016  0.0419  0.1606 -0.0219
 8094W        W12294   8.443   7.826  10.880 -0.2221 -0.1702  0.4004
 8095W        W12295   3.446   5.312  13.335  0.0517  0.0848  0.3808
 8096W        W12296   0.781   9.536   9.003  0.0946 -0.1583 -0.0702
 8097W        W12297   9.863   4.276  10.518  0.1149  0.0498 -0.1614
 8098W        W12298   6.898   3.823  11.527  0.1122  0.1908  0.1654
 8099W        W12299   7.427   6.887   3.327  0.2989  0.4271  0.1857
 8100W        W12300   2.230   3.803   0.142  0.1785  0.0381 -0.2033
 8101W        W12301   3.491   5.781   1.317  0.0404  0.2678 -0.0113
 8102W        W12302   2.735   4.217   1.879  0.0186  0.0495 -0.2829
 8103W        W12303   3.839  10.496   1.031  0.0978  0.5576  0.0559
 8104W        W12304  10.031   0.365   1.007  0.0621  0.1349  0.1602
 8105W        W12305   4.616   3.228   2.906  0.1291 -0.2546 -0.1536
 8106W        W12306   6.513   9.309  10.040  0.0050  0.2401 -0.1776
 8107W        W12307   3.497   1.730  13.142 -0.2147  0.2741  0.2158
 8108W        W12308   8.167   1.518   1.854  0.2421  0.4435  0.2126
 8109W        W12309   0.711   2.553   9.918 -0.0378 -0.1544 -0.0832
 8110W        W12310   5.911   3.565   3.701 -0.1033  0.1600  0.0835
 8111W        W12311   2.664   8.243  11.195 -0.2605  0.1819 -0.0662
 8112W        W12312   9.466   9.545  13.228  0.2449 -0.2132 -0.2392
 8113W        W12313   9.058   4.589   2.363 -0.0258  0.2058  0.2321
 8114W        W12314   1.089   9.939  12.383 -0.1547 -0.0815  0.4597
 8115W        W12315   1.342   6.025  11.845 -0.0064  0.0351 -0.1270
 8116W        W12316   5.933   0.424  13.124  0.1808  0.1885 -0.2387
 8117W        W12317   4.107   1.710   3.985  0.2896  0.1254  0.1808
 8118W        W12318   0.196   1.593  12.180 -0.0188 -0.1063  0.1688
 8119W        W12319   7.082   1.609   2.713  0.2100 -0.0022  0.2473
 8120W        W12320   4.372   4.248  10.646  0.2889  0.0427 -0.0467
 8121W        W12321   7.884   0.311   8.800  0.1470  0.4461  0.0771
 8122W        W12322   8.303   5.761   2.326 -0.2314 -0.0845 -0.1344
 8123W        W12323   7.161   3.017   2.553  0.1999 -0.2537 -0.0487
 8124W        W12324   0.609   7.268  11.973 -0.3222  0.0534  0.2911
 8125W        W12325   5.368   1.536   1.016 -0.0499 -0.0964 -0.0365
 8126W        W12326   9.808   2.592  12.692  0.0561  0.0499  0.2759
 8127W        W12327   5.517   2.388   9.280 -0.2425  0.1005  0.6334
 8128W        W12328   5.240   1.309  10.874 -0.2215 -0.1788  0.0294
 8129W        W12329   5.622   8.361   3.434  0.0238  0.0624  0.1649
 8130W        W12330   8.043   4.513   3.294  0.1364 -0.1793 -0.3212
 8131W        W12331   4.003   2.963  10.840  0.1338 -0.1367  0.0416
 8132W        W12332   4.335   8.212  11.004  0.0606  0.1404 -0.2085
 8133W        W12333   5.507   5.174   1.439  0.0531  0.0096 -0.4733
 8134W        W12334  10.391   3.972  10.825 -0.1570 -0.0336 -0.0613
 8135W        W12335   0.664  10.033   0.240  0.1221  0.1046 -0.2979
 8136W        W12336   5.078   3.754  10.867  0.2036 -0.1153  0.0927
 8137W        W12337   2.200   4.289   1.131 -0.0938  0.0310 -0.0852
 8138W        W12338   2.037   8.442   2.592 -0.0142 -0.5280 -0.0960
 8139W        W12339   2.665   6.386   1.739 -0.0631  0.1957  0.1128
 8140W        W12340   7.643   2.661   9.035 -0.3468  0.3674 -0.1639
 8141W        W12341  10.022   8.693  10.947 -0.0663 -0.1515 -0.1670
 8142W        W12342   5.947   0.398   2.507 -0.2122 -0.1823 -0.0174
 8143W        W12343   0.279   8.268   2.896 -0.0335  0.0231 -0.1688
 8144W        W12344   6.543  10.174   4.217  0.0180 -0.0412  0.2852
 8145W        W12345   3.752   1.560   0.226  0.0611 -0.0567  0.0724
 8146W        W12346   8.047   1.679   3.307 -0.1920  0.2546 -0.0385
 8147W        W12347   5.206  10.400  11.468 -0.2630 -0.0235 -0.1383
 8148W        W12348   0.672   3.528  11.821 -0.0881 -0.1544 -0.2947
 8149W        W12349   3.687   1.574  10.488  0.3723 -0.2506 -0.1230
 8150W        W12350   2.673   0.030   3.525  0.2711 -0.0597 -0.0310
 8151W        W12351   4.776   4.100   2.895 -0.3168 -0.1848  0.2457
 8152W        W12352   6.232   2.519   0.763 -0.0979 -0.1475 -0.0182
 8153W        W12353   3.400   0.066  10.512 -0.4057  0.0173  0.1029
 8154W        W12354   6.405   8.218   8.890 -0.0987  0.3425 -0.0843
 8155W        W12355   0.662   6.410   2.457  0.0962  0.0777 -0.2237
 8156W        W12356   2.534   6.204   1.288 -0.1003  0.3919 -0.1367
 8157W        W12357   9.720   3.075   9.641  0.0633  0.0525 -0.0758
 8158W        W12358   5.290   5.723   3.759  0.1402 -0.2959 -0.1880
 8159W        W12359   6.058   5.924  12.678 -0.0462  0.0858 -0.2352
 8160W        W12360   6.292   8.186  10.228  0.0859 -0.0281 -0.1595
 8161W        W12361   6.385   6.066  10.964  0.2350 -0.3035 -0.1154
 8162W        W12362   8.390   3.638   4.333 -0.1628  0.0600 -0.3037
 8163W        W12363   6.085   0.598   4.039  0.0992 -0.1979 -0.1032
 8164W        W12364   0.286   2.150   2.770 -0.1034  0.0362 -0.1439
 8165W        W12365   0.494   6.616   0.671 -0.3885  0.2157  0.0238
 8166W        W12366   9.480   0.639   2.254 -0.1544  0.1577  0.0526
 8167W        W12367   6.817   6.695   3.462 -0.0228 -0.0818  0.1460
 8168W        W12368   6.514   4.546   3.354 -0.2089 -0.0622 -0.2654
 8169W        W12369   9.679   2.289   2.141 -0.1022  0.0213 -0.0283
 8170W        W12370   8.912   7.201  12.982 -0.1910  0.0520  0.0644
 8171W        W12371   8.342   9.252   9.916 -0.1346  0.0047  0.1394
 8172W        W12372   7.432   9.996   9.099 -0.0296  0.2158 -0.0531
 8173W        W12373   8.244   0.590   9.544 -0.0102 -0.1406  0.1805
 8174W        W12374   5.093   8.277   4.373 -0.0756  0.3207  0.4227
 8175W        W12375   9.669   8.698  10.352  0.2846  0.0708 -0.3096
 8176W        W12376   9.296   5.980  11.982 -0.1405 -0.1726  0.0242
 8177W        W12377   4.287   5.849  10.305  0.0232  0.0733  0.1226
 8178W        W12378   4.020   8.216  11.749  0.2854  0.1720 -0.0349
 8179W        W12379   2.107   9.530  10.519  0.3606  0.2793 -0.1844
 8180W        W12380   4.553   1.461  10.062 -0.2292 -0.0201  0.0207
 8181W        W12381   5.310   9.106  11.687  0.1174  0.2070  0.0887
 8182W        W12382   0.781   2.120   4.114 -0.0519 -0.0594 -0.0978
 8183W        W12383   6.999   5.618  11.833 -0.2260  0.0812  0.1576
 8184W        W12384   3.405   6.128   0.363 -0.0230 -0.2379  0.0945
 8185W        W12385   1.714   3.466   1.310 -0.1486  0.0103 -0.0936
 8186W        W12386   6.119   0.913  12.353  0.0806 -0.1116 -0.1745
 8187W        W12387   6.064   3.570   9.949 -0.0695  0.0808 -0.1565
 8188W        W12388   8.549   3.954   9.683  0.0975 -0.2180 -0.4234
 8189W        W12389   5.949   1.203   1.791 -0.0775  0.4423  0.1630
 8190W        W12390   9.329   2.755   8.924  0.0728  0.1637  0.4413
 8191W        W12391   6.114   4.664  13.023  0.1185  0.1573 -0.2308
 8192W        W12392   3.639   8.436   8.864 -0.1619  0.0315 -0.0087
 8193W        W12393   7.711   5.736  12.605  0.1284 -0.4181 -0.0789
 8194W        W12394   0.734   8.217   0.133 -0.0543  0.0379 -0.0506
 8195W        W12395   5.096   1.793   2.885 -0.1186 -0.2372  0.0167
 8196W        W12396   4.468   4.884   0.854 -0.0641  0.0986 -0.1981
 8197W        W12397   6.229   7.675  12.004 -0.0900 -0.1020 -0.1234
 8198W        W12398   6.704   3.598   9.376  0.1574  0.1513  0.3375
 8199W        W12399   8.937   2.189  12.835 -0.3761 -0.2607 -0.0166
 8200W        W12400   8.928   5.542   2.451  0.0630  0.1228 -0.2033
 8201W        W12401   2.284   3.743  11.584  0.2689  0.0338 -0.1989
 8202W        W12402   3.140   8.788  10.069 -0.0628  0.1884 -0.2717
 8203W        W12403   9.372   8.723   3.367 -0.0675  0.1005 -0.1859
 8204W        W12404   9.138   6.850  10.960  0.0516 -0.2298  0.1663
 8205W        W12405   7.216   6.286   9.879  0.0272 -0.0134 -0.0429
 8206W        W12406   7.268   1.003  12.300 -0.2745 -0.0428  0.2994
 8207W        W12407   7.927   6.113   2.388 -0.4124  0.1475  0.2728
 8208W        W12408  10.350   0.989  12.531 -0.0334 -0.0636 -0.1036
 8209W        W12409   2.378   6.641   0.972  0.1421  0.1419  0.0105
 8210W        W12410   7.758   6.560   8.021 -0.2975  0.2988  0.1430
 8211W        W12411   1.662   2.051  11.154 -0.1613  0.1532 -0.0482
 8212W        W12412   2.020   0.119   0.427  0.0193  0.2689  0.1286
 8213W        W12413   0.163   0.206   0.392 -0.1387  0.1499  0.1330
 8214W        W12414   8.135   5.869  12.866 -0.2273  0.1127 -0.1178
 8215W        W12415   1.516   3.576   2.581  0.1572 -0.0245 -0.3305
 8216W        W12416   8.162   5.259   3.768 -0.0928 -0.0203 -0.0094
 8217W        W12417   3.071   6.804  12.302  0.0487  0.2923 -0.1004
 8218W        W12418   5.546   4.236   4.177 -0.1434 -0.0546  0.1397
 8219W        W12419   2.702   8.498   1.298 -0.0070  0.3261 -0.0496
 8220W        W12420   5.980   7.958   9.884  0.0449 -0.3743 -0.0993
 8221W        W12421   6.833   9.610   1.336  0.3249  0.0654  0.1244
 8222W        W12422   8.543   9.440  12.402 -0.1854 -0.3628 -0.1482
 8223W        W12423   9.905   8.625  11.439  0.0260  0.2704 -0.0501
 8224W        W12424   7.314   3.285   0.105  0.0730 -0.1572 -0.2681
 8225W        W12425   6.957   8.063   2.071 -0.1133  0.1949 -0.1701
 8226W        W12426   7.560   9.119   4.314  0.1568 -0.0008 -0.3578
 8227W        W12427  10.047   1.232  10.839  0.1607  0.4101 -0.2087
 8228W        W12428   7.338   7.238   8.234  0.0781  0.1301  0.2332
 8229W        W12429   4.028   9.968  10.674 -0.2222  0.0427  0.0664
 8230W        W12430   1.926   8.881   0.410  0.0218  0.2749 -0.0584
 8231W        W12431   5.918   7.777  12.454  0.0941 -0.1467  0.0234
 8232W        W12432   1.060   9.037  12.824  0.1637  0.1416  0.0233
 8233W        W12433   8.414   0.067   1.445 -0.0687  0.0286 -0.1711
 8234W        W12434   6.857   9.232   8.157 -0.0373  0.0658  0.0843
 8235W        W12435   7.601   1.431   3.525  0.1598 -0.1763  0.0058
 8236W        W12436   1.582   0.748   3.509  0.0234  0.3870  0.3487
 8237W        W12437   8.762   6.944  12.442  0.0604 -0.0312 -0.1067
 8238W        W12438   7.699   7.007   8.981 -0.0966  0.1078 -0.5027
 8239W        W12439   9.594   3.097   3.145  0.1452 -0.0111  0.1713
 8240W        W12440   2.179   6.726  12.739 -0.0312 -0.1660 -0.3126
 8241W        W12441   9.006   1.642  11.238  0.0593  0.1525  0.3219
 8242W        W12442   5.409   1.874   9.568  0.1255  0.0893  0.1842
 8243W        W12443   9.221   2.519   0.520  0.3506  0.0267  0.1920
 8244W        W12444   3.951   2.518   1.235 -0.0757  0.0149  0.0680
 8245W        W12445   4.029   8.307   1.341  0.0330  0.3095 -0.0525
 8246W        W12446   0.567   8.162   3.558 -0.0462 -0.0773  0.3833
 8247W        W12447   6.330   4.084   9.103  0.0699 -0.0716  0.2460
 8248W        W12448   8.049   3.436  12.962  0.0125  0.2128  0.3384
 8249W        W12449   9.504   8.792   2.373  0.0169  0.0718  0.0092
 8250W        W12450   1.394   2.185  11.760  0.1920  0.1531  0.0939
 8251W        W12451  10.120   1.309   2.847 -0.2889  0.1085  0.1155
 8252W        W12452   1.735   1.320   2.710 -0.1333 -0.1250  0.2287
 8253W        W12453   7.773   0.822   9.615  0.1276  0.3327  0.1379
 8254W        W12454   4.781   9.391   3.144  0.0935  0.1156 -0.1948
 8255W        W12455   4.134   7.260   2.315 -0.3446 -0.0848 -0.0670
 8256W        W12456   0.690   4.554   1.347 -0.0503 -0.1574  0.1242
 8257W        W12457   7.661   8.203   9.435 -0.2312  0.2666  0.3434
 8258W        W12458   7.838   8.428   9.005  0.3468  0.1938 -0.2274
 8259W        W12459   9.003   3.812   0.642 -0.0199  0.1981  0.2256
 8260W        W12460   6.198   2.635  12.335 -0.0050 -0.0868 -0.1158
 8261W        W12461   6.949   5.399  12.617 -0.1740  0.1409  0.3385
 8262W        W12462   1.729   0.212  12.102  0.1822  0.0874 -0.0743
 8263W        W12463   0.402   7.399  12.484 -0.0640  0.1381  0.2855
 8264W        W12464   4.939   5.251   8.720  0.1140 -0.4437 -0.0504
 8265W        W12465   0.516   0.145   8.975  0.2353 -0.0984 -0.0482
 8266W        W12466   3.877   9.441   1.606 -0.1815 -0.1399  0.0155
 8267W        W12467  10.520   5.722  11.118  0.1183 -0.1932 -0.1908
 8268W        W12468   8.726   1.620  10.030  0.1108  0.0040 -0.0957
 8269W        W12469   5.931   1.964   4.077 -0.2391  0.2016  0.0277
 8270W        W12470   7.378   3.370   3.951  0.1131  0.0159 -0.0173
 8271W        W12471   8.532   4.073   4.531 -0.0147 -0.3497 -0.3491
 8272W        W12472   5.726   0.829   4.470  0.0567 -0.1683  0.1111
 8273W        W12473   4.292   0.075   0.842  0.0290 -0.0486  0.0566
 8274W        W12474   0.758   6.284  10.873  0.0779  0.0321 -0.1302
 8275W        W12475   8.783   1.706   1.190 -0.0810  0.0488 -0.3904
 8276W        W12476   1.470   1.614  12.062  0.3514  0.2983 -0.1583
 8277W        W12477   8.142   5.822   0.029 -0.1597  0.0289  0.1832
 8278W        W12478   4.570   6.889   2.869 -0.3485 -0.1344 -0.4119
 8279W        W12479   7.238   6.459  13.291 -0.0865  0.1815  0.3742
 8280W        W12480   9.812   2.245   2.916  0.0337 -0.1027  0.3092
 8281W        W12481   1.745   9.538   3.341 -0.0031  0.0159  0.0399
 8282W        W12482   6.296   7.200  10.985 -0.0338 -0.0094  0.1998
 8283W        W12483   5.782   4.027  10.009  0.0283  0.0698  0.2780
 8284W        W12484   3.138   9.633   1.641  0.3355 -0.3808  0.0067
 8285W        W12485   3.712   0.741   3.099  0.2524 -0.2193 -0.0686
 8286W        W12486   3.840   6.501   2.371 -0.0959 -0.2671  0.0230
 8287W        W12487   9.614   2.222  11.705  0.2921 -0.1630 -0.2571
 8288W        W12488   9.067   4.206   3.257  0.1327  0.1673  0.2407
 8289W        W12489   3.282   5.282  10.968 -0.1873  0.2002 -0.1218
 8290W        W12490   9.918   9.492   2.918 -0.2410  0.3149  0.2087
 8291W        W12491   5.815   8.769  12.957  0.0864  0.0957 -0.0334
 8292W        W12492   4.081   3.187  12.241 -0.5270 -0.4482 -0.1038
 8293W        W12493   3.706   8.470   0.373  0.0690 -0.1471  0.3061
 8294W        W12494   0.820   2.920   3.308 -0.1583 -0.0225 -0.0331
 8295W        W12495   5.953   5.398   8.841 -0.2698  0.1532 -0.0479
 8296W        W12496   4.391   7.823   2.594  0.0626  0.1630  0.1798
 8297W        W12497   9.338   5.176  11.402 -0.0632  0.2069  0.1580
 8298W        W12498  10.516   6.769   3.216  0.3206 -0.4613  0.2007
 8299W        W12499   3.409   6.265  11.075 -0.1110  0.0101 -0.2137
 8300W        W12500   5.365   6.002   0.877  0.1375  0.1482 -0.0758
 8301W        W12501   0.513   4.997   3.149 -0.1092 -0.1646  0.0106
 8302W        W12502   0.167   2.679   0.693 -0.3322 -0.0956  0.0761
 8303W        W12503   2.009   1.113   9.972 -0.1969 -0.0519 -0.0631
 8304W        W12504   5.001   3.575  12.396 -0.0509 -0.1081 -0.1805
 8305W        W12505   6.474   0.880   2.264  0.1075 -0.0199  0.2017
 8306W        W12506   2.762   5.731   2.880 -0.0771  0.1990 -0.0233
 8307W        W12507   2.194   8.334  11.050  0.1746  0.1376 -0.0851
 8308W        W12508   5.493   2.866  12.804 -0.1126 -0.2328 -0.0659
 8309W        W12509   4.498   5.678  12.512 -0.1987  0.1285  0.1485
 8310W        W12510   9.395   6.056   9.928 -0.1255  0.1891 -0.1174
 8311W        W12511   5.707   7.951   1.307  0.0696 -0.0913 -0.1121
 8312W        W12512  10.120   6.211   0.262 -0.0749  0.0525  0.0980
 8313W        W12513   7.165   9.069   3.967 -0.2404  0.0258 -0.2088
 8314W        W12514   9.034   3.733   3.080 -0.0042 -0.4588  0.4208
 8315W        W12515   4.361   1.711  12.501  0.2692 -0.2272  0.1374
 8316W        W12516   4.136   4.754   9.402 -0.3477 -0.2936 -0.0304
 8317W        W12517   8.764   4.013  11.923  0.1893  0.1435 -0.1828
 8318W        W12518   8.316   2.567  12.181  0.0224 -0.3692  0.1005
 8319W        W12519   7.438   6.065   2.310  0.0757  0.3118 -0.1372
 8320W        W12520   9.451   9.270  12.749  0.0365  0.0386 -0.2056
 8321W        W12521   8.607   5.473   2.923 -0.1343  0.0005 -0.0309
 8322W        W12522   8.664   8.126   0.913 -0.1238  0.2229 -0.0749
 8323W        W12523   5.505   7.608  12.956 -0.2015 -0.0592  0.0367
 8324W        W12524   4.431   4.208   2.546 -0.1433  0.3386  0.2558
 8325W        W12525   4.011  10.067  12.979 -0.2313 -0.1330  0.0416
 8326W        W12526   1.167   4.643   1.027  0.1953  0.0230 -0.2632
 8327W        W12527  10.341   1.665   0.337  0.5060  0.0245  0.4406
 8328W        W12528   0.425  10.165   9.847 -0.0574  0.1458  0.2401
 8329W        W12529   1.946   0.779   8.497  0.1926  0.1159  0.1425
 8330W        W12530   0.175   3.853   2.780  0.0252  0.3234 -0.1001
 8331W        W12531   8.769   7.642  13.235  0.1348  0.1028  0.0977
 8332W        W12532   0.450   5.246   0.878  0.2584  0.0605 -0.0672
 8333W        W12533   6.227   0.030  12.215 -0.0264 -0.1138  0.3232
 8334W        W12534   0.986   9.042   9.157  0.0694 -0.4377 -0.0578
 8335W        W12535   4.964   8.456   0.067 -0.0261 -0.1128 -0.1499
 8336W        W12536   6.632   6.844   1.832 -0.2188 -0.1855 -0.1637
 8337W        W12537   8.314   5.541   1.816  0.0608  0.2187 -0.3614
 8338W        W12538   6.142   7.537   4.102 -0.1749 -0.2349 -0.0821
 8339W        W12539   3.961   4.918   0.860 -0.2125 -0.0259 -0.0226
 8340W        W12540   4.079   0.172   3.152 -0.1490 -0.2997  0.2405
 8341W        W12541   7.331  10.063   4.182 -0.0106  0.3536 -0.1825
 8342W        W12542   8.904   5.484   1.110  0.2143 -0.0775  0.1393
 8343W        W12543   2.087  10.297   9.378 -0.0598  0.2210  0.1207
 8344W        W12544   4.075   3.000  11.373 -0.1073  0.0837  0.2363
 8345W        W12545   2.465   8.873   0.160  0.0950 -0.1254  0.0034
 8346W        W12546   1.060   0.803   0.268  0.1417  0.0209  0.2765
 8347W        W12547   9.365   1.011   3.642 -0.3542  0.0383 -0.1290
 8348W        W12548   2.769  10.209  12.722  0.0277 -0.1758  0.0044
 8349W        W12549   7.221   9.613  11.820 -0.0932  0.0307  0.2902
 8350W        W12550  10.296   2.427   0.915  0.0361  0.3525  0.2575
 8351W        W12551   8.489   1.319  11.684  0.1389  0.0062 -0.1527
 8352W        W12552   7.128   2.316   1.985  0.2643  0.0347  0.2001
 8353W        W12553   2.429   8.882  10.745  0.0763  0.1207 -0.3166
 8354W        W12554   8.421   7.903   4.027  0.0420  0.1427 -0.2695
 8355W        W12555   8.337   9.078   1.336  0.2295 -0.1507  0.1927
 8356W        W12556   9.992   9.808   8.470 -0.0391 -0.1477  0.3187
 8357W        W12557   1.044   9.987  12.889  0.1049  0.3247 -0.1088
 8358W        W12558   9.140   1.013   0.068 -0.0458 -0.4120  0.1692
 8359W        W12559   8.133   0.306   2.929  0.1065  0.0410  0.1703
 8360W        W12560   3.313   6.714  11.353 -0.1045 -0.2989 -0.0377
 8361W        W12561   6.720   2.622   9.548 -0.1614 -0.1249  0.2424
 8362W        W12562   5.467   5.760  10.443  0.2669  0.0155 -0.0189
 8363W        W12563   6.569   2.903  11.966  0.0862 -0.1098 -0.0089
 8364W        W12564   4.911   9.491   2.179  0.0488 -0.1918 -0.1745
 8365W        W12565   2.504   5.846  11.400  0.1237 -0.1106  0.0114
 8366W        W12566   9.498  10.238  11.818  0.2418  0.2083 -0.0700
 8367W        W12567   8.868   5.907   1.438  0.1848  0.1400  0.2206
 8368W        W12568   7.882   5.948   8.791  0.1264 -0.0402  0.1914
 8369W        W12569   3.578   1.177   9.567 -0.1892 -0.1904 -0.0245
 8370W        W12570   8.793   3.356   4.211 -0.0308 -0.0813 -0.1278
 8371W        W12571   2.132   5.410  11.383 -0.1667  0.1577  0.0363
 8372W        W12572   4.200   6.323  10.197  0.1844  0.0535 -0.3925
 8373W        W12573   5.930   3.501   3.045  0.0995 -0.0943  0.2658
 8374W        W12574   0.256   8.836   0.101 -0.1553  0.0482 -0.0043
 8375W        W12575   6.483  10.274   2.494  0.4332  0.0446 -0.1481
 8376W        W12576   6.482   6.567  12.796  0.1397 -0.0188  0.0829
 8377W        W12577   5.744   5.350   2.475  0.2647 -0.1153 -0.0405
 8378W        W12578   7.458   9.582  12.617  0.1361 -0.2013 -0.0865
 8379W        W12579   2.135   9.394   4.583  0.0226  0.2276 -0.0764
 8380W        W12580   7.030   3.803   0.756 -0.2131  0.0670  0.4076
 8381W        W12581   2.157   8.583  11.530 -0.0615 -0.1413 -0.0429
 8382W        W12582   4.899   0.984  10.933 -0.0537  0.1295 -0.2508
 8383W        W12583   8.066   0.147   3.895 -0.1062  0.0681 -0.1159
 8384W        W12584   0.013   2.566   2.870 -0.1138  0.1473  0.2792
 8385W        W12585   3.388   8.325   9.393 -0.1180 -0.0093 -0.1353
 8386W        W12586   6.640   0.074  11.467  0.0788  0.2646 -0.0120
 8387W        W12587   6.034   5.356  10.164  0.3705 -0.3493 -0.1357
 8388W        W12588   0.440   8.912  10.304  0.2358  0.0294 -0.0842
 8389W        W12589   8.315   1.515   4.238  0.2419 -0.0465 -0.1202
 8390W        W12590   4.236  10.331   2.773  0.0639  0.2631  0.3096
 8391W        W12591   8.618   2.984  10.931  0.1952  0.2008 -0.2450
 8392W        W12592   8.853   0.585   2.536 -0.1720  0.1676  0.1217
 8393W        W12593   5.993   8.158   0.970  0.0779 -0.0869  0.0118
 8394W        W12594   8.107   6.715   9.177 -0.2082 -0.3270  0.3404
 8395W        W12595   1.036   1.036   3.026  0.1797  0.0003 -0.3848
 8396W        W12596   3.402   0.147   2.438  0.1343  0.0850  0.1070
 8397W        W12597   0.567   5.209  12.355 -0.1558  0.3214 -0.2156
 8398W        W12598   9.601   5.220   3.753 -0.0111 -0.0845 -0.0591
 8399W        W12599   0.650   8.497   3.905  0.0177  0.2398 -0.0004
 8400W        W12600  10.425   3.955  12.854 -0.1229 -0.1251 -0.1752
 8401W        W12601   4.445   3.960   1.038  0.1061  0.2080 -0.1069
 8402W        W12602   1.457   1.978  10.714 -0.0933 -0.1999 -0.1074
 8403W        W12603   7.667   9.350  10.710  0.1562 -0.0202  0.0482
 8404W        W12604   4.224   0.519   9.061  0.0695 -0.3848 -0.0336
 8405W        W12605   2.567   9.115   3.025 -0.3723 -0.1562 -0.0563
 8406W        W12606   0.889   8.891   3.565  0.1462 -0.4848 -0.2049
 8407W        W12607   2.728   1.875   0.517  0.2206 -0.3337 -0.1338
 8408W        W12608   9.362   8.222  10.564 -0.0089 -0.2342  0.2072
 8409W        W12609   5.173   8.071  12.163  0.3509 -0.1841  0.2488
 8410W        W12610   0.379   0.677   9.040 -0.0061 -0.1375 -0.1143
 8411W        W12611   6.808   5.331   9.020 -0.0740  0.4358  0.0111
 8412W        W12612   5.459   1.253   1.904 -0.1506 -0.0010  0.3505
 8413W        W12613   2.324   0.325  12.062  0.0010  0.4116  0.1529
 8414W        W12614   5.437   1.339  11.717  0.2431 -0.2208  0.0496
 8415W        W12615   4.975   8.633   4.640 -0.0146  0.2130 -0.1054
 8416W        W12616   3.534   3.977   3.407  0.0697  0.0818 -0.3658
 8417W        W12617   1.291   1.896   2.712 -0.1275 -0.0475  0.2572
 8418W        W12618   5.254   0.348   9.126  0.1515  0.0401 -0.1587
 8419W        W12619   8.419   5.152  11.611 -0.0918 -0.0531 -0.0311
 8420W        W12620   4.936   8.682   8.651  0.2204 -0.2202  0.1734
 8421W        W12621   6.464   1.882  11.269  0.0300  0.0864  0.1905
 8422W        W12622   4.187   3.525   9.407  0.1908 -0.1281  0.0403
 8423W        W12623   6.694   8.161   1.645 -0.2896 -0.0730 -0.1472
 8424W        W12624   6.834   2.015  11.971 -0.1209 -0.0262  0.0925
 8425W        W12625   9.045   9.198  13.168  0.0766  0.2842  0.0440
 8426W        W12626   0.926   0.200  10.311  0.2558  0.1533 -0.3689
 8427W        W12627   0.258   7.265   9.812  0.1623  0.3331  0.3284
 8428W        W12628   6.875   3.144   9.630  0.2060  0.2501  0.0865
 8429W        W12629   9.531   4.444   2.462 -0.1419  0.0538  0.2521
 8430W        W12630   6.044   4.847   1.654  0.1464  0.0767  0.1006
 8431W        W12631   9.132   3.251   4.654  0.0934 -0.1255  0.0990
 8432W        W12632   5.038   6.349   9.995 -0.0558 -0.0413 -0.0451
 8433W        W12633   6.107   2.532   4.035 -0.1471 -0.1556 -0.1441
 8434W        W12634   7.963   2.078   2.556  0.0573  0.0008  0.0474
 8435W        W12635   6.576   5.148  12.888  0.1926 -0.0216  0.3785
 8436W        W12636   0.969   0.407   2.242 -0.0693 -0.3222  0.0111
 8437W        W12637   1.003   9.169   0.323  0.0588 -0.1353 -0.1831
 8438W        W12638   7.900   1.658   2.277  0.0864 -0.0208  0.1092
 8439W        W12639   2.388   8.596   0.617 -0.1314  0.2986 -0.1115
 8440W        W12640   0.989   2.665   2.305  0.4318  0.3015 -0.2689
 8441W        W12641   5.599   3.338   2.480  0.0847 -0.0704 -0.0367
 8442W        W12642   9.616   3.655  10.988 -0.1782 -0.0814  0.0836
 8443W        W12643   7.112   4.140   1.256 -0.0940 -0.0636  0.3094
 8444W        W12644   3.996   6.671  11.941  0.1293 -0.0994 -0.1702
 8445W        W12645   0.138   5.112   2.448 -0.1265  0.3642  0.2845
 8446W        W12646   6.315   2.732   4.421 -0.1663 -0.0773  0.0001
 8447W        W12647   9.563   1.085   4.100  0.1289 -0.3555  0.0804
 8448W        W12648   2.815   2.102   3.859  0.5147  0.1634  0.0533
 8449W        W12649  10.512   8.632   9.963  0.1825 -0.2658 -0.1531
 8450W        W12650   5.370   7.608   1.236  0.0848  0.1347  0.4352
 8451W        W12651   1.956  10.236   8.921 -0.0432  0.0334  0.0061
 8452W        W12652   7.771   6.524  13.033 -0.0463  0.0996 -0.0149
 8453W        W12653   1.109   1.336   4.042 -0.0230 -0.2799  0.1644
 8454W        W12654   1.288   2.484   0.891  0.0467  0.1943 -0.0736
 8455W        W12655   5.053   7.489   1.775  0.0611 -0.0845  0.3282
 8456W        W12656   0.242   1.816   1.810 -0.1336 -0.1360  0.0802
 8457W        W12657   7.651   5.233  10.276  0.0018 -0.4205 -0.2709
 8458W        W12658  10.507   2.957  10.954  0.2172 -0.3058  0.0936
 8459W        W12659   9.135   2.471   1.930 -0.0064  0.1518 -0.2244
 8460W        W12660   1.101   7.167   1.031  0.2985  0.0440  0.1277
 8461W        W12661   7.023   8.063   3.937 -0.0346  0.3261  0.0416
 8462W        W12662  10.003   9.575   2.386 -0.0453 -0.5364 -0.1362
 8463W        W12663   9.736   0.391   3.748 -0.0052 -0.0942  0.0308
 8464W        W12664   7.322   5.605   2.093 -0.1155  0.0202  0.0112
 8465W        W12665   9.454   2.229   2.583  0.0636  0.0875  0.1370
 8466W        W12666   2.557   9.632  10.129 -0.1574 -0.1375  0.0920
 8467W        W12667   7.531   9.302  13.032 -0.1262  0.1020  0.0746
 8468W        W12668  10.066   4.173  13.299 -0.1246 -0.1620 -0.0944
 8469W        W12669   0.112   4.870   4.582  0.2532 -0.1983 -0.1848
 8470W        W12670   4.184   1.571   3.096 -0.3192  0.1269  0.3941
 8471W        W12671   9.359   5.948   2.773 -0.0956  0.0653 -0.1629
 8472W        W12672   4.519   1.492   4.652 -0.2257 -0.1808  0.2265
 8473W        W12673   5.111   8.769   4.215 -0.0532 -0.2016 -0.0309
 8474W        W12674   4.397   6.107   3.821  0.0238  0.1658  0.0054
 8475W        W12675   9.994   7.039   8.657 -0.0792 -0.0678 -0.0144
 8476W        W12676   5.918   0.990  12.876 -0.1937 -0.0037 -0.0418
 8477W        W12677   8.274   3.086  10.066 -0.2096  0.0496 -0.2246
 8478W        W12678   6.814   5.542   1.164 -0.0168  0.4025  0.0993
 8479W        W12679   3.877   9.688   1.059 -0.0421 -0.0686 -0.3264
 8480W        W12680   9.699   6.407   1.630  0.0764 -0.0666  0.0348
 8481W        W12681   3.492   2.523   9.172 -0.0719  0.0310  0.0423
 8482W        W12682   8.781   3.736   1.688  0.3155 -0.2953  0.1826
 8483W        W12683   8.087   2.023   1.086  0.3035  0.1354 -0.0214
 8484W        W12684   1.148   9.658   4.272  0.2733 -0.2248  0.2715
 8485W        W12685   0.973   3.531   2.560  0.0773 -0.2283 -0.4124
 8486W        W12686   7.640   3.258   3.534  0.0338  0.1128  0.1261
 8487W        W12687   7.471   6.516   4.838  0.2699  0.1580 -0.1782
 8488W        W12688   9.070   5.581   9.166 -0.1843  0.1470 -0.1328
 8489W        W12689   9.583   4.145  13.150  0.0438  0.0169  0.2673
 8490W        W12690   0.572   6.035   2.132 -0.2519 -0.1221  0.1881
 8491W        W12691   0.938   3.472  12.466 -0.1193  0.1690 -0.1333
 8492W        W12692   4.370   8.211  12.168  0.2158 -0.0547 -0.0975
 8493W        W12693   3.253   0.951   3.029  0.3378 -0.1418  0.2129
 8494W        W12694   6.039   8.018   9.376  0.1569 -0.2170  0.1384
 8495W        W12695   7.358   2.429   0.436 -0.0543 -0.1094 -0.0602
 8496W        W12696   1.661   4.023   0.798  0.1471 -0.0451 -0.1682
 8497W        W12697   3.398   1.340   1.053  0.0486  0.2016 -0.0126
 8498W        W12698   0.593   6.945   2.248  0.0467 -0.3913 -0.2991
 8499W        W12699   6.773   2.163   9.668  0.1222  0.0890  0.1562
 8500W        W12700   1.258   9.006  12.102 -0.0861 -0.1036 -0.0013
 8501W        W12701  10.120   3.994   9.668  0.0139 -0.0035 -0.2400
 8502W        W12702   8.509   4.920  10.332  0.0738 -0.2046  0.3265
 8503W        W12703   5.447   3.444  11.958 -0.1072 -0.4063 -0.1180
 8504W        W12704   9.991   8.603   3.428  0.1278 -0.1655  0.1121
 8505W        W12705   8.939   6.576   2.141 -0.0715  0.0389  0.1373
 8506W        W12706   7.371   2.333   9.323 -0.2166 -0.2050 -0.1839
 8507W        W12707   2.765  10.065   2.984  0.1719  0.1791  0.1518
 8508W        W12708   7.014   4.615   0.882  0.0792  0.1406 -0.1441
 8509W        W12709   9.369   4.842  11.763 -0.0189 -0.2307 -0.3431
 8510W        W12710   3.029   9.294  10.316  0.1884 -0.3269  0.1381
 8511W        W12711   3.193  10.357  12.352  0.1056 -0.1615 -0.1250
 8512W        W12712   6.988   8.075  11.757 -0.2776  0.0410 -0.2174
 8513W        W12713  10.388   3.161  10.499  0.1243  0.3127 -0.2939
 8514W        W12714   0.857   8.741  11.861 -0.3413  0.0838  0.0331
 8515W        W12715   0.151  10.346   9.319  0.1478  0.0739  0.2181
 8516W        W12716   5.812   4.166  10.901 -0.2212  0.2270 -0.0873
 8517W        W12717   7.996   6.350  10.451  0.1854 -0.0378  0.0004
 8518W        W12718   0.626   9.147   0.789  0.0825 -0.0565  0.1294
 8519W        W12719   9.232   5.646  12.411 -0.0741  0.0095 -0.1641
 8520W        W12720   8.158   3.963   0.597 -0.0478 -0.0041 -0.3305
 8521W        W12721   4.702   4.172   9.576  0.0530  0.0317  0.1523
 8522W        W12722   2.018   7.324  11.343  0.1521 -0.3425 -0.1287
 8523W        W12723   5.885   6.469   1.967  0.1326 -0.0254 -0.2290
 8524W        W12724   4.602  10.513   2.494  0.0046  0.0793 -0.0347
 8525W        W12725   8.863   7.677   2.167  0.1130  0.2049 -0.2797
 8526W        W12726   7.366   7.365   1.621  0.1144 -0.1481 -0.1214
 8527W        W12727   4.593   3.793   9.281  0.0239  0.2597  0.0326
 8528W        W12728   2.704   1.583  11.598  0.1792 -0.0277  0.0459
 8529W        W12729   1.794   8.636   1.432 -0.0660 -0.0106  0.0545
 8530W        W12730   8.343   0.198   0.924  0.0427  0.6180  0.0921
 8531W        W12731   1.956   1.897  10.763 -0.0912 -0.1739  0.3119
 8532W        W12732   5.964   7.985   2.066  0.1087 -0.1499 -0.0546
 8533W        W12733   9.698   4.703   3.420 -0.0722  0.0163 -0.0018
 8534W        W12734   7.125   4.116   9.774  0.0060 -0.0344  0.1272
 8535ION    NA+12735   5.361   4.217   1.588 -0.1503  0.0123  0.1328
 8536ION    NA+12736   7.771   4.917   1.000  0.0598 -0.1120  0.0302
 8537ION    NA+12737   0.638   0.445   2.624 -0.1592 -0.3248 -0.2950
 8538ION    NA+12738   2.749   3.495  12.793 -0.1460 -0.1383  0.2829
 8539ION    NA+12739   9.430   5.602   1.548  0.0343 -0.1459  0.0769
 8540ION    NA+12740   6.004   7.422   9.675 -0.3823  0.0817  0.0225
 8541ION    NA+12741   8.529  10.281   2.275  0.1508 -0.1480  0.3304
 8542ION    NA+12742   9.092   7.251   9.144 -0.3405 -0.1231  0.1924
 8543ION    NA+12743   6.495   9.117   4.779  0.0699 -0.4308  0.0994
 8544ION    NA+12744   4.431   3.428  13.169  0.0516  0.0753  0.0590
 8545ION    NA+12745   9.208   2.800   3.274  0.1533  0.0649  0.1640
 8546ION    NA+12746   3.677   1.799   9.550  0.2280  0.0190  0.0438
 8547ION    NA+12747   3.630   5.875  11.475 -0.0336  0.1369  0.1815
 8548ION    NA+12748   9.613   2.494  12.190  0.0103  0.0383  0.0662
 8549ION    NA+12749   3.966   3.769   1.761 -0.2821 -0.1327  0.0214
 8550ION    NA+12750   8.955   5.570  11.110 -0.1070  0.1716  0.0956
 8551ION    NA+12751   1.513   0.038   0.504 -0.0486 -0.1182  0.1990
 8552ION    NA+12752   1.428   2.816   2.579  0.0597  0.0151 -0.1955
 8553ION    NA+12753   2.934   2.636  12.382  0.2316 -0.2197  0.3848
 8554ION    NA+12754   1.091  10.002  10.025 -0.3994  0.1294  0.0618
 8555ION    NA+12755   3.356   1.241  10.226 -0.0649 -0.1161  0.1746
 8556ION    NA+12756   5.912   0.076  11.831 -0.3173  0.0843  0.0848
 8557ION    NA+12757   0.043   6.379   9.219  0.0376  0.3289 -0.1558
 8558ION    NA+12758   8.082   9.410   0.993 -0.0647 -0.0749  0.0933
 8559ION    NA+12759   0.602   6.549  11.373 -0.0855  0.1187  0.0226
 8560ION    NA+12760   9.227   1.970   4.986  0.0081 -0.0659 -0.0520
 8561ION    NA+12761  10.306   9.503  11.201 -0.2334  0.0132  0.1523
 8562ION    NA+12762   0.538   6.866   3.406  0.0992  0.0946  0.1248
 8563ION    NA+12763   1.750   6.488   1.042  0.2174 -0.0511 -0.2273
 8564ION    NA+12764   4.735   6.787  12.788 -0.0481  0.1050 -0.1485
 8565ION    NA+12765   5.927   2.725  10.476 -0.0222  0.3446 -0.2733
 8566ION    NA+12766   4.158   7.173  11.854 -0.2169 -0.1345  0.1882
 8567ION    NA+12767   9.937   4.761   8.966 -0.1786  0.0012 -0.2461
 8568ION    NA+12768   5.798   1.390   1.320 -0.2574 -0.0508 -0.1019
 8569ION    NA+12769   6.476   9.801   2.529 -0.2747  0.0748 -0.0415
 8570ION    NA+12770   6.547   6.810   8.565  0.1022  0.1551  0.1331
 8571ION    NA+12771   4.995   7.267   0.457  0.1835 -0.2031  0.1389
 8572ION    NA+12772   0.893   2.942  12.275 -0.1504 -0.1033  0.1144
 8573ION    NA+12773   1.191   1.584   0.315 -0.2149 -0.0865  0.3772
 8574ION    NA+12774   6.206   5.258  12.111  0.1916 -0.0444 -0.0747
 8575ION    NA+12775   2.524   2.427   3.000  0.2786 -0.0123 -0.1081
 8576ION    NA+12776   2.547   2.076  11.688  0.3854  0.1052  0.0166
 8577ION    NA+12777   9.880   9.514   4.743  0.2610  0.0612  0.3917
 8578ION    NA+12778   7.759   6.611   1.110  0.1589 -0.0688  0.0666
 8579ION    NA+12779   6.778   6.086   9.638 -0.1342  0.2298  0.2206
 8580ION    NA+12780   7.505   9.978   2.122 -0.1926  0.1443  0.2284
 8581ION    NA+12781   4.760   8.559   3.727 -0.1223  0.0937 -0.2281
 8582ION    NA+12782   7.455   7.873  11.524 -0.2401  0.2381 -0.4618
 8583ION    NA+12783   1.651   2.166   9.838 -0.0109  0.0732  0.0963
 8584ION    NA+12784   1.086   0.729   9.382  0.5370 -0.4135  0.0159
 8585ION    NA+12785   0.995   8.504   2.645 -0.0591 -0.0938  0.0849
 8586ION    NA+12786   6.696   6.937   0.784  0.6233 -0.1635  0.0767
 8587ION    NA+12787   7.957   3.296   1.912 -0.0934  0.1111  0.0215
 8588ION    NA+12788   5.570   9.314   9.935  0.1237  0.0345  0.1129
 8589ION    NA+12789   3.126   7.738   3.704 -0.0505 -0.1701  0.2892
 8590ION    NA+12790   4.792   7.287   4.831  0.1212 -0.1222 -0.2240
 8591ION    NA+12791   6.060   2.612  13.257 -0.0764  0.2685  0.0844
 8592ION    NA+12792   8.331   8.330  13.077 -0.1892  0.0150  0.1631
 8593ION    NA+12793   9.824   5.075  11.451 -0.0744  0.1002 -0.0536
 8594ION    NA+12794   2.911   2.140  10.821  0.0070 -0.0121  0.1005
 8595ION    NA+12795   1.495   5.064   3.776  0.0825 -0.2427 -0.2117
 8596ION    NA+12796   0.117   8.874   4.687 -0.0707  0.0507 -0.0160
 8597ION    NA+12797   6.512   5.220   1.494  0.0757  0.0042  0.1474
 8598ION    NA+12798  10.437   3.088   3.025  0.4056  0.1066  0.2608
 8599ION    NA+12799   7.226   1.925  12.849 -0.2141  0.2074 -0.2870
 8600ION    NA+12800   2.284   2.371   4.064 -0.0839 -0.1902  0.3526
 8601ION    NA+12801   9.065   2.346   8.674  0.0213 -0.1585 -0.0743
 8602ION    NA+12802   7.379   3.507  10.496  0.1381  0.2528 -0.0683
 8603ION    NA+12803   2.745   1.257   1.371 -0.2326  0.0247  0.1337
 8604ION    NA+12804   6.729   4.542   1.303  0.4097 -0.0038 -0.3271
 8605ION    NA+12805   2.643   4.766   3.496 -0.0934 -0.1132  0.2343
 8606ION    NA+12806   3.730   3.634  12.046 -0.2291  0.0111  0.0212
 8607ION    NA+12807   6.902   9.286  11.599  0.2487  0.1443 -0.2222
 8608ION    NA+12808   6.107   5.991   8.725 -0.0329 -0.0233 -0.2181
 8609ION    NA+12809   0.807   8.172   8.741  0.0998  0.1817 -0.3697
 8610ION    NA+12810   8.976   7.634   1.123 -0.3695  0.1341  0.1420
 8611ION    NA+12811   9.070   3.272  12.490  0.1824 -0.5516 -0.1530
 8612ION    NA+12812   1.482   0.343   5.028  0.2743 -0.0998 -0.0266
 8613ION    NA+12813  10.387   8.460   0.016 -0.1181 -0.0786  0.1105
 8614ION    NA+12814  10.493   3.584   5.004  0.2901  0.2138 -0.0794
 8615ION    NA+12815   1.993   6.613   1.851 -0.1020  0.0440  0.1668
 8616ION    NA+12816   5.107   9.736   3.350  0.1889  0.3414 -0.1056
 8617ION    NA+12817   1.458   9.939   4.693  0.1233 -0.1705  0.1929
 8618ION    NA+12818   0.416   3.795   1.003  0.4126  0.1997 -0.3984
 8619ION    NA+12819   8.851   8.077   3.278 -0.0290 -0.1257  0.0651
 8620ION    NA+12820   6.126   0.957   3.605  0.1276 -0.0062  0.2983
 8621ION    NA+12821   6.217   2.545   4.999 -0.0671  0.0657  0.2067
 8622ION    NA+12822  10.160   4.536   4.750  0.2467 -0.0719  0.0481
 8623ION    NA+12823   3.145   9.985   8.713  0.2070 -0.3022  0.0273
 8624ION    NA+12824   1.813   9.922   1.771 -0.2774 -0.2415 -0.1658
 8625ION    CL-12825   7.750   0.615   4.171 -0.0740 -0.0436 -0.1937
 8626ION    CL-12826  10.489   4.932   4.035  0.0348 -0.0852  0.0299
 8627ION    CL-12827   9.353   8.268   3.083  0.0322 -0.0756 -0.0735
 8628ION    CL-12828   8.028  10.006   2.262  0.0753  0.1849  0.0100
 8629ION    CL-12829  10.271   5.945   3.174 -0.2624 -0.0817 -0.2045
 8630ION    CL-12830   3.837   4.444  10.814  0.0249  0.1505  0.5476
 8631ION    CL-12831   5.629   3.319   0.742 -0.0123  0.2550 -0.2463
 8632ION    CL-12832  10.521   0.321   4.351  0.1133 -0.0608  0.1210
 8633ION    CL-12833   3.238   3.564  12.644 -0.1097 -0.1314  0.1657
 8634ION    CL-12834   1.785  10.183   1.344  0.1226  0.2467 -0.1003
 8635ION    CL-12835   7.181   8.441   1.691  0.3475  0.0358  0.0941
 8636ION    CL-12836   6.421   7.568   9.459  0.0983  0.0432  0.2346
 8637ION    CL-12837   9.292   2.041   3.698  0.0637 -0.0806 -0.1445
 8638ION    CL-12838   1.902   2.582   2.527 -0.1775 -0.0518 -0.0409
 8639ION    CL-12839   2.782   3.231  13.277  0.3324  0.3128  0.0286
 8640ION    CL-12840   0.834   0.872  12.559  0.2045  0.0348  0.1945
 8641ION    CL-12841   0.592   3.053   2.196  0.1145 -0.3721  0.0731
 8642ION    CL-12842   9.438   2.898  12.568 -0.4144  0.0426  0.1174
 8643ION    CL-12843   9.384   5.180   1.785 -0.1597 -0.1824 -0.0831
 8644ION    CL-12844   6.240  10.078   2.881 -0.0018 -0.0749 -0.4600
 8645ION    CL-12845   2.165   2.762  10.629 -0.0730  0.0075  0.1139
 8646ION    CL-12846   8.623   8.559   0.120 -0.2235  0.1561  0.2784
 8647ION    CL-12847   0.681   0.284   1.687 -0.0823  0.0544  0.2618
 8648ION    CL-12848   5.504   3.719   1.711 -0.2277  0.2390  0.2361
 8649ION    CL-12849   3.228   2.138  11.247  0.0138 -0.2634 -0.2277
 8650ION    CL-12850   3.408   2.684   4.478  0.1785 -0.1554  0.0260
 8651ION    CL-12851   2.487   4.290   3.254  0.0647  0.2080  0.0960
 8652ION    CL-12852   0.233   4.273   1.219  0.1671  0.1312 -0.2203
 8653ION    CL-12853   4.261   3.661   2.152  0.1466  0.1596 -0.2644
 8654ION    CL-12854   3.287   5.850  11.871  0.1889  0.0068 -0.0060
 8655ION    CL-12855   0.762   8.081   2.666  0.0837  0.0765 -0.0250
 8656ION    CL-12856   9.113  10.253   4.320 -0.0670  0.1168 -0.1281
 8657ION    CL-12857   1.182   0.192   9.479  0.0784  0.0542 -0.3639
 8658ION    CL-12858   1.444   1.388   0.754 -0.0157 -0.2554 -0.0183
 8659ION    CL-12859   8.090   5.750   9.223  0.0460  0.2440  0.0069
 8660ION    CL-12860  10.031   2.798   3.080 -0.1588  0.1252 -0.2204
 8661ION    CL-12861   5.001   6.833  13.248 -0.1774  0.1886  0.0411
 8662ION    CL-12862   4.301   8.455   3.511  0.1296 -0.0267 -0.0956
 8663ION    CL-12863   5.200   4.700   1.495  0.1068 -0.2093 -0.0668
 8664ION    CL-12864   2.747   6.320   9.777 -0.1315  0.0574 -0.0000
 8665ION    CL-12865   2.334   2.234   3.584  0.0417 -0.1044 -0.1175
 8666ION    CL-12866   7.125   2.069   2.901  0.0561 -0.0009 -0.0013
 8667ION    CL-12867   8.176   2.684  10.886  0.2127  0.1441  0.0695
 8668ION    CL-12868   9.639   3.865   4.137 -0.0187 -0.0049 -0.0064
 8669ION    CL-12869   8.000   7.930  12.986 -0.0611 -0.1763 -0.2841
 8670ION    CL-12870   7.892   7.315   1.379 -0.0975 -0.0758  0.2330
 8671ION    CL-12871   6.533   6.421   9.435 -0.2161 -0.1058  0.0440
 8672ION    CL-12872   6.890   5.342   1.932 -0.2631  0.0365  0.0985
 8673ION    CL-12873   9.773   1.448   8.912 -0.0156 -0.4406  0.0015
 8674ION    CL-12874   2.065   6.769   1.389  0.0093 -0.2871  0.3299
 8675ION    CL-12875   9.178   7.961   0.783  0.2819  0.2755  0.3480
 8676ION    CL-12876   1.553  10.019  11.451  0.0858  0.0873 -0.1240
 8677ION    CL-12877   7.455   4.783   0.637 -0.2299  0.1125 -0.1820
 8678ION    CL-12878   6.938   5.833   9.997  0.0128 -0.1878  0.0421
 8679ION    CL-12879   1.590   2.509   3.412  0.3102  0.0644  0.3319
 8680ION    CL-12880   4.493  10.057  11.607  0.2866  0.0299  0.0173
 8681ION    CL-12881   6.005   0.886   0.893  0.0629  0.1889 -0.2283
 8682ION    CL-12882   4.002   5.692  11.252 -0.1852 -0.0956 -0.2172
 8683ION    CL-12883  10.048   8.260   0.339 -0.0387 -0.2756 -0.2128
 8684ION    CL-12884   7.517   3.166   2.204  0.3494 -0.2577 -0.0897
 8685ION    CL-12885   1.090   0.327   0.446 -0.1857  0.3121 -0.0516
 8686ION    CL-12886   0.304   0.847   2.444  0.1444 -0.1954  0.0795
 8687ION    CL-12887   0.092   3.928   4.164  0.1218 -0.0060  0.2918
 8688ION    CL-12888   1.741   1.670   9.961 -0.3667 -0.0735  0.0211
 8689ION    CL-12889   0.579   2.620   0.352  0.0863  0.0578 -0.0934
 8690ION    CL-12890   9.898   9.146  11.290 -0.0185  0.1669 -0.5202
 8691ION    CL-12891   5.760   4.861  12.100 -0.2744  0.1998  0.0054
 8692ION    CL-12892   3.787   8.224   9.786  0.2371 -0.0004  0.0007
 8693ION    CL-12893   3.086   3.142  12.379  0.0608  0.2342 -0.0993
 8694ION    CL-12894  10.256   7.158   9.906  0.0489  0.2698  0.1737
 8695ION    CL-12895   7.603   6.509   0.532 -0.1151 -0.3359  0.1038
 8696ION    CL-12896  10.071   5.064  12.240  0.3052  0.0941 -0.0250
 8697ION    CL-12897   1.226   2.465   9.944 -0.0043  0.0026 -0.0572
 8698ION    CL-12898   0.291   7.125   3.044 -0.1279 -0.1075  0.0416
 8699ION    CL-12899   4.653   7.216  12.145 -0.3170  0.4173 -0.0718
 8700ION    CL-12900   5.631   7.170   9.391 -0.1768  0.1113 -0.0391
 8701ION    CL-12901   0.176   1.320   0.851 -0.1321  0.0675 -0.2809
 8702ION    CL-12902   1.330   2.028  13.343  0.4122  0.2700  0.0804
 8703ION    CL-12903   4.675   3.910  13.172  0.4600 -0.1013 -0.1676
 8704ION    CL-12904   9.575   3.537   9.450 -0.2851  0.0148  0.0891
 8705ION    CL-12905   3.302   1.730  10.159  0.0768 -0.2037 -0.0947
 8706ION    CL-12906   1.920   2.936  12.284 -0.0503  0.0129  0.2519
 8707ION    CL-12907   1.548   8.787   9.777 -0.0677 -0.0238  0.3137
 8708ION    CL-12908   5.229   9.051  10.161 -0.0032 -0.1112 -0.1708
 8709ION    CL-12909   5.184   5.949   3.337  0.3207  0.3304  0.0204
 8710ION    CL-12910   5.898   1.688   1.726 -0.2090  0.1027  0.0131
 8711ION    CL-12911   1.950   1.296   4.047 -0.3319  0.0532  0.1880
 8712ION    CL-12912   5.131   2.095  10.427 -0.0759 -0.0701 -0.4178
 8713ION    CL-12913   6.263   4.862   1.194 -0.0093  0.1090 -0.0187
 8714ION    CL-12914   4.743   7.373   0.936  0.1725 -0.0917 -0.0657
  10.52781  10.52781  13.34939
