Protein in INSANE! Membrane UpperLeaflet>POPC=1.0 LowerLeaflet>POPC=1.0
11530
    1AU     AUC    1   5.246   5.278   5.989
    1AU     AUC    2   5.399   5.304   5.903
    1AU     AUC    3   5.394   5.285   6.083
    1AU     AUC    4   5.108   5.280   5.889
    1AU     AUC    5   5.087   5.285   6.076
    1AU     AUC    6   5.160   5.430   6.003
    1AU     AUC    7   5.323   5.426   5.996
    1AU     AUC    8   5.173   5.136   6.015
    1AU     AUC    9   5.322   5.140   5.989
    1AU     AUC   10   5.238   5.184   6.123
    1AU     AUC   11   5.265   5.365   6.142
    1AU     AUC   12   5.242   5.210   5.843
    1AU     AUC   13   5.242   5.375   5.863
    1AU     AUC   14   5.519   5.284   5.831
    1AU     AUC   15   5.559   5.285   6.006
    1AU     AUC   16   5.518   5.257   6.155
    1AU     AUC   17   4.970   5.287   5.829
    1AU     AUC   18   4.932   5.272   5.983
    1AU     AUC   19   4.957   5.264   6.134
    1AU     AUC   20   5.064   5.546   5.988
    1AU     AUC   21   5.173   5.598   6.021
    1AU     AUC   22   5.404   5.566   5.994
    1AU     AUC   23   5.080   5.000   5.993
    1AU     AUC   24   5.229   4.915   6.051
    1AU     AUC   25   5.429   5.024   5.979
    1AU     AUC   26   5.284   5.102   6.272
    1AU     AUC   27   5.235   5.267   6.302
    1AU     AUC   28   5.231   5.451   6.267
    1AU     AUC   29   5.259   5.153   5.696
    1AU     AUC   30   5.267   5.296   5.660
    1AU     AUC   31   5.249   5.466   5.729
    1AU     AUC   32   5.421   5.136   6.245
    1AU     AUC   33   5.387   5.371   6.254
    1AU     AUC   34   5.437   5.191   5.745
    1AU     AUC   35   5.403   5.419   5.735
    1AU     AUC   36   5.099   5.049   6.282
    1AU     AUC   37   5.049   5.339   6.246
    1AU     AUC   38   5.084   5.171   5.752
    1AU     AUC   39   5.077   5.399   5.733
    1AU     AUC   40   5.511   5.438   5.880
    1AU     AUC   41   5.541   5.406   6.125
    1AU     AUC   42   4.971   5.421   5.853
    1AU     AUC   43   4.989   5.400   6.110
    1AU     AUC   44   5.472   5.082   5.907
    1AU     AUC   45   5.503   5.122   6.087
    1AU     AUC   46   5.021   5.063   5.919
    1AU     AUC   47   4.964   5.114   6.062
    1AU     AUC   48   5.148   5.537   6.177
    1AU     AUC   49   5.423   5.552   6.133
    1AU     AUC   50   5.135   5.037   6.177
    1AU     AUC   51   5.353   4.992   6.171
    1AU     AUC   52   5.145   5.550   5.814
    1AU     AUC   53   5.344   5.583   5.868
    1AU     AUC   54   5.194   5.031   5.776
    1AU     AUC   55   5.347   5.039   5.828
    1AU    AUSL   56   5.644   5.240   6.521
    1AU    AUSL   57   5.554   4.975   6.483
    1AU     AUL   58   5.951   5.110   6.446
    1AU       S   59   5.791   4.675   6.723
    1AU     LIG   60   5.936   4.239   6.902
    1AU     LIG   61   6.104   3.793   6.949
    1AU       S   62   5.742   5.219   6.951
    1AU     LIG   63   6.058   5.314   7.270
    1AU     LIG   64   6.121   5.122   7.691
    1AU    AUSL   65   5.339   5.155   6.411
    1AU    AUSL   66   5.114   5.309   6.362
    1AU     AUL   67   5.375   5.189   6.536
    1AU       S   68   5.495   5.043   7.006
    1AU     LIG   69   5.621   5.111   7.449
    1AU     LIG   70   5.648   4.985   7.897
    1AU       S   71   4.734   5.135   7.196
    1AU     LIG   72   4.742   5.362   7.583
    1AU     LIG   73   4.591   5.346   8.020
    1AU    AUSL   74   5.303   5.458   6.554
    1AU    AUSL   75   5.484   5.390   6.349
    1AU     AUL   76   5.609   5.378   6.413
    1AU       S   77   5.331   5.572   6.962
    1AU     LIG   78   5.653   5.629   7.277
    1AU     LIG   79   5.801   5.526   7.702
    1AU       S   80   5.833   5.682   6.798
    1AU     LIG   81   6.261   5.758   7.031
    1AU     LIG   82   6.708   5.949   7.048
    1AU    AUSL   83   5.548   5.352   5.452
    1AU    AUSL   84   5.561   5.634   5.637
    1AU     AUL   85   5.283   5.742   5.329
    1AU       S   86   5.644   5.319   5.044
    1AU     LIG   87   5.908   5.110   4.711
    1AU     LIG   88   6.187   5.099   4.321
    1AU       S   89   5.854   5.844   5.372
    1AU     LIG   90   6.003   6.198   5.110
    1AU     LIG   91   6.155   6.587   4.904
    1AU    AUSL   92   5.311   5.182   5.536
    1AU    AUSL   93   5.539   5.185   5.678
    1AU     AUL   94   5.738   5.140   5.557
    1AU       S   95   5.702   4.366   5.333
    1AU     LIG   96   6.167   4.400   5.165
    1AU     LIG   97   6.542   4.201   4.985
    1AU       S   98   5.437   5.064   5.022
    1AU     LIG   99   5.482   4.829   4.624
    1AU     LIG  100   5.758   4.813   4.245
    1AU    AUSL  101   5.369   5.443   5.634
    1AU    AUSL  102   5.085   5.209   5.381
    1AU     AUL  103   5.322   5.511   5.465
    1AU       S  104   4.902   5.070   5.024
    1AU     LIG  105   4.895   4.932   4.584
    1AU     LIG  106   4.589   4.913   4.214
    1AU       S  107   5.410   5.296   4.808
    1AU     LIG  108   5.567   5.286   4.364
    1AU     LIG  109   5.833   5.267   3.969
    1AU    AUSL  110   4.910   5.145   6.460
    1AU    AUSL  111   5.204   5.573   6.319
    1AU     AUL  112   5.093   5.274   6.542
    1AU       S  113   4.739   5.302   6.927
    1AU     LIG  114   4.402   5.514   7.206
    1AU     LIG  115   4.222   5.389   7.639
    1AU       S  116   4.866   5.951   6.679
    1AU     LIG  117   4.545   6.128   6.989
    1AU     LIG  118   4.344   6.457   7.273
    1AU    AUSL  119   5.158   5.003   6.558
    1AU    AUSL  120   4.762   4.949   6.336
    1AU     AUL  121   4.846   4.849   6.711
    1AU       S  122   4.441   4.621   6.467
    1AU     LIG  123   4.068   4.423   6.666
    1AU     LIG  124   3.894   4.307   7.082
    1AU       S  125   5.027   5.179   7.055
    1AU     LIG  126   5.118   5.017   7.498
    1AU     LIG  127   4.844   4.910   7.874
    1AU    AUSL  128   4.859   5.264   5.540
    1AU    AUSL  129   5.057   5.104   5.644
    1AU     AUL  130   5.172   4.938   5.500
    1AU       S  131   4.614   5.172   5.152
    1AU     LIG  132   4.397   4.991   4.746
    1AU     LIG  133   4.160   5.176   4.363
    1AU       S  134   4.604   4.661   5.138
    1AU     LIG  135   4.429   4.304   4.942
    1AU     LIG  136   4.224   3.961   4.685
    1AU    AUSL  137   5.107   5.386   5.591
    1AU    AUSL  138   4.877   5.507   5.676
    1AU     AUL  139   5.089   5.491   5.304
    1AU       S  140   4.560   5.647   5.280
    1AU     LIG  141   4.310   6.001   5.032
    1AU     LIG  142   4.167   6.264   4.656
    1AU       S  143   4.741   5.324   4.889
    1AU     LIG  144   4.639   5.374   4.452
    1AU     LIG  145   4.478   5.410   4.014
    1AU    AUSL  146   5.620   5.535   5.902
    1AU    AUSL  147   5.720   5.403   5.680
    1AU     AUL  148   5.679   5.635   6.008
    1AU       S  149   6.063   5.619   5.443
    1AU     LIG  150   6.384   5.824   5.157
    1AU     LIG  151   6.518   6.224   4.969
    1AU       S  152   6.311   5.961   6.032
    1AU     LIG  153   6.734   6.214   5.973
    1AU     LIG  154   7.087   6.415   5.712
    1AU    AUSL  155   5.868   5.426   5.948
    1AU    AUSL  156   5.827   5.120   6.100
    1AU     AUL  157   5.870   5.357   6.324
    1AU       S  158   6.241   5.623   5.921
    1AU     LIG  159   6.596   5.779   5.661
    1AU     LIG  160   7.046   5.777   5.754
    1AU       S  161   6.190   4.818   6.097
    1AU     LIG  162   6.627   4.718   6.259
    1AU     LIG  163   7.076   4.555   6.398
    1AU    AUSL  164   5.665   5.374   6.131
    1AU    AUSL  165   5.438   5.620   6.153
    1AU     AUL  166   5.721   5.605   6.284
    1AU       S  167   5.985   5.958   6.662
    1AU     LIG  168   6.414   6.164   6.672
    1AU     LIG  169   6.726   6.443   6.899
    1AU       S  170   6.239   5.691   6.202
    1AU     LIG  171   6.737   5.732   6.185
    1AU     LIG  172   7.198   5.644   6.301
    1AU    AUSL  173   4.899   5.542   5.959
    1AU    AUSL  174   4.846   5.390   6.332
    1AU     AUL  175   4.781   5.586   5.989
    1AU       S  176   4.586   5.680   6.664
    1AU     LIG  177   4.174   5.811   6.833
    1AU     LIG  178   3.993   6.091   7.150
    1AU       S  179   4.461   6.002   6.061
    1AU     LIG  180   4.276   6.453   6.065
    1AU     LIG  181   3.875   6.611   5.927
    1AU    AUSL  182   4.836   5.282   5.858
    1AU    AUSL  183   4.830   5.756   5.770
    1AU     AUL  184   4.540   5.540   5.844
    1AU       S  185   4.269   5.166   5.561
    1AU     LIG  186   3.933   5.450   5.763
    1AU     LIG  187   3.575   5.752   5.713
    1AU       S  188   4.550   6.054   5.542
    1AU     LIG  189   4.393   6.435   5.317
    1AU     LIG  190   4.049   6.583   5.056
    1AU    AUSL  191   4.693   5.350   6.098
    1AU    AUSL  192   4.682   5.084   5.970
    1AU     AUL  193   4.693   5.319   5.763
    1AU       S  194   4.205   5.120   6.062
    1AU     LIG  195   3.840   4.936   5.779
    1AU     LIG  196   3.409   4.729   5.775
    1AU       S  197   4.299   5.570   6.293
    1AU     LIG  198   3.905   5.816   6.393
    1AU     LIG  199   3.449   6.008   6.362
    1AU    AUSL  200   5.586   4.999   6.004
    1AU    AUSL  201   5.572   5.139   6.253
    1AU     AUL  202   5.717   5.112   6.288
    1AU       S  203   5.992   4.610   5.994
    1AU     LIG  204   6.340   4.333   5.987
    1AU     LIG  205   6.572   4.216   5.581
    1AU       S  206   6.119   4.597   6.575
    1AU     LIG  207   6.426   4.373   6.818
    1AU     LIG  208   6.456   4.094   7.170
    1AU    AUSL  209   5.686   5.225   5.896
    1AU    AUSL  210   5.674   4.951   5.753
    1AU     AUL  211   5.890   5.190   5.798
    1AU       S  212   6.177   4.793   5.838
    1AU     LIG  213   6.614   4.701   5.750
    1AU     LIG  214   7.049   4.731   5.908
    1AU       S  215   5.856   4.590   5.513
    1AU     LIG  216   6.066   4.155   5.595
    1AU     LIG  217   6.221   3.881   5.240
    1AU    AUSL  218   4.947   5.004   5.920
    1AU    AUSL  219   4.784   5.046   5.703
    1AU     AUL  220   4.838   4.703   5.894
    1AU       S  221   4.537   4.765   5.425
    1AU     LIG  222   4.124   4.570   5.334
    1AU     LIG  223   3.927   4.256   5.043
    1AU       S  224   4.021   5.144   6.204
    1AU     LIG  225   4.039   4.640   6.143
    1AU     LIG  226   3.843   4.413   5.790
    1AU    AUSL  227   4.861   5.139   6.168
    1AU    AUSL  228   4.908   4.842   6.131
    1AU     AUL  229   4.607   4.820   6.003
    1AU       S  230   4.595   4.419   6.327
    1AU     LIG  231   4.308   4.022   6.426
    1AU     LIG  232   4.018   3.748   6.723
    1AU       S  233   4.268   5.083   6.336
    1AU     LIG  234   3.827   4.866   6.548
    1AU     LIG  235   3.343   4.925   6.516
    1AU    AUSL  236   5.288   5.828   6.302
    1AU    AUSL  237   4.949   5.626   6.219
    1AU     AUL  238   5.042   5.549   6.477
    1AU       S  239   4.786   6.060   6.429
    1AU     LIG  240   4.346   6.172   6.516
    1AU     LIG  241   4.138   6.447   6.799
    1AU       S  242   5.271   6.216   6.464
    1AU     LIG  243   5.413   6.681   6.596
    1AU     LIG  244   5.348   7.159   6.700
    1AU    AUSL  245   5.181   5.713   6.070
    1AU    AUSL  246   5.247   5.901   5.856
    1AU     AUL  247   4.960   5.820   6.012
    1AU       S  248   5.134   6.456   6.223
    1AU     LIG  249   5.101   6.937   6.271
    1AU     LIG  250   4.845   7.166   6.586
    1AU       S  251   5.415   6.338   5.720
    1AU     LIG  252   5.671   6.737   5.581
    1AU     LIG  253   5.787   7.182   5.501
    1AU    AUSL  254   5.421   5.876   6.063
    1AU    AUSL  255   5.469   5.652   6.427
    1AU     AUL  256   5.690   5.868   6.173
    1AU       S  257   5.640   5.912   6.742
    1AU     LIG  258   5.876   6.094   7.128
    1AU     LIG  259   6.312   6.274   7.186
    1AU       S  260   5.415   6.328   6.206
    1AU     LIG  261   5.537   6.755   6.084
    1AU     LIG  262   5.724   7.076   6.367
    1AU    AUSL  263   5.329   4.887   6.349
    1AU    AUSL  264   5.582   4.854   6.233
    1AU     AUL  265   5.258   4.736   6.473
    1AU       S  266   5.022   4.110   6.506
    1AU     LIG  267   5.056   3.712   6.722
    1AU     LIG  268   4.970   3.363   7.023
    1AU       S  269   5.858   4.517   6.452
    1AU     LIG  270   6.170   4.111   6.450
    1AU     LIG  271   6.521   3.845   6.662
    1AU    AUSL  272   5.143   4.729   6.211
    1AU    AUSL  273   5.082   5.004   6.286
    1AU     AUL  274   4.976   4.808   6.465
    1AU       S  275   5.042   4.239   6.251
    1AU     LIG  276   4.816   3.730   6.246
    1AU     LIG  277   4.908   3.289   6.477
    1AU       S  278   4.579   4.361   6.643
    1AU     LIG  279   4.350   4.070   6.953
    1AU     LIG  280   4.121   3.896   7.338
    1AU    AUSL  281   5.338   4.883   6.073
    1AU    AUSL  282   5.111   4.770   5.939
    1AU     AUL  283   5.399   4.641   6.207
    1AU       S  284   5.040   4.249   5.759
    1AU     LIG  285   4.800   3.835   5.729
    1AU     LIG  286   4.801   3.413   5.514
    1AU       S  287   5.236   4.001   6.290
    1AU     LIG  288   5.313   3.538   6.291
    1AU     LIG  289   5.374   3.283   6.687
    1AU    AUSL  290   5.305   5.752   5.621
    1AU    AUSL  291   5.393   5.673   5.869
    1AU     AUL  292   5.629   5.872   5.869
    1AU       S  293   5.430   6.222   5.458
    1AU     LIG  294   5.394   6.590   5.171
    1AU     LIG  295   5.341   7.049   5.246
    1AU       S  296   6.110   5.949   5.547
    1AU     LIG  297   6.376   6.323   5.474
    1AU     LIG  298   6.561   6.690   5.232
    1AU    AUSL  299   5.091   5.676   5.804
    1AU    AUSL  300   5.060   5.661   5.529
    1AU     AUL  301   5.002   6.000   5.766
    1AU       S  302   5.226   6.504   5.640
    1AU     LIG  303   5.108   6.932   5.704
    1AU     LIG  304   4.820   7.107   5.381
    1AU       S  305   4.758   5.926   5.267
    1AU     LIG  306   4.730   6.299   4.959
    1AU     LIG  307   4.476   6.663   4.779
    1AU    AUSL  308   5.248   4.944   5.774
    1AU    AUSL  309   4.986   4.841   5.696
    1AU     AUL  310   5.282   4.714   5.642
    1AU       S  311   4.772   4.570   5.384
    1AU     LIG  312   4.462   4.200   5.459
    1AU     LIG  313   4.006   4.024   5.496
    1AU       S  314   5.175   4.118   5.504
    1AU     LIG  315   5.106   3.726   5.259
    1AU     LIG  316   5.080   3.335   4.975
    1AU    AUSL  317   5.469   4.797   5.845
    1AU    AUSL  318   5.450   4.937   5.585
    1AU     AUL  319   5.370   4.654   5.918
    1AU       S  320   5.279   4.036   5.779
    1AU     LIG  321   5.252   3.579   5.734
    1AU     LIG  322   5.257   3.186   5.448
    1AU       S  323   5.661   4.676   5.259
    1AU     LIG  324   5.782   4.455   4.839
    1AU     LIG  325   6.082   4.078   4.746
    2POPC   NC3  326   3.431   8.765   8.049
    2POPC   PO4  327   3.985   8.350   8.217
    2POPC   GL1  328   3.837   8.661   7.727
    2POPC   GL2  329   3.478   8.652   7.566
    2POPC   C1A  330   3.828   8.742   7.245
    2POPC   D2A  331   3.735   8.456   6.956
    2POPC   C3A  332   3.494   8.445   6.603
    2POPC   C4A  333   3.580   8.581   6.217
    2POPC   C1B  334   3.261   8.607   7.232
    2POPC   C2B  335   3.219   8.798   6.896
    2POPC   C3B  336   3.135   8.780   6.516
    2POPC   C4B  337   3.197   8.910   6.118
    3POPC   NC3  338   1.189   5.035   8.138
    3POPC   PO4  339   0.563   4.718   8.135
    3POPC   GL1  340   0.896   4.816   7.749
    3POPC   GL2  341   1.072   5.126   7.669
    3POPC   C1A  342   1.113   4.710   7.357
    3POPC   D2A  343   0.944   4.832   6.954
    3POPC   C3A  344   1.058   4.631   6.576
    3POPC   C4A  345   1.181   4.753   6.156
    3POPC   C1B  346   1.347   5.167   7.328
    3POPC   C2B  347   1.460   5.054   6.938
    3POPC   C3B  348   1.298   5.062   6.568
    3POPC   C4B  349   1.405   5.207   6.195
    4POPC   NC3  350   9.379   1.789   8.165
    4POPC   PO4  351   8.912   2.187   7.893
    4POPC   GL1  352   9.071   1.913   7.621
    4POPC   GL2  353   9.318   1.674   7.684
    4POPC   C1A  354   9.206   1.951   7.218
    4POPC   D2A  355   9.309   1.762   6.821
    4POPC   C3A  356   9.504   2.040   6.522
    4POPC   C4A  357   9.657   2.262   6.169
    4POPC   C1B  358   9.401   1.482   7.297
    4POPC   C2B  359   9.742   1.613   7.042
    4POPC   C3B  360   9.810   1.622   6.576
    4POPC   C4B  361   9.945   1.404   6.202
    5POPC   NC3  362   0.450   7.932   8.344
    5POPC   PO4  363   0.086   7.426   8.045
    5POPC   GL1  364   0.212   7.650   7.573
    5POPC   GL2  365   0.252   8.017   7.437
    5POPC   C1A  366   0.388   7.613   7.160
    5POPC   D2A  367   0.597   7.794   6.797
    5POPC   C3A  368   0.567   7.671   6.345
    5POPC   C4A  369   0.252   7.718   5.981
    5POPC   C1B  370   0.338   8.377   7.255
    5POPC   C2B  371   0.434   8.280   6.860
    5POPC   C3B  372   0.273   8.064   6.514
    5POPC   C4B  373   0.409   8.155   6.138
    6POPC   NC3  374   2.973   1.510   8.188
    6POPC   PO4  375   3.598   1.736   8.254
    6POPC   GL1  376   3.617   1.501   7.887
    6POPC   GL2  377   3.594   1.132   7.868
    6POPC   C1A  378   3.493   1.524   7.484
    6POPC   D2A  379   3.483   1.693   7.073
    6POPC   C3A  380   3.664   1.526   6.665
    6POPC   C4A  381   3.487   1.448   6.254
    6POPC   C1B  382   3.387   1.027   7.457
    6POPC   C2B  383   3.516   1.196   7.041
    6POPC   C3B  384   3.366   1.102   6.612
    6POPC   C4B  385   3.518   0.944   6.209
    7POPC   NC3  386   8.585   9.161   8.123
    7POPC   PO4  387   9.018   9.602   8.376
    7POPC   GL1  388   8.878   9.472   7.834
    7POPC   GL2  389   8.804   9.212   7.634
    7POPC   C1A  390   8.818   9.666   7.412
    7POPC   D2A  391   8.752   9.640   6.976
    7POPC   C3A  392   8.753   9.349   6.674
    7POPC   C4A  393   8.711   9.499   6.267
    7POPC   C1B  394   8.575   9.193   7.251
    7POPC   C2B  395   8.371   9.035   6.883
    7POPC   C3B  396   8.235   9.239   6.518
    7POPC   C4B  397   8.283   9.323   6.087
    8POPC   NC3  398   6.228   0.318   8.154
    8POPC   PO4  399   6.796  10.435   8.057
    8POPC   GL1  400   6.637   0.194   7.655
    8POPC   GL2  401   6.366   0.453   7.687
    8POPC   C1A  402   6.511   0.435   7.213
    8POPC   D2A  403   6.294   0.697   6.893
    8POPC   C3A  404   6.498   0.704   6.497
    8POPC   C4A  405   6.742   0.554   6.126
    8POPC   C1B  406   6.217   0.059   7.442
    8POPC   C2B  407   6.372  10.430   7.037
    8POPC   C3B  408   6.427   0.210   6.669
    8POPC   C4B  409   6.301   0.295   6.240
    9POPC   NC3  410   8.961   4.774   8.182
    9POPC   PO4  411   8.576   5.241   7.969
    9POPC   GL1  412   8.883   5.096   7.701
    9POPC   GL2  413   8.737   4.780   7.688
    9POPC   C1A  414   8.891   5.175   7.252
    9POPC   D2A  415   8.690   5.015   6.866
    9POPC   C3A  416   8.750   4.856   6.480
    9POPC   C4A  417   8.832   4.985   6.089
    9POPC   C1B  418   8.542   4.807   7.297
    9POPC   C2B  419   8.297   4.696   6.929
    9POPC   C3B  420   8.331   4.576   6.481
    9POPC   C4B  421   8.407   4.662   6.017
   10POPC   NC3  422   4.211   9.471   7.974
   10POPC   PO4  423   3.598   9.272   8.206
   10POPC   GL1  424   3.777   9.566   7.700
   10POPC   GL2  425   4.153   9.607   7.478
   10POPC   C1A  426   3.715   9.539   7.262
   10POPC   D2A  427   4.001   9.472   6.898
   10POPC   C3A  428   3.786   9.554   6.496
   10POPC   C4A  429   3.957   9.508   6.042
   10POPC   C1B  430   4.428   9.285   7.194
   10POPC   C2B  431   4.629   9.050   6.854
   10POPC   C3B  432   4.463   8.901   6.483
   10POPC   C4B  433   4.178   9.245   6.430
   11POPC   NC3  434   9.901   5.552   8.337
   11POPC   PO4  435   9.733   5.270   7.780
   11POPC   GL1  436   9.923   5.404   7.487
   11POPC   GL2  437  10.161   5.584   7.722
   11POPC   C1A  438   9.765   5.208   7.107
   11POPC   D2A  439   9.690   5.493   6.797
   11POPC   C3A  440   9.675   5.404   6.373
   11POPC   C4A  441   9.844   5.665   6.058
   11POPC   C1B  442  10.312   5.736   7.349
   11POPC   C2B  443  10.104   5.897   6.963
   11POPC   C3B  444  10.084   5.745   6.548
   11POPC   C4B  445  10.313   5.830   6.152
   12POPC   NC3  446   6.295   1.540   8.283
   12POPC   PO4  447   5.962   2.117   8.297
   12POPC   GL1  448   6.332   1.900   7.924
   12POPC   GL2  449   6.568   2.139   7.783
   12POPC   C1A  450   6.265   1.766   7.428
   12POPC   D2A  451   6.462   1.685   6.978
   12POPC   C3A  452   6.240   1.573   6.586
   12POPC   C4A  453   6.252   1.688   6.155
   12POPC   C1B  454   6.519   2.201   7.315
   12POPC   C2B  455   6.670   2.178   6.893
   12POPC   C3B  456   6.573   1.950   6.517
   12POPC   C4B  457   6.621   2.011   6.067
   13POPC   NC3  458   1.443   0.913   8.047
   13POPC   PO4  459   2.092   0.852   8.053
   13POPC   GL1  460   1.942   1.078   7.684
   13POPC   GL2  461   2.266   1.225   7.665
   13POPC   C1A  462   1.736   1.034   7.296
   13POPC   D2A  463   1.669   0.770   6.904
   13POPC   C3A  464   1.883   0.851   6.492
   13POPC   C4A  465   1.667   0.815   6.080
   13POPC   C1B  466   2.120   1.394   7.282
   13POPC   C2B  467   1.948   1.248   6.880
   13POPC   C3B  468   1.760   1.335   6.487
   13POPC   C4B  469   1.978   1.199   6.105
   14POPC   NC3  470   7.146   2.022   8.075
   14POPC   PO4  471   6.663   1.453   8.042
   14POPC   GL1  472   6.855   1.708   7.711
   14POPC   GL2  473   7.219   1.773   7.643
   14POPC   C1A  474   6.868   1.827   7.273
   14POPC   D2A  475   6.983   1.756   6.856
   14POPC   C3A  476   7.059   2.075   6.550
   14POPC   C4A  477   7.048   1.823   6.245
   14POPC   C1B  478   7.387   1.718   7.225
   14POPC   C2B  479   7.616   1.553   6.871
   14POPC   C3B  480   7.490   1.768   6.504
   14POPC   C4B  481   7.495   2.088   6.184
   15POPC   NC3  482   6.425   9.123   8.054
   15POPC   PO4  483   6.909   9.582   8.117
   15POPC   GL1  484   6.644   9.600   7.711
   15POPC   GL2  485   6.382   9.371   7.606
   15POPC   C1A  486   6.518   9.759   7.296
   15POPC   D2A  487   6.543   9.585   6.865
   15POPC   C3A  488   6.515   9.818   6.484
   15POPC   C4A  489   6.458   9.757   6.030
   15POPC   C1B  490   6.256   9.266   7.182
   15POPC   C2B  491   6.056   9.395   6.788
   15POPC   C3B  492   6.253   9.345   6.391
   15POPC   C4B  493   6.157   9.321   5.950
   16POPC   NC3  494   9.441   3.291   8.083
   16POPC   PO4  495   9.828   3.905   8.116
   16POPC   GL1  496   9.716   3.585   7.768
   16POPC   GL2  497   9.367   3.609   7.688
   16POPC   C1A  498   9.679   3.351   7.360
   16POPC   D2A  499   9.549   3.517   6.939
   16POPC   C3A  500   9.762   3.540   6.551
   16POPC   C4A  501   9.587   3.542   6.135
   16POPC   C1B  502   9.191   3.434   7.294
   16POPC   C2B  503   9.032   3.489   6.889
   16POPC   C3B  504   9.243   3.464   6.505
   16POPC   C4B  505   9.190   3.194   6.123
   17POPC   NC3  506   0.508   5.744   8.323
   17POPC   PO4  507  10.366   5.577   8.222
   17POPC   GL1  508   0.172   5.519   7.816
   17POPC   GL2  509   0.505   5.732   7.802
   17POPC   C1A  510   0.281   5.478   7.324
   17POPC   D2A  511   0.119   5.756   6.943
   17POPC   C3A  512   0.176   5.802   6.496
   17POPC   C4A  513   0.199   5.448   6.198
   17POPC   C1B  514   0.634   5.891   7.378
   17POPC   C2B  515   0.650   5.718   6.953
   17POPC   C3B  516   0.608   5.562   6.526
   17POPC   C4B  517   0.574   5.772   6.115
   18POPC   NC3  518  10.176   0.470   8.261
   18POPC   PO4  519   9.633   0.155   8.036
   18POPC   GL1  520   9.972   0.178   7.728
   18POPC   GL2  521  10.232   0.395   7.711
   18POPC   C1A  522   9.910   0.182   7.276
   18POPC   D2A  523  10.060   0.506   7.042
   18POPC   C3A  524  10.098   0.523   6.616
   18POPC   C4A  525  10.244   0.378   6.217
   18POPC   C1B  526  10.487   0.456   7.320
   18POPC   C2B  527   0.079   0.603   6.882
   18POPC   C3B  528   0.018   0.776   6.458
   18POPC   C4B  529  10.477   0.724   5.953
   19POPC   NC3  530   1.502  10.424   8.095
   19POPC   PO4  531   2.213  10.345   8.027
   19POPC   GL1  532   1.859  10.266   7.707
   19POPC   GL2  533   1.774   9.919   7.578
   19POPC   C1A  534   1.673  10.349   7.290
   19POPC   D2A  535   1.532  10.234   6.911
   19POPC   C3A  536   1.790  10.428   6.565
   19POPC   C4A  537   1.635  10.471   6.155
   19POPC   C1B  538   2.058   9.994   7.240
   19POPC   C2B  539   1.951   9.992   6.815
   19POPC   C3B  540   1.598   9.974   6.487
   19POPC   C4B  541   1.903  10.023   6.166
   20POPC   NC3  542   0.530   6.741   8.254
   20POPC   PO4  543   0.804   6.062   8.146
   20POPC   GL1  544   0.642   6.295   7.779
   20POPC   GL2  545   0.315   6.442   7.782
   20POPC   C1A  546   0.578   6.412   7.341
   20POPC   D2A  547   0.695   6.271   6.946
   20POPC   C3A  548   0.636   6.502   6.558
   20POPC   C4A  549   0.444   6.260   6.230
   20POPC   C1B  550   0.111   6.651   7.398
   20POPC   C2B  551   0.065   6.831   6.998
   20POPC   C3B  552   0.120   6.663   6.605
   20POPC   C4B  553   0.288   6.765   6.213
   21POPC   NC3  554   2.413   2.023   8.107
   21POPC   PO4  555   2.512   1.385   8.087
   21POPC   GL1  556   2.702   1.643   7.772
   21POPC   GL2  557   2.722   2.021   7.690
   21POPC   C1A  558   2.589   1.622   7.356
   21POPC   D2A  559   2.787   1.790   7.008
   21POPC   C3A  560   2.643   1.726   6.596
   21POPC   C4A  561   2.533   1.528   6.233
   21POPC   C1B  562   2.468   2.108   7.314
   21POPC   C2B  563   2.354   2.081   6.866
   21POPC   C3B  564   2.471   2.179   6.436
   21POPC   C4B  565   2.891   2.092   6.274
   22POPC   NC3  566   9.237  10.414   8.125
   22POPC   PO4  567   9.220   9.842   7.907
   22POPC   GL1  568   9.386  10.241   7.666
   22POPC   GL2  569   9.731  10.277   7.529
   22POPC   C1A  570   9.377  10.417   7.219
   22POPC   D2A  571   9.546  10.384   6.815
   22POPC   C3A  572   9.181  10.389   6.534
   22POPC   C4A  573   9.025   0.075   6.149
   22POPC   C1B  574   9.611   9.933   7.310
   22POPC   C2B  575   9.647   9.833   6.887
   22POPC   C3B  576   9.501   9.970   6.537
   22POPC   C4B  577   9.699  10.304   6.278
   23POPC   NC3  578   9.698   8.575   8.040
   23POPC   PO4  579   9.180   8.296   7.820
   23POPC   GL1  580   9.460   8.573   7.604
   23POPC   GL2  581   9.458   8.929   7.740
   23POPC   C1A  582   9.768   8.480   7.309
   23POPC   D2A  583   9.565   8.473   6.922
   23POPC   C3A  584   9.821   8.439   6.595
   23POPC   C4A  585   9.706   8.374   6.205
   23POPC   C1B  586   9.654   8.976   7.360
   23POPC   C2B  587   9.484   8.985   6.956
   23POPC   C3B  588   9.646   8.921   6.536
   23POPC   C4B  589   9.359   8.780   6.233
   24POPC   NC3  590   5.484   2.123   8.267
   24POPC   PO4  591   6.012   2.259   7.782
   24POPC   GL1  592   5.665   2.422   7.573
   24POPC   GL2  593   5.663   2.789   7.588
   24POPC   C1A  594   5.709   2.490   7.142
   24POPC   D2A  595   5.676   2.301   6.778
   24POPC   C3A  596   5.775   2.521   6.425
   24POPC   C4A  597   5.560   2.659   6.021
   24POPC   C1B  598   5.604   2.985   7.167
   24POPC   C2B  599   5.505   2.803   6.762
   24POPC   C3B  600   5.719   3.020   6.408
   24POPC   C4B  601   5.970   3.047   6.051
   25POPC   NC3  602   7.460   4.158   8.107
   25POPC   PO4  603   7.079   3.720   7.880
   25POPC   GL1  604   7.242   3.890   7.507
   25POPC   GL2  605   7.239   4.216   7.629
   25POPC   C1A  606   7.477   4.208   7.197
   25POPC   D2A  607   7.465   4.403   6.763
   25POPC   C3A  608   7.395   4.123   6.390
   25POPC   C4A  609   7.330   4.100   5.916
   25POPC   C1B  610   6.966   4.159   7.207
   25POPC   C2B  611   6.914   4.208   6.761
   25POPC   C3B  612   6.670   4.240   6.388
   25POPC   C4B  613   6.853   4.260   6.006
   26POPC   NC3  614   2.660  10.080   7.961
   26POPC   PO4  615   3.177   0.027   8.223
   26POPC   GL1  616   3.054  10.395   7.794
   26POPC   GL2  617   2.712   0.025   7.728
   26POPC   C1A  618   2.995  10.287   7.334
   26POPC   D2A  619   3.123  10.263   6.893
   26POPC   C3A  620   2.817  10.296   6.570
   26POPC   C4A  621   2.749  10.078   6.172
   26POPC   C1B  622   2.455  10.323   7.373
   26POPC   C2B  623   2.481  10.127   6.943
   26POPC   C3B  624   2.345  10.081   6.512
   26POPC   C4B  625   2.344   9.767   6.257
   27POPC   NC3  626   1.041   0.230   8.114
   27POPC   PO4  627   0.961   0.939   8.032
   27POPC   GL1  628   1.171   0.621   7.715
   27POPC   GL2  629   1.237   0.288   7.670
   27POPC   C1A  630   0.983   0.478   7.297
   27POPC   D2A  631   1.106   0.514   6.851
   27POPC   C3A  632   0.937   0.311   6.461
   27POPC   C4A  633   0.828   0.508   6.055
   27POPC   C1B  634   1.493   0.363   7.316
   27POPC   C2B  635   1.528   0.228   6.929
   27POPC   C3B  636   1.449   0.324   6.522
   27POPC   C4B  637   1.355   0.402   6.107
   28POPC   NC3  638   4.444  10.263   8.113
   28POPC   PO4  639   3.901   9.869   8.093
   28POPC   GL1  640   3.981  10.046   7.694
   28POPC   GL2  641   4.156  10.338   7.683
   28POPC   C1A  642   3.901  10.106   7.231
   28POPC   D2A  643   3.934   9.965   6.775
   28POPC   C3A  644   4.159   9.906   6.357
   28POPC   C4A  645   4.123   9.966   5.879
   28POPC   C1B  646   4.396  10.149   7.364
   28POPC   C2B  647   4.499  10.265   6.929
   28POPC   C3B  648   4.254  10.387   6.577
   28POPC   C4B  649   4.291  10.372   6.153
   29POPC   NC3  650   8.382   1.832   8.103
   29POPC   PO4  651   8.414   2.416   8.361
   29POPC   GL1  652   8.389   2.257   7.848
   29POPC   GL2  653   8.553   1.932   7.660
   29POPC   C1A  654   8.278   2.190   7.354
   29POPC   D2A  655   8.268   2.270   6.888
   29POPC   C3A  656   8.457   2.045   6.513
   29POPC   C4A  657   8.591   2.011   6.071
   29POPC   C1B  658   8.691   1.899   7.254
   29POPC   C2B  659   8.827   2.034   6.870
   29POPC   C3B  660   8.923   1.826   6.488
   29POPC   C4B  661   9.070   2.161   6.282
   30POPC   NC3  662   3.311   4.146   7.945
   30POPC   PO4  663   3.782   3.703   8.097
   30POPC   GL1  664   3.671   3.878   7.626
   30POPC   GL2  665   3.335   3.958   7.474
   30POPC   C1A  666   3.670   3.845   7.119
   30POPC   D2A  667   3.560   4.106   6.747
   30POPC   C3A  668   3.798   4.102   6.381
   30POPC   C4A  669   3.781   3.956   5.992
   30POPC   C1B  670   3.114   4.371   7.325
   30POPC   C2B  671   3.085   4.632   6.918
   30POPC   C3B  672   3.202   4.428   6.529
   30POPC   C4B  673   3.544   4.522   6.237
   31POPC   NC3  674   3.617   1.255   8.363
   31POPC   PO4  675   4.269   1.435   8.156
   31POPC   GL1  676   4.110   1.320   7.779
   31POPC   GL2  677   4.221   0.960   7.751
   31POPC   C1A  678   3.869   1.145   7.430
   31POPC   D2A  679   3.916   0.842   7.077
   31POPC   C3A  680   3.871   1.005   6.646
   31POPC   C4A  681   3.945   1.257   6.265
   31POPC   C1B  682   4.367   1.151   7.350
   31POPC   C2B  683   4.451   1.019   6.943
   31POPC   C3B  684   4.371   1.121   6.544
   31POPC   C4B  685   4.281   0.878   6.239
   32POPC   NC3  686   1.972   9.171   8.163
   32POPC   PO4  687   2.216   8.539   8.196
   32POPC   GL1  688   1.884   8.673   7.860
   32POPC   GL2  689   1.600   8.928   7.879
   32POPC   C1A  690   1.824   8.531   7.420
   32POPC   D2A  691   1.993   8.337   7.036
   32POPC   C3A  692   1.986   8.582   6.658
   32POPC   C4A  693   2.298   8.839   6.439
   32POPC   C1B  694   1.603   9.002   7.427
   32POPC   C2B  695   1.663   8.839   7.007
   32POPC   C3B  696   1.502   8.793   6.578
   32POPC   C4B  697   1.753   8.715   6.214
   33POPC   NC3  698   0.221   5.032   8.094
   33POPC   PO4  699   0.786   5.371   8.155
   33POPC   GL1  700   0.577   5.214   7.750
   33POPC   GL2  701   0.390   4.898   7.656
   33POPC   C1A  702   0.707   5.127   7.316
   33POPC   D2A  703   0.534   5.196   6.899
   33POPC   C3A  704   0.774   5.076   6.526
   33POPC   C4A  705   0.653   4.987   6.103
   33POPC   C1B  706   0.251   4.891   7.253
   33POPC   C2B  707   0.107   4.934   6.845
   33POPC   C3B  708   0.218   4.972   6.397
   33POPC   C4B  709   0.272   4.618   6.082
   34POPC   NC3  710   9.934   4.935   8.017
   34POPC   PO4  711   0.022   4.627   7.987
   34POPC   GL1  712  10.322   4.774   7.686
   34POPC   GL2  713  10.340   5.111   7.760
   34POPC   C1A  714  10.282   4.656   7.280
   34POPC   D2A  715  10.108   4.867   6.949
   34POPC   C3A  716  10.224   4.827   6.521
   34POPC   C4A  717  10.313   4.884   6.080
   34POPC   C1B  718  10.341   5.179   7.336
   34POPC   C2B  719  10.238   5.384   6.982
   34POPC   C3B  720  10.419   5.358   6.618
   34POPC   C4B  721  10.179   5.321   6.283
   35POPC   NC3  722   7.826   0.758   8.183
   35POPC   PO4  723   8.046   0.209   7.980
   35POPC   GL1  724   8.114   0.484   7.619
   35POPC   GL2  725   7.779   0.685   7.615
   35POPC   C1A  726   8.102   0.480   7.147
   35POPC   D2A  727   8.244   0.736   6.804
   35POPC   C3A  728   8.071   0.657   6.387
   35POPC   C4A  729   8.305   0.609   6.001
   35POPC   C1B  730   7.695   0.276   7.371
   35POPC   C2B  731   7.762  10.492   7.008
   35POPC   C3B  732   7.694  10.483   6.569
   35POPC   C4B  733   7.742   0.266   6.189
   36POPC   NC3  734   8.123   5.809   8.604
   36POPC   PO4  735   8.001   5.428   8.088
   36POPC   GL1  736   8.129   5.467   7.669
   36POPC   GL2  737   8.148   5.819   7.672
   36POPC   C1A  738   7.937   5.522   7.241
   36POPC   D2A  739   7.667   5.282   6.924
   36POPC   C3A  740   7.711   5.352   6.471
   36POPC   C4A  741   8.060   5.543   6.346
   36POPC   C1B  742   8.048   6.018   7.315
   36POPC   C2B  743   7.753   5.994   6.985
   36POPC   C3B  744   7.912   5.995   6.576
   36POPC   C4B  745   7.762   5.993   6.172
   37POPC   NC3  746   8.497   0.292   8.146
   37POPC   PO4  747   9.025   0.756   8.020
   37POPC   GL1  748   8.652   0.654   7.741
   37POPC   GL2  749   8.635   0.296   7.672
   37POPC   C1A  750   8.593   0.573   7.270
   37POPC   D2A  751   8.778   0.511   6.871
   37POPC   C3A  752   8.590   0.530   6.457
   37POPC   C4A  753   8.818   0.562   6.066
   37POPC   C1B  754   8.425   0.017   7.406
   37POPC   C2B  755   8.293  10.485   6.982
   37POPC   C3B  756   8.142   0.232   6.667
   37POPC   C4B  757   8.234   0.188   6.251
   38POPC   NC3  758   3.287   7.140   8.055
   38POPC   PO4  759   2.627   7.026   8.128
   38POPC   GL1  760   2.826   6.999   7.714
   38POPC   GL2  761   2.902   7.359   7.722
   38POPC   C1A  762   2.722   6.886   7.262
   38POPC   D2A  763   2.598   6.846   6.825
   38POPC   C3A  764   2.859   6.885   6.459
   38POPC   C4A  765   2.917   7.199   6.125
   38POPC   C1B  766   2.702   7.393   7.308
   38POPC   C2B  767   2.560   7.460   6.889
   38POPC   C3B  768   2.493   7.254   6.508
   38POPC   C4B  769   2.498   7.522   6.191
   39POPC   NC3  770   4.694   8.597   8.002
   39POPC   PO4  771   5.350   8.691   8.016
   39POPC   GL1  772   5.184   8.884   7.662
   39POPC   GL2  773   5.114   8.536   7.563
   39POPC   C1A  774   4.933   8.942   7.284
   39POPC   D2A  775   5.001   8.703   6.905
   39POPC   C3A  776   5.025   8.968   6.540
   39POPC   C4A  777   5.239   9.065   6.158
   39POPC   C1B  778   4.734   8.481   7.295
   39POPC   C2B  779   4.564   8.459   6.853
   39POPC   C3B  780   4.800   8.480   6.466
   39POPC   C4B  781   4.780   8.382   6.045
   40POPC   NC3  782   5.838   1.868   7.923
   40POPC   PO4  783   5.222   1.741   8.156
   40POPC   GL1  784   5.350   2.045   7.782
   40POPC   GL2  785   5.468   1.797   7.574
   40POPC   C1A  786   5.324   2.158   7.284
   40POPC   D2A  787   5.412   1.880   6.929
   40POPC   C3A  788   5.415   1.991   6.480
   40POPC   C4A  789   5.478   1.742   6.098
   40POPC   C1B  790   5.806   1.987   7.254
   40POPC   C2B  791   6.119   2.070   6.900
   40POPC   C3B  792   5.961   1.991   6.466
   40POPC   C4B  793   5.752   2.151   6.100
   41POPC   NC3  794   0.402   2.084   8.077
   41POPC   PO4  795   0.548   1.514   8.100
   41POPC   GL1  796   0.534   1.730   7.688
   41POPC   GL2  797   0.651   2.065   7.620
   41POPC   C1A  798   0.525   1.778   7.227
   41POPC   D2A  799   0.701   2.032   6.952
   41POPC   C3A  800   0.558   2.059   6.572
   41POPC   C4A  801   0.690   1.827   6.233
   41POPC   C1B  802   0.292   2.216   7.352
   41POPC   C2B  803   0.155   2.452   6.974
   41POPC   C3B  804   0.022   2.329   6.561
   41POPC   C4B  805   0.179   2.063   6.234
   42POPC   NC3  806   5.963   0.980   7.959
   42POPC   PO4  807   6.551   0.667   8.105
   42POPC   GL1  808   6.487   0.977   7.764
   42POPC   GL2  809   6.295   1.312   7.735
   42POPC   C1A  810   6.319   0.942   7.351
   42POPC   D2A  811   6.190   1.235   7.030
   42POPC   C3A  812   6.112   1.090   6.607
   42POPC   C4A  813   6.323   1.116   6.217
   42POPC   C1B  814   6.572   1.383   7.381
   42POPC   C2B  815   6.830   1.281   7.060
   42POPC   C3B  816   6.621   1.227   6.691
   42POPC   C4B  817   6.680   1.484   6.329
   43POPC   NC3  818   1.397   1.941   8.145
   43POPC   PO4  819   1.437   2.604   8.229
   43POPC   GL1  820   1.468   2.377   7.783
   43POPC   GL2  821   1.266   2.055   7.669
   43POPC   C1A  822   1.470   2.283   7.286
   43POPC   D2A  823   1.545   2.027   6.894
   43POPC   C3A  824   1.458   2.249   6.492
   43POPC   C4A  825   1.461   2.193   6.016
   43POPC   C1B  826   1.030   1.816   7.377
   43POPC   C2B  827   1.123   1.718   6.982
   43POPC   C3B  828   1.069   1.892   6.587
   43POPC   C4B  829   1.307   1.761   6.252
   44POPC   NC3  830   2.591   4.050   8.101
   44POPC   PO4  831   3.132   3.720   7.903
   44POPC   GL1  832   2.853   3.891   7.623
   44POPC   GL2  833   2.729   4.212   7.630
   44POPC   C1A  834   2.906   3.882   7.200
   44POPC   D2A  835   2.826   4.202   6.933
   44POPC   C3A  836   2.803   4.098   6.539
   44POPC   C4A  837   2.901   4.236   6.134
   44POPC   C1B  838   2.444   4.072   7.288
   44POPC   C2B  839   2.325   4.210   6.844
   44POPC   C3B  840   2.349   4.280   6.390
   44POPC   C4B  841   2.476   4.426   5.983
   45POPC   NC3  842   8.509   7.833   8.147
   45POPC   PO4  843   9.020   8.110   8.346
   45POPC   GL1  844   8.840   7.969   7.825
   45POPC   GL2  845   8.546   8.065   7.700
   45POPC   C1A  846   8.956   7.824   7.398
   45POPC   D2A  847   9.101   7.854   6.974
   45POPC   C3A  848   8.980   7.824   6.543
   45POPC   C4A  849   8.974   7.537   6.203
   45POPC   C1B  850   8.566   8.145   7.269
   45POPC   C2B  851   8.647   8.020   6.878
   45POPC   C3B  852   8.614   8.187   6.494
   45POPC   C4B  853   8.647   7.963   6.139
   46POPC   NC3  854   9.887  10.253   7.990
   46POPC   PO4  855  10.457   0.113   8.136
   46POPC   GL1  856   0.057  10.444   7.761
   46POPC   GL2  857  10.385  10.110   7.791
   46POPC   C1A  858  10.346  10.458   7.383
   46POPC   D2A  859  10.349   0.115   6.960
   46POPC   C3A  860  10.282  10.499   6.540
   46POPC   C4A  861  10.333  10.357   6.101
   46POPC   C1B  862  10.145   9.992   7.402
   46POPC   C2B  863   9.978  10.209   7.051
   46POPC   C3B  864  10.010  10.085   6.629
   46POPC   C4B  865  10.110   9.947   6.241
   47POPC   NC3  866   0.925   4.445   8.067
   47POPC   PO4  867   1.413   4.329   8.491
   47POPC   GL1  868   1.304   4.148   7.919
   47POPC   GL2  869   1.091   3.902   7.737
   47POPC   C1A  870   1.408   4.278   7.424
   47POPC   D2A  871   1.415   4.518   6.976
   47POPC   C3A  872   1.391   4.249   6.571
   47POPC   C4A  873   1.480   4.291   6.105
   47POPC   C1B  874   0.924   4.116   7.383
   47POPC   C2B  875   0.951   4.310   6.991
   47POPC   C3B  876   0.875   4.163   6.578
   47POPC   C4B  877   1.036   4.050   6.185
   48POPC   NC3  878   2.164   0.369   8.048
   48POPC   PO4  879   1.477   0.398   8.103
   48POPC   GL1  880   1.741   0.279   7.761
   48POPC   GL2  881   1.721   0.627   7.675
   48POPC   C1A  882   2.043   0.180   7.405
   48POPC   D2A  883   2.091  10.466   6.999
   48POPC   C3A  884   2.334   0.073   6.622
   48POPC   C4A  885   2.195  10.493   6.188
   48POPC   C1B  886   2.116   0.686   7.403
   48POPC   C2B  887   2.241   0.485   7.011
   48POPC   C3B  888   1.958   0.392   6.702
   48POPC   C4B  889   1.881   0.393   6.282
   49POPC   NC3  890   6.913   0.379   8.033
   49POPC   PO4  891   7.397   0.870   8.025
   49POPC   GL1  892   7.242   0.753   7.657
   49POPC   GL2  893   7.307   0.400   7.678
   49POPC   C1A  894   7.369   0.679   7.234
   49POPC   D2A  895   7.342   0.337   6.930
   49POPC   C3A  896   7.552   0.486   6.595
   49POPC   C4A  897   7.579   0.777   6.245
   49POPC   C1B  898   6.995   0.351   7.349
   49POPC   C2B  899   6.849   0.163   6.963
   49POPC   C3B  900   6.918   0.352   6.573
   49POPC   C4B  901   7.215   0.372   6.212
   50POPC   NC3  902   6.944   2.895   8.221
   50POPC   PO4  903   7.674   3.051   8.138
   50POPC   GL1  904   7.416   2.891   7.780
   50POPC   GL2  905   7.291   2.528   7.825
   50POPC   C1A  906   7.482   2.675   7.366
   50POPC   D2A  907   7.247   2.679   6.964
   50POPC   C3A  908   7.326   2.945   6.576
   50POPC   C4A  909   6.962   2.967   6.268
   50POPC   C1B  910   7.132   2.268   7.441
   50POPC   C2B  911   7.265   2.175   7.010
   50POPC   C3B  912   7.454   2.380   6.610
   50POPC   C4B  913   7.276   2.559   6.241
   51POPC   NC3  914   7.025   9.935   8.398
   51POPC   PO4  915   7.507   9.937   7.892
   51POPC   GL1  916   7.250  10.053   7.568
   51POPC   GL2  917   7.145  10.398   7.682
   51POPC   C1A  918   7.067   9.817   7.242
   51POPC   D2A  919   7.198   9.632   6.871
   51POPC   C3A  920   7.072   9.932   6.581
   51POPC   C4A  921   6.920  10.040   6.201
   51POPC   C1B  922   7.298  10.462   7.286
   51POPC   C2B  923   7.194  10.308   6.922
   51POPC   C3B  924   7.183  10.429   6.510
   51POPC   C4B  925   7.402  10.220   6.224
   52POPC   NC3  926  10.217   1.248   8.237
   52POPC   PO4  927   9.785   0.756   8.266
   52POPC   GL1  928  10.055   0.858   7.889
   52POPC   GL2  929  10.118   1.216   7.750
   52POPC   C1A  930  10.120   0.825   7.427
   52POPC   D2A  931  10.209   0.974   6.967
   52POPC   C3A  932   9.960   1.057   6.611
   52POPC   C4A  933  10.083   0.899   6.238
   52POPC   C1B  934  10.228   1.359   7.328
   52POPC   C2B  935  10.201   1.474   6.894
   52POPC   C3B  936  10.413   1.272   6.566
   52POPC   C4B  937  10.495   1.218   6.149
   53POPC   NC3  938   8.534   7.077   7.947
   53POPC   PO4  939   8.988   7.567   8.094
   53POPC   GL1  940   8.670   7.508   7.710
   53POPC   GL2  941   8.737   7.186   7.508
   53POPC   C1A  942   8.529   7.579   7.260
   53POPC   D2A  943   8.755   7.491   6.882
   53POPC   C3A  944   8.522   7.617   6.519
   53POPC   C4A  945   8.495   7.431   6.103
   53POPC   C1B  946   8.354   7.087   7.296
   53POPC   C2B  947   8.334   7.208   6.890
   53POPC   C3B  948   8.520   7.105   6.537
   53POPC   C4B  949   8.726   6.990   6.212
   54POPC   NC3  950   8.841   4.087   8.164
   54POPC   PO4  951   8.471   4.586   8.080
   54POPC   GL1  952   8.559   4.284   7.726
   54POPC   GL2  953   8.859   4.264   7.689
   54POPC   C1A  954   8.524   4.001   7.363
   54POPC   D2A  955   8.380   3.813   6.970
   54POPC   C3A  956   8.447   4.034   6.627
   54POPC   C4A  957   8.473   3.783   6.262
   54POPC   C1B  958   8.910   4.454   7.319
   54POPC   C2B  959   8.765   4.506   6.927
   54POPC   C3B  960   8.879   4.378   6.568
   54POPC   C4B  961   8.693   4.249   6.234
   55POPC   NC3  962   9.340   7.282   8.222
   55POPC   PO4  963   9.093   6.681   8.325
   55POPC   GL1  964   9.325   6.892   7.849
   55POPC   GL2  965   9.526   7.215   7.748
   55POPC   C1A  966   9.204   7.091   7.374
   55POPC   D2A  967   8.957   6.981   6.977
   55POPC   C3A  968   9.051   7.191   6.576
   55POPC   C4A  969   9.220   7.098   6.155
   55POPC   C1B  970   9.695   6.994   7.395
   55POPC   C2B  971   9.541   6.951   6.983
   55POPC   C3B  972   9.548   7.065   6.571
   55POPC   C4B  973   9.787   7.004   6.230
   56POPC   NC3  974  10.158   7.667   8.088
   56POPC   PO4  975   0.012   8.157   8.310
   56POPC   GL1  976  10.400   7.996   7.801
   56POPC   GL2  977  10.117   7.944   7.680
   56POPC   C1A  978  10.350   7.786   7.292
   56POPC   D2A  979   0.044   7.917   6.957
   56POPC   C3A  980  10.316   7.750   6.682
   56POPC   C4A  981  10.376   7.784   6.292
   56POPC   C1B  982   9.899   7.976   7.309
   56POPC   C2B  983  10.033   8.100   6.926
   56POPC   C3B  984   9.891   7.941   6.503
   56POPC   C4B  985   9.793   7.886   6.096
   57POPC   NC3  986   1.520   2.981   8.481
   57POPC   PO4  987   0.927   3.098   8.113
   57POPC   GL1  988   1.013   3.369   7.770
   57POPC   GL2  989   1.394   3.423   7.726
   57POPC   C1A  990   1.065   3.269   7.351
   57POPC   D2A  991   1.290   3.220   6.980
   57POPC   C3A  992   1.032   3.295   6.616
   57POPC   C4A  993   1.162   3.390   6.201
   57POPC   C1B  994   1.306   3.708   7.342
   57POPC   C2B  995   1.081   3.793   6.969
   57POPC   C3B  996   1.220   3.764   6.562
   57POPC   C4B  997   1.499   3.781   6.206
   58POPC   NC3  998  10.135   3.563   8.052
   58POPC   PO4  999   9.808   3.020   8.129
   58POPC   GL1 1000   9.988   3.119   7.717
   58POPC   GL2 1001  10.151   3.425   7.552
   58POPC   C1A 1002  10.010   2.975   7.290
   58POPC   D2A 1003   9.826   3.086   6.890
   58POPC   C3A 1004  10.094   3.140   6.540
   58POPC   C4A 1005   9.986   3.215   6.117
   58POPC   C1B 1006  10.053   3.654   7.175
   58POPC   C2B 1007  10.236   3.576   6.782
   58POPC   C3B 1008  10.218   3.623   6.339
   58POPC   C4B 1009  10.030   3.684   5.950
   59POPC   NC3 1010   7.234   7.857   8.445
   59POPC   PO4 1011   7.276   7.919   7.898
   59POPC   GL1 1012   7.095   8.005   7.575
   59POPC   GL2 1013   6.958   8.350   7.501
   59POPC   C1A 1014   7.137   7.757   7.240
   59POPC   D2A 1015   7.360   7.599   6.911
   59POPC   C3A 1016   7.201   7.697   6.475
   59POPC   C4A 1017   7.305   7.689   5.991
   59POPC   C1B 1018   7.325   8.251   7.226
   59POPC   C2B 1019   7.214   8.086   6.854
   59POPC   C3B 1020   7.173   8.218   6.500
   59POPC   C4B 1021   7.027   8.058   6.140
   60POPC   NC3 1022   2.651   6.559   8.147
   60POPC   PO4 1023   3.033   5.985   8.023
   60POPC   GL1 1024   2.807   6.257   7.695
   60POPC   GL2 1025   2.557   6.517   7.655
   60POPC   C1A 1026   2.863   6.369   7.239
   60POPC   D2A 1027   3.158   6.254   6.878
   60POPC   C3A 1028   3.037   6.374   6.441
   60POPC   C4A 1029   3.043   6.137   6.019
   60POPC   C1B 1030   2.326   6.269   7.352
   60POPC   C2B 1031   2.222   6.234   6.926
   60POPC   C3B 1032   2.425   6.415   6.545
   60POPC   C4B 1033   2.596   6.375   6.130
   61POPC   NC3 1034   8.127   4.265   7.971
   61POPC   PO4 1035   7.758   3.771   8.178
   61POPC   GL1 1036   7.669   3.832   7.747
   61POPC   GL2 1037   7.772   4.105   7.611
   61POPC   C1A 1038   7.660   3.719   7.286
   61POPC   D2A 1039   7.627   3.907   6.834
   61POPC   C3A 1040   7.938   3.890   6.507
   61POPC   C4A 1041   8.168   4.172   6.220
   61POPC   C1B 1042   8.005   4.112   7.207
   61POPC   C2B 1043   8.001   4.303   6.778
   61POPC   C3B 1044   7.810   4.469   6.386
   61POPC   C4B 1045   7.494   4.549   6.087
   62POPC   NC3 1046   0.176   0.464   7.940
   62POPC   PO4 1047   0.633   0.041   8.023
   62POPC   GL1 1048   0.541   0.207   7.633
   62POPC   GL2 1049   0.664   0.557   7.766
   62POPC   C1A 1050   0.335   0.088   7.204
   62POPC   D2A 1051   0.283   0.160   6.712
   62POPC   C3A 1052   0.277  10.443   6.314
   62POPC   C4A 1053   0.577   0.068   6.014
   62POPC   C1B 1054   0.495   0.640   7.365
   62POPC   C2B 1055   0.594   0.491   6.964
   62POPC   C3B 1056   0.539   0.612   6.565
   62POPC   C4B 1057   0.316   0.429   6.249
   63POPC   NC3 1058   0.010   4.383   8.466
   63POPC   PO4 1059   0.409   3.907   8.106
   63POPC   GL1 1060   0.590   4.078   7.769
   63POPC   GL2 1061   0.513   4.403   7.746
   63POPC   C1A 1062   0.409   4.077   7.341
   63POPC   D2A 1063   0.549   3.998   6.940
   63POPC   C3A 1064   0.370   4.115   6.536
   63POPC   C4A 1065   0.516   4.051   6.127
   63POPC   C1B 1066   0.632   4.551   7.353
   63POPC   C2B 1067   0.472   4.523   6.944
   63POPC   C3B 1068   0.548   4.605   6.531
   63POPC   C4B 1069   0.760   4.482   6.170
   64POPC   NC3 1070   4.018   0.657   8.191
   64POPC   PO4 1071   4.011  10.493   8.150
   64POPC   GL1 1072   3.923   0.275   7.810
   64POPC   GL2 1073   4.270   0.393   7.769
   64POPC   C1A 1074   3.918   0.174   7.368
   64POPC   D2A 1075   3.728   0.340   6.985
   64POPC   C3A 1076   3.844   0.251   6.550
   64POPC   C4A 1077   3.867   0.604   6.299
   64POPC   C1B 1078   4.433   0.169   7.387
   64POPC   C2B 1079   4.242   0.230   6.977
   64POPC   C3B 1080   4.195   0.579   6.700
   64POPC   C4B 1081   4.343   0.362   6.326
   65POPC   NC3 1082   4.995   9.526   8.216
   65POPC   PO4 1083   4.536   9.042   8.102
   65POPC   GL1 1084   4.882   9.305   7.774
   65POPC   GL2 1085   5.055   9.702   7.749
   65POPC   C1A 1086   5.123   9.403   7.369
   65POPC   D2A 1087   4.894   9.479   7.007
   65POPC   C3A 1088   5.142   9.465   6.682
   65POPC   C4A 1089   5.168   9.534   6.304
   65POPC   C1B 1090   4.667   9.659   7.452
   65POPC   C2B 1091   4.446   9.762   7.039
   65POPC   C3B 1092   4.509   9.614   6.621
   65POPC   C4B 1093   4.713   9.324   6.352
   66POPC   NC3 1094   2.767   5.034   8.090
   66POPC   PO4 1095   2.987   4.461   8.030
   66POPC   GL1 1096   2.808   4.719   7.685
   66POPC   GL2 1097   2.449   4.751   7.743
   66POPC   C1A 1098   2.704   5.033   7.359
   66POPC   D2A 1099   2.782   5.371   7.088
   66POPC   C3A 1100   2.849   5.111   6.716
   66POPC   C4A 1101   2.772   5.161   6.297
   66POPC   C1B 1102   2.497   4.569   7.300
   66POPC   C2B 1103   2.563   4.667   6.862
   66POPC   C3B 1104   2.706   4.653   6.437
   66POPC   C4B 1105   3.039   4.727   6.152
   67POPC   NC3 1106   8.802   8.435   8.064
   67POPC   PO4 1107   9.042   9.072   8.074
   67POPC   GL1 1108   8.987   8.762   7.709
   67POPC   GL2 1109   8.779   8.496   7.565
   67POPC   C1A 1110   9.110   8.744   7.274
   67POPC   D2A 1111   9.039   8.370   7.036
   67POPC   C3A 1112   9.075   8.502   6.624
   67POPC   C4A 1113   8.997   8.375   6.221
   67POPC   C1B 1114   8.532   8.664   7.247
   67POPC   C2B 1115   8.584   8.561   6.839
   67POPC   C3B 1116   8.631   8.699   6.405
   67POPC   C4B 1117   8.505   8.450   6.033
   68POPC   NC3 1118   5.268   0.488   7.931
   68POPC   PO4 1119   4.992  10.438   8.158
   68POPC   GL1 1120   4.800   0.205   7.794
   68POPC   GL2 1121   4.757   0.585   7.795
   68POPC   C1A 1122   4.933   0.309   7.356
   68POPC   D2A 1123   5.150   0.480   7.011
   68POPC   C3A 1124   5.062   0.414   6.634
   68POPC   C4A 1125   5.083   0.362   6.217
   68POPC   C1B 1126   4.563   0.672   7.386
   68POPC   C2B 1127   4.649   0.538   6.960
   68POPC   C3B 1128   4.660   0.703   6.548
   68POPC   C4B 1129   4.715   0.679   6.115
   69POPC   NC3 1130   9.350   5.477   7.954
   69POPC   PO4 1131   9.769   5.980   8.202
   69POPC   GL1 1132   9.715   5.813   7.804
   69POPC   GL2 1133   9.390   5.874   7.624
   69POPC   C1A 1134   9.836   5.918   7.401
   69POPC   D2A 1135   9.541   6.054   7.118
   69POPC   C3A 1136   9.615   5.987   6.690
   69POPC   C4A 1137   9.463   5.929   6.292
   69POPC   C1B 1138   9.421   5.562   7.272
   69POPC   C2B 1139   9.214   5.362   6.915
   69POPC   C3B 1140   9.203   5.527   6.514
   69POPC   C4B 1141   9.198   5.356   6.136
   70POPC   NC3 1142   4.320   2.772   7.879
   70POPC   PO4 1143   3.868   2.346   8.058
   70POPC   GL1 1144   3.925   2.544   7.626
   70POPC   GL2 1145   3.781   2.873   7.532
   70POPC   C1A 1146   4.261   2.484   7.279
   70POPC   D2A 1147   4.471   2.698   6.916
   70POPC   C3A 1148   4.257   2.798   6.505
   70POPC   C4A 1149   4.156   2.616   6.093
   70POPC   C1B 1150   3.819   2.674   7.127
   70POPC   C2B 1151   3.751   2.750   6.660
   70POPC   C3B 1152   3.668   2.767   6.208
   70POPC   C4B 1153   3.787   2.877   5.763
   71POPC   NC3 1154   6.976   6.902   8.492
   71POPC   PO4 1155   7.502   6.830   8.124
   71POPC   GL1 1156   7.551   6.711   7.723
   71POPC   GL2 1157   7.413   6.403   7.701
   71POPC   C1A 1158   7.357   6.825   7.333
   71POPC   D2A 1159   7.123   6.781   6.951
   71POPC   C3A 1160   7.310   6.820   6.546
   71POPC   C4A 1161   7.122   6.574   6.218
   71POPC   C1B 1162   7.195   6.350   7.274
   71POPC   C2B 1163   7.169   6.200   6.851
   71POPC   C3B 1164   7.000   6.129   6.440
   71POPC   C4B 1165   7.268   6.100   6.072
   72POPC   NC3 1166   1.104   5.691   8.078
   72POPC   PO4 1167   1.518   6.183   8.043
   72POPC   GL1 1168   1.585   5.862   7.735
   72POPC   GL2 1169   1.389   5.529   7.696
   72POPC   C1A 1170   1.488   5.824   7.315
   72POPC   D2A 1171   1.454   5.585   6.980
   72POPC   C3A 1172   1.489   5.879   6.604
   72POPC   C4A 1173   1.354   5.773   6.188
   72POPC   C1B 1174   1.037   5.562   7.373
   72POPC   C2B 1175   1.014   5.355   6.960
   72POPC   C3B 1176   1.110   5.528   6.569
   72POPC   C4B 1177   0.948   5.419   6.158
   73POPC   NC3 1178   3.610  10.245   8.168
   73POPC   PO4 1179   3.094   9.887   7.906
   73POPC   GL1 1180   3.443  10.015   7.651
   73POPC   GL2 1181   3.583  10.363   7.668
   73POPC   C1A 1182   3.402   9.947   7.212
   73POPC   D2A 1183   3.423   9.665   6.876
   73POPC   C3A 1184   3.433   9.936   6.594
   73POPC   C4A 1185   3.242  10.162   6.298
   73POPC   C1B 1186   3.483  10.446   7.241
   73POPC   C2B 1187   3.623  10.370   6.814
   73POPC   C3B 1188   3.773  10.277   6.380
   73POPC   C4B 1189   3.685   9.930   6.148
   74POPC   NC3 1190   0.177   8.397   7.935
   74POPC   PO4 1191   0.796   8.702   8.112
   74POPC   GL1 1192   0.665   8.468   7.756
   74POPC   GL2 1193   0.477   8.753   7.637
   74POPC   C1A 1194   0.825   8.485   7.347
   74POPC   D2A 1195   0.654   8.724   7.002
   74POPC   C3A 1196   0.764   8.598   6.602
   74POPC   C4A 1197   0.649   8.597   6.197
   74POPC   C1B 1198   0.202   8.885   7.299
   74POPC   C2B 1199   0.175   8.841   6.865
   74POPC   C3B 1200   0.229   8.592   6.519
   74POPC   C4B 1201   0.083   8.533   6.140
   75POPC   NC3 1202   1.093   6.415   8.021
   75POPC   PO4 1203   0.972   6.997   8.244
   75POPC   GL1 1204   1.184   6.869   7.788
   75POPC   GL2 1205   1.001   6.617   7.564
   75POPC   C1A 1206   1.427   6.721   7.346
   75POPC   D2A 1207   1.185   6.537   6.961
   75POPC   C3A 1208   1.398   6.540   6.523
   75POPC   C4A 1209   1.305   6.474   6.080
   75POPC   C1B 1210   1.092   6.192   7.381
   75POPC   C2B 1211   1.111   5.968   6.989
   75POPC   C3B 1212   1.051   6.147   6.583
   75POPC   C4B 1213   0.962   6.108   6.166
   76POPC   NC3 1214   0.084   4.181   7.912
   76POPC   PO4 1215  10.092   4.465   8.252
   76POPC   GL1 1216  10.089   4.304   7.795
   76POPC   GL2 1217  10.139   3.941   7.700
   76POPC   C1A 1218   9.935   4.264   7.343
   76POPC   D2A 1219  10.112   4.309   6.935
   76POPC   C3A 1220   9.889   4.413   6.578
   76POPC   C4A 1221  10.071   4.451   6.192
   76POPC   C1B 1222  10.387   4.024   7.314
   76POPC   C2B 1223   0.020   3.992   6.888
   76POPC   C3B 1224  10.348   4.101   6.468
   76POPC   C4B 1225  10.431   4.012   6.017
   77POPC   NC3 1226   1.901   5.898   8.153
   77POPC   PO4 1227   1.521   5.365   8.162
   77POPC   GL1 1228   1.876   5.450   7.822
   77POPC   GL2 1229   2.140   5.695   7.762
   77POPC   C1A 1230   1.804   5.384   7.384
   77POPC   D2A 1231   1.914   5.327   6.953
   77POPC   C3A 1232   1.690   5.407   6.576
   77POPC   C4A 1233   1.854   5.450   6.175
   77POPC   C1B 1234   2.004   5.865   7.376
   77POPC   C2B 1235   1.854   5.887   6.960
   77POPC   C3B 1236   2.014   5.808   6.549
   77POPC   C4B 1237   2.226   6.031   6.250
   78POPC   NC3 1238   8.463   3.384   7.897
   78POPC   PO4 1239   9.079   3.043   7.954
   78POPC   GL1 1240   8.902   3.366   7.677
   78POPC   GL2 1241   8.875   3.742   7.729
   78POPC   C1A 1242   8.683   3.510   7.289
   78POPC   D2A 1243   8.534   3.285   6.938
   78POPC   C3A 1244   8.708   3.361   6.508
   78POPC   C4A 1245   8.485   3.300   6.103
   78POPC   C1B 1246   9.054   3.928   7.349
   78POPC   C2B 1247   8.870   3.981   6.940
   78POPC   C3B 1248   8.941   3.876   6.503
   78POPC   C4B 1249   8.934   3.621   6.136
   79POPC   NC3 1250   9.802   4.110   8.531
   79POPC   PO4 1251   9.223   4.378   8.206
   79POPC   GL1 1252   9.324   4.131   7.797
   79POPC   GL2 1253   9.629   4.077   7.698
   79POPC   C1A 1254   9.403   4.338   7.354
   79POPC   D2A 1255   9.247   4.317   6.941
   79POPC   C3A 1256   9.383   4.497   6.556
   79POPC   C4A 1257   9.234   4.257   6.209
   79POPC   C1B 1258   9.600   3.865   7.328
   79POPC   C2B 1259   9.668   4.026   6.942
   79POPC   C3B 1260   9.479   3.973   6.562
   79POPC   C4B 1261   9.796   4.015   6.257
   80POPC   NC3 1262   6.282   6.668   7.810
   80POPC   PO4 1263   6.701   7.109   8.155
   80POPC   GL1 1264   6.671   7.110   7.680
   80POPC   GL2 1265   6.383   7.314   7.641
   80POPC   C1A 1266   6.684   6.896   7.234
   80POPC   D2A 1267   6.657   6.921   6.751
   80POPC   C3A 1268   6.620   6.591   6.396
   80POPC   C4A 1269   6.343   6.573   6.002
   80POPC   C1B 1270   6.589   7.422   7.255
   80POPC   C2B 1271   6.430   7.361   6.852
   80POPC   C3B 1272   6.256   7.194   6.463
   80POPC   C4B 1273   6.034   7.414   6.131
   81POPC   NC3 1274   0.628   1.119   8.313
   81POPC   PO4 1275  10.486   0.816   8.170
   81POPC   GL1 1276   0.083   0.945   7.737
   81POPC   GL2 1277   0.444   1.076   7.762
   81POPC   C1A 1278   0.103   0.947   7.273
   81POPC   D2A 1279   0.458   0.996   6.979
   81POPC   C3A 1280   0.418   1.102   6.557
   81POPC   C4A 1281   0.403   0.901   6.150
   81POPC   C1B 1282   0.299   1.370   7.415
   81POPC   C2B 1283   0.217   1.475   6.941
   81POPC   C3B 1284   0.318   1.574   6.455
   81POPC   C4B 1285   0.557   1.357   6.113
   82POPC   NC3 1286   9.261   6.291   8.148
   82POPC   PO4 1287   8.847   6.766   7.838
   82POPC   GL1 1288   9.025   6.365   7.698
   82POPC   GL2 1289   9.401   6.383   7.668
   82POPC   C1A 1290   9.055   6.187   7.289
   82POPC   D2A 1291   8.842   6.274   6.880
   82POPC   C3A 1292   9.122   6.278   6.507
   82POPC   C4A 1293   9.184   6.689   6.418
   82POPC   C1B 1294   9.330   6.603   7.294
   82POPC   C2B 1295   9.403   6.481   6.864
   82POPC   C3B 1296   9.631   6.446   6.454
   82POPC   C4B 1297   9.968   6.178   6.330
   83POPC   NC3 1298   9.459   0.604   7.941
   83POPC   PO4 1299   8.953   0.247   8.239
   83POPC   GL1 1300   9.131   0.258   7.757
   83POPC   GL2 1301   9.478   0.252   7.573
   83POPC   C1A 1302   9.101   0.453   7.313
   83POPC   D2A 1303   9.322   0.347   6.911
   83POPC   C3A 1304   9.140   0.459   6.512
   83POPC   C4A 1305   9.012   0.860   6.422
   83POPC   C1B 1306   9.622   0.604   7.300
   83POPC   C2B 1307   9.659   0.742   6.869
   83POPC   C3B 1308   9.630   0.668   6.430
   83POPC   C4B 1309   9.505   0.282   6.202
   84POPC   NC3 1310   7.135   7.054   7.931
   84POPC   PO4 1311   7.526   7.473   8.348
   84POPC   GL1 1312   7.396   7.447   7.814
   84POPC   GL2 1313   7.063   7.457   7.629
   84POPC   C1A 1314   7.496   7.341   7.382
   84POPC   D2A 1315   7.536   7.114   6.963
   84POPC   C3A 1316   7.590   7.313   6.570
   84POPC   C4A 1317   7.320   7.250   6.247
   84POPC   C1B 1318   7.054   7.252   7.170
   84POPC   C2B 1319   7.041   7.252   6.697
   84POPC   C3B 1320   6.868   7.036   6.301
   84POPC   C4B 1321   6.791   6.789   5.892
   85POPC   NC3 1322   7.766   1.719   8.115
   85POPC   PO4 1323   8.033   2.119   8.184
   85POPC   GL1 1324   8.030   1.901   7.711
   85POPC   GL2 1325   7.732   1.704   7.609
   85POPC   C1A 1326   8.082   1.721   7.251
   85POPC   D2A 1327   8.169   1.761   6.812
   85POPC   C3A 1328   7.977   1.621   6.426
   85POPC   C4A 1329   8.106   1.563   5.954
   85POPC   C1B 1330   7.737   2.093   7.304
   85POPC   C2B 1331   7.757   2.074   6.889
   85POPC   C3B 1332   7.908   2.128   6.509
   85POPC   C4B 1333   8.093   2.030   6.153
   86POPC   NC3 1334   7.121   9.159   8.090
   86POPC   PO4 1335   7.429   9.727   8.368
   86POPC   GL1 1336   7.441   9.444   7.856
   86POPC   GL2 1337   7.155   9.546   7.672
   86POPC   C1A 1338   7.399   9.189   7.410
   86POPC   D2A 1339   7.355   8.986   6.981
   86POPC   C3A 1340   7.355   9.200   6.600
   86POPC   C4A 1341   7.476   9.047   6.188
   86POPC   C1B 1342   6.877   9.311   7.355
   86POPC   C2B 1343   6.878   9.209   6.899
   86POPC   C3B 1344   6.914   9.451   6.481
   86POPC   C4B 1345   7.328   9.613   6.291
   87POPC   NC3 1346   6.913   1.049   8.083
   87POPC   PO4 1347   7.391   1.468   8.124
   87POPC   GL1 1348   7.247   1.278   7.735
   87POPC   GL2 1349   6.947   1.204   7.620
   87POPC   C1A 1350   7.336   1.216   7.308
   87POPC   D2A 1351   7.299   1.100   6.901
   87POPC   C3A 1352   7.130   1.359   6.573
   87POPC   C4A 1353   7.165   1.346   6.121
   87POPC   C1B 1354   6.836   0.853   7.361
   87POPC   C2B 1355   6.936   0.701   6.944
   87POPC   C3B 1356   7.124   0.807   6.529
   87POPC   C4B 1357   6.844   1.013   6.294
   88POPC   NC3 1358   2.545   0.909   8.115
   88POPC   PO4 1359   3.187   1.041   8.198
   88POPC   GL1 1360   3.090   1.261   7.775
   88POPC   GL2 1361   2.776   1.126   7.697
   88POPC   C1A 1362   3.037   1.390   7.323
   88POPC   D2A 1363   3.003   1.149   6.969
   88POPC   C3A 1364   2.849   1.248   6.565
   88POPC   C4A 1365   3.014   1.077   6.216
   88POPC   C1B 1366   2.582   1.111   7.290
   88POPC   C2B 1367   2.480   1.331   6.911
   88POPC   C3B 1368   2.313   1.173   6.521
   88POPC   C4B 1369   2.456   1.045   6.117
   89POPC   NC3 1370   0.504   9.091   8.054
   89POPC   PO4 1371   0.412   9.751   7.983
   89POPC   GL1 1372   0.626   9.417   7.685
   89POPC   GL2 1373   0.349   9.279   7.601
   89POPC   C1A 1374   0.660   9.168   7.245
   89POPC   D2A 1375   0.420   9.284   6.849
   89POPC   C3A 1376   0.498   9.032   6.483
   89POPC   C4A 1377   0.531   9.049   6.006
   89POPC   C1B 1378   0.455   9.642   7.300
   89POPC   C2B 1379   0.348   9.786   6.939
   89POPC   C3B 1380   0.481   9.774   6.553
   89POPC   C4B 1381   0.334   9.465   6.267
   90POPC   NC3 1382   5.675   9.012   8.039
   90POPC   PO4 1383   5.452   9.657   8.129
   90POPC   GL1 1384   5.536   9.446   7.746
   90POPC   GL2 1385   5.896   9.449   7.791
   90POPC   C1A 1386   5.582   9.166   7.380
   90POPC   D2A 1387   5.330   9.095   6.982
   90POPC   C3A 1388   5.537   9.128   6.581
   90POPC   C4A 1389   5.731   9.346   6.240
   90POPC   C1B 1390   5.893   9.588   7.367
   90POPC   C2B 1391   5.592   9.549   7.023
   90POPC   C3B 1392   5.633   9.666   6.619
   90POPC   C4B 1393   6.010   9.791   6.341
   91POPC   NC3 1394   3.777   2.804   8.153
   91POPC   PO4 1395   3.118   2.979   8.230
   91POPC   GL1 1396   3.375   2.957   7.841
   91POPC   GL2 1397   3.442   2.584   7.828
   91POPC   C1A 1398   3.206   3.020   7.415
   91POPC   D2A 1399   3.029   2.822   7.061
   91POPC   C3A 1400   3.216   2.851   6.662
   91POPC   C4A 1401   3.165   2.987   6.280
   91POPC   C1B 1402   3.377   2.531   7.396
   91POPC   C2B 1403   3.391   2.472   6.960
   91POPC   C3B 1404   3.416   2.406   6.526
   91POPC   C4B 1405   3.263   2.463   6.140
   92POPC   NC3 1406   1.879   8.198   8.103
   92POPC   PO4 1407   1.796   7.564   8.271
   92POPC   GL1 1408   1.618   7.773   7.842
   92POPC   GL2 1409   1.641   8.092   7.643
   92POPC   C1A 1410   1.689   7.637   7.375
   92POPC   D2A 1411   1.675   7.918   7.019
   92POPC   C3A 1412   1.670   7.821   6.562
   92POPC   C4A 1413   1.687   8.201   6.284
   92POPC   C1B 1414   2.048   7.983   7.408
   92POPC   C2B 1415   2.158   7.799   6.984
   92POPC   C3B 1416   2.117   8.054   6.618
   92POPC   C4B 1417   2.096   7.848   6.239
   93POPC   NC3 1418   7.761   7.709   8.002
   93POPC   PO4 1419   8.204   8.184   8.158
   93POPC   GL1 1420   8.053   8.007   7.733
   93POPC   GL2 1421   7.726   8.126   7.682
   93POPC   C1A 1422   8.125   7.879   7.292
   93POPC   D2A 1423   8.173   8.135   6.899
   93POPC   C3A 1424   8.157   7.990   6.484
   93POPC   C4A 1425   8.085   8.203   6.161
   93POPC   C1B 1426   7.629   7.842   7.349
   93POPC   C2B 1427   7.701   7.976   6.957
   93POPC   C3B 1428   7.666   7.872   6.548
   93POPC   C4B 1429   7.556   8.110   6.201
   94POPC   NC3 1430   0.534   7.551   7.911
   94POPC   PO4 1431   0.395   6.933   7.875
   94POPC   GL1 1432   0.591   6.899   7.546
   94POPC   GL2 1433   0.606   7.248   7.493
   94POPC   C1A 1434   0.739   6.866   7.152
   94POPC   D2A 1435   0.494   7.144   6.972
   94POPC   C3A 1436   0.494   7.028   6.593
   94POPC   C4A 1437   0.720   7.156   6.250
   94POPC   C1B 1438   0.158   7.196   7.359
   94POPC   C2B 1439  10.455   7.367   7.028
   94POPC   C3B 1440   0.217   7.465   6.669
   94POPC   C4B 1441   0.214   7.301   6.265
   95POPC   NC3 1442   2.222   7.459   8.120
   95POPC   PO4 1443   1.635   7.009   8.002
   95POPC   GL1 1444   1.773   7.074   7.608
   95POPC   GL2 1445   1.902   7.372   7.736
   95POPC   C1A 1446   1.675   7.162   7.182
   95POPC   D2A 1447   1.620   6.877   6.859
   95POPC   C3A 1448   1.610   7.033   6.466
   95POPC   C4A 1449   1.682   6.818   6.108
   95POPC   C1B 1450   2.197   7.460   7.421
   95POPC   C2B 1451   2.230   7.153   7.108
   95POPC   C3B 1452   2.014   7.234   6.732
   95POPC   C4B 1453   2.012   7.328   6.284
   96POPC   NC3 1454   4.250   3.508   8.033
   96POPC   PO4 1455   4.672   3.979   7.853
   96POPC   GL1 1456   4.476   3.621   7.575
   96POPC   GL2 1457   4.416   3.252   7.621
   96POPC   C1A 1458   4.358   3.477   7.134
   96POPC   D2A 1459   4.537   3.187   6.809
   96POPC   C3A 1460   4.424   3.305   6.385
   96POPC   C4A 1461   4.129   3.603   6.227
   96POPC   C1B 1462   4.242   3.004   7.283
   96POPC   C2B 1463   4.061   3.064   6.908
   96POPC   C3B 1464   3.938   3.222   6.534
   96POPC   C4B 1465   4.040   3.115   6.115
   97POPC   NC3 1466   5.081   2.889   8.191
   97POPC   PO4 1467   4.525   3.098   8.121
   97POPC   GL1 1468   4.796   2.923   7.739
   97POPC   GL2 1469   5.150   2.800   7.681
   97POPC   C1A 1470   4.780   2.926   7.266
   97POPC   D2A 1471   4.998   2.882   6.841
   97POPC   C3A 1472   4.771   2.761   6.495
   97POPC   C4A 1473   4.617   2.857   6.100
   97POPC   C1B 1474   5.224   2.646   7.243
   97POPC   C2B 1475   5.159   2.369   6.846
   97POPC   C3B 1476   5.254   2.489   6.425
   97POPC   C4B 1477   5.221   2.923   6.314
   98POPC   NC3 1478   1.753   6.578   8.057
   98POPC   PO4 1479   2.280   6.179   8.087
   98POPC   GL1 1480   1.990   6.226   7.752
   98POPC   GL2 1481   2.039   6.583   7.650
   98POPC   C1A 1482   1.713   6.279   7.387
   98POPC   D2A 1483   1.671   6.377   6.950
   98POPC   C3A 1484   1.886   6.330   6.555
   98POPC   C4A 1485   1.717   6.181   6.186
   98POPC   C1B 1486   1.956   6.716   7.242
   98POPC   C2B 1487   2.101   6.725   6.834
   98POPC   C3B 1488   2.106   6.822   6.415
   98POPC   C4B 1489   2.109   6.532   6.079
   99POPC   NC3 1490   1.308   2.910   7.913
   99POPC   PO4 1491   0.932   2.209   8.012
   99POPC   GL1 1492   0.986   2.493   7.665
   99POPC   GL2 1493   0.884   2.851   7.646
   99POPC   C1A 1494   0.945   2.314   7.279
   99POPC   D2A 1495   1.133   2.318   6.887
   99POPC   C3A 1496   0.980   2.413   6.470
   99POPC   C4A 1497   1.097   2.528   6.011
   99POPC   C1B 1498   1.118   2.777   7.242
   99POPC   C2B 1499   1.053   2.813   6.793
   99POPC   C3B 1500   1.244   2.870   6.430
   99POPC   C4B 1501   0.877   2.929   6.226
  100POPC   NC3 1502   7.906  10.269   8.062
  100POPC   PO4 1503   8.280   9.719   8.013
  100POPC   GL1 1504   7.977   9.940   7.677
  100POPC   GL2 1505   7.710  10.291   7.596
  100POPC   C1A 1506   8.067  10.148   7.301
  100POPC   D2A 1507   8.052  10.008   6.890
  100POPC   C3A 1508   8.160  10.229   6.523
  100POPC   C4A 1509   7.916  10.294   6.152
  100POPC   C1B 1510   7.582  10.049   7.202
  100POPC   C2B 1511   7.556   9.999   6.768
  100POPC   C3B 1512   7.758   9.905   6.430
  100POPC   C4B 1513   7.675   9.870   6.000
  101POPC   NC3 1514   1.991   1.353   8.086
  101POPC   PO4 1515   1.889   2.019   8.179
  101POPC   GL1 1516   1.761   1.921   7.760
  101POPC   GL2 1517   1.942   2.205   7.671
  101POPC   C1A 1518   1.694   1.732   7.320
  101POPC   D2A 1519   1.985   1.755   6.931
  101POPC   C3A 1520   2.107   1.699   6.483
  101POPC   C4A 1521   1.810   1.668   6.094
  101POPC   C1B 1522   1.965   2.161   7.259
  101POPC   C2B 1523   1.907   2.394   6.931
  101POPC   C3B 1524   1.975   2.359   6.534
  101POPC   C4B 1525   1.886   2.115   6.271
  102POPC   NC3 1526   0.628   3.492   8.128
  102POPC   PO4 1527  10.489   3.318   7.916
  102POPC   GL1 1528   0.106   3.681   7.670
  102POPC   GL2 1529   0.448   3.603   7.667
  102POPC   C1A 1530   0.196   3.610   7.213
  102POPC   D2A 1531   0.205   3.227   6.959
  102POPC   C3A 1532   0.120   3.325   6.522
  102POPC   C4A 1533   0.222   3.671   6.284
  102POPC   C1B 1534   0.711   3.636   7.324
  102POPC   C2B 1535   0.652   3.517   6.896
  102POPC   C3B 1536   0.701   3.685   6.501
  102POPC   C4B 1537   0.648   3.385   6.219
  103POPC   NC3 1538   0.352  10.200   8.137
  103POPC   PO4 1539   1.078  10.215   8.153
  103POPC   GL1 1540   0.854  10.253   7.680
  103POPC   GL2 1541   0.518  10.164   7.663
  103POPC   C1A 1542   0.774  10.067   7.233
  103POPC   D2A 1543   0.539  10.244   6.883
  103POPC   C3A 1544   0.723  10.338   6.501
  103POPC   C4A 1545   0.649  10.082   6.178
  103POPC   C1B 1546   0.199  10.080   7.380
  103POPC   C2B 1547  10.479  10.123   7.014
  103POPC   C3B 1548   0.077  10.103   6.622
  103POPC   C4B 1549   0.132   9.951   6.225
  104POPC   NC3 1550   7.717   1.228   7.903
  104POPC   PO4 1551   8.242   0.948   8.198
  104POPC   GL1 1552   8.188   0.993   7.724
  104POPC   GL2 1553   8.003   1.278   7.501
  104POPC   C1A 1554   8.280   0.957   7.274
  104POPC   D2A 1555   8.161   1.252   6.914
  104POPC   C3A 1556   8.128   1.150   6.480
  104POPC   C4A 1557   8.008   1.072   6.073
  104POPC   C1B 1558   7.785   0.992   7.189
  104POPC   C2B 1559   7.752   0.937   6.742
  104POPC   C3B 1560   7.611   1.246   6.426
  104POPC   C4B 1561   7.625   1.522   6.069
  105POPC   NC3 1562   6.900   9.990   7.900
  105POPC   PO4 1563   6.297   9.584   8.081
  105POPC   GL1 1564   6.224   9.899   7.737
  105POPC   GL2 1565   6.471  10.182   7.700
  105POPC   C1A 1566   6.081  10.066   7.332
  105POPC   D2A 1567   6.131   9.906   6.911
  105POPC   C3A 1568   6.154  10.238   6.613
  105POPC   C4A 1569   6.300  10.239   6.213
  105POPC   C1B 1570   6.763  10.269   7.337
  105POPC   C2B 1571   6.732  10.075   6.942
  105POPC   C3B 1572   6.687  10.286   6.595
  105POPC   C4B 1573   6.723   0.026   6.254
  106POPC   NC3 1574   4.843   1.928   7.998
  106POPC   PO4 1575   5.133   2.441   8.119
  106POPC   GL1 1576   4.925   2.340   7.675
  106POPC   GL2 1577   4.924   2.002   7.516
  106POPC   C1A 1578   4.779   2.390   7.227
  106POPC   D2A 1579   4.601   2.208   6.855
  106POPC   C3A 1580   4.803   2.255   6.462
  106POPC   C4A 1581   4.628   2.340   6.049
  106POPC   C1B 1582   4.866   1.854   7.131
  106POPC   C2B 1583   4.941   1.827   6.724
  106POPC   C3B 1584   4.991   1.757   6.336
  106POPC   C4B 1585   5.070   2.061   6.077
  107POPC   NC3 1586  10.234   8.518   8.247
  107POPC   PO4 1587   9.796   9.033   8.096
  107POPC   GL1 1588  10.000   8.824   7.724
  107POPC   GL2 1589  10.135   8.480   7.726
  107POPC   C1A 1590  10.186   8.779   7.316
  107POPC   D2A 1591   9.981   8.825   6.947
  107POPC   C3A 1592  10.231   8.744   6.621
  107POPC   C4A 1593  10.092   8.725   6.230
  107POPC   C1B 1594  10.318   8.294   7.356
  107POPC   C2B 1595  10.428   8.410   6.943
  107POPC   C3B 1596  10.315   8.258   6.529
  107POPC   C4B 1597  10.182   8.219   6.130
  108POPC   NC3 1598   1.991   9.884   8.042
  108POPC   PO4 1599   1.551   9.343   8.251
  108POPC   GL1 1600   1.770   9.426   7.784
  108POPC   GL2 1601   2.015   9.150   7.676
  108POPC   C1A 1602   1.986   9.490   7.323
  108POPC   D2A 1603   1.774   9.521   6.922
  108POPC   C3A 1604   1.915   9.597   6.494
  108POPC   C4A 1605   1.641   9.595   6.150
  108POPC   C1B 1606   2.133   8.967   7.314
  108POPC   C2B 1607   2.119   9.116   6.923
  108POPC   C3B 1608   1.876   9.108   6.584
  108POPC   C4B 1609   1.952   9.180   6.173
  109POPC   NC3 1610   0.866   9.814   7.927
  109POPC   PO4 1611   1.541   9.972   8.048
  109POPC   GL1 1612   1.295   9.993   7.720
  109POPC   GL2 1613   1.347  10.300   7.649
  109POPC   C1A 1614   1.281   9.969   7.280
  109POPC   D2A 1615   1.305   9.767   6.912
  109POPC   C3A 1616   1.007   9.927   6.638
  109POPC   C4A 1617   1.145   9.821   6.255
  109POPC   C1B 1618   1.141  10.467   7.292
  109POPC   C2B 1619   1.060  10.410   6.874
  109POPC   C3B 1620   1.238  10.353   6.459
  109POPC   C4B 1621   1.070  10.481   6.056
  110POPC   NC3 1622   7.811   9.640   8.116
  110POPC   PO4 1623   8.175   9.062   8.331
  110POPC   GL1 1624   8.013   9.152   7.901
  110POPC   GL2 1625   8.302   9.290   7.715
  110POPC   C1A 1626   7.852   9.387   7.500
  110POPC   D2A 1627   7.661   9.561   7.107
  110POPC   C3A 1628   7.791   9.470   6.685
  110POPC   C4A 1629   7.814   9.423   6.242
  110POPC   C1B 1630   8.292   9.610   7.371
  110POPC   C2B 1631   8.242   9.537   6.951
  110POPC   C3B 1632   8.374   9.745   6.573
  110POPC   C4B 1633   8.190   9.824   6.165
  111POPC   NC3 1634   9.301   7.913   8.046
  111POPC   PO4 1635   9.943   8.190   8.083
  111POPC   GL1 1636   9.648   8.113   7.726
  111POPC   GL2 1637   9.661   7.727   7.724
  111POPC   C1A 1638   9.422   8.099   7.287
  111POPC   D2A 1639   9.566   7.957   6.896
  111POPC   C3A 1640   9.398   8.120   6.528
  111POPC   C4A 1641   9.271   7.948   6.132
  111POPC   C1B 1642   9.440   7.577   7.351
  111POPC   C2B 1643   9.363   7.424   6.941
  111POPC   C3B 1644   9.435   7.593   6.549
  111POPC   C4B 1645   9.553   7.461   6.181
  112POPC   NC3 1646   8.690   1.083   8.080
  112POPC   PO4 1647   8.129   1.464   7.968
  112POPC   GL1 1648   8.466   1.427   7.690
  112POPC   GL2 1649   8.825   1.461   7.727
  112POPC   C1A 1650   8.495   1.431   7.251
  112POPC   D2A 1651   8.644   1.550   6.843
  112POPC   C3A 1652   8.484   1.529   6.413
  112POPC   C4A 1653   8.587   1.482   5.978
  112POPC   C1B 1654   8.784   1.068   7.444
  112POPC   C2B 1655   8.698   1.014   7.008
  112POPC   C3B 1656   8.596   1.063   6.619
  112POPC   C4B 1657   8.544   1.010   6.197
  113POPC   NC3 1658   5.316   0.153   8.408
  113POPC   PO4 1659   5.626   0.713   8.139
  113POPC   GL1 1660   5.687   0.641   7.697
  113POPC   GL2 1661   5.851   0.326   7.726
  113POPC   C1A 1662   5.540   0.471   7.303
  113POPC   D2A 1663   5.644   0.639   6.869
  113POPC   C3A 1664   5.512   0.537   6.423
  113POPC   C4A 1665   5.450   0.760   6.022
  113POPC   C1B 1666   6.025   0.517   7.331
  113POPC   C2B 1667   6.012   0.279   6.983
  113POPC   C3B 1668   5.941   0.330   6.587
  113POPC   C4B 1669   5.988   0.699   6.309
  114POPC   NC3 1670   2.077   3.495   8.171
  114POPC   PO4 1671   2.399   2.874   8.272
  114POPC   GL1 1672   2.251   3.147   7.837
  114POPC   GL2 1673   1.978   3.424   7.695
  114POPC   C1A 1674   2.178   3.106   7.367
  114POPC   D2A 1675   2.007   2.938   6.985
  114POPC   C3A 1676   2.200   3.070   6.620
  114POPC   C4A 1677   2.186   3.417   6.361
  114POPC   C1B 1678   1.728   3.385   7.306
  114POPC   C2B 1679   1.608   3.614   6.914
  114POPC   C3B 1680   1.567   3.377   6.542
  114POPC   C4B 1681   1.709   3.174   6.194
  115POPC   NC3 1682   7.963   2.594   8.169
  115POPC   PO4 1683   7.568   2.083   7.912
  115POPC   GL1 1684   7.887   2.409   7.692
  115POPC   GL2 1685   7.929   2.810   7.706
  115POPC   C1A 1686   7.983   2.577   7.266
  115POPC   D2A 1687   7.767   2.631   6.929
  115POPC   C3A 1688   8.015   2.612   6.601
  115POPC   C4A 1689   7.783   2.564   6.236
  115POPC   C1B 1690   8.198   3.026   7.384
  115POPC   C2B 1691   8.071   3.047   6.980
  115POPC   C3B 1692   7.841   3.079   6.634
  115POPC   C4B 1693   8.070   2.988   6.247
  116POPC   NC3 1694   2.924   9.476   8.137
  116POPC   PO4 1695   2.243   9.506   7.984
  116POPC   GL1 1696   2.499   9.338   7.665
  116POPC   GL2 1697   2.764   9.557   7.664
  116POPC   C1A 1698   2.497   9.401   7.220
  116POPC   D2A 1699   2.307   9.616   6.869
  116POPC   C3A 1700   2.341   9.340   6.512
  116POPC   C4A 1701   2.440   9.271   6.074
  116POPC   C1B 1702   2.719   9.850   7.337
  116POPC   C2B 1703   2.913   9.810   6.968
  116POPC   C3B 1704   2.781   9.583   6.653
  116POPC   C4B 1705   2.818   9.582   6.256
  117POPC   NC3 1706   9.450   2.750   7.931
  117POPC   PO4 1707   9.497   2.212   8.323
  117POPC   GL1 1708   9.459   2.206   7.810
  117POPC   GL2 1709   9.234   2.439   7.583
  117POPC   C1A 1710   9.609   2.248   7.318
  117POPC   D2A 1711   9.399   2.331   6.934
  117POPC   C3A 1712   9.510   2.577   6.578
  117POPC   C4A 1713   9.293   2.652   6.184
  117POPC   C1B 1714   9.467   2.752   7.277
  117POPC   C2B 1715   9.279   3.020   6.984
  117POPC   C3B 1716   9.161   2.969   6.584
  117POPC   C4B 1717   9.577   3.077   6.415
  118POPC   NC3 1718   5.568   8.287   7.944
  118POPC   PO4 1719   6.069   8.763   8.116
  118POPC   GL1 1720   5.977   8.575   7.734
  118POPC   GL2 1721   5.671   8.696   7.630
  118POPC   C1A 1722   6.056   8.792   7.326
  118POPC   D2A 1723   5.841   8.955   6.970
  118POPC   C3A 1724   5.892   8.740   6.574
  118POPC   C4A 1725   6.003   8.900   6.189
  118POPC   C1B 1726   5.484   8.686   7.246
  118POPC   C2B 1727   5.474   8.566   6.825
  118POPC   C3B 1728   5.362   8.617   6.409
  118POPC   C4B 1729   5.657   8.539   6.117
  119POPC   NC3 1730   1.184   8.986   8.172
  119POPC   PO4 1731   1.469   8.438   8.060
  119POPC   GL1 1732   1.357   8.526   7.663
  119POPC   GL2 1733   1.116   8.724   7.724
  119POPC   C1A 1734   1.352   8.361   7.252
  119POPC   D2A 1735   1.519   8.351   6.834
  119POPC   C3A 1736   1.248   8.345   6.516
  119POPC   C4A 1737   1.231   8.591   6.196
  119POPC   C1B 1738   1.113   8.890   7.330
  119POPC   C2B 1739   1.158   8.726   6.952
  119POPC   C3B 1740   1.045   9.003   6.681
  119POPC   C4B 1741   0.955   8.999   6.283
  120POPC   NC3 1742   2.805  10.338   8.404
  120POPC   PO4 1743   2.628   0.426   8.185
  120POPC   GL1 1744   2.770   0.540   7.777
  120POPC   GL2 1745   3.087   0.722   7.758
  120POPC   C1A 1746   2.596   0.373   7.375
  120POPC   D2A 1747   2.690   0.103   7.020
  120POPC   C3A 1748   2.788   0.311   6.654
  120POPC   C4A 1749   2.790   0.214   6.236
  120POPC   C1B 1750   2.953   0.754   7.323
  120POPC   C2B 1751   2.697   0.745   6.939
  120POPC   C3B 1752   2.677   0.773   6.495
  120POPC   C4B 1753   2.368   0.521   6.328
  121POPC   NC3 1754   4.234   7.992   8.369
  121POPC   PO4 1755   4.363   7.437   8.064
  121POPC   GL1 1756   4.244   7.343   7.652
  121POPC   GL2 1757   4.048   7.047   7.621
  121POPC   C1A 1758   4.270   7.267   7.202
  121POPC   D2A 1759   4.463   7.421   6.829
  121POPC   C3A 1760   4.349   7.211   6.442
  121POPC   C4A 1761   4.595   6.895   6.195
  121POPC   C1B 1762   3.959   6.816   7.238
  121POPC   C2B 1763   4.081   6.947   6.826
  121POPC   C3B 1764   3.990   6.837   6.388
  121POPC   C4B 1765   4.152   7.018   5.999
  122POPC   NC3 1766   7.990   3.359   8.289
  122POPC   PO4 1767   8.468   3.830   8.021
  122POPC   GL1 1768   8.157   3.729   7.691
  122POPC   GL2 1769   7.940   3.379   7.750
  122POPC   C1A 1770   8.141   3.522   7.299
  122POPC   D2A 1771   7.948   3.525   6.911
  122POPC   C3A 1772   8.204   3.440   6.588
  122POPC   C4A 1773   8.046   3.487   6.233
  122POPC   C1B 1774   7.717   3.189   7.357
  122POPC   C2B 1775   7.450   3.328   6.988
  122POPC   C3B 1776   7.536   3.484   6.567
  122POPC   C4B 1777   7.626   3.222   6.202
  123POPC   NC3 1778   2.582   8.437   8.463
  123POPC   PO4 1779   2.309   7.971   8.011
  123POPC   GL1 1780   2.570   7.811   7.712
  123POPC   GL2 1781   2.896   7.866   7.864
  123POPC   C1A 1782   2.547   7.883   7.283
  123POPC   D2A 1783   2.565   8.125   6.930
  123POPC   C3A 1784   2.596   7.898   6.576
  123POPC   C4A 1785   2.590   8.040   6.184
  123POPC   C1B 1786   3.013   7.783   7.419
  123POPC   C2B 1787   2.969   7.764   6.959
  123POPC   C3B 1788   2.949   7.548   6.539
  123POPC   C4B 1789   2.989   7.705   6.130
  124POPC   NC3 1790   2.522   8.383   7.885
  124POPC   PO4 1791   3.000   8.271   8.370
  124POPC   GL1 1792   3.037   8.355   7.845
  124POPC   GL2 1793   2.973   8.686   7.668
  124POPC   C1A 1794   2.895   8.281   7.359
  124POPC   D2A 1795   2.734   8.598   7.021
  124POPC   C3A 1796   2.696   8.484   6.544
  124POPC   C4A 1797   2.990   8.436   6.181
  124POPC   C1B 1798   2.867   9.006   7.316
  124POPC   C2B 1799   2.643   9.072   6.863
  124POPC   C3B 1800   2.770   9.100   6.436
  124POPC   C4B 1801   2.695   8.844   6.104
  125POPC   NC3 1802   7.771   6.428   8.113
  125POPC   PO4 1803   8.269   6.816   8.227
  125POPC   GL1 1804   8.086   6.709   7.786
  125POPC   GL2 1805   8.005   6.343   7.693
  125POPC   C1A 1806   8.205   6.591   7.319
  125POPC   D2A 1807   8.100   6.357   6.939
  125POPC   C3A 1808   8.012   6.504   6.516
  125POPC   C4A 1809   8.254   6.697   6.181
  125POPC   C1B 1810   7.728   6.434   7.314
  125POPC   C2B 1811   7.582   6.521   6.904
  125POPC   C3B 1812   7.515   6.342   6.488
  125POPC   C4B 1813   7.630   6.485   6.074
  126POPC   NC3 1814   2.592   5.856   7.953
  126POPC   PO4 1815   2.352   5.231   8.086
  126POPC   GL1 1816   2.414   5.272   7.688
  126POPC   GL2 1817   2.702   5.489   7.615
  126POPC   C1A 1818   2.306   5.467   7.311
  126POPC   D2A 1819   2.317   5.692   6.961
  126POPC   C3A 1820   2.551   5.540   6.649
  126POPC   C4A 1821   2.412   5.542   6.260
  126POPC   C1B 1822   2.661   5.862   7.300
  126POPC   C2B 1823   2.685   6.045   6.863
  126POPC   C3B 1824   2.714   5.971   6.424
  126POPC   C4B 1825   2.930   5.640   6.222
  127POPC   NC3 1826   9.345   9.420   8.102
  127POPC   PO4 1827   9.913   9.796   7.974
  127POPC   GL1 1828   9.695   9.502   7.649
  127POPC   GL2 1829   9.327   9.409   7.598
  127POPC   C1A 1830   9.634   9.442   7.193
  127POPC   D2A 1831   9.829   9.326   6.811
  127POPC   C3A 1832   9.838   9.582   6.459
  127POPC   C4A 1833   9.655   9.794   6.104
  127POPC   C1B 1834   9.132   9.307   7.202
  127POPC   C2B 1835   9.287   9.474   6.799
  127POPC   C3B 1836   9.319   9.491   6.349
  127POPC   C4B 1837   9.091   9.232   6.080
  128POPC   NC3 1838   4.652   1.317   7.927
  128POPC   PO4 1839   5.075   0.843   8.137
  128POPC   GL1 1840   5.138   0.922   7.685
  128POPC   GL2 1841   4.865   1.084   7.519
  128POPC   C1A 1842   5.280   0.927   7.233
  128POPC   D2A 1843   5.000   0.938   6.857
  128POPC   C3A 1844   5.107   0.873   6.396
  128POPC   C4A 1845   5.024   1.042   5.952
  128POPC   C1B 1846   5.139   1.419   7.298
  128POPC   C2B 1847   5.227   1.405   6.836
  128POPC   C3B 1848   4.846   1.317   6.553
  128POPC   C4B 1849   4.649   1.372   6.144
  129POPC   NC3 1850   8.778   9.861   8.088
  129POPC   PO4 1851   8.366  10.341   8.205
  129POPC   GL1 1852   8.669  10.301   7.828
  129POPC   GL2 1853   8.504  10.024   7.642
  129POPC   C1A 1854   8.931  10.218   7.409
  129POPC   D2A 1855   9.158   9.974   7.024
  129POPC   C3A 1856   9.007   9.850   6.580
  129POPC   C4A 1857   8.760   9.996   6.254
  129POPC   C1B 1858   8.524  10.035   7.171
  129POPC   C2B 1859   8.681  10.181   6.788
  129POPC   C3B 1860   8.623  10.444   6.432
  129POPC   C4B 1861   8.402  10.260   6.029
  130POPC   NC3 1862   3.419   3.411   8.085
  130POPC   PO4 1863   4.009   3.114   7.920
  130POPC   GL1 1864   3.816   3.389   7.667
  130POPC   GL2 1865   3.436   3.429   7.580
  130POPC   C1A 1866   3.803   3.347   7.239
  130POPC   D2A 1867   3.529   3.080   6.991
  130POPC   C3A 1868   3.440   3.305   6.606
  130POPC   C4A 1869   3.641   3.620   6.385
  130POPC   C1B 1870   3.297   3.512   7.141
  130POPC   C2B 1871   3.171   3.777   6.764
  130POPC   C3B 1872   3.261   3.942   6.340
  130POPC   C4B 1873   3.334   3.690   5.973
  131POPC   NC3 1874   5.304  10.099   8.040
  131POPC   PO4 1875   4.673   9.829   8.069
  131POPC   GL1 1876   4.773  10.133   7.705
  131POPC   GL2 1877   5.097  10.305   7.638
  131POPC   C1A 1878   4.890  10.047   7.230
  131POPC   D2A 1879   5.213   9.924   6.918
  131POPC   C3A 1880   5.107  10.027   6.499
  131POPC   C4A 1881   4.668  10.048   6.347
  131POPC   C1B 1882   5.236  10.411   7.231
  131POPC   C2B 1883   4.991  10.456   6.860
  131POPC   C3B 1884   4.776   0.025   6.460
  131POPC   C4B 1885   5.028  10.357   6.102
  132POPC   NC3 1886   6.476   7.600   8.067
  132POPC   PO4 1887   6.779   8.091   8.326
  132POPC   GL1 1888   6.640   8.065   7.802
  132POPC   GL2 1889   6.653   7.756   7.640
  132POPC   C1A 1890   6.695   8.027   7.242
  132POPC   D2A 1891   6.798   7.729   6.878
  132POPC   C3A 1892   6.735   7.982   6.556
  132POPC   C4A 1893   6.538   8.034   6.179
  132POPC   C1B 1894   6.269   7.793   7.384
  132POPC   C2B 1895   6.289   7.861   6.935
  132POPC   C3B 1896   6.310   7.709   6.500
  132POPC   C4B 1897   6.048   7.912   6.228
  133POPC   NC3 1898   5.384   1.130   8.313
  133POPC   PO4 1899   5.897   1.423   8.084
  133POPC   GL1 1900   5.800   1.407   7.663
  133POPC   GL2 1901   5.579   1.157   7.664
  133POPC   C1A 1902   5.661   1.480   7.247
  133POPC   D2A 1903   5.868   1.624   6.914
  133POPC   C3A 1904   5.688   1.554   6.555
  133POPC   C4A 1905   5.864   1.375   6.210
  133POPC   C1B 1906   5.790   0.982   7.295
  133POPC   C2B 1907   5.689   1.131   6.885
  133POPC   C3B 1908   5.585   1.045   6.477
  133POPC   C4B 1909   5.287   1.333   6.315
  134POPC   NC3 1910   4.715   7.714   7.926
  134POPC   PO4 1911   5.345   7.880   7.935
  134POPC   GL1 1912   5.159   7.989   7.593
  134POPC   GL2 1913   4.817   8.118   7.629
  134POPC   C1A 1914   5.220   7.730   7.227
  134POPC   D2A 1915   4.962   7.566   6.905
  134POPC   C3A 1916   5.128   7.601   6.505
  134POPC   C4A 1917   5.196   7.699   6.082
  134POPC   C1B 1918   4.776   7.990   7.193
  134POPC   C2B 1919   4.613   7.923   6.776
  134POPC   C3B 1920   4.737   7.889   6.338
  134POPC   C4B 1921   4.702   7.890   5.887
  135POPC   NC3 1922   1.035   8.267   8.056
  135POPC   PO4 1923   0.407   8.001   7.897
  135POPC   GL1 1924   0.724   7.963   7.628
  135POPC   GL2 1925   1.061   8.097   7.600
  135POPC   C1A 1926   0.735   8.010   7.220
  135POPC   D2A 1927   0.951   8.224   6.910
  135POPC   C3A 1928   0.801   8.119   6.468
  135POPC   C4A 1929   0.901   8.186   6.039
  135POPC   C1B 1930   1.244   7.844   7.317
  135POPC   C2B 1931   1.333   7.555   6.972
  135POPC   C3B 1932   1.170   7.825   6.668
  135POPC   C4B 1933   1.261   7.891   6.240
  136POPC   NC3 1934   8.671   6.539   8.195
  136POPC   PO4 1935   8.135   6.085   8.205
  136POPC   GL1 1936   8.491   6.137   7.869
  136POPC   GL2 1937   8.510   6.441   7.698
  136POPC   C1A 1938   8.556   6.077   7.375
  136POPC   D2A 1939   8.447   5.931   6.966
  136POPC   C3A 1940   8.414   6.167   6.587
  136POPC   C4A 1941   8.260   6.156   6.182
  136POPC   C1B 1942   8.697   6.588   7.262
  136POPC   C2B 1943   8.496   6.697   6.872
  136POPC   C3B 1944   8.676   6.583   6.486
  136POPC   C4B 1945   8.749   6.283   6.159
  137POPC   NC3 1946   5.653   7.556   7.972
  137POPC   PO4 1947   6.176   7.949   8.025
  137POPC   GL1 1948   5.845   7.938   7.650
  137POPC   GL2 1949   5.669   8.212   7.452
  137POPC   C1A 1950   5.780   7.782   7.182
  137POPC   D2A 1951   5.892   7.545   6.756
  137POPC   C3A 1952   5.623   7.583   6.366
  137POPC   C4A 1953   5.551   7.339   5.948
  137POPC   C1B 1954   5.279   8.232   7.177
  137POPC   C2B 1955   5.096   8.099   6.790
  137POPC   C3B 1956   5.203   8.128   6.360
  137POPC   C4B 1957   5.580   8.034   6.107
  138POPC   NC3 1958   8.402   5.653   8.083
  138POPC   PO4 1959   9.078   5.871   8.078
  138POPC   GL1 1960   8.885   5.844   7.683
  138POPC   GL2 1961   8.628   5.627   7.639
  138POPC   C1A 1962   8.934   5.706   7.247
  138POPC   D2A 1963   9.119   5.863   6.879
  138POPC   C3A 1964   8.831   5.879   6.527
  138POPC   C4A 1965   8.977   5.819   6.116
  138POPC   C1B 1966   8.468   5.495   7.257
  138POPC   C2B 1967   8.695   5.501   6.844
  138POPC   C3B 1968   8.720   5.382   6.414
  138POPC   C4B 1969   8.503   5.679   6.182
  139POPC   NC3 1970   3.822   7.980   7.959
  139POPC   PO4 1971   4.513   8.145   8.036
  139POPC   GL1 1972   4.296   7.910   7.658
  139POPC   GL2 1973   3.945   7.738   7.543
  139POPC   C1A 1974   4.307   7.781   7.206
  139POPC   D2A 1975   3.997   7.625   6.920
  139POPC   C3A 1976   4.182   7.713   6.527
  139POPC   C4A 1977   4.353   7.602   6.113
  139POPC   C1B 1978   3.824   8.019   7.211
  139POPC   C2B 1979   3.669   7.994   6.759
  139POPC   C3B 1980   3.835   8.125   6.368
  139POPC   C4B 1981   3.883   7.771   6.141
  140POPC   NC3 1982   3.286   7.913   8.327
  140POPC   PO4 1983   3.536   8.319   7.913
  140POPC   GL1 1984   3.422   8.120   7.565
  140POPC   GL2 1985   3.395   7.814   7.732
  140POPC   C1A 1986   3.329   8.120   7.125
  140POPC   D2A 1987   3.070   8.275   6.841
  140POPC   C3A 1988   3.099   8.048   6.498
  140POPC   C4A 1989   3.368   8.076   6.149
  140POPC   C1B 1990   3.481   7.678   7.305
  140POPC   C2B 1991   3.438   7.554   6.868
  140POPC   C3B 1992   3.451   7.644   6.406
  140POPC   C4B 1993   3.462   7.604   5.924
  141POPC   NC3 1994   3.477   9.680   8.059
  141POPC   PO4 1995   3.060   9.046   8.021
  141POPC   GL1 1996   3.247   9.340   7.746
  141POPC   GL2 1997   3.523   9.138   7.716
  141POPC   C1A 1998   3.157   9.515   7.331
  141POPC   D2A 1999   3.083   9.288   6.951
  141POPC   C3A 2000   3.233   9.308   6.544
  141POPC   C4A 2001   3.324   9.590   6.233
  141POPC   C1B 2002   3.422   9.088   7.307
  141POPC   C2B 2003   3.598   9.151   6.933
  141POPC   C3B 2004   3.623   8.966   6.577
  141POPC   C4B 2005   3.617   9.162   6.229
  142POPC   NC3 2006   3.469   6.157   8.070
  142POPC   PO4 2007   3.598   6.794   8.080
  142POPC   GL1 2008   3.224   6.656   7.794
  142POPC   GL2 2009   3.307   6.354   7.598
  142POPC   C1A 2010   3.208   6.756   7.312
  142POPC   D2A 2011   3.152   6.752   6.856
  142POPC   C3A 2012   3.473   6.671   6.529
  142POPC   C4A 2013   3.434   6.459   6.111
  142POPC   C1B 2014   3.574   6.426   7.193
  142POPC   C2B 2015   3.669   6.259   6.773
  142POPC   C3B 2016   3.863   6.330   6.373
  142POPC   C4B 2017   3.849   6.106   5.975
  143POPC   NC3 2018   1.955   2.505   8.100
  143POPC   PO4 2019   1.707   3.145   8.095
  143POPC   GL1 2020   1.780   2.940   7.703
  143POPC   GL2 2021   2.052   2.715   7.646
  143POPC   C1A 2022   1.675   2.743   7.319
  143POPC   D2A 2023   1.515   2.699   6.913
  143POPC   C3A 2024   1.745   2.809   6.560
  143POPC   C4A 2025   1.631   2.637   6.181
  143POPC   C1B 2026   2.271   2.584   7.254
  143POPC   C2B 2027   2.363   2.569   6.785
  143POPC   C3B 2028   2.328   2.667   6.345
  143POPC   C4B 2029   2.170   2.978   6.097
  144POPC   NC3 2030   2.699   3.173   8.111
  144POPC   PO4 2031   2.427   3.709   8.378
  144POPC   GL1 2032   2.530   3.585   7.875
  144POPC   GL2 2033   2.821   3.381   7.670
  144POPC   C1A 2034   2.402   3.570   7.421
  144POPC   D2A 2035   2.362   3.409   6.973
  144POPC   C3A 2036   2.578   3.629   6.654
  144POPC   C4A 2037   2.490   3.812   6.263
  144POPC   C1B 2038   2.824   3.368   7.206
  144POPC   C2B 2039   2.964   3.308   6.785
  144POPC   C3B 2040   3.009   3.482   6.343
  144POPC   C4B 2041   2.996   3.287   5.907
  145POPC   NC3 2042   0.807   2.630   8.142
  145POPC   PO4 2043   0.146   2.474   8.127
  145POPC   GL1 2044   0.359   2.818   7.855
  145POPC   GL2 2045   0.490   2.531   7.734
  145POPC   C1A 2046   0.472   3.114   7.474
  145POPC   D2A 2047   0.704   3.052   7.067
  145POPC   C3A 2048   0.560   3.050   6.624
  145POPC   C4A 2049   0.347   2.981   6.201
  145POPC   C1B 2050   0.555   2.637   7.312
  145POPC   C2B 2051   0.644   2.543   6.886
  145POPC   C3B 2052   0.480   2.563   6.477
  145POPC   C4B 2053   0.632   2.377   6.120
  146POPC   NC3 2054   7.962   8.669   8.194
  146POPC   PO4 2055   8.502   8.752   7.904
  146POPC   GL1 2056   8.229   8.493   7.732
  146POPC   GL2 2057   7.902   8.656   7.707
  146POPC   C1A 2058   8.088   8.383   7.333
  146POPC   D2A 2059   8.062   8.628   6.968
  146POPC   C3A 2060   8.157   8.525   6.555
  146POPC   C4A 2061   8.170   8.820   6.229
  146POPC   C1B 2062   8.083   8.930   7.392
  146POPC   C2B 2063   7.872   9.095   7.024
  146POPC   C3B 2064   7.802   8.931   6.589
  146POPC   C4B 2065   7.728   8.590   6.254
  147POPC   NC3 2066   1.236   9.772   8.323
  147POPC   PO4 2067   0.887   9.338   8.089
  147POPC   GL1 2068   1.261   9.497   7.846
  147POPC   GL2 2069   1.215   9.228   7.683
  147POPC   C1A 2070   1.487   9.519   7.388
  147POPC   D2A 2071   1.335   9.258   7.026
  147POPC   C3A 2072   1.406   9.369   6.571
  147POPC   C4A 2073   1.428   9.130   6.180
  147POPC   C1B 2074   0.997   9.526   7.361
  147POPC   C2B 2075   0.835   9.566   6.952
  147POPC   C3B 2076   0.859   9.442   6.526
  147POPC   C4B 2077   0.813   9.465   6.096
  148POPC   NC3 2078   9.672   4.400   8.079
  148POPC   PO4 2079   9.522   5.040   8.222
  148POPC   GL1 2080   9.498   4.805   7.804
  148POPC   GL2 2081   9.219   4.630   7.745
  148POPC   C1A 2082   9.764   4.735   7.409
  148POPC   D2A 2083   9.663   4.613   6.996
  148POPC   C3A 2084   9.699   4.922   6.655
  148POPC   C4A 2085   9.812   4.918   6.223
  148POPC   C1B 2086   9.267   4.843   7.344
  148POPC   C2B 2087   9.176   4.836   6.913
  148POPC   C3B 2088   9.223   5.012   6.515
  148POPC   C4B 2089   9.313   4.812   6.141
  149POPC   NC3 2090   0.890   1.360   7.837
  149POPC   PO4 2091   1.514   1.394   8.017
  149POPC   GL1 2092   1.291   1.115   7.610
  149POPC   GL2 2093   0.889   0.987   7.506
  149POPC   C1A 2094   1.254   0.901   7.191
  149POPC   D2A 2095   1.034   1.025   6.807
  149POPC   C3A 2096   1.353   1.007   6.456
  149POPC   C4A 2097   1.441   1.287   6.086
  149POPC   C1B 2098   0.783   1.334   7.192
  149POPC   C2B 2099   0.708   1.524   6.779
  149POPC   C3B 2100   0.946   1.395   6.433
  149POPC   C4B 2101   0.866   0.964   6.317
  150POPC   NC3 2102   7.862   7.090   8.320
  150POPC   PO4 2103   8.203   7.522   7.956
  150POPC   GL1 2104   7.958   7.423   7.612
  150POPC   GL2 2105   7.806   7.154   7.798
  150POPC   C1A 2106   7.938   7.407   7.155
  150POPC   D2A 2107   8.070   7.630   6.818
  150POPC   C3A 2108   8.040   7.496   6.389
  150POPC   C4A 2109   7.799   7.677   6.082
  150POPC   C1B 2110   7.850   6.953   7.386
  150POPC   C2B 2111   7.975   6.859   6.957
  150POPC   C3B 2112   8.008   7.009   6.542
  150POPC   C4B 2113   7.748   6.971   6.189
  151POPC   NC3 2114   5.936   9.862   8.169
  151POPC   PO4 2115   5.632  10.444   8.145
  151POPC   GL1 2116   5.650  10.317   7.704
  151POPC   GL2 2117   5.692   9.947   7.721
  151POPC   C1A 2118   5.734  10.480   7.281
  151POPC   D2A 2119   5.511   0.150   6.881
  151POPC   C3A 2120   5.378   0.037   6.475
  151POPC   C4A 2121   5.739   0.090   6.198
  151POPC   C1B 2122   5.546   9.988   7.307
  151POPC   C2B 2123   5.677  10.149   6.896
  151POPC   C3B 2124   5.670  10.143   6.462
  151POPC   C4B 2125   5.494   9.876   6.169
  152POPC   NC3 2126   6.277   2.515   8.061
  152POPC   PO4 2127   6.913   2.409   8.191
  152POPC   GL1 2128   6.782   2.615   7.752
  152POPC   GL2 2129   6.417   2.607   7.595
  152POPC   C1A 2130   6.811   2.634   7.285
  152POPC   D2A 2131   6.497   2.668   6.968
  152POPC   C3A 2132   6.718   2.697   6.618
  152POPC   C4A 2133   6.794   2.450   6.278
  152POPC   C1B 2134   6.115   2.796   7.304
  152POPC   C2B 2135   6.011   2.831   6.853
  152POPC   C3B 2136   6.219   2.771   6.455
  152POPC   C4B 2137   6.308   2.340   6.340
  153POPC   NC3 2138  10.211   5.991   8.062
  153POPC   PO4 2139   0.076   6.555   8.235
  153POPC   GL1 2140  10.292   6.460   7.819
  153POPC   GL2 2141   9.922   6.304   7.761
  153POPC   C1A 2142  10.297   6.250   7.388
  153POPC   D2A 2143   0.084   6.275   7.026
  153POPC   C3A 2144  10.382   6.198   6.635
  153POPC   C4A 2145  10.445   6.361   6.226
  153POPC   C1B 2146   9.841   6.476   7.321
  153POPC   C2B 2147  10.119   6.545   6.951
  153POPC   C3B 2148  10.101   6.650   6.504
  153POPC   C4B 2149  10.016   6.606   6.025
  154POPC   NC3 2150   8.182   4.999   8.018
  154POPC   PO4 2151   7.721   4.491   7.951
  154POPC   GL1 2152   7.881   4.603   7.576
  154POPC   GL2 2153   8.205   4.657   7.625
  154POPC   C1A 2154   7.813   4.611   7.140
  154POPC   D2A 2155   7.849   4.833   6.755
  154POPC   C3A 2156   7.503   4.881   6.476
  154POPC   C4A 2157   7.473   5.070   6.053
  154POPC   C1B 2158   8.087   5.026   7.332
  154POPC   C2B 2159   8.203   5.211   6.930
  154POPC   C3B 2160   8.290   5.104   6.540
  154POPC   C4B 2161   7.999   4.945   6.286
  155POPC   NC3 2162   6.379   8.327   8.222
  155POPC   PO4 2163   6.813   8.797   8.016
  155POPC   GL1 2164   6.617   8.872   7.622
  155POPC   GL2 2165   6.491   8.545   7.675
  155POPC   C1A 2166   6.557   8.820   7.152
  155POPC   D2A 2167   6.333   8.948   6.756
  155POPC   C3A 2168   6.477   8.878   6.313
  155POPC   C4A 2169   6.408   8.913   5.846
  155POPC   C1B 2170   6.264   8.318   7.366
  155POPC   C2B 2171   6.174   8.448   6.932
  155POPC   C3B 2172   6.382   8.416   6.525
  155POPC   C4B 2173   6.773   8.465   6.283
  156POPC   NC3 2174   9.317   0.816   8.387
  156POPC   PO4 2175   9.105   1.381   8.168
  156POPC   GL1 2176   9.267   1.159   7.775
  156POPC   GL2 2177   9.624   1.068   7.692
  156POPC   C1A 2178   9.267   0.963   7.343
  156POPC   D2A 2179   9.169   0.869   6.917
  156POPC   C3A 2180   9.052   1.281   6.701
  156POPC   C4A 2181   8.975   1.339   6.267
  156POPC   C1B 2182   9.754   1.117   7.222
  156POPC   C2B 2183   9.532   1.227   6.818
  156POPC   C3B 2184   9.477   1.169   6.359
  156POPC   C4B 2185   9.691   1.047   5.967
  157POPC   NC3 2186   1.710   4.263   8.158
  157POPC   PO4 2187   2.152   3.914   7.961
  157POPC   GL1 2188   1.819   4.077   7.697
  157POPC   GL2 2189   1.813   4.460   7.694
  157POPC   C1A 2190   1.767   3.916   7.308
  157POPC   D2A 2191   2.078   3.804   7.055
  157POPC   C3A 2192   2.022   3.815   6.633
  157POPC   C4A 2193   1.982   3.933   6.236
  157POPC   C1B 2194   1.999   4.367   7.280
  157POPC   C2B 2195   1.822   4.230   6.878
  157POPC   C3B 2196   1.865   4.394   6.455
  157POPC   C4B 2197   1.967   4.381   5.986
  158POPC   NC3 2198   4.012   1.836   8.062
  158POPC   PO4 2199   4.563   1.712   7.718
  158POPC   GL1 2200   4.401   1.998   7.442
  158POPC   GL2 2201   4.081   2.060   7.594
  158POPC   C1A 2202   4.158   2.025   7.060
  158POPC   D2A 2203   4.083   2.377   6.791
  158POPC   C3A 2204   4.288   2.265   6.440
  158POPC   C4A 2205   4.499   1.864   6.321
  158POPC   C1B 2206   3.968   1.659   7.386
  158POPC   C2B 2207   4.034   1.392   7.009
  158POPC   C3B 2208   4.179   1.581   6.631
  158POPC   C4B 2209   3.978   1.846   6.357
  159POPC   NC3 2210   2.802   2.660   8.319
  159POPC   PO4 2211   2.362   2.416   7.897
  159POPC   GL1 2212   2.584   2.758   7.802
  159POPC   GL2 2213   2.927   2.720   7.815
  159POPC   C1A 2214   2.671   2.949   7.437
  159POPC   D2A 2215   2.540   2.956   7.035
  159POPC   C3A 2216   2.703   2.911   6.646
  159POPC   C4A 2217   2.637   3.135   6.296
  159POPC   C1B 2218   2.856   2.467   7.437
  159POPC   C2B 2219   2.798   2.351   7.017
  159POPC   C3B 2220   2.907   2.444   6.629
  159POPC   C4B 2221   2.808   2.625   6.235
  160POPC   NC3 2222   7.469   3.446   7.995
  160POPC   PO4 2223   6.885   3.335   8.348
  160POPC   GL1 2224   6.985   3.244   7.777
  160POPC   GL2 2225   7.293   3.366   7.552
  160POPC   C1A 2226   6.914   3.504   7.273
  160POPC   D2A 2227   7.130   3.758   6.884
  160POPC   C3A 2228   6.964   3.830   6.396
  160POPC   C4A 2229   6.964   3.742   5.905
  160POPC   C1B 2230   7.126   3.041   7.318
  160POPC   C2B 2231   6.953   3.080   6.906
  160POPC   C3B 2232   7.002   3.359   6.603
  160POPC   C4B 2233   7.177   3.417   6.219
  161POPC   NC3 2234   6.665   3.557   8.022
  161POPC   PO4 2235   6.501   2.922   8.052
  161POPC   GL1 2236   6.508   3.101   7.661
  161POPC   GL2 2237   6.450   3.447   7.568
  161POPC   C1A 2238   6.585   3.091   7.242
  161POPC   D2A 2239   6.545   3.392   6.915
  161POPC   C3A 2240   6.519   3.191   6.530
  161POPC   C4A 2241   6.666   3.411   6.206
  161POPC   C1B 2242   6.129   3.314   7.214
  161POPC   C2B 2243   6.055   3.323   6.742
  161POPC   C3B 2244   6.167   3.584   6.382
  161POPC   C4B 2245   5.995   3.868   6.028
  162POPC   NC3 2246   3.460   2.174   8.172
  162POPC   PO4 2247   2.888   1.995   8.198
  162POPC   GL1 2248   3.203   1.863   7.802
  162POPC   GL2 2249   3.564   2.011   7.697
  162POPC   C1A 2250   3.169   2.024   7.326
  162POPC   D2A 2251   3.186   2.038   6.835
  162POPC   C3A 2252   3.159   1.646   6.631
  162POPC   C4A 2253   3.024   1.591   6.195
  162POPC   C1B 2254   3.693   2.142   7.253
  162POPC   C2B 2255   3.700   2.040   6.784
  162POPC   C3B 2256   3.491   1.945   6.379
  162POPC   C4B 2257   3.709   2.230   6.091
  163POPC   NC3 2258   3.990   7.054   8.121
  163POPC   PO4 2259   3.514   7.541   8.156
  163POPC   GL1 2260   3.643   7.359   7.725
  163POPC   GL2 2261   3.523   7.031   7.615
  163POPC   C1A 2262   3.764   7.285   7.266
  163POPC   D2A 2263   3.583   7.059   6.934
  163POPC   C3A 2264   3.784   7.281   6.591
  163POPC   C4A 2265   3.768   7.281   6.182
  163POPC   C1B 2266   3.215   7.257   7.339
  163POPC   C2B 2267   3.037   7.232   6.926
  163POPC   C3B 2268   3.281   7.163   6.520
  163POPC   C4B 2269   3.374   6.974   6.111
  164POPC   NC3 2270   1.903   5.097   8.177
  164POPC   PO4 2271   1.426   4.626   8.041
  164POPC   GL1 2272   1.592   4.949   7.741
  164POPC   GL2 2273   1.972   4.963   7.699
  164POPC   C1A 2274   1.708   4.800   7.301
  164POPC   D2A 2275   1.981   4.740   6.915
  164POPC   C3A 2276   1.801   4.910   6.559
  164POPC   C4A 2277   1.692   4.778   6.160
  164POPC   C1B 2278   2.188   4.979   7.317
  164POPC   C2B 2279   2.369   5.128   6.931
  164POPC   C3B 2280   2.291   5.100   6.506
  164POPC   C4B 2281   2.202   4.758   6.252
  165POPC   NC3 2282   7.035   8.355   7.992
  165POPC   PO4 2283   7.521   8.875   8.054
  165POPC   GL1 2284   7.248   8.799   7.733
  165POPC   GL2 2285   7.405   8.519   7.656
  165POPC   C1A 2286   7.051   8.809   7.343
  165POPC   D2A 2287   6.992   8.546   6.986
  165POPC   C3A 2288   6.819   8.760   6.680
  165POPC   C4A 2289   6.972   8.966   6.315
  165POPC   C1B 2290   7.628   8.661   7.279
  165POPC   C2B 2291   7.575   8.513   6.848
  165POPC   C3B 2292   7.324   8.688   6.548
  165POPC   C4B 2293   7.239   8.562   6.119
  166POPC   NC3 2294   3.109   0.520   8.233
  166POPC   PO4 2295   3.691   0.813   8.449
  166POPC   GL1 2296   3.554   0.628   7.964
  166POPC   GL2 2297   3.387   0.303   7.848
  166POPC   C1A 2298   3.582   0.560   7.457
  166POPC   D2A 2299   3.386   0.720   7.047
  166POPC   C3A 2300   3.455   0.594   6.620
  166POPC   C4A 2301   3.173   0.571   6.271
  166POPC   C1B 2302   3.131   0.280   7.447
  166POPC   C2B 2303   3.183   0.265   6.979
  166POPC   C3B 2304   3.254   0.120   6.543
  166POPC   C4B 2305   3.464   0.130   6.156
  167POPC   NC3 2306   4.113   8.791   8.121
  167POPC   PO4 2307   4.043   9.152   7.690
  167POPC   GL1 2308   4.350   8.827   7.626
  167POPC   GL2 2309   4.302   8.461   7.693
  167POPC   C1A 2310   4.345   8.780   7.190
  167POPC   D2A 2311   4.096   8.942   6.858
  167POPC   C3A 2312   4.005   8.646   6.538
  167POPC   C4A 2313   4.007   8.881   6.127
  167POPC   C1B 2314   4.246   8.290   7.277
  167POPC   C2B 2315   4.154   8.147   6.841
  167POPC   C3B 2316   4.338   8.198   6.442
  167POPC   C4B 2317   4.326   8.504   6.183
  168POPC   NC3 2318   9.932   2.299   8.187
  168POPC   PO4 2319  10.063   1.670   8.171
  168POPC   GL1 2320  10.385   1.821   7.847
  168POPC   GL2 2321  10.184   2.103   7.728
  168POPC   C1A 2322   0.005   1.797   7.393
  168POPC   D2A 2323  10.393   2.017   7.016
  168POPC   C3A 2324  10.456   1.841   6.661
  168POPC   C4A 2325  10.334   1.696   6.291
  168POPC   C1B 2326  10.006   1.938   7.339
  168POPC   C2B 2327   9.879   2.073   6.900
  168POPC   C3B 2328  10.036   2.099   6.491
  168POPC   C4B 2329  10.194   2.357   6.162
  169POPC   NC3 2330   1.368   7.336   8.204
  169POPC   PO4 2331   0.864   7.812   8.125
  169POPC   GL1 2332   1.010   7.553   7.685
  169POPC   GL2 2333   1.347   7.372   7.680
  169POPC   C1A 2334   0.879   7.519   7.179
  169POPC   D2A 2335   0.862   7.384   6.721
  169POPC   C3A 2336   1.212   7.364   6.470
  169POPC   C4A 2337   1.164   7.406   6.042
  169POPC   C1B 2338   1.143   7.143   7.373
  169POPC   C2B 2339   1.168   7.063   6.960
  169POPC   C3B 2340   1.009   6.885   6.596
  169POPC   C4B 2341   1.180   6.931   6.194
  170POPC   NC3 2342  10.350   2.879   7.995
  170POPC   PO4 2343   9.840   2.550   7.815
  170POPC   GL1 2344  10.170   2.606   7.595
  170POPC   GL2 2345  10.490   2.505   7.644
  170POPC   C1A 2346  10.181   2.444   7.213
  170POPC   D2A 2347   9.872   2.578   6.957
  170POPC   C3A 2348  10.033   2.628   6.566
  170POPC   C4A 2349   9.842   2.730   6.184
  170POPC   C1B 2350   0.047   2.828   7.330
  170POPC   C2B 2351  10.344   2.863   6.930
  170POPC   C3B 2352   0.027   2.829   6.565
  170POPC   C4B 2353  10.340   2.871   6.183
  171POPC   NC3 2354  10.085   9.380   7.979
  171POPC   PO4 2355  10.499   8.841   7.991
  171POPC   GL1 2356  10.364   9.167   7.629
  171POPC   GL2 2357  10.441   9.574   7.676
  171POPC   C1A 2358  10.103   9.267   7.265
  171POPC   D2A 2359  10.329   9.224   6.873
  171POPC   C3A 2360  10.167   9.190   6.443
  171POPC   C4A 2361   0.041   9.032   6.228
  171POPC   C1B 2362  10.454   9.624   7.244
  171POPC   C2B 2363  10.168   9.710   6.935
  171POPC   C3B 2364  10.373   9.643   6.557
  171POPC   C4B 2365  10.348   9.526   6.124
  172POPC   NC3 2366  10.452   6.961   8.033
  172POPC   PO4 2367   9.815   7.350   8.148
  172POPC   GL1 2368  10.055   7.177   7.785
  172POPC   GL2 2369  10.268   7.416   7.647
  172POPC   C1A 2370  10.196   6.977   7.364
  172POPC   D2A 2371  10.041   7.065   6.941
  172POPC   C3A 2372  10.340   7.108   6.608
  172POPC   C4A 2373  10.315   6.998   6.211
  172POPC   C1B 2374   9.949   7.454   7.356
  172POPC   C2B 2375   9.891   7.575   6.947
  172POPC   C3B 2376   9.931   7.418   6.545
  172POPC   C4B 2377  10.062   7.433   6.142
  173POPC   NC3 2378   8.749   2.566   8.089
  173POPC   PO4 2379   8.227   3.029   8.060
  173POPC   GL1 2380   8.568   2.913   7.742
  173POPC   GL2 2381   8.449   2.632   7.543
  173POPC   C1A 2382   8.731   2.966   7.302
  173POPC   D2A 2383   8.470   2.740   6.980
  173POPC   C3A 2384   8.461   2.915   6.559
  173POPC   C4A 2385   8.784   2.911   6.208
  173POPC   C1B 2386   8.777   2.428   7.276
  173POPC   C2B 2387   8.946   2.558   6.867
  173POPC   C3B 2388   8.728   2.481   6.485
  173POPC   C4B 2389   8.342   2.472   6.228
  174POPC   NC3 2390   6.393   0.669   4.063
  174POPC   PO4 2391   6.815   0.178   3.977
  174POPC   GL1 2392   6.566   0.287   4.345
  174POPC   GL2 2393   6.219   0.174   4.259
  174POPC   C1A 2394   6.677   0.519   4.753
  174POPC   D2A 2395   6.804   0.287   5.139
  174POPC   C3A 2396   6.598   0.443   5.459
  174POPC   C4A 2397   6.606   0.206   5.799
  174POPC   C1B 2398   6.192   0.391   4.659
  174POPC   C2B 2399   6.289   0.284   5.065
  174POPC   C3B 2400   6.103   0.415   5.460
  174POPC   C4B 2401   6.307   0.637   5.857
  175POPC   NC3 2402   5.618   2.155   3.894
  175POPC   PO4 2403   6.096   1.555   3.830
  175POPC   GL1 2404   6.102   1.708   4.272
  175POPC   GL2 2405   5.744   1.811   4.282
  175POPC   C1A 2406   5.978   1.736   4.741
  175POPC   D2A 2407   5.663   1.813   5.079
  175POPC   C3A 2408   5.808   1.971   5.479
  175POPC   C4A 2409   5.880   1.689   5.807
  175POPC   C1B 2410   5.648   2.100   4.629
  175POPC   C2B 2411   5.331   2.170   4.935
  175POPC   C3B 2412   5.320   2.197   5.338
  175POPC   C4B 2413   5.408   2.192   5.745
  176POPC   NC3 2414  10.456   9.508   3.913
  176POPC   PO4 2415   0.537   9.832   3.732
  176POPC   GL1 2416   0.550   9.586   4.118
  176POPC   GL2 2417   0.390   9.264   4.068
  176POPC   C1A 2418   0.754   9.620   4.523
  176POPC   D2A 2419   0.881   9.622   4.950
  176POPC   C3A 2420   0.660   9.393   5.208
  176POPC   C4A 2421   0.646   9.374   5.625
  176POPC   C1B 2422   0.234   9.267   4.515
  176POPC   C2B 2423   0.163   9.381   4.964
  176POPC   C3B 2424   0.211   9.214   5.370
  176POPC   C4B 2425   0.147   9.339   5.780
  177POPC   NC3 2426   3.546   0.940   3.779
  177POPC   PO4 2427   3.277   0.304   3.903
  177POPC   GL1 2428   3.419   0.457   4.257
  177POPC   GL2 2429   3.659   0.215   4.310
  177POPC   C1A 2430   3.538   0.554   4.696
  177POPC   D2A 2431   3.676   0.493   5.113
  177POPC   C3A 2432   3.651   0.765   5.465
  177POPC   C4A 2433   3.564   0.546   5.874
  177POPC   C1B 2434   3.321   0.104   4.615
  177POPC   C2B 2435   3.232   0.241   5.034
  177POPC   C3B 2436   3.239   0.463   5.428
  177POPC   C4B 2437   3.099   0.324   5.828
  178POPC   NC3 2438   2.933   4.323   3.973
  178POPC   PO4 2439   2.358   4.116   4.033
  178POPC   GL1 2440   2.615   4.179   4.372
  178POPC   GL2 2441   2.975   4.122   4.430
  178POPC   C1A 2442   2.641   4.278   4.793
  178POPC   D2A 2443   2.445   4.116   5.127
  178POPC   C3A 2444   2.579   4.321   5.495
  178POPC   C4A 2445   2.911   4.567   5.696
  178POPC   C1B 2446   2.978   3.834   4.770
  178POPC   C2B 2447   2.931   3.935   5.167
  178POPC   C3B 2448   3.058   4.093   5.569
  178POPC   C4B 2449   3.345   4.212   5.889
  179POPC   NC3 2450   9.537   8.062   3.558
  179POPC   PO4 2451   8.960   7.995   3.890
  179POPC   GL1 2452   9.109   8.139   4.304
  179POPC   GL2 2453   9.432   8.008   4.379
  179POPC   C1A 2454   9.114   7.961   4.744
  179POPC   D2A 2455   9.441   7.969   5.047
  179POPC   C3A 2456   9.216   7.887   5.405
  179POPC   C4A 2457   9.496   7.943   5.689
  179POPC   C1B 2458   9.603   7.671   4.641
  179POPC   C2B 2459   9.908   7.634   4.954
  179POPC   C3B 2460   9.858   7.668   5.367
  179POPC   C4B 2461   9.784   7.521   5.731
  180POPC   NC3 2462   9.410   6.492   3.881
  180POPC   PO4 2463   9.949   6.929   3.950
  180POPC   GL1 2464   9.752   6.650   4.273
  180POPC   GL2 2465   9.387   6.581   4.366
  180POPC   C1A 2466   9.697   6.616   4.736
  180POPC   D2A 2467   9.664   6.363   5.138
  180POPC   C3A 2468   9.690   6.599   5.558
  180POPC   C4A 2469   9.492   6.644   5.991
  180POPC   C1B 2470   9.316   6.283   4.766
  180POPC   C2B 2471   9.156   6.239   5.166
  180POPC   C3B 2472   9.203   6.394   5.548
  180POPC   C4B 2473   9.215   6.221   5.947
  181POPC   NC3 2474   3.129   7.375   4.076
  181POPC   PO4 2475   3.779   7.527   3.898
  181POPC   GL1 2476   3.703   7.366   4.344
  181POPC   GL2 2477   3.345   7.339   4.523
  181POPC   C1A 2478   3.737   7.408   4.829
  181POPC   D2A 2479   3.406   7.262   5.076
  181POPC   C3A 2480   3.500   7.318   5.489
  181POPC   C4A 2481   3.701   7.038   5.728
  181POPC   C1B 2482   3.088   7.000   4.774
  181POPC   C2B 2483   3.111   6.840   5.216
  181POPC   C3B 2484   3.058   7.036   5.622
  181POPC   C4B 2485   3.043   7.479   5.681
  182POPC   NC3 2486   9.653   9.952   3.854
  182POPC   PO4 2487   9.058   9.755   4.165
  182POPC   GL1 2488   9.108  10.054   4.431
  182POPC   GL2 2489   9.352  10.211   4.200
  182POPC   C1A 2490   9.178   9.953   4.881
  182POPC   D2A 2491   9.482   9.933   5.219
  182POPC   C3A 2492   9.442   9.963   5.680
  182POPC   C4A 2493   9.257  10.105   6.108
  182POPC   C1B 2494   9.540  10.334   4.576
  182POPC   C2B 2495   9.503  10.413   4.998
  182POPC   C3B 2496   9.668  10.383   5.409
  182POPC   C4B 2497   9.494  10.457   5.818
  183POPC   NC3 2498   9.485   2.613   3.610
  183POPC   PO4 2499   9.712   2.683   4.156
  183POPC   GL1 2500   9.384   2.747   4.314
  183POPC   GL2 2501   9.152   2.874   4.093
  183POPC   C1A 2502   9.358   2.647   4.706
  183POPC   D2A 2503   9.563   2.504   5.030
  183POPC   C3A 2504   9.485   2.747   5.379
  183POPC   C4A 2505   9.606   2.573   5.764
  183POPC   C1B 2506   9.050   3.009   4.549
  183POPC   C2B 2507   9.257   3.064   4.967
  183POPC   C3B 2508   9.043   3.028   5.342
  183POPC   C4B 2509   9.123   2.823   5.740
  184POPC   NC3 2510   8.835   7.595   4.068
  184POPC   PO4 2511   8.421   8.123   4.167
  184POPC   GL1 2512   8.632   8.196   4.484
  184POPC   GL2 2513   8.707   7.838   4.479
  184POPC   C1A 2514   8.651   8.106   4.895
  184POPC   D2A 2515   8.586   7.878   5.257
  184POPC   C3A 2516   8.550   8.124   5.608
  184POPC   C4A 2517   8.948   8.161   5.767
  184POPC   C1B 2518   8.700   7.587   4.819
  184POPC   C2B 2519   8.493   7.390   5.133
  184POPC   C3B 2520   8.455   7.436   5.568
  184POPC   C4B 2521   8.775   7.686   5.743
  185POPC   NC3 2522   4.701   0.554   3.819
  185POPC   PO4 2523   5.315   0.166   3.903
  185POPC   GL1 2524   5.116   0.329   4.265
  185POPC   GL2 2525   4.803   0.303   4.230
  185POPC   C1A 2526   5.216   0.568   4.664
  185POPC   D2A 2527   5.033   0.655   5.055
  185POPC   C3A 2528   5.048   0.392   5.378
  185POPC   C4A 2529   5.049   0.557   5.758
  185POPC   C1B 2530   4.731   0.441   4.629
  185POPC   C2B 2531   4.588   0.385   5.057
  185POPC   C3B 2532   4.601   0.169   5.474
  185POPC   C4B 2533   4.675   0.174   5.938
  186POPC   NC3 2534   5.729  10.455   3.838
  186POPC   PO4 2535   5.331  10.045   3.581
  186POPC   GL1 2536   5.424  10.236   4.160
  186POPC   GL2 2537   5.737  10.175   4.291
  186POPC   C1A 2538   5.398  10.082   4.639
  186POPC   D2A 2539   5.606  10.092   5.027
  186POPC   C3A 2540   5.355  10.261   5.356
  186POPC   C4A 2541   5.380  10.178   5.779
  186POPC   C1B 2542   5.836  10.428   4.667
  186POPC   C2B 2543   5.861   0.027   5.118
  186POPC   C3B 2544   5.823  10.338   5.531
  186POPC   C4B 2545   5.852  10.168   5.973
  187POPC   NC3 2546  10.410   7.922   4.025
  187POPC   PO4 2547   9.929   8.222   3.786
  187POPC   GL1 2548   9.937   8.125   4.223
  187POPC   GL2 2549   9.978   7.762   4.300
  187POPC   C1A 2550   9.836   8.122   4.655
  187POPC   D2A 2551  10.054   8.137   4.996
  187POPC   C3A 2552   9.846   8.161   5.332
  187POPC   C4A 2553   9.881   8.247   5.733
  187POPC   C1B 2554  10.286   7.792   4.640
  187POPC   C2B 2555  10.489   7.851   5.025
  187POPC   C3B 2556  10.309   7.907   5.405
  187POPC   C4B 2557  10.202   7.803   5.804
  188POPC   NC3 2558   2.843   1.582   3.930
  188POPC   PO4 2559   2.696   0.963   3.808
  188POPC   GL1 2560   2.606   1.196   4.140
  188POPC   GL2 2561   2.967   1.145   4.250
  188POPC   C1A 2562   2.536   1.187   4.548
  188POPC   D2A 2563   2.739   0.971   4.862
  188POPC   C3A 2564   2.428   0.827   5.164
  188POPC   C4A 2565   2.375   0.990   5.590
  188POPC   C1B 2566   3.011   1.414   4.603
  188POPC   C2B 2567   2.944   1.433   5.039
  188POPC   C3B 2568   2.780   1.168   5.348
  188POPC   C4B 2569   2.794   1.247   5.794
  189POPC   NC3 2570   5.640   8.849   3.874
  189POPC   PO4 2571   6.158   8.333   3.865
  189POPC   GL1 2572   5.818   8.417   4.193
  189POPC   GL2 2573   5.734   8.744   4.350
  189POPC   C1A 2574   5.827   8.355   4.648
  189POPC   D2A 2575   6.019   8.423   5.040
  189POPC   C3A 2576   5.784   8.174   5.323
  189POPC   C4A 2577   5.599   8.300   5.675
  189POPC   C1B 2578   5.556   9.010   4.686
  189POPC   C2B 2579   5.713   9.036   5.087
  189POPC   C3B 2580   5.607   8.842   5.457
  189POPC   C4B 2581   5.634   8.996   5.864
  190POPC   NC3 2582   7.354   1.242   3.894
  190POPC   PO4 2583   6.784   0.832   3.877
  190POPC   GL1 2584   7.029   0.970   4.210
  190POPC   GL2 2585   7.036   1.281   4.286
  190POPC   C1A 2586   6.996   0.933   4.673
  190POPC   D2A 2587   7.032   1.125   5.108
  190POPC   C3A 2588   6.912   0.846   5.460
  190POPC   C4A 2589   7.121   0.836   5.914
  190POPC   C1B 2590   7.208   1.395   4.690
  190POPC   C2B 2591   7.075   1.644   4.971
  190POPC   C3B 2592   7.052   1.631   5.376
  190POPC   C4B 2593   7.104   1.269   5.632
  191POPC   NC3 2594   5.860   7.964   3.946
  191POPC   PO4 2595   5.231   8.085   3.952
  191POPC   GL1 2596   5.461   8.082   4.335
  191POPC   GL2 2597   5.780   7.890   4.433
  191POPC   C1A 2598   5.396   8.058   4.759
  191POPC   D2A 2599   5.114   8.201   5.042
  191POPC   C3A 2600   5.183   7.948   5.375
  191POPC   C4A 2601   5.473   7.781   5.665
  191POPC   C1B 2602   5.863   7.892   4.888
  191POPC   C2B 2603   5.755   7.643   5.250
  191POPC   C3B 2604   5.955   7.653   5.650
  191POPC   C4B 2605   6.076   8.089   5.757
  192POPC   NC3 2606   8.073   4.206   3.594
  192POPC   PO4 2607   7.898   4.780   4.025
  192POPC   GL1 2608   7.902   4.487   4.457
  192POPC   GL2 2609   8.052   4.085   4.498
  192POPC   C1A 2610   7.927   4.365   4.893
  192POPC   D2A 2611   8.166   4.059   5.064
  192POPC   C3A 2612   8.072   4.114   5.476
  192POPC   C4A 2613   7.843   4.257   5.847
  192POPC   C1B 2614   7.756   3.891   4.789
  192POPC   C2B 2615   7.716   3.856   5.212
  192POPC   C3B 2616   7.667   3.816   5.643
  192POPC   C4B 2617   7.629   3.740   6.105
  193POPC   NC3 2618   0.344   0.538   3.669
  193POPC   PO4 2619  10.098   0.436   3.788
  193POPC   GL1 2620   9.986   0.241   4.211
  193POPC   GL2 2621  10.169   0.531   4.304
  193POPC   C1A 2622  10.120  10.487   4.601
  193POPC   D2A 2623  10.311   0.041   5.008
  193POPC   C3A 2624  10.228   0.274   5.382
  193POPC   C4A 2625  10.087   0.143   5.781
  193POPC   C1B 2626   9.926   0.430   4.688
  193POPC   C2B 2627   9.770   0.334   5.111
  193POPC   C3B 2628   9.707   0.363   5.561
  193POPC   C4B 2629   9.840   0.568   5.936
  194POPC   NC3 2630   7.267   8.604   3.986
  194POPC   PO4 2631   6.811   9.006   3.681
  194POPC   GL1 2632   6.915   8.883   4.225
  194POPC   GL2 2633   7.242   8.727   4.466
  194POPC   C1A 2634   6.832   8.819   4.702
  194POPC   D2A 2635   7.167   8.771   5.038
  194POPC   C3A 2636   7.080   8.575   5.471
  194POPC   C4A 2637   6.845   8.691   5.831
  194POPC   C1B 2638   7.517   8.416   4.689
  194POPC   C2B 2639   7.755   8.463   5.049
  194POPC   C3B 2640   7.606   8.466   5.451
  194POPC   C4B 2641   7.496   8.775   5.743
  195POPC   NC3 2642   3.821   9.567   3.981
  195POPC   PO4 2643   4.440   9.683   3.854
  195POPC   GL1 2644   4.380   9.297   4.167
  195POPC   GL2 2645   4.083   9.166   4.277
  195POPC   C1A 2646   4.445   9.085   4.625
  195POPC   D2A 2647   4.325   9.236   5.079
  195POPC   C3A 2648   4.503   9.182   5.507
  195POPC   C4A 2649   4.394   9.213   5.962
  195POPC   C1B 2650   4.006   9.378   4.689
  195POPC   C2B 2651   4.046   9.660   5.096
  195POPC   C3B 2652   4.123   9.560   5.533
  195POPC   C4B 2653   3.994   9.147   5.665
  196POPC   NC3 2654   8.778   0.389   3.858
  196POPC   PO4 2655   9.167   0.961   3.946
  196POPC   GL1 2656   9.121   0.653   4.264
  196POPC   GL2 2657   8.975   0.324   4.313
  196POPC   C1A 2658   9.128   0.778   4.671
  196POPC   D2A 2659   8.929   0.856   5.030
  196POPC   C3A 2660   8.976   0.682   5.404
  196POPC   C4A 2661   8.599   0.606   5.592
  196POPC   C1B 2662   8.728   0.455   4.664
  196POPC   C2B 2663   8.679   0.365   5.097
  196POPC   C3B 2664   8.784   0.150   5.460
  196POPC   C4B 2665   8.598   0.170   5.856
  197POPC   NC3 2666  10.110   2.845   3.982
  197POPC   PO4 2667   9.785   2.291   3.729
  197POPC   GL1 2668   9.958   2.265   4.155
  197POPC   GL2 2669  10.180   2.505   4.350
  197POPC   C1A 2670   9.851   2.283   4.648
  197POPC   D2A 2671  10.057   2.594   4.927
  197POPC   C3A 2672   9.965   2.561   5.373
  197POPC   C4A 2673  10.073   2.807   5.743
  197POPC   C1B 2674  10.354   2.871   4.580
  197POPC   C2B 2675  10.388   3.016   4.994
  197POPC   C3B 2676  10.462   2.778   5.354
  197POPC   C4B 2677   0.079   2.917   5.742
  198POPC   NC3 2678   8.367   3.519   3.772
  198POPC   PO4 2679   8.977   3.258   3.797
  198POPC   GL1 2680   8.891   3.366   4.208
  198POPC   GL2 2681   8.672   3.666   4.184
  198POPC   C1A 2682   8.724   3.379   4.639
  198POPC   D2A 2683   8.505   3.211   5.011
  198POPC   C3A 2684   8.594   3.345   5.399
  198POPC   C4A 2685   8.845   3.249   5.760
  198POPC   C1B 2686   8.458   3.808   4.592
  198POPC   C2B 2687   8.561   3.744   5.003
  198POPC   C3B 2688   8.546   3.890   5.392
  198POPC   C4B 2689   8.594   3.692   5.771
  199POPC   NC3 2690   7.972   7.166   3.800
  199POPC   PO4 2691   8.632   7.210   3.896
  199POPC   GL1 2692   8.296   7.343   4.230
  199POPC   GL2 2693   7.955   7.272   4.299
  199POPC   C1A 2694   8.259   7.240   4.708
  199POPC   D2A 2695   7.964   7.072   5.069
  199POPC   C3A 2696   7.957   7.297   5.466
  199POPC   C4A 2697   8.063   7.276   5.910
  199POPC   C1B 2698   7.732   7.323   4.687
  199POPC   C2B 2699   7.548   7.465   5.086
  199POPC   C3B 2700   7.319   7.435   5.472
  199POPC   C4B 2701   7.570   7.306   5.814
  200POPC   NC3 2702   0.420   7.792   3.799
  200POPC   PO4 2703   0.098   8.346   3.956
  200POPC   GL1 2704   0.355   8.055   4.237
  200POPC   GL2 2705   0.284   7.709   4.276
  200POPC   C1A 2706   0.357   8.096   4.692
  200POPC   D2A 2707   0.502   7.992   5.121
  200POPC   C3A 2708   0.247   8.187   5.390
  200POPC   C4A 2709   0.056   8.172   5.777
  200POPC   C1B 2710   0.284   7.597   4.662
  200POPC   C2B 2711   0.340   7.484   5.075
  200POPC   C3B 2712   0.275   7.674   5.478
  200POPC   C4B 2713   0.582   7.970   5.691
  201POPC   NC3 2714   7.361   7.192   3.797
  201POPC   PO4 2715   7.744   6.752   3.936
  201POPC   GL1 2716   7.524   7.023   4.262
  201POPC   GL2 2717   7.437   7.400   4.267
  201POPC   C1A 2718   7.365   6.918   4.661
  201POPC   D2A 2719   7.435   6.754   5.073
  201POPC   C3A 2720   7.542   6.959   5.445
  201POPC   C4A 2721   7.343   6.862   5.865
  201POPC   C1B 2722   7.220   7.394   4.653
  201POPC   C2B 2723   7.128   7.184   5.049
  201POPC   C3B 2724   7.015   7.018   5.467
  201POPC   C4B 2725   7.008   7.250   5.852
  202POPC   NC3 2726   8.861  10.187   3.962
  202POPC   PO4 2727   8.390   9.689   3.872
  202POPC   GL1 2728   8.571   9.948   4.296
  202POPC   GL2 2729   8.616  10.355   4.372
  202POPC   C1A 2730   8.674  10.033   4.751
  202POPC   D2A 2731   8.497  10.376   5.033
  202POPC   C3A 2732   8.471  10.225   5.475
  202POPC   C4A 2733   8.501   9.833   5.745
  202POPC   C1B 2734   8.946  10.470   4.667
  202POPC   C2B 2735   9.004  10.387   5.079
  202POPC   C3B 2736   9.148  10.303   5.462
  202POPC   C4B 2737   8.874  10.225   5.800
  203POPC   NC3 2738   9.516   5.729   3.636
  203POPC   PO4 2739   9.572   6.155   4.168
  203POPC   GL1 2740   9.636   5.859   4.434
  203POPC   GL2 2741   9.512   5.570   4.292
  203POPC   C1A 2742   9.708   5.901   4.832
  203POPC   D2A 2743   9.520   5.855   5.194
  203POPC   C3A 2744   9.600   6.069   5.535
  203POPC   C4A 2745   9.722   6.190   5.906
  203POPC   C1B 2746   9.268   5.545   4.685
  203POPC   C2B 2747   9.414   5.375   5.075
  203POPC   C3B 2748   9.329   5.475   5.489
  203POPC   C4B 2749   9.394   5.721   5.834
  204POPC   NC3 2750   6.432   1.925   3.916
  204POPC   PO4 2751   6.059   2.435   3.864
  204POPC   GL1 2752   6.098   2.220   4.271
  204POPC   GL2 2753   6.445   2.098   4.373
  204POPC   C1A 2754   6.143   2.274   4.735
  204POPC   D2A 2755   6.160   2.044   5.106
  204POPC   C3A 2756   6.249   2.245   5.465
  204POPC   C4A 2757   6.176   2.092   5.854
  204POPC   C1B 2758   6.451   1.854   4.719
  204POPC   C2B 2759   6.609   1.801   5.139
  204POPC   C3B 2760   6.476   1.779   5.566
  204POPC   C4B 2761   6.768   1.587   5.845
  205POPC   NC3 2762   1.857   3.338   3.759
  205POPC   PO4 2763   1.559   2.803   3.758
  205POPC   GL1 2764   1.686   3.074   4.176
  205POPC   GL2 2765   1.602   3.446   4.261
  205POPC   C1A 2766   1.644   3.155   4.662
  205POPC   D2A 2767   1.827   3.017   5.061
  205POPC   C3A 2768   1.816   3.270   5.412
  205POPC   C4A 2769   2.191   3.146   5.618
  205POPC   C1B 2770   1.929   3.563   4.661
  205POPC   C2B 2771   2.003   3.779   5.084
  205POPC   C3B 2772   2.127   3.656   5.503
  205POPC   C4B 2773   1.985   3.518   5.912
  206POPC   NC3 2774   6.305   3.531   3.911
  206POPC   PO4 2775   6.754   3.847   3.930
  206POPC   GL1 2776   6.661   3.647   4.318
  206POPC   GL2 2777   6.374   3.445   4.397
  206POPC   C1A 2778   6.558   3.717   4.774
  206POPC   D2A 2779   6.554   3.494   5.155
  206POPC   C3A 2780   6.547   3.715   5.603
  206POPC   C4A 2781   6.503   3.866   6.071
  206POPC   C1B 2782   6.210   3.294   4.779
  206POPC   C2B 2783   6.175   3.153   5.213
  206POPC   C3B 2784   6.449   3.217   5.571
  206POPC   C4B 2785   6.264   3.428   5.908
  207POPC   NC3 2786   9.835   7.397   3.897
  207POPC   PO4 2787   0.050   7.505   3.853
  207POPC   GL1 2788  10.367   7.424   4.267
  207POPC   GL2 2789  10.287   7.105   4.275
  207POPC   C1A 2790  10.409   7.282   4.725
  207POPC   D2A 2791  10.354   7.093   5.108
  207POPC   C3A 2792  10.291   7.389   5.432
  207POPC   C4A 2793  10.454   7.352   5.828
  207POPC   C1B 2794   9.923   7.259   4.552
  207POPC   C2B 2795   9.709   7.150   4.949
  207POPC   C3B 2796   9.844   7.126   5.377
  207POPC   C4B 2797  10.029   7.075   5.781
  208POPC   NC3 2798   0.126  10.061   3.654
  208POPC   PO4 2799   0.425   0.117   3.876
  208POPC   GL1 2800   0.277  10.379   4.219
  208POPC   GL2 2801   0.311  10.044   4.158
  208POPC   C1A 2802   0.182  10.482   4.648
  208POPC   D2A 2803   0.428  10.450   5.018
  208POPC   C3A 2804   0.419  10.221   5.417
  208POPC   C4A 2805   0.264  10.238   5.823
  208POPC   C1B 2806   0.471  10.059   4.606
  208POPC   C2B 2807   0.426   9.841   5.005
  208POPC   C3B 2808   0.251   9.725   5.420
  208POPC   C4B 2809   0.406   9.759   5.848
  209POPC   NC3 2810   4.032   0.390   3.931
  209POPC   PO4 2811   4.374   0.838   3.673
  209POPC   GL1 2812   4.366   0.659   4.192
  209POPC   GL2 2813   4.304   0.318   4.359
  209POPC   C1A 2814   4.326   0.734   4.665
  209POPC   D2A 2815   4.132   0.704   5.092
  209POPC   C3A 2816   4.345   0.626   5.446
  209POPC   C4A 2817   4.324   0.516   5.843
  209POPC   C1B 2818   4.028   0.300   4.736
  209POPC   C2B 2819   4.116   0.196   5.186
  209POPC   C3B 2820   3.925   0.341   5.568
  209POPC   C4B 2821   3.951   0.215   6.011
  210POPC   NC3 2822   1.920   8.209   3.809
  210POPC   PO4 2823   2.001   7.509   3.708
  210POPC   GL1 2824   2.087   7.667   4.161
  210POPC   GL2 2825   2.052   8.028   4.280
  210POPC   C1A 2826   2.281   7.613   4.591
  210POPC   D2A 2827   2.442   7.743   5.011
  210POPC   C3A 2828   2.262   7.615   5.403
  210POPC   C4A 2829   2.114   7.534   5.818
  210POPC   C1B 2830   1.971   7.991   4.732
  210POPC   C2B 2831   2.045   8.019   5.165
  210POPC   C3B 2832   1.819   7.865   5.502
  210POPC   C4B 2833   1.676   7.824   5.926
  211POPC   NC3 2834   1.742   9.708   3.993
  211POPC   PO4 2835   2.024  10.322   3.812
  211POPC   GL1 2836   1.891  10.196   4.191
  211POPC   GL2 2837   1.527  10.260   4.174
  211POPC   C1A 2838   2.068  10.206   4.615
  211POPC   D2A 2839   2.183  10.379   5.037
  211POPC   C3A 2840   2.063  10.138   5.403
  211POPC   C4A 2841   1.873  10.289   5.754
  211POPC   C1B 2842   1.513  10.188   4.614
  211POPC   C2B 2843   1.739  10.089   4.991
  211POPC   C3B 2844   1.561  10.160   5.387
  211POPC   C4B 2845   1.707   9.823   5.682
  212POPC   NC3 2846   2.381   5.713   3.733
  212POPC   PO4 2847   1.758   5.361   3.703
  212POPC   GL1 2848   1.816   5.435   4.172
  212POPC   GL2 2849   1.492   5.404   4.327
  212POPC   C1A 2850   1.975   5.569   4.630
  212POPC   D2A 2851   2.167   5.855   4.990
  212POPC   C3A 2852   2.331   5.775   5.422
  212POPC   C4A 2853   2.189   5.629   5.829
  212POPC   C1B 2854   1.492   5.742   4.646
  212POPC   C2B 2855   1.690   5.744   5.059
  212POPC   C3B 2856   1.822   5.579   5.488
  212POPC   C4B 2857   1.727   5.815   5.846
  213POPC   NC3 2858   3.093   9.456   3.953
  213POPC   PO4 2859   3.751   9.121   3.901
  213POPC   GL1 2860   3.585   9.267   4.325
  213POPC   GL2 2861   3.575   9.637   4.413
  213POPC   C1A 2862   3.552   9.136   4.752
  213POPC   D2A 2863   3.811   9.116   5.110
  213POPC   C3A 2864   3.653   9.409   5.379
  213POPC   C4A 2865   3.508   9.392   5.808
  213POPC   C1B 2866   3.225   9.517   4.665
  213POPC   C2B 2867   3.204   9.371   5.094
  213POPC   C3B 2868   3.169   9.557   5.486
  213POPC   C4B 2869   3.082   9.814   5.848
  214POPC   NC3 2870   1.690   7.179   3.686
  214POPC   PO4 2871   2.135   6.764   3.933
  214POPC   GL1 2872   1.912   6.932   4.257
  214POPC   GL2 2873   1.764   7.256   4.194
  214POPC   C1A 2874   2.073   7.134   4.636
  214POPC   D2A 2875   2.306   7.252   5.008
  214POPC   C3A 2876   2.209   7.100   5.427
  214POPC   C4A 2877   2.077   7.020   5.856
  214POPC   C1B 2878   1.753   7.540   4.575
  214POPC   C2B 2879   1.868   7.552   5.039
  214POPC   C3B 2880   1.758   7.356   5.469
  214POPC   C4B 2881   1.642   7.303   5.920
  215POPC   NC3 2882   1.754   6.453   3.996
  215POPC   PO4 2883   2.380   6.144   3.893
  215POPC   GL1 2884   2.126   6.168   4.237
  215POPC   GL2 2885   2.185   6.484   4.338
  215POPC   C1A 2886   1.902   6.094   4.625
  215POPC   D2A 2887   1.825   6.276   5.040
  215POPC   C3A 2888   1.890   6.073   5.415
  215POPC   C4A 2889   2.103   6.128   5.777
  215POPC   C1B 2890   1.975   6.622   4.682
  215POPC   C2B 2891   2.121   6.721   5.093
  215POPC   C3B 2892   2.087   6.599   5.543
  215POPC   C4B 2893   1.705   6.457   5.748
  216POPC   NC3 2894   4.634   2.113   4.106
  216POPC   PO4 2895   5.262   1.850   4.007
  216POPC   GL1 2896   5.234   1.992   4.382
  216POPC   GL2 2897   4.914   2.057   4.526
  216POPC   C1A 2898   5.253   1.720   4.742
  216POPC   D2A 2899   4.971   1.826   5.037
  216POPC   C3A 2900   5.072   1.769   5.422
  216POPC   C4A 2901   5.442   1.638   5.553
  216POPC   C1B 2902   4.814   2.346   4.858
  216POPC   C2B 2903   4.798   2.453   5.294
  216POPC   C3B 2904   4.893   2.200   5.629
  216POPC   C4B 2905   4.660   1.836   5.833
  217POPC   NC3 2906   7.889  10.016   3.795
  217POPC   PO4 2907   7.576   0.223   3.852
  217POPC   GL1 2908   7.778   0.210   4.261
  217POPC   GL2 2909   8.072  10.487   4.232
  217POPC   C1A 2910   7.752   0.064   4.695
  217POPC   D2A 2911   7.980  10.432   5.065
  217POPC   C3A 2912   7.704  10.367   5.402
  217POPC   C4A 2913   7.570  10.469   5.804
  217POPC   C1B 2914   8.178  10.219   4.605
  217POPC   C2B 2915   8.212   9.935   4.956
  217POPC   C3B 2916   8.117   9.843   5.357
  217POPC   C4B 2917   8.026  10.090   5.706
  218POPC   NC3 2918   4.981   7.693   3.932
  218POPC   PO4 2919   4.601   7.971   4.234
  218POPC   GL1 2920   4.966   7.890   4.436
  218POPC   GL2 2921   4.970   8.230   4.513
  218POPC   C1A 2922   4.993   7.735   4.885
  218POPC   D2A 2923   4.735   7.605   5.259
  218POPC   C3A 2924   4.956   7.515   5.668
  218POPC   C4A 2925   4.823   7.376   6.124
  218POPC   C1B 2926   4.647   8.120   4.848
  218POPC   C2B 2927   4.592   8.098   5.273
  218POPC   C3B 2928   4.817   8.261   5.562
  218POPC   C4B 2929   5.155   8.143   5.842
  219POPC   NC3 2930   2.776   8.511   3.908
  219POPC   PO4 2931   3.151   9.058   4.186
  219POPC   GL1 2932   3.037   8.656   4.318
  219POPC   GL2 2933   2.690   8.708   4.366
  219POPC   C1A 2934   2.931   8.348   4.636
  219POPC   D2A 2935   2.950   8.517   5.036
  219POPC   C3A 2936   2.942   8.377   5.407
  219POPC   C4A 2937   2.961   8.701   5.706
  219POPC   C1B 2938   2.564   8.711   4.805
  219POPC   C2B 2939   2.324   8.830   5.150
  219POPC   C3B 2940   2.473   8.664   5.520
  219POPC   C4B 2941   2.555   8.421   5.866
  220POPC   NC3 2942   6.387   7.207   4.023
  220POPC   PO4 2943   6.995   7.414   3.960
  220POPC   GL1 2944   6.798   7.422   4.358
  220POPC   GL2 2945   6.814   7.087   4.484
  220POPC   C1A 2946   6.739   7.483   4.820
  220POPC   D2A 2947   6.639   7.197   5.163
  220POPC   C3A 2948   6.568   7.309   5.576
  220POPC   C4A 2949   6.470   7.168   5.994
  220POPC   C1B 2950   6.397   7.078   4.731
  220POPC   C2B 2951   6.158   7.035   5.144
  220POPC   C3B 2952   6.231   6.905   5.575
  220POPC   C4B 2953   5.987   6.955   5.940
  221POPC   NC3 2954   0.955   4.552   3.858
  221POPC   PO4 2955   1.160   5.220   3.945
  221POPC   GL1 2956   1.194   4.977   4.286
  221POPC   GL2 2957   1.057   4.662   4.335
  221POPC   C1A 2958   1.373   4.975   4.667
  221POPC   D2A 2959   1.514   5.291   4.913
  221POPC   C3A 2960   1.477   5.217   5.339
  221POPC   C4A 2961   1.543   4.980   5.732
  221POPC   C1B 2962   0.883   4.802   4.707
  221POPC   C2B 2963   1.044   5.019   5.055
  221POPC   C3B 2964   1.150   4.821   5.436
  221POPC   C4B 2965   1.037   5.077   5.784
  222POPC   NC3 2966   2.911   0.589   3.940
  222POPC   PO4 2967   2.293   0.262   4.077
  222POPC   GL1 2968   2.584   0.317   4.396
  222POPC   GL2 2969   2.942   0.258   4.304
  222POPC   C1A 2970   2.438   0.272   4.815
  222POPC   D2A 2971   2.397   0.311   5.239
  222POPC   C3A 2972   2.329   0.052   5.546
  222POPC   C4A 2973   2.432   0.319   5.864
  222POPC   C1B 2974   2.993   0.529   4.672
  222POPC   C2B 2975   2.832   0.523   5.101
  222POPC   C3B 2976   2.766   0.652   5.533
  222POPC   C4B 2977   2.762   0.681   5.982
  223POPC   NC3 2978   8.416   5.754   3.949
  223POPC   PO4 2979   9.172   5.652   3.947
  223POPC   GL1 2980   8.820   5.606   4.252
  223POPC   GL2 2981   8.675   5.928   4.379
  223POPC   C1A 2982   8.717   5.490   4.673
  223POPC   D2A 2983   8.911   5.278   5.015
  223POPC   C3A 2984   8.831   5.324   5.436
  223POPC   C4A 2985   8.795   5.438   5.836
  223POPC   C1B 2986   8.858   5.980   4.806
  223POPC   C2B 2987   9.033   5.748   5.141
  223POPC   C3B 2988   8.975   5.866   5.565
  223POPC   C4B 2989   8.585   5.953   5.779
  224POPC   NC3 2990   3.348  10.345   3.913
  224POPC   PO4 2991   2.800   9.925   3.870
  224POPC   GL1 2992   3.139   9.874   4.241
  224POPC   GL2 2993   3.413  10.135   4.367
  224POPC   C1A 2994   3.067  10.003   4.684
  224POPC   D2A 2995   3.218  10.239   5.017
  224POPC   C3A 2996   3.239  10.081   5.426
  224POPC   C4A 2997   3.229  10.302   5.819
  224POPC   C1B 2998   3.715  10.314   4.634
  224POPC   C2B 2999   3.677  10.489   5.023
  224POPC   C3B 3000   3.528   0.026   5.451
  224POPC   C4B 3001   3.728  10.318   5.818
  225POPC   NC3 3002   6.696  10.225   3.929
  225POPC   PO4 3003   6.040  10.042   3.902
  225POPC   GL1 3004   6.245  10.161   4.309
  225POPC   GL2 3005   6.585  10.288   4.400
  225POPC   C1A 3006   6.271  10.203   4.772
  225POPC   D2A 3007   6.147  10.096   5.169
  225POPC   C3A 3008   6.334  10.429   5.441
  225POPC   C4A 3009   6.141   0.059   5.836
  225POPC   C1B 3010   6.788  10.145   4.765
  225POPC   C2B 3011   6.667  10.109   5.166
  225POPC   C3B 3012   6.701   9.907   5.543
  225POPC   C4B 3013   6.630  10.209   5.838
  226POPC   NC3 3014   6.535   8.702   3.923
  226POPC   PO4 3015   6.909   8.173   3.962
  226POPC   GL1 3016   6.682   8.408   4.339
  226POPC   GL2 3017   6.309   8.504   4.337
  226POPC   C1A 3018   6.529   8.444   4.802
  226POPC   D2A 3019   6.660   8.658   5.180
  226POPC   C3A 3020   6.416   8.508   5.525
  226POPC   C4A 3021   6.350   8.448   5.998
  226POPC   C1B 3022   6.142   8.777   4.666
  226POPC   C2B 3023   6.239   8.937   5.073
  226POPC   C3B 3024   6.080   9.034   5.485
  226POPC   C4B 3025   5.975   8.644   5.732
  227POPC   NC3 3026   7.142   1.867   3.845
  227POPC   PO4 3027   6.714   2.360   3.959
  227POPC   GL1 3028   6.948   2.163   4.305
  227POPC   GL2 3029   6.968   1.810   4.363
  227POPC   C1A 3030   6.885   2.066   4.767
  227POPC   D2A 3031   7.073   2.135   5.121
  227POPC   C3A 3032   6.862   2.099   5.525
  227POPC   C4A 3033   7.055   2.214   5.910
  227POPC   C1B 3034   7.356   1.987   4.669
  227POPC   C2B 3035   7.546   1.894   5.071
  227POPC   C3B 3036   7.411   2.036   5.474
  227POPC   C4B 3037   7.265   1.772   5.809
  228POPC   NC3 3038   9.396   1.339   3.847
  228POPC   PO4 3039  10.035   1.451   3.856
  228POPC   GL1 3040   9.771   1.461   4.223
  228POPC   GL2 3041   9.655   1.128   4.246
  228POPC   C1A 3042   9.848   1.332   4.688
  228POPC   D2A 3043   9.835   1.073   5.071
  228POPC   C3A 3044   9.725   1.178   5.473
  228POPC   C4A 3045   9.777   1.524   5.722
  228POPC   C1B 3046   9.352   1.239   4.523
  228POPC   C2B 3047   9.326   1.207   4.954
  228POPC   C3B 3048   9.239   1.163   5.378
  228POPC   C4B 3049   9.307   1.325   5.837
  229POPC   NC3 3050   9.288   5.171   4.012
  229POPC   PO4 3051   9.857   5.236   3.895
  229POPC   GL1 3052   9.723   5.057   4.314
  229POPC   GL2 3053   9.519   4.754   4.287
  229POPC   C1A 3054   9.731   4.855   4.743
  229POPC   D2A 3055   9.676   4.753   5.190
  229POPC   C3A 3056   9.714   5.118   5.442
  229POPC   C4A 3057   9.616   5.241   5.873
  229POPC   C1B 3058   9.236   4.985   4.601
  229POPC   C2B 3059   9.245   4.917   4.961
  229POPC   C3B 3060   9.219   4.971   5.351
  229POPC   C4B 3061   9.175   5.060   5.731
  230POPC   NC3 3062   7.113   0.512   3.796
  230POPC   PO4 3063   7.682   0.814   3.978
  230POPC   GL1 3064   7.397   0.579   4.251
  230POPC   GL2 3065   7.018   0.491   4.326
  230POPC   C1A 3066   7.338   0.520   4.691
  230POPC   D2A 3067   7.172   0.628   5.077
  230POPC   C3A 3068   7.416   0.749   5.442
  230POPC   C4A 3069   7.514   0.515   5.819
  230POPC   C1B 3070   6.991   0.133   4.687
  230POPC   C2B 3071   7.292   0.106   5.031
  230POPC   C3B 3072   7.333   0.235   5.418
  230POPC   C4B 3073   7.049   0.405   5.676
  231POPC   NC3 3074   1.934   4.304   4.006
  231POPC   PO4 3075   1.961   3.681   4.017
  231POPC   GL1 3076   1.997   3.946   4.356
  231POPC   GL2 3077   1.637   3.983   4.311
  231POPC   C1A 3078   2.127   4.241   4.699
  231POPC   D2A 3079   2.098   4.485   5.103
  231POPC   C3A 3080   2.079   4.181   5.462
  231POPC   C4A 3081   2.281   3.994   5.837
  231POPC   C1B 3082   1.673   3.996   4.764
  231POPC   C2B 3083   1.639   4.294   5.104
  231POPC   C3B 3084   1.623   4.357   5.574
  231POPC   C4B 3085   1.753   3.956   5.782
  232POPC   NC3 3086   2.243   7.211   3.943
  232POPC   PO4 3087   2.783   7.505   3.810
  232POPC   GL1 3088   2.642   7.313   4.228
  232POPC   GL2 3089   2.492   6.953   4.287
  232POPC   C1A 3090   2.684   7.294   4.659
  232POPC   D2A 3091   2.898   7.451   5.011
  232POPC   C3A 3092   2.685   7.319   5.360
  232POPC   C4A 3093   2.555   7.254   5.765
  232POPC   C1B 3094   2.475   6.811   4.709
  232POPC   C2B 3095   2.610   6.858   5.148
  232POPC   C3B 3096   2.591   6.774   5.615
  232POPC   C4B 3097   2.504   6.875   6.090
  233POPC   NC3 3098   4.008   1.337   3.927
  233POPC   PO4 3099   3.288   1.303   3.883
  233POPC   GL1 3100   3.585   1.233   4.198
  233POPC   GL2 3101   3.551   0.936   4.308
  233POPC   C1A 3102   3.663   1.368   4.601
  233POPC   D2A 3103   3.462   1.385   5.013
  233POPC   C3A 3104   3.679   1.430   5.430
  233POPC   C4A 3105   3.627   1.233   5.807
  233POPC   C1B 3106   3.287   0.994   4.650
  233POPC   C2B 3107   3.228   0.878   5.063
  233POPC   C3B 3108   3.267   1.094   5.435
  233POPC   C4B 3109   3.198   0.879   5.793
  234POPC   NC3 3110   2.074   8.781   3.708
  234POPC   PO4 3111   2.184   8.782   4.347
  234POPC   GL1 3112   1.852   8.789   4.579
  234POPC   GL2 3113   1.732   8.434   4.565
  234POPC   C1A 3114   1.834   8.980   4.962
  234POPC   D2A 3115   1.770   8.949   5.362
  234POPC   C3A 3116   2.135   9.073   5.593
  234POPC   C4A 3117   2.214   8.813   5.934
  234POPC   C1B 3118   2.011   8.471   4.936
  234POPC   C2B 3119   1.997   8.482   5.387
  234POPC   C3B 3120   1.875   8.426   5.815
  234POPC   C4B 3121   2.164   8.375   6.204
  235POPC   NC3 3122   6.844   2.781   4.121
  235POPC   PO4 3123   7.413   3.096   3.875
  235POPC   GL1 3124   7.358   2.891   4.257
  235POPC   GL2 3125   7.321   2.532   4.211
  235POPC   C1A 3126   7.260   2.974   4.678
  235POPC   D2A 3127   7.457   2.929   5.066
  235POPC   C3A 3128   7.270   2.998   5.469
  235POPC   C4A 3129   7.366   2.938   5.902
  235POPC   C1B 3130   7.156   2.478   4.648
  235POPC   C2B 3131   7.022   2.645   5.038
  235POPC   C3B 3132   7.127   2.520   5.458
  235POPC   C4B 3133   6.950   2.696   5.831
  236POPC   NC3 3134   7.127   3.606   3.824
  236POPC   PO4 3135   7.752   3.798   3.907
  236POPC   GL1 3136   7.402   3.520   4.214
  236POPC   GL2 3137   7.050   3.298   4.214
  236POPC   C1A 3138   7.339   3.477   4.630
  236POPC   D2A 3139   7.592   3.408   4.969
  236POPC   C3A 3140   7.427   3.463   5.343
  236POPC   C4A 3141   7.368   3.428   5.766
  236POPC   C1B 3142   6.837   3.268   4.628
  236POPC   C2B 3143   7.021   3.250   5.049
  236POPC   C3B 3144   6.941   3.403   5.466
  236POPC   C4B 3145   6.906   3.201   5.823
  237POPC   NC3 3146   2.415   3.647   4.007
  237POPC   PO4 3147   3.041   3.861   3.973
  237POPC   GL1 3148   2.790   3.660   4.338
  237POPC   GL2 3149   2.679   3.313   4.304
  237POPC   C1A 3150   2.472   3.788   4.692
  237POPC   D2A 3151   2.491   3.623   5.131
  237POPC   C3A 3152   2.621   3.800   5.530
  237POPC   C4A 3153   2.849   3.786   5.915
  237POPC   C1B 3154   2.556   3.284   4.743
  237POPC   C2B 3155   2.413   3.134   5.146
  237POPC   C3B 3156   2.652   3.294   5.516
  237POPC   C4B 3157   2.487   3.436   5.914
  238POPC   NC3 3158   9.641   0.448   3.768
  238POPC   PO4 3159   9.147   0.065   3.875
  238POPC   GL1 3160   9.470   0.234   4.202
  238POPC   GL2 3161   9.633   0.608   4.255
  238POPC   C1A 3162   9.423   0.335   4.638
  238POPC   D2A 3163   9.157   0.360   4.953
  238POPC   C3A 3164   9.280   0.270   5.330
  238POPC   C4A 3165   9.167   0.342   5.748
  238POPC   C1B 3166   9.622   0.825   4.687
  238POPC   C2B 3167   9.451   0.741   5.140
  238POPC   C3B 3168   9.438   0.772   5.613
  238POPC   C4B 3169   9.308   0.734   6.040
  239POPC   NC3 3170   8.543   8.536   3.994
  239POPC   PO4 3171   9.189   8.774   4.027
  239POPC   GL1 3172   8.984   8.687   4.423
  239POPC   GL2 3173   8.645   8.708   4.460
  239POPC   C1A 3174   8.926   8.590   4.862
  239POPC   D2A 3175   9.028   8.321   5.187
  239POPC   C3A 3176   8.974   8.606   5.532
  239POPC   C4A 3177   8.862   8.796   5.931
  239POPC   C1B 3178   8.401   8.577   4.798
  239POPC   C2B 3179   8.526   8.465   5.208
  239POPC   C3B 3180   8.465   8.630   5.564
  239POPC   C4B 3181   8.375   8.932   5.796
  240POPC   NC3 3182   1.834   0.208   3.970
  240POPC   PO4 3183   1.786   0.879   3.800
  240POPC   GL1 3184   2.001   0.664   4.165
  240POPC   GL2 3185   1.753   0.556   4.384
  240POPC   C1A 3186   2.215   0.690   4.610
  240POPC   D2A 3187   1.988   0.527   5.007
  240POPC   C3A 3188   2.061   0.603   5.461
  240POPC   C4A 3189   2.121   0.719   5.919
  240POPC   C1B 3190   1.889   0.192   4.635
  240POPC   C2B 3191   1.670   0.088   5.002
  240POPC   C3B 3192   1.845   0.142   5.383
  240POPC   C4B 3193   1.924   0.268   5.812
  241POPC   NC3 3194   4.270   3.632   3.924
  241POPC   PO4 3195   4.693   3.254   3.929
  241POPC   GL1 3196   4.473   3.323   4.312
  241POPC   GL2 3197   4.154   3.189   4.362
  241POPC   C1A 3198   4.368   3.423   4.760
  241POPC   D2A 3199   4.410   3.302   5.202
  241POPC   C3A 3200   4.352   3.656   5.529
  241POPC   C4A 3201   4.312   3.956   5.904
  241POPC   C1B 3202   4.031   3.019   4.735
  241POPC   C2B 3203   3.861   3.082   5.149
  241POPC   C3B 3204   4.028   3.241   5.518
  241POPC   C4B 3205   3.913   3.529   5.788
  242POPC   NC3 3206   0.345   8.756   3.964
  242POPC   PO4 3207   0.721   8.164   3.846
  242POPC   GL1 3208   0.752   8.398   4.279
  242POPC   GL2 3209   0.420   8.522   4.402
  242POPC   C1A 3210   0.807   8.767   4.604
  242POPC   D2A 3211   0.563   8.947   4.989
  242POPC   C3A 3212   0.659   8.861   5.462
  242POPC   C4A 3213   0.497   8.480   5.730
  242POPC   C1B 3214   0.099   8.764   4.594
  242POPC   C2B 3215   0.041   8.883   4.999
  242POPC   C3B 3216   0.192   8.703   5.352
  242POPC   C4B 3217   0.158   8.846   5.749
  243POPC   NC3 3218   1.245   2.591   4.016
  243POPC   PO4 3219   1.357   3.310   3.796
  243POPC   GL1 3220   1.178   3.109   4.172
  243POPC   GL2 3221   1.082   3.414   4.301
  243POPC   C1A 3222   1.161   3.015   4.625
  243POPC   D2A 3223   0.886   3.214   4.940
  243POPC   C3A 3224   0.911   3.132   5.365
  243POPC   C4A 3225   0.921   3.218   5.791
  243POPC   C1B 3226   1.310   3.567   4.668
  243POPC   C2B 3227   1.363   3.393   5.080
  243POPC   C3B 3228   1.242   3.480   5.498
  243POPC   C4B 3229   1.496   3.446   5.815
  244POPC   NC3 3230   6.034   2.821   4.113
  244POPC   PO4 3231   5.480   2.814   3.854
  244POPC   GL1 3232   5.510   2.835   4.292
  244POPC   GL2 3233   5.655   2.496   4.286
  244POPC   C1A 3234   5.448   2.990   4.754
  244POPC   D2A 3235   5.704   2.870   5.166
  244POPC   C3A 3236   5.712   2.987   5.604
  244POPC   C4A 3237   5.470   3.163   5.945
  244POPC   C1B 3238   5.747   2.584   4.732
  244POPC   C2B 3239   5.762   2.364   5.135
  244POPC   C3B 3240   5.800   2.475   5.585
  244POPC   C4B 3241   6.042   2.557   5.987
  245POPC   NC3 3242   0.202   4.506   3.948
  245POPC   PO4 3243   0.721   4.910   3.691
  245POPC   GL1 3244   0.700   5.001   4.160
  245POPC   GL2 3245   0.529   4.752   4.344
  245POPC   C1A 3246   0.613   5.202   4.579
  245POPC   D2A 3247   0.500   5.048   5.002
  245POPC   C3A 3248   0.663   4.978   5.415
  245POPC   C4A 3249   0.650   4.655   5.702
  245POPC   C1B 3250   0.169   4.906   4.648
  245POPC   C2B 3251   0.050   4.775   5.071
  245POPC   C3B 3252   0.167   4.783   5.507
  245POPC   C4B 3253   0.207   5.072   5.846
  246POPC   NC3 3254   4.324  10.131   3.894
  246POPC   PO4 3255   3.641   9.988   3.943
  246POPC   GL1 3256   3.944  10.041   4.242
  246POPC   GL2 3257   4.041  10.395   4.222
  246POPC   C1A 3258   3.968   9.880   4.639
  246POPC   D2A 3259   3.606   9.893   4.922
  246POPC   C3A 3260   3.757  10.060   5.315
  246POPC   C4A 3261   3.661   9.840   5.661
  246POPC   C1B 3262   4.217  10.326   4.631
  246POPC   C2B 3263   4.400  10.047   4.956
  246POPC   C3B 3264   4.300  10.054   5.395
  246POPC   C4B 3265   4.197  10.420   5.648
  247POPC   NC3 3266   6.229   9.604   3.997
  247POPC   PO4 3267   6.811   9.817   4.081
  247POPC   GL1 3268   6.519   9.760   4.436
  247POPC   GL2 3269   6.280   9.478   4.486
  247POPC   C1A 3270   6.444   9.737   4.889
  247POPC   D2A 3271   6.360   9.421   5.181
  247POPC   C3A 3272   6.237   9.593   5.531
  247POPC   C4A 3273   6.201  10.001   5.666
  247POPC   C1B 3274   6.600   9.266   4.739
  247POPC   C2B 3275   6.797   9.160   5.140
  247POPC   C3B 3276   6.685   9.279   5.586
  247POPC   C4B 3277   6.655   9.288   6.065
  248POPC   NC3 3278   0.803   6.998   4.111
  248POPC   PO4 3279   1.474   6.855   3.939
  248POPC   GL1 3280   1.299   7.020   4.309
  248POPC   GL2 3281   1.149   7.367   4.308
  248POPC   C1A 3282   1.149   7.033   4.730
  248POPC   D2A 3283   1.267   6.978   5.149
  248POPC   C3A 3284   0.908   6.931   5.377
  248POPC   C4A 3285   0.889   7.025   5.789
  248POPC   C1B 3286   1.237   7.542   4.740
  248POPC   C2B 3287   1.358   7.588   5.179
  248POPC   C3B 3288   1.230   7.338   5.536
  248POPC   C4B 3289   1.374   6.905   5.693
  249POPC   NC3 3290   4.105   7.211   3.950
  249POPC   PO4 3291   4.618   7.474   3.771
  249POPC   GL1 3292   4.510   7.466   4.229
  249POPC   GL2 3293   4.211   7.318   4.424
  249POPC   C1A 3294   4.593   7.463   4.705
  249POPC   D2A 3295   4.448   7.142   4.997
  249POPC   C3A 3296   4.322   7.274   5.371
  249POPC   C4A 3297   4.504   7.274   5.755
  249POPC   C1B 3298   4.028   7.012   4.731
  249POPC   C2B 3299   3.895   7.053   5.191
  249POPC   C3B 3300   4.133   6.831   5.526
  249POPC   C4B 3301   4.561   6.759   5.697
  250POPC   NC3 3302   4.806   8.308   3.988
  250POPC   PO4 3303   4.736   8.953   3.975
  250POPC   GL1 3304   4.919   8.714   4.307
  250POPC   GL2 3305   5.246   8.551   4.182
  250POPC   C1A 3306   4.892   8.753   4.757
  250POPC   D2A 3307   4.802   8.579   5.146
  250POPC   C3A 3308   4.811   8.776   5.584
  250POPC   C4A 3309   4.772   8.884   6.054
  250POPC   C1B 3310   5.346   8.545   4.619
  250POPC   C2B 3311   5.490   8.547   5.042
  250POPC   C3B 3312   5.231   8.521   5.426
  250POPC   C4B 3313   5.220   8.647   5.868
  251POPC   NC3 3314   7.750   5.114   4.335
  251POPC   PO4 3315   8.253   5.286   3.997
  251POPC   GL1 3316   8.261   5.158   4.374
  251POPC   GL2 3317   8.273   4.833   4.394
  251POPC   C1A 3318   8.192   5.309   4.778
  251POPC   D2A 3319   7.909   5.099   5.098
  251POPC   C3A 3320   7.883   5.218   5.514
  251POPC   C4A 3321   7.914   5.294   5.926
  251POPC   C1B 3322   8.132   4.808   4.761
  251POPC   C2B 3323   8.257   4.692   5.116
  251POPC   C3B 3324   8.008   4.630   5.458
  251POPC   C4B 3325   7.892   4.777   5.839
  252POPC   NC3 3326   7.710   9.033   3.750
  252POPC   PO4 3327   8.175   8.582   3.688
  252POPC   GL1 3328   7.974   8.740   4.098
  252POPC   GL2 3329   8.161   8.547   4.315
  252POPC   C1A 3330   7.835   8.789   4.590
  252POPC   D2A 3331   8.027   9.004   4.965
  252POPC   C3A 3332   7.987   8.876   5.414
  252POPC   C4A 3333   7.891   9.066   5.862
  252POPC   C1B 3334   8.020   8.278   4.642
  252POPC   C2B 3335   8.146   8.118   5.027
  252POPC   C3B 3336   8.093   8.313   5.426
  252POPC   C4B 3337   8.002   8.560   5.810
  253POPC   NC3 3338   8.796   1.296   4.014
  253POPC   PO4 3339   8.387   0.740   3.840
  253POPC   GL1 3340   8.403   1.051   4.231
  253POPC   GL2 3341   8.682   0.912   4.406
  253POPC   C1A 3342   8.390   1.368   4.625
  253POPC   D2A 3343   8.440   1.679   4.983
  253POPC   C3A 3344   8.406   1.482   5.427
  253POPC   C4A 3345   8.428   1.079   5.699
  253POPC   C1B 3346   8.871   1.241   4.688
  253POPC   C2B 3347   8.823   1.352   5.124
  253POPC   C3B 3348   8.874   1.411   5.580
  253POPC   C4B 3349   8.918   1.012   5.837
  254POPC   NC3 3350   1.393   5.617   3.848
  254POPC   PO4 3351   0.763   5.857   3.737
  254POPC   GL1 3352   0.952   5.959   4.130
  254POPC   GL2 3353   0.990   5.607   4.228
  254POPC   C1A 3354   1.052   6.004   4.582
  254POPC   D2A 3355   0.809   6.021   4.986
  254POPC   C3A 3356   0.960   6.002   5.385
  254POPC   C4A 3357   0.958   5.736   5.764
  254POPC   C1B 3358   1.072   5.424   4.641
  254POPC   C2B 3359   1.131   5.611   5.048
  254POPC   C3B 3360   1.350   5.711   5.425
  254POPC   C4B 3361   1.384   5.465   5.777
  255POPC   NC3 3362   7.228   9.602   3.952
  255POPC   PO4 3363   7.419   9.023   4.095
  255POPC   GL1 3364   7.241   9.299   4.367
  255POPC   GL2 3365   6.898   9.387   4.328
  255POPC   C1A 3366   7.147   9.213   4.755
  255POPC   D2A 3367   7.316   9.318   5.108
  255POPC   C3A 3368   7.197   9.085   5.456
  255POPC   C4A 3369   7.096   9.125   5.859
  255POPC   C1B 3370   6.935   9.661   4.693
  255POPC   C2B 3371   6.927   9.666   5.111
  255POPC   C3B 3372   7.119   9.596   5.495
  255POPC   C4B 3373   6.982   9.630   5.912
  256POPC   NC3 3374   0.424   3.745   4.117
  256POPC   PO4 3375   0.722   3.223   3.920
  256POPC   GL1 3376   0.456   3.238   4.270
  256POPC   GL2 3377   0.618   3.447   4.478
  256POPC   C1A 3378   0.210   3.239   4.643
  256POPC   D2A 3379   0.385   3.474   5.007
  256POPC   C3A 3380   0.222   3.331   5.402
  256POPC   C4A 3381   0.429   3.265   5.782
  256POPC   C1B 3382   0.812   3.690   4.753
  256POPC   C2B 3383   0.907   3.664   5.163
  256POPC   C3B 3384   0.700   3.594   5.490
  256POPC   C4B 3385   0.814   3.713   5.882
  257POPC   NC3 3386   7.243   0.087   4.129
  257POPC   PO4 3387   7.448  10.013   3.961
  257POPC   GL1 3388   7.277   9.861   4.367
  257POPC   GL2 3389   7.078  10.154   4.349
  257POPC   C1A 3390   7.429   9.719   4.787
  257POPC   D2A 3391   7.694   9.968   5.064
  257POPC   C3A 3392   7.596   9.848   5.486
  257POPC   C4A 3393   7.257  10.028   5.747
  257POPC   C1B 3394   7.308  10.202   4.743
  257POPC   C2B 3395   7.201  10.116   5.192
  257POPC   C3B 3396   6.968  10.385   5.489
  257POPC   C4B 3397   7.076  10.471   5.918
  258POPC   NC3 3398   0.197   3.770   3.628
  258POPC   PO4 3399   0.707   4.100   3.950
  258POPC   GL1 3400   0.484   4.221   4.332
  258POPC   GL2 3401   0.172   4.406   4.453
  258POPC   C1A 3402   0.367   4.000   4.704
  258POPC   D2A 3403   0.543   4.006   5.079
  258POPC   C3A 3404   0.273   3.858   5.362
  258POPC   C4A 3405   0.300   3.744   5.783
  258POPC   C1B 3406   0.460   4.514   4.811
  258POPC   C2B 3407   0.732   4.485   5.182
  258POPC   C3B 3408   0.706   4.157   5.540
  258POPC   C4B 3409   0.312   4.249   5.710
  259POPC   NC3 3410   9.163   7.356   3.715
  259POPC   PO4 3411   9.602   7.801   3.967
  259POPC   GL1 3412   9.353   7.482   4.192
  259POPC   GL2 3413   9.480   7.122   4.259
  259POPC   C1A 3414   9.169   7.432   4.600
  259POPC   D2A 3415   9.182   7.531   5.013
  259POPC   C3A 3416   9.419   7.407   5.357
  259POPC   C4A 3417   9.262   7.515   5.777
  259POPC   C1B 3418   9.310   6.959   4.680
  259POPC   C2B 3419   9.327   6.745   5.091
  259POPC   C3B 3420   9.287   6.918   5.506
  259POPC   C4B 3421   9.534   7.093   5.779
  260POPC   NC3 3422   2.762   2.572   3.848
  260POPC   PO4 3423   2.297   3.139   3.887
  260POPC   GL1 3424   2.450   2.843   4.230
  260POPC   GL2 3425   2.573   2.501   4.313
  260POPC   C1A 3426   2.511   2.782   4.709
  260POPC   D2A 3427   2.835   2.877   5.006
  260POPC   C3A 3428   2.668   2.790   5.419
  260POPC   C4A 3429   2.606   2.891   5.846
  260POPC   C1B 3430   2.951   2.508   4.584
  260POPC   C2B 3431   3.244   2.491   4.923
  260POPC   C3B 3432   3.106   2.540   5.328
  260POPC   C4B 3433   2.949   2.513   5.748
  261POPC   NC3 3434   8.892   4.351   3.884
  261POPC   PO4 3435   9.520   3.962   3.922
  261POPC   GL1 3436   9.472   4.184   4.294
  261POPC   GL2 3437   9.174   4.351   4.323
  261POPC   C1A 3438   9.417   3.972   4.695
  261POPC   D2A 3439   9.466   3.735   5.082
  261POPC   C3A 3440   9.391   3.989   5.436
  261POPC   C4A 3441   9.503   3.988   5.847
  261POPC   C1B 3442   9.351   4.483   4.715
  261POPC   C2B 3443   9.202   4.476   5.168
  261POPC   C3B 3444   9.348   4.527   5.602
  261POPC   C4B 3445   9.623   4.461   5.969
  262POPC   NC3 3446   5.066   2.989   3.891
  262POPC   PO4 3447   4.526   2.515   3.883
  262POPC   GL1 3448   4.781   2.601   4.280
  262POPC   GL2 3449   5.117   2.480   4.172
  262POPC   C1A 3450   4.905   2.862   4.691
  262POPC   D2A 3451   4.789   2.952   5.154
  262POPC   C3A 3452   4.843   2.917   5.620
  262POPC   C4A 3453   4.954   3.226   5.973
  262POPC   C1B 3454   5.248   2.510   4.595
  262POPC   C2B 3455   5.233   2.650   5.068
  262POPC   C3B 3456   5.293   2.669   5.538
  262POPC   C4B 3457   5.065   2.582   5.946
  263POPC   NC3 3458   0.247   6.076   3.900
  263POPC   PO4 3459   0.620   6.683   3.848
  263POPC   GL1 3460   0.577   6.362   4.165
  263POPC   GL2 3461   0.235   6.356   4.309
  263POPC   C1A 3462   0.590   6.229   4.597
  263POPC   D2A 3463   0.508   6.481   4.964
  263POPC   C3A 3464   0.559   6.299   5.363
  263POPC   C4A 3465   0.669   6.145   5.768
  263POPC   C1B 3466   0.068   6.331   4.718
  263POPC   C2B 3467  10.470   6.552   5.051
  263POPC   C3B 3468   0.192   6.637   5.382
  263POPC   C4B 3469   0.344   6.516   5.783
  264POPC   NC3 3470   0.610   1.491   3.812
  264POPC   PO4 3471   0.858   0.850   3.737
  264POPC   GL1 3472   0.657   1.069   4.117
  264POPC   GL2 3473   0.352   1.267   4.186
  264POPC   C1A 3474   0.651   1.184   4.591
  264POPC   D2A 3475   0.583   1.003   4.989
  264POPC   C3A 3476   0.647   1.114   5.400
  264POPC   C4A 3477   0.757   1.009   5.789
  264POPC   C1B 3478   0.139   1.113   4.574
  264POPC   C2B 3479   0.109   0.874   4.942
  264POPC   C3B 3480   0.058   0.839   5.398
  264POPC   C4B 3481   0.228   1.115   5.713
  265POPC   NC3 3482   6.499   8.008   3.817
  265POPC   PO4 3483   6.075   7.548   3.962
  265POPC   GL1 3484   6.323   7.653   4.306
  265POPC   GL2 3485   6.601   7.899   4.310
  265POPC   C1A 3486   6.250   7.583   4.744
  265POPC   D2A 3487   6.255   7.535   5.190
  265POPC   C3A 3488   6.423   7.806   5.492
  265POPC   C4A 3489   6.390   7.669   5.900
  265POPC   C1B 3490   6.263   8.068   4.585
  265POPC   C2B 3491   6.348   8.026   5.030
  265POPC   C3B 3492   6.725   8.154   5.266
  265POPC   C4B 3493   6.774   8.206   5.724
  266POPC   NC3 3494   8.048   1.072   3.855
  266POPC   PO4 3495   7.647   1.562   3.691
  266POPC   GL1 3496   7.777   1.337   4.168
  266POPC   GL2 3497   7.511   1.105   4.361
  266POPC   C1A 3498   7.977   1.097   4.523
  266POPC   D2A 3499   8.118   0.923   4.899
  266POPC   C3A 3500   7.841   0.965   5.243
  266POPC   C4A 3501   7.971   1.230   5.582
  266POPC   C1B 3502   7.527   1.007   4.816
  266POPC   C2B 3503   7.495   1.362   5.120
  266POPC   C3B 3504   7.541   1.462   5.530
  266POPC   C4B 3505   7.551   1.084   5.827
  267POPC   NC3 3506   0.704   5.359   3.808
  267POPC   PO4 3507   0.199   4.958   4.024
  267POPC   GL1 3508   0.289   5.340   4.197
  267POPC   GL2 3509   0.456   5.667   4.141
  267POPC   C1A 3510   0.168   5.465   4.618
  267POPC   D2A 3511   0.041   5.305   5.016
  267POPC   C3A 3512   0.277   5.306   5.394
  267POPC   C4A 3513   0.576   5.399   5.750
  267POPC   C1B 3514   0.617   5.713   4.579
  267POPC   C2B 3515   0.502   5.603   5.029
  267POPC   C3B 3516   0.382   5.815   5.452
  267POPC   C4B 3517   0.194   6.004   5.850
  268POPC   NC3 3518   9.137   6.037   4.204
  268POPC   PO4 3519   8.583   6.212   3.867
  268POPC   GL1 3520   8.669   6.414   4.220
  268POPC   GL2 3521   8.950   6.512   4.117
  268POPC   C1A 3522   8.521   6.343   4.638
  268POPC   D2A 3523   8.416   6.269   5.042
  268POPC   C3A 3524   8.662   6.259   5.386
  268POPC   C4A 3525   8.470   6.454   5.760
  268POPC   C1B 3526   8.951   6.601   4.603
  268POPC   C2B 3527   8.823   6.605   5.035
  268POPC   C3B 3528   8.822   6.736   5.485
  268POPC   C4B 3529   8.980   6.684   5.910
  269POPC   NC3 3530   5.584   9.847   3.895
  269POPC   PO4 3531   5.887   9.250   3.972
  269POPC   GL1 3532   5.819   9.629   4.286
  269POPC   GL2 3533   5.480   9.679   4.355
  269POPC   C1A 3534   5.912   9.846   4.677
  269POPC   D2A 3535   5.892   9.646   5.101
  269POPC   C3A 3536   5.719   9.849   5.471
  269POPC   C4A 3537   5.847   9.689   5.860
  269POPC   C1B 3538   5.476   9.571   4.774
  269POPC   C2B 3539   5.403   9.444   5.172
  269POPC   C3B 3540   5.638   9.356   5.509
  269POPC   C4B 3541   5.404   9.468   5.868
  270POPC   NC3 3542   4.346   2.952   3.937
  270POPC   PO4 3543   3.938   2.408   4.004
  270POPC   GL1 3544   4.226   2.399   4.277
  270POPC   GL2 3545   4.268   2.695   4.364
  270POPC   C1A 3546   4.229   2.235   4.662
  270POPC   D2A 3547   4.325   2.275   5.071
  270POPC   C3A 3548   3.984   2.284   5.309
  270POPC   C4A 3549   3.944   2.420   5.680
  270POPC   C1B 3550   4.428   2.696   4.778
  270POPC   C2B 3551   4.292   2.769   5.209
  270POPC   C3B 3552   4.327   2.850   5.653
  270POPC   C4B 3553   4.440   3.269   5.854
  271POPC   NC3 3554   3.459   2.170   3.995
  271POPC   PO4 3555   3.953   1.744   3.710
  271POPC   GL1 3556   3.679   1.731   4.185
  271POPC   GL2 3557   3.296   1.661   4.270
  271POPC   C1A 3558   3.523   1.835   4.674
  271POPC   D2A 3559   3.629   2.006   5.086
  271POPC   C3A 3560   3.479   1.882   5.475
  271POPC   C4A 3561   3.215   1.547   5.695
  271POPC   C1B 3562   3.036   1.924   4.645
  271POPC   C2B 3563   3.090   2.017   5.088
  271POPC   C3B 3564   3.027   2.067   5.527
  271POPC   C4B 3565   3.246   1.995   5.930
  272POPC   NC3 3566   7.808   3.340   3.988
  272POPC   PO4 3567   8.258   3.941   3.925
  272POPC   GL1 3568   8.163   3.601   4.235
  272POPC   GL2 3569   7.855   3.592   4.416
  272POPC   C1A 3570   8.227   3.327   4.603
  272POPC   D2A 3571   8.082   3.529   4.984
  272POPC   C3A 3572   8.136   3.601   5.425
  272POPC   C4A 3573   8.119   3.804   5.863
  272POPC   C1B 3574   7.757   3.136   4.578
  272POPC   C2B 3575   7.955   3.001   4.957
  272POPC   C3B 3576   7.828   3.145   5.372
  272POPC   C4B 3577   7.871   3.359   5.776
  273POPC   NC3 3578   2.240   0.985   3.834
  273POPC   PO4 3579   2.366   1.690   3.877
  273POPC   GL1 3580   2.148   1.459   4.231
  273POPC   GL2 3581   1.993   1.146   4.271
  273POPC   C1A 3582   2.107   1.418   4.691
  273POPC   D2A 3583   2.381   1.325   5.038
  273POPC   C3A 3584   2.190   1.433   5.391
  273POPC   C4A 3585   2.293   1.450   5.802
  273POPC   C1B 3586   1.821   0.990   4.692
  273POPC   C2B 3587   1.954   1.028   5.129
  273POPC   C3B 3588   1.859   1.040   5.569
  273POPC   C4B 3589   1.749   1.389   5.687
  274POPC   NC3 3590   7.232   7.811   3.988
  274POPC   PO4 3591   7.641   8.354   4.029
  274POPC   GL1 3592   7.270   8.206   4.315
  274POPC   GL2 3593   7.261   7.875   4.492
  274POPC   C1A 3594   7.022   8.274   4.709
  274POPC   D2A 3595   7.243   8.273   5.096
  274POPC   C3A 3596   7.193   8.017   5.434
  274POPC   C4A 3597   7.313   8.199   5.768
  274POPC   C1B 3598   7.159   7.794   4.953
  274POPC   C2B 3599   6.881   7.637   5.294
  274POPC   C3B 3600   6.869   7.716   5.746
  274POPC   C4B 3601   6.790   7.565   6.206
  275POPC   NC3 3602   4.223   2.130   3.759
  275POPC   PO4 3603   4.580   1.646   4.086
  275POPC   GL1 3604   4.448   1.782   4.441
  275POPC   GL2 3605   4.152   1.898   4.262
  275POPC   C1A 3606   4.501   1.845   4.866
  275POPC   D2A 3607   4.567   1.897   5.324
  275POPC   C3A 3608   4.395   2.207   5.589
  275POPC   C4A 3609   4.193   2.094   5.970
  275POPC   C1B 3610   4.016   1.763   4.705
  275POPC   C2B 3611   4.077   1.750   5.155
  275POPC   C3B 3612   3.984   1.852   5.574
  275POPC   C4B 3613   3.715   1.744   5.915
  276POPC   NC3 3614   2.427   9.130   4.177
  276POPC   PO4 3615   1.915   9.330   3.757
  276POPC   GL1 3616   1.925   9.254   4.226
  276POPC   GL2 3617   1.617   9.089   4.239
  276POPC   C1A 3618   2.090   9.336   4.698
  276POPC   D2A 3619   2.325   9.350   5.107
  276POPC   C3A 3620   2.140   9.598   5.448
  276POPC   C4A 3621   2.084   9.577   5.882
  276POPC   C1B 3622   1.579   9.265   4.617
  276POPC   C2B 3623   1.686   9.519   4.963
  276POPC   C3B 3624   1.630   9.441   5.366
  276POPC   C4B 3625   1.685   9.267   5.754
  277POPC   NC3 3626   5.016   1.488   4.178
  277POPC   PO4 3627   5.006   0.907   3.794
  277POPC   GL1 3628   4.805   0.867   4.229
  277POPC   GL2 3629   4.608   1.189   4.335
  277POPC   C1A 3630   4.813   0.929   4.698
  277POPC   D2A 3631   4.590   0.920   5.070
  277POPC   C3A 3632   4.782   0.880   5.463
  277POPC   C4A 3633   4.499   1.021   5.795
  277POPC   C1B 3634   4.790   1.430   4.749
  277POPC   C2B 3635   4.952   1.299   5.149
  277POPC   C3B 3636   4.838   1.363   5.584
  277POPC   C4B 3637   5.068   1.546   5.891
  278POPC   NC3 3638   0.808   0.552   4.095
  278POPC   PO4 3639   0.195   0.822   3.990
  278POPC   GL1 3640   0.370   0.690   4.369
  278POPC   GL2 3641   0.199   0.388   4.304
  278POPC   C1A 3642   0.526   0.393   4.704
  278POPC   D2A 3643   0.722   0.361   5.110
  278POPC   C3A 3644   0.552   0.628   5.364
  278POPC   C4A 3645   0.428   0.596   5.753
  278POPC   C1B 3646  10.475   0.445   4.696
  278POPC   C2B 3647   0.167   0.399   5.097
  278POPC   C3B 3648   0.261   0.198   5.465
  278POPC   C4B 3649   0.089   0.217   5.856
  279POPC   NC3 3650   0.444   2.295   3.934
  279POPC   PO4 3651   0.675   1.720   4.195
  279POPC   GL1 3652   0.344   1.770   4.411
  279POPC   GL2 3653   0.460   2.144   4.419
  279POPC   C1A 3654   0.326   1.532   4.813
  279POPC   D2A 3655   0.248   1.360   5.228
  279POPC   C3A 3656   0.484   1.541   5.605
  279POPC   C4A 3657   0.211   1.650   5.948
  279POPC   C1B 3658   0.533   2.013   4.815
  279POPC   C2B 3659   0.439   1.862   5.185
  279POPC   C3B 3660   0.224   1.969   5.509
  279POPC   C4B 3661   0.483   2.030   5.816
  280POPC   NC3 3662   9.833   4.338   3.919
  280POPC   PO4 3663   0.018   3.975   3.994
  280POPC   GL1 3664  10.256   4.158   4.264
  280POPC   GL2 3665   9.954   4.012   4.330
  280POPC   C1A 3666  10.315   4.144   4.706
  280POPC   D2A 3667   0.076   4.244   5.059
  280POPC   C3A 3668  10.365   4.189   5.443
  280POPC   C4A 3669  10.373   4.473   5.797
  280POPC   C1B 3670   9.826   4.295   4.653
  280POPC   C2B 3671   9.637   4.258   5.063
  280POPC   C3B 3672   9.794   4.307   5.463
  280POPC   C4B 3673   9.989   4.146   5.787
  281POPC   NC3 3674   2.561   6.564   3.936
  281POPC   PO4 3675   2.997   6.939   4.107
  281POPC   GL1 3676   2.841   6.592   4.387
  281POPC   GL2 3677   2.645   6.263   4.356
  281POPC   C1A 3678   2.875   6.508   4.823
  281POPC   D2A 3679   2.816   6.395   5.234
  281POPC   C3A 3680   3.035   6.485   5.612
  281POPC   C4A 3681   2.975   6.681   6.002
  281POPC   C1B 3682   2.383   6.296   4.771
  281POPC   C2B 3683   2.329   6.275   5.235
  281POPC   C3B 3684   2.548   6.264   5.636
  281POPC   C4B 3685   2.604   5.904   5.909
  282POPC   NC3 3686   2.435  10.319   4.023
  282POPC   PO4 3687   2.251   9.692   4.176
  282POPC   GL1 3688   2.606   9.958   4.356
  282POPC   GL2 3689   2.838  10.265   4.312
  282POPC   C1A 3690   2.553  10.098   4.758
  282POPC   D2A 3691   2.396   9.900   5.100
  282POPC   C3A 3692   2.571  10.089   5.474
  282POPC   C4A 3693   2.334  10.119   5.868
  282POPC   C1B 3694   2.850  10.491   4.710
  282POPC   C2B 3695   2.735  10.443   5.102
  282POPC   C3B 3696   2.934   0.023   5.442
  282POPC   C4B 3697   2.748  10.432   5.821
  283POPC   NC3 3698   5.372   0.688   4.030
  283POPC   PO4 3699   6.008   0.887   3.921
  283POPC   GL1 3700   5.866   0.546   4.277
  283POPC   GL2 3701   5.656   0.225   4.278
  283POPC   C1A 3702   5.707   0.458   4.737
  283POPC   D2A 3703   5.536   0.713   5.099
  283POPC   C3A 3704   5.705   0.746   5.516
  283POPC   C4A 3705   5.826   0.468   5.877
  283POPC   C1B 3706   5.356   0.078   4.612
  283POPC   C2B 3707   5.380   0.194   5.037
  283POPC   C3B 3708   5.546   0.266   5.452
  283POPC   C4B 3709   5.385   0.185   5.854
  284POPC   NC3 3710   4.613   1.197   3.822
  284POPC   PO4 3711   3.957   0.871   3.985
  284POPC   GL1 3712   4.051   1.037   4.363
  284POPC   GL2 3713   4.127   1.381   4.396
  284POPC   C1A 3714   3.864   0.947   4.753
  284POPC   D2A 3715   3.959   1.214   5.087
  284POPC   C3A 3716   4.076   1.068   5.486
  284POPC   C4A 3717   3.961   0.862   5.862
  284POPC   C1B 3718   4.323   1.258   4.754
  284POPC   C2B 3719   4.457   1.404   5.161
  284POPC   C3B 3720   4.348   1.495   5.571
  284POPC   C4B 3721   4.210   1.579   5.976
  285POPC   NC3 3722   3.257   5.183   3.933
  285POPC   PO4 3723   2.685   5.368   3.774
  285POPC   GL1 3724   2.397   5.345   4.146
  285POPC   GL2 3725   2.280   5.674   4.230
  285POPC   C1A 3726   2.390   5.260   4.609
  285POPC   D2A 3727   2.490   5.454   5.016
  285POPC   C3A 3728   2.727   5.411   5.397
  285POPC   C4A 3729   2.634   5.392   5.826
  285POPC   C1B 3730   2.500   5.799   4.607
  285POPC   C2B 3731   2.672   5.940   5.030
  285POPC   C3B 3732   2.855   5.915   5.446
  285POPC   C4B 3733   3.067   5.657   5.737
  286POPC   NC3 3734   4.802   9.395   3.895
  286POPC   PO4 3735   5.112   9.876   4.063
  286POPC   GL1 3736   4.750   9.685   4.317
  286POPC   GL2 3737   4.847   9.319   4.397
  286POPC   C1A 3738   4.572   9.583   4.756
  286POPC   D2A 3739   4.780   9.498   5.183
  286POPC   C3A 3740   4.633   9.695   5.581
  286POPC   C4A 3741   4.519   9.687   6.032
  286POPC   C1B 3742   5.057   9.248   4.799
  286POPC   C2B 3743   5.183   8.974   5.154
  286POPC   C3B 3744   5.185   9.105   5.591
  286POPC   C4B 3745   4.900   9.350   5.861
  287POPC   NC3 3746   7.888   5.175   3.756
  287POPC   PO4 3747   7.893   5.821   3.884
  287POPC   GL1 3748   7.960   5.608   4.285
  287POPC   GL2 3749   8.256   5.662   4.418
  287POPC   C1A 3750   7.856   5.673   4.739
  287POPC   D2A 3751   8.037   5.590   5.178
  287POPC   C3A 3752   7.763   5.728   5.519
  287POPC   C4A 3753   7.531   5.622   5.910
  287POPC   C1B 3754   8.360   5.817   4.820
  287POPC   C2B 3755   8.535   5.715   5.226
  287POPC   C3B 3756   8.342   5.532   5.596
  287POPC   C4B 3757   8.106   5.761   5.884
  288POPC   NC3 3758   9.671   9.002   3.748
  288POPC   PO4 3759  10.444   9.031   3.821
  288POPC   GL1 3760  10.255   9.147   4.227
  288POPC   GL2 3761  10.080   9.485   4.252
  288POPC   C1A 3762  10.187   9.066   4.666
  288POPC   D2A 3763  10.133   9.193   5.077
  288POPC   C3A 3764  10.260   8.988   5.440
  288POPC   C4A 3765  10.192   9.095   5.870
  288POPC   C1B 3766  10.311   9.572   4.612
  288POPC   C2B 3767  10.240   9.686   5.039
  288POPC   C3B 3768  10.262   9.518   5.461
  288POPC   C4B 3769   9.974   9.581   5.793
  289POPC   NC3 3770   9.269   9.191   4.206
  289POPC   PO4 3771   9.375   9.604   3.721
  289POPC   GL1 3772   9.586   9.605   4.229
  289POPC   GL2 3773   9.391   9.626   4.516
  289POPC   C1A 3774   9.816   9.462   4.724
  289POPC   D2A 3775   9.766   9.509   5.227
  289POPC   C3A 3776   9.785   9.174   5.568
  289POPC   C4A 3777   9.738   9.189   6.087
  289POPC   C1B 3778   9.339   9.419   4.897
  289POPC   C2B 3779   9.056   9.192   5.113
  289POPC   C3B 3780   9.137   9.351   5.516
  289POPC   C4B 3781   9.443   9.467   5.788
  290POPC   NC3 3782   8.812   9.494   3.890
  290POPC   PO4 3783   8.443   8.970   4.090
  290POPC   GL1 3784   8.762   9.199   4.312
  290POPC   GL2 3785   8.516   9.439   4.341
  290POPC   C1A 3786   8.863   9.471   4.712
  290POPC   D2A 3787   8.764   9.665   5.118
  290POPC   C3A 3788   8.975   9.829   5.462
  290POPC   C4A 3789   9.016   9.719   5.903
  290POPC   C1B 3790   8.473   9.116   4.715
  290POPC   C2B 3791   8.534   8.963   5.126
  290POPC   C3B 3792   8.735   9.056   5.478
  290POPC   C4B 3793   8.687   9.354   5.775
  291POPC   NC3 3794   2.468   4.958   3.817
  291POPC   PO4 3795   3.123   4.754   3.950
  291POPC   GL1 3796   2.833   5.023   4.179
  291POPC   GL2 3797   2.549   4.830   4.304
  291POPC   C1A 3798   2.889   5.192   4.598
  291POPC   D2A 3799   2.822   5.042   5.034
  291POPC   C3A 3800   3.090   5.026   5.432
  291POPC   C4A 3801   3.079   5.144   5.870
  291POPC   C1B 3802   2.332   4.732   4.691
  291POPC   C2B 3803   2.333   4.935   5.100
  291POPC   C3B 3804   2.595   4.915   5.481
  291POPC   C4B 3805   2.578   4.904   5.920
  292POPC   NC3 3806  10.250   8.581   3.748
  292POPC   PO4 3807   9.611   8.582   3.603
  292POPC   GL1 3808   9.877   8.633   4.104
  292POPC   GL2 3809  10.231   8.616   4.243
  292POPC   C1A 3810   9.909   8.620   4.625
  292POPC   D2A 3811  10.069   8.677   5.027
  292POPC   C3A 3812   9.856   8.683   5.425
  292POPC   C4A 3813   9.760   8.738   5.849
  292POPC   C1B 3814  10.335   8.314   4.578
  292POPC   C2B 3815   0.002   8.370   4.985
  292POPC   C3B 3816  10.289   8.410   5.392
  292POPC   C4B 3817  10.239   8.589   5.769
  293POPC   NC3 3818   8.177   9.289   3.932
  293POPC   PO4 3819   7.683   9.496   3.709
  293POPC   GL1 3820   7.750   9.387   4.210
  293POPC   GL2 3821   8.050   9.179   4.387
  293POPC   C1A 3822   7.662   9.283   4.685
  293POPC   D2A 3823   7.813   9.473   5.090
  293POPC   C3A 3824   7.678   9.300   5.461
  293POPC   C4A 3825   7.486   9.434   5.830
  293POPC   C1B 3826   8.136   9.499   4.683
  293POPC   C2B 3827   8.321   9.434   5.088
  293POPC   C3B 3828   8.234   9.333   5.498
  293POPC   C4B 3829   7.989   9.569   5.764
  294POPC   NC3 3830   0.980   8.548   3.850
  294POPC   PO4 3831   1.463   8.224   3.936
  294POPC   GL1 3832   1.278   8.416   4.278
  294POPC   GL2 3833   1.205   8.781   4.230
  294POPC   C1A 3834   1.111   8.360   4.689
  294POPC   D2A 3835   0.979   8.562   5.066
  294POPC   C3A 3836   0.912   8.324   5.439
  294POPC   C4A 3837   0.990   8.593   5.765
  294POPC   C1B 3838   1.353   8.802   4.638
  294POPC   C2B 3839   1.501   8.591   4.998
  294POPC   C3B 3840   1.424   8.565   5.423
  294POPC   C4B 3841   1.478   8.796   5.788
  295POPC   NC3 3842   1.469   0.993   4.123
  295POPC   PO4 3843   1.085   1.458   3.739
  295POPC   GL1 3844   1.093   1.369   4.221
  295POPC   GL2 3845   1.074   1.008   4.411
  295POPC   C1A 3846   1.067   1.495   4.680
  295POPC   D2A 3847   0.796   1.496   5.069
  295POPC   C3A 3848   1.036   1.419   5.467
  295POPC   C4A 3849   0.996   1.485   5.909
  295POPC   C1B 3850   1.333   1.079   4.806
  295POPC   C2B 3851   1.465   1.232   5.235
  295POPC   C3B 3852   1.349   1.053   5.629
  295POPC   C4B 3853   1.193   0.852   5.961
  296POPC   NC3 3854   7.966   1.797   3.930
  296POPC   PO4 3855   7.375   1.628   4.145
  296POPC   GL1 3856   7.693   1.804   4.354
  296POPC   GL2 3857   7.692   2.154   4.235
  296POPC   C1A 3858   7.954   1.641   4.681
  296POPC   D2A 3859   8.002   1.439   5.087
  296POPC   C3A 3860   7.963   1.719   5.452
  296POPC   C4A 3861   7.765   1.916   5.795
  296POPC   C1B 3862   7.862   2.162   4.671
  296POPC   C2B 3863   8.044   2.006   5.042
  296POPC   C3B 3864   7.943   2.216   5.427
  296POPC   C4B 3865   7.985   2.384   5.823
  297POPC   NC3 3866   2.526   2.065   3.651
  297POPC   PO4 3867   3.031   1.989   4.010
  297POPC   GL1 3868   2.697   2.002   4.258
  297POPC   GL2 3869   2.584   1.692   4.345
  297POPC   C1A 3870   2.570   2.166   4.682
  297POPC   D2A 3871   2.706   2.382   5.043
  297POPC   C3A 3872   2.582   2.291   5.460
  297POPC   C4A 3873   2.527   2.324   5.927
  297POPC   C1B 3874   2.589   1.669   4.741
  297POPC   C2B 3875   2.595   1.846   5.123
  297POPC   C3B 3876   2.723   1.656   5.480
  297POPC   C4B 3877   2.733   1.831   5.865
  298POPC   NC3 3878  10.407   0.137   3.974
  298POPC   PO4 3879  10.222   9.946   3.853
  298POPC   GL1 3880  10.279  10.148   4.240
  298POPC   GL2 3881   9.914  10.197   4.237
  298POPC   C1A 3882  10.400  10.069   4.697
  298POPC   D2A 3883   0.018  10.105   5.130
  298POPC   C3A 3884  10.363  10.276   5.505
  298POPC   C4A 3885  10.372   9.917   5.786
  298POPC   C1B 3886   9.905   9.958   4.603
  298POPC   C2B 3887   9.958  10.123   5.020
  298POPC   C3B 3888   9.966   9.957   5.432
  298POPC   C4B 3889   9.915  10.157   5.824
  299POPC   NC3 3890   0.950   9.536   3.807
  299POPC   PO4 3891   0.769   8.944   3.910
  299POPC   GL1 3892   0.888   9.193   4.271
  299POPC   GL2 3893   1.183   9.403   4.271
  299POPC   C1A 3894   1.053   9.208   4.714
  299POPC   D2A 3895   1.336   9.113   5.057
  299POPC   C3A 3896   1.139   9.247   5.418
  299POPC   C4A 3897   1.031   9.087   5.803
  299POPC   C1B 3898   1.300   9.682   4.632
  299POPC   C2B 3899   1.301   9.860   5.057
  299POPC   C3B 3900   1.248   9.763   5.466
  299POPC   C4B 3901   1.263   9.533   5.837
  300POPC   NC3 3902   7.991   0.471   3.868
  300POPC   PO4 3903   8.506   0.020   3.907
  300POPC   GL1 3904   8.440   0.340   4.248
  300POPC   GL2 3905   8.180   0.598   4.320
  300POPC   C1A 3906   8.267   0.225   4.664
  300POPC   D2A 3907   8.177   0.425   5.040
  300POPC   C3A 3908   8.283   0.207   5.411
  300POPC   C4A 3909   8.072   0.109   5.779
  300POPC   C1B 3910   7.841   0.580   4.627
  300POPC   C2B 3911   7.675   0.456   5.048
  300POPC   C3B 3912   7.817   0.401   5.431
  300POPC   C4B 3913   7.945   0.733   5.690
  301POPC   NC3 3914   4.163   8.842   3.850
  301POPC   PO4 3915   4.449   8.261   3.677
  301POPC   GL1 3916   4.335   8.409   4.144
  301POPC   GL2 3917   4.088   8.637   4.291
  301POPC   C1A 3918   4.447   8.528   4.608
  301POPC   D2A 3919   4.318   8.736   5.000
  301POPC   C3A 3920   4.380   8.559   5.403
  301POPC   C4A 3921   4.340   8.755   5.761
  301POPC   C1B 3922   3.945   8.816   4.652
  301POPC   C2B 3923   3.792   8.609   5.008
  301POPC   C3B 3924   3.894   8.698   5.429
  301POPC   C4B 3925   3.910   8.490   5.830
  302POPC   NC3 3926  10.127   3.689   3.989
  302POPC   PO4 3927   0.181   3.386   3.868
  302POPC   GL1 3928   0.001   3.541   4.297
  302POPC   GL2 3929  10.196   3.371   4.408
  302POPC   C1A 3930  10.459   3.665   4.759
  302POPC   D2A 3931  10.281   3.499   5.150
  302POPC   C3A 3932  10.350   3.663   5.565
  302POPC   C4A 3933  10.451   3.381   5.943
  302POPC   C1B 3934   9.938   3.652   4.700
  302POPC   C2B 3935   9.985   3.907   5.087
  302POPC   C3B 3936   9.837   3.725   5.475
  302POPC   C4B 3937   9.989   3.299   5.604
  303POPC   NC3 3938   0.869   6.317   3.724
  303POPC   PO4 3939   1.437   6.088   3.946
  303POPC   GL1 3940   1.318   6.358   4.258
  303POPC   GL2 3941   1.062   6.556   4.162
  303POPC   C1A 3942   1.452   6.355   4.678
  303POPC   D2A 3943   1.329   6.093   5.008
  303POPC   C3A 3944   1.409   6.249   5.388
  303POPC   C4A 3945   1.317   6.089   5.777
  303POPC   C1B 3946   0.977   6.546   4.647
  303POPC   C2B 3947   1.010   6.485   5.134
  303POPC   C3B 3948   1.008   6.499   5.631
  303POPC   C4B 3949   0.791   6.602   6.055
  304POPC   NC3 3950   9.965   5.935   4.049
  304POPC   PO4 3951   0.040   5.636   3.788
  304POPC   GL1 3952  10.321   5.539   4.241
  304POPC   GL2 3953  10.009   5.488   4.296
  304POPC   C1A 3954  10.210   5.702   4.705
  304POPC   D2A 3955   0.018   5.842   4.988
  304POPC   C3A 3956  10.381   5.650   5.357
  304POPC   C4A 3957   0.007   5.551   5.750
  304POPC   C1B 3958   9.774   5.406   4.696
  304POPC   C2B 3959   9.917   5.499   5.112
  304POPC   C3B 3960   9.847   5.612   5.520
  304POPC   C4B 3961  10.098   5.909   5.699
  305POPC   NC3 3962   8.397   4.821   3.926
  305POPC   PO4 3963   9.091   4.742   4.008
  305POPC   GL1 3964   8.787   4.698   4.314
  305POPC   GL2 3965   8.759   5.058   4.321
  305POPC   C1A 3966   8.873   4.600   4.755
  305POPC   D2A 3967   8.766   4.791   5.167
  305POPC   C3A 3968   8.791   4.780   5.592
  305POPC   C4A 3969   8.932   4.529   5.898
  305POPC   C1B 3970   8.589   5.006   4.749
  305POPC   C2B 3971   8.419   5.168   5.192
  305POPC   C3B 3972   8.339   5.015   5.618
  305POPC   C4B 3973   8.384   5.196   6.040
  306POPC   NC3 3974   1.035   2.944   3.714
  306POPC   PO4 3975   0.881   2.331   4.117
  306POPC   GL1 3976   0.966   2.460   4.455
  306POPC   GL2 3977   1.284   2.363   4.483
  306POPC   C1A 3978   0.759   2.467   4.788
  306POPC   D2A 3979   0.853   2.718   5.088
  306POPC   C3A 3980   1.081   2.579   5.430
  306POPC   C4A 3981   0.795   2.369   5.615
  306POPC   C1B 3982   1.266   2.442   4.927
  306POPC   C2B 3983   1.344   2.858   5.088
  306POPC   C3B 3984   1.388   3.002   5.489
  306POPC   C4B 3985   1.322   2.967   5.930
  307POPC   NC3 3986   8.054   8.186   3.908
  307POPC   PO4 3987   7.675   7.543   3.838
  307POPC   GL1 3988   7.961   7.754   4.167
  307POPC   GL2 3989   7.757   7.967   4.336
  307POPC   C1A 3990   8.156   7.742   4.618
  307POPC   D2A 3991   8.037   7.600   5.039
  307POPC   C3A 3992   8.119   7.801   5.438
  307POPC   C4A 3993   8.241   7.804   5.871
  307POPC   C1B 3994   7.683   7.902   4.777
  307POPC   C2B 3995   7.655   7.962   5.197
  307POPC   C3B 3996   7.637   7.797   5.586
  307POPC   C4B 3997   7.811   8.088   5.772
  308POPC   NC3 3998   4.355   7.860   3.859
  308POPC   PO4 3999   3.879   8.449   3.870
  308POPC   GL1 4000   3.878   8.149   4.213
  308POPC   GL2 4001   4.064   7.806   4.250
  308POPC   C1A 4002   3.942   8.265   4.639
  308POPC   D2A 4003   4.176   8.249   5.014
  308POPC   C3A 4004   4.069   8.172   5.448
  308POPC   C4A 4005   4.218   8.090   5.913
  308POPC   C1B 4006   4.182   7.787   4.702
  308POPC   C2B 4007   4.243   7.745   5.137
  308POPC   C3B 4008   4.303   7.728   5.574
  308POPC   C4B 4009   3.999   7.453   5.757
  309POPC   NC3 4010   0.792  10.182   3.882
  309POPC   PO4 4011   1.278   9.802   3.972
  309POPC   GL1 4012   1.047   9.995   4.289
  309POPC   GL2 4013   1.032  10.387   4.321
  309POPC   C1A 4014   0.980  10.063   4.712
  309POPC   D2A 4015   0.839  10.155   5.106
  309POPC   C3A 4016   0.759   9.851   5.412
  309POPC   C4A 4017   0.896   9.872   5.810
  309POPC   C1B 4018   0.954   0.062   4.769
  309POPC   C2B 4019   1.153   0.061   5.202
  309POPC   C3B 4020   1.087  10.266   5.558
  309POPC   C4B 4021   1.368  10.105   5.901
  310POPC   NC3 4022   3.420   8.795   3.920
  310POPC   PO4 4023   3.250   8.316   3.584
  310POPC   GL1 4024   3.393   8.333   4.117
  310POPC   GL2 4025   3.584   8.612   4.341
  310POPC   C1A 4026   3.417   8.214   4.569
  310POPC   D2A 4027   3.342   8.211   5.018
  310POPC   C3A 4028   3.539   8.343   5.379
  310POPC   C4A 4029   3.370   8.429   5.782
  310POPC   C1B 4030   3.347   8.675   4.734
  310POPC   C2B 4031   3.341   8.830   5.149
  310POPC   C3B 4032   3.301   9.031   5.511
  310POPC   C4B 4033   3.587   8.888   5.802
  311POPC   NC3 4034   8.672   2.914   3.893
  311POPC   PO4 4035   9.085   2.410   3.798
  311POPC   GL1 4036   8.964   2.410   4.247
  311POPC   GL2 4037   8.628   2.572   4.280
  311POPC   C1A 4038   8.876   2.407   4.701
  311POPC   D2A 4039   9.055   2.546   5.103
  311POPC   C3A 4040   8.894   2.424   5.487
  311POPC   C4A 4041   8.825   2.471   5.957
  311POPC   C1B 4042   8.591   2.840   4.661
  311POPC   C2B 4043   8.560   2.709   5.105
  311POPC   C3B 4044   8.612   2.837   5.533
  311POPC   C4B 4045   8.382   2.834   5.882
  312POPC   NC3 4046   8.924   1.966   3.697
  312POPC   PO4 4047   8.359   1.549   3.989
  312POPC   GL1 4048   8.366   1.818   4.332
  312POPC   GL2 4049   8.725   1.943   4.307
  312POPC   C1A 4050   8.390   2.124   4.666
  312POPC   D2A 4051   8.568   2.197   5.053
  312POPC   C3A 4052   8.416   2.010   5.407
  312POPC   C4A 4053   8.439   2.334   5.677
  312POPC   C1B 4054   8.883   1.852   4.748
  312POPC   C2B 4055   8.880   1.837   5.222
  312POPC   C3B 4056   8.867   1.938   5.636
  312POPC   C4B 4057   9.018   1.748   5.979
  313POPC   NC3 4058   7.894   4.211   4.059
  313POPC   PO4 4059   8.464   4.425   3.696
  313POPC   GL1 4060   8.381   4.376   4.172
  313POPC   GL2 4061   8.635   4.171   4.276
  313POPC   C1A 4062   8.411   4.398   4.661
  313POPC   D2A 4063   8.612   4.297   5.060
  313POPC   C3A 4064   8.478   4.415   5.464
  313POPC   C4A 4065   8.463   4.187   5.806
  313POPC   C1B 4066   8.893   4.081   4.649
  313POPC   C2B 4067   9.023   4.008   5.064
  313POPC   C3B 4068   8.932   4.197   5.478
  313POPC   C4B 4069   8.978   4.020   5.845
  314POPC   NC3 4070   3.610   8.059   3.760
  314POPC   PO4 4071   2.961   8.093   4.004
  314POPC   GL1 4072   3.166   7.849   4.313
  314POPC   GL2 4073   3.463   7.802   4.185
  314POPC   C1A 4074   3.251   7.763   4.777
  314POPC   D2A 4075   3.294   7.722   5.223
  314POPC   C3A 4076   3.259   7.959   5.571
  314POPC   C4A 4077   2.955   8.101   5.821
  314POPC   C1B 4078   3.694   7.817   4.561
  314POPC   C2B 4079   3.757   7.911   5.001
  314POPC   C3B 4080   3.758   7.775   5.431
  314POPC   C4B 4081   3.708   8.040   5.777
  315POPC   NC3 4082   2.667   7.934   3.688
  315POPC   PO4 4083   2.319   8.431   3.929
  315POPC   GL1 4084   2.536   8.209   4.272
  315POPC   GL2 4085   2.570   7.838   4.207
  315POPC   C1A 4086   2.440   8.181   4.713
  315POPC   D2A 4087   2.478   8.330   5.122
  315POPC   C3A 4088   2.434   8.135   5.465
  315POPC   C4A 4089   2.195   8.043   5.794
  315POPC   C1B 4090   2.769   7.810   4.613
  315POPC   C2B 4091   2.871   8.003   5.014
  315POPC   C3B 4092   2.810   7.823   5.384
  315POPC   C4B 4093   2.606   7.748   5.758
  316POPC   NC3 4094   0.319   2.946   3.885
  316POPC   PO4 4095   0.737   2.570   3.672
  316POPC   GL1 4096   0.720   2.785   4.142
  316POPC   GL2 4097   0.409   2.647   4.304
  316POPC   C1A 4098   0.668   2.925   4.600
  316POPC   D2A 4099   0.400   2.930   4.985
  316POPC   C3A 4100   0.481   2.882   5.409
  316POPC   C4A 4101   0.628   2.795   5.814
  316POPC   C1B 4102   0.248   2.507   4.722
  316POPC   C2B 4103   0.401   2.406   5.170
  316POPC   C3B 4104   0.293   2.460   5.617
  316POPC   C4B 4105   0.165   2.521   6.043
  317POPC   NC3 4106   2.001   2.746   3.885
  317POPC   PO4 4107   1.534   2.214   4.062
  317POPC   GL1 4108   1.699   2.567   4.268
  317POPC   GL2 4109   2.040   2.575   4.355
  317POPC   C1A 4110   1.665   2.666   4.710
  317POPC   D2A 4111   1.757   2.494   5.142
  317POPC   C3A 4112   1.612   2.534   5.574
  317POPC   C4A 4113   1.792   2.889   5.773
  317POPC   C1B 4114   2.130   2.434   4.761
  317POPC   C2B 4115   2.257   2.636   5.148
  317POPC   C3B 4116   2.205   2.624   5.591
  317POPC   C4B 4117   2.047   2.472   5.963
  318POPC   NC3 4118  10.194   1.942   3.823
  318POPC   PO4 4119   0.035   2.548   3.970
  318POPC   GL1 4120  10.473   2.104   4.239
  318POPC   GL2 4121  10.146   1.891   4.393
  318POPC   C1A 4122   0.016   2.019   4.717
  318POPC   D2A 4123  10.437   1.762   5.101
  318POPC   C3A 4124  10.222   1.932   5.471
  318POPC   C4A 4125  10.304   2.327   5.677
  318POPC   C1B 4126   9.977   1.824   4.841
  318POPC   C2B 4127   9.815   2.077   5.197
  318POPC   C3B 4128   9.772   2.085   5.665
  318POPC   C4B 4129   9.995   1.913   5.997
  319POPC   NC3 4130   7.815   6.297   3.847
  319POPC   PO4 4131   8.175   6.827   3.552
  319POPC   GL1 4132   8.173   6.839   4.131
  319POPC   GL2 4133   8.161   6.480   4.226
  319POPC   C1A 4134   7.974   6.832   4.570
  319POPC   D2A 4135   7.891   6.556   4.928
  319POPC   C3A 4136   8.081   6.564   5.352
  319POPC   C4A 4137   7.952   6.789   5.746
  319POPC   C1B 4138   8.044   6.168   4.580
  319POPC   C2B 4139   7.959   6.068   5.042
  319POPC   C3B 4140   8.175   6.042   5.443
  319POPC   C4B 4141   7.985   6.261   5.778
  320POPC   NC3 4142   5.027  10.269   3.839
  320POPC   PO4 4143   4.433   0.094   3.896
  320POPC   GL1 4144   4.587  10.351   4.285
  320POPC   GL2 4145   4.953  10.304   4.348
  320POPC   C1A 4146   4.682  10.460   4.744
  320POPC   D2A 4147   4.941  10.442   5.097
  320POPC   C3A 4148   4.832  10.166   5.437
  320POPC   C4A 4149   4.615  10.161   5.827
  320POPC   C1B 4150   4.894  10.002   4.712
  320POPC   C2B 4151   5.126   9.879   5.079
  320POPC   C3B 4152   5.169   9.765   5.521
  320POPC   C4B 4153   5.010   9.857   5.949
  321POPC   NC3 4154   7.697   2.772   3.718
  321POPC   PO4 4155   8.232   3.080   3.863
  321POPC   GL1 4156   8.130   2.925   4.270
  321POPC   GL2 4157   7.837   2.706   4.222
  321POPC   C1A 4158   8.153   2.613   4.619
  321POPC   D2A 4159   8.064   2.504   5.032
  321POPC   C3A 4160   8.121   2.721   5.431
  321POPC   C4A 4161   7.857   2.861   5.802
  321POPC   C1B 4162   7.643   2.629   4.636
  321POPC   C2B 4163   7.535   2.417   5.023
  321POPC   C3B 4164   7.621   2.599   5.421
  321POPC   C4B 4165   7.496   2.443   5.805
  322POPC   NC3 4166   3.765   2.832   3.945
  322POPC   PO4 4167   3.218   2.595   3.988
  322POPC   GL1 4168   3.446   2.485   4.373
  322POPC   GL2 4169   3.747   2.719   4.426
  322POPC   C1A 4170   3.703   2.305   4.682
  322POPC   D2A 4171   3.860   2.599   4.948
  322POPC   C3A 4172   3.607   2.661   5.331
  322POPC   C4A 4173   3.447   2.381   5.663
  322POPC   C1B 4174   3.378   2.898   4.634
  322POPC   C2B 4175   3.321   3.013   5.059
  322POPC   C3B 4176   3.108   3.038   5.447
  322POPC   C4B 4177   3.290   2.867   5.806
  323POPC   NC3 4178   1.171   3.723   3.909
  323POPC   PO4 4179   1.423   4.435   3.877
  323POPC   GL1 4180   1.193   4.193   4.170
  323POPC   GL2 4181   0.969   3.943   4.341
  323POPC   C1A 4182   1.333   4.322   4.582
  323POPC   D2A 4183   1.213   4.533   4.969
  323POPC   C3A 4184   1.169   4.308   5.364
  323POPC   C4A 4185   1.098   4.414   5.785
  323POPC   C1B 4186   0.871   4.194   4.714
  323POPC   C2B 4187   1.208   4.006   4.965
  323POPC   C3B 4188   1.469   3.884   5.329
  323POPC   C4B 4189   1.258   3.928   5.741
  324POPC   NC3 4190   9.501   8.336   3.978
  324POPC   PO4 4191   9.731   9.103   4.181
  324POPC   GL1 4192   9.508   8.830   4.432
  324POPC   GL2 4193   9.467   8.527   4.413
  324POPC   C1A 4194   9.369   8.896   4.797
  324POPC   D2A 4195   9.642   9.017   5.079
  324POPC   C3A 4196   9.389   8.899   5.377
  324POPC   C4A 4197   9.319   8.942   5.756
  324POPC   C1B 4198   9.383   8.384   4.741
  324POPC   C2B 4199   9.546   8.488   5.078
  324POPC   C3B 4200   9.435   8.400   5.481
  324POPC   C4B 4201   9.350   8.430   5.867
  325POPC   NC3 4202   5.704   1.274   3.864
  325POPC   PO4 4203   5.239   1.089   4.236
  325POPC   GL1 4204   5.666   1.000   4.333
  325POPC   GL2 4205   5.964   1.223   4.320
  325POPC   C1A 4206   5.861   0.951   4.750
  325POPC   D2A 4207   6.003   1.279   5.054
  325POPC   C3A 4208   5.831   1.260   5.487
  325POPC   C4A 4209   5.929   0.991   5.890
  325POPC   C1B 4210   5.638   1.397   4.643
  325POPC   C2B 4211   5.467   1.311   5.074
  325POPC   C3B 4212   5.318   1.125   5.482
  325POPC   C4B 4213   5.496   1.250   5.875
  326POPC   NC3 4214  10.366   1.130   3.866
  326POPC   PO4 4215   0.140   1.779   3.809
  326POPC   GL1 4216  10.424   1.535   4.188
  326POPC   GL2 4217  10.195   1.205   4.315
  326POPC   C1A 4218  10.353   1.527   4.648
  326POPC   D2A 4219  10.298   1.265   4.988
  326POPC   C3A 4220  10.158   1.420   5.369
  326POPC   C4A 4221  10.268   1.531   5.792
  326POPC   C1B 4222  10.155   0.900   4.656
  326POPC   C2B 4223  10.162   0.677   5.060
  326POPC   C3B 4224  10.019   0.751   5.464
  326POPC   C4B 4225  10.152   1.050   5.751
  327POPC   NC3 4226   1.085   1.915   4.078
  327POPC   PO4 4227   1.619   1.433   4.109
  327POPC   GL1 4228   1.692   1.624   4.456
  327POPC   GL2 4229   1.407   1.845   4.461
  327POPC   C1A 4230   1.577   1.561   4.865
  327POPC   D2A 4231   1.240   1.754   5.130
  327POPC   C3A 4232   1.336   2.069   5.463
  327POPC   C4A 4233   1.411   1.751   5.756
  327POPC   C1B 4234   1.043   2.011   4.735
  327POPC   C2B 4235   0.895   2.139   5.153
  327POPC   C3B 4236   0.859   1.884   5.504
  327POPC   C4B 4237   1.004   2.017   5.909
  328POPC   NC3 4238   9.357   3.500   3.910
  328POPC   PO4 4239   9.975   3.271   3.856
  328POPC   GL1 4240   9.747   3.177   4.245
  328POPC   GL2 4241   9.426   3.263   4.343
  328POPC   C1A 4242   9.741   3.082   4.710
  328POPC   D2A 4243   9.787   3.329   5.097
  328POPC   C3A 4244   9.499   3.264   5.427
  328POPC   C4A 4245   9.582   3.071   5.843
  328POPC   C1B 4246   9.222   3.497   4.668
  328POPC   C2B 4247   8.992   3.485   5.062
  328POPC   C3B 4248   9.002   3.654   5.447
  328POPC   C4B 4249   9.261   3.559   5.756
  329POPC   NC3 4250   9.447   2.309   4.076
  329POPC   PO4 4251   9.096   1.656   4.008
  329POPC   GL1 4252   9.253   1.917   4.327
  329POPC   GL2 4253   9.621   1.920   4.375
  329POPC   C1A 4254   9.316   2.154   4.705
  329POPC   D2A 4255   9.319   2.025   5.094
  329POPC   C3A 4256   9.360   2.254   5.427
  329POPC   C4A 4257   9.263   2.210   5.834
  329POPC   C1B 4258   9.483   1.677   4.748
  329POPC   C2B 4259   9.581   1.593   5.198
  329POPC   C3B 4260   9.360   1.759   5.580
  329POPC   C4B 4261   9.503   1.777   6.066
  330POPC   NC3 4262   0.284   7.091   3.813
  330POPC   PO4 4263   0.076   6.506   3.838
  330POPC   GL1 4264   0.228   6.834   4.229
  330POPC   GL2 4265   0.336   7.188   4.326
  330POPC   C1A 4266   0.214   6.849   4.695
  330POPC   D2A 4267   0.455   6.986   5.072
  330POPC   C3A 4268   0.243   7.135   5.443
  330POPC   C4A 4269   0.397   7.086   5.839
  330POPC   C1B 4270   0.670   7.263   4.675
  330POPC   C2B 4271   0.871   7.361   5.072
  330POPC   C3B 4272   0.689   7.376   5.470
  330POPC   C4B 4273   0.692   7.505   5.876
  331POPC   NC3 4274   1.519   4.956   3.816
  331POPC   PO4 4275   2.125   4.716   3.991
  331POPC   GL1 4276   2.043   4.989   4.316
  331POPC   GL2 4277   1.711   4.913   4.294
  331POPC   C1A 4278   1.944   5.066   4.759
  331POPC   D2A 4279   2.004   5.340   5.093
  331POPC   C3A 4280   2.233   5.266   5.480
  331POPC   C4A 4281   2.085   5.098   5.879
  331POPC   C1B 4282   1.742   4.615   4.665
  331POPC   C2B 4283   1.637   4.797   5.079
  331POPC   C3B 4284   1.901   4.892   5.389
  331POPC   C4B 4285   2.189   4.659   5.623
  332POPC   NC3 4286   1.102   7.940   3.961
  332POPC   PO4 4287   0.637   7.408   3.959
  332POPC   GL1 4288   0.777   7.727   4.299
  332POPC   GL2 4289   1.086   7.924   4.438
  332POPC   C1A 4290   0.756   7.764   4.749
  332POPC   D2A 4291   1.032   7.969   5.010
  332POPC   C3A 4292   0.933   7.800   5.371
  332POPC   C4A 4293   1.090   7.808   5.763
  332POPC   C1B 4294   1.468   7.992   4.632
  332POPC   C2B 4295   1.556   8.077   5.047
  332POPC   C3B 4296   1.366   8.066   5.433
  332POPC   C4B 4297   1.381   8.248   5.849
  333POPC   NC3 4298  10.109   6.497   3.878
  333POPC   PO4 4299  10.389   6.028   4.193
  333POPC   GL1 4300  10.121   6.292   4.386
  333POPC   GL2 4301  10.281   6.594   4.339
  333POPC   C1A 4302  10.064   6.276   4.817
  333POPC   D2A 4303  10.067   6.021   5.182
  333POPC   C3A 4304  10.443   6.158   5.396
  333POPC   C4A 4305  10.346   6.344   5.747
  333POPC   C1B 4306  10.171   6.806   4.697
  333POPC   C2B 4307  10.001   6.733   5.103
  333POPC   C3B 4308  10.183   6.718   5.463
  333POPC   C4B 4309  10.464   6.835   5.779
  334POPC   NC3 4310   3.403   3.630   3.853
  334POPC   PO4 4311   3.940   3.284   3.931
  334POPC   GL1 4312   3.632   3.216   4.278
  334POPC   GL2 4313   3.282   3.364   4.281
  334POPC   C1A 4314   3.615   3.329   4.736
  334POPC   D2A 4315   3.473   3.492   5.147
  334POPC   C3A 4316   3.522   3.286   5.572
  334POPC   C4A 4317   3.547   3.243   6.049
  334POPC   C1B 4318   3.073   3.320   4.689
  334POPC   C2B 4319   2.947   3.397   5.109
  334POPC   C3B 4320   3.108   3.581   5.499
  334POPC   C4B 4321   3.522   3.833   5.538
  335POPC   NC3 4322  10.334   5.201   3.864
  335POPC   PO4 4323  10.257   4.464   3.824
  335POPC   GL1 4324  10.286   4.674   4.227
  335POPC   GL2 4325  10.254   5.005   4.300
  335POPC   C1A 4326  10.217   4.652   4.675
  335POPC   D2A 4327  10.105   4.458   5.055
  335POPC   C3A 4328  10.151   4.669   5.399
  335POPC   C4A 4329   9.937   4.777   5.746
  335POPC   C1B 4330  10.213   5.172   4.658
  335POPC   C2B 4331  10.102   5.033   5.050
  335POPC   C3B 4332  10.270   5.154   5.440
  335POPC   C4B 4333  10.104   5.266   5.800
  336POPC   NC3 4334   6.364   1.174   3.770
  336POPC   PO4 4335   6.735   1.741   3.617
  336POPC   GL1 4336   6.620   1.506   4.107
  336POPC   GL2 4337   6.522   1.147   4.243
  336POPC   C1A 4338   6.698   1.435   4.612
  336POPC   D2A 4339   6.533   1.256   5.000
  336POPC   C3A 4340   6.647   1.309   5.420
  336POPC   C4A 4341   6.659   1.066   5.832
  336POPC   C1B 4342   6.364   0.941   4.636
  336POPC   C2B 4343   6.259   0.795   5.063
  336POPC   C3B 4344   6.259   0.971   5.478
  336POPC   C4B 4345   6.259   1.359   5.761
  337POPC   NC3 4346   2.400   9.725   3.749
  337POPC   PO4 4347   2.753   9.145   3.838
  337POPC   GL1 4348   2.757   9.468   4.296
  337POPC   GL2 4349   2.801   9.196   4.513
  337POPC   C1A 4350   2.721   9.621   4.747
  337POPC   D2A 4351   2.897   9.808   5.118
  337POPC   C3A 4352   2.674   9.589   5.419
  337POPC   C4A 4353   2.585   9.678   5.812
  337POPC   C1B 4354   2.967   9.006   4.840
  337POPC   C2B 4355   2.824   8.963   5.260
  337POPC   C3B 4356   2.671   9.127   5.636
  337POPC   C4B 4357   2.977   9.294   5.890
  338POPC   NC3 4358   6.447   2.554   3.634
  338POPC   PO4 4359   6.424   3.090   4.029
  338POPC   GL1 4360   6.472   2.937   4.441
  338POPC   GL2 4361   6.423   2.605   4.335
  338POPC   C1A 4362   6.514   2.894   4.905
  338POPC   D2A 4363   6.193   2.648   5.148
  338POPC   C3A 4364   6.202   2.792   5.592
  338POPC   C4A 4365   6.474   2.931   6.006
  338POPC   C1B 4366   6.627   2.469   4.670
  338POPC   C2B 4367   6.595   2.337   5.081
  338POPC   C3B 4368   6.633   2.583   5.431
  338POPC   C4B 4369   6.524   2.452   5.844
  339POPC   NC3 4370   1.278   1.041   3.632
  339POPC   PO4 4371   1.283   0.561   4.134
  339POPC   GL1 4372   1.131   0.452   4.489
  339POPC   GL2 4373   1.390   0.203   4.551
  339POPC   C1A 4374   0.957   0.703   4.809
  339POPC   D2A 4375   1.060   0.896   5.210
  339POPC   C3A 4376   1.039   0.598   5.541
  339POPC   C4A 4377   0.816   0.210   5.598
  339POPC   C1B 4378   1.474   0.561   4.850
  339POPC   C2B 4379   1.559   0.726   5.255
  339POPC   C3B 4380   1.549   0.559   5.644
  339POPC   C4B 4381   1.434   0.108   5.694
  340POPC   NC3 4382   1.870   1.810   3.996
  340POPC   PO4 4383   2.313   2.374   3.916
  340POPC   GL1 4384   2.202   2.074   4.298
  340POPC   GL2 4385   1.886   2.099   4.396
  340POPC   C1A 4386   2.137   1.916   4.780
  340POPC   D2A 4387   2.161   2.130   5.192
  340POPC   C3A 4388   2.291   1.906   5.570
  340POPC   C4A 4389   2.263   1.908   6.028
  340POPC   C1B 4390   1.677   2.165   4.733
  340POPC   C2B 4391   1.672   2.006   5.076
  340POPC   C3B 4392   1.799   1.800   5.396
  340POPC   C4B 4393   1.848   2.055   5.742
  341POPC   NC3 4394   8.531   6.740   3.833
  341POPC   PO4 4395   9.172   6.919   3.884
  341POPC   GL1 4396   8.919   6.991   4.275
  341POPC   GL2 4397   8.746   7.260   4.416
  341POPC   C1A 4398   8.506   6.831   4.493
  341POPC   D2A 4399   8.355   6.766   4.922
  341POPC   C3A 4400   8.400   6.955   5.337
  341POPC   C4A 4401   8.440   6.963   5.782
  341POPC   C1B 4402   8.806   7.080   4.793
  341POPC   C2B 4403   8.960   7.091   5.129
  341POPC   C3B 4404   8.927   7.323   5.421
  341POPC   C4B 4405   8.886   7.188   5.790
  342W        W 4406   1.313   4.688  10.426
  343W        W 4407   6.557   2.883   1.429
  344W        W 4408   6.558   8.579   9.128
  345W        W 4409   2.644   8.758  11.380
  346W        W 4410   6.237   6.133   1.279
  347W        W 4411   8.637   1.944   1.234
  348W        W 4412   3.766   7.519  11.549
  349W        W 4413   3.833   1.825   1.732
  350W        W 4414   6.951   3.255   0.070
  351W        W 4415   3.736   7.476   2.307
  352W        W 4416   7.642   7.465   3.075
  353W        W 4417   7.260   2.868  10.879
  354W        W 4418   6.623   6.092   2.508
  355W        W 4419  10.431   4.077   2.315
  356W        W 4420   0.731   2.895  11.577
  357W        W 4421   2.099   0.967  11.399
  358W        W 4422   0.681   2.576   8.764
  359W        W 4423   3.831   2.370  10.514
  360W        W 4424   7.595   0.753  11.923
  361W        W 4425   7.982   6.286  10.349
  362W        W 4426   9.617   5.030   1.971
  363W        W 4427   2.661   7.898   2.238
  364W        W 4428   3.764   6.444  10.489
  365W        W 4429   3.600   8.911   2.286
  366W        W 4430   5.594   9.699   1.315
  367W        W 4431   2.557   8.920   9.207
  368W        W 4432   4.952   4.820   1.649
  369W        W 4433   6.098   8.025   0.885
  370W        W 4434   9.190   3.293   9.391
  371W        W 4435  10.270   4.659   1.611
  372W        W 4436   8.566   9.378   3.191
  373W        W 4437   9.806   1.690  10.511
  374W        W 4438   4.633   4.390  10.877
  375W        W 4439   2.849   9.528   0.870
  376W        W 4440   3.922   8.622  11.470
  377W        W 4441  10.439   0.166   9.908
  378W        W 4442   8.534   8.379  10.440
  379W        W 4443   2.338   4.440   3.610
  380W        W 4444   3.336   9.672   0.995
  381W        W 4445   1.132   4.457   1.790
  382W        W 4446   6.128   8.582  10.970
  383W        W 4447   1.656   6.045   3.454
  384W        W 4448   1.530   9.242   0.398
  385W        W 4449   0.416   1.145   3.113
  386W        W 4450   2.181   7.846  11.039
  387W        W 4451   6.792   9.038  10.317
  388W        W 4452   3.058   7.712  11.942
  389W        W 4453   6.100   7.781  10.636
  390W        W 4454   2.602   5.276   2.819
  391W        W 4455   6.641   8.448  11.093
  392W        W 4456   9.025   9.517   3.039
  393W        W 4457   4.637  10.257   0.049
  394W        W 4458   7.288   6.274   3.875
  395W        W 4459   3.546   4.084   2.665
  396W        W 4460   1.544   9.639   3.528
  397W        W 4461  10.208   9.578   0.160
  398W        W 4462   3.753   7.715   9.975
  399W        W 4463   7.533  10.483   1.361
  400W        W 4464   5.131   4.596   8.238
  401W        W 4465   0.306   9.561  10.120
  402W        W 4466   9.686   9.498   2.480
  403W        W 4467   6.038   3.970   1.259
  404W        W 4468   7.219   1.296  10.329
  405W        W 4469   8.389   7.660   0.769
  406W        W 4470   3.791   0.268  10.057
  407W        W 4471   9.333   4.418   3.078
  408W        W 4472   2.346   3.255   9.333
  409W        W 4473   7.892   4.477  10.876
  410W        W 4474   8.016   7.607   3.426
  411W        W 4475   5.644   6.989   0.419
  412W        W 4476   9.077   9.154   2.157
  413W        W 4477   5.626   7.269   1.861
  414W        W 4478   8.423   6.290   8.586
  415W        W 4479   1.086   9.221   9.643
  416W        W 4480   8.080  10.149  10.140
  417W        W 4481   1.915  10.458   3.308
  418W        W 4482   7.905   0.953   2.280
  419W        W 4483   6.846   4.669   0.048
  420W        W 4484   8.840   3.490   2.418
  421W        W 4485   1.673   2.033   2.283
  422W        W 4486   9.680   8.362   0.795
  423W        W 4487   5.463   7.484  10.000
  424W        W 4488   1.322   7.455  10.955
  425W        W 4489   6.051   4.761  11.445
  426W        W 4490   0.925   9.557   0.418
  427W        W 4491   1.322   9.865   2.441
  428W        W 4492   4.126   4.497   0.199
  429W        W 4493   4.074   9.467   9.893
  430W        W 4494   4.808   3.211  10.290
  431W        W 4495   5.210   7.937   8.938
  432W        W 4496   6.059  10.027   2.757
  433W        W 4497   8.859   4.803  11.809
  434W        W 4498   0.817   7.511   3.106
  435W        W 4499   0.841   4.984   2.611
  436W        W 4500   4.398  10.404   9.997
  437W        W 4501   3.850   0.436  11.449
  438W        W 4502   0.007   6.983  11.314
  439W        W 4503   8.441   3.174   8.832
  440W        W 4504   3.627   6.439   3.666
  441W        W 4505   4.261   8.477   0.753
  442W        W 4506   4.258   8.838  11.105
  443W        W 4507   1.929   5.617   3.281
  444W        W 4508   7.596   8.594   1.252
  445W        W 4509   4.984   7.210   4.068
  446W        W 4510   6.440   9.798  11.491
  447W        W 4511   7.168   0.860   9.190
  448W        W 4512   4.788  10.457  10.591
  449W        W 4513   9.025   5.619   3.455
  450W        W 4514   1.669   6.629   9.347
  451W        W 4515   8.414   4.017   2.207
  452W        W 4516   9.005   6.560   1.452
  453W        W 4517   7.467   7.707   2.666
  454W        W 4518   7.033   5.943   3.088
  455W        W 4519   1.844   6.638  10.814
  456W        W 4520   8.705   3.405   0.085
  457W        W 4521   7.168   0.807   1.007
  458W        W 4522   1.906   5.280   9.116
  459W        W 4523   9.048   5.469  10.118
  460W        W 4524  10.246   5.011   0.722
  461W        W 4525   2.822   4.707   3.536
  462W        W 4526   0.962   6.999   1.330
  463W        W 4527   0.896   4.433  10.284
  464W        W 4528   6.990   4.903   1.005
  465W        W 4529   6.367   2.028   9.542
  466W        W 4530   7.501   0.504  11.298
  467W        W 4531   5.622   8.484  10.871
  468W        W 4532   3.760   7.065   9.145
  469W        W 4533  10.131   7.576  10.402
  470W        W 4534   9.339   1.840  10.361
  471W        W 4535   1.606   1.951   1.773
  472W        W 4536   7.040   3.112   3.043
  473W        W 4537   3.981   0.358   8.697
  474W        W 4538   4.757   4.917   8.420
  475W        W 4539   5.043   2.583   0.344
  476W        W 4540   6.690   6.682  11.904
  477W        W 4541   7.746   0.474   2.294
  478W        W 4542   4.525   9.647   8.522
  479W        W 4543   8.436   0.837   2.265
  480W        W 4544   5.276   9.150  11.960
  481W        W 4545   4.726   6.618  10.724
  482W        W 4546   6.738   3.088   0.987
  483W        W 4547   0.862   2.108   0.696
  484W        W 4548   8.434   7.279   3.447
  485W        W 4549   1.368  10.354   3.303
  486W        W 4550   6.502   6.943   3.246
  487W        W 4551   3.769   8.492   0.900
  488W        W 4552   5.717   8.433   2.685
  489W        W 4553   2.687   6.099   8.383
  490W        W 4554   3.774   8.799   3.523
  491W        W 4555   2.172   8.536   1.619
  492W        W 4556   7.278   6.502  10.724
  493W        W 4557   1.182   5.648   9.029
  494W        W 4558   7.742   6.862   9.319
  495W        W 4559   4.569   7.123  10.738
  496W        W 4560   5.415   3.680   8.215
  497W        W 4561   3.160   4.095   9.758
  498W        W 4562   8.953   1.318   9.720
  499W        W 4563   0.055   3.174   2.674
  500W        W 4564   5.985   4.754   2.476
  501W        W 4565   7.711   8.987  11.493
  502W        W 4566   4.122   2.583   9.443
  503W        W 4567  10.016   0.179  10.206
  504W        W 4568   7.576   0.135   3.346
  505W        W 4569   0.734   2.521  10.745
  506W        W 4570   3.204   6.727   2.493
  507W        W 4571   1.160   2.374   9.695
  508W        W 4572   4.090   6.253   1.970
  509W        W 4573   3.832   5.016  10.633
  510W        W 4574   9.237   2.772  11.355
  511W        W 4575   5.492   4.950   3.668
  512W        W 4576   8.579   9.867   1.672
  513W        W 4577   2.434   9.185   1.209
  514W        W 4578   4.506   4.561   9.990
  515W        W 4579   6.757   7.547   1.334
  516W        W 4580   4.621   9.284  11.571
  517W        W 4581   5.133   3.635   3.263
  518W        W 4582   8.920   6.004   0.842
  519W        W 4583   2.839   3.727   3.138
  520W        W 4584   6.916   4.340   3.917
  521W        W 4585   4.823   9.856  10.308
  522W        W 4586  10.361   6.093   8.857
  523W        W 4587   5.278   4.070   0.191
  524W        W 4588   9.494   4.260   0.736
  525W        W 4589   5.310   4.128  10.319
  526W        W 4590  10.250   4.260  10.094
  527W        W 4591   4.323  10.126   2.731
  528W        W 4592   2.658   1.500   3.097
  529W        W 4593   6.185   3.484   3.122
  530W        W 4594   6.944   0.357   1.996
  531W        W 4595   2.783   1.412   1.020
  532W        W 4596   5.991   3.131   8.866
  533W        W 4597   3.133   2.256   9.527
  534W        W 4598   9.134   4.168   9.585
  535W        W 4599   8.464   2.451   0.397
  536W        W 4600   5.691   5.467   9.457
  537W        W 4601   2.703   1.489   9.088
  538W        W 4602   8.910   4.285  10.520
  539W        W 4603   2.208   9.916   9.021
  540W        W 4604   5.763   7.165  11.905
  541W        W 4605   8.454   3.863   2.742
  542W        W 4606  10.200   9.548   2.446
  543W        W 4607   9.328   5.091  11.011
  544W        W 4608   7.918   6.436   2.266
  545W        W 4609   6.938   4.751   9.813
  546W        W 4610   1.265   5.133   2.329
  547W        W 4611   9.644   0.434  10.436
  548W        W 4612   9.814   0.355   1.239
  549W        W 4613   4.796   1.775   1.954
  550W        W 4614   5.324   7.368   0.297
  551W        W 4615   0.533   4.005  11.395
  552W        W 4616   8.058   5.591   3.449
  553W        W 4617   4.240   8.277  11.171
  554W        W 4618   4.762   9.858   2.690
  555W        W 4619   1.344   9.787   1.402
  556W        W 4620  10.392   1.208   1.414
  557W        W 4621   7.944   5.455   9.379
  558W        W 4622   3.869   0.679   9.746
  559W        W 4623   0.495   0.834   2.731
  560W        W 4624   3.791   9.526   0.647
  561W        W 4625   1.581   1.974  10.987
  562W        W 4626   5.468   2.609   9.247
  563W        W 4627   3.501   3.376   0.366
  564W        W 4628   4.047   8.249  10.287
  565W        W 4629   9.089   1.434   8.717
  566W        W 4630   8.056   6.254  11.716
  567W        W 4631   8.114   4.615  10.447
  568W        W 4632   3.249   0.914   8.720
  569W        W 4633   2.334   8.188   1.304
  570W        W 4634   0.670   6.111   3.296
  571W        W 4635   3.569   6.765   3.247
  572W        W 4636   8.230   3.410   0.267
  573W        W 4637   3.041   0.114   0.944
  574W        W 4638   2.592  10.223   8.848
  575W        W 4639   3.751   1.414   1.407
  576W        W 4640   2.069   5.093   9.755
  577W        W 4641   4.252   0.234  11.750
  578W        W 4642   9.924   4.881  10.068
  579W        W 4643   5.444   1.294  10.018
  580W        W 4644   9.927   8.543   9.509
  581W        W 4645   0.730   4.024   9.975
  582W        W 4646   9.330   0.481   9.526
  583W        W 4647   3.954   5.952   3.233
  584W        W 4648  10.255   7.397   8.496
  585W        W 4649   5.177   8.239   1.447
  586W        W 4650   7.052   1.531  10.842
  587W        W 4651  10.271   1.620   2.914
  588W        W 4652   2.286   2.669   0.663
  589W        W 4653  10.340   9.381   9.000
  590W        W 4654   1.744   3.328  11.492
  591W        W 4655   7.876   9.374   2.107
  592W        W 4656   9.956   3.756   1.143
  593W        W 4657   1.247   0.039  10.312
  594W        W 4658   1.478   8.983   9.391
  595W        W 4659   7.953   8.543  10.713
  596W        W 4660  10.089   4.338   3.261
  597W        W 4661   5.553   4.999  11.351
  598W        W 4662   1.741   2.702   2.906
  599W        W 4663   0.082   4.270   3.500
  600W        W 4664   8.372   0.492  11.261
  601W        W 4665  10.336  10.389   1.254
  602W        W 4666   0.923   4.846   3.098
  603W        W 4667   4.512   6.209   8.552
  604W        W 4668  10.265   3.478   3.485
  605W        W 4669  10.385   5.176  10.094
  606W        W 4670   8.931   5.252   2.287
  607W        W 4671   9.421   6.138   3.259
  608W        W 4672  10.283   0.628  10.079
  609W        W 4673   4.307   3.741   2.698
  610W        W 4674  10.350  10.086  10.772
  611W        W 4675   7.114   3.293  10.599
  612W        W 4676   4.941   2.127   9.691
  613W        W 4677   6.405   3.595   8.475
  614W        W 4678  10.399   3.764   1.447
  615W        W 4679   9.543   5.853   2.356
  616W        W 4680   5.073   2.596   9.575
  617W        W 4681   1.771  10.276  11.658
  618W        W 4682   3.624   1.318  10.414
  619W        W 4683   8.348  10.029  10.919
  620W        W 4684   2.878   1.275   0.225
  621W        W 4685   2.406   8.404   9.203
  622W        W 4686  10.225  10.188   1.767
  623W        W 4687   9.732   2.671   0.450
  624W        W 4688   0.395   1.162   1.737
  625W        W 4689   2.107   5.549   9.530
  626W        W 4690   8.040   6.971   1.418
  627W        W 4691   0.315   9.521   9.604
  628W        W 4692   5.319   5.021   1.369
  629W        W 4693   5.341   0.209   1.182
  630W        W 4694   9.504   7.935   9.918
  631W        W 4695   9.734   7.819  11.881
  632W        W 4696   3.735   2.261   3.571
  633W        W 4697   9.902   3.878   9.279
  634W        W 4698   6.613   7.459  10.068
  635W        W 4699   7.668   3.174   9.252
  636W        W 4700   3.193   0.601   3.498
  637W        W 4701   0.937   3.996   8.980
  638W        W 4702   8.450   0.362  11.733
  639W        W 4703   0.843   0.472   8.981
  640W        W 4704   7.076   4.118   2.580
  641W        W 4705   9.525   0.024   8.534
  642W        W 4706   5.150   7.245   1.668
  643W        W 4707   6.025   2.053   2.156
  644W        W 4708   9.581   7.024  11.506
  645W        W 4709   5.163   7.668   2.588
  646W        W 4710   7.496   7.662   8.849
  647W        W 4711   3.578   5.148   1.218
  648W        W 4712   7.874   3.968  10.996
  649W        W 4713   6.161   5.964   2.718
  650W        W 4714   6.149   1.858   9.113
  651W        W 4715   7.909   4.340   0.465
  652W        W 4716   5.790   8.382  10.043
  653W        W 4717   7.142   5.957  11.820
  654W        W 4718   0.920   1.427   9.799
  655W        W 4719   9.956   6.231   0.904
  656W        W 4720   8.176   5.629   0.577
  657W        W 4721   2.825   5.043   9.559
  658W        W 4722   0.385   1.248  11.844
  659W        W 4723   8.058   5.473   1.314
  660W        W 4724   4.548   9.845   2.214
  661W        W 4725   2.595   1.982  11.793
  662W        W 4726   1.808   4.670   8.470
  663W        W 4727   6.026   3.237   0.743
  664W        W 4728   0.163   9.265   2.500
  665W        W 4729   6.553   1.393   1.316
  666W        W 4730   7.188   0.383   9.410
  667W        W 4731   2.106   6.598   9.037
  668W        W 4732   7.004   3.201   0.569
  669W        W 4733   2.448   9.646   0.206
  670W        W 4734   4.014   3.267  10.033
  671W        W 4735   5.074   3.536   2.778
  672W        W 4736   8.822   8.408  11.873
  673W        W 4737   4.582   0.601  10.502
  674W        W 4738   4.240   0.923   9.978
  675W        W 4739   5.151   0.844   8.897
  676W        W 4740   9.959   0.310   0.213
  677W        W 4741   6.041   9.657   0.020
  678W        W 4742   6.523   4.746  11.659
  679W        W 4743   2.293   1.330   8.524
  680W        W 4744   1.770   4.663  10.615
  681W        W 4745   4.210   7.994   1.623
  682W        W 4746   4.636   0.526   1.027
  683W        W 4747   7.486   0.142  10.870
  684W        W 4748   0.112   4.942  11.265
  685W        W 4749   4.039   2.880  10.382
  686W        W 4750   7.960   6.807   0.924
  687W        W 4751   7.878   9.035   1.335
  688W        W 4752   5.673   4.525  10.290
  689W        W 4753   2.101   8.576  11.439
  690W        W 4754   5.647   7.547   2.298
  691W        W 4755   7.720   1.879  11.401
  692W        W 4756   0.514   6.989  11.137
  693W        W 4757   2.822   4.506   1.503
  694W        W 4758   9.828   1.205  10.661
  695W        W 4759   6.017   0.653   1.477
  696W        W 4760   0.713   0.673  10.355
  697W        W 4761   9.574   2.629   9.999
  698W        W 4762   3.504   9.160   1.840
  699W        W 4763   1.464   5.603   2.366
  700W        W 4764   5.003   6.609   9.004
  701W        W 4765   6.374   0.680   9.530
  702W        W 4766   2.368   3.062  10.968
  703W        W 4767   4.647   6.005   2.839
  704W        W 4768   5.200   2.222   0.020
  705W        W 4769   3.801   9.894   2.724
  706W        W 4770   3.022   7.973  10.055
  707W        W 4771   3.850   8.223   1.891
  708W        W 4772   2.475   0.962   2.201
  709W        W 4773   3.012   1.103  11.360
  710W        W 4774   0.363   2.396   9.162
  711W        W 4775   8.461   7.229   1.611
  712W        W 4776   2.317   1.198   1.731
  713W        W 4777   4.152   1.767   0.207
  714W        W 4778   5.670   7.974   2.961
  715W        W 4779   2.763   7.015  11.321
  716W        W 4780   7.170   1.695   2.309
  717W        W 4781   7.312   8.568  11.511
  718W        W 4782   1.224   3.334   8.762
  719W        W 4783   0.943   3.700  11.247
  720W        W 4784   1.884   4.139   1.255
  721W        W 4785   8.003   8.364   9.716
  722W        W 4786   2.056   7.617  10.069
  723W        W 4787   6.181   3.032   2.251
  724W        W 4788   1.211  10.015  11.688
  725W        W 4789   6.463   6.981  10.544
  726W        W 4790   5.724   6.627   8.441
  727W        W 4791   0.876   2.618   0.614
  728W        W 4792   9.953   6.124  11.980
  729W        W 4793   9.386   8.729  11.331
  730W        W 4794   9.230   5.227  10.526
  731W        W 4795   8.812   2.746   3.029
  732W        W 4796   0.606   9.392   3.450
  733W        W 4797   1.411   6.701   1.390
  734W        W 4798   6.551   8.026  11.404
  735W        W 4799   6.143   8.417   8.773
  736W        W 4800   0.991  10.169   2.234
  737W        W 4801   2.775   2.197   1.267
  738W        W 4802   5.138   3.606   0.031
  739W        W 4803   7.617   4.520   3.688
  740W        W 4804   6.010   0.562  10.627
  741W        W 4805   0.812   0.139   2.289
  742W        W 4806  10.164  10.237   9.977
  743W        W 4807   3.520   8.848  11.690
  744W        W 4808   2.841   5.092   1.847
  745W        W 4809   1.475   0.958   2.546
  746W        W 4810   6.571   6.496   2.163
  747W        W 4811   2.603   7.008   9.744
  748W        W 4812   4.743   7.516   2.289
  749W        W 4813   0.009   3.448  11.955
  750W        W 4814   3.230   8.929   1.466
  751W        W 4815   4.637  10.230   3.488
  752W        W 4816   9.120   8.793   1.817
  753W        W 4817   6.209   0.002   2.662
  754W        W 4818   6.442   3.396   2.667
  755W        W 4819   4.511   3.088   8.949
  756W        W 4820   4.761   0.766   3.355
  757W        W 4821   2.167   8.035   2.403
  758W        W 4822   8.675   1.780   2.006
  759W        W 4823   9.490   6.997   8.798
  760W        W 4824   7.410   2.287   8.930
  761W        W 4825   2.751   1.659   0.566
  762W        W 4826   7.678   8.626   8.892
  763W        W 4827   3.268   4.523   1.755
  764W        W 4828   9.870   8.756   1.044
  765W        W 4829   0.232   9.864  10.546
  766W        W 4830   9.389   5.105  10.028
  767W        W 4831   7.900   4.571   1.521
  768W        W 4832   3.355   9.436   1.440
  769W        W 4833   0.682   5.637   9.588
  770W        W 4834   4.048   6.637   9.211
  771W        W 4835   5.831   1.656   1.916
  772W        W 4836   7.297  10.020   9.215
  773W        W 4837   6.736   4.674   9.109
  774W        W 4838   2.311   8.214  10.694
  775W        W 4839   4.627   8.292   8.539
  776W        W 4840   5.592   8.824   9.715
  777W        W 4841   8.306   9.474  11.781
  778W        W 4842   7.344   7.855  11.016
  779W        W 4843   6.840   9.820   1.668
  780W        W 4844   7.730   2.680  10.875
  781W        W 4845   7.081   6.892   0.827
  782W        W 4846   0.458  10.303  10.472
  783W        W 4847   1.249   7.925   9.129
  784W        W 4848   1.841   8.387   0.263
  785W        W 4849   1.684   3.821   0.431
  786W        W 4850   8.308   9.056   9.207
  787W        W 4851   2.382   5.721  11.875
  788W        W 4852   6.391   3.996   9.721
  789W        W 4853   9.792   2.811   1.449
  790W        W 4854   3.176   7.486   0.383
  791W        W 4855   1.817   5.709   0.535
  792W        W 4856   6.233   5.535   3.008
  793W        W 4857   9.971   9.979   0.365
  794W        W 4858   4.595  10.415   9.160
  795W        W 4859  10.488   7.981   1.804
  796W        W 4860   3.714   7.066  11.841
  797W        W 4861   8.369   1.289   9.061
  798W        W 4862   9.121   8.058   0.620
  799W        W 4863   1.248   5.534   0.618
  800W        W 4864   2.274  10.036   2.498
  801W        W 4865   3.759   8.441  11.945
  802W        W 4866   0.789   0.177  10.482
  803W        W 4867   9.565   8.949   0.185
  804W        W 4868   4.922   1.616   3.689
  805W        W 4869   3.413  10.362  10.366
  806W        W 4870   3.101   8.529  10.390
  807W        W 4871   4.909   4.172  11.267
  808W        W 4872   6.191   1.405   0.258
  809W        W 4873   9.095   5.535  10.935
  810W        W 4874   0.372   6.034   8.863
  811W        W 4875   7.012   2.725   1.708
  812W        W 4876   2.700   3.219   1.965
  813W        W 4877   1.895   7.945   1.449
  814W        W 4878   1.929  10.374   2.683
  815W        W 4879   8.600   4.677  10.563
  816W        W 4880   9.924   8.325   3.288
  817W        W 4881   3.908   3.395   0.695
  818W        W 4882   5.084   4.649   3.707
  819W        W 4883   3.553   7.868   9.444
  820W        W 4884   5.112   8.453   8.911
  821W        W 4885   4.679   6.882   3.484
  822W        W 4886   6.965   8.051   2.530
  823W        W 4887   0.018   3.738   8.814
  824W        W 4888   8.513   9.989   2.164
  825W        W 4889   0.367   9.871   1.709
  826W        W 4890   6.905  10.475   9.686
  827W        W 4891   6.562   6.564   9.740
  828W        W 4892  10.254   6.079   3.653
  829W        W 4893   7.659   8.899   1.961
  830W        W 4894   9.099   7.568  11.931
  831W        W 4895  10.019   3.283  10.977
  832W        W 4896   6.121   0.059   0.717
  833W        W 4897   1.250   3.629  10.096
  834W        W 4898   9.761   1.836   8.547
  835W        W 4899   0.276   2.707   1.512
  836W        W 4900   9.359   8.340   1.995
  837W        W 4901   2.822   7.450   3.314
  838W        W 4902   0.111   6.575   0.714
  839W        W 4903   8.167   9.387   8.707
  840W        W 4904   2.914   1.625  10.506
  841W        W 4905   2.380   6.989   8.809
  842W        W 4906   3.269   8.436  10.930
  843W        W 4907   4.026   6.144   8.385
  844W        W 4908   5.493   3.860   3.542
  845W        W 4909   1.674   8.032   9.395
  846W        W 4910   7.537   8.392   1.824
  847W        W 4911  10.434   4.206   1.180
  848W        W 4912   7.777   6.428  10.782
  849W        W 4913   7.120   7.453   3.203
  850W        W 4914   9.690   6.466  10.730
  851W        W 4915   3.140   2.623   0.974
  852W        W 4916   2.987   1.769   0.056
  853W        W 4917   3.280   4.886  11.517
  854W        W 4918   5.166   5.755  11.849
  855W        W 4919   1.348   3.317   1.190
  856W        W 4920   9.028   3.564  10.815
  857W        W 4921   8.191   8.801   0.402
  858W        W 4922   2.744   6.974   1.444
  859W        W 4923   9.830   7.340   1.748
  860W        W 4924   5.158  10.479  11.345
  861W        W 4925   5.585   8.106   3.514
  862W        W 4926   3.376   9.383   3.494
  863W        W 4927  10.433   0.849   1.809
  864W        W 4928   7.359   6.713   3.619
  865W        W 4929   7.492   4.897  11.804
  866W        W 4930   6.468   8.842   2.533
  867W        W 4931   6.993   7.493   1.800
  868W        W 4932   1.941   4.789   2.519
  869W        W 4933   7.638   9.147   9.995
  870W        W 4934   0.264   4.266   0.466
  871W        W 4935   7.061   2.680   8.833
  872W        W 4936   8.155   3.239   1.515
  873W        W 4937   1.268   6.235   1.538
  874W        W 4938   4.243   4.682  11.725
  875W        W 4939  10.441   7.524  10.009
  876W        W 4940   9.603   0.665   9.930
  877W        W 4941   9.931   0.724  10.780
  878W        W 4942   4.169   4.618   3.702
  879W        W 4943   3.604   9.047   9.113
  880W        W 4944   3.331   9.296   2.468
  881W        W 4945   4.998   7.633   0.028
  882W        W 4946   8.617   5.055  11.381
  883W        W 4947   0.403   0.509   9.256
  884W        W 4948   0.940   8.521  10.227
  885W        W 4949   4.176   2.419   3.071
  886W        W 4950   0.473   8.326   1.243
  887W        W 4951   1.823   8.839   1.864
  888W        W 4952   5.500   3.185   8.056
  889W        W 4953   3.817   0.389   0.449
  890W        W 4954   1.182   5.166   9.701
  891W        W 4955   9.047   9.287   3.480
  892W        W 4956   1.635   0.933   1.090
  893W        W 4957   7.619   1.055   1.145
  894W        W 4958   9.998  10.017   1.230
  895W        W 4959   1.248   5.005   0.403
  896W        W 4960   1.730   0.710   9.473
  897W        W 4961   1.844   6.698   2.275
  898W        W 4962   7.828   9.001  10.445
  899W        W 4963  10.396   3.238   8.707
  900W        W 4964  10.213   7.923   8.699
  901W        W 4965   9.109   9.593  10.960
  902W        W 4966  10.108   9.956   8.998
  903W        W 4967   2.397   7.263   0.944
  904W        W 4968  10.058   9.083   0.346
  905W        W 4969   0.286   0.691  10.681
  906W        W 4970   4.782   0.806   2.173
  907W        W 4971   4.562   8.733   3.553
  908W        W 4972  10.388   8.579   0.232
  909W        W 4973   3.271   2.097  10.800
  910W        W 4974   6.517   0.739  11.279
  911W        W 4975   0.051   3.263   2.165
  912W        W 4976   5.136   7.179   2.228
  913W        W 4977   1.134   3.794   2.397
  914W        W 4978   7.620   9.273  11.927
  915W        W 4979   9.820   1.236   0.504
  916W        W 4980   5.643   7.683  10.439
  917W        W 4981   2.828   7.438   0.739
  918W        W 4982   8.479   3.632   3.262
  919W        W 4983   0.652   5.598  11.863
  920W        W 4984   2.178   9.562   1.462
  921W        W 4985   5.453   7.654   3.740
  922W        W 4986   0.451   8.453   0.386
  923W        W 4987   5.935   7.547  11.577
  924W        W 4988   6.630   7.201   0.804
  925W        W 4989   8.753   7.332   0.911
  926W        W 4990   4.978   0.775   2.676
  927W        W 4991   4.437   6.933  11.211
  928W        W 4992   7.462   5.007   3.561
  929W        W 4993   3.093   3.024   1.719
  930W        W 4994   8.634   3.275   1.770
  931W        W 4995   1.340   2.784   3.282
  932W        W 4996   7.558   8.556  10.286
  933W        W 4997   4.860   3.082   2.231
  934W        W 4998   5.806   2.224   9.220
  935W        W 4999   6.489   9.358  10.724
  936W        W 5000   7.107   7.391   0.938
  937W        W 5001   4.997   5.500   2.114
  938W        W 5002   4.650   7.587   9.041
  939W        W 5003   0.531   9.910   0.266
  940W        W 5004   3.084   2.831  10.302
  941W        W 5005   0.326   5.514   1.865
  942W        W 5006  10.322   9.986   2.810
  943W        W 5007   9.914   9.560   9.282
  944W        W 5008   7.110   9.887   2.132
  945W        W 5009   5.675   6.026   2.982
  946W        W 5010  10.076   2.533   2.863
  947W        W 5011   8.390   2.946   0.302
  948W        W 5012   3.811   7.058  11.330
  949W        W 5013   6.107   6.574  10.045
  950W        W 5014   8.000   5.587   2.384
  951W        W 5015   5.189   7.639   2.047
  952W        W 5016   5.998   9.573   0.520
  953W        W 5017   9.817  10.459   3.814
  954W        W 5018   6.066   0.023  11.273
  955W        W 5019   6.532   4.015   0.022
  956W        W 5020   7.732   2.478   0.647
  957W        W 5021   1.938   4.881   3.541
  958W        W 5022   6.584   9.133   9.851
  959W        W 5023   1.411   0.582   2.946
  960W        W 5024   9.523   6.958  10.754
  961W        W 5025   9.093   3.068   2.353
  962W        W 5026   9.884   0.913   3.858
  963W        W 5027   0.566   4.715   8.645
  964W        W 5028   3.319   6.158  10.515
  965W        W 5029   6.243   7.294   3.525
  966W        W 5030   2.754   3.709   2.136
  967W        W 5031   3.570   6.488   2.219
  968W        W 5032   5.259   2.088   1.220
  969W        W 5033   3.391   4.998   0.778
  970W        W 5034   2.646   0.185   9.300
  971W        W 5035   4.594   4.587   1.926
  972W        W 5036  10.063   7.291   2.267
  973W        W 5037   7.088   8.347   8.608
  974W        W 5038   5.205   2.221   2.097
  975W        W 5039   1.186   5.267   2.909
  976W        W 5040   8.129   1.775   9.013
  977W        W 5041   6.653   5.398   9.525
  978W        W 5042   6.502   4.135   0.942
  979W        W 5043   4.985   1.405  10.198
  980W        W 5044   2.187   6.035   8.587
  981W        W 5045   0.978   6.812   2.812
  982W        W 5046   7.175   3.117   2.040
  983W        W 5047   7.476   6.593   0.984
  984W        W 5048   2.928   9.541  11.779
  985W        W 5049   0.727   2.352   2.148
  986W        W 5050   4.599   8.210   9.933
  987W        W 5051   2.487   9.382   3.188
  988W        W 5052   4.551   1.236   9.418
  989W        W 5053   3.891   3.629   3.562
  990W        W 5054   6.257   1.527   9.471
  991W        W 5055   4.731   6.580   4.231
  992W        W 5056   6.231   1.422   3.261
  993W        W 5057   9.514   4.132  11.346
  994W        W 5058   2.168   7.923   3.480
  995W        W 5059   1.627   5.528   1.871
  996W        W 5060   8.741   1.529   1.547
  997W        W 5061   1.293   9.485   9.257
  998W        W 5062   0.829   6.805   8.705
  999W        W 5063   2.982   1.469   2.706
 1000W        W 5064   5.598   9.508   9.969
 1001W        W 5065   0.561   1.804   1.347
 1002W        W 5066   5.520   6.933   0.929
 1003W        W 5067   5.506   4.861  10.847
 1004W        W 5068   1.753   9.971  10.830
 1005W        W 5069   3.784   4.941  11.615
 1006W        W 5070   0.024   6.229  10.903
 1007W        W 5071   8.355   2.794  11.435
 1008W        W 5072   6.789   8.498  11.568
 1009W        W 5073   1.325   0.540   1.159
 1010W        W 5074   0.907   7.293   2.653
 1011W        W 5075   1.228   0.608   1.678
 1012W        W 5076   5.200   5.587   9.457
 1013W        W 5077   7.660   4.753   8.747
 1014W        W 5078   3.760   4.552   2.454
 1015W        W 5079   9.530   9.739   9.621
 1016W        W 5080   5.839   3.229   3.911
 1017W        W 5081   9.087   3.113  11.004
 1018W        W 5082   8.170   1.745   1.289
 1019W        W 5083   0.718   9.895  11.776
 1020W        W 5084   8.693   8.996   0.504
 1021W        W 5085   6.943   7.945   9.372
 1022W        W 5086   9.073   2.621  10.878
 1023W        W 5087   7.551   0.975   8.868
 1024W        W 5088   4.087   4.702  10.275
 1025W        W 5089   4.509   8.960   1.654
 1026W        W 5090   3.561   0.020   0.190
 1027W        W 5091   6.765   6.116   1.292
 1028W        W 5092   7.668   1.756   2.272
 1029W        W 5093   8.022   1.938  10.075
 1030W        W 5094   5.965   4.545   3.825
 1031W        W 5095   2.827   6.012   0.574
 1032W        W 5096   4.903  10.499   0.421
 1033W        W 5097   1.881   6.133   8.984
 1034W        W 5098   8.937   9.416   0.803
 1035W        W 5099   6.536   8.931  11.569
 1036W        W 5100   8.660   0.210  10.394
 1037W        W 5101  10.052   2.637  10.114
 1038W        W 5102   1.340   2.372   2.950
 1039W        W 5103   1.982   7.617   2.657
 1040W        W 5104   4.225   9.957   0.150
 1041W        W 5105   0.238   8.609   9.913
 1042W        W 5106   9.414   6.567  11.672
 1043W        W 5107   2.084   7.645   8.713
 1044W        W 5108   7.483   3.147  11.814
 1045W        W 5109   4.065   6.611   0.441
 1046W        W 5110   4.094   6.604   0.954
 1047W        W 5111   8.414  10.020   0.769
 1048W        W 5112   5.030   6.736   3.841
 1049W        W 5113   6.507   3.506   0.072
 1050W        W 5114   0.281   3.716   2.236
 1051W        W 5115   0.680   6.429   9.022
 1052W        W 5116   9.071   5.012   0.366
 1053W        W 5117   9.589   3.143   2.261
 1054W        W 5118   3.443   4.655   9.116
 1055W        W 5119   9.720   7.274  10.390
 1056W        W 5120   6.793   4.038   8.494
 1057W        W 5121   1.236   4.139   9.934
 1058W        W 5122   4.256   4.694  10.763
 1059W        W 5123   8.098   9.524  10.837
 1060W        W 5124   4.504   6.930   9.345
 1061W        W 5125   9.784   9.886   2.157
 1062W        W 5126   7.409   4.664   0.283
 1063W        W 5127   8.572   3.775   0.928
 1064W        W 5128   0.069   1.956  10.706
 1065W        W 5129   4.374   5.243   1.004
 1066W        W 5130   9.276   8.821   9.916
 1067W        W 5131   5.857   0.421   9.109
 1068W        W 5132   9.912   2.199   9.279
 1069W        W 5133   4.065   7.871   9.354
 1070W        W 5134   6.550   2.794   1.935
 1071W        W 5135   3.616   1.424   3.501
 1072W        W 5136   1.736   1.667   9.098
 1073W        W 5137   5.985  10.412   1.173
 1074W        W 5138   9.996   6.149   9.625
 1075W        W 5139   2.796   4.748   3.017
 1076W        W 5140   9.017   0.966   1.712
 1077W        W 5141   2.722   5.507   0.252
 1078W        W 5142   5.878   4.852   1.973
 1079W        W 5143   2.666  10.229   0.213
 1080W        W 5144   5.597   9.756   3.248
 1081W        W 5145   0.016   2.317   0.424
 1082W        W 5146   5.707   1.902   2.543
 1083W        W 5147   5.991  10.087   0.459
 1084W        W 5148   2.648   2.692  11.263
 1085W        W 5149   4.827   8.605   1.470
 1086W        W 5150   8.091   8.129   3.401
 1087W        W 5151   0.890  10.275   3.179
 1088W        W 5152   5.593   5.949   9.473
 1089W        W 5153   2.863   7.887   0.984
 1090W        W 5154   0.314   2.697   3.356
 1091W        W 5155   6.581   1.189  11.516
 1092W        W 5156   5.975   0.846   0.951
 1093W        W 5157   7.906   7.800   0.683
 1094W        W 5158   1.836   5.515   1.387
 1095W        W 5159   2.700   3.398  11.734
 1096W        W 5160   1.349   6.448   3.594
 1097W        W 5161   3.342   8.396   2.140
 1098W        W 5162   6.614   6.700   0.869
 1099W        W 5163   3.304   8.666   1.036
 1100W        W 5164   7.416   0.282   2.873
 1101W        W 5165   0.511   3.379  11.825
 1102W        W 5166   3.837   8.839   2.734
 1103W        W 5167   2.759   4.323   1.024
 1104W        W 5168   6.013   3.673   0.470
 1105W        W 5169   2.311   8.116   0.378
 1106W        W 5170   9.962   6.339  10.310
 1107W        W 5171   9.795   8.956   9.942
 1108W        W 5172   1.643   3.879   2.346
 1109W        W 5173   2.832   9.542   3.533
 1110W        W 5174   9.947   5.445   1.920
 1111W        W 5175   2.172   7.364   9.144
 1112W        W 5176  10.492   1.132   9.882
 1113W        W 5177   3.131  10.258   1.929
 1114W        W 5178   7.013  10.357   1.230
 1115W        W 5179   0.385   9.328   0.998
 1116W        W 5180   4.511   0.467   3.020
 1117W        W 5181   3.403   3.551   0.849
 1118W        W 5182   7.239  10.338  10.534
 1119W        W 5183   5.075  10.482  11.920
 1120W        W 5184   4.790   9.974   9.329
 1121W        W 5185   7.233   8.850   0.808
 1122W        W 5186   5.392   5.787   9.902
 1123W        W 5187   9.309   9.088   3.033
 1124W        W 5188   3.520   3.105  10.079
 1125W        W 5189   1.328   8.147  10.186
 1126W        W 5190   4.118   4.168  10.865
 1127W        W 5191   9.469   3.227   2.742
 1128W        W 5192   5.701  10.035   9.817
 1129W        W 5193   4.629   9.444   1.502
 1130W        W 5194   9.220   8.664   8.894
 1131W        W 5195   3.420   1.802  11.752
 1132W        W 5196   3.523   6.241   3.204
 1133W        W 5197   0.034   4.060  11.318
 1134W        W 5198   6.504   6.145  10.995
 1135W        W 5199   5.624   8.734   1.506
 1136W        W 5200   1.324   6.915  10.536
 1137W        W 5201   4.735   1.685   9.575
 1138W        W 5202   4.557   9.585   9.544
 1139W        W 5203   6.015   1.033   9.460
 1140W        W 5204   9.632   6.696   2.647
 1141W        W 5205   6.696   7.948  10.365
 1142W        W 5206   9.916   2.601   9.606
 1143W        W 5207  10.389   4.717   1.132
 1144W        W 5208   4.320   2.253   2.551
 1145W        W 5209   3.844   9.816  10.861
 1146W        W 5210   7.759   7.023   2.795
 1147W        W 5211   9.032   7.911  10.110
 1148W        W 5212   3.233   7.299  11.686
 1149W        W 5213   7.504   7.373  10.942
 1150W        W 5214  10.467   3.231   9.225
 1151W        W 5215   4.032   6.526   2.451
 1152W        W 5216   3.266   6.225   1.374
 1153W        W 5217   5.536   5.343  11.745
 1154W        W 5218   3.704   4.583   9.897
 1155W        W 5219  10.231   9.381   1.597
 1156W        W 5220   1.274   7.605   1.191
 1157W        W 5221   0.655   1.974  10.875
 1158W        W 5222   9.156   0.421   3.515
 1159W        W 5223  10.350   6.164   9.974
 1160W        W 5224   0.811  10.263   9.577
 1161W        W 5225   9.881   8.591   0.398
 1162W        W 5226   6.048   9.443   1.431
 1163W        W 5227   0.859   1.636   0.965
 1164W        W 5228   0.343   3.707  11.029
 1165W        W 5229   8.120   8.729  11.246
 1166W        W 5230   0.377   7.851   1.436
 1167W        W 5231   4.750   8.598   0.973
 1168W        W 5232   4.695   5.148   0.268
 1169W        W 5233   5.641   2.140   1.848
 1170W        W 5234   5.449   6.490   0.418
 1171W        W 5235   9.287   9.654   0.532
 1172W        W 5236   2.793   8.128   9.005
 1173W        W 5237   3.555   9.383  10.815
 1174W        W 5238   7.694   2.714   8.942
 1175W        W 5239   0.391   6.682  10.397
 1176W        W 5240   9.391   3.921  10.880
 1177W        W 5241   9.720   0.932   2.245
 1178W        W 5242   9.078   4.472   1.241
 1179W        W 5243   8.460   9.987   9.840
 1180W        W 5244   3.780   4.552  10.863
 1181W        W 5245   7.243   0.318   2.398
 1182W        W 5246   2.111   0.279   0.124
 1183W        W 5247   7.597   5.164   0.254
 1184W        W 5248   8.067   0.839   0.953
 1185W        W 5249   6.397  10.290  11.582
 1186W        W 5250   4.961   5.693   9.002
 1187W        W 5251   8.168   0.733  10.864
 1188W        W 5252   0.679   2.417   1.632
 1189W        W 5253   6.504   5.088   9.959
 1190W        W 5254   5.621   3.121  11.408
 1191W        W 5255   9.788   2.579  10.559
 1192W        W 5256   8.320   2.624   3.037
 1193W        W 5257   3.159   8.821  11.268
 1194W        W 5258   4.145   7.992   9.837
 1195W        W 5259   6.025   2.783  11.458
 1196W        W 5260   9.837   5.317   2.399
 1197W        W 5261   2.617   2.390   9.741
 1198W        W 5262   3.635   0.340   2.494
 1199W        W 5263   4.583   3.279   3.097
 1200W        W 5264   0.246   7.922   2.351
 1201W        W 5265   4.230   5.456   3.235
 1202W        W 5266   3.398   5.479   2.691
 1203W        W 5267   3.821   7.445   9.522
 1204W        W 5268   3.925   5.806   7.996
 1205W        W 5269   0.795   3.554   9.766
 1206W        W 5270   9.821   6.281   2.362
 1207W        W 5271   1.674   0.324  11.362
 1208W        W 5272   9.569   3.667  11.944
 1209W        W 5273   2.728   8.809   3.213
 1210W        W 5274   5.137   8.593   2.384
 1211W        W 5275   8.807   4.543   8.620
 1212W        W 5276   2.151   4.195   9.564
 1213W        W 5277   9.824   3.059  10.343
 1214W        W 5278   9.700   2.648   9.136
 1215W        W 5279   8.483   8.594   0.772
 1216W        W 5280   2.121   3.955   3.603
 1217W        W 5281   2.429   7.483   9.588
 1218W        W 5282   3.635   9.007  11.204
 1219W        W 5283   4.359   3.995   2.257
 1220W        W 5284   5.227   7.161  11.830
 1221W        W 5285   0.776   3.278   1.084
 1222W        W 5286   1.441   2.588  11.098
 1223W        W 5287   2.253   6.995  11.472
 1224W        W 5288   5.701   6.412   9.349
 1225W        W 5289   4.320   3.137  10.965
 1226W        W 5290   7.647   5.862  11.822
 1227W        W 5291   1.645   5.364   9.611
 1228W        W 5292   4.227   3.147   9.430
 1229W        W 5293   0.434   2.312   2.999
 1230W        W 5294   0.374   6.372   1.646
 1231W        W 5295   1.419  10.233   8.994
 1232W        W 5296   7.088   4.719  11.035
 1233W        W 5297   9.712   3.648  11.444
 1234W        W 5298   4.416   5.739   8.764
 1235W        W 5299   8.827   8.931   9.120
 1236W        W 5300   5.004   1.315   8.652
 1237W        W 5301   5.497  10.361  11.690
 1238W        W 5302   8.047   2.805   1.215
 1239W        W 5303   9.379  10.499   0.026
 1240W        W 5304   4.195   8.880   9.052
 1241W        W 5305   2.109   1.822   2.500
 1242W        W 5306  10.028   0.476   2.044
 1243W        W 5307   3.472   8.112   9.881
 1244W        W 5308   6.507   6.793   1.742
 1245W        W 5309   6.173   3.254  10.210
 1246W        W 5310   3.298   8.580   0.131
 1247W        W 5311   0.691   9.895   8.401
 1248W        W 5312   8.805   2.726   8.591
 1249W        W 5313   5.461   6.498   4.012
 1250W        W 5314   9.532   1.679   8.981
 1251W        W 5315   9.627   4.255   9.502
 1252W        W 5316   4.544   4.214   2.705
 1253W        W 5317   5.608   5.171   0.218
 1254W        W 5318   1.592   9.125  11.288
 1255W        W 5319   9.278   7.679  11.453
 1256W        W 5320   9.926   0.797   0.736
 1257W        W 5321   3.729   6.003   1.668
 1258W        W 5322   0.371   2.102   3.460
 1259W        W 5323   5.607  10.280  11.188
 1260W        W 5324   6.033  10.441   8.974
 1261W        W 5325   7.801   2.303   9.531
 1262W        W 5326   4.600   1.185   2.486
 1263W        W 5327   6.441   4.397   9.424
 1264W        W 5328   9.613   4.743  10.791
 1265W        W 5329   3.355   5.211  10.751
 1266W        W 5330   4.578   6.458   3.200
 1267W        W 5331   2.190  10.408   0.458
 1268W        W 5332   9.810   5.683   9.438
 1269W        W 5333   4.261   2.192   2.034
 1270W        W 5334  10.354   6.802   3.487
 1271W        W 5335   7.053   1.252  11.264
 1272W        W 5336   7.435   8.292  10.735
 1273W        W 5337   9.688  10.087   9.266
 1274W        W 5338   6.530   2.799   8.975
 1275W        W 5339   0.037  10.374   2.572
 1276W        W 5340   4.500   2.315   9.843
 1277W        W 5341   6.630   2.182   3.330
 1278W        W 5342   9.888   1.311   2.566
 1279W        W 5343   2.408   5.948   9.499
 1280W        W 5344   5.770   3.798   3.123
 1281W        W 5345   8.062   1.811   3.415
 1282W        W 5346   2.709   1.462   2.287
 1283W        W 5347   1.864   2.581  10.048
 1284W        W 5348   8.920   3.700   2.919
 1285W        W 5349   1.205   5.604  11.860
 1286W        W 5350   0.916   1.295  11.226
 1287W        W 5351   0.343   4.479   0.961
 1288W        W 5352   1.229   3.122  10.324
 1289W        W 5353  10.481   4.591   3.080
 1290W        W 5354   7.022   3.550   3.307
 1291W        W 5355   3.691   0.991   9.386
 1292W        W 5356   4.854   1.852  10.585
 1293W        W 5357   5.594  10.390   0.797
 1294W        W 5358   3.632   6.199  10.937
 1295W        W 5359  10.323   8.235   2.226
 1296W        W 5360   4.072   4.716  11.247
 1297W        W 5361  10.269   3.492   2.944
 1298W        W 5362   1.566  10.150  10.378
 1299W        W 5363   8.066  10.371   1.327
 1300W        W 5364   4.753   2.045   2.766
 1301W        W 5365   7.442   4.538   1.824
 1302W        W 5366   3.143   3.799  10.594
 1303W        W 5367   5.171   5.146   0.481
 1304W        W 5368   4.743   4.513  11.618
 1305W        W 5369   8.281   1.327   2.270
 1306W        W 5370   4.678   8.468   0.461
 1307W        W 5371   5.171   1.579   1.281
 1308W        W 5372  10.492   4.806   3.546
 1309W        W 5373   1.347   9.402  10.090
 1310W        W 5374   5.491   3.826  10.716
 1311W        W 5375   3.811  10.307   9.837
 1312W        W 5376   9.209   4.480   0.101
 1313W        W 5377   5.030   4.065   1.144
 1314W        W 5378   4.905   5.590   1.194
 1315W        W 5379   7.490   1.814  10.865
 1316W        W 5380   2.321   9.412   9.153
 1317W        W 5381   2.588   7.896   3.179
 1318W        W 5382   7.526   7.170   8.971
 1319W        W 5383   3.776   6.262   0.716
 1320W        W 5384   0.567   0.342   0.260
 1321W        W 5385   3.159   3.296   2.189
 1322W        W 5386   4.907   2.069   0.403
 1323W        W 5387   6.900   2.191   8.992
 1324W        W 5388   6.505  10.188   2.396
 1325W        W 5389  10.340   6.594   9.573
 1326W        W 5390   4.615   5.041  10.089
 1327W        W 5391   9.505   0.550   0.897
 1328W        W 5392   7.472   3.281   3.223
 1329W        W 5393   3.400   5.967   4.077
 1330W        W 5394   0.028   1.827   0.593
 1331W        W 5395   8.097   1.727  11.071
 1332W        W 5396   7.875   3.450  11.132
 1333W        W 5397   4.798   2.015  11.087
 1334W        W 5398   4.482   5.706   0.215
 1335W        W 5399   8.816   6.073   2.742
 1336W        W 5400   4.021   3.620   0.262
 1337W        W 5401   4.172   2.718   0.702
 1338W        W 5402   7.460   9.843  10.593
 1339W        W 5403   9.746   6.679   3.575
 1340W        W 5404   8.542   1.884   9.278
 1341W        W 5405   3.077   7.909   3.326
 1342W        W 5406   7.492   6.104  10.466
 1343W        W 5407   0.272   2.202   1.837
 1344W        W 5408   3.118   8.490   9.848
 1345W        W 5409   9.812   9.836  10.101
 1346W        W 5410   5.936   1.068   3.444
 1347W        W 5411   3.863   2.674   1.205
 1348W        W 5412   7.295   8.993  10.337
 1349W        W 5413   9.772  10.374   1.952
 1350W        W 5414   9.788   0.366   9.233
 1351W        W 5415   5.933   2.184   9.696
 1352W        W 5416   5.635   0.816   8.670
 1353W        W 5417   0.428   6.785   9.908
 1354W        W 5418   2.544   5.598   0.728
 1355W        W 5419   1.238   3.232   9.786
 1356W        W 5420   0.777   5.687  10.918
 1357W        W 5421   0.358   3.408   0.776
 1358W        W 5422   7.939   4.822   2.886
 1359W        W 5423   7.055   6.982   8.999
 1360W        W 5424   5.565   9.325   0.417
 1361W        W 5425   2.696   3.875   0.738
 1362W        W 5426   8.320   8.529  11.707
 1363W        W 5427   2.467   6.867   0.088
 1364W        W 5428   7.739   8.640   0.760
 1365W        W 5429   1.760   9.868   2.679
 1366W        W 5430   5.073   4.179  10.760
 1367W        W 5431   0.400   5.679   3.392
 1368W        W 5432   7.270   0.300   1.064
 1369W        W 5433   7.513   2.228   2.747
 1370W        W 5434   5.672   2.480  10.016
 1371W        W 5435   0.331   4.194  10.921
 1372W        W 5436   6.964   3.727   1.719
 1373W        W 5437   3.827   9.651   0.169
 1374W        W 5438   3.272   9.296   9.488
 1375W        W 5439   8.157  10.482  11.889
 1376W        W 5440   3.874   5.761   0.676
 1377W        W 5441   8.384   0.235   1.531
 1378W        W 5442   8.877   2.313   9.353
 1379W        W 5443   1.905   2.821  10.900
 1380W        W 5444   7.112   6.550   9.877
 1381W        W 5445   2.446   3.759   1.165
 1382W        W 5446   6.079   7.031   1.499
 1383W        W 5447   1.798   7.451   1.289
 1384W        W 5448   5.957   6.180  10.357
 1385W        W 5449   9.305   1.489   9.384
 1386W        W 5450   9.480   4.202   1.745
 1387W        W 5451   8.914   8.583  11.094
 1388W        W 5452   8.916   4.288   3.385
 1389W        W 5453   3.709   7.213   3.480
 1390W        W 5454   3.137   4.036   1.826
 1391W        W 5455   2.815   7.899  11.516
 1392W        W 5456   3.411   8.035   0.195
 1393W        W 5457   3.829   5.108   8.575
 1394W        W 5458   0.482   7.352   0.558
 1395W        W 5459   2.843   7.620  10.403
 1396W        W 5460   5.937   3.566  10.822
 1397W        W 5461   2.207   6.931   9.409
 1398W        W 5462   5.014   5.522   2.632
 1399W        W 5463   9.343   0.995   0.432
 1400W        W 5464   4.978   8.114  10.826
 1401W        W 5465   0.345   8.219   3.492
 1402W        W 5466   4.636   0.833   0.159
 1403W        W 5467   6.605   4.226   2.795
 1404W        W 5468   0.019   7.071   9.765
 1405W        W 5469   1.294   3.544  10.603
 1406W        W 5470   2.618   5.529   1.722
 1407W        W 5471   0.680   9.845  10.320
 1408W        W 5472   3.087   9.701   2.282
 1409W        W 5473   1.705   8.014   8.847
 1410W        W 5474   8.562   9.481  11.339
 1411W        W 5475   5.904   3.087  10.621
 1412W        W 5476   7.007  10.439   9.189
 1413W        W 5477   0.678   2.260  10.017
 1414W        W 5478   5.954   7.325   3.082
 1415W        W 5479   5.472   6.088  10.292
 1416W        W 5480   5.457   9.409  11.458
 1417W        W 5481   4.237   4.527   3.213
 1418W        W 5482   7.226   5.170   2.411
 1419W        W 5483   3.413   7.021   2.840
 1420W        W 5484   1.906   5.859   3.861
 1421W        W 5485   8.778   6.877  10.259
 1422W        W 5486   1.263   7.632  10.043
 1423W        W 5487   3.978   8.765  10.281
 1424W        W 5488   5.061  10.060   1.362
 1425W        W 5489   6.897   5.603   8.725
 1426W        W 5490   2.890  10.383   9.658
 1427W        W 5491   6.762   2.966  10.818
 1428W        W 5492   2.985  10.313   9.165
 1429W        W 5493   8.089   2.897   9.944
 1430W        W 5494   0.919   5.660   3.265
 1431W        W 5495   3.426   9.765   9.372
 1432W        W 5496   1.661   1.708   8.558
 1433W        W 5497   9.916   4.646   9.615
 1434W        W 5498   1.185   3.453   0.739
 1435W        W 5499   9.739   5.288   3.409
 1436W        W 5500   7.860   2.442  11.405
 1437W        W 5501   7.101   5.784   9.592
 1438W        W 5502   4.195   5.283   1.976
 1439W        W 5503   5.966   4.794  10.646
 1440W        W 5504   8.491   2.874   0.928
 1441W        W 5505   0.930   6.565   3.269
 1442W        W 5506   9.512   1.348  10.253
 1443W        W 5507   3.378   4.344   0.289
 1444W        W 5508   9.362   4.982   2.412
 1445W        W 5509   9.309   3.277  11.445
 1446W        W 5510   9.507   4.696  10.287
 1447W        W 5511   2.843   8.393   2.236
 1448W        W 5512   0.404   5.879   1.521
 1449W        W 5513   8.533   8.169   3.655
 1450W        W 5514   5.337   1.844   3.511
 1451W        W 5515   7.642   5.810   9.617
 1452W        W 5516   3.533   7.997  10.910
 1453W        W 5517   3.169   6.233   2.394
 1454W        W 5518   1.384   0.938  10.380
 1455W        W 5519   5.164   5.190  11.055
 1456W        W 5520   5.705   4.385  11.959
 1457W        W 5521   6.972   6.466   8.958
 1458W        W 5522   7.018   2.802  10.395
 1459W        W 5523   7.947   8.612   1.630
 1460W        W 5524   9.780   9.793  11.915
 1461W        W 5525   1.731   1.156  11.691
 1462W        W 5526  10.367   4.497   0.692
 1463W        W 5527   5.650   4.231   0.478
 1464W        W 5528   9.678   3.067   3.517
 1465W        W 5529   6.028   1.278   1.211
 1466W        W 5530   0.250   0.961   2.264
 1467W        W 5531   3.628   0.742  10.215
 1468W        W 5532   4.420  10.490   1.528
 1469W        W 5533   8.797   3.241   3.305
 1470W        W 5534   4.247   0.828   9.438
 1471W        W 5535   6.472   2.484   0.398
 1472W        W 5536   6.574   0.312  10.926
 1473W        W 5537   2.717  10.316  11.144
 1474W        W 5538   5.303   9.782   1.731
 1475W        W 5539   3.274   1.374   1.179
 1476W        W 5540   2.271   0.046  11.044
 1477W        W 5541   1.379   5.743   1.472
 1478W        W 5542   7.947   0.293  11.548
 1479W        W 5543   9.079   3.741   0.170
 1480W        W 5544   1.748   1.186   9.276
 1481W        W 5545   7.145   1.285   1.218
 1482W        W 5546   9.796   3.299   1.279
 1483W        W 5547   3.579   5.135   3.077
 1484W        W 5548   8.523   5.212   1.252
 1485W        W 5549   8.358   3.651   9.417
 1486W        W 5550   2.677   8.163  10.357
 1487W        W 5551   3.615   7.486   0.691
 1488W        W 5552   5.988   5.095   9.324
 1489W        W 5553   8.346   9.256   0.236
 1490W        W 5554   7.056   9.416   1.448
 1491W        W 5555   6.181   7.501   9.309
 1492W        W 5556   8.116   4.010   0.813
 1493W        W 5557   8.172   9.935   9.438
 1494W        W 5558   0.824   0.582   1.008
 1495W        W 5559   7.317   5.082   0.664
 1496W        W 5560  10.456   1.341  11.378
 1497W        W 5561   3.822   9.295  10.362
 1498W        W 5562   2.753   7.408   2.323
 1499W        W 5563   8.976   3.165   0.929
 1500W        W 5564   4.027   7.452  11.983
 1501W        W 5565   6.725   7.740  11.031
 1502W        W 5566   9.627   4.136   3.439
 1503W        W 5567   1.633   5.155   3.223
 1504W        W 5568   4.698   9.977   9.836
 1505W        W 5569   0.930   8.189   0.395
 1506W        W 5570   9.942   3.636   1.666
 1507W        W 5571   8.814   6.119  11.370
 1508W        W 5572   5.199   7.989   3.179
 1509W        W 5573   1.268   2.109  11.398
 1510W        W 5574   6.507   6.553   2.692
 1511W        W 5575   0.651   5.664   9.073
 1512W        W 5576   1.783   4.403   9.255
 1513W        W 5577   8.544   4.717   0.990
 1514W        W 5578   0.912   9.014  10.855
 1515W        W 5579   6.227   7.937   8.554
 1516W        W 5580   6.007   9.026   1.710
 1517W        W 5581   8.162   4.999   9.547
 1518W        W 5582   2.735   4.264   8.871
 1519W        W 5583   9.477   9.391  10.645
 1520W        W 5584   3.735   7.675   3.252
 1521W        W 5585   0.832   6.004  11.364
 1522W        W 5586   9.954   2.417   1.148
 1523W        W 5587   8.592   1.459   1.081
 1524W        W 5588   3.259   2.917   0.497
 1525W        W 5589   4.008   4.982   3.323
 1526W        W 5590   0.212   7.834   8.823
 1527W        W 5591   3.773   0.911   2.241
 1528W        W 5592  10.260   0.824  11.432
 1529W        W 5593  10.233   0.947   2.260
 1530W        W 5594   3.403   4.243   2.206
 1531W        W 5595   0.809   7.386   9.446
 1532W        W 5596   5.744   6.337  11.635
 1533W        W 5597   1.943   1.556   0.215
 1534W        W 5598   2.867   1.033   3.016
 1535W        W 5599   1.932   2.210   1.433
 1536W        W 5600   2.577   7.974   9.447
 1537W        W 5601   4.195   2.760   9.916
 1538W        W 5602   6.970   7.911   1.042
 1539W        W 5603   6.827  10.027   8.927
 1540W        W 5604   3.206   6.677   1.051
 1541W        W 5605   4.262   7.491   2.061
 1542W        W 5606   5.988   5.753   2.208
 1543W        W 5607   8.817   7.415  11.488
 1544W        W 5608   3.335   0.435   0.668
 1545W        W 5609  10.216   0.457  11.801
 1546W        W 5610   2.442  10.417  10.036
 1547W        W 5611   7.734   6.494   3.312
 1548W        W 5612   9.036   9.853   1.455
 1549W        W 5613   5.137   9.579  10.769
 1550W        W 5614   7.888   5.726  11.220
 1551W        W 5615  10.307   1.691   1.634
 1552W        W 5616   1.743   3.556   0.855
 1553W        W 5617   4.952   5.101   3.400
 1554W        W 5618   3.782   3.636   2.629
 1555W        W 5619   4.181   4.199   0.902
 1556W        W 5620   3.670   0.299  10.545
 1557W        W 5621   6.711   0.652   3.237
 1558W        W 5622   0.761   4.769   0.314
 1559W        W 5623   6.812   2.687   3.262
 1560W        W 5624   0.952   1.757   9.391
 1561W        W 5625   7.700   9.012   8.536
 1562W        W 5626   8.171   3.203   9.264
 1563W        W 5627   5.471   8.002  10.815
 1564W        W 5628   3.586   3.660  10.887
 1565W        W 5629   5.052   7.835   9.910
 1566W        W 5630   3.259   6.204   0.829
 1567W        W 5631   1.128   9.430   2.262
 1568W        W 5632   2.576   8.071   2.711
 1569W        W 5633   5.118  10.408   9.262
 1570W        W 5634   8.330   4.388   2.813
 1571W        W 5635   9.982   4.152   1.473
 1572W        W 5636   2.145   2.738   2.566
 1573W        W 5637   9.235   0.300  11.509
 1574W        W 5638   9.861   7.953  10.626
 1575W        W 5639   5.191   7.554   8.301
 1576W        W 5640   1.617   9.871   9.948
 1577W        W 5641   1.229   5.673   9.554
 1578W        W 5642   6.546   5.994  11.499
 1579W        W 5643   4.504   4.482   0.569
 1580W        W 5644   1.225   4.737   9.368
 1581W        W 5645   8.641   6.263   1.250
 1582W        W 5646   3.587   9.934   1.395
 1583W        W 5647  10.493   2.818  11.135
 1584W        W 5648   6.137   4.671   2.934
 1585W        W 5649  10.376   9.487   1.101
 1586W        W 5650   9.840   9.288  11.932
 1587W        W 5651   4.969   3.729   8.518
 1588W        W 5652   2.693   0.663   9.463
 1589W        W 5653   7.948   5.416  10.771
 1590W        W 5654   5.143   2.348   0.782
 1591W        W 5655   8.304   7.832   2.392
 1592W        W 5656   1.907   2.357  11.147
 1593W        W 5657   3.214   3.773   2.392
 1594W        W 5658   7.045   8.530   2.736
 1595W        W 5659   7.504   3.303   2.711
 1596W        W 5660   1.299   4.662   3.426
 1597W        W 5661   3.122   1.962   2.962
 1598W        W 5662   8.305  10.318   1.813
 1599W        W 5663   2.386   2.465   1.426
 1600W        W 5664   3.466   6.912   1.964
 1601W        W 5665   7.674   0.020   2.515
 1602W        W 5666   1.367   6.962   9.033
 1603W        W 5667   7.199  10.350   2.644
 1604W        W 5668   6.513   2.192   2.290
 1605W        W 5669   1.836   9.139   2.301
 1606W        W 5670   3.676   7.227  10.060
 1607W        W 5671   2.834   2.615   1.888
 1608W        W 5672   4.908   0.255   2.583
 1609W        W 5673   7.633   1.888   3.161
 1610W        W 5674   2.948   3.604   1.096
 1611W        W 5675   3.560   2.617   0.199
 1612W        W 5676   6.739   0.141   1.565
 1613W        W 5677   8.417   4.591   1.980
 1614W        W 5678   7.962   6.023   3.154
 1615W        W 5679   1.043   9.975   9.236
 1616W        W 5680   8.570   9.246  10.419
 1617W        W 5681   8.091   0.526   9.693
 1618W        W 5682   0.210  10.370   1.599
 1619W        W 5683   8.397   0.722   9.062
 1620W        W 5684   4.754   6.453   9.433
 1621W        W 5685   3.206   9.117  11.983
 1622W        W 5686  10.052   9.939   9.575
 1623W        W 5687  10.090   4.737  10.947
 1624W        W 5688   2.165   1.667  11.714
 1625W        W 5689   1.075   0.786  11.168
 1626W        W 5690   8.866   7.992   0.152
 1627W        W 5691   3.899   5.135   0.806
 1628W        W 5692   5.562   5.867   1.010
 1629W        W 5693  10.275   8.854   9.741
 1630W        W 5694   0.269   7.954   9.329
 1631W        W 5695   6.239   6.491   3.157
 1632W        W 5696   3.197   6.103   3.590
 1633W        W 5697   9.519   2.951   9.562
 1634W        W 5698   6.452   1.858   0.478
 1635W        W 5699   0.840   1.268   2.860
 1636W        W 5700   1.685   1.511   2.341
 1637W        W 5701   5.291   7.537   9.307
 1638W        W 5702   8.815   9.960  10.720
 1639W        W 5703   8.237   7.862   0.290
 1640W        W 5704   1.408   1.978   9.511
 1641W        W 5705   4.184   9.949   9.996
 1642W        W 5706   4.935   6.490   1.452
 1643W        W 5707   2.020   8.005   0.936
 1644W        W 5708   1.310   0.764   9.044
 1645W        W 5709   6.956   0.396  10.018
 1646W        W 5710   7.152   1.858   3.331
 1647W        W 5711   3.644   1.745   0.209
 1648W        W 5712   3.313   3.657   2.893
 1649W        W 5713   2.116   3.844   0.168
 1650W        W 5714   9.457   3.272   9.980
 1651W        W 5715   8.284   6.287  10.798
 1652W        W 5716   6.637   4.987   0.433
 1653W        W 5717   1.092   5.161  11.408
 1654W        W 5718   0.463   1.320  10.016
 1655W        W 5719   9.838   7.629   2.655
 1656W        W 5720  10.407   6.930   2.367
 1657W        W 5721   4.229   5.144  11.013
 1658W        W 5722   3.101   8.213  11.824
 1659W        W 5723   1.031  10.004   0.174
 1660W        W 5724   9.617   6.232   9.958
 1661W        W 5725   8.691   6.027   2.245
 1662W        W 5726   7.508   2.401   3.250
 1663W        W 5727   4.100   0.326   2.292
 1664W        W 5728   1.933   1.716  10.651
 1665W        W 5729   1.740   4.056  11.812
 1666W        W 5730   0.508   2.703  10.198
 1667W        W 5731   6.896   2.590   9.306
 1668W        W 5732   6.965   5.864   0.870
 1669W        W 5733   6.215   0.913  11.931
 1670W        W 5734   2.971   5.596   2.963
 1671W        W 5735  10.348   3.706   1.958
 1672W        W 5736   9.191   3.759  11.341
 1673W        W 5737   6.240   4.045   3.125
 1674W        W 5738   6.279  10.102   0.871
 1675W        W 5739   0.691   0.859   1.411
 1676W        W 5740   8.753   4.639   0.290
 1677W        W 5741   4.578   4.774  11.224
 1678W        W 5742   1.426   1.867  10.489
 1679W        W 5743   5.810   9.859   1.753
 1680W        W 5744   5.139   8.506  11.628
 1681W        W 5745   4.053   7.516   0.978
 1682W        W 5746   4.698   5.515   3.024
 1683W        W 5747   4.560   0.323   2.093
 1684W        W 5748   9.464   1.171   8.996
 1685W        W 5749  10.208   1.857  11.063
 1686W        W 5750   6.666   7.645   8.564
 1687W        W 5751   7.917   6.035   2.641
 1688W        W 5752   5.011   3.348   8.964
 1689W        W 5753   3.669   6.351  11.774
 1690W        W 5754   7.891   5.934  10.728
 1691W        W 5755   3.851   5.977   2.667
 1692W        W 5756   4.219   5.178  11.549
 1693W        W 5757   6.603   5.726   3.332
 1694W        W 5758   2.989   4.714   8.927
 1695W        W 5759   2.640   3.772   2.655
 1696W        W 5760   0.819   2.828   3.253
 1697W        W 5761   5.993   9.161   0.191
 1698W        W 5762   5.526   8.932   1.970
 1699W        W 5763   7.024   6.088  11.330
 1700W        W 5764   1.352   9.132  11.759
 1701W        W 5765   3.405   7.965   2.922
 1702W        W 5766   2.615   4.098   9.361
 1703W        W 5767   5.024   3.627   3.764
 1704W        W 5768   7.075   2.834  11.831
 1705W        W 5769   8.166   4.165   1.318
 1706W        W 5770   5.165   3.287  11.237
 1707W        W 5771   5.664   1.863   1.411
 1708W        W 5772   4.042   3.218   1.882
 1709W        W 5773   7.394   0.799   2.107
 1710W        W 5774   7.024   1.443  11.724
 1711W        W 5775   7.981   4.013   2.872
 1712W        W 5776   5.238   1.684   0.513
 1713W        W 5777   9.432   0.871   3.554
 1714W        W 5778   8.374   8.846   1.388
 1715W        W 5779  10.122   7.122  10.086
 1716W        W 5780   0.402   2.267  10.465
 1717W        W 5781   4.047   1.977   3.288
 1718W        W 5782   3.040   1.676   1.973
 1719W        W 5783   8.399   5.971  10.410
 1720W        W 5784   2.210   0.922   9.462
 1721W        W 5785   0.429   3.884  11.893
 1722W        W 5786  10.060   1.762   2.346
 1723W        W 5787   4.207   9.621  10.396
 1724W        W 5788   5.251   6.618   9.466
 1725W        W 5789   8.985   1.329   3.547
 1726W        W 5790   5.390   5.561   1.381
 1727W        W 5791   7.442   6.223   9.370
 1728W        W 5792   5.201   4.798   0.859
 1729W        W 5793   1.706   9.451  11.944
 1730W        W 5794   2.840   8.832   0.209
 1731W        W 5795   0.252   5.014   3.150
 1732W        W 5796   8.909   4.577   1.695
 1733W        W 5797   4.761  10.344   2.959
 1734W        W 5798   5.699   4.520  11.183
 1735W        W 5799   7.737  10.431  10.439
 1736W        W 5800   8.168   6.778  11.546
 1737W        W 5801   0.470   7.235   0.048
 1738W        W 5802   7.432   4.810   9.500
 1739W        W 5803   5.964   7.882  10.099
 1740W        W 5804   0.126   7.509  10.497
 1741W        W 5805   7.971   9.233   9.602
 1742W        W 5806   6.302   7.030  10.054
 1743W        W 5807   8.600   5.147   0.373
 1744W        W 5808   9.410   4.691   0.512
 1745W        W 5809   5.510   4.808   2.332
 1746W        W 5810   5.580   3.626  11.248
 1747W        W 5811   8.006   8.811   9.927
 1748W        W 5812   9.465   0.354   0.424
 1749W        W 5813   8.989   7.196   9.404
 1750W        W 5814   8.891   8.049   9.624
 1751W        W 5815   7.640   5.595  10.416
 1752W        W 5816   5.084   1.277   2.857
 1753W        W 5817   2.204   0.764   0.287
 1754W        W 5818   3.617   3.526   9.816
 1755W        W 5819  10.335   6.043   1.976
 1756W        W 5820   4.255   3.683   0.972
 1757W        W 5821   9.346   7.430   9.086
 1758W        W 5822   2.170   3.789   1.607
 1759W        W 5823   9.038   6.227  11.829
 1760W        W 5824   4.706   1.310   3.324
 1761W        W 5825  10.484   1.851   2.090
 1762W        W 5826   9.733   5.124  10.480
 1763W        W 5827   1.490   1.707   9.990
 1764W        W 5828   1.088   3.282   3.321
 1765W        W 5829   4.684   9.826   0.316
 1766W        W 5830  10.006   8.473   1.442
 1767W        W 5831   2.189   5.039  10.721
 1768W        W 5832   9.583   2.193   8.881
 1769W        W 5833   4.782   7.643  10.744
 1770W        W 5834   8.207   5.376  11.418
 1771W        W 5835   6.921   0.371   2.848
 1772W        W 5836   7.077   9.842   1.182
 1773W        W 5837   2.952   8.362  11.350
 1774W        W 5838   3.322   1.045   3.313
 1775W        W 5839   6.528   5.696   9.088
 1776W        W 5840   7.876   4.528   9.569
 1777W        W 5841   4.277   4.051   0.400
 1778W        W 5842   9.613   0.337   1.723
 1779W        W 5843   9.621   7.925   3.083
 1780W        W 5844   2.227   6.427   2.049
 1781W        W 5845   9.994   6.849  10.515
 1782W        W 5846   2.647   0.780   1.701
 1783W        W 5847   8.365   2.357   9.264
 1784W        W 5848  10.118   7.464  11.809
 1785W        W 5849   7.541   4.395   9.196
 1786W        W 5850   0.443   3.681   3.189
 1787W        W 5851   7.938   7.404   8.722
 1788W        W 5852   1.053   8.354   0.937
 1789W        W 5853   0.850   1.614   2.471
 1790W        W 5854   0.383   1.396   0.726
 1791W        W 5855   9.404   0.780   1.421
 1792W        W 5856   0.486   4.798  11.876
 1793W        W 5857   6.149   2.735   9.986
 1794W        W 5858   6.645   0.866   9.127
 1795W        W 5859   7.233   8.315   9.555
 1796W        W 5860   4.570   9.499  10.050
 1797W        W 5861   7.055   3.665   8.755
 1798W        W 5862   0.848   7.055   0.344
 1799W        W 5863   6.414   8.720   3.439
 1800W        W 5864   8.036  10.387   3.299
 1801W        W 5865   8.320   3.730  11.026
 1802W        W 5866  10.128   6.590   2.759
 1803W        W 5867   7.395   5.723  11.394
 1804W        W 5868   5.994   5.623  10.839
 1805W        W 5869   1.650   7.347   9.895
 1806W        W 5870   3.865   2.707   1.742
 1807W        W 5871   2.136   0.092   1.403
 1808W        W 5872   8.388   7.465   2.050
 1809W        W 5873   4.190   4.975   2.360
 1810W        W 5874   8.864   2.096  10.356
 1811W        W 5875   4.697   5.496   0.701
 1812W        W 5876   4.672   7.893   0.427
 1813W        W 5877   7.441   2.719  11.480
 1814W        W 5878   9.132   7.076  11.726
 1815W        W 5879  10.457   6.979   2.908
 1816W        W 5880   6.499   4.896   9.504
 1817W        W 5881   6.046   5.253  10.414
 1818W        W 5882   1.616   9.639  10.456
 1819W        W 5883   0.207   9.006  10.377
 1820W        W 5884   9.946   9.453   9.788
 1821W        W 5885   2.867   4.725  11.166
 1822W        W 5886   5.410   4.092  11.159
 1823W        W 5887  10.471   0.197   3.455
 1824W        W 5888   3.689   2.826   2.801
 1825W        W 5889   2.374   3.627  11.148
 1826W        W 5890   4.166   7.053   1.232
 1827W        W 5891   7.017   5.431   1.839
 1828W        W 5892   5.941   9.443   9.145
 1829W        W 5893   1.172   6.505   9.157
 1830W        W 5894   4.657   4.048   0.781
 1831W        W 5895  10.225   8.813  11.241
 1832W        W 5896   1.193   1.836   2.143
 1833W        W 5897  10.008   0.960   9.813
 1834W        W 5898   7.104   0.851   2.963
 1835W        W 5899   0.197   0.787   1.389
 1836W        W 5900   2.909   5.786   9.853
 1837W        W 5901   8.107   7.721   1.722
 1838W        W 5902   2.185   9.813   2.953
 1839W        W 5903   0.285   2.590  11.524
 1840W        W 5904   2.972   5.235  11.326
 1841W        W 5905   0.263   5.232  11.686
 1842W        W 5906   2.773   3.193   1.346
 1843W        W 5907   6.756   6.530   3.172
 1844W        W 5908   7.868   5.786   0.940
 1845W        W 5909   7.548   4.654  11.280
 1846W        W 5910   0.254   0.926  11.462
 1847W        W 5911   1.481   1.839   3.661
 1848W        W 5912   8.546   6.372   9.413
 1849W        W 5913   5.146   4.260   0.670
 1850W        W 5914   5.761  10.438   2.896
 1851W        W 5915   5.675   2.880   1.430
 1852W        W 5916   0.217  10.061  11.856
 1853W        W 5917   2.729   2.330   0.786
 1854W        W 5918   4.493   0.272  10.906
 1855W        W 5919   3.407   9.475   2.950
 1856W        W 5920   9.993   9.375  10.294
 1857W        W 5921   9.050   9.367   9.983
 1858W        W 5922   3.629   4.523  11.400
 1859W        W 5923   1.824   1.214   1.917
 1860W        W 5924   6.729   5.108   8.355
 1861W        W 5925   8.566   9.508   9.984
 1862W        W 5926   9.422   1.462   0.231
 1863W        W 5927   6.091   5.444   0.808
 1864W        W 5928   9.220   0.466   2.663
 1865W        W 5929   2.916   5.501  10.839
 1866W        W 5930   4.135   3.607  10.864
 1867W        W 5931   1.437  10.374   2.388
 1868W        W 5932   4.989   2.718  10.559
 1869W        W 5933   4.068   1.264   9.637
 1870W        W 5934   1.791   4.779  11.104
 1871W        W 5935   9.366  10.167   2.260
 1872W        W 5936   3.251   7.541   1.036
 1873W        W 5937   5.627   0.748  10.232
 1874W        W 5938   3.287   2.723   9.805
 1875W        W 5939   3.165   9.162   8.535
 1876W        W 5940   9.946   0.220  10.798
 1877W        W 5941   5.599   5.506   0.640
 1878W        W 5942   2.287   6.894  10.447
 1879W        W 5943   5.800   4.007  10.345
 1880W        W 5944   8.585  10.276  11.689
 1881W        W 5945   3.746   5.051  10.108
 1882W        W 5946   1.928   3.363   0.365
 1883W        W 5947   6.482   3.853   0.503
 1884W        W 5948   8.902   0.183  11.899
 1885W        W 5949   6.468   6.325   9.214
 1886W        W 5950   8.293   4.708   0.507
 1887W        W 5951   6.143   2.309   3.130
 1888W        W 5952   4.531   6.647  11.667
 1889W        W 5953   9.167   1.926   0.001
 1890W        W 5954   1.479   0.755  10.834
 1891W        W 5955   1.656   8.825   8.379
 1892W        W 5956   3.813   5.204   1.653
 1893W        W 5957   2.510   6.244   2.972
 1894W        W 5958  10.224   0.333   8.932
 1895W        W 5959  10.008   2.763  10.998
 1896W        W 5960   6.199   7.468   8.796
 1897W        W 5961   5.504   4.293   9.878
 1898W        W 5962   8.782   8.918  10.082
 1899W        W 5963   8.389   2.701  10.567
 1900W        W 5964   5.460   9.178   1.289
 1901W        W 5965   3.298   2.619  10.861
 1902W        W 5966   9.201   0.973   9.408
 1903W        W 5967   7.435   3.432   8.483
 1904W        W 5968   6.136   7.009   0.980
 1905W        W 5969   5.693   0.237  10.413
 1906W        W 5970   9.712   8.434   9.957
 1907W        W 5971   0.431   7.025   9.458
 1908W        W 5972   2.587   3.351   0.830
 1909W        W 5973   0.727   6.509   9.531
 1910W        W 5974   1.678   8.180   2.302
 1911W        W 5975   7.926   2.879  10.427
 1912W        W 5976   4.689   0.825   9.706
 1913W        W 5977   9.844   1.333   8.673
 1914W        W 5978   5.726   2.963  10.165
 1915W        W 5979   4.283   9.004   9.956
 1916W        W 5980   5.510   8.360   0.204
 1917W        W 5981   1.461   0.463   0.658
 1918W        W 5982   4.146   9.753   1.300
 1919W        W 5983   2.035   5.526  10.518
 1920W        W 5984   7.936   7.519   9.704
 1921W        W 5985   2.306   8.772  11.870
 1922W        W 5986   3.026   1.702   8.691
 1923W        W 5987   5.247   8.938   3.294
 1924W        W 5988   6.049   0.910   9.997
 1925W        W 5989   6.172   7.602   2.174
 1926W        W 5990   2.157   7.746   0.074
 1927W        W 5991   7.505   9.945   2.495
 1928W        W 5992   8.526   2.627   3.501
 1929W        W 5993  10.496   5.133   1.709
 1930W        W 5994   9.824   4.567   1.811
 1931W        W 5995   7.881   7.176  10.610
 1932W        W 5996   8.131   8.162   1.479
 1933W        W 5997   4.682   3.438  11.172
 1934W        W 5998   9.231   0.255   2.197
 1935W        W 5999   7.455   0.829  10.446
 1936W        W 6000   0.071   0.343   1.152
 1937W        W 6001   1.382   3.692  11.589
 1938W        W 6002  10.001   5.455   0.521
 1939W        W 6003  10.119   9.287   3.304
 1940W        W 6004   3.614   4.054  11.234
 1941W        W 6005   4.978   9.071   1.416
 1942W        W 6006   4.631   8.409  11.956
 1943W        W 6007   1.578   5.279  11.299
 1944W        W 6008   1.658   0.734   2.094
 1945W        W 6009   3.802   9.542   1.655
 1946W        W 6010   2.622   1.994   3.147
 1947W        W 6011   1.945   4.083   3.132
 1948W        W 6012   9.975   2.016   2.774
 1949W        W 6013   6.440   8.006   2.354
 1950W        W 6014   2.854   6.430  10.581
 1951W        W 6015   3.107   5.103   2.841
 1952W        W 6016   1.246   9.065  10.463
 1953W        W 6017   2.172   7.025   3.455
 1954W        W 6018   5.136   4.663   9.212
 1955W        W 6019   8.759   6.198   9.872
 1956W        W 6020   2.246   7.345   0.427
 1957W        W 6021   6.865   4.243   9.877
 1958W        W 6022   4.660   6.091  10.967
 1959W        W 6023   7.452   4.515   4.178
 1960W        W 6024   2.759   0.990  11.806
 1961W        W 6025   8.988   8.033  11.092
 1962W        W 6026   8.884   6.373   9.028
 1963W        W 6027   7.626   4.128  11.439
 1964W        W 6028   9.741   6.241   2.869
 1965W        W 6029   9.313   2.344  10.510
 1966W        W 6030   8.151   4.670   2.434
 1967W        W 6031   0.425   7.023   2.410
 1968W        W 6032  10.452   2.244  11.352
 1969W        W 6033   2.677   7.005   3.644
 1970W        W 6034   8.113   9.015   3.420
 1971W        W 6035   5.481   8.849   0.316
 1972W        W 6036   2.549   9.897  11.782
 1973W        W 6037   4.498   3.181   9.879
 1974W        W 6038   2.214  10.295   0.972
 1975W        W 6039   0.858   9.001  11.787
 1976W        W 6040   3.589  10.495   1.208
 1977W        W 6041   8.304   5.145   0.792
 1978W        W 6042   7.429   0.632   8.499
 1979W        W 6043   0.741   1.119   2.367
 1980W        W 6044   9.542   0.168   9.957
 1981W        W 6045   9.016   2.830   3.518
 1982W        W 6046   6.602   7.143  11.013
 1983W        W 6047   5.610   7.939   9.261
 1984W        W 6048   1.984   6.965   0.220
 1985W        W 6049   5.965   4.095   3.561
 1986W        W 6050   2.784  10.022   0.976
 1987W        W 6051   9.729   3.440   9.525
 1988W        W 6052   0.731   8.569   2.443
 1989W        W 6053   0.664   8.664   0.821
 1990W        W 6054   5.885   9.932   8.917
 1991W        W 6055   7.635   3.193  10.742
 1992W        W 6056   3.556   0.246   9.057
 1993W        W 6057   2.894   2.132  10.463
 1994W        W 6058   3.903   1.318   0.326
 1995W        W 6059   0.363   5.848  10.645
 1996W        W 6060   8.330   4.738  11.013
 1997W        W 6061   3.326   9.461  10.358
 1998W        W 6062   5.050   6.230   3.746
 1999W        W 6063   7.156   4.286  11.336
 2000W        W 6064   5.477   0.927   2.659
 2001W        W 6065   7.883   2.772   3.253
 2002W        W 6066   0.346   2.520   9.667
 2003W        W 6067  10.320   7.412   3.329
 2004W        W 6068   5.775   2.715   0.935
 2005W        W 6069   7.495   2.630  10.375
 2006W        W 6070   2.233   2.902   8.944
 2007W        W 6071   6.875   8.066   1.510
 2008W        W 6072   6.525   0.615   1.675
 2009W        W 6073  10.023   8.341   9.040
 2010W        W 6074   7.335   8.723   9.247
 2011W        W 6075   3.361   3.119   3.800
 2012W        W 6076   8.330   1.304   2.806
 2013W        W 6077   9.420   1.612   3.420
 2014W        W 6078   7.249   7.627   1.383
 2015W        W 6079   0.783   1.924   2.876
 2016W        W 6080   1.280   8.052   2.013
 2017W        W 6081   5.769   3.896   2.269
 2018W        W 6082   5.004   0.410   9.682
 2019W        W 6083  10.332   7.479   9.506
 2020W        W 6084   9.671  10.279   3.105
 2021W        W 6085   5.128   8.028   9.443
 2022W        W 6086   0.465   4.527  10.020
 2023W        W 6087   5.206   8.984  11.481
 2024W        W 6088   9.145   8.326  11.476
 2025W        W 6089   2.840   9.238   2.292
 2026W        W 6090   7.743   9.391   3.208
 2027W        W 6091  10.235   8.408  10.000
 2028W        W 6092   2.729   0.717   0.242
 2029W        W 6093   1.484   7.600   0.730
 2030W        W 6094   8.084   1.412  10.364
 2031W        W 6095   3.822   7.588  11.025
 2032W        W 6096   4.221   4.479   2.254
 2033W        W 6097   7.412   7.956   0.749
 2034W        W 6098   9.037   1.594  11.587
 2035W        W 6099   1.300   8.559   3.221
 2036W        W 6100   0.460   1.393  11.359
 2037W        W 6101   9.871   8.378  10.969
 2038W        W 6102   3.792   0.397   0.951
 2039W        W 6103   8.550   1.381   0.580
 2040W        W 6104   5.715   2.880   2.360
 2041W        W 6105   3.393   5.739   3.231
 2042W        W 6106   8.408   2.816   9.528
 2043W        W 6107   8.873   6.193   1.767
 2044W        W 6108   2.376   0.290   3.258
 2045W        W 6109   8.662   9.035   1.775
 2046W        W 6110   6.676   1.773   9.213
 2047W        W 6111   1.492   9.950   9.453
 2048W        W 6112   1.883   8.079  11.462
 2049W        W 6113   1.691   6.192   8.515
 2050W        W 6114   1.336   1.071   1.837
 2051W        W 6115  10.082   6.984  11.604
 2052W        W 6116   3.587   2.307   9.086
 2053W        W 6117   2.305   5.681   2.713
 2054W        W 6118   7.418   2.649   9.359
 2055W        W 6119   2.395   9.684  11.321
 2056W        W 6120   1.237   9.402  11.035
 2057W        W 6121  10.431   5.713  10.877
 2058W        W 6122   9.956   1.361  11.537
 2059W        W 6123   0.342   1.466   9.515
 2060W        W 6124  10.374   2.394   9.549
 2061W        W 6125   6.181   6.507   0.728
 2062W        W 6126   2.366   9.633  10.116
 2063W        W 6127   1.085   7.372  10.458
 2064W        W 6128   4.615   5.132   8.863
 2065W        W 6129   5.162   9.545   2.650
 2066W        W 6130   2.362   2.106   0.517
 2067W        W 6131   3.960   4.222   4.016
 2068W        W 6132   4.714   2.410   3.156
 2069W        W 6133   2.763   4.628   8.468
 2070W        W 6134   5.534   4.405   3.550
 2071W        W 6135   5.242   0.885  11.434
 2072W        W 6136   4.513   4.672   1.419
 2073W        W 6137   5.697   0.749   3.103
 2074W        W 6138   1.478   8.940   1.518
 2075W        W 6139   1.112   8.979  11.323
 2076W        W 6140   2.348   6.037   2.354
 2077W        W 6141   0.827   2.628   9.256
 2078W        W 6142   3.900   1.914  10.249
 2079W        W 6143   0.841   7.702   1.870
 2080W        W 6144   5.291   4.447  11.504
 2081W        W 6145   5.259  10.496  10.832
 2082W        W 6146   2.859   3.998   1.400
 2083W        W 6147   7.461   6.110  11.021
 2084W        W 6148   5.920   3.189   9.756
 2085W        W 6149   8.468   9.495   9.492
 2086W        W 6150   9.613  10.182  11.599
 2087W        W 6151   8.301   5.094  10.496
 2088W        W 6152   2.647   7.144   9.219
 2089W        W 6153   6.342   9.400   8.831
 2090W        W 6154   0.824   5.252   0.526
 2091W        W 6155  10.107   1.435   9.701
 2092W        W 6156   6.511   1.117   1.843
 2093W        W 6157   0.036   9.541   2.931
 2094W        W 6158   9.472   2.897  11.789
 2095W        W 6159   3.670   9.343  11.786
 2096W        W 6160   9.851   5.256   2.916
 2097W        W 6161   6.561   4.342   0.437
 2098W        W 6162   8.292  10.466  11.273
 2099W        W 6163   9.183   6.140   2.162
 2100W        W 6164   0.453   2.056   0.384
 2101W        W 6165   3.018   8.712  11.734
 2102W        W 6166   5.479   2.133   0.446
 2103W        W 6167   8.996   7.532  11.022
 2104W        W 6168   8.748   3.554  11.242
 2105W        W 6169   5.074   5.181   9.105
 2106W        W 6170   8.998   8.348  10.640
 2107W        W 6171   2.295   4.870   8.433
 2108W        W 6172   3.690   0.863   0.185
 2109W        W 6173   4.147   9.310   3.648
 2110W        W 6174   9.115   2.399   8.895
 2111W        W 6175   2.650   0.527   2.461
 2112W        W 6176   8.492   7.948  10.971
 2113W        W 6177   7.026   3.570   2.248
 2114W        W 6178   3.692  10.393   8.701
 2115W        W 6179   6.272   6.736  11.067
 2116W        W 6180   3.524   1.725   2.168
 2117W        W 6181   9.818   1.518  11.049
 2118W        W 6182   3.763   0.406   1.474
 2119W        W 6183  10.121  10.245   3.438
 2120W        W 6184   8.371   8.120   1.023
 2121W        W 6185   8.810   9.248  11.839
 2122W        W 6186   2.953   7.690   2.865
 2123W        W 6187   9.954   9.263  10.778
 2124W        W 6188   5.679   6.705   9.752
 2125W        W 6189   7.958   6.235  11.209
 2126W        W 6190   7.466   0.311   1.904
 2127W        W 6191   6.821   9.400  11.583
 2128W        W 6192   8.149   1.327   0.871
 2129W        W 6193   1.178   2.630  11.559
 2130W        W 6194   8.917   9.957   2.489
 2131W        W 6195   4.965   6.002  10.082
 2132W        W 6196   1.010   4.698   2.216
 2133W        W 6197   2.802   8.903  10.896
 2134W        W 6198   4.263   0.331   0.720
 2135W        W 6199  10.381   0.396  10.516
 2136W        W 6200   4.046   9.849   2.267
 2137W        W 6201   9.114   3.844  10.415
 2138W        W 6202   5.736   0.215   1.484
 2139W        W 6203   3.215   3.399   8.589
 2140W        W 6204   3.639   9.048   0.807
 2141W        W 6205   0.832   0.770   9.393
 2142W        W 6206   2.376   1.240   0.350
 2143W        W 6207   0.858   6.962   9.752
 2144W        W 6208   1.719   2.190   8.741
 2145W        W 6209   3.422   1.413  11.364
 2146W        W 6210   5.777   7.393   1.247
 2147W        W 6211   0.809   5.840   0.783
 2148W        W 6212   6.078   7.980   9.063
 2149W        W 6213   1.941  10.413  10.149
 2150W        W 6214   6.168   1.685   2.471
 2151W        W 6215   1.785   6.701   3.558
 2152W        W 6216   1.383   5.931  10.955
 2153W        W 6217   1.489   2.637   1.763
 2154W        W 6218   7.882   1.699   0.583
 2155W        W 6219   9.752   1.821   0.380
 2156W        W 6220   2.076   5.421   0.921
 2157W        W 6221   4.011   6.502   3.315
 2158W        W 6222   4.264   9.563   1.838
 2159W        W 6223   2.883   5.571  11.723
 2160W        W 6224   9.264   9.908   3.309
 2161W        W 6225   7.972   2.252   3.031
 2162W        W 6226   2.212   2.270   3.307
 2163W        W 6227   7.977  10.128   2.322
 2164W        W 6228   6.907  10.337  11.458
 2165W        W 6229   2.769   3.626   8.766
 2166W        W 6230   7.824   8.507  11.615
 2167W        W 6231   9.104  10.296  11.553
 2168W        W 6232   6.963   2.724   0.337
 2169W        W 6233   3.129   0.888   1.457
 2170W        W 6234   1.047   4.980   8.918
 2171W        W 6235   0.691  10.346   1.415
 2172W        W 6236   7.084   2.314   0.054
 2173W        W 6237   6.512   4.672   2.570
 2174W        W 6238   8.574   2.775  10.030
 2175W        W 6239   3.614   7.973  10.393
 2176W        W 6240   9.047   6.974   1.153
 2177W        W 6241   7.970   4.411   3.162
 2178W        W 6242   1.416   4.659  11.472
 2179W        W 6243   4.718   8.932  10.735
 2180W        W 6244   6.718   7.208  11.901
 2181W        W 6245   8.005   9.912   8.506
 2182W        W 6246   9.489   4.085   2.252
 2183W        W 6247   9.384   8.030  10.469
 2184W        W 6248   5.002   3.288  10.752
 2185W        W 6249   5.655   5.832  11.669
 2186W        W 6250   3.684   9.550   8.972
 2187W        W 6251   4.097  10.458   9.030
 2188W        W 6252   5.638   8.479   2.186
 2189W        W 6253   3.314   6.642  10.864
 2190W        W 6254   1.652   6.614   0.066
 2191W        W 6255   8.066   1.238  10.876
 2192W        W 6256   3.272   6.644  10.338
 2193W        W 6257   9.579   1.802   2.533
 2194W        W 6258   8.946   0.865   3.350
 2195W        W 6259   7.339   4.372  11.834
 2196W        W 6260   1.183   2.731  10.668
 2197W        W 6261   1.163   4.499   0.519
 2198W        W 6262   3.356   2.044   1.818
 2199W        W 6263   2.181   7.022  10.949
 2200W        W 6264   4.514   3.185   0.805
 2201W        W 6265   5.641   6.023   0.551
 2202W        W 6266   5.336   6.818   1.904
 2203W        W 6267   1.751   3.636   1.356
 2204W        W 6268   7.618   4.058   9.579
 2205W        W 6269   9.350   7.588   1.760
 2206W        W 6270   6.973   1.952  11.707
 2207W        W 6271   1.713   5.213  10.799
 2208W        W 6272   2.831   0.572   0.806
 2209W        W 6273   9.523   6.992   9.328
 2210W        W 6274   2.626   4.142   1.852
 2211W        W 6275   2.440   6.263  11.942
 2212W        W 6276   6.187   4.708   1.583
 2213W        W 6277   0.604   8.158   0.791
 2214W        W 6278   9.004   8.324   9.216
 2215W        W 6279   9.663   1.321   8.162
 2216W        W 6280   6.439   5.200   9.105
 2217W        W 6281   3.688   5.718  11.217
 2218W        W 6282   2.550   5.577  10.453
 2219W        W 6283   5.351   1.740  10.386
 2220W        W 6284   5.273   1.283   0.157
 2221W        W 6285   8.828   7.846   1.008
 2222W        W 6286   8.781   5.087  10.335
 2223W        W 6287   6.684   5.684   2.821
 2224W        W 6288   3.173   5.305   0.424
 2225W        W 6289   8.653   2.248   0.815
 2226W        W 6290   0.670   7.916  10.984
 2227W        W 6291   8.581   9.050   8.662
 2228W        W 6292   3.352   3.037   3.178
 2229W        W 6293   2.293   0.254   2.750
 2230W        W 6294   5.241   2.136   2.618
 2231W        W 6295   6.937   8.046   9.884
 2232W        W 6296   1.858   0.114   2.231
 2233W        W 6297   2.875   9.887  10.885
 2234W        W 6298   4.036   9.120  11.483
 2235W        W 6299   1.876   2.247   3.711
 2236W        W 6300   7.008   4.001   3.536
 2237W        W 6301   0.325   0.500   9.768
 2238W        W 6302   9.027   2.279   2.827
 2239W        W 6303   2.859   2.692   1.397
 2240W        W 6304   7.124   7.932   3.005
 2241W        W 6305   3.186   1.803   9.185
 2242W        W 6306   4.620   1.296   2.009
 2243W        W 6307   9.430   9.234   9.629
 2244W        W 6308   0.414   0.737   8.774
 2245W        W 6309  10.295   8.308  11.247
 2246W        W 6310   5.403   0.376   8.867
 2247W        W 6311   0.826  10.322  11.487
 2248W        W 6312   8.453   9.497   0.695
 2249W        W 6313   7.999   2.354   3.539
 2250W        W 6314   3.491   8.906  10.326
 2251W        W 6315   4.206   6.065   0.957
 2252W        W 6316   5.285  10.475   9.746
 2253W        W 6317   7.342   8.392   3.151
 2254W        W 6318   6.649   0.210   2.460
 2255W        W 6319   1.604   9.584   2.113
 2256W        W 6320   4.369   1.963  10.460
 2257W        W 6321   1.525   4.699   2.274
 2258W        W 6322   3.172   9.481   9.009
 2259W        W 6323   8.955   1.118  11.366
 2260W        W 6324   3.070   2.197  11.734
 2261W        W 6325   3.370   8.345   9.317
 2262W        W 6326   1.407   7.576   9.510
 2263W        W 6327   0.930   7.390  11.903
 2264W        W 6328   5.161   9.057   2.808
 2265W        W 6329   6.968   6.961   1.864
 2266W        W 6330   1.866   2.151  10.358
 2267W        W 6331   9.004   0.539   0.290
 2268W        W 6332   7.564   6.820   9.809
 2269W        W 6333   6.659   1.177   0.008
 2270W        W 6334   1.427   5.143  11.787
 2271W        W 6335   4.554   9.295  11.059
 2272W        W 6336   4.609   9.329   3.436
 2273W        W 6337   3.372   7.873  11.561
 2274W        W 6338   1.061  10.480  11.929
 2275W        W 6339   8.917   1.529   0.268
 2276W        W 6340   3.648   5.547   1.979
 2277W        W 6341   6.201   1.865  10.466
 2278W        W 6342   3.044   6.989   3.189
 2279W        W 6343   1.076   1.882   1.378
 2280W        W 6344   7.345   9.655  11.059
 2281W        W 6345   8.153   9.458   2.898
 2282W        W 6346   3.268   4.264   8.804
 2283W        W 6347   2.269   9.073  11.444
 2284W        W 6348   1.549   6.167   2.883
 2285W        W 6349   8.201   2.547  11.020
 2286W        W 6350   5.669   2.047  11.985
 2287W        W 6351   1.574   1.771   1.282
 2288W        W 6352   0.427   7.131  10.647
 2289W        W 6353   0.446   2.110  11.445
 2290W        W 6354   1.262   3.842   8.585
 2291W        W 6355   1.958   7.010   0.956
 2292W        W 6356   0.975   0.280   0.620
 2293W        W 6357   3.678   2.207   3.037
 2294W        W 6358   8.970   4.171   0.422
 2295W        W 6359   2.393   8.613   0.358
 2296W        W 6360   1.770   4.241  10.968
 2297W        W 6361   1.917   8.410   8.584
 2298W        W 6362   4.252   7.044   0.192
 2299W        W 6363   9.202   7.447   2.260
 2300W        W 6364   0.704   4.016   2.882
 2301W        W 6365   2.142   7.981   9.698
 2302W        W 6366   7.117   6.782   4.070
 2303W        W 6367   9.440   6.169   0.705
 2304W        W 6368   7.690   9.727   0.835
 2305W        W 6369   1.058   9.450   2.797
 2306W        W 6370   6.892   1.269   2.188
 2307W        W 6371   2.329   4.790   3.232
 2308W        W 6372   3.842   8.478   1.410
 2309W        W 6373   8.898   8.384   0.977
 2310W        W 6374   3.954   6.730   1.992
 2311W        W 6375   9.171   3.580   8.945
 2312W        W 6376   5.556   9.850   2.187
 2313W        W 6377   0.444   6.175  11.659
 2314W        W 6378   8.805   6.669   0.568
 2315W        W 6379   6.127   1.848  11.547
 2316W        W 6380  10.456   1.328   1.944
 2317W        W 6381   9.853   1.744  10.004
 2318W        W 6382   9.986   1.168   0.017
 2319W        W 6383   8.982   1.982   1.618
 2320W        W 6384   7.983   2.717   1.723
 2321W        W 6385   1.550   5.378   0.222
 2322W        W 6386   0.847   8.104  10.561
 2323W        W 6387   6.691   7.999   0.274
 2324W        W 6388   5.448   5.227   2.660
 2325W        W 6389   0.018   8.378   2.678
 2326W        W 6390   9.989   2.674   3.425
 2327W        W 6391   3.155   3.539   1.748
 2328W        W 6392   9.853   3.241  11.824
 2329W        W 6393   7.177   3.082   9.305
 2330W        W 6394   1.351   0.510   8.586
 2331W        W 6395   3.467   4.168  10.756
 2332W        W 6396   7.653   5.993   8.383
 2333W        W 6397   4.832   2.788   0.930
 2334W        W 6398   1.725   5.855   9.720
 2335W        W 6399   7.375   6.061   1.782
 2336W        W 6400   4.138   8.833   2.328
 2337W        W 6401   4.536   3.630  10.125
 2338W        W 6402   0.746   1.658   0.463
 2339W        W 6403   1.559   6.434   1.929
 2340W        W 6404   4.335   1.005  11.404
 2341W        W 6405   7.082   7.639  10.197
 2342W        W 6406   1.692   0.069   0.359
 2343W        W 6407   4.385   2.641  11.065
 2344W        W 6408   4.231   3.403  11.424
 2345W        W 6409   3.538   1.723   0.869
 2346W        W 6410   6.459   0.208   1.987
 2347W        W 6411   5.086   4.084   8.156
 2348W        W 6412   3.202   4.640  10.045
 2349W        W 6413   1.456   0.775  11.878
 2350W        W 6414   8.948   8.421  10.113
 2351W        W 6415   8.988   7.917   1.543
 2352W        W 6416   2.919   0.267   0.412
 2353W        W 6417   9.970   8.778  11.930
 2354W        W 6418   2.212   6.037  10.997
 2355W        W 6419   3.622   2.598   0.746
 2356W        W 6420  10.147   8.735  10.732
 2357W        W 6421   1.872   7.424  11.160
 2358W        W 6422   0.228   0.241   8.853
 2359W        W 6423   7.468   7.551  11.427
 2360W        W 6424   8.528   6.531  11.787
 2361W        W 6425   9.645   6.621   0.896
 2362W        W 6426   7.250   3.205   1.015
 2363W        W 6427   7.745   9.112   9.052
 2364W        W 6428   8.908   7.842  10.610
 2365W        W 6429   3.360   6.916   8.528
 2366W        W 6430   6.694   1.688  10.269
 2367W        W 6431   3.282   7.888   0.669
 2368W        W 6432   4.571   9.847   3.157
 2369W        W 6433   9.685  10.207   9.785
 2370W        W 6434   9.869   5.437  11.521
 2371W        W 6435   7.932  10.202   0.861
 2372W        W 6436   6.629   8.744   2.994
 2373W        W 6437   0.374   1.421   2.694
 2374W        W 6438   0.156   6.744  10.874
 2375W        W 6439   7.500   5.545   1.696
 2376W        W 6440   6.674   1.666   9.752
 2377W        W 6441   6.410   5.753   1.596
 2378W        W 6442   3.385   9.761  11.631
 2379W        W 6443   4.762   1.240  11.871
 2380W        W 6444   1.182   6.103   3.243
 2381W        W 6445   6.285   3.657   0.939
 2382W        W 6446   8.141   3.071  10.847
 2383W        W 6447   7.136   5.474   2.812
 2384W        W 6448   5.679  10.266   2.435
 2385W        W 6449   1.376   6.560  10.185
 2386W        W 6450   8.059   7.564  10.323
 2387W        W 6451   8.014   2.232   2.506
 2388W        W 6452   7.048   3.347  11.583
 2389W        W 6453   2.749   8.800  10.059
 2390W        W 6454  10.077   0.151   1.629
 2391W        W 6455   1.875   6.410   3.170
 2392W        W 6456   1.663   9.234  10.769
 2393W        W 6457   2.697   4.488   0.044
 2394W        W 6458   4.493   6.615   2.705
 2395W        W 6459   1.393   7.216   1.516
 2396W        W 6460   2.228   6.004  10.453
 2397W        W 6461   7.423   4.539   1.315
 2398W        W 6462   4.689   9.360   0.073
 2399W        W 6463   8.769   5.211   3.217
 2400W        W 6464   9.842   6.973   0.584
 2401W        W 6465   4.836   5.048   1.203
 2402W        W 6466   3.119   6.436   8.326
 2403W        W 6467   2.585   3.856  11.939
 2404W        W 6468   7.512   7.514   1.862
 2405W        W 6469   6.947   0.857   1.891
 2406W        W 6470   9.497   1.530   0.766
 2407W        W 6471   7.536   5.470   1.187
 2408W        W 6472   5.040   9.657   2.170
 2409W        W 6473   1.982   2.880   9.389
 2410W        W 6474   6.908   5.607  11.529
 2411W        W 6475   9.815   5.610   0.043
 2412W        W 6476   4.266   8.347   9.226
 2413W        W 6477   2.340   2.265   2.800
 2414W        W 6478   6.992   4.196   0.188
 2415W        W 6479   0.363   7.602   3.336
 2416W        W 6480   7.014   9.856  11.771
 2417W        W 6481   5.100   5.394  11.502
 2418W        W 6482   3.815   6.480   9.632
 2419W        W 6483   2.946   9.892   9.464
 2420W        W 6484   7.929   3.325  11.625
 2421W        W 6485   3.527   4.320   9.503
 2422W        W 6486   0.797   1.135   0.977
 2423W        W 6487   7.094   5.802   4.051
 2424W        W 6488   3.755   9.896   8.593
 2425W        W 6489   4.211   7.941   0.676
 2426W        W 6490   9.067   2.368   0.554
 2427W        W 6491   8.461   2.839   1.558
 2428W        W 6492   9.399   4.580   2.091
 2429W        W 6493   8.228   1.035   1.842
 2430W        W 6494   2.993   9.243   3.166
 2431W        W 6495   5.007   0.371   3.066
 2432W        W 6496   8.542   7.962   1.900
 2433W        W 6497   8.114   6.597   9.530
 2434W        W 6498   5.204   4.632  10.511
 2435W        W 6499   6.043  10.127   9.409
 2436W        W 6500   8.329   1.716   0.273
 2437W        W 6501   1.918   7.369   1.795
 2438W        W 6502   3.270   9.404   0.577
 2439W        W 6503   3.965   1.063   3.506
 2440W        W 6504   9.904   1.297   9.235
 2441W        W 6505   5.903   4.094  11.410
 2442W        W 6506   7.994   5.649   1.853
 2443W        W 6507   7.453   8.213   2.689
 2444W        W 6508  10.278   7.933   2.621
 2445W        W 6509  10.163   6.729   0.904
 2446W        W 6510   5.725  10.292  10.667
 2447W        W 6511   5.664   0.732  11.702
 2448W        W 6512   4.212  10.332  10.836
 2449W        W 6513   3.706   6.951   2.426
 2450W        W 6514   7.024   9.964   3.642
 2451W        W 6515   3.247   3.816  11.507
 2452W        W 6516   1.200   5.661  11.351
 2453W        W 6517   2.114   3.161   0.779
 2454W        W 6518  10.487   7.010  10.416
 2455W        W 6519   4.005   2.262   9.867
 2456W        W 6520   5.911   2.656   9.543
 2457W        W 6521   3.577   6.576  11.327
 2458W        W 6522   4.738   3.210   9.397
 2459W        W 6523   3.827   2.370   2.579
 2460W        W 6524   6.375   6.679   3.654
 2461W        W 6525   0.187   6.603   2.629
 2462W        W 6526   8.664   6.491   3.429
 2463W        W 6527   4.553   7.962   9.473
 2464W        W 6528   3.661   1.360  11.838
 2465W        W 6529   5.698   7.966   8.725
 2466W        W 6530   0.839   5.030   1.269
 2467W        W 6531   0.975   3.293  10.923
 2468W        W 6532   6.553   4.371   1.399
 2469W        W 6533   6.991   2.010  10.961
 2470W        W 6534   7.613   6.681  10.343
 2471W        W 6535   4.121   9.643   9.242
 2472W        W 6536   4.985   7.771   1.614
 2473W        W 6537   1.146   8.924   3.537
 2474W        W 6538   4.090   3.104   1.048
 2475W        W 6539   1.371   1.459   3.304
 2476W        W 6540   3.850   9.855   9.621
 2477W        W 6541   3.289   1.354   1.680
 2478W        W 6542   8.466  10.255   0.256
 2479W        W 6543   3.290   8.964   2.867
 2480W        W 6544   8.019   8.188   2.000
 2481W        W 6545   0.733   9.011  10.367
 2482W        W 6546   7.268   2.841   3.440
 2483W        W 6547   9.236  10.311   0.569
 2484W        W 6548   5.967   0.355   1.911
 2485W        W 6549   7.161   4.187   1.583
 2486W        W 6550   6.156   9.089   3.196
 2487W        W 6551   8.657   3.637   8.996
 2488W        W 6552  10.481   5.306   0.378
 2489W        W 6553   8.969   2.493   1.496
 2490W        W 6554   6.486   1.952   8.727
 2491W        W 6555   6.229   7.758   3.140
 2492W        W 6556  10.006   9.216   0.845
 2493W        W 6557  10.458   8.000  10.249
 2494W        W 6558   7.980   7.312   0.786
 2495W        W 6559   3.327  10.004   8.919
 2496W        W 6560   5.978   9.117   9.536
 2497W        W 6561   8.860   0.437   3.058
 2498W        W 6562   4.413   7.057   8.429
 2499W        W 6563   1.189   8.508   2.262
 2500W        W 6564   8.633   7.023  11.761
 2501W        W 6565   5.243   8.691   1.163
 2502W        W 6566   3.753   3.854   3.107
 2503W        W 6567   6.033   1.226   1.721
 2504W        W 6568  10.389   5.759   3.273
 2505W        W 6569   3.293   0.228   2.127
 2506W        W 6570  10.418   5.754   0.683
 2507W        W 6571   9.281   2.598   3.163
 2508W        W 6572  10.077   3.037   0.360
 2509W        W 6573   1.698   7.044   3.197
 2510W        W 6574   3.632   6.747   0.705
 2511W        W 6575   8.168   7.073   9.694
 2512W        W 6576   4.209   7.022   2.349
 2513W        W 6577   5.614   8.935   9.197
 2514W        W 6578   9.310   3.311   1.414
 2515W        W 6579   8.810   7.129   2.195
 2516W        W 6580   3.529   7.523   0.025
 2517W        W 6581   2.780   6.451   1.364
 2518W        W 6582   3.070   3.136   0.916
 2519W        W 6583   8.597   3.311   0.623
 2520W        W 6584   7.471   1.368   9.192
 2521W        W 6585   0.482   9.423  10.577
 2522W        W 6586   7.353   6.739   1.536
 2523W        W 6587   5.154   3.908   4.185
 2524W        W 6588   1.270   9.440   1.758
 2525W        W 6589   8.031   3.801   9.804
 2526W        W 6590   8.165   7.114   9.145
 2527W        W 6591   1.257   0.478   9.469
 2528W        W 6592   5.592   3.181   1.012
 2529W        W 6593   1.704   2.197   0.954
 2530W        W 6594   8.500   0.222   3.439
 2531W        W 6595   2.850   8.350   1.221
 2532W        W 6596   5.474   9.900   8.582
 2533W        W 6597   0.774   6.115  10.372
 2534W        W 6598   6.704   0.152   3.345
 2535W        W 6599   2.288   6.269   1.285
 2536W        W 6600   8.419   2.159   3.296
 2537W        W 6601   2.270   0.446  10.734
 2538W        W 6602   3.137   2.800   2.796
 2539W        W 6603   0.358   0.174   2.026
 2540W        W 6604   7.555   7.660  10.003
 2541W        W 6605   7.010   8.367   9.103
 2542W        W 6606   7.264   9.566   3.401
 2543W        W 6607   2.383   0.803  10.391
 2544W        W 6608   4.696   8.372   1.908
 2545W        W 6609   5.542   8.129  11.750
 2546W        W 6610   0.190   3.615  11.508
 2547W        W 6611   8.869   9.114  11.097
 2548W        W 6612  10.391   6.506  10.516
 2549W        W 6613   0.236   2.846   8.830
 2550W        W 6614   0.046   1.656   9.888
 2551W        W 6615   1.418  10.044  11.221
 2552W        W 6616   4.465   5.185   1.537
 2553W        W 6617   6.104   2.545   2.150
 2554W        W 6618   3.254   0.903  11.923
 2555W        W 6619   2.140   6.632   9.851
 2556W        W 6620   8.073   4.098   1.813
 2557W        W 6621   7.949   8.146   2.545
 2558W        W 6622   7.039   8.576  10.516
 2559W        W 6623   7.605   2.296   1.701
 2560W        W 6624   9.282   4.054   2.726
 2561W        W 6625   9.978   4.225   0.955
 2562W        W 6626   7.463   9.447   0.432
 2563W        W 6627   9.057   0.774   0.798
 2564W        W 6628   3.075   5.624  10.353
 2565W        W 6629   6.424   5.411   8.646
 2566W        W 6630   5.678   3.023  11.947
 2567W        W 6631   4.272   0.804   1.418
 2568W        W 6632   2.759   9.281  11.276
 2569W        W 6633   3.616   2.723  11.263
 2570W        W 6634   7.184   9.362   0.924
 2571W        W 6635   5.680   1.858   9.985
 2572W        W 6636   3.671   2.131   0.543
 2573W        W 6637  10.495   5.195   9.070
 2574W        W 6638   4.652   9.841  11.271
 2575W        W 6639  10.114   4.972   1.971
 2576W        W 6640   7.463   9.339   1.766
 2577W        W 6641   4.287   7.593  10.797
 2578W        W 6642   3.174   4.594  11.901
 2579W        W 6643  10.217   4.966  10.509
 2580W        W 6644   5.602   5.522  11.225
 2581W        W 6645   0.476   4.641   2.867
 2582W        W 6646   8.123   3.891   0.298
 2583W        W 6647   2.418   8.507   2.473
 2584W        W 6648   1.261   4.203   9.361
 2585W        W 6649   7.965   0.791  11.374
 2586W        W 6650   3.377   0.895   1.918
 2587W        W 6651   5.653   5.004   0.700
 2588W        W 6652   1.976   1.613   1.585
 2589W        W 6653   4.058   5.769   9.182
 2590W        W 6654   6.577   8.448   1.267
 2591W        W 6655   3.684   6.659   8.853
 2592W        W 6656   1.807   1.064   0.170
 2593W        W 6657   5.092   7.348   3.003
 2594W        W 6658   6.143   8.642   2.903
 2595W        W 6659   1.387   5.871   0.260
 2596W        W 6660   3.058   6.532  11.357
 2597W        W 6661   0.870   9.296   8.993
 2598W        W 6662   3.108   9.949  10.263
 2599W        W 6663   2.513   7.199   1.921
 2600W        W 6664   0.399   7.748  10.131
 2601W        W 6665   7.273   3.657   0.759
 2602W        W 6666   2.918   1.730   1.445
 2603W        W 6667   1.967   3.103   3.226
 2604W        W 6668   3.727   1.874  10.749
 2605W        W 6669   9.348   2.849  10.413
 2606W        W 6670   0.845   1.380   1.450
 2607W        W 6671   1.294   3.478   2.009
 2608W        W 6672   3.092   8.816   2.425
 2609W        W 6673  10.276   9.875  10.313
 2610W        W 6674   3.789  10.425  11.693
 2611W        W 6675   1.406   5.219   9.192
 2612W        W 6676   1.318   8.296   0.059
 2613W        W 6677   6.072   4.801  10.133
 2614W        W 6678   1.322   2.337   3.567
 2615W        W 6679   3.533   4.975   3.567
 2616W        W 6680   3.977   5.721   0.175
 2617W        W 6681   6.695   3.638  10.517
 2618W        W 6682   8.496   1.882   9.868
 2619W        W 6683   2.715   6.700   2.754
 2620W        W 6684   4.233   9.875   0.719
 2621W        W 6685   8.201   6.504   1.303
 2622W        W 6686   8.939   0.097   9.520
 2623W        W 6687   5.075   9.426  10.253
 2624W        W 6688   6.512  10.316  11.107
 2625W        W 6689   7.234   7.280  11.794
 2626W        W 6690   6.601   1.235  11.013
 2627W        W 6691   2.019   1.844  11.221
 2628W        W 6692   9.574   5.517  10.773
 2629W        W 6693   0.505   4.673   2.351
 2630W        W 6694   9.412   4.725   1.553
 2631W        W 6695   8.484   4.255   8.985
 2632W        W 6696   8.301   8.822  10.381
 2633W        W 6697   6.754   8.461   9.620
 2634W        W 6698   6.465   8.120   9.398
 2635W        W 6699   2.260   3.398  11.977
 2636W        W 6700   6.443   7.929   9.908
 2637W        W 6701   0.674   5.406   2.844
 2638W        W 6702   2.777   0.720   8.571
 2639W        W 6703   8.611   0.478  10.814
 2640W        W 6704   7.508   6.229  11.511
 2641W        W 6705   1.977   0.832  10.918
 2642W        W 6706   6.096   9.967   3.298
 2643W        W 6707   8.886  10.389   2.207
 2644W        W 6708   6.416   5.507  11.649
 2645W        W 6709   7.069   4.424   9.425
 2646W        W 6710   8.611   5.903   0.454
 2647W        W 6711   5.806   9.917   0.888
 2648W        W 6712   2.066   3.894   2.662
 2649W        W 6713   7.372   2.237  11.240
 2650W        W 6714   5.646   7.787   1.849
 2651W        W 6715  10.268   0.797   8.627
 2652W        W 6716   1.419   8.462   8.654
 2653W        W 6717   9.839   3.851   0.647
 2654W        W 6718   0.868   2.220  11.727
 2655W        W 6719   9.712   0.267  11.735
 2656W        W 6720   2.178   0.890   3.313
 2657W        W 6721   4.828   6.895   1.912
 2658W        W 6722   0.263  10.378   0.309
 2659W        W 6723   1.622   0.746   9.967
 2660W        W 6724   9.241   2.719   0.204
 2661W        W 6725   8.892   0.663   2.141
 2662W        W 6726   4.396   6.568   8.175
 2663W        W 6727   4.014   2.889   9.035
 2664W        W 6728   8.565   3.352  10.773
 2665W        W 6729   9.958   3.516  10.533
 2666W        W 6730   8.885   4.554   9.141
 2667W        W 6731   0.514   9.052   1.633
 2668W        W 6732   5.154   0.407   0.210
 2669W        W 6733   8.364   8.054   8.635
 2670W        W 6734   4.432   1.661   3.616
 2671W        W 6735   7.711   0.316   9.428
 2672W        W 6736   8.936   4.726   3.113
 2673W        W 6737   3.817   5.367  11.864
 2674W        W 6738   2.841   2.116   1.774
 2675W        W 6739   7.516  10.475   9.036
 2676W        W 6740   2.517  10.166   9.358
 2677W        W 6741   7.813   5.304   0.768
 2678W        W 6742   6.566   7.721  11.853
 2679W        W 6743   3.074   4.301   9.277
 2680W        W 6744   4.784   7.340   0.376
 2681W        W 6745   7.923   8.052  11.801
 2682W        W 6746   3.797   3.312  10.552
 2683W        W 6747   2.181   5.713   9.048
 2684W        W 6748   0.001   6.108  11.889
 2685W        W 6749  10.224   0.302   2.561
 2686W        W 6750   3.217   9.113   9.956
 2687W        W 6751   9.446   4.733   1.024
 2688W        W 6752   5.970   1.264   2.254
 2689W        W 6753   8.720   6.718   8.681
 2690W        W 6754   2.852   2.874  10.803
 2691W        W 6755   5.086   8.117  11.949
 2692W        W 6756   9.315   2.882   0.667
 2693W        W 6757   1.392   4.174   1.450
 2694W        W 6758   7.352   9.496  10.232
 2695W        W 6759   4.082   0.585  10.374
 2696W        W 6760   4.226   1.893   8.896
 2697W        W 6761   8.972   5.612   2.948
 2698W        W 6762   4.498   2.837  10.587
 2699W        W 6763   2.832   4.610   2.019
 2700W        W 6764   7.662   8.511  11.139
 2701W        W 6765  10.279   2.336   1.950
 2702W        W 6766  10.255  10.410   0.337
 2703W        W 6767  10.168   2.668  11.498
 2704W        W 6768   7.922   2.249   9.038
 2705W        W 6769   8.094   0.918  11.896
 2706W        W 6770   4.058   5.138   2.830
 2707W        W 6771   3.313   4.648   8.461
 2708W        W 6772   8.475  10.236  10.442
 2709W        W 6773   8.143   5.682   9.798
 2710W        W 6774   3.174   3.930   3.475
 2711W        W 6775   9.511   6.227   1.230
 2712W        W 6776   5.001   1.256   9.703
 2713W        W 6777   3.151   8.374   3.099
 2714W        W 6778   0.424  10.001  11.374
 2715W        W 6779   0.726   4.824   9.314
 2716W        W 6780   1.825   4.712   3.035
 2717W        W 6781   8.403  10.134   3.577
 2718W        W 6782   2.450   8.221  11.274
 2719W        W 6783   7.162  10.439   1.730
 2720W        W 6784   2.871   1.857  10.986
 2721W        W 6785   1.172   5.105   0.899
 2722W        W 6786   6.379   5.282  10.805
 2723W        W 6787   5.666   6.497   2.185
 2724W        W 6788   4.542   1.475  10.431
 2725W        W 6789   2.476   1.246   2.678
 2726W        W 6790   4.140   7.408   9.925
 2727W        W 6791   5.449   1.279   8.915
 2728W        W 6792   3.702   6.011   2.188
 2729W        W 6793   6.133   0.818   2.014
 2730W        W 6794   0.270   6.346   9.752
 2731W        W 6795   6.269   8.496  11.464
 2732W        W 6796  10.329   8.975   1.178
 2733W        W 6797   4.110   2.641   3.577
 2734W        W 6798   7.666   1.145  10.066
 2735W        W 6799  10.194   2.630   0.683
 2736W        W 6800   3.660   6.497   1.189
 2737W        W 6801   6.256   6.972   2.824
 2738W        W 6802   9.037   1.305   0.750
 2739W        W 6803   9.088   7.918   2.046
 2740W        W 6804   2.758   9.003   1.630
 2741W        W 6805   2.642   1.479  11.798
 2742W        W 6806   0.295   9.444   1.996
 2743W        W 6807   1.308   6.838   0.431
 2744W        W 6808   4.756   2.107   3.606
 2745W        W 6809  10.230   3.053   1.206
 2746W        W 6810   5.514   3.797   9.968
 2747W        W 6811   7.815   4.213  10.033
 2748W        W 6812   4.875   1.677  11.473
 2749W        W 6813   6.471  10.338   0.409
 2750W        W 6814   2.534   1.869   0.981
 2751W        W 6815   7.012   7.887   8.883
 2752W        W 6816   0.304  10.215  10.941
 2753W        W 6817  10.446   6.115   9.374
 2754W        W 6818   3.802   7.939  11.865
 2755W        W 6819   1.208   0.891   0.828
 2756W        W 6820   5.228   1.315   3.418
 2757W        W 6821   2.283   5.238   1.398
 2758W        W 6822   2.728   4.986   1.352
 2759W        W 6823   0.782   9.581   9.406
 2760W        W 6824   3.367   4.419   4.262
 2761W        W 6825   4.048   9.310  10.960
 2762W        W 6826   3.037   7.119  10.874
 2763W        W 6827   0.859   2.064   3.659
 2764W        W 6828   9.628   5.070   9.572
 2765W        W 6829   8.605   3.798   0.405
 2766W        W 6830   0.405  10.475   9.264
 2767W        W 6831   4.533   5.702  10.051
 2768W        W 6832   3.180  10.483   8.736
 2769W        W 6833   7.093   8.831   3.194
 2770W        W 6834   7.905   2.790   9.471
 2771W        W 6835   9.315   9.079  11.710
 2772W        W 6836   5.589   0.905   9.723
 2773W        W 6837   8.257   4.174  11.774
 2774W        W 6838   8.817   5.513   9.153
 2775W        W 6839   5.086   3.382   4.239
 2776W        W 6840   4.383   4.305  11.331
 2777W        W 6841   9.497   5.941  11.798
 2778W        W 6842   2.781   4.412   9.767
 2779W        W 6843   2.193   6.040   3.357
 2780W        W 6844   5.147   1.078   1.410
 2781W        W 6845   7.765  10.438   9.865
 2782W        W 6846   4.669   2.182   8.849
 2783W        W 6847   0.411  -0.000   9.788
 2784W        W 6848   8.501   0.796   2.782
 2785W        W 6849   6.559   7.439  11.432
 2786W        W 6850   4.378   8.774  11.648
 2787W        W 6851   3.772   9.964   0.934
 2788W        W 6852   8.408   2.641   2.021
 2789W        W 6853   9.570   8.650   1.621
 2790W        W 6854   2.085   9.401  10.509
 2791W        W 6855   0.031   4.561   2.563
 2792W        W 6856   8.440   4.681   3.232
 2793W        W 6857   8.514   9.714   8.507
 2794W        W 6858   2.668   7.845  10.845
 2795W        W 6859   4.424   2.006   1.020
 2796W        W 6860   5.991   7.669   2.692
 2797W        W 6861   1.696   6.349   9.855
 2798W        W 6862   7.966   0.324   1.103
 2799W        W 6863   1.830   0.462   1.209
 2800W        W 6864   8.055   1.459   9.860
 2801W        W 6865   7.452   2.532   9.856
 2802W        W 6866   8.872   3.982   2.447
 2803W        W 6867   3.144   0.211   3.172
 2804W        W 6868   9.972   5.650  11.062
 2805W        W 6869   2.874   5.706   3.445
 2806W        W 6870   8.790   4.231   9.978
 2807W        W 6871   9.909   7.057  11.122
 2808W        W 6872   8.388   5.825   2.653
 2809W        W 6873   8.346   3.520   2.338
 2810W        W 6874   4.591   2.761   9.589
 2811W        W 6875   4.536   6.165   9.831
 2812W        W 6876   0.424   9.777   0.760
 2813W        W 6877   0.518   4.643  11.049
 2814W        W 6878   1.752   4.605   1.482
 2815W        W 6879   5.273   8.410   9.889
 2816W        W 6880   5.476   4.643   1.727
 2817W        W 6881   0.886   4.493   8.985
 2818W        W 6882   2.808   8.619   8.879
 2819W        W 6883   0.979   0.987  10.715
 2820W        W 6884   0.335   7.496   9.678
 2821W        W 6885   4.752   4.589   2.964
 2822W        W 6886   5.107   5.923   1.822
 2823W        W 6887   8.428   4.232  10.326
 2824W        W 6888   6.974   9.409   1.950
 2825W        W 6889   2.267   6.511   3.514
 2826W        W 6890   5.257   1.393  11.176
 2827W        W 6891   7.411   4.188   0.499
 2828W        W 6892   0.313   8.789   2.617
 2829W        W 6893   2.453   0.262   1.027
 2830W        W 6894   7.875   1.380   2.575
 2831W        W 6895   8.197   6.010   2.208
 2832W        W 6896  10.199   8.875  10.256
 2833W        W 6897   1.394   8.825  10.903
 2834W        W 6898   4.264   1.255  10.964
 2835W        W 6899   1.884   8.437   1.205
 2836W        W 6900   3.926   8.807   9.504
 2837W        W 6901   5.206   2.341   3.683
 2838W        W 6902   0.810   9.039   1.147
 2839W        W 6903   7.389   1.828   1.832
 2840W        W 6904   7.697   9.544   8.762
 2841W        W 6905   5.873   0.340   8.590
 2842W        W 6906   8.029   3.818  11.464
 2843W        W 6907   1.317   4.460  10.936
 2844W        W 6908   0.416   4.977   0.673
 2845W        W 6909   8.914   5.788   0.064
 2846W        W 6910   6.998   1.325   8.985
 2847W        W 6911   7.824   9.851  11.137
 2848W        W 6912   6.852   8.488   0.406
 2849W        W 6913   5.149   0.831   9.963
 2850W        W 6914   5.594   5.029  10.332
 2851W        W 6915   3.643   8.572   9.953
 2852W        W 6916   8.793  10.375   1.689
 2853W        W 6917   2.566   3.560   0.343
 2854W        W 6918   8.476   1.459   9.556
 2855W        W 6919   5.030   5.695  10.907
 2856W        W 6920   8.588   9.114   1.017
 2857W        W 6921   3.351   2.647  11.692
 2858W        W 6922   0.090   7.414   2.342
 2859W        W 6923   5.673   2.157  10.422
 2860W        W 6924   5.876   6.051   9.027
 2861W        W 6925   9.470   6.646   9.713
 2862W        W 6926   1.151   4.710   9.935
 2863W        W 6927   9.372   2.270   2.436
 2864W        W 6928   4.699   4.601   8.885
 2865W        W 6929   4.193   2.749   2.677
 2866W        W 6930   3.111   5.313   1.392
 2867W        W 6931   0.907   7.000   2.237
 2868W        W 6932   8.411   0.260   0.253
 2869W        W 6933   1.742   1.240  10.745
 2870W        W 6934  10.435   8.115   0.528
 2871W        W 6935   7.197   9.992   9.743
 2872W        W 6936   3.557   2.859  10.517
 2873W        W 6937   4.086   4.704   4.199
 2874W        W 6938   3.939  10.326  10.342
 2875W        W 6939   0.441   9.970   9.344
 2876W        W 6940   6.087  10.440   2.184
 2877W        W 6941   6.519   8.610  10.595
 2878W        W 6942   2.443   0.579   8.977
 2879W        W 6943   5.620   6.009   1.985
 2880W        W 6944   7.587   4.033   1.938
 2881W        W 6945   9.472   8.567  11.826
 2882W        W 6946   1.897   0.328   9.820
 2883W        W 6947   8.846   7.513   1.839
 2884W        W 6948   7.550   4.164   3.331
 2885W        W 6949   3.220   7.858   9.046
 2886W        W 6950   3.708   8.710   0.404
 2887W        W 6951   1.239   2.399   8.681
 2888W        W 6952   1.231   2.425   0.934
 2889W        W 6953   3.747   9.066   9.902
 2890W        W 6954   0.363   3.244   0.298
 2891W        W 6955   4.365   2.625  11.728
 2892W        W 6956   0.269   7.439   9.172
 2893W        W 6957   8.496   7.550  10.583
 2894W        W 6958   5.256   6.184   2.270
 2895W        W 6959  10.404   0.470   0.685
 2896W        W 6960   1.346   1.202   9.955
 2897W        W 6961   7.014   5.658   8.239
 2898W        W 6962   4.205   8.276  11.703
 2899W        W 6963  10.407   5.472   2.168
 2900W        W 6964   4.492   6.545   9.002
 2901W        W 6965   4.230   4.895   9.107
 2902W        W 6966   1.390   8.495   1.280
 2903W        W 6967   3.448   5.367  11.519
 2904W        W 6968   3.240   3.322  10.451
 2905W        W 6969   3.652   4.030   9.911
 2906W        W 6970   1.785   9.860   1.703
 2907W        W 6971   4.004   2.089   9.360
 2908W        W 6972   9.347   7.493  10.097
 2909W        W 6973   7.560   0.622   3.554
 2910W        W 6974   2.054   9.606   2.360
 2911W        W 6975   0.618   5.372   0.974
 2912W        W 6976   0.388   3.345   8.944
 2913W        W 6977   6.608   5.964   8.323
 2914W        W 6978   2.440   1.682  10.781
 2915W        W 6979   9.220   7.539   0.808
 2916W        W 6980   8.964   1.177  11.890
 2917W        W 6981   6.056   4.663   9.604
 2918W        W 6982   3.109   5.671   9.397
 2919W        W 6983   6.738   6.419   0.423
 2920W        W 6984  10.491   0.765   9.087
 2921W        W 6985   5.500   1.785   3.002
 2922W        W 6986   3.772   5.474   9.809
 2923W        W 6987   7.037   9.413   9.488
 2924W        W 6988   5.671   7.484   8.521
 2925W        W 6989   8.435   9.371   1.444
 2926W        W 6990   2.130   8.879  10.565
 2927W        W 6991   1.698   9.393   1.459
 2928W        W 6992   9.882   5.902   3.261
 2929W        W 6993   1.112   9.409   3.338
 2930W        W 6994   6.466   4.194   3.702
 2931W        W 6995   6.519   8.929  11.002
 2932W        W 6996   6.783   3.620   0.855
 2933W        W 6997   1.748   3.567  11.939
 2934W        W 6998   1.509   8.051   1.009
 2935W        W 6999   0.776   5.685   1.991
 2936W        W 7000   1.666   1.744   2.932
 2937W        W 7001   7.240   6.716   9.406
 2938W        W 7002   2.157   5.692  11.387
 2939W        W 7003   4.776   9.963  10.786
 2940W        W 7004   7.814   5.098  10.364
 2941W        W 7005   9.759   5.032   0.430
 2942W        W 7006   3.415   8.807   9.548
 2943W        W 7007  10.408   8.857  11.716
 2944W        W 7008   6.415   5.606   9.928
 2945W        W 7009   1.190   4.067   2.822
 2946W        W 7010   9.508   9.128   1.840
 2947W        W 7011   1.872  10.230   9.245
 2948W        W 7012   8.355   4.650  11.932
 2949W        W 7013   4.065  10.463   0.131
 2950W        W 7014   2.561   1.619   1.810
 2951W        W 7015   0.347   9.099   9.873
 2952W        W 7016   8.494   1.219   0.082
 2953W        W 7017   5.062  10.387   0.915
 2954W        W 7018   7.436   0.346   9.849
 2955W        W 7019   6.051   9.554   2.990
 2956W        W 7020   8.786   4.521  11.003
 2957W        W 7021   8.512   4.703  10.042
 2958W        W 7022   0.976   2.614   0.057
 2959W        W 7023   6.693   2.415   1.307
 2960W        W 7024   3.841   2.212   0.058
 2961W        W 7025   7.039   4.635   2.429
 2962W        W 7026   6.008   6.141  10.867
 2963W        W 7027   2.445   3.236   3.392
 2964W        W 7028   6.662   7.287   9.115
 2965W        W 7029  10.257   8.777   0.701
 2966W        W 7030   4.152   0.023  11.308
 2967W        W 7031   2.647  10.423   0.691
 2968W        W 7032   7.918   6.365   8.609
 2969W        W 7033   2.727   9.023   2.748
 2970W        W 7034   0.711   2.190   9.513
 2971W        W 7035   5.993   3.746   1.818
 2972W        W 7036   2.141   2.885  10.408
 2973W        W 7037   7.696   5.968   7.871
 2974W        W 7038  10.455   3.870   3.211
 2975W        W 7039   1.356   1.202  11.045
 2976W        W 7040   2.624   8.392  11.749
 2977W        W 7041   2.911   4.185   2.295
 2978W        W 7042   1.373   7.171   2.304
 2979W        W 7043   9.560   4.241   8.995
 2980W        W 7044   8.820   7.129   8.375
 2981W        W 7045   9.933   5.728   0.941
 2982W        W 7046   7.502   6.794   2.426
 2983W        W 7047   7.111   5.222   7.978
 2984W        W 7048   4.084   3.651   9.361
 2985W        W 7049   2.129   8.017   2.975
 2986W        W 7050   8.551   0.243   8.869
 2987W        W 7051   0.300   8.430   2.216
 2988W        W 7052   9.604   8.082  11.433
 2989W        W 7053   2.820   9.536  10.322
 2990W        W 7054   3.851   2.672  11.773
 2991W        W 7055   8.883   7.285   2.709
 2992W        W 7056   2.363   2.531   0.190
 2993W        W 7057   8.658   8.662   3.517
 2994W        W 7058   1.795   3.296  10.550
 2995W        W 7059  10.374   0.592  10.983
 2996W        W 7060   1.129   0.690   9.995
 2997W        W 7061   9.438   1.304  11.345
 2998W        W 7062   9.500   6.078   9.490
 2999W        W 7063   6.130   4.224   1.707
 3000W        W 7064   5.421   7.089   8.204
 3001W        W 7065   5.593   9.350   2.836
 3002W        W 7066   0.918   8.167   1.676
 3003W        W 7067   4.634   7.525   0.818
 3004W        W 7068   4.139   3.809  10.390
 3005W        W 7069   0.278   0.731   0.446
 3006W        W 7070   3.678   7.472   1.402
 3007W        W 7071   3.952   5.269   8.097
 3008W        W 7072   1.258   8.550   1.769
 3009W        W 7073   4.734   2.250   1.738
 3010W        W 7074   6.519   2.204  10.962
 3011W        W 7075   8.905   8.183   2.451
 3012W        W 7076   9.103   3.649   3.441
 3013W        W 7077  10.417   3.784   9.317
 3014W        W 7078   6.604   8.189   0.780
 3015W        W 7079   8.857   9.470   0.291
 3016W        W 7080   5.646   8.403   9.025
 3017W        W 7081   2.218   3.756   9.299
 3018W        W 7082   9.113   6.520  10.059
 3019W        W 7083   3.345   3.154   9.576
 3020W        W 7084   5.215   1.772   9.336
 3021W        W 7085   3.994   8.027  10.760
 3022W        W 7086   6.939   4.274  10.840
 3023W        W 7087   0.721   8.037   3.180
 3024W        W 7088   8.352   9.728  10.407
 3025W        W 7089   5.008   7.094  10.450
 3026W        W 7090   0.969   0.925   0.013
 3027W        W 7091   0.889  10.440   9.083
 3028W        W 7092   7.794   4.019   8.967
 3029W        W 7093   3.705   5.494   3.970
 3030W        W 7094   6.528   2.645  11.396
 3031W        W 7095   8.731   7.659   3.579
 3032W        W 7096   6.922   1.775   0.210
 3033W        W 7097   1.249   3.959  10.916
 3034W        W 7098   4.067   3.048   8.508
 3035W        W 7099  10.364   9.725   1.956
 3036W        W 7100   3.051   2.620   0.087
 3037W        W 7101   0.410   1.052   3.608
 3038W        W 7102   0.063   2.666   2.849
 3039W        W 7103   7.587   2.267   2.226
 3040W        W 7104   1.209   8.096   3.020
 3041W        W 7105   9.456   7.330  11.099
 3042W        W 7106   1.809   4.398   3.517
 3043W        W 7107   3.067   1.892   2.439
 3044W        W 7108   4.401   2.013  11.401
 3045W        W 7109   4.528   1.272   8.904
 3046W        W 7110   2.210   0.687   0.906
 3047W        W 7111   9.958   5.849  10.067
 3048W        W 7112   9.396   3.799   9.338
 3049W        W 7113   3.419   4.243   3.136
 3050W        W 7114   6.657   1.148   3.182
 3051W        W 7115   9.378   2.036   9.342
 3052W        W 7116   5.655   0.327   0.479
 3053W        W 7117   8.384   7.355   0.354
 3054W        W 7118   3.662   4.626   3.903
 3055W        W 7119   0.812   6.155   1.797
 3056W        W 7120   0.216   5.562   8.748
 3057W        W 7121   9.023   6.230   0.375
 3058W        W 7122   8.742   3.520  10.239
 3059W        W 7123   8.575   6.947  11.236
 3060W        W 7124   9.863   6.616  11.932
 3061W        W 7125   3.789   4.680   2.940
 3062W        W 7126   4.965   9.032   0.358
 3063W        W 7127   6.708  10.026   9.894
 3064W        W 7128   6.211   5.882   8.676
 3065W        W 7129   8.994   7.456   1.340
 3066W        W 7130   5.559   7.944   0.797
 3067W        W 7131   5.305   3.103  10.395
 3068W        W 7132   5.939   1.390   0.715
 3069W        W 7133   5.785   3.642   0.941
 3070W        W 7134   1.382   6.341   0.439
 3071W        W 7135   3.637   3.107  11.571
 3072W        W 7136   0.566   6.421   2.919
 3073W        W 7137   4.612   6.989   0.937
 3074W        W 7138   0.824   6.903  11.845
 3075W        W 7139   9.442   3.800   0.946
 3076W        W 7140   7.509   1.179   2.908
 3077W        W 7141   7.029   2.141   1.019
 3078W        W 7142   8.900   4.027  10.987
 3079W        W 7143   3.548   7.571   8.746
 3080W        W 7144   3.258   0.756   9.280
 3081W        W 7145   3.684   4.156   1.073
 3082W        W 7146  10.346   7.482   1.709
 3083W        W 7147   6.057   9.941   1.315
 3084W        W 7148  10.424  10.349   9.080
 3085W        W 7149   8.610   8.086   0.588
 3086W        W 7150   7.590   7.561   1.007
 3087W        W 7151   5.198   7.440   8.815
 3088W        W 7152   2.212   1.431   2.189
 3089W        W 7153   6.471   4.069  10.750
 3090W        W 7154   9.906   8.426  10.424
 3091W        W 7155   1.640   4.297   2.755
 3092W        W 7156   2.385   8.135   1.874
 3093W        W 7157   8.363   3.133  11.818
 3094W        W 7158   6.729  10.234  11.947
 3095W        W 7159   9.920   3.522  10.026
 3096W        W 7160   5.254   4.516   1.268
 3097W        W 7161   2.953   1.805   3.479
 3098W        W 7162   0.899   4.244   8.544
 3099W        W 7163   7.189   8.061   3.523
 3100W        W 7164   6.836   8.320   3.185
 3101W        W 7165   5.551   6.376  10.722
 3102W        W 7166   2.189   8.951   3.220
 3103W        W 7167   6.072   8.486   1.362
 3104W        W 7168   1.857   4.534  11.979
 3105W        W 7169   9.984   0.389   9.716
 3106W        W 7170   6.130   8.140   2.792
 3107W        W 7171   3.938   5.934   4.101
 3108W        W 7172   5.030   5.128   9.614
 3109W        W 7173   7.007   9.016  10.779
 3110W        W 7174   8.928   1.695  10.064
 3111W        W 7175   7.329   0.964   1.569
 3112W        W 7176   9.854   4.822   9.133
 3113W        W 7177   2.751   2.853   3.174
 3114W        W 7178   7.895   2.440  10.064
 3115W        W 7179   4.702   1.077  10.703
 3116W        W 7180   7.140   5.702  10.527
 3117W        W 7181   2.726   3.275   2.470
 3118W        W 7182   6.000   5.228   9.847
 3119W        W 7183   1.370   6.652   2.508
 3120W        W 7184   7.824   5.187   3.236
 3121W        W 7185   9.753   1.722   9.471
 3122W        W 7186   6.519   3.157  11.230
 3123W        W 7187   7.086   0.931   3.477
 3124W        W 7188   5.982   0.029   0.241
 3125W        W 7189   7.414   8.524   0.383
 3126W        W 7190   8.461   4.796   8.931
 3127W        W 7191   8.600   5.748   1.291
 3128W        W 7192   8.878   6.470   2.445
 3129W        W 7193   7.446   2.707   2.472
 3130W        W 7194   3.717   5.109  11.137
 3131W        W 7195   3.005   9.386  10.799
 3132W        W 7196   4.035   0.430   9.220
 3133W        W 7197   3.989   1.862   2.336
 3134W        W 7198   8.146   0.537   1.952
 3135W        W 7199   8.136   5.551  10.303
 3136W        W 7200   3.796  10.381   3.227
 3137W        W 7201   5.141   9.031   9.451
 3138W        W 7202   0.187   3.095  11.531
 3139W        W 7203   8.830   5.065  10.890
 3140W        W 7204   0.895   9.990   0.671
 3141W        W 7205   5.441   5.135   3.171
 3142W        W 7206   7.901   0.771   9.208
 3143W        W 7207   9.567   1.234   9.749
 3144W        W 7208   2.265   4.359   9.077
 3145W        W 7209   9.292   8.057  11.869
 3146W        W 7210   5.120   9.965   3.073
 3147W        W 7211   5.570   5.355  10.738
 3148W        W 7212   2.257   6.539   2.550
 3149W        W 7213   5.690   2.142  11.482
 3150W        W 7214   5.910   1.386   9.107
 3151W        W 7215   7.715   5.180   8.442
 3152W        W 7216   9.902   0.201   3.363
 3153W        W 7217   0.443   4.225   8.767
 3154W        W 7218  10.389   2.331  10.378
 3155W        W 7219   4.813   6.918   2.996
 3156W        W 7220   9.421   1.021  10.911
 3157W        W 7221   9.899   9.403   2.009
 3158W        W 7222   3.687   2.646   8.683
 3159W        W 7223   7.892   6.847   8.791
 3160W        W 7224   4.660   5.266  11.294
 3161W        W 7225   1.882   7.551  11.662
 3162W        W 7226   4.605   7.321   3.266
 3163W        W 7227   6.236   6.412  11.882
 3164W        W 7228   8.481   5.544   2.208
 3165W        W 7229   0.804   0.324  11.319
 3166W        W 7230   5.176   2.308  11.506
 3167W        W 7231   5.033   8.511   3.466
 3168W        W 7232   2.650   0.820   9.954
 3169W        W 7233   8.765   7.662   2.350
 3170W        W 7234   1.047   1.925   9.894
 3171W        W 7235   8.393  10.359   9.187
 3172W        W 7236   6.065   3.768   2.700
 3173W        W 7237   9.806   9.994   2.670
 3174W        W 7238   7.456   9.781   2.978
 3175W        W 7239   6.890   5.232  10.737
 3176W        W 7240   9.441   3.681   3.042
 3177W        W 7241   4.178   7.256  10.415
 3178W        W 7242   8.539   7.922  10.227
 3179W        W 7243   9.340   1.172   3.158
 3180W        W 7244   1.388   2.762   9.963
 3181W        W 7245   2.177   3.973  10.812
 3182W        W 7246   2.206   5.441   0.345
 3183W        W 7247   4.748   2.741   1.475
 3184W        W 7248   6.188   5.572   9.480
 3185W        W 7249   6.930   0.237  11.763
 3186W        W 7250   0.610   6.329   8.521
 3187W        W 7251   1.817   3.428   9.336
 3188W        W 7252   5.107   6.106   9.594
 3189W        W 7253   6.405   5.105  11.301
 3190W        W 7254   2.331   5.551  10.913
 3191W        W 7255   8.693   5.535  10.571
 3192W        W 7256   0.800   7.441  11.030
 3193W        W 7257   4.530   1.751   0.559
 3194W        W 7258   1.947   2.750   1.566
 3195W        W 7259   0.673   5.230   3.307
 3196W        W 7260   8.589   7.560  11.931
 3197W        W 7261   9.760   1.244   3.477
 3198W        W 7262   2.425   9.114   0.279
 3199W        W 7263   6.050   6.542   8.985
 3200W        W 7264   4.700   2.445  11.394
 3201W        W 7265   2.327   9.152  10.958
 3202W        W 7266   9.088   0.235  10.989
 3203W        W 7267   1.042   1.256   0.519
 3204W        W 7268   7.241   6.129   8.098
 3205W        W 7269   0.511   0.297   3.240
 3206W        W 7270   9.133   8.393   1.514
 3207W        W 7271   6.990   5.975   3.584
 3208W        W 7272   8.313   7.116  10.224
 3209W        W 7273   1.424   3.529  11.114
 3210W        W 7274   3.712   3.590  11.439
 3211W        W 7275   8.098   1.883   9.546
 3212W        W 7276   1.231   2.354   2.288
 3213W        W 7277   5.226   2.398   1.620
 3214W        W 7278   1.268   1.951   2.650
 3215W        W 7279   8.926   9.794   9.721
 3216W        W 7280   9.898  10.444   2.441
 3217W        W 7281   3.427   9.894   0.526
 3218W        W 7282   4.529   5.560  10.881
 3219W        W 7283   3.812   4.374   0.590
 3220W        W 7284   5.314   2.851   0.708
 3221W        W 7285   7.931   7.921   8.902
 3222W        W 7286   0.183   6.443   0.226
 3223W        W 7287   5.221   6.712  10.942
 3224W        W 7288   3.345   5.491   4.337
 3225W        W 7289   7.824   4.401   1.002
 3226W        W 7290   4.676   5.543   3.531
 3227W        W 7291   9.820   3.623   2.188
 3228W        W 7292   7.995   1.312  11.374
 3229W        W 7293   2.166   5.243   2.491
 3230W        W 7294   5.789   0.352   0.968
 3231W        W 7295   0.242   9.072   3.032
 3232W        W 7296   0.888   8.245   9.319
 3233W        W 7297   3.850   8.303   2.825
 3234W        W 7298   2.732  10.471   2.700
 3235W        W 7299   8.647   5.011   1.761
 3236W        W 7300   3.582   3.068   0.949
 3237W        W 7301  10.000   0.750   2.656
 3238W        W 7302   6.141   4.358  10.483
 3239W        W 7303   8.437   4.139   3.245
 3240W        W 7304   0.028  10.340   8.569
 3241W        W 7305   7.363   3.526   9.488
 3242W        W 7306   9.278   8.078   1.130
 3243W        W 7307   5.573   5.240   8.965
 3244W        W 7308   4.177   8.524  10.706
 3245W        W 7309   1.954   0.244   0.767
 3246W        W 7310   1.004   0.801   2.690
 3247W        W 7311   2.692   0.215   8.722
 3248W        W 7312   8.432   9.021   9.721
 3249W        W 7313   9.910   7.558   0.290
 3250W        W 7314  10.303   9.341  11.730
 3251W        W 7315   0.280   4.749   9.068
 3252W        W 7316   3.767   9.442   1.140
 3253W        W 7317   4.702  10.345  11.108
 3254W        W 7318   2.669   6.006   1.065
 3255W        W 7319   2.427   0.370   0.524
 3256W        W 7320   9.354   0.865  10.400
 3257W        W 7321   5.967   9.533  11.471
 3258W        W 7322   0.727   1.465  10.779
 3259W        W 7323   6.894   7.206  10.409
 3260W        W 7324   6.171   7.497   9.824
 3261W        W 7325  10.063   1.779   0.804
 3262W        W 7326   6.238   3.932   9.240
 3263W        W 7327   8.525   6.657   9.844
 3264W        W 7328   2.159   0.527   2.329
 3265W        W 7329   4.105   8.464   3.293
 3266W        W 7330   4.149   5.661   3.695
 3267W        W 7331   1.316   3.280   9.272
 3268W        W 7332   8.959   3.189   2.821
 3269W        W 7333   9.173   2.272  11.296
 3270W        W 7334   8.981   5.452   1.498
 3271W        W 7335   6.210   4.492  11.011
 3272W        W 7336   0.438   3.255  10.803
 3273W        W 7337   5.653   6.042   3.839
 3274W        W 7338   1.701   8.933   2.777
 3275W        W 7339   8.014   5.567   2.901
 3276W        W 7340   5.666   1.205  11.447
 3277W        W 7341   2.898   5.494   2.466
 3278W        W 7342   0.513  10.254   2.422
 3279W        W 7343   1.912   8.398   9.108
 3280W        W 7344   3.106   6.150  10.985
 3281W        W 7345   3.251   5.331   9.759
 3282W        W 7346   7.827   3.653   1.615
 3283W        W 7347   6.779  10.090   0.793
 3284W        W 7348   1.173   0.502  10.522
 3285W        W 7349   0.232  10.093  10.062
 3286W        W 7350   1.003  10.387   2.702
 3287W        W 7351   3.315   8.930  10.801
 3288W        W 7352   8.134   8.816   8.786
 3289W        W 7353  10.356   8.358  11.755
 3290W        W 7354   2.163   2.753  11.382
 3291W        W 7355   6.386   0.898   1.249
 3292W        W 7356   0.734   9.486   1.398
 3293W        W 7357   6.610   8.204   8.790
 3294W        W 7358   7.542   8.675   9.756
 3295W        W 7359   6.240  10.117   0.017
 3296W        W 7360   9.548   1.971   1.005
 3297W        W 7361   0.836   6.506   1.405
 3298W        W 7362  10.363   2.415  10.870
 3299W        W 7363   6.945  10.379   2.201
 3300W        W 7364   1.886   2.369   1.915
 3301W        W 7365   1.979   4.602   9.921
 3302W        W 7366   5.179   9.448   3.169
 3303W        W 7367   5.481   0.887   3.570
 3304W        W 7368   8.942   3.231   9.852
 3305W        W 7369  10.188   4.904   0.211
 3306W        W 7370   3.857   7.794   2.754
 3307W        W 7371   3.846   8.238   0.453
 3308W        W 7372   8.672   9.941   9.299
 3309W        W 7373   4.609   6.892   1.439
 3310W        W 7374   3.792   5.936  10.518
 3311W        W 7375   9.283   4.428  11.017
 3312W        W 7376   8.398   7.555   9.921
 3313W        W 7377   9.885   4.619   1.269
 3314W        W 7378   9.486   7.622   1.241
 3315W        W 7379   3.170   4.015   0.868
 3316W        W 7380   2.895   4.392   0.535
 3317W        W 7381   0.489   2.838  11.113
 3318W        W 7382   8.805   2.588  11.577
 3319W        W 7383   8.158   6.015   0.192
 3320W        W 7384   3.410   0.270  11.691
 3321W        W 7385   6.450   7.960   1.258
 3322W        W 7386   0.786   3.511   1.553
 3323W        W 7387   9.496   6.644  11.167
 3324W        W 7388   6.486   5.689   0.618
 3325W        W 7389   7.465   9.806   0.028
 3326W        W 7390   4.284   0.868   2.065
 3327W        W 7391   3.679   2.295  11.028
 3328W        W 7392   7.803   4.819   0.642
 3329W        W 7393  10.376   1.359   0.806
 3330W        W 7394   4.626   3.207   1.300
 3331W        W 7395   7.951   0.676   8.698
 3332W        W 7396   2.040   1.810   3.491
 3333W        W 7397   5.955   4.060  10.894
 3334W        W 7398   4.115   8.387   8.722
 3335W        W 7399   8.775   4.282  11.884
 3336W        W 7400   6.020   5.099   8.772
 3337W        W 7401   1.518   9.403   2.574
 3338W        W 7402   2.213   8.923   2.694
 3339W        W 7403   8.052   8.395  10.228
 3340W        W 7404   1.063   0.260   3.145
 3341W        W 7405   7.311   3.995   9.987
 3342W        W 7406   1.701   2.145   3.248
 3343W        W 7407   0.917   5.296   9.296
 3344W        W 7408   8.157   5.042   1.596
 3345W        W 7409   2.557   9.894   3.289
 3346W        W 7410   5.455   4.825  11.827
 3347W        W 7411  10.305   9.774   3.348
 3348W        W 7412  10.452   6.133   1.483
 3349W        W 7413   4.210   7.489   2.550
 3350W        W 7414   6.609   9.748   2.119
 3351W        W 7415  10.407   1.422  11.891
 3352W        W 7416   8.925   7.035   1.652
 3353W        W 7417   0.223   9.434   1.478
 3354W        W 7418   7.871   3.605   2.129
 3355W        W 7419   2.966   5.128  11.992
 3356W        W 7420   5.517   6.565   8.908
 3357W        W 7421   6.044   2.234   8.773
 3358W        W 7422   3.836   7.119   8.620
 3359W        W 7423   3.826   8.905  10.743
 3360W        W 7424   8.126   8.982   0.869
 3361W        W 7425   5.197   2.660  10.101
 3362W        W 7426   0.980   9.481  10.565
 3363W        W 7427   3.143   1.365  11.790
 3364W        W 7428   7.502   5.558   8.143
 3365W        W 7429   6.749  10.449  10.166
 3366W        W 7430   6.743   5.034   2.280
 3367W        W 7431   0.326   0.285   2.513
 3368W        W 7432   6.889   9.419  11.055
 3369W        W 7433   5.986   8.948   2.216
 3370W        W 7434  10.050   4.355   9.188
 3371W        W 7435   9.179   6.434   2.865
 3372W        W 7436   7.163   1.849  10.458
 3373W        W 7437   5.940   5.123  11.026
 3374W        W 7438   2.679   5.516   1.220
 3375W        W 7439   6.924   2.509  11.021
 3376W        W 7440   9.515   1.145   1.783
 3377W        W 7441   1.776   0.343  10.865
 3378W        W 7442   4.960  10.072  11.598
 3379W        W 7443   6.466   3.097   9.819
 3380W        W 7444   1.186   3.960   0.574
 3381W        W 7445   0.436   6.246   1.159
 3382W        W 7446   5.143   5.736   0.742
 3383W        W 7447   2.585   8.644  10.507
 3384W        W 7448   9.513   9.609   2.947
 3385W        W 7449   1.326   7.037  11.947
 3386W        W 7450   2.312   8.123   8.768
 3387W        W 7451   6.431   8.833   1.963
 3388W        W 7452   9.346   8.660   0.558
 3389W        W 7453  10.314   5.031   2.900
 3390W        W 7454   4.568   7.826   3.288
 3391W        W 7455   7.564   8.080  11.428
 3392W        W 7456   4.717   7.048  11.961
 3393W        W 7457   3.350   2.162   0.124
 3394W        W 7458   4.683   9.398   2.464
 3395W        W 7459   4.981   9.063   0.898
 3396W        W 7460   1.100  10.461   1.829
 3397W        W 7461   6.309   9.305  11.791
 3398W        W 7462   4.514   0.874   8.154
 3399W        W 7463   8.110   6.733  11.035
 3400W        W 7464  10.405   2.360   3.499
 3401W        W 7465   8.820   8.036   8.825
 3402W        W 7466   4.666   3.635  10.622
 3403W        W 7467   7.222   4.733   9.012
 3404W        W 7468   4.140   8.150   1.139
 3405W        W 7469   3.521   5.595   1.466
 3406W        W 7470   8.495   2.181   2.780
 3407W        W 7471  10.391   1.858   3.359
 3408W        W 7472   6.526   6.127  10.427
 3409W        W 7473   8.901   2.310   3.320
 3410W        W 7474   4.246   4.907   0.470
 3411W        W 7475   5.058   7.583  11.530
 3412W        W 7476   8.871   0.629  11.249
 3413W        W 7477   5.148   0.479   3.543
 3414W        W 7478   2.045   8.866   9.314
 3415W        W 7479   5.538   1.423   2.558
 3416W        W 7480   5.046   4.311   1.688
 3417W        W 7481   7.141  10.487   3.637
 3418W        W 7482   9.401   4.537  11.641
 3419W        W 7483   4.604   1.511   1.022
 3420W        W 7484   6.585  10.363  10.622
 3421W        W 7485   6.482   3.529   9.506
 3422W        W 7486   6.095   5.104   0.410
 3423W        W 7487   2.921   1.291   3.496
 3424W        W 7488   4.465   8.594  10.288
 3425W        W 7489   3.452   1.895   3.386
 3426W        W 7490   5.753   5.557   3.194
 3427W        W 7491   7.038   7.367  11.179
 3428W        W 7492   7.399   3.393   0.283
 3429W        W 7493   3.663   5.966   1.129
 3430W        W 7494   6.313   6.389   8.566
 3431W        W 7495   5.378   1.739   2.162
 3432W        W 7496   4.737   2.165   2.267
 3433W        W 7497   1.063   7.876   0.766
 3434W        W 7498   7.201   8.406   2.249
 3435W        W 7499   5.929   5.622   1.730
 3436W        W 7500   7.987   0.920   3.360
 3437W        W 7501   5.438   4.307   8.970
 3438W        W 7502   7.725   6.432   1.404
 3439W        W 7503   6.110   5.981   3.262
 3440W        W 7504  10.190   3.175  11.446
 3441W        W 7505   9.885   7.044   1.312
 3442W        W 7506   8.038   6.697  10.030
 3443W        W 7507   9.828   1.861  11.423
 3444W        W 7508   6.414   5.153   0.006
 3445W        W 7509   9.417   5.432  11.764
 3446W        W 7510   4.060   0.419   2.805
 3447W        W 7511  10.304   4.419   0.203
 3448W        W 7512   1.808   2.154   9.256
 3449W        W 7513   0.265   0.417  11.709
 3450W        W 7514   1.309   1.382   1.010
 3451W        W 7515  10.343   5.207  10.920
 3452W        W 7516   4.376   2.566   1.138
 3453W        W 7517   1.760   8.410  10.016
 3454W        W 7518   4.789   4.516   1.003
 3455W        W 7519   1.258   6.757  11.533
 3456W        W 7520   3.310   7.424   3.177
 3457W        W 7521   1.255   1.395  10.552
 3458W        W 7522   1.407  10.383  10.809
 3459W        W 7523   0.421   3.767   0.398
 3460W        W 7524   3.748   7.995   8.505
 3461W        W 7525   2.525   1.224  11.384
 3462W        W 7526   5.099   4.626   2.101
 3463W        W 7527   2.867   9.356   0.275
 3464W        W 7528   3.920   1.875  11.234
 3465W        W 7529   9.326   4.668   8.748
 3466W        W 7530   2.870   8.469   9.389
 3467W        W 7531  10.282   5.195   1.248
 3468W        W 7532   6.084   0.931  11.446
 3469W        W 7533  10.367   7.735  10.861
 3470W        W 7534   3.218   0.345  10.274
 3471W        W 7535   4.726   0.468   0.511
 3472W        W 7536   6.908   5.698  10.076
 3473W        W 7537   7.195   9.031  11.704
 3474W        W 7538   6.513   7.787   1.744
 3475W        W 7539   1.598   9.421   9.646
 3476W        W 7540   4.304   6.109   2.449
 3477W        W 7541   8.512   6.814   2.508
 3478W        W 7542   5.193   0.343   0.712
 3479W        W 7543   8.521   0.403   9.942
 3480W        W 7544   1.432   7.245  11.446
 3481W        W 7545   9.975   7.013   9.055
 3482W        W 7546   7.103   7.384   8.667
 3483W        W 7547   4.164   9.354   8.810
 3484W        W 7548   2.621   6.675   1.835
 3485W        W 7549   6.197   2.315  11.772
 3486W        W 7550   5.012   3.338   1.794
 3487W        W 7551   9.325   6.645   0.503
 3488W        W 7552   8.878   2.830   1.922
 3489W        W 7553  10.266   7.458   9.001
 3490W        W 7554   4.897   6.338   8.222
 3491W        W 7555   9.816   5.746   2.777
 3492W        W 7556   7.919   1.405   3.120
 3493W        W 7557   5.521   6.116   8.655
 3494W        W 7558   0.270   8.112   9.805
 3495W        W 7559   1.015   2.706   1.915
 3496W        W 7560   8.415   8.538   1.799
 3497W        W 7561   6.832   6.422   8.442
 3498W        W 7562   1.067   2.622   1.398
 3499W        W 7563   7.419   0.007  11.391
 3500W        W 7564   9.558   2.018  10.827
 3501W        W 7565   8.354   5.206   9.993
 3502W        W 7566   2.074   7.354  10.543
 3503W        W 7567   0.258   2.750  10.655
 3504W        W 7568   5.737   3.874   0.092
 3505W        W 7569   2.822   7.870   0.448
 3506W        W 7570   7.507   0.486   8.997
 3507W        W 7571   3.241   1.501   3.137
 3508W        W 7572   2.402   0.620  11.819
 3509W        W 7573   4.669   6.374  10.281
 3510W        W 7574   2.114  10.369   1.869
 3511W        W 7575   3.338   5.062   8.770
 3512W        W 7576   9.156   8.658   2.816
 3513W        W 7577   8.482   7.424   9.429
 3514W        W 7578   4.239   0.784   8.902
 3515W        W 7579  10.464   9.775   9.320
 3516W        W 7580   1.380   8.922   9.939
 3517W        W 7581   7.408   3.552   1.906
 3518W        W 7582   1.663   5.726   9.223
 3519W        W 7583   5.640   2.214   0.918
 3520W        W 7584   6.833   9.125   0.606
 3521W        W 7585   6.046   7.505   0.791
 3522W        W 7586   4.194   2.224   0.449
 3523W        W 7587   5.144   5.149  10.557
 3524W        W 7588   9.665  10.387   1.439
 3525W        W 7589   4.073   1.212   9.123
 3526W        W 7590   0.497   1.826   9.145
 3527W        W 7591   2.998   7.392   8.886
 3528W        W 7592   1.443   7.592   1.855
 3529W        W 7593   6.411   3.996   8.145
 3530W        W 7594   7.648   5.926   1.382
 3531W        W 7595   6.892   2.185   0.521
 3532W        W 7596   8.429   4.619   1.472
 3533W        W 7597   9.012   3.645   0.677
 3534W        W 7598   3.285   6.986  11.297
 3535W        W 7599   7.406   7.056  11.331
 3536W        W 7600   5.524   1.253   2.050
 3537W        W 7601  10.408   8.757   2.297
 3538W        W 7602  10.246   1.513  10.700
 3539W        W 7603   0.336   8.846   1.191
 3540W        W 7604   2.918   1.127   1.974
 3541W        W 7605   2.643   3.603   1.634
 3542W        W 7606   3.138   5.776   1.133
 3543W        W 7607   8.429   8.390   0.226
 3544W        W 7608   0.348   0.518  11.182
 3545W        W 7609   9.827   3.689   2.700
 3546W        W 7610   2.361   8.636  10.976
 3547W        W 7611   0.343   6.740  11.695
 3548W        W 7612  10.406   7.061   1.393
 3549W        W 7613   4.126   6.183   3.684
 3550W        W 7614   3.902  10.429   2.709
 3551W        W 7615  10.044  10.469  11.528
 3552W        W 7616   6.039   9.114   2.691
 3553W        W 7617   0.021   9.916   0.399
 3554W        W 7618   8.579   1.894  11.213
 3555W        W 7619   9.115   6.486   0.959
 3556W        W 7620  10.453   5.675  10.120
 3557W        W 7621   4.526   6.433   0.697
 3558W        W 7622   8.134   4.875  11.483
 3559W        W 7623   9.546   5.024  11.470
 3560W        W 7624   9.469   3.574   0.454
 3561W        W 7625   7.551   6.020   3.480
 3562W        W 7626  10.398   1.180   9.378
 3563W        W 7627  10.477   4.780  11.785
 3564W        W 7628   5.310   9.487   3.666
 3565W        W 7629   8.359   9.862   3.138
 3566W        W 7630   5.061   9.523   9.756
 3567W        W 7631   4.686   8.397   2.556
 3568W        W 7632   5.847   4.024   9.590
 3569W        W 7633   6.523   6.205   3.506
 3570W        W 7634   8.674   8.602   2.691
 3571W        W 7635   1.692   6.518  11.556
 3572W        W 7636   5.461   7.831   1.353
 3573W        W 7637   8.886  10.350   3.452
 3574W        W 7638   0.862   3.189   1.952
 3575W        W 7639   2.845  10.299   3.169
 3576W        W 7640  10.279   9.124   2.803
 3577W        W 7641   4.245   3.171   0.371
 3578W        W 7642   5.444   9.895  11.534
 3579W        W 7643   9.786   0.443   8.685
 3580W        W 7644   6.883   0.099   0.261
 3581W        W 7645   3.751   4.533   3.412
 3582W        W 7646   8.567   6.890   9.370
 3583W        W 7647   7.531   6.115   8.867
 3584W        W 7648   8.844   0.067   0.405
 3585W        W 7649   4.452   5.958   3.319
 3586W        W 7650   2.074   5.207  11.202
 3587W        W 7651   7.671   4.109   1.435
 3588W        W 7652   1.609   1.287   1.447
 3589W        W 7653   7.687   8.524   2.332
 3590W        W 7654   6.881   5.107   8.865
 3591W        W 7655   1.795   6.036   1.280
 3592W        W 7656   0.983   2.830  11.107
 3593W        W 7657   5.902   5.137   2.899
 3594W        W 7658   5.508  10.358   8.852
 3595W        W 7659   2.168   3.361  10.200
 3596W        W 7660   9.744   0.335   2.894
 3597W        W 7661   6.164   8.474   2.369
 3598W        W 7662   2.175   1.799   3.004
 3599W        W 7663   6.026   7.946   9.582
 3600W        W 7664   7.652   3.142   2.259
 3601W        W 7665   7.448  10.124   3.429
 3602W        W 7666   4.491   3.610   0.527
 3603W        W 7667   3.848   6.685  10.930
 3604W        W 7668   6.989   1.270   2.690
 3605W        W 7669   1.467   8.310  10.810
 3606W        W 7670   8.277   9.908  11.407
 3607W        W 7671  10.417   0.272  11.374
 3608W        W 7672   9.368   9.160   9.125
 3609W        W 7673   6.444   2.592   9.570
 3610W        W 7674   3.622   1.262   8.889
 3611W        W 7675   5.964   9.031   0.671
 3612W        W 7676   9.331   9.883  11.305
 3613W        W 7677   4.131   6.704   3.780
 3614W        W 7678   4.662   9.168   8.691
 3615W        W 7679   0.091   1.859   2.581
 3616W        W 7680   7.215   9.690   8.835
 3617W        W 7681   6.677   4.468  11.251
 3618W        W 7682   0.940   6.565  10.554
 3619W        W 7683   9.001   4.273  11.421
 3620W        W 7684   6.526   7.690   0.834
 3621W        W 7685   9.751   2.689   2.494
 3622W        W 7686   8.092  10.419   2.780
 3623W        W 7687  10.034   0.015   8.442
 3624W        W 7688   6.399   9.271   2.300
 3625W        W 7689   4.133   4.281   8.546
 3626W        W 7690   1.093   6.449   2.116
 3627W        W 7691   1.984   8.953   1.360
 3628W        W 7692   4.243   7.029   8.925
 3629W        W 7693   2.121   0.772   1.880
 3630W        W 7694   9.941   0.836   9.001
 3631W        W 7695   6.990   4.973   3.382
 3632W        W 7696   5.240   5.294   0.956
 3633W        W 7697   8.792   9.948  11.266
 3634W        W 7698   8.601   5.697  10.027
 3635W        W 7699   4.696   0.821   9.158
 3636W        W 7700   4.277   9.492   0.377
 3637W        W 7701   0.355   9.440   9.104
 3638W        W 7702   5.650   8.259   1.686
 3639W        W 7703   7.060   4.517   2.947
 3640W        W 7704   4.724   8.111   9.016
 3641W        W 7705   2.121   5.559   1.811
 3642W        W 7706  10.278   3.594   2.449
 3643W        W 7707   5.557   2.258  10.975
 3644W        W 7708   7.434   5.629   8.658
 3645W        W 7709   5.137   3.520   2.272
 3646W        W 7710   0.692   9.432  11.986
 3647W        W 7711   0.898   6.008   8.783
 3648W        W 7712   7.318   8.908   2.371
 3649W        W 7713   3.739   7.950   0.891
 3650W        W 7714   1.777   3.387   2.156
 3651W        W 7715   0.818   0.756   0.498
 3652W        W 7716   6.927   3.453   1.300
 3653W        W 7717   3.848   3.192   0.019
 3654W        W 7718   8.029   7.949   9.413
 3655W        W 7719   4.327   0.149  10.436
 3656W        W 7720   0.972   4.692  11.239
 3657W        W 7721   5.334   6.597   8.030
 3658W        W 7722   3.718   4.834   0.411
 3659W        W 7723   2.859   5.950   1.555
 3660W        W 7724   7.194   8.074   0.300
 3661W        W 7725   3.169   1.372   0.687
 3662W        W 7726   5.024   6.660  11.830
 3663W        W 7727   8.038   1.236   1.393
 3664W        W 7728   7.079   3.592   2.766
 3665W        W 7729   1.176   9.849  10.247
 3666W        W 7730   5.086   0.872   0.469
 3667W        W 7731  10.458   6.657  10.054
 3668W        W 7732   6.070   5.984   0.819
 3669W        W 7733   7.131   0.480   1.537
 3670W        W 7734   4.294  10.475   3.131
 3671W        W 7735   4.028   1.774   0.709
 3672W        W 7736   0.468   9.515  11.501
 3673W        W 7737   6.047   3.637   8.850
 3674W        W 7738   0.515   2.800   1.956
 3675W        W 7739   8.876   7.146  10.702
 3676W        W 7740   9.081   2.166   1.091
 3677W        W 7741   6.848   8.038   2.033
 3678W        W 7742   5.727   7.566  10.932
 3679W        W 7743   0.765   0.529  10.852
 3680W        W 7744   5.548   6.920  11.483
 3681W        W 7745   1.988   9.494   3.293
 3682W        W 7746   5.040   8.799   1.880
 3683W        W 7747   2.271   3.315   1.346
 3684W        W 7748   0.743   0.369   2.771
 3685W        W 7749   1.258   6.935   3.486
 3686W        W 7750   5.110   4.142   3.730
 3687W        W 7751   6.281   3.272   1.790
 3688W        W 7752   8.830   7.609   0.478
 3689W        W 7753   5.858   3.068   3.217
 3690W        W 7754   3.089   9.901   1.403
 3691W        W 7755  10.425   8.394   9.523
 3692W        W 7756   7.462   8.165   8.905
 3693W        W 7757   5.946   4.931  11.914
 3694W        W 7758   1.935   3.415   2.802
 3695W        W 7759   0.898   8.521   2.914
 3696W        W 7760   0.066   7.708  11.685
 3697W        W 7761   4.085   3.384   8.917
 3698W        W 7762   8.393   4.568   9.410
 3699W        W 7763   4.526   2.128   9.355
 3700W        W 7764   2.627   4.290  11.024
 3701W        W 7765   2.854   6.661  10.030
 3702W        W 7766   4.982   2.821   9.112
 3703W        W 7767   8.802   4.813   3.593
 3704W        W 7768   3.278  10.163   0.976
 3705W        W 7769   1.891   2.838   0.365
 3706W        W 7770   7.414  10.156  10.998
 3707W        W 7771  10.125   7.823   0.875
 3708W        W 7772   1.481   4.145  11.365
 3709W        W 7773   6.854   5.530   2.371
 3710W        W 7774   9.463   6.336   0.122
 3711W        W 7775   2.400   1.340   3.502
 3712W        W 7776   2.242   2.206  10.020
 3713W        W 7777   8.556   4.547  11.468
 3714W        W 7778   8.516   8.082   9.237
 3715W        W 7779   4.995   6.186   8.711
 3716W        W 7780   5.187  10.047   2.481
 3717W        W 7781   1.104   4.128   3.620
 3718W        W 7782   7.471   1.661   2.738
 3719W        W 7783   7.448   4.763   2.697
 3720W        W 7784   0.674   0.870   9.872
 3721W        W 7785   5.068   2.453  11.028
 3722W        W 7786   7.574   2.194   0.233
 3723W        W 7787   1.382   2.414   0.427
 3724W        W 7788   1.238   8.471   9.797
 3725W        W 7789   8.172   0.977  10.041
 3726W        W 7790   5.969   8.657  10.471
 3727W        W 7791   8.884   8.495   0.436
 3728W        W 7792   3.169   2.257   3.603
 3729W        W 7793   0.935   6.054  11.886
 3730W        W 7794  10.115   7.947  11.574
 3731W        W 7795   5.635   3.888   8.629
 3732W        W 7796   6.952   7.539   2.685
 3733W        W 7797   6.844   5.141  11.744
 3734W        W 7798   9.828   6.466   0.445
 3735W        W 7799   0.998   2.603  10.228
 3736W        W 7800   3.609   0.300   2.996
 3737W        W 7801   8.647   9.720   1.130
 3738W        W 7802   6.174   5.974   3.792
 3739W        W 7803   6.691   7.565   2.201
 3740W        W 7804   5.323   4.075   9.436
 3741W        W 7805   9.490   2.268   0.285
 3742W        W 7806   0.518   7.684   0.956
 3743W        W 7807   6.979   1.773   2.798
 3744W        W 7808   8.219   0.131  10.678
 3745W        W 7809   3.751   1.372  10.927
 3746W        W 7810   7.809   3.600   0.027
 3747W        W 7811   4.145   0.839   3.089
 3748W        W 7812   3.606   5.533   9.328
 3749W        W 7813   2.700   6.632   9.039
 3750W        W 7814   8.916   2.999   1.414
 3751W        W 7815   5.495   2.637  10.532
 3752W        W 7816   5.192   3.057   0.223
 3753W        W 7817   4.259   1.644   9.339
 3754W        W 7818   4.310   5.128  10.502
 3755W        W 7819   1.292   7.669   3.299
 3756W        W 7820  10.206   2.990   3.065
 3757W        W 7821   5.725   7.406   9.044
 3758W        W 7822   4.809   8.002   2.856
 3759W        W 7823   3.726   4.199   9.050
 3760W        W 7824   4.793   2.868  11.909
 3761W        W 7825   4.677   5.093   2.023
 3762W        W 7826   1.382   5.318   8.666
 3763W        W 7827   3.827   3.232  11.082
 3764W        W 7828   5.578   4.123   8.003
 3765W        W 7829   1.463   3.090  10.869
 3766W        W 7830   0.046   4.252   9.084
 3767W        W 7831   2.413   8.879   9.688
 3768W        W 7832   9.909   1.358   1.025
 3769W        W 7833   3.151   1.161  10.594
 3770W        W 7834   6.786   0.439   1.152
 3771W        W 7835   7.887   7.448   0.292
 3772W        W 7836   7.939   1.846  10.587
 3773W        W 7837   1.517   7.735  11.363
 3774W        W 7838   0.070  10.251   3.166
 3775W        W 7839   4.176   1.334   2.776
 3776W        W 7840   0.969   4.932   1.734
 3777W        W 7841   5.555   5.677   0.158
 3778W        W 7842   2.772   7.449   1.266
 3779W        W 7843  10.285   1.821  10.295
 3780W        W 7844   1.541   4.480   9.694
 3781W        W 7845   8.640   8.283   1.425
 3782W        W 7846   7.822   0.452  10.573
 3783W        W 7847   5.160   3.618  10.352
 3784W        W 7848   4.979   5.478   9.967
 3785W        W 7849   1.587   5.642   0.980
 3786W        W 7850   1.951   2.893   2.062
 3787W        W 7851  10.221  10.066   2.312
 3788W        W 7852   1.800   4.100   9.927
 3789W        W 7853   6.169   5.521   3.527
 3790W        W 7854   5.554   6.952   1.449
 3791W        W 7855   7.646   5.016   1.701
 3792W        W 7856   5.683   5.600  10.303
 3793W        W 7857   1.915   4.309   2.321
 3794W        W 7858   7.698   3.769   0.510
 3795W        W 7859   3.013   9.043  10.415
 3796W        W 7860   0.055   4.626  10.832
 3797W        W 7861   3.532   9.950   2.287
 3798W        W 7862   3.288   0.449   1.672
 3799W        W 7863   9.794   7.419   8.777
 3800W        W 7864   2.484   4.789   8.892
 3801W        W 7865   0.208   1.344  10.881
 3802W        W 7866   6.932   5.427   0.536
 3803W        W 7867   0.879   9.939   1.179
 3804W        W 7868   6.408   8.851   0.451
 3805W        W 7869   7.142   7.609   9.691
 3806W        W 7870   7.440   3.204  11.274
 3807W        W 7871   9.846   1.809   1.867
 3808W        W 7872   3.090   7.952  11.099
 3809W        W 7873   0.383   7.428   2.798
 3810W        W 7874   4.494   6.442   1.209
 3811W        W 7875   4.991   3.026   9.823
 3812W        W 7876   0.887   3.930   1.250
 3813W        W 7877   2.008   9.553  10.983
 3814W        W 7878   1.155   2.230   1.795
 3815W        W 7879   7.983   2.373  10.551
 3816W        W 7880   5.717   1.605  11.759
 3817W        W 7881   5.580   1.252   3.061
 3818W        W 7882  10.237   7.737   2.161
 3819W        W 7883   9.374   5.439   2.151
 3820W        W 7884   0.866   4.130   0.198
 3821W        W 7885   0.356   7.230  10.134
 3822W        W 7886   4.714   5.054  10.822
 3823W        W 7887  10.347   3.440   9.702
 3824W        W 7888   9.350   2.690   2.165
 3825W        W 7889   4.975   6.457   2.850
 3826W        W 7890   7.453   6.632   8.950
 3827W        W 7891   8.940   5.600   9.644
 3828W        W 7892   7.333   5.202  10.492
 3829W        W 7893   8.371   4.235  10.855
 3830W        W 7894   8.197   1.822  11.583
 3831W        W 7895  10.478   7.101  11.929
 3832W        W 7896   3.246   7.204   2.316
 3833W        W 7897   6.019   0.386   3.297
 3834W        W 7898   9.405   3.377  10.500
 3835W        W 7899   0.793   0.261   9.477
 3836W        W 7900   8.291   9.890   8.940
 3837W        W 7901   5.908   0.410   2.796
 3838W        W 7902   0.374   0.202  10.780
 3839W        W 7903   9.391   9.211  11.170
 3840W        W 7904   2.007   9.398   1.894
 3841W        W 7905   0.864   6.524  10.046
 3842W        W 7906   7.024   5.631  11.037
 3843W        W 7907   2.110   5.211   3.002
 3844W        W 7908   8.699   7.225   8.980
 3845W        W 7909   4.750  10.294   2.426
 3846W        W 7910   7.597   9.969  10.106
 3847W        W 7911   2.375   8.490   2.981
 3848W        W 7912   8.746   2.004   0.350
 3849W        W 7913   0.171   5.613   0.024
 3850W        W 7914   6.418   8.928   1.418
 3851W        W 7915   9.174   5.766  10.499
 3852W        W 7916   7.788   4.128  11.996
 3853W        W 7917   2.386   6.006   1.811
 3854W        W 7918   4.177   1.843   2.817
 3855W        W 7919   5.956   6.897   3.853
 3856W        W 7920   2.109   7.147   9.863
 3857W        W 7921   4.020   7.912   2.270
 3858W        W 7922   4.688   0.876   8.634
 3859W        W 7923   7.325   9.968   1.621
 3860W        W 7924   7.045   2.244   3.030
 3861W        W 7925   1.935   3.343  11.032
 3862W        W 7926   1.185   9.702   8.822
 3863W        W 7927   7.440   3.722  11.133
 3864W        W 7928   5.951   3.471   1.400
 3865W        W 7929   2.394   3.186   2.878
 3866W        W 7930   7.379   0.000   0.299
 3867W        W 7931   7.835   6.515   2.758
 3868W        W 7932   2.883   6.958  11.832
 3869W        W 7933   4.968   4.670   0.429
 3870W        W 7934   2.396   4.837   2.721
 3871W        W 7935   0.655   0.620   2.294
 3872W        W 7936   9.969   4.524  10.471
 3873W        W 7937   7.165   0.440   3.296
 3874W        W 7938   1.662   1.646  11.790
 3875W        W 7939  10.213   0.612   1.414
 3876W        W 7940   9.395   4.635   9.784
 3877W        W 7941   2.823   7.036   0.414
 3878W        W 7942   8.409   6.502   0.836
 3879W        W 7943   1.442   4.176   3.246
 3880W        W 7944   3.603   6.479   1.711
 3881W        W 7945   1.305   0.236   9.016
 3882W        W 7946  10.253   6.727   0.336
 3883W        W 7947   6.941   3.682   0.352
 3884W        W 7948   4.419   0.108   2.645
 3885W        W 7949   7.480   8.798  10.759
 3886W        W 7950   3.396   1.025  11.024
 3887W        W 7951   4.648   2.348  10.727
 3888W        W 7952   4.941   8.474  10.437
 3889W        W 7953   9.413   8.417   3.187
 3890W        W 7954   4.714   9.404   2.951
 3891W        W 7955   6.143   4.065   8.609
 3892W        W 7956   9.298   7.928   8.919
 3893W        W 7957   8.115   8.366   9.065
 3894W        W 7958   7.144   2.265   1.496
 3895W        W 7959   3.377   0.578   9.789
 3896W        W 7960   2.315   7.805  11.573
 3897W        W 7961   0.449   5.206   0.182
 3898W        W 7962   1.959   4.567   0.882
 3899W        W 7963   2.820   5.964   0.063
 3900W        W 7964   6.211   1.902   3.452
 3901W        W 7965   2.594   2.540  10.266
 3902W        W 7966   6.680   0.306   9.361
 3903W        W 7967   2.931  10.333  10.652
 3904W        W 7968   8.651   4.216   1.233
 3905W        W 7969  10.317   4.680   8.839
 3906W        W 7970   6.744   1.246  10.526
 3907W        W 7971   7.543   5.634   3.092
 3908W        W 7972   5.276   6.179   9.131
 3909W        W 7973   2.366   6.764   1.153
 3910W        W 7974   4.734   3.289   0.210
 3911W        W 7975   6.053   7.527   1.685
 3912W        W 7976   6.991   6.451   1.762
 3913W        W 7977   9.667   3.308   8.555
 3914W        W 7978   4.157   1.252  11.825
 3915W        W 7979   7.958   7.486   2.663
 3916W        W 7980   7.796   9.948   9.077
 3917W        W 7981  10.220   3.657  11.308
 3918W        W 7982   2.627   5.091   2.321
 3919W        W 7983   1.291   1.880   8.994
 3920W        W 7984   5.079   4.630  11.035
 3921W        W 7985   9.407   6.402   1.741
 3922W        W 7986   5.154   8.555  11.106
 3923W        W 7987   3.709  10.420   2.222
 3924W        W 7988   9.406   7.177   1.490
 3925W        W 7989   7.434   2.077   0.702
 3926W        W 7990   5.174   7.687  11.054
 3927W        W 7991  10.385   0.705   9.584
 3928W        W 7992   4.048  10.401   0.900
 3929W        W 7993   7.559   3.564   9.946
 3930W        W 7994   4.715   1.720   9.074
 3931W        W 7995   0.228   8.644  11.390
 3932W        W 7996   0.893   5.696   0.287
 3933W        W 7997   7.002   6.703   2.350
 3934W        W 7998  10.089   3.727  11.799
 3935W        W 7999   5.662   0.778   2.200
 3936W        W 8000   4.278   9.095  10.532
 3937W        W 8001   1.266  10.443   9.443
 3938W        W 8002   6.985   9.944  10.766
 3939W        W 8003   7.920   4.097   2.353
 3940W        W 8004   2.685   0.702   3.380
 3941W        W 8005   1.714   8.318   1.774
 3942W        W 8006   9.019   0.895   2.832
 3943W        W 8007   6.943   9.029   2.722
 3944W        W 8008   2.638   2.806   2.675
 3945W        W 8009   4.616   3.653   1.562
 3946W        W 8010   0.476   0.778  11.987
 3947W        W 8011   0.346   5.357   9.884
 3948W        W 8012   2.285   9.002   1.766
 3949W        W 8013   3.722   8.985   1.379
 3950W        W 8014   8.477   0.329   9.394
 3951W        W 8015   7.013   0.310  11.244
 3952W        W 8016  10.338   5.014   2.407
 3953W        W 8017   4.595   6.889  10.272
 3954W        W 8018   7.210   8.999   0.279
 3955W        W 8019   6.211   4.332  11.753
 3956W        W 8020   4.145   1.065   8.494
 3957W        W 8021   1.935  10.414  10.653
 3958W        W 8022   7.956   0.003   0.373
 3959W        W 8023   4.389   5.777   8.250
 3960W        W 8024   9.890  10.331  11.989
 3961W        W 8025   6.113   2.326  11.263
 3962W        W 8026   8.931   4.758   2.165
 3963W        W 8027   5.207   6.647   8.517
 3964W        W 8028   6.931   2.309  10.526
 3965W        W 8029   1.062   9.106   0.240
 3966W        W 8030   5.468   4.683   0.338
 3967W        W 8031   6.965   7.710   0.581
 3968W        W 8032   9.980   3.182   2.622
 3969W        W 8033   2.408   2.927  11.840
 3970W        W 8034   2.681   6.174   3.501
 3971W        W 8035   9.422   9.044   2.529
 3972W        W 8036   6.851   9.056   1.151
 3973W        W 8037   2.345   7.650   1.728
 3974W        W 8038   9.528   8.298   9.231
 3975W        W 8039   3.686  10.324  10.808
 3976W        W 8040   9.772   4.282  10.911
 3977W        W 8041   6.507   1.425   2.770
 3978W        W 8042   5.653   2.368   2.347
 3979W        W 8043   1.203   9.566  11.982
 3980W        W 8044   6.277   7.465   1.238
 3981W        W 8045   5.559   7.366   2.758
 3982W        W 8046   8.149   0.217   8.519
 3983W        W 8047   1.707   0.478   2.553
 3984W        W 8048   7.393   5.208   8.971
 3985W        W 8049   2.716   3.605   9.271
 3986W        W 8050   2.728   0.275  10.886
 3987W        W 8051   5.069   2.249   9.183
 3988W        W 8052   2.337  10.300   3.005
 3989W        W 8053   4.289   1.695   1.928
 3990W        W 8054   4.348   6.617   9.701
 3991W        W 8055   0.796   8.858   9.871
 3992W        W 8056   6.925   9.873  11.273
 3993W        W 8057   7.232   1.730  11.325
 3994W        W 8058   9.312   5.632   9.281
 3995W        W 8059   6.213   3.140   3.573
 3996W        W 8060   0.770   8.564   1.941
 3997W        W 8061   9.242   1.905   8.631
 3998W        W 8062   4.756   8.870  11.278
 3999W        W 8063   5.267   9.883  10.077
 4000W        W 8064   1.374   8.011   1.506
 4001W        W 8065   1.229   2.924   0.400
 4002W        W 8066   1.746   5.973  10.212
 4003W        W 8067   9.371   0.694   1.970
 4004W        W 8068   2.256   2.240  11.514
 4005W        W 8069   4.543   3.910  11.020
 4006W        W 8070   0.895   7.020  10.783
 4007W        W 8071   1.528   0.330   3.401
 4008W        W 8072   0.557   1.799   9.833
 4009W        W 8073   9.494   7.106   0.975
 4010W        W 8074   0.334   7.337   1.473
 4011W        W 8075   3.207   4.814   1.278
 4012W        W 8076   2.820   5.920   2.101
 4013W        W 8077   4.259   7.927   8.884
 4014W        W 8078   6.006   4.331   8.188
 4015W        W 8079   6.485   3.342   0.569
 4016W        W 8080   2.869   7.819   8.611
 4017W        W 8081   7.110   0.942  11.864
 4018W        W 8082   3.167   0.256   9.406
 4019W        W 8083   2.692   9.945   2.789
 4020W        W 8084   8.535   7.952   3.209
 4021W        W 8085   6.967   9.511   2.952
 4022W        W 8086   6.102   7.110   1.999
 4023W        W 8087   6.609   7.409   3.095
 4024W        W 8088   1.156   0.727   2.203
 4025W        W 8089   4.551   9.778  11.783
 4026W        W 8090   0.026   4.619  10.316
 4027W        W 8091  10.488   7.578   1.209
 4028W        W 8092   2.636   4.357  11.537
 4029W        W 8093   5.202   1.713   9.846
 4030W        W 8094   4.541   0.394   9.444
 4031W        W 8095   5.110   1.173   2.338
 4032W        W 8096   6.134   7.276  10.816
 4033W        W 8097   0.401   0.667   1.851
 4034W        W 8098   5.705   5.186   1.633
 4035W        W 8099   4.929   0.433   8.617
 4036W        W 8100   7.975   9.387   0.575
 4037W        W 8101   4.222   5.640  10.475
 4038W        W 8102   9.709   8.939  10.466
 4039W        W 8103   4.251   6.199  10.524
 4040W        W 8104   8.564   9.145   3.628
 4041W        W 8105   0.745   3.569  10.286
 4042W        W 8106   2.295   7.680   1.220
 4043W        W 8107   1.013   8.738   9.422
 4044W        W 8108   4.587   4.070   8.779
 4045W        W 8109   3.357   3.821   1.334
 4046W        W 8110   7.550   2.762   1.459
 4047W        W 8111   9.574   5.556  10.253
 4048W        W 8112   3.161   6.546   2.974
 4049W        W 8113   9.530   9.366  10.120
 4050W        W 8114   2.555   7.666   9.003
 4051W        W 8115   7.485   3.643  11.631
 4052W        W 8116  10.368   5.708   1.188
 4053W        W 8117   4.653   4.683   3.450
 4054W        W 8118   2.787   1.326  10.935
 4055W        W 8119   7.884   0.255   1.619
 4056W        W 8120   1.549   5.657  10.549
 4057W        W 8121   7.539   7.071   0.171
 4058W        W 8122   0.408   9.027  10.877
 4059W        W 8123   2.872   7.499  11.169
 4060W        W 8124   6.559   9.451   1.328
 4061W        W 8125   5.643  10.426   1.925
 4062W        W 8126   7.429   5.322   9.513
 4063W        W 8127   8.020   2.283   1.398
 4064W        W 8128   6.024   3.679   9.936
 4065W        W 8129   5.819   7.481   0.328
 4066W        W 8130   3.431   7.956   1.895
 4067W        W 8131   5.738   6.908   9.197
 4068W        W 8132   6.059   9.086  10.842
 4069W        W 8133   8.446   6.448   2.112
 4070W        W 8134   0.352   8.566   1.677
 4071W        W 8135   6.928   4.991   2.776
 4072W        W 8136   4.123   3.899   8.922
 4073W        W 8137   9.049   4.033   1.525
 4074W        W 8138   4.850   6.834   8.089
 4075W        W 8139   6.143   1.391  11.241
 4076W        W 8140   7.936   8.989   2.943
 4077W        W 8141   3.260   7.120   0.737
 4078W        W 8142   4.964   0.417  10.785
 4079W        W 8143   4.057   3.941   1.379
 4080W        W 8144   6.533   2.976   0.242
 4081W        W 8145   2.315   3.641   3.081
 4082W        W 8146   1.676   7.156   0.573
 4083W        W 8147   6.030   3.153  11.108
 4084W        W 8148   4.709   3.805   3.005
 4085W        W 8149  10.308   4.140   2.817
 4086W        W 8150   7.975   3.760   3.339
 4087W        W 8151   8.454   0.714   3.297
 4088W        W 8152   8.497   1.722   3.042
 4089W        W 8153   1.368   6.461  10.847
 4090W        W 8154   4.072   5.636   1.634
 4091W        W 8155   3.247   2.446   3.152
 4092W        W 8156   2.667   9.291   9.869
 4093W        W 8157   6.199   1.762   9.954
 4094W        W 8158   0.761   4.097   1.716
 4095W        W 8159   5.497   7.035   8.704
 4096W        W 8160   6.171   8.555   0.829
 4097W        W 8161   9.189   5.948   9.983
 4098W        W 8162   3.784   3.570   1.156
 4099W        W 8163   9.068   4.608   2.636
 4100W        W 8164   9.858   0.915   1.246
 4101W        W 8165   5.036   9.504   9.251
 4102W        W 8166   2.387   2.591  10.766
 4103W        W 8167   1.372   6.563   0.899
 4104W        W 8168   2.914   8.926   9.595
 4105W        W 8169   0.941   3.810   3.265
 4106W        W 8170   4.207   1.242   1.705
 4107W        W 8171   0.703   7.307   8.909
 4108W        W 8172   5.567   3.821   1.419
 4109W        W 8173   9.047   0.323   9.980
 4110W        W 8174   1.001   3.056   2.855
 4111W        W 8175   2.935   7.182   2.732
 4112W        W 8176   3.155   3.828   9.086
 4113W        W 8177   8.374   0.324   2.940
 4114W        W 8178   9.779   9.002  11.514
 4115W        W 8179   5.025   6.688   0.776
 4116W        W 8180  10.487   2.817   1.940
 4117W        W 8181   8.642   6.663  10.783
 4118W        W 8182   4.287   9.125   2.764
 4119W        W 8183   9.984   3.039   9.326
 4120W        W 8184   7.473   9.321  10.692
 4121W        W 8185   5.975   5.287  11.501
 4122W        W 8186   9.432   4.283  10.543
 4123W        W 8187   6.681   4.285   2.303
 4124W        W 8188   3.724   9.842  10.297
 4125W        W 8189   7.305   2.159   9.408
 4126W        W 8190   9.741   0.772   0.230
 4127W        W 8191   5.065   3.733  10.996
 4128W        W 8192   0.479   8.262  10.235
 4129W        W 8193   0.808   7.814   2.696
 4130W        W 8194   5.105   3.094   3.046
 4131W        W 8195   9.931   0.280   0.734
 4132W        W 8196   7.487   6.316   0.025
 4133W        W 8197   3.581   1.118   9.872
 4134W        W 8198   8.284   4.279   9.830
 4135W        W 8199   2.254   3.254  11.472
 4136W        W 8200   4.145   6.179   8.892
 4137W        W 8201   4.597   4.653   0.099
 4138W        W 8202   7.890   1.351   8.848
 4139W        W 8203   9.530   0.915   2.726
 4140W        W 8204   6.657   2.288   1.800
 4141W        W 8205   4.770   1.876   1.399
 4142W        W 8206   5.710  10.289   3.364
 4143W        W 8207   4.340   7.437   9.442
 4144W        W 8208   5.800   3.177   1.887
 4145W        W 8209  10.425   3.284  10.607
 4146W        W 8210   5.165   9.072  10.973
 4147W        W 8211   8.620   2.892  11.006
 4148W        W 8212   5.545   0.686   1.253
 4149W        W 8213   4.210   7.764  10.312
 4150W        W 8214   2.430   5.633   8.399
 4151W        W 8215   1.369   6.119   2.411
 4152W        W 8216   4.700   4.961   0.732
 4153W        W 8217   0.301   7.983  10.621
 4154W        W 8218   7.442   6.071   0.916
 4155W        W 8219   4.575   5.223   2.601
 4156W        W 8220   5.241  10.057  10.563
 4157W        W 8221   5.758   6.224   9.874
 4158W        W 8222  10.442   1.132   2.912
 4159W        W 8223   7.541   1.142   3.417
 4160W        W 8224   5.672   9.029  10.185
 4161W        W 8225   2.701   5.723   9.063
 4162W        W 8226   3.628   1.631   9.913
 4163W        W 8227   5.711   2.383   1.399
 4164W        W 8228   3.406   5.775   9.980
 4165W        W 8229   8.028   2.936   0.675
 4166W        W 8230   3.406   6.114  11.397
 4167W        W 8231   2.437   6.489   8.620
 4168W        W 8232   2.378   1.960   1.494
 4169W        W 8233   4.574   5.602   1.812
 4170W        W 8234   6.843   2.150   9.580
 4171W        W 8235   0.372   0.029  11.352
 4172W        W 8236   8.373   6.942   2.018
 4173W        W 8237   6.446   3.360   1.312
 4174W        W 8238   9.393   6.213  10.404
 4175W        W 8239   9.061   6.854   9.046
 4176W        W 8240   2.442   2.909   1.653
 4177W        W 8241   0.742   8.344   9.798
 4178W        W 8242   1.949   8.434   2.672
 4179W        W 8243   2.735   9.245   8.845
 4180W        W 8244   8.923   9.101   9.583
 4181W        W 8245   6.000   6.755  11.598
 4182W        W 8246   8.680   4.987   9.348
 4183W        W 8247   5.059   2.735   3.405
 4184W        W 8248   1.712   3.218   1.683
 4185W        W 8249   4.300   6.449  11.000
 4186W        W 8250   2.684   9.102  11.789
 4187W        W 8251   0.782   9.416   1.893
 4188W        W 8252   7.453  10.301   2.124
 4189W        W 8253   9.763   4.326  10.014
 4190W        W 8254   4.115   0.402   3.380
 4191W        W 8255   4.529   8.932   0.658
 4192W        W 8256   7.247   5.745   2.151
 4193W        W 8257   0.773   3.736  10.768
 4194W        W 8258   3.136   2.319   2.180
 4195W        W 8259  10.425   9.858   1.447
 4196W        W 8260   5.928   9.594   3.594
 4197W        W 8261   6.948   8.131  10.785
 4198W        W 8262   0.772   5.174   2.133
 4199W        W 8263   0.492   1.916   2.246
 4200W        W 8264   1.162   6.402   8.566
 4201W        W 8265   4.485   1.715   2.402
 4202W        W 8266   0.818   3.061   8.970
 4203W        W 8267   2.748   6.469   0.847
 4204W        W 8268   0.506   7.716  11.412
 4205W        W 8269   3.713   0.452   1.985
 4206W        W 8270   0.838   1.789  11.401
 4207W        W 8271   4.935   4.199   9.126
 4208W        W 8272   7.765   0.836   1.781
 4209W        W 8273   5.528   6.735   3.572
 4210W        W 8274   1.253   6.078   9.927
 4211W        W 8275   9.997   4.024   0.211
 4212W        W 8276   8.392   1.237   3.325
 4213W        W 8277  10.255   5.490   2.673
 4214W        W 8278   5.783   7.094  10.051
 4215W        W 8279   7.478   2.715   1.963
 4216W        W 8280   9.180  10.279   9.863
 4217W        W 8281   0.316   5.440  11.060
 4218W        W 8282   4.790   7.947  10.327
 4219W        W 8283   8.846   1.453   9.184
 4220W        W 8284   1.214   3.981   1.936
 4221W        W 8285   3.735   5.839  11.725
 4222W        W 8286   6.568   8.355   2.707
 4223W        W 8287   3.238   6.967   9.039
 4224W        W 8288   1.357   2.275  11.882
 4225W        W 8289   7.838   9.543  10.376
 4226W        W 8290   6.750   4.021   9.318
 4227W        W 8291   8.393   2.614  11.908
 4228W        W 8292   8.046   9.994   0.407
 4229W        W 8293   7.584   6.623   0.475
 4230W        W 8294   8.757   9.534   2.254
 4231W        W 8295   4.696   4.174   3.382
 4232W        W 8296   6.095   8.457   9.280
 4233W        W 8297   3.737   1.328   1.930
 4234W        W 8298   0.870   6.915   9.218
 4235W        W 8299   7.864   1.807   0.066
 4236W        W 8300   6.675   6.497  11.361
 4237W        W 8301  10.426   8.310   3.197
 4238W        W 8302   9.647   3.734   8.863
 4239W        W 8303   4.228   7.408  11.276
 4240W        W 8304  10.417   9.412   0.598
 4241W        W 8305   4.718   8.927   3.121
 4242W        W 8306   3.201   3.718  10.085
 4243W        W 8307   6.067   9.584  10.964
 4244W        W 8308  10.483   9.704  11.426
 4245W        W 8309   1.584   3.772   2.924
 4246W        W 8310   7.628   1.335  10.621
 4247W        W 8311   8.361   7.093  10.761
 4248W        W 8312   4.336   5.273   8.450
 4249W        W 8313   2.336   3.927   8.831
 4250W        W 8314   4.747   6.044   1.014
 4251W        W 8315   1.899   3.060  11.901
 4252W        W 8316   3.317   7.149  10.457
 4253W        W 8317   9.337   2.823   1.678
 4254W        W 8318   3.509   2.706   2.323
 4255W        W 8319   4.717   7.032   2.486
 4256W        W 8320   6.098   2.235  10.149
 4257W        W 8321   1.828   5.996   1.802
 4258W        W 8322   7.820   9.731  11.646
 4259W        W 8323   6.680   6.160  11.959
 4260W        W 8324   9.382   9.051   1.331
 4261W        W 8325   9.436   0.009   2.634
 4262W        W 8326   1.937   9.759   0.697
 4263W        W 8327   2.061   9.945  10.404
 4264W        W 8328   0.386   2.892   0.698
 4265W        W 8329   2.178   4.500  10.858
 4266W        W 8330   3.277   4.425   3.600
 4267W        W 8331   0.039   2.820   0.331
 4268W        W 8332  10.303   8.218  10.729
 4269W        W 8333   5.236   9.481   0.781
 4270W        W 8334   4.821   2.331   1.188
 4271W        W 8335   1.715   8.477  11.780
 4272W        W 8336   3.221   7.210   1.414
 4273W        W 8337   0.268   5.227   3.602
 4274W        W 8338   8.929   6.219   8.533
 4275W        W 8339   6.946   4.076   0.685
 4276W        W 8340   1.344   7.851   0.306
 4277W        W 8341   2.850   9.836   1.870
 4278W        W 8342   2.112   6.633  11.804
 4279W        W 8343   1.935   9.442  11.476
 4280W        W 8344   5.956   4.314   9.079
 4281W        W 8345   8.010   9.689   9.885
 4282W        W 8346   8.149   8.612   2.651
 4283W        W 8347   9.379   1.724   9.836
 4284W        W 8348   3.616   3.545   2.152
 4285W        W 8349   3.556   9.542   9.905
 4286W        W 8350   1.389   3.191  11.849
 4287W        W 8351   2.183   3.735   9.819
 4288W        W 8352   3.237   8.851   3.421
 4289W        W 8353   8.373   5.247  10.966
 4290W        W 8354   3.237   0.668   2.970
 4291W        W 8355   3.868   4.677   8.297
 4292W        W 8356  10.228   6.074   2.879
 4293W        W 8357   6.548   4.880   1.277
 4294W        W 8358   3.746   4.532   1.960
 4295W        W 8359   2.619   1.954   8.916
 4296W        W 8360   4.410  10.109  10.432
 4297W        W 8361   7.097   2.210  10.045
 4298W        W 8362   9.581   2.987  10.833
 4299W        W 8363   1.689   7.554   9.073
 4300W        W 8364   6.717   6.179   3.986
 4301W        W 8365   1.798   7.044  11.752
 4302W        W 8366   0.017  10.228   9.584
 4303W        W 8367   0.274   3.107   1.191
 4304W        W 8368   9.490   5.642   0.714
 4305W        W 8369   8.997   5.035   8.940
 4306W        W 8370   8.545   6.629   1.653
 4307W        W 8371   0.910   4.751  10.730
 4308W        W 8372   2.349   4.756  11.254
 4309W        W 8373   3.833   8.297   9.533
 4310W        W 8374   2.082   1.032   1.312
 4311W        W 8375   6.355   9.771   9.219
 4312W        W 8376   5.056   4.254   8.635
 4313W        W 8377   6.145   2.233   1.671
 4314W        W 8378   4.659   5.892  10.500
 4315W        W 8379  10.319   2.983  11.897
 4316W        W 8380   8.423   4.269   0.253
 4317W        W 8381   7.817   9.006   2.457
 4318W        W 8382   2.839   8.524   2.751
 4319W        W 8383   3.396  10.349   2.902
 4320W        W 8384   0.016  10.481   0.771
 4321W        W 8385   2.764  10.336  11.670
 4322W        W 8386   8.188   6.635   3.088
 4323W        W 8387   0.253   6.549   9.279
 4324W        W 8388   4.158   9.249   1.409
 4325W        W 8389   3.475   0.366   8.559
 4326W        W 8390   6.554   3.652   1.997
 4327W        W 8391   8.956  10.188   0.058
 4328W        W 8392   0.364   8.940   2.114
 4329W        W 8393   1.339   1.305   0.038
 4330W        W 8394   8.842   9.985   3.002
 4331W        W 8395   0.561   0.979  11.031
 4332W        W 8396   5.933   6.400   3.567
 4333W        W 8397   6.169   0.961  10.942
 4334W        W 8398   7.875   0.843   0.365
 4335W        W 8399   9.564   7.354  11.891
 4336W        W 8400   2.352   1.114   8.990
 4337W        W 8401   2.044   9.827  11.806
 4338W        W 8402   3.369   7.492  11.229
 4339W        W 8403   0.049   2.662   1.053
 4340W        W 8404   2.748   2.190  11.359
 4341W        W 8405   5.227   9.995   0.017
 4342W        W 8406   6.502   8.343   1.766
 4343W        W 8407   4.719   5.504  11.822
 4344W        W 8408   1.669   7.899   9.886
 4345W        W 8409   1.307   2.759   2.603
 4346W        W 8410  10.188   7.251   0.957
 4347W        W 8411   6.538  10.279   9.367
 4348W        W 8412   4.165   8.509   9.864
 4349W        W 8413   5.971   0.002  11.758
 4350W        W 8414   0.112   5.332   0.880
 4351W        W 8415  10.272   6.557   9.069
 4352W        W 8416   8.117   4.109   9.367
 4353W        W 8417   3.346   2.398  10.405
 4354W        W 8418   7.680   5.274  11.408
 4355W        W 8419   6.632   6.913   0.368
 4356W        W 8420   6.131   1.862   0.060
 4357W        W 8421   9.302   0.292   1.304
 4358W        W 8422   5.910   5.741   9.870
 4359W        W 8423   9.033   5.714   2.448
 4360W        W 8424   9.543  10.495   0.943
 4361W        W 8425   0.470   6.079   9.359
 4362W        W 8426   7.499   6.133   2.951
 4363W        W 8427   6.093   6.090   9.490
 4364W        W 8428   6.699   3.064   9.374
 4365W        W 8429   0.780   9.012   2.691
 4366W        W 8430   4.935   2.661   1.960
 4367W        W 8431   3.063   0.195  11.313
 4368W        W 8432   4.235   1.067  10.470
 4369W        W 8433  10.408   6.955   8.742
 4370W        W 8434   3.740   3.311   3.011
 4371W        W 8435   7.528   4.007   4.347
 4372W        W 8436   9.337   6.165  11.371
 4373W        W 8437   2.695   7.418  11.658
 4374W        W 8438   0.525   7.738  11.932
 4375W        W 8439   7.176   4.967   1.941
 4376W        W 8440   0.306   5.076   2.652
 4377W        W 8441   4.190   6.267   2.911
 4378W        W 8442   3.621   3.759  10.367
 4379W        W 8443   5.555   1.682   0.927
 4380W        W 8444   3.705   0.737   8.947
 4381W        W 8445   7.545   1.365  11.118
 4382W        W 8446   2.720   9.757   9.023
 4383W        W 8447   4.700  10.057   0.799
 4384W        W 8448   6.693   8.479   2.234
 4385W        W 8449   5.055   4.006   9.866
 4386W        W 8450   6.881   0.767   9.612
 4387W        W 8451   2.123   6.895   1.880
 4388W        W 8452   8.819   2.917  11.993
 4389W        W 8453   5.072   6.671   2.339
 4390W        W 8454   0.790   2.240   1.167
 4391W        W 8455   9.028   8.896   0.879
 4392W        W 8456   9.890   8.222   2.794
 4393W        W 8457   3.317   7.592  10.220
 4394W        W 8458   4.917   6.199  11.550
 4395W        W 8459   7.043   5.396   1.031
 4396W        W 8460   7.913   6.293   0.924
 4397W        W 8461   8.342   5.930  11.364
 4398W        W 8462   6.325   2.701  10.923
 4399W        W 8463   8.335   6.341   2.600
 4400W        W 8464  10.019   6.153  10.966
 4401W        W 8465   2.074   8.469   2.118
 4402W        W 8466   8.948   2.646   0.996
 4403W        W 8467   9.500   5.443   1.673
 4404W        W 8468   4.082   8.899   1.002
 4405W        W 8469   2.593   9.996  10.435
 4406W        W 8470   5.100   9.554   1.297
 4407W        W 8471   7.146   7.488   9.181
 4408W        W 8472  10.158   6.647  10.964
 4409W        W 8473   4.125   3.765  11.794
 4410W        W 8474   9.964   2.958   8.811
 4411W        W 8475   2.917   9.914  11.415
 4412W        W 8476   5.524   0.745   0.735
 4413W        W 8477   0.240   7.109   3.310
 4414W        W 8478   5.627  10.406   9.357
 4415W        W 8479   7.923   3.304   9.693
 4416W        W 8480   7.410   1.427   8.652
 4417W        W 8481   5.447   5.550   1.876
 4418W        W 8482   9.548   4.478   2.584
 4419W        W 8483   9.952   4.070   1.968
 4420W        W 8484   9.276   8.836  10.819
 4421W        W 8485   5.988   3.501   9.345
 4422W        W 8486   2.834   8.332   0.250
 4423W        W 8487   1.471   4.704   0.900
 4424W        W 8488   9.753   8.873  11.017
 4425W        W 8489   9.830   5.192   0.975
 4426W        W 8490   1.453   6.164   9.434
 4427W        W 8491   8.060   6.091   9.491
 4428W        W 8492   5.191   0.268  10.341
 4429W        W 8493   4.985   3.758   0.512
 4430W        W 8494   2.716   1.187  10.317
 4431W        W 8495   8.520   1.713   2.513
 4432W        W 8496   4.571   3.849  11.528
 4433W        W 8497   5.207  10.001   9.592
 4434W        W 8498   1.400   6.629   3.075
 4435W        W 8499   0.498   8.218   2.726
 4436W        W 8500   6.113   4.271   2.614
 4437W        W 8501   8.097   0.191  10.166
 4438W        W 8502   3.556   9.910   3.179
 4439W        W 8503   5.454   8.568  10.372
 4440W        W 8504   9.472   7.274   0.397
 4441W        W 8505   2.359   7.077   2.494
 4442W        W 8506   2.776   1.844   9.499
 4443W        W 8507   2.349   7.760  10.466
 4444W        W 8508   6.111   4.174   0.252
 4445W        W 8509   4.286   8.070   2.924
 4446W        W 8510   2.672   4.618   9.322
 4447W        W 8511  10.370   8.486   1.806
 4448W        W 8512   1.803   0.312   8.880
 4449W        W 8513   2.247   4.119  11.298
 4450W        W 8514   4.776   6.060   0.008
 4451W        W 8515   6.021   0.857   2.569
 4452W        W 8516   4.678   9.097   9.206
 4453W        W 8517   8.532   1.074   1.422
 4454W        W 8518   8.360   2.633   2.531
 4455W        W 8519   4.685  10.347   1.929
 4456W        W 8520   9.062   0.698  10.788
 4457W        W 8521   0.763   8.518   3.406
 4458W        W 8522   6.131   1.682   1.491
 4459W        W 8523   5.259   8.189   2.706
 4460W        W 8524   0.311   1.667   1.749
 4461W        W 8525   7.393   7.138  10.485
 4462W        W 8526   8.297   5.162   3.047
 4463W        W 8527   7.080   5.323   3.809
 4464W        W 8528  10.301   4.199  11.755
 4465W        W 8529   0.318   7.592   1.908
 4466W        W 8530   9.933   5.522   1.411
 4467W        W 8531   5.653   3.507  11.750
 4468W        W 8532   4.060   2.392  11.372
 4469W        W 8533   6.030   4.091   0.766
 4470W        W 8534   8.011   3.558  10.659
 4471W        W 8535   3.135   0.295   2.630
 4472W        W 8536   5.762   9.155  11.748
 4473W        W 8537   2.837   0.733  10.587
 4474W        W 8538   6.688   1.399   0.469
 4475W        W 8539   7.396   5.548   9.986
 4476W        W 8540   4.185   3.433   1.434
 4477W        W 8541   3.568  10.057   0.007
 4478W        W 8542   4.284   9.636   2.691
 4479W        W 8543   5.640   6.598  10.260
 4480W        W 8544   9.376   1.517  10.774
 4481W        W 8545   8.263   3.724  10.255
 4482W        W 8546   0.701   5.494  11.383
 4483W        W 8547   0.430   1.894   0.876
 4484W        W 8548   4.133   7.050   0.714
 4485W        W 8549   4.233   0.740  11.837
 4486W        W 8550   5.284   8.551   9.380
 4487W        W 8551   1.783   2.122   9.828
 4488W        W 8552   3.316   6.117   9.583
 4489W        W 8553   7.049  10.091   0.308
 4490W        W 8554   1.585   7.796   3.694
 4491W        W 8555   8.426   3.288   9.813
 4492W        W 8556   6.562   2.129  11.472
 4493W        W 8557   1.788   6.974  10.286
 4494W        W 8558   0.353   6.007   2.025
 4495W        W 8559   5.978   7.097   9.590
 4496W        W 8560   2.686   5.162   3.307
 4497W        W 8561   1.876   0.343   1.775
 4498W        W 8562   1.703   7.969  11.941
 4499W        W 8563   6.274   8.260  10.290
 4500W        W 8564   7.001   2.200   2.502
 4501W        W 8565   6.161   8.936   9.073
 4502W        W 8566   8.882   6.170  10.378
 4503W        W 8567   6.302   2.793   3.203
 4504W        W 8568   7.099   2.733   1.198
 4505W        W 8569   9.927   6.506  11.426
 4506W        W 8570   9.513   3.777   1.439
 4507W        W 8571   0.873   6.043   2.336
 4508W        W 8572   7.787   8.153   1.037
 4509W        W 8573   4.284   3.256   3.544
 4510W        W 8574   0.539   8.951   0.211
 4511W        W 8575   5.684   0.275   2.337
 4512W        W 8576   2.161   0.355  10.255
 4513W        W 8577   9.862   6.590   9.386
 4514W        W 8578   3.789   2.970   0.469
 4515W        W 8579   8.874   4.613   9.648
 4516W        W 8580   0.968   9.430  11.532
 4517W        W 8581   1.319   1.421   2.754
 4518W        W 8582   1.865   5.722   0.021
 4519W        W 8583   7.904   7.176  11.187
 4520W        W 8584   9.259   0.105   3.109
 4521W        W 8585   1.498   9.518   0.877
 4522W        W 8586   8.580   0.257   2.015
 4523W        W 8587  10.425   4.189   1.746
 4524W        W 8588   7.208   5.153   1.449
 4525W        W 8589   8.405  10.446   2.373
 4526W        W 8590   3.184   3.323  11.553
 4527W        W 8591   4.644   6.857   0.447
 4528W        W 8592   3.396   5.728  10.783
 4529W        W 8593   9.702   5.668   8.925
 4530W        W 8594   7.852   9.072  10.969
 4531W        W 8595   2.940   0.493  11.767
 4532W        W 8596   9.091   3.743   9.914
 4533W        W 8597   5.738   5.285   2.216
 4534W        W 8598   4.256  10.317   2.250
 4535W        W 8599   0.466   8.094   1.876
 4536W        W 8600   0.914   6.618  11.093
 4537W        W 8601   0.920   3.897   8.196
 4538W        W 8602   5.764   6.890   2.773
 4539W        W 8603   8.373   2.110  10.779
 4540W        W 8604   6.772   0.781  10.854
 4541W        W 8605   5.829   1.513  10.324
 4542W        W 8606   8.280   7.281  11.505
 4543W        W 8607   5.069   9.106   2.295
 4544W        W 8608   7.010   5.258   9.837
 4545W        W 8609   9.840   5.949   0.467
 4546W        W 8610   6.966   3.280   9.762
 4547W        W 8611   4.778   3.813   2.479
 4548W        W 8612   8.661   7.138   9.822
 4549W        W 8613   5.498   7.565   3.230
 4550W        W 8614   3.557   7.150  10.899
 4551W        W 8615   3.030   0.658  11.053
 4552W        W 8616   8.052   8.956  11.905
 4553W        W 8617   9.816   5.102  11.913
 4554W        W 8618   8.947   1.837   9.574
 4555W        W 8619   6.138   3.781  11.789
 4556W        W 8620   7.383   0.323  10.353
 4557W        W 8621   1.116   2.219  10.918
 4558W        W 8622   3.315   3.311   1.326
 4559W        W 8623   8.841   7.782   2.843
 4560W        W 8624   4.730   9.406   0.600
 4561W        W 8625   7.055   1.763   1.402
 4562W        W 8626   2.241   8.628  10.120
 4563W        W 8627   4.342   9.729  10.872
 4564W        W 8628   3.130   5.566   1.838
 4565W        W 8629   5.712   3.067   9.294
 4566W        W 8630   7.204   8.125  10.312
 4567W        W 8631   6.713   5.347   1.440
 4568W        W 8632   9.823   0.771  11.701
 4569W        W 8633   3.918   9.820  11.693
 4570W        W 8634   3.672   6.946   1.498
 4571W        W 8635   1.482   0.204   1.498
 4572W        W 8636   6.063   5.786  11.324
 4573W        W 8637   3.858   4.020   2.184
 4574W        W 8638   4.040   4.181   2.659
 4575W        W 8639   3.270   4.742   3.199
 4576W        W 8640   9.158   6.898   2.522
 4577W        W 8641   2.727   8.343   3.402
 4578W        W 8642   3.849   0.871   1.711
 4579W        W 8643   4.844   6.667   9.890
 4580W        W 8644   2.560   0.230  11.446
 4581W        W 8645   3.360   3.130  10.909
 4582W        W 8646   9.607   9.328   3.360
 4583W        W 8647   6.974   2.914  11.326
 4584W        W 8648   1.269   1.560   1.717
 4585W        W 8649   5.072   6.934   1.231
 4586W        W 8650   7.071   7.204   2.303
 4587W        W 8651   7.997   6.961   2.353
 4588W        W 8652   5.496   3.805   2.688
 4589W        W 8653   8.769   9.775   3.468
 4590W        W 8654   3.663   4.718   1.500
 4591W        W 8655   5.959   8.347  11.931
 4592W        W 8656   1.226   8.070   2.520
 4593W        W 8657   7.890   0.406   2.812
 4594W        W 8658   1.903   8.838  11.018
 4595W        W 8659   1.888   9.469  10.048
 4596W        W 8660   4.674   2.852   2.839
 4597W        W 8661   9.927   1.364   1.549
 4598W        W 8662   6.182   0.421   2.371
 4599W        W 8663   6.578   7.059   1.294
 4600W        W 8664   3.822   4.085   0.152
 4601W        W 8665   3.684   0.698   3.294
 4602W        W 8666   7.833   5.285   9.872
 4603W        W 8667   7.100   8.555  10.006
 4604W        W 8668   4.716   9.042  10.231
 4605W        W 8669   0.838   0.941   1.885
 4606W        W 8670   4.253   7.476   0.475
 4607W        W 8671   2.751   1.049   0.663
 4608W        W 8672   2.756   0.451   2.947
 4609W        W 8673   7.660   3.302   0.719
 4610W        W 8674   4.185   5.336  10.052
 4611W        W 8675   0.554   2.783   2.818
 4612W        W 8676   4.236   4.389   9.033
 4613W        W 8677   7.369   3.866   0.097
 4614W        W 8678   1.926   6.462  10.319
 4615W        W 8679   3.699   4.579  11.951
 4616W        W 8680   8.431   9.028   2.829
 4617W        W 8681   6.424   8.119  10.792
 4618W        W 8682  10.447   6.470  11.359
 4619W        W 8683   6.013   5.541   9.022
 4620W        W 8684   0.731   5.908   2.823
 4621W        W 8685   0.051   6.595   1.240
 4622W        W 8686   8.670  10.450  10.876
 4623W        W 8687   0.040   2.673  10.042
 4624W        W 8688   9.831   5.162  11.046
 4625W        W 8689   5.063   2.817  11.420
 4626W        W 8690   0.608   9.010  11.335
 4627W        W 8691   2.601   2.261   8.526
 4628W        W 8692   8.695   1.015   9.363
 4629W        W 8693   3.491   4.162  11.769
 4630W        W 8694   8.779   8.819  10.628
 4631W        W 8695   8.500   5.010   2.256
 4632W        W 8696   1.132   2.932   0.933
 4633W        W 8697   9.376   6.495   9.232
 4634W        W 8698   7.116   8.354   0.822
 4635W        W 8699   9.857   2.291   1.655
 4636W        W 8700   5.591   4.745   2.844
 4637W        W 8701   2.934  10.422  10.159
 4638W        W 8702   4.522   0.585   2.531
 4639W        W 8703   6.783   6.157   9.933
 4640W        W 8704   5.912   8.576   3.387
 4641W        W 8705   3.064   8.091   2.567
 4642W        W 8706   5.122   9.054   8.933
 4643W        W 8707   6.548   3.601  10.014
 4644W        W 8708   2.537   3.310   9.849
 4645W        W 8709   0.946   6.157  10.873
 4646W        W 8710   8.966   7.395   3.213
 4647W        W 8711   6.881   6.548   3.664
 4648W        W 8712  10.363   4.724   9.852
 4649W        W 8713   5.473   0.438   1.852
 4650W        W 8714   5.496   3.609   1.917
 4651W        W 8715   8.524   7.729   1.413
 4652W        W 8716   6.453   4.549   4.083
 4653W        W 8717   1.806   9.816   1.179
 4654W        W 8718   8.638   4.134   9.466
 4655W        W 8719   0.370   2.878  11.943
 4656W        W 8720   5.012   8.570   2.922
 4657W        W 8721   8.370   5.150   3.532
 4658W        W 8722   8.014  10.327   8.822
 4659W        W 8723  10.434   2.489  11.932
 4660W        W 8724   4.300   8.607   2.826
 4661W        W 8725   9.608  10.078  10.933
 4662W        W 8726   3.887   4.639   9.367
 4663W        W 8727   1.169   7.422   9.083
 4664W        W 8728   4.782   2.093  11.765
 4665W        W 8729   8.761   0.142  11.371
 4666W        W 8730   3.959   5.623   8.487
 4667W        W 8731   3.716   2.279   1.509
 4668W        W 8732   2.233   2.377   9.038
 4669W        W 8733   7.385   4.584   0.816
 4670W        W 8734   5.147   0.842   9.427
 4671W        W 8735   7.016   8.476   1.780
 4672W        W 8736   9.295   3.184   3.220
 4673W        W 8737   0.848   0.997   8.901
 4674W        W 8738   1.168   7.978  11.072
 4675W        W 8739   0.017   0.518   2.185
 4676W        W 8740   5.660   7.038  10.944
 4677W        W 8741   6.588  10.149   3.426
 4678W        W 8742   8.499   1.504  10.836
 4679W        W 8743   7.493   4.760  10.735
 4680W        W 8744   4.690   4.694  10.459
 4681W        W 8745   3.767   0.893  11.680
 4682W        W 8746   9.607   3.839  10.321
 4683W        W 8747   8.677   3.227   9.336
 4684W        W 8748   3.337   5.532  11.999
 4685W        W 8749   5.653   4.815   9.864
 4686W        W 8750   0.250   0.813  10.177
 4687W        W 8751   3.170   5.931   8.534
 4688W        W 8752   1.779   7.931  10.402
 4689W        W 8753   6.581  10.222   1.865
 4690W        W 8754   8.094   9.867   1.891
 4691W        W 8755   4.601   7.870  11.185
 4692W        W 8756   2.619   0.908   1.165
 4693W        W 8757   6.209   7.413   0.008
 4694W        W 8758   9.319   2.487   9.565
 4695W        W 8759   1.812   6.752   2.778
 4696W        W 8760   1.662   6.850   9.807
 4697W        W 8761   0.219   2.014   9.512
 4698W        W 8762   8.535   6.034  11.836
 4699W        W 8763   3.162   2.862   8.805
 4700W        W 8764   9.933   0.881   1.760
 4701W        W 8765   5.478   8.989   0.812
 4702W        W 8766   6.116   3.255  11.657
 4703W        W 8767   9.983   1.724  11.925
 4704W        W 8768   2.996   4.113  11.837
 4705W        W 8769   1.727   1.315  10.256
 4706W        W 8770   3.577   0.062  11.241
 4707W        W 8771   0.384   6.920   8.958
 4708W        W 8772   7.137   5.751   1.382
 4709W        W 8773   5.486   2.854   9.716
 4710W        W 8774   8.437   2.106   1.687
 4711W        W 8775   8.453   9.748   0.243
 4712W        W 8776   6.430   9.348   0.364
 4713W        W 8777   6.940   4.647   4.329
 4714W        W 8778   8.562   3.801   9.852
 4715W        W 8779   3.215   2.328   1.434
 4716W        W 8780   1.396   5.213   1.388
 4717W        W 8781   0.188   0.695   3.180
 4718W        W 8782   7.878   4.982  11.025
 4719W        W 8783   0.699   4.976   9.801
 4720W        W 8784  10.277   5.676   9.630
 4721W        W 8785  10.060   3.647   8.560
 4722W        W 8786   9.122   4.736  10.641
 4723W        W 8787   7.610   0.425   0.357
 4724W        W 8788   5.265   4.038   2.282
 4725W        W 8789   9.787   9.818   3.357
 4726W        W 8790   1.939   8.316  11.019
 4727W        W 8791   9.252   4.051  11.799
 4728W        W 8792   1.396   5.567  10.044
 4729W        W 8793   2.147   8.466   9.638
 4730W        W 8794   8.450   6.441  11.272
 4731W        W 8795   8.347   8.504   3.132
 4732W        W 8796   7.715   9.979   1.299
 4733W        W 8797   7.082   3.578  10.173
 4734W        W 8798   9.396   6.014  10.892
 4735W        W 8799   7.781  10.240   1.743
 4736W        W 8800   4.739   5.771   9.568
 4737W        W 8801   6.130   6.253   2.269
 4738W        W 8802   7.578   2.127  10.332
 4739W        W 8803   6.620   0.219   0.702
 4740W        W 8804   6.107   0.783   8.416
 4741W        W 8805   7.378   0.887   0.401
 4742W        W 8806   9.583   3.854   9.812
 4743W        W 8807  10.363   9.212   2.082
 4744W        W 8808   6.098   8.041   1.873
 4745W        W 8809  10.197   1.546   0.345
 4746W        W 8810   7.104   5.082   0.185
 4747W        W 8811   8.584   3.050   2.309
 4748W        W 8812   2.799   5.198   9.041
 4749W        W 8813   8.256   6.194   9.935
 4750W        W 8814   4.222   6.718  10.563
 4751W        W 8815   3.628   3.664   8.915
 4752W        W 8816   0.774   3.617   8.664
 4753W        W 8817   4.313   3.305  10.459
 4754W        W 8818   3.685   6.725  10.056
 4755W        W 8819   0.770   0.741   3.183
 4756W        W 8820   2.780   8.344  10.866
 4757W        W 8821   4.680   4.892   9.338
 4758W        W 8822   5.515   5.863  10.763
 4759W        W 8823   5.303   5.075   1.940
 4760W        W 8824   7.539   0.780   9.566
 4761W        W 8825   5.154   6.215  11.047
 4762W        W 8826   6.545   6.119   3.005
 4763W        W 8827   5.476   1.326   9.453
 4764W        W 8828  10.435   3.513   0.463
 4765W        W 8829   2.486   5.265  11.505
 4766W        W 8830  10.148   4.005   3.620
 4767W        W 8831   9.426   6.589   2.208
 4768W        W 8832   2.655   1.180   9.488
 4769W        W 8833  10.422   9.128  10.879
 4770W        W 8834   0.872   3.112   0.067
 4771W        W 8835   4.582   6.452   3.726
 4772W        W 8836   2.439   5.143  11.999
 4773W        W 8837   7.779   0.631  10.089
 4774W        W 8838   0.846   0.325   3.625
 4775W        W 8839   3.124  10.425   1.420
 4776W        W 8840   8.404   7.301   2.518
 4777W        W 8841   8.423   7.504   2.983
 4778W        W 8842   0.853   7.654   0.343
 4779W        W 8843   0.898   9.516   0.917
 4780W        W 8844   0.934   9.864  11.267
 4781W        W 8845   8.722   9.781  11.779
 4782W        W 8846   1.054   6.308   2.777
 4783W        W 8847  10.455   9.978   0.919
 4784W        W 8848   4.578   2.986  11.430
 4785W        W 8849   1.858   0.901   2.874
 4786W        W 8850   1.703   2.547   2.362
 4787W        W 8851   5.992   0.525   0.138
 4788W        W 8852   8.060   4.859   1.124
 4789W        W 8853   2.674   2.395   2.386
 4790W        W 8854   0.282   3.653  10.508
 4791W        W 8855   3.625   6.220  10.049
 4792W        W 8856   6.571   5.224   0.886
 4793W        W 8857   6.583   5.919   9.541
 4794W        W 8858   6.700   8.689   0.844
 4795W        W 8859   2.351   0.764   2.822
 4796W        W 8860   6.749   9.119   0.033
 4797W        W 8861   1.726   3.155   8.927
 4798W        W 8862   4.981   7.325   9.969
 4799W        W 8863   1.922  10.015   0.266
 4800W        W 8864   8.853   1.801   8.294
 4801W        W 8865   6.586   0.670   2.201
 4802W        W 8866   9.557   6.633   3.129
 4803W        W 8867   2.271   3.416   8.847
 4804W        W 8868   1.768   7.445   0.172
 4805W        W 8869   1.302   6.125  10.460
 4806W        W 8870   3.842   4.647   8.815
 4807W        W 8871   3.778   8.558   9.079
 4808W        W 8872   4.082   2.386   8.941
 4809W        W 8873   1.186   7.995   9.668
 4810W        W 8874   4.330   4.872   8.109
 4811W        W 8875   3.932   2.753  10.868
 4812W        W 8876   4.027   0.005   1.841
 4813W        W 8877   6.574   9.964   1.262
 4814W        W 8878   7.021   6.211   2.195
 4815W        W 8879   4.307  10.063   9.473
 4816W        W 8880   3.666   0.826   0.690
 4817W        W 8881  10.414   3.564   0.981
 4818W        W 8882   1.235   1.081  11.558
 4819W        W 8883   9.578   7.888   0.763
 4820W        W 8884   5.560   3.437   8.962
 4821W        W 8885   6.992   2.429  11.535
 4822W        W 8886   0.991   4.202  11.326
 4823W        W 8887   9.478   0.014  10.707
 4824W        W 8888   1.242  10.219   9.899
 4825W        W 8889   4.334   0.509  11.331
 4826W        W 8890   2.710   9.982   9.930
 4827W        W 8891   4.128   2.954   3.146
 4828W        W 8892  10.457   9.443  10.501
 4829W        W 8893   3.280   8.399   1.586
 4830W        W 8894   3.395   3.219   2.632
 4831W        W 8895   3.246   5.131  10.238
 4832W        W 8896   5.241   0.015   2.275
 4833W        W 8897   9.470   1.891   1.523
 4834W        W 8898   4.209   8.957   3.253
 4835W        W 8899   2.325   5.278   8.789
 4836W        W 8900   7.926   8.464   0.124
 4837W        W 8901   0.497   4.333   9.294
 4838W        W 8902   4.552   6.975   3.957
 4839W        W 8903   9.872   4.665   0.748
 4840W        W 8904   8.139   9.056   1.789
 4841W        W 8905   0.677   9.883  10.826
 4842W        W 8906   5.181   0.416  11.666
 4843W        W 8907   4.956   7.029   9.545
 4844W        W 8908   9.751   4.162  11.799
 4845W        W 8909   1.316   5.827   8.512
 4846W        W 8910   5.712   9.888  10.333
 4847W        W 8911   2.369   4.623   2.256
 4848W        W 8912   4.137   6.908  10.067
 4849W        W 8913   6.941   4.415   1.059
 4850W        W 8914   5.734  10.074   0.021
 4851W        W 8915   9.364   2.872   8.661
 4852W        W 8916   8.111   4.331  11.304
 4853W        W 8917   6.618   9.918  10.397
 4854W        W 8918   5.484   3.577   3.960
 4855W        W 8919   2.949   6.435  11.879
 4856W        W 8920   6.776   7.222   3.556
 4857W        W 8921   2.346  10.498   2.314
 4858W        W 8922   9.730   2.177  10.250
 4859W        W 8923   6.971   4.613   0.549
 4860W        W 8924   3.712   9.478   2.166
 4861W        W 8925   0.281   4.200   3.037
 4862W        W 8926   3.083   0.457   8.919
 4863W        W 8927   0.686   6.677   1.902
 4864W        W 8928   6.639   2.586  11.904
 4865W        W 8929   6.310   9.160   3.693
 4866W        W 8930   4.711   1.828  10.069
 4867W        W 8931   0.672   3.669   2.540
 4868W        W 8932   4.494   0.353   8.933
 4869W        W 8933   0.876   6.349   0.898
 4870W        W 8934   0.333   2.349  11.010
 4871W        W 8935  10.363   0.882   0.999
 4872W        W 8936   3.603   3.666  11.938
 4873W        W 8937   7.557   8.772  11.949
 4874W        W 8938   8.520   1.377  10.071
 4875W        W 8939   7.078   7.574  10.697
 4876W        W 8940   0.365  10.004   1.220
 4877W        W 8941   5.135   6.906   0.288
 4878W        W 8942   4.916   0.040   1.416
 4879W        W 8943   4.335   7.009   1.839
 4880W        W 8944   6.478   0.273   9.844
 4881W        W 8945   0.769  10.388   0.361
 4882W        W 8946   8.375   3.161  10.332
 4883W        W 8947   2.987   5.306   0.889
 4884W        W 8948   5.964   3.225   2.712
 4885W        W 8949   2.425   6.479   9.450
 4886W        W 8950   4.902   3.230   3.477
 4887W        W 8951   6.943   0.782  10.382
 4888W        W 8952   6.338   4.599   2.074
 4889W        W 8953   1.890   8.435  10.514
 4890W        W 8954   2.644   0.722  11.382
 4891W        W 8955   8.113   1.659   8.496
 4892W        W 8956   9.468   6.715   1.342
 4893W        W 8957   0.988   0.247   1.380
 4894W        W 8958   7.192   7.691   2.236
 4895W        W 8959   5.147   7.583  10.400
 4896W        W 8960   9.421   9.523   1.549
 4897W        W 8961  10.496   8.491   1.312
 4898W        W 8962   7.387   6.670   2.927
 4899W        W 8963   8.627   2.235   8.829
 4900W        W 8964   8.190   9.985  11.894
 4901W        W 8965   2.151   2.538   8.570
 4902W        W 8966   6.647   4.946   1.788
 4903W        W 8967   0.171   8.493   0.822
 4904W        W 8968   9.274   2.737   2.687
 4905W        W 8969   4.418   6.183  11.441
 4906W        W 8970   3.127  10.309   0.483
 4907W        W 8971   8.937   1.174  10.763
 4908W        W 8972   2.801   1.230   8.614
 4909W        W 8973   8.857   2.586  10.422
 4910W        W 8974   7.799   4.978   9.191
 4911W        W 8975   0.841   4.442   9.655
 4912W        W 8976   6.414   2.869  10.443
 4913W        W 8977   0.225   8.973   0.642
 4914W        W 8978   6.438   1.128   2.367
 4915W        W 8979   5.916   3.663   4.217
 4916W        W 8980   6.446   7.424   2.617
 4917W        W 8981   7.551   3.748   2.975
 4918W        W 8982   9.662   3.218   1.771
 4919W        W 8983   9.364   1.801  11.242
 4920W        W 8984   9.408   7.761   0.294
 4921W        W 8985   1.461   8.782   0.134
 4922W        W 8986   7.022   5.480   9.194
 4923W        W 8987   0.037   4.143  10.514
 4924W        W 8988   7.713   8.064  10.390
 4925W        W 8989   0.757   7.050   3.361
 4926W        W 8990   0.618   9.834   2.146
 4927W        W 8991   2.199   1.303  11.000
 4928W        W 8992   3.283   6.016  11.871
 4929W        W 8993   0.034   3.320  11.099
 4930W        W 8994   8.557   3.313   1.193
 4931W        W 8995   4.489   6.481   1.718
 4932W        W 8996   5.982   2.618  10.451
 4933W        W 8997   1.660   7.999   2.788
 4934W        W 8998   6.929   9.557   9.961
 4935W        W 8999   7.210   6.577  11.219
 4936W        W 9000   2.479   7.527   2.767
 4937W        W 9001   7.285   1.682   0.953
 4938W        W 9002   6.236   4.509   3.389
 4939W        W 9003   6.042   0.417  10.097
 4940W        W 9004   0.129   4.676   1.982
 4941W        W 9005   0.569   4.108   3.459
 4942W        W 9006   9.954   3.518   0.260
 4943W        W 9007   7.956   7.224   1.898
 4944W        W 9008   4.658   3.963   3.895
 4945W        W 9009   9.958   9.058   2.398
 4946W        W 9010   8.526   4.968   8.430
 4947W        W 9011   7.472   4.147  10.443
 4948W        W 9012   2.239   1.140  11.863
 4949W        W 9013   0.772   3.687   2.037
 4950W        W 9014   9.097   1.674   1.204
 4951W        W 9015   4.431   4.204  11.888
 4952W        W 9016   5.564   1.388   1.553
 4953W        W 9017   7.487   0.753   2.610
 4954W        W 9018   6.658   4.687   3.627
 4955W        W 9019   1.004   9.004   1.665
 4956W        W 9020   1.984   6.228   9.459
 4957W        W 9021   3.692   2.667   3.282
 4958W        W 9022   2.360   4.270  10.024
 4959W        W 9023   7.613   7.957   3.215
 4960W        W 9024   8.829   8.936   3.123
 4961W        W 9025   0.174   4.765   0.289
 4962W        W 9026   2.765   4.840  11.642
 4963W        W 9027   6.228   8.368   9.778
 4964W        W 9028   1.078   3.558   2.859
 4965W        W 9029   6.846   8.984   2.206
 4966W        W 9030   2.705   8.500   1.690
 4967W        W 9031   6.953   3.823  11.323
 4968W        W 9032  10.391   8.840   3.325
 4969W        W 9033   1.981   2.550  11.847
 4970W        W 9034   5.604   0.865   9.195
 4971W        W 9035   7.526   8.716   2.791
 4972W        W 9036   0.933   4.351   3.188
 4973W        W 9037   5.421   3.305   9.930
 4974W        W 9038   3.045   4.085   2.790
 4975W        W 9039   7.840   4.523  11.690
 4976W        W 9040   1.398   2.991   2.138
 4977W        W 9041   7.609   9.800   2.007
 4978W        W 9042   0.798   3.160   0.579
 4979W        W 9043   3.599   6.447   2.730
 4980W        W 9044   2.741   9.053   0.688
 4981W        W 9045   9.164   6.564   3.437
 4982W        W 9046   5.477   0.608  10.695
 4983W        W 9047   0.823   9.869   2.622
 4984W        W 9048   7.515  10.103   8.688
 4985W        W 9049   4.219   7.774  11.619
 4986W        W 9050   1.984   1.008   2.382
 4987W        W 9051   2.162  10.089   1.445
 4988W        W 9052   3.557   1.932   2.626
 4989W        W 9053   7.445   4.245  10.935
 4990W        W 9054   7.231   1.796   8.985
 4991W        W 9055   8.558   6.860   1.200
 4992W        W 9056   7.925   2.695   2.235
 4993W        W 9057   9.443   5.543   9.763
 4994W        W 9058   4.586   7.877   1.947
 4995W        W 9059   4.818   0.338  11.297
 4996W        W 9060   6.415   0.857  10.490
 4997W        W 9061   1.631   2.812  10.445
 4998W        W 9062   0.722   1.701   3.335
 4999W        W 9063   4.539   7.123   9.820
 5000W        W 9064   2.021   3.099   8.511
 5001W        W 9065   9.794   5.925  10.563
 5002W        W 9066   4.841   7.534   9.519
 5003W        W 9067   3.405   6.564   9.298
 5004W        W 9068   0.488   2.558   0.306
 5005W        W 9069   1.854   4.230   8.766
 5006W        W 9070   2.215   1.622   8.927
 5007W        W 9071   2.705   3.801   9.784
 5008W        W 9072   4.825   1.175  11.374
 5009W        W 9073   1.646   5.194   0.700
 5010W        W 9074   9.903   6.120   9.125
 5011W        W 9075   9.026   4.221   2.033
 5012W        W 9076   9.181  10.063   9.369
 5013W        W 9077   6.506   9.470  10.225
 5014W        W 9078   8.269   4.499   8.551
 5015W        W 9079   8.824   2.080  11.637
 5016W        W 9080   8.154   9.250  10.114
 5017W        W 9081   9.964   2.196   3.249
 5018W        W 9082  10.205   5.665   9.094
 5019W        W 9083   7.091   6.758  10.338
 5020W        W 9084   9.951  10.272  10.524
 5021W        W 9085   2.261   0.817   8.552
 5022W        W 9086   4.744   6.002   0.519
 5023W        W 9087   8.106   6.733  10.531
 5024W        W 9088   1.211   1.931   3.205
 5025W        W 9089   8.456   5.472   1.698
 5026W        W 9090   5.531   3.366   2.958
 5027W        W 9091  10.336   7.467   2.803
 5028W        W 9092   8.818   4.239   2.891
 5029W        W 9093   0.180   5.649   9.279
 5030W        W 9094   7.638   4.616  10.281
 5031W        W 9095   6.249   0.202   1.517
 5032W        W 9096   4.298  10.056   1.776
 5033W        W 9097   7.946   9.593   0.124
 5034W        W 9098   6.472   4.558   9.940
 5035W        W 9099   9.293   8.338   9.697
 5036W        W 9100   4.159   2.232  10.873
 5037W        W 9101   0.340   4.956   1.178
 5038W        W 9102   3.868   7.210   1.890
 5039W        W 9103   1.614  10.361   1.833
 5040W        W 9104   4.663   7.518   2.794
 5041W        W 9105   8.910   9.849   8.852
 5042W        W 9106   2.091   7.183   2.913
 5043W        W 9107   1.866   1.318   3.227
 5044W        W 9108   8.067   2.141   0.421
 5045W        W 9109   7.020   6.256  10.354
 5046W        W 9110   0.718   4.344  11.747
 5047W        W 9111   5.927   7.851  11.994
 5048W        W 9112  10.343   0.931  10.507
 5049W        W 9113   9.958   6.024   1.395
 5050W        W 9114   7.517   3.628  10.473
 5051W        W 9115   1.438   0.067   0.980
 5052W        W 9116   5.952   6.598   0.281
 5053W        W 9117   2.671   7.457   0.173
 5054W        W 9118   0.217   4.071  10.053
 5055W        W 9119   5.945  10.037  11.555
 5056W        W 9120   9.334   7.869   9.429
 5057W        W 9121   4.424   0.446   8.435
 5058W        W 9122   7.936   7.700  11.346
 5059W        W 9123   6.138   5.925  11.810
 5060W        W 9124   1.839   8.971  11.712
 5061W        W 9125   6.449   6.949  11.514
 5062W        W 9126   4.739   3.384  11.699
 5063W        W 9127   8.464   2.195   2.265
 5064W        W 9128   6.900   5.161  11.243
 5065W        W 9129   5.585   7.884  11.317
 5066W        W 9130   9.377   3.715   1.921
 5067W        W 9131   2.957   0.614   2.066
 5068W        W 9132   5.291   0.457  11.157
 5069W        W 9133   2.886   8.560   0.720
 5070W        W 9134   4.068   1.548  10.583
 5071W        W 9135   1.837   4.914  11.596
 5072W        W 9136   2.821   0.117   2.219
 5073W        W 9137   4.154   0.799   0.916
 5074W        W 9138   6.135   6.752   2.360
 5075W        W 9139   3.690   6.123   0.231
 5076W        W 9140   8.811   5.979  10.858
 5077W        W 9141   7.867   9.890   3.293
 5078W        W 9142   4.162   7.488   3.535
 5079W        W 9143   2.562   7.091   3.075
 5080W        W 9144   2.781   1.253   1.507
 5081W        W 9145   1.968   7.512   0.816
 5082W        W 9146   1.229   5.779   2.816
 5083W        W 9147   8.500   7.444  11.081
 5084W        W 9148   3.959   6.782   2.886
 5085W        W 9149   7.010   7.631   0.081
 5086W        W 9150   7.969   0.076   2.094
 5087W        W 9151   0.330   2.324   2.505
 5088W        W 9152   7.978   0.922   2.813
 5089W        W 9153   5.779   3.390   8.474
 5090W        W 9154   5.215   4.671   3.200
 5091W        W 9155   6.496   1.959   2.769
 5092W        W 9156   6.644   0.676  11.775
 5093W        W 9157   1.906   9.917  11.318
 5094W        W 9158   4.716   0.916   1.680
 5095W        W 9159   9.877   8.356   1.926
 5096W        W 9160   7.542   5.705   2.586
 5097W        W 9161   0.489  10.334   3.458
 5098W        W 9162   8.153   1.809   2.171
 5099W        W 9163   9.020   1.165   1.238
 5100W        W 9164   3.828   6.443   4.132
 5101W        W 9165   6.879   3.173   8.849
 5102W        W 9166   8.728   0.367   2.530
 5103W        W 9167   1.140   6.854   1.795
 5104W        W 9168   7.936   0.946  10.478
 5105W        W 9169   9.057   9.482  11.466
 5106W        W 9170   5.055   1.265   0.902
 5107W        W 9171   9.930   0.444  11.282
 5108W        W 9172   5.949   1.053  10.491
 5109W        W 9173   9.985   6.538   1.359
 5110W        W 9174   5.567  10.211   1.423
 5111W        W 9175   7.451   2.905   0.457
 5112W        W 9176   8.601   1.698   8.770
 5113W        W 9177   6.103   9.937   2.181
 5114W        W 9178   2.272   4.668   0.252
 5115W        W 9179   1.687   8.765   0.606
 5116W        W 9180   0.334   1.200   9.051
 5117W        W 9181  10.292   5.275  11.875
 5118W        W 9182   4.037   6.662  11.932
 5119W        W 9183   8.222   1.005   9.535
 5120W        W 9184   4.332   1.772  10.949
 5121W        W 9185   5.725   5.283   1.121
 5122W        W 9186   1.682   3.165  10.077
 5123W        W 9187  10.139   7.868   3.098
 5124W        W 9188   5.609   8.887  11.198
 5125W        W 9189   4.734   0.294  10.110
 5126W        W 9190   3.640   2.457   9.568
 5127W        W 9191   3.628   2.230  11.578
 5128W        W 9192   0.495   6.346  10.754
 5129W        W 9193   9.011   0.383   1.718
 5130W        W 9194   7.128   6.692   0.216
 5131W        W 9195   7.539   9.503   1.273
 5132W        W 9196   1.642   2.534   9.565
 5133W        W 9197   1.384   6.099   8.935
 5134W        W 9198   2.477   4.148   0.367
 5135W        W 9199   0.877   8.992   2.176
 5136W        W 9200   2.286   0.573   1.423
 5137W        W 9201   6.420   9.353  11.257
 5138W        W 9202   1.604   8.593   3.611
 5139W        W 9203  10.202   7.009   1.871
 5140W        W 9204  10.353   9.306   9.502
 5141W        W 9205   0.724   9.432  11.059
 5142W        W 9206   2.496   5.116   0.919
 5143W        W 9207   0.794   2.403  11.260
 5144W        W 9208   4.183   1.242   1.194
 5145W        W 9209   6.013   5.719   0.388
 5146W        W 9210   2.250   4.233  11.862
 5147W        W 9211   9.074   8.815   0.079
 5148W        W 9212   9.462  10.020   0.227
 5149W        W 9213   4.788   6.553  11.222
 5150W        W 9214   9.360   2.316   1.835
 5151W        W 9215   1.746   7.138   9.380
 5152W        W 9216   3.882   5.489  10.815
 5153W        W 9217   4.622   3.759   0.044
 5154W        W 9218   4.367   4.285  10.424
 5155W        W 9219   2.823   0.919   9.042
 5156W        W 9220   5.312   6.241  11.880
 5157W        W 9221   4.204   0.330   1.233
 5158W        W 9222   3.190   2.382   0.542
 5159W        W 9223   8.910   1.635  10.567
 5160W        W 9224  10.356   3.715  10.226
 5161W        W 9225   6.287   9.031  10.371
 5162W        W 9226   9.568   3.212   9.058
 5163W        W 9227   1.736   9.041  10.292
 5164W        W 9228   6.108   3.630  11.297
 5165W        W 9229   0.846   1.214   3.374
 5166W        W 9230   3.539  10.490   1.722
 5167W        W 9231   5.006   9.573   8.733
 5168W        W 9232   0.351   9.099  11.768
 5169W        W 9233   2.261   8.710   8.818
 5170W        W 9234   0.370   1.306   1.237
 5171W        W 9235   6.443   3.815   1.510
 5172W        W 9236   2.793   5.969   2.633
 5173W        W 9237   0.181   5.482   2.953
 5174W        W 9238   0.902   4.460   2.664
 5175W        W 9239   3.522   2.168   9.988
 5176W        W 9240   4.634   6.064   9.112
 5177W        W 9241   7.012   6.377   0.886
 5178W        W 9242   8.114   8.716   2.155
 5179W        W 9243   5.180   7.216  10.907
 5180W        W 9244   8.948   1.560  11.086
 5181W        W 9245   9.841   4.585   8.687
 5182W        W 9246   0.371   1.441   2.198
 5183W        W 9247   1.284   7.633   2.791
 5184W        W 9248   0.474   5.999   0.154
 5185W        W 9249   6.245   6.516  10.604
 5186W        W 9250   8.295   3.643   1.842
 5187W        W 9251   8.999   6.072   9.425
 5188W        W 9252   0.636   5.373  10.520
 5189W        W 9253   2.216   0.296   8.562
 5190W        W 9254   1.655   8.680   2.321
 5191W        W 9255   5.624   8.497   0.705
 5192W        W 9256   5.209   6.020   0.313
 5193W        W 9257   4.532   1.914   3.195
 5194W        W 9258   4.093   3.760   9.867
 5195W        W 9259   2.904   6.066  11.520
 5196W        W 9260   0.871   1.383  11.744
 5197W        W 9261   6.277   1.678   0.963
 5198W        W 9262   8.228   0.411   2.443
 5199W        W 9263   9.511   7.109   2.918
 5200W        W 9264   3.127   8.047  10.578
 5201W        W 9265  10.154   2.168   9.945
 5202W        W 9266   7.718   8.989   0.379
 5203W        W 9267   5.836   6.488   1.403
 5204W        W 9268   4.554  10.057   1.307
 5205W        W 9269   7.131   8.561  11.032
 5206W        W 9270   1.459   6.136  11.823
 5207W        W 9271   8.683   5.580  11.194
 5208W        W 9272   2.122   7.897   9.184
 5209W        W 9273   4.222   4.068   3.606
 5210W        W 9274   1.690   9.988   3.161
 5211W        W 9275   7.375   4.058   8.641
 5212W        W 9276   8.045   9.509   9.183
 5213W        W 9277   1.925   5.034   0.113
 5214W        W 9278   4.299   8.339   2.232
 5215W        W 9279   0.391   4.190   2.532
 5216W        W 9280   5.390   6.365   1.701
 5217W        W 9281   7.348   9.027   1.317
 5218W        W 9282   7.717   3.748   1.025
 5219W        W 9283   1.330   4.759   2.750
 5220W        W 9284   4.231   6.198   9.416
 5221W        W 9285   6.090   3.034   1.204
 5222W        W 9286   6.153   9.984  10.580
 5223W        W 9287   7.670   1.842   9.266
 5224W        W 9288   8.082   7.586  11.851
 5225W        W 9289  10.231   1.888   9.525
 5226W        W 9290   5.049   5.065   2.383
 5227W        W 9291   5.812   8.177  10.501
 5228W        W 9292   9.194   5.544   8.785
 5229W        W 9293   1.724  10.296   1.300
 5230W        W 9294   2.685   2.303   9.264
 5231W        W 9295   7.731   6.037   0.483
 5232W        W 9296   4.347   8.585   1.305
 5233W        W 9297   6.874   3.949   1.242
 5234W        W 9298   9.452   5.607   3.144
 5235W        W 9299   5.075   8.594   0.133
 5236W        W 9300   4.813   2.287  10.253
 5237W        W 9301   9.372   1.911   2.990
 5238W        W 9302   2.460   2.820   2.176
 5239W        W 9303   8.732   1.189   2.519
 5240W        W 9304   1.523   9.502   3.052
 5241W        W 9305   7.234   0.567  10.838
 5242W        W 9306   0.813   4.190   2.226
 5243W        W 9307  10.195   4.496   2.157
 5244W        W 9308   5.436   6.206   3.409
 5245W        W 9309   8.640   0.492   0.650
 5246W        W 9310   4.489   4.042   9.324
 5247W        W 9311   6.597   7.438   0.347
 5248W        W 9312   1.486  10.207   0.074
 5249W        W 9313   0.813   2.146   8.502
 5250W        W 9314   2.957   8.086   1.863
 5251W        W 9315   8.476   6.469  10.316
 5252W        W 9316   2.119   4.230   1.860
 5253W        W 9317   4.997  10.004   8.430
 5254W        W 9318   2.043   1.833   1.102
 5255W        W 9319   0.384   3.433   9.458
 5256W        W 9320   9.466   3.304   0.891
 5257W        W 9321   4.968   7.800   1.118
 5258W        W 9322   6.512   3.729   3.480
 5259W        W 9323   9.928   3.056   9.837
 5260W        W 9324   0.486   5.044   1.674
 5261W        W 9325   2.177   2.007   8.603
 5262W        W 9326   9.099   8.665   2.319
 5263W        W 9327   9.462   0.003   9.456
 5264W        W 9328   6.432   8.198  11.865
 5265W        W 9329  10.422   9.752   9.839
 5266W        W 9330   9.684   2.160   9.739
 5267W        W 9331   8.908   0.671   1.288
 5268W        W 9332   9.421   7.408   9.607
 5269W        W 9333   4.860   1.350   0.446
 5270W        W 9334   2.050   6.122   2.784
 5271W        W 9335   6.101   2.240   2.617
 5272W        W 9336   9.755   9.492   0.418
 5273W        W 9337   9.935   1.089   3.028
 5274W        W 9338   3.398   2.801   1.371
 5275W        W 9339   1.774   5.158   2.178
 5276W        W 9340   4.580   3.663   3.481
 5277W        W 9341   4.615   0.944   0.674
 5278W        W 9342   7.603   8.841   3.289
 5279W        W 9343   1.668   5.735  11.538
 5280W        W 9344   4.832   4.377   9.582
 5281W        W 9345   5.544   7.425   0.760
 5282W        W 9346   7.823   8.040  10.944
 5283W        W 9347   3.190   5.544   8.910
 5284W        W 9348   3.922   6.152  11.364
 5285W        W 9349   9.277  10.450   1.791
 5286W        W 9350   7.012   0.809   2.436
 5287W        W 9351   5.241   6.961   2.706
 5288W        W 9352   0.440   6.851   1.486
 5289W        W 9353   2.969   3.273   3.454
 5290W        W 9354   0.879   2.393   2.680
 5291W        W 9355  10.008   4.112  11.354
 5292W        W 9356   0.114   6.066   8.404
 5293W        W 9357   5.160   7.122   3.544
 5294W        W 9358   9.698   2.849   3.011
 5295W        W 9359   7.412  10.001  11.484
 5296W        W 9360  10.427   3.094   0.750
 5297W        W 9361   9.396   9.493   1.022
 5298W        W 9362   4.633   8.114   0.897
 5299W        W 9363   8.855   9.950   0.498
 5300W        W 9364   4.280   0.412   9.906
 5301W        W 9365   8.469   5.400   9.528
 5302W        W 9366  10.403   2.149   9.097
 5303W        W 9367   2.567   9.665   2.269
 5304W        W 9368   5.274   7.392   1.191
 5305W        W 9369   1.730   6.161   0.773
 5306W        W 9370   9.515   0.504  10.971
 5307W        W 9371  10.031   8.857   1.916
 5308W        W 9372   9.695   0.838   9.438
 5309W        W 9373   9.320   5.954   2.796
 5310W        W 9374   5.203   8.312   1.944
 5311W        W 9375   2.156   0.430   9.364
 5312W        W 9376   3.996  10.244   1.389
 5313W        W 9377   0.327   0.286  10.256
 5314W        W 9378   4.062   4.978   1.297
 5315W        W 9379   3.186   0.874   0.439
 5316W        W 9380  10.043   2.412   8.802
 5317W        W 9381  10.291   5.260   3.353
 5318W        W 9382   9.071   3.230   0.402
 5319W        W 9383   6.980  10.421  10.950
 5320W        W 9384   4.059   4.450   1.336
 5321W        W 9385   6.077   8.987  11.355
 5322W        W 9386   1.985   4.241  10.400
 5323W        W 9387   7.568   1.448  11.638
 5324W        W 9388   2.911   9.835   0.458
 5325W        W 9389   7.667   5.230   2.684
 5326W        W 9390   0.945   8.458   8.848
 5327W        W 9391  10.306   4.528  11.355
 5328W        W 9392   0.764   4.504   1.352
 5329W        W 9393   3.072   0.986   9.697
 5330W        W 9394   1.195   8.891   8.962
 5331W        W 9395   7.477   3.809   2.433
 5332W        W 9396   5.233   5.848  11.364
 5333W        W 9397   4.352   7.103   2.856
 5334W        W 9398   7.484   3.700   3.491
 5335W        W 9399   0.140   3.233   3.192
 5336W        W 9400   7.479   7.012   1.953
 5337W        W 9401   2.705   6.623   3.269
 5338W        W 9402   5.129   2.603   2.876
 5339W        W 9403   2.370   6.866   0.616
 5340W        W 9404   9.063   6.902   3.037
 5341W        W 9405   8.350   0.894   0.506
 5342W        W 9406   5.364   6.517   1.204
 5343W        W 9407   2.266   7.552   2.228
 5344W        W 9408   5.001   9.470  11.253
 5345W        W 9409   9.866   0.715   3.373
 5346W        W 9410   9.365   2.872   1.172
 5347W        W 9411   0.798   7.433   9.973
 5348W        W 9412   5.181   4.760   8.726
 5349W        W 9413   6.423   1.364   9.004
 5350W        W 9414   1.519   2.766   1.258
 5351W        W 9415   9.389   8.549  10.364
 5352W        W 9416   0.644   6.470   0.036
 5353W        W 9417   1.361   8.431   9.165
 5354W        W 9418   7.559   7.064   1.181
 5355W        W 9419   4.215   6.787   4.294
 5356W        W 9420   0.492   0.346   1.445
 5357W        W 9421   8.181   8.018  10.574
 5358W        W 9422   4.135   6.152  11.900
 5359W        W 9423   7.956   5.879   9.063
 5360W        W 9424   9.958   7.861   1.752
 5361W        W 9425   5.604   8.952  10.685
 5362W        W 9426   7.845   1.370   1.971
 5363W        W 9427   0.089   0.226   2.950
 5364W        W 9428   1.267   3.673   1.538
 5365W        W 9429   8.408   7.003   0.723
 5366W        W 9430   1.274   7.083   9.521
 5367W        W 9431   4.119   5.351   8.908
 5368W        W 9432   6.138   3.527   2.259
 5369W        W 9433   9.845   2.722   1.969
 5370W        W 9434   6.547   6.161   0.828
 5371W        W 9435   9.371   4.692   9.275
 5372W        W 9436   1.561   1.313   0.552
 5373W        W 9437   9.471   5.635  11.273
 5374W        W 9438   0.770   2.991  10.540
 5375W        W 9439   2.450   5.620   3.193
 5376W        W 9440   0.638   9.401   2.396
 5377W        W 9441   2.419   0.374   9.802
 5378W        W 9442   9.939   1.837   1.307
 5379W        W 9443   2.249   7.284  11.895
 5380W        W 9444   6.942   3.774  11.841
 5381W        W 9445   4.618   8.361   3.188
 5382W        W 9446   5.613   9.842  10.863
 5383W        W 9447   8.325   6.614   8.997
 5384W        W 9448   8.811   9.921  10.206
 5385W        W 9449   4.547   9.058   1.150
 5386W        W 9450   3.192   9.175   1.021
 5387W        W 9451   3.731   8.052   9.007
 5388W        W 9452   5.930   3.584   3.562
 5389W        W 9453   8.357   0.056   0.860
 5390W        W 9454   2.008   9.404   0.353
 5391W        W 9455   4.737   1.502  11.005
 5392W        W 9456   2.333   9.193   2.254
 5393W        W 9457   6.604   4.826  10.906
 5394W        W 9458   0.280   7.467  11.016
 5395W        W 9459   9.249   1.885   0.511
 5396W        W 9460   4.181   0.467   1.774
 5397W        W 9461   2.309   4.369   8.550
 5398W        W 9462   4.129   3.529   2.280
 5399W        W 9463   7.387   6.462   8.476
 5400W        W 9464   2.920   0.372   9.846
 5401W        W 9465   4.768   7.072   8.940
 5402W        W 9466   0.812   3.125   9.487
 5403W        W 9467   0.047   1.170   0.344
 5404W        W 9468   7.494   5.686   9.157
 5405W        W 9469   1.286   1.903   0.882
 5406W        W 9470   5.156   8.973  10.470
 5407W        W 9471  10.417   0.066  10.914
 5408W        W 9472   3.157   7.706   2.242
 5409W        W 9473   2.853   6.145   9.351
 5410W        W 9474   7.076   6.967  10.860
 5411W        W 9475   0.348   5.025  10.766
 5412W        W 9476   3.767   1.281   0.881
 5413W        W 9477   9.093   0.260   0.815
 5414W        W 9478   7.918   3.338  10.209
 5415W        W 9479   8.190   2.757   9.007
 5416W        W 9480   9.861   9.765  10.611
 5417W        W 9481   4.411   8.754   8.521
 5418W        W 9482   6.288  10.300   9.825
 5419W        W 9483  10.336   4.760   9.337
 5420W        W 9484   3.194   6.255   0.298
 5421W        W 9485   5.033   3.837   1.880
 5422W        W 9486  10.205   5.745  11.725
 5423W        W 9487   3.278   5.246   2.233
 5424W        W 9488   1.233   6.577   9.676
 5425W        W 9489   1.689   7.849  10.901
 5426W        W 9490   7.260   7.196   9.993
 5427W        W 9491   5.748   1.777  10.752
 5428W        W 9492   3.036   3.259   9.975
 5429W        W 9493   7.311   6.068   9.964
 5430W        W 9494   6.406   1.203   0.845
 5431W        W 9495   7.545   0.228  11.862
 5432W        W 9496   1.961   9.364   2.809
 5433W        W 9497   8.844   6.975   3.488
 5434W        W 9498   0.493   6.925   2.914
 5435W        W 9499   6.179   0.147   9.428
 5436W        W 9500   1.922   7.574   9.542
 5437W        W 9501   7.148   4.545  10.375
 5438W        W 9502   5.227   2.651   2.376
 5439W        W 9503   5.704   3.890   9.132
 5440W        W 9504   4.226   9.967   8.852
 5441W        W 9505   3.396   7.432   1.859
 5442W        W 9506   5.666   0.288  11.450
 5443W        W 9507   1.255   7.076  10.054
 5444W        W 9508   7.462   8.268  11.906
 5445W        W 9509   2.896   0.995   2.494
 5446W        W 9510   0.088   7.550   0.183
 5447W        W 9511   5.015   7.585   3.438
 5448W        W 9512   1.247   3.717   9.574
 5449W        W 9513   4.666   4.729   2.431
 5450W        W 9514   4.230   9.376   0.886
 5451W        W 9515   3.240   1.451   9.594
 5452W        W 9516   3.205   7.126   3.640
 5453W        W 9517   1.156   5.385   1.842
 5454W        W 9518  10.027   7.050   9.575
 5455W        W 9519   9.780   7.800   8.420
 5456W        W 9520   7.553   8.175   9.913
 5457W        W 9521  10.044   6.398   3.275
 5458W        W 9522   6.533   0.249  11.432
 5459W        W 9523   1.975   4.784   8.956
 5460W        W 9524   5.645   0.902   1.696
 5461W        W 9525   2.432  10.470  10.555
 5462W        W 9526   0.161   9.771   2.387
 5463W        W 9527   2.651   4.392   2.677
 5464W        W 9528   6.117   8.812  11.846
 5465W        W 9529   4.702   6.032   1.523
 5466W        W 9530   7.525   4.262   2.824
 5467W        W 9531   5.276   3.599   0.945
 5468W        W 9532   4.572   5.948   3.835
 5469W        W 9533   9.927   9.492   3.756
 5470W        W 9534   3.422   1.827   1.372
 5471W        W 9535   4.418   5.686   1.265
 5472W        W 9536   7.685   9.983   9.586
 5473W        W 9537   6.036   9.484  10.466
 5474W        W 9538   8.339   7.077   8.655
 5475W        W 9539   8.459   8.147   2.757
 5476W        W 9540   2.865   7.573   1.828
 5477W        W 9541   1.935   1.373   3.729
 5478W        W 9542   3.619   9.190   0.278
 5479W        W 9543   1.411   7.098   1.012
 5480W        W 9544   1.697   0.202   9.365
 5481W        W 9545   6.746   6.567  10.756
 5482W        W 9546   5.607   9.856   9.328
 5483W        W 9547   0.340   0.954   9.505
 5484W        W 9548  10.458   6.167   0.974
 5485W        W 9549   5.069   6.144  10.575
 5486W        W 9550   0.109   9.182  11.333
 5487W        W 9551   7.078   7.139   1.387
 5488W        W 9552   4.992  10.446   8.763
 5489W        W 9553   3.740   6.205   9.178
 5490W        W 9554   3.338   0.474   1.173
 5491W        W 9555   4.806   2.905  10.995
 5492W        W 9556   2.746   3.230  11.257
 5493W        W 9557   6.515   9.889   2.997
 5494W        W 9558   4.243   9.561  11.383
 5495W        W 9559   0.709   9.133   0.642
 5496W        W 9560   8.977   2.273   8.419
 5497W        W 9561   9.955   6.646   9.905
 5498W        W 9562   5.164  10.004  11.109
 5499W        W 9563   7.017   2.662   2.757
 5500W        W 9564   3.798   2.946   9.658
 5501W        W 9565   3.215   2.367  11.279
 5502W        W 9566   6.583   3.803   8.896
 5503W        W 9567   1.031   7.898  11.904
 5504W        W 9568  10.338   3.146  10.124
 5505W        W 9569   3.000   2.827   2.308
 5506W        W 9570   0.433   5.599   2.401
 5507W        W 9571   7.752   1.553   1.060
 5508W        W 9572   1.138   9.730   9.741
 5509W        W 9573   2.160   6.118   9.937
 5510W        W 9574   9.305   6.500   8.734
 5511W        W 9575   0.187   6.164   3.419
 5512W        W 9576   8.075   6.456   0.451
 5513W        W 9577   7.544   1.924   1.341
 5514W        W 9578   9.817   3.333   3.105
 5515W        W 9579   5.439   2.952   8.867
 5516W        W 9580   6.050   6.611   1.859
 5517W        W 9581   6.209   0.858   3.060
 5518W        W 9582   7.577   1.525   9.688
 5519W        W 9583   0.441   6.483  11.244
 5520W        W 9584   6.293   6.147   0.343
 5521W        W 9585   3.827   3.111   2.366
 5522W        W 9586   2.840   0.463   1.306
 5523W        W 9587   3.731   9.523  11.304
 5524W        W 9588   0.703   3.664   3.683
 5525W        W 9589   7.917   6.706   1.832
 5526W        W 9590   9.227   2.816   9.159
 5527W        W 9591   1.285   0.986   9.507
 5528W        W 9592   1.379   1.482   9.527
 5529W        W 9593   1.840   3.799  11.270
 5530W        W 9594   9.069   5.285  11.416
 5531W        W 9595   4.239   8.038   0.156
 5532W        W 9596   5.066   4.118   2.752
 5533W        W 9597   3.726   3.304   9.285
 5534W        W 9598   6.076   3.258   0.185
 5535W        W 9599   3.543   8.002   2.412
 5536W        W 9600   3.333   0.687  10.627
 5537W        W 9601   0.140   7.063   0.876
 5538W        W 9602   4.492   7.608   0.053
 5539W        W 9603   1.879   0.826  10.416
 5540W        W 9604   7.509   5.485   4.077
 5541W        W 9605   1.790   6.649   0.595
 5542W        W 9606   3.940   5.518   1.148
 5543W        W 9607   8.628   8.811   2.227
 5544W        W 9608   5.055   4.896  11.479
 5545W        W 9609   9.074   5.758  11.580
 5546W        W 9610   5.281   6.411   9.948
 5547W        W 9611   5.715   6.404   0.875
 5548W        W 9612   2.445  10.345   3.511
 5549W        W 9613   2.490   0.882  10.928
 5550W        W 9614   1.042   5.678  10.457
 5551W        W 9615   7.137   2.255   2.000
 5552W        W 9616   3.989   0.313  10.931
 5553W        W 9617   7.450   6.286   2.475
 5554W        W 9618   2.281   1.951   9.318
 5555W        W 9619   5.909   7.703   3.506
 5556W        W 9620   4.395  10.353   0.507
 5557W        W 9621   4.146   6.624   8.618
 5558W        W 9622   5.743   2.527  11.825
 5559W        W 9623   6.989   7.149   9.522
 5560W        W 9624   7.379   2.320  10.756
 5561W        W 9625   6.448   5.684   0.122
 5562W        W 9626   3.281   9.664   8.527
 5563W        W 9627   2.166   5.917   0.888
 5564W        W 9628   5.991   2.817   0.434
 5565W        W 9629   6.496   2.474   8.558
 5566W        W 9630   0.828   2.817   2.380
 5567W        W 9631   2.069   8.455   0.719
 5568W        W 9632   4.209   6.105   0.432
 5569W        W 9633   5.728   1.273  10.924
 5570W        W 9634   6.402   9.124   0.914
 5571W        W 9635   0.018   6.493   3.087
 5572W        W 9636   5.146   1.824   8.808
 5573W        W 9637   5.903   0.960   0.445
 5574W        W 9638   2.079   9.973   3.457
 5575W        W 9639   4.669   9.441  10.577
 5576W        W 9640   7.064   8.596   1.273
 5577W        W 9641   1.667   8.540   9.536
 5578W        W 9642   8.061   7.878   2.965
 5579W        W 9643   6.110   0.491  11.127
 5580W        W 9644   1.182   0.432   0.173
 5581W        W 9645   1.512   4.257   0.248
 5582W        W 9646   9.303   4.591   3.564
 5583W        W 9647   3.139   3.613   9.571
 5584W        W 9648   8.905   8.806  11.560
 5585W        W 9649   9.782   7.450   0.771
 5586W        W 9650   3.287   1.571  10.865
 5587W        W 9651   7.402   1.636   0.455
 5588W        W 9652   5.920   8.030   2.341
 5589W        W 9653   7.021   2.782   9.755
 5590W        W 9654   2.663   2.842   0.960
 5591W        W 9655   3.049   9.803   3.163
 5592W        W 9656   9.590   7.165   2.412
 5593W        W 9657   8.197   6.305   3.520
 5594W        W 9658   4.717   0.345  11.960
 5595W        W 9659   0.253   5.417   1.367
 5596W        W 9660   5.957   7.941   1.384
 5597W        W 9661   6.557   3.651  11.033
 5598W        W 9662   7.116   1.374   3.179
 5599W        W 9663   9.990   7.089   2.719
 5600W        W 9664   9.816   0.969  11.220
 5601W        W 9665   5.236   3.168   9.393
 5602W        W 9666   9.308   6.043   8.979
 5603W        W 9667   1.328   9.959   1.918
 5604W        W 9668   6.961   8.108  11.842
 5605W        W 9669   3.143   6.672   0.548
 5606W        W 9670   7.273  10.404  10.041
 5607W        W 9671   7.516   2.376   1.133
 5608W        W 9672   6.578   2.120  10.022
 5609W        W 9673   9.470   1.054   0.937
 5610W        W 9674   2.249   9.125  10.107
 5611W        W 9675   8.089   1.417  11.857
 5612W        W 9676   5.639   3.403   2.367
 5613W        W 9677   3.794   5.952   9.617
 5614W        W 9678  10.444   1.952   0.046
 5615W        W 9679   4.132   1.331   2.262
 5616W        W 9680   4.677   9.307   1.984
 5617W        W 9681   7.844   5.602   0.204
 5618W        W 9682   5.550   8.905   2.499
 5619W        W 9683   0.796   5.172  10.982
 5620W        W 9684   8.984   4.589   0.753
 5621W        W 9685   5.206   9.960   9.024
 5622W        W 9686   0.225   6.941   0.371
 5623W        W 9687   8.025   4.516   9.046
 5624W        W 9688   0.263   2.808   2.388
 5625W        W 9689   7.438   3.134  10.241
 5626W        W 9690   1.394   9.262   3.822
 5627W        W 9691   2.269  10.046  10.920
 5628W        W 9692   8.887   8.810   1.355
 5629W        W 9693   6.611   7.877   2.850
 5630W        W 9694   0.930   8.627   0.132
 5631W        W 9695   4.192   6.115   1.476
 5632W        W 9696   6.567   8.652   0.009
 5633W        W 9697   2.433   1.719   0.186
 5634W        W 9698   0.176   9.929   8.880
 5635W        W 9699   7.560   8.037   2.216
 5636W        W 9700   2.279   5.107   1.968
 5637W        W 9701   2.737   3.574  10.277
 5638W        W 9702   5.291   2.638   1.175
 5639W        W 9703   5.947   8.987   1.182
 5640W        W 9704   7.882   3.253   3.506
 5641W        W 9705   4.690   7.934  11.700
 5642W        W 9706   1.956   8.913   0.209
 5643W        W 9707  10.478   0.244   9.397
 5644W        W 9708   4.985   4.454  10.093
 5645W        W 9709   0.496  10.427   2.895
 5646W        W 9710   4.560   2.838   3.433
 5647W        W 9711   7.262   3.171   1.537
 5648W        W 9712   8.416   8.071   9.745
 5649W        W 9713   1.571   8.561  11.302
 5650W        W 9714   0.863   7.976   1.220
 5651W        W 9715   8.166   3.661   1.234
 5652W        W 9716   1.911   7.861   1.971
 5653W        W 9717   2.857   9.428   1.371
 5654W        W 9718   8.506   2.441   1.261
 5655W        W 9719   1.837   1.187   9.770
 5656W        W 9720   3.346   5.040   1.761
 5657W        W 9721   7.069   5.970   9.092
 5658W        W 9722   0.117   5.397  10.510
 5659W        W 9723   6.087  10.275   1.702
 5660W        W 9724   4.082   2.910  11.385
 5661W        W 9725   6.455   9.266   9.345
 5662W        W 9726   6.933   8.940  11.288
 5663W        W 9727   3.475   2.206   1.021
 5664W        W 9728   3.337   6.740  11.751
 5665W        W 9729   0.604   4.983  11.420
 5666W        W 9730  10.374   5.431  11.363
 5667W        W 9731   5.526   4.121   1.840
 5668W        W 9732   0.893   2.328   3.220
 5669W        W 9733   5.249   7.037   9.135
 5670W        W 9734   3.252   5.149   9.272
 5671W        W 9735   0.504   8.245   8.963
 5672W        W 9736   0.998   7.373   0.780
 5673W        W 9737   0.991   2.129   0.220
 5674W        W 9738   7.871   6.655   0.004
 5675W        W 9739   9.381   0.630   3.117
 5676W        W 9740   4.617   4.471   3.911
 5677W        W 9741   6.423   0.155  11.958
 5678W        W 9742  10.491   3.928   0.153
 5679W        W 9743   6.087   9.322   9.986
 5680W        W 9744   4.543   5.295   9.670
 5681W        W 9745   8.529   5.889   9.532
 5682W        W 9746   9.893   8.283  11.968
 5683W        W 9747   5.622   1.795   8.997
 5684W        W 9748   1.247   0.319  11.031
 5685W        W 9749   3.267   8.311   8.811
 5686W        W 9750   9.468   7.837  10.977
 5687W        W 9751   9.918   9.788   1.673
 5688W        W 9752   5.700   3.482  10.347
 5689W        W 9753   7.376   3.090   8.840
 5690W        W 9754   1.836   7.897   0.464
 5691W        W 9755   1.358   3.834   1.051
 5692W        W 9756   5.136   8.645   0.641
 5693W        W 9757   0.748   0.888  11.544
 5694W        W 9758   1.401   0.235   9.880
 5695W        W 9759   8.143   5.997   1.343
 5696W        W 9760   9.499   5.715   1.233
 5697W        W 9761   0.878   5.428  10.028
 5698W        W 9762   3.681   5.923   3.648
 5699W        W 9763   3.448  10.307   9.393
 5700W        W 9764   7.693   1.858   8.737
 5701W        W 9765   1.315   4.957  10.971
 5702W        W 9766   7.730   6.338   9.800
 5703W        W 9767   5.089   3.640   1.406
 5704W        W 9768   1.218  10.273   1.383
 5705W        W 9769   6.609   3.243   3.273
 5706W        W 9770   0.817   3.968   9.468
 5707W        W 9771   1.285   7.831  10.580
 5708W        W 9772   3.400   7.522   2.680
 5709W        W 9773   2.826   4.080  10.195
 5710W        W 9774   1.672   2.790  11.512
 5711W        W 9775   0.846   6.472  11.572
 5712W        W 9776   5.456   8.438   3.142
 5713W        W 9777   2.202   3.321   1.859
 5714W        W 9778   5.991   5.448  11.973
 5715W        W 9779   7.631   0.108   0.760
 5716W        W 9780   2.141   9.307   9.625
 5717W        W 9781   7.664   1.223   0.663
 5718W        W 9782   3.710   3.612   1.659
 5719W        W 9783   7.133  10.458   3.135
 5720W        W 9784   5.685   0.786  11.137
 5721W        W 9785   7.993   2.623   0.246
 5722W        W 9786   3.334   0.716  11.461
 5723W        W 9787   8.780   2.320   9.865
 5724W        W 9788   2.779   1.482   9.881
 5725W        W 9789   6.920   4.990  10.271
 5726W        W 9790   4.421   5.106   3.604
 5727W        W 9791   1.222   9.306   1.261
 5728W        W 9792   2.408   5.673   9.966
 5729W        W 9793   3.210   3.307   9.108
 5730W        W 9794   9.139   3.270   1.894
 5731W        W 9795   5.498   3.727   0.514
 5732W        W 9796   0.196   9.571  11.950
 5733W        W 9797   5.109   3.152   1.166
 5734W        W 9798   5.679   6.533   3.123
 5735W        W 9799  10.340   7.197  10.858
 5736W        W 9800   9.881   9.038   1.466
 5737W        W 9801   6.894   9.933   2.619
 5738W        W 9802   4.616   2.377   0.700
 5739W        W 9803   1.351   0.884   0.355
 5740W        W 9804   6.148   0.068  10.768
 5741W        W 9805   3.749   5.026   2.115
 5742W        W 9806   1.230   1.022   3.094
 5743W        W 9807   3.884   0.894  11.186
 5744W        W 9808   7.468   9.561   9.757
 5745W        W 9809   7.047   8.140  11.312
 5746W        W 9810  10.132  10.463   2.941
 5747W        W 9811   1.846   1.684   9.598
 5748W        W 9812   4.763  10.451   9.643
 5749W        W 9813   6.364   9.932   8.718
 5750W        W 9814   2.908   7.577   9.372
 5751W        W 9815   2.406   6.117  11.465
 5752W        W 9816   7.604   5.383   2.158
 5753W        W 9817   4.554   3.136   1.805
 5754W        W 9818   8.942   0.475   9.137
 5755W        W 9819   8.396   2.289  10.247
 5756W        W 9820   9.156  10.310   1.277
 5757W        W 9821   6.982   6.099  10.826
 5758W        W 9822   4.441   7.743   1.226
 5759W        W 9823   9.376   2.129   3.454
 5760W        W 9824   4.177   7.004   3.336
 5761W        W 9825   4.603   8.814   2.139
 5762W        W 9826   2.144   2.411   9.554
 5763W        W 9827   4.669   8.384  11.443
 5764W        W 9828   4.512   5.495   9.208
 5765W        W 9829   5.178   0.949  10.932
 5766W        W 9830   9.500   4.881   2.907
 5767W        W 9831  10.400   2.964   3.571
 5768W        W 9832   4.627   0.443   1.544
 5769W        W 9833   3.493   5.654   8.239
 5770W        W 9834   8.614   0.978   0.924
 5771W        W 9835   1.481   9.285   8.779
 5772W        W 9836   2.229   6.405   0.788
 5773W        W 9837   2.910   4.798   0.863
 5774W        W 9838   8.095   8.539   1.119
 5775W        W 9839   8.849   7.413  10.237
 5776W        W 9840   0.970  10.203  10.559
 5777W        W 9841   7.346   4.102   1.030
 5778W        W 9842   1.152   6.528   0.007
 5779W        W 9843   2.485   9.598  10.763
 5780W        W 9844   7.094   9.950  10.244
 5781W        W 9845   3.071   8.017   9.556
 5782W        W 9846   0.424   5.217   9.391
 5783W        W 9847   9.069   7.952   3.318
 5784W        W 9848   0.304   8.601  11.912
 5785W        W 9849   7.542   5.517   3.580
 5786W        W 9850   0.528   8.597  10.613
 5787W        W 9851   8.383   9.466   1.940
 5788W        W 9852   8.932   6.631  11.500
 5789W        W 9853   0.869   2.165   9.024
 5790W        W 9854   7.459   6.501   2.004
 5791W        W 9855   4.531   4.142   1.299
 5792W        W 9856   0.475   4.567  10.542
 5793W        W 9857   3.699   0.770   2.764
 5794W        W 9858   5.499   3.329  10.831
 5795W        W 9859   2.500   1.729  11.324
 5796W        W 9860   2.386   0.324   1.905
 5797W        W 9861   3.174   5.275   3.352
 5798W        W 9862   4.252  10.206  11.709
 5799W        W 9863   0.461   4.602   3.379
 5800W        W 9864   9.135   6.629  10.574
 5801W        W 9865  10.291   7.223   0.454
 5802W        W 9866   0.720   6.077   9.839
 5803W        W 9867   0.180   8.120   0.074
 5804W        W 9868   2.124   2.090   0.024
 5805W        W 9869   3.641   5.023   4.236
 5806W        W 9870   4.607   5.700   2.371
 5807W        W 9871   7.519   2.652   0.012
 5808W        W 9872   8.995   9.519  10.465
 5809W        W 9873  10.018  10.292  11.073
 5810W        W 9874   3.357   8.381   0.605
 5811W        W 9875   0.950  10.411   0.966
 5812W        W 9876   8.441   1.783  10.381
 5813W        W 9877   3.154   4.798   0.372
 5814W        W 9878   5.656   2.309   2.888
 5815W        W 9879   0.496   1.119  10.505
 5816W        W 9880   3.660   8.186   3.287
 5817W        W 9881   9.360   9.440   0.067
 5818W        W 9882   1.775   3.736  10.280
 5819W        W 9883   6.211   7.680  11.140
 5820W        W 9884   2.616  10.376   1.319
 5821W        W 9885   9.101   9.907   0.944
 5822W        W 9886   0.664   8.231  11.964
 5823W        W 9887   9.985   4.620  11.784
 5824W        W 9888   1.471   3.447   2.549
 5825W        W 9889   3.828   9.359   2.663
 5826W        W 9890   3.060   9.601   9.863
 5827W        W 9891   0.331   3.926   9.593
 5828W        W 9892   1.373   3.749   9.078
 5829W        W 9893   0.877   8.591   1.389
 5830W        W 9894   4.008   7.491   9.013
 5831W        W 9895   3.331   0.467   0.159
 5832W        W 9896   9.461   9.989   1.761
 5833W        W 9897   2.319   5.970   0.369
 5834W        W 9898   3.823   0.420  11.952
 5835W        W 9899   1.116   9.939   3.506
 5836W        W 9900   9.508   3.447  11.012
 5837W        W 9901   2.145   4.398   2.765
 5838W        W 9902   4.983   7.115   8.486
 5839W        W 9903   4.237   1.803   9.829
 5840W        W 9904   0.484  10.288   0.790
 5841W        W 9905   2.670   5.955  10.787
 5842W        W 9906   0.787   0.313   9.983
 5843W        W 9907   6.561   1.656  11.821
 5844W        W 9908   4.496   5.025   3.089
 5845W        W 9909   3.963   5.077   3.832
 5846W        W 9910   1.940   4.705   1.978
 5847W        W 9911   1.860   7.041   8.887
 5848W        W 9912   8.278   2.355   9.754
 5849W        W 9913   4.649   5.012  11.754
 5850W        W 9914   5.124   4.961  10.098
 5851W        W 9915   0.219   7.051   1.924
 5852W        W 9916  10.315   0.053   2.110
 5853W        W 9917   6.803   6.970   9.961
 5854W        W 9918   1.052   3.972  10.415
 5855W        W 9919   6.936   4.527   1.949
 5856W        W 9920   5.982   6.435   2.726
 5857W        W 9921   1.961   9.755   9.453
 5858W        W 9922   3.049  10.006  11.966
 5859W        W 9923   2.576   6.600  11.567
 5860W        W 9924   4.721   0.734  11.624
 5861W        W 9925   7.143   1.675   9.972
 5862W        W 9926   2.606  10.279   1.830
 5863W        W 9927  10.022   9.608   2.928
 5864W        W 9928   2.157   2.291   2.334
 5865W        W 9929   1.306   3.103  11.355
 5866W        W 9930   3.768   9.361   9.475
 5867W        W 9931   0.519  10.481  11.871
 5868W        W 9932   0.972   3.363  11.626
 5869W        W 9933  10.302   7.938   9.745
 5870W        W 9934   6.132   6.622   9.501
 5871W        W 9935   0.493   5.736  10.175
 5872W        W 9936   6.696   5.020   4.051
 5873W        W 9937   7.839   3.105   0.192
 5874W        W 9938   3.765   7.136   0.353
 5875W        W 9939   6.473   4.080  10.207
 5876W        W 9940   7.682   8.394   3.532
 5877W        W 9941   6.650   2.626  10.063
 5878W        W 9942   5.987   5.704   1.239
 5879W        W 9943   4.139   4.264   1.797
 5880W        W 9944  10.456  10.404  10.382
 5881W        W 9945   5.543   9.588  11.952
 5882W        W 9946   5.509   0.265   3.223
 5883W        W 9947   6.439   4.032  11.387
 5884W        W 9948   9.504   1.412   2.214
 5885W        W 9949   8.331   5.758  10.877
 5886W        W 9950   5.734   2.119   3.372
 5887W        W 9951   3.047   9.359   1.853
 5888W        W 9952   4.994   5.057   2.892
 5889W        W 9953   2.504   2.769   9.387
 5890W        W 9954   0.349   3.042   9.809
 5891W        W 9955   4.101   3.884  11.293
 5892W        W 9956   1.258   8.959   2.520
 5893W        W 9957   2.010   0.470   3.569
 5894W        W 9958   7.850   8.385   3.016
 5895W        W 9959   6.521   7.290   1.760
 5896W        W 9960   7.250   0.829   9.982
 5897W        W 9961   1.154   8.167   3.515
 5898W        W 9962   6.622   5.689   3.840
 5899W        W 9963   2.325   5.191  10.205
 5900W        W 9964   4.980   3.397   8.075
 5901W        W 9965   1.138   4.314   1.009
 5902W        W 9966   1.591   4.956   9.920
 5903W        W 9967   8.543   1.669   3.544
 5904W        W 9968   3.551   3.083   1.921
 5905W        W 9969   2.233   5.281   3.509
 5906W        W 9970   5.555   2.613   3.331
 5907W        W 9971   7.244   6.227   0.461
 5908W        W 9972   5.228   1.345  11.674
 5909W        W 9973   9.091   7.069   0.650
 5910W        W 9974   2.294   2.806   9.889
 5911W        W 9975  10.034   4.024  10.514
 5912W        W 9976  10.079   1.329  10.212
 5913W        W 9977   7.721   9.475   2.643
 5914W        W 9978   0.862   1.638  10.287
 5915W        W 9979   3.772   8.458  11.023
 5916W        W 9980   3.089   0.022   0.004
 5917W        W 9981   1.988   9.357   1.014
 5918W        W 9982   5.480   7.032   3.160
 5919W        W 9983   9.714  10.415   0.448
 5920W        W 9984   4.298   2.439  10.311
 5921W        W 9985   7.710   8.024   0.286
 5922W        W 9986   4.696   1.394   1.514
 5923W        W 9987   6.577   9.700  11.984
 5924W        W 9988   3.284   5.759   2.289
 5925W        W 9989   6.030   4.294   9.979
 5926W        W 9990   5.006   1.296   9.182
 5927W        W 9991   6.948   9.492  10.530
 5928W        W 9992   0.606   6.616   0.520
 5929W        W 9993   8.900  10.374   9.051
 5930W        W 9994   9.145   7.021   9.855
 5931W        W 9995   9.360   5.158   0.751
 5932W        W 9996   9.902   7.544   9.844
 5933W        W 9997   9.668   0.435   2.399
 5934W        W 9998   2.318   9.787   1.042
 5935W        W 9999   8.166   3.134   2.013
 5936W        W10000   3.301   1.279   2.283
 5937W        W10001   6.023   1.819   2.968
 5938W        W10002   6.086   7.401  10.319
 5939W        W10003   2.436   9.444   2.691
 5940W        W10004   7.213   1.180   9.608
 5941W        W10005   2.699   1.984  10.026
 5942W        W10006   8.611   9.519  10.840
 5943W        W10007   9.314   7.040   1.987
 5944W        W10008   5.706   6.074   2.488
 5945W        W10009   3.924   1.361  11.394
 5946W        W10010   3.251   4.316   1.285
 5947W        W10011   4.539   4.063   9.854
 5948W        W10012   5.227   5.607   3.094
 5949W        W10013   7.935   3.578   2.635
 5950W        W10014   2.790   3.364  10.742
 5951W        W10015   4.724  10.020   8.839
 5952W        W10016   1.878  10.304   8.731
 5953W        W10017   7.415   4.992  10.003
 5954W        W10018   1.906   2.327   0.474
 5955W        W10019   1.082   5.550   1.113
 5956W        W10020  10.269   8.020   1.359
 5957W        W10021   0.833   8.097  11.470
 5958W        W10022   0.958   0.147   8.607
 5959W        W10023   5.379   7.576   4.240
 5960W        W10024   0.001   5.901   2.465
 5961W        W10025   5.431   0.389   9.396
 5962W        W10026  10.453   7.016   9.258
 5963W        W10027   4.600   7.404  11.621
 5964W        W10028   1.318   2.377   9.192
 5965W        W10029   6.992   7.691  11.560
 5966W        W10030   5.275   2.158  10.086
 5967W        W10031   5.477   3.994  11.675
 5968W        W10032   3.281   5.623   3.719
 5969W        W10033   1.794   7.597   3.158
 5970W        W10034   9.018   1.534   2.293
 5971W        W10035   4.357   4.519   9.508
 5972W        W10036   6.587   2.113   0.045
 5973W        W10037   4.661  10.479  11.594
 5974W        W10038   3.192   7.048   9.989
 5975W        W10039   4.627   4.419   8.382
 5976W        W10040   3.255   9.903   2.715
 5977W        W10041   3.429   3.504   3.365
 5978W        W10042   5.753   5.599   8.596
 5979W        W10043   6.060  10.076  11.059
 5980W        W10044   2.537   9.437   1.809
 5981W        W10045   2.993   6.091   3.114
 5982W        W10046  10.026   9.725   0.801
 5983W        W10047   9.747   1.564   2.999
 5984W        W10048   5.550   4.373   8.469
 5985W        W10049   2.546   9.160  10.507
 5986W        W10050   1.263  10.337   0.533
 5987W        W10051   9.195   1.020   2.341
 5988W        W10052   5.100   8.172   0.449
 5989W        W10053  10.220   8.835   9.147
 5990W        W10054   9.319   1.387   2.703
 5991W        W10055  10.034   1.764   9.010
 5992W        W10056   2.515   8.234   0.829
 5993W        W10057   8.470   1.076  10.516
 5994W        W10058   3.695   7.120   1.028
 5995W        W10059   6.610   6.588  10.241
 5996W        W10060   3.024   2.713   9.307
 5997W        W10061   8.922   6.084   3.230
 5998W        W10062   8.700   3.912   3.673
 5999W        W10063   9.133  10.239  11.000
 6000W        W10064   9.854   8.857   3.270
 6001W        W10065   5.694   4.754   9.000
 6002W        W10066   0.290   2.241   1.277
 6003W        W10067   2.667   3.852  10.750
 6004W        W10068  10.263   2.649   1.518
 6005W        W10069   3.396   8.476   2.653
 6006W        W10070   5.483   2.260   8.811
 6007W        W10071   3.655   4.072   3.608
 6008W        W10072   5.622   4.896   8.501
 6009W        W10073   3.346   7.496   9.725
 6010W        W10074   4.662   8.140   1.429
 6011W        W10075   8.948   1.733   2.779
 6012W        W10076   9.510   9.932   1.256
 6013W        W10077   8.700   2.727   9.091
 6014W        W10078   2.620   3.071  10.324
 6015W        W10079   2.302   3.843  10.310
 6016W        W10080   0.643   7.598  10.556
 6017W        W10081   6.702   1.662  11.296
 6018W        W10082   8.563   8.843   0.021
 6019W        W10083   2.265   9.873   1.916
 6020W        W10084   6.351   0.448   8.995
 6021W        W10085   7.346   5.750   0.236
 6022W        W10086   9.854   9.207   8.924
 6023W        W10087   6.722   7.840   3.365
 6024W        W10088   1.847   6.536   1.116
 6025W        W10089   8.066   9.450   1.080
 6026W        W10090   7.404   5.604   0.710
 6027W        W10091   0.294   4.736   9.582
 6028W        W10092   1.639   1.988   0.180
 6029W        W10093   2.231  10.300  11.947
 6030W        W10094   5.696   1.594   0.278
 6031W        W10095   0.786   1.270   9.335
 6032W        W10096   2.634   5.500   9.526
 6033W        W10097   2.904   4.297   3.235
 6034W        W10098   8.916  10.432   2.737
 6035W        W10099   1.858   3.730   8.921
 6036W        W10100   7.911  10.368   9.347
 6037W        W10101   5.220   1.883   1.691
 6038W        W10102   6.604   3.068  11.730
 6039W        W10103   6.369   3.292  10.720
 6040W        W10104   8.119   5.718  11.769
 6041W        W10105   8.946   5.293  11.960
 6042W        W10106   1.856   1.259   8.780
 6043W        W10107   8.799   0.174   1.243
 6044W        W10108   3.314   8.148   1.116
 6045W        W10109   0.685   9.809   8.915
 6046W        W10110   4.208   7.572   3.048
 6047W        W10111   5.484   5.003   9.414
 6048W        W10112   2.411   9.971   0.587
 6049W        W10113   1.764   5.680   2.795
 6050W        W10114   6.515  10.465   1.132
 6051W        W10115   5.072   0.790  10.456
 6052W        W10116   6.029   2.246  10.772
 6053W        W10117   8.185   9.666   2.405
 6054W        W10118   7.279   7.956   1.794
 6055W        W10119   4.154   1.468   3.255
 6056W        W10120   4.042   2.652   2.211
 6057W        W10121   0.253   9.615  11.004
 6058W        W10122   6.922   1.345   1.668
 6059W        W10123   5.153   9.301   1.821
 6060W        W10124   8.190   2.453   0.849
 6061W        W10125   3.793   0.896  10.687
 6062W        W10126   6.001   7.227   2.479
 6063W        W10127   3.342   5.796   0.460
 6064W        W10128   6.880   8.923   9.422
 6065W        W10129   7.576   7.607  10.510
 6066W        W10130   3.481   5.501   0.864
 6067W        W10131   2.025   5.352  11.727
 6068W        W10132   8.551   0.714   0.076
 6069W        W10133   0.404   2.388   0.788
 6070W        W10134   9.795   7.875   9.025
 6071W        W10135   1.811   2.678   0.854
 6072W        W10136   7.895  10.337  10.973
 6073W        W10137   9.154   0.328  10.472
 6074W        W10138   5.884   8.291   8.344
 6075W        W10139   5.107   5.169  11.967
 6076W        W10140   4.681   7.387   1.792
 6077W        W10141   4.268   4.660   2.740
 6078W        W10142   0.961   5.537   2.450
 6079W        W10143   6.130   0.470  11.646
 6080W        W10144   7.924   5.217  11.849
 6081W        W10145   7.119   1.671   9.463
 6082W        W10146   5.731   7.543   9.565
 6083W        W10147   9.288   8.750   9.404
 6084W        W10148   7.561   4.974   1.106
 6085W        W10149   8.825   0.707  10.315
 6086W        W10150   1.734   1.791   0.650
 6087W        W10151   1.697   0.793   1.580
 6088W        W10152   1.165   5.183   3.442
 6089W        W10153  10.251   2.797   2.410
 6090W        W10154   0.010   8.954   1.658
 6091W        W10155   5.686   1.689  11.250
 6092W        W10156   8.077   1.296   0.357
 6093W        W10157   2.183  10.469   9.583
 6094W        W10158   2.647   6.363  11.098
 6095W        W10159   4.181   9.458   3.152
 6096W        W10160   8.852   5.095   0.834
 6097W        W10161   9.528   9.052   0.820
 6098W        W10162   9.297   9.821  10.077
 6099W        W10163   2.851   3.163   9.478
 6100W        W10164   3.116   6.209  10.060
 6101W        W10165   6.659   3.200   2.236
 6102W        W10166   7.057   6.932   3.228
 6103W        W10167   8.689   2.385  11.111
 6104W        W10168   3.145   4.381  11.425
 6105W        W10169   4.181   0.047   9.545
 6106W        W10170   6.629   7.601   9.553
 6107W        W10171   2.454   1.637  10.275
 6108W        W10172   0.250   5.721  11.543
 6109W        W10173   8.416   7.769  11.455
 6110W        W10174   0.198   1.782  11.166
 6111W        W10175   4.578   9.572   9.032
 6112W        W10176   3.524   2.823   9.205
 6113W        W10177   0.072   1.360  10.343
 6114W        W10178   7.616   0.639   0.817
 6115W        W10179   2.184   8.140  10.174
 6116W        W10180   8.976   1.214  10.252
 6117W        W10181   3.830   8.023  11.345
 6118W        W10182   8.995   5.517   0.494
 6119W        W10183   6.469   4.438   8.412
 6120W        W10184   7.936   2.818  11.765
 6121W        W10185   6.394   0.973   0.391
 6122W        W10186   7.086   5.498   3.333
 6123W        W10187   3.459   5.030   0.012
 6124W        W10188   4.667   0.230   3.434
 6125W        W10189   1.591  10.113   3.683
 6126W        W10190   3.620   3.149   8.798
 6127W        W10191   2.928   4.759   2.508
 6128W        W10192   7.103   4.055   2.085
 6129W        W10193   9.826   7.448   3.142
 6130W        W10194   2.676   5.006   0.439
 6131W        W10195   8.888   7.686   9.213
 6132W        W10196   6.855   1.209   9.988
 6133W        W10197   5.881   8.134   0.436
 6134W        W10198   7.130   4.802   3.872
 6135W        W10199   4.559   0.007   1.014
 6136W        W10200   8.540   4.040  11.362
 6137W        W10201   3.167   5.699  11.250
 6138W        W10202   5.607   2.654   1.897
 6139W        W10203   6.376   8.797   9.544
 6140W        W10204   2.576   1.947   2.190
 6141W        W10205   3.363   9.764   1.839
 6142W        W10206   0.626   7.395   8.391
 6143W        W10207   5.624   8.303   1.175
 6144W        W10208   2.475   4.812   9.869
 6145W        W10209   0.249   4.355  11.965
 6146W        W10210   3.703   0.874   1.212
 6147W        W10211   0.446   3.835   9.104
 6148W        W10212   5.905   9.576   2.491
 6149W        W10213   1.695   3.801   1.836
 6150W        W10214   4.787   6.250   2.425
 6151W        W10215   1.684   8.131   3.311
 6152W        W10216   1.722   3.930   9.422
 6153W        W10217   4.717   0.771  11.092
 6154W        W10218   9.886   8.502  11.490
 6155W        W10219   0.416   6.167   2.498
 6156W        W10220   2.342   1.741   9.769
 6157W        W10221   8.035   5.122   2.079
 6158W        W10222   5.489  10.337  10.194
 6159W        W10223   3.302   2.354   2.653
 6160W        W10224   1.871   3.598   3.317
 6161W        W10225   5.125   9.550   0.276
 6162W        W10226   6.010   1.311   2.797
 6163W        W10227   8.929   2.037   2.378
 6164W        W10228   9.143   5.084   1.823
 6165W        W10229   0.715   7.192   1.797
 6166W        W10230   2.272   4.161   0.884
 6167W        W10231   7.132   1.247   0.710
 6168W        W10232   7.598   2.850   0.960
 6169W        W10233   6.780   7.011   2.759
 6170W        W10234   9.476   8.367   2.491
 6171W        W10235   1.236   2.825   9.475
 6172W        W10236   2.211   9.324  11.880
 6173W        W10237   7.503   5.625  10.894
 6174W        W10238   0.381   0.852   0.923
 6175W        W10239   5.585   4.309   2.584
 6176W        W10240   1.419   3.392   0.306
 6177W        W10241   8.922   9.475   1.782
 6178W        W10242   4.714   5.761  11.363
 6179W        W10243   7.237   2.541   0.733
 6180W        W10244   3.698   7.988   1.430
 6181W        W10245   7.729  10.231  11.996
 6182W        W10246   0.387   5.973  11.135
 6183W        W10247   0.799   0.426  11.815
 6184W        W10248   3.108   3.562   0.011
 6185W        W10249   0.363   8.572   3.088
 6186W        W10250   4.245   9.204   9.469
 6187W        W10251   2.373   3.063   0.347
 6188W        W10252   3.110   2.764   3.522
 6189W        W10253   5.227   3.828   8.948
 6190W        W10254   2.826   8.853   1.152
 6191W        W10255  10.364   5.635   1.678
 6192W        W10256   0.958   2.130  10.437
 6193W        W10257   5.546   2.630   0.295
 6194W        W10258   6.465   4.302   8.911
 6195W        W10259   3.260   9.277  11.475
 6196W        W10260   3.754   4.685   0.995
 6197W        W10261   0.819   1.451   1.963
 6198W        W10262   9.520   1.609  11.748
 6199W        W10263   8.088   8.283   0.605
 6200W        W10264   1.845   5.078  10.327
 6201W        W10265   9.965   6.399   1.872
 6202W        W10266   4.941   6.442   0.325
 6203W        W10267   3.371   9.906  10.687
 6204W        W10268   6.563   2.446   2.873
 6205W        W10269   5.266   3.293   8.517
 6206W        W10270   8.948   3.137   8.894
 6207W        W10271   3.205   1.375  10.124
 6208W        W10272   9.786   6.569   8.879
 6209W        W10273   9.938   6.977   8.523
 6210W        W10274   4.626   1.535   2.864
 6211W        W10275   4.607   2.644   2.364
 6212W        W10276   3.978   4.243  11.652
 6213W        W10277   4.440   8.747   9.511
 6214W        W10278   6.251   6.916   0.006
 6215W        W10279   6.113   4.942   0.921
 6216W        W10280   2.758  10.124   2.303
 6217W        W10281   2.134  10.020   9.862
 6218W        W10282   4.692   0.990  10.194
 6219W        W10283   6.565   1.926   1.387
 6220W        W10284   6.083  10.408  10.281
 6221W        W10285   9.358   9.585   2.076
 6222W        W10286   8.639   5.800   8.524
 6223W        W10287   5.476   1.229   0.598
 6224W        W10288   0.634   9.860   9.820
 6225W        W10289   6.854   0.905   1.396
 6226W        W10290   5.220   3.201  11.733
 6227W        W10291   6.020   2.662   9.049
 6228W        W10292   0.381   8.915   3.500
 6229W        W10293   8.134   3.612   8.931
 6230W        W10294   0.685   1.807  11.973
 6231W        W10295   0.968   6.048   9.309
 6232W        W10296   8.049   7.584  10.855
 6233W        W10297   7.936   9.487   1.597
 6234W        W10298   6.945   3.773   9.703
 6235W        W10299   6.064   2.074   1.169
 6236W        W10300   9.309   7.502  10.615
 6237W        W10301   6.607   2.961   2.837
 6238W        W10302   5.631   9.378   1.725
 6239W        W10303   7.077   8.604  11.973
 6240W        W10304   2.844   2.376  10.899
 6241W        W10305   8.572   9.466   8.997
 6242W        W10306   1.286   6.053   1.024
 6243W        W10307   5.258   1.843  10.936
 6244W        W10308   9.090   6.983  11.156
 6245W        W10309   0.018   1.729   1.155
 6246W        W10310   6.564   0.747  10.022
 6247W        W10311   5.942   3.798   8.214
 6248W        W10312   9.250   2.206  10.008
 6249W        W10313   4.066   6.619   1.491
 6250W        W10314   5.187   9.018   9.961
 6251W        W10315   6.099   2.782   1.690
 6252W        W10316   5.213   4.666   9.700
 6253W        W10317   1.615   3.972   3.765
 6254W        W10318   7.360   5.160  11.023
 6255W        W10319   4.522   3.614   9.607
 6256W        W10320   1.988   1.384   2.735
 6257W        W10321   3.083   2.283   8.951
 6258W        W10322   9.481   8.265   0.289
 6259W        W10323   0.858   1.555   8.903
 6260W        W10324   3.851   7.703   1.837
 6261W        W10325   5.611   9.355  10.986
 6262W        W10326   0.722   2.983   1.514
 6263W        W10327   6.877   5.928   1.782
 6264W        W10328   3.074   4.036  11.065
 6265W        W10329   3.091   8.968   9.120
 6266W        W10330   9.874   2.226   0.682
 6267W        W10331   7.944   6.184   1.788
 6268W        W10332  10.236   0.761   0.308
 6269W        W10333   7.522   3.574   8.963
 6270W        W10334   5.894   0.526   9.615
 6271W        W10335   7.904   4.520   2.027
 6272W        W10336   6.924   0.268  10.552
 6273W        W10337   2.168   0.499  11.243
 6274W        W10338   3.320   0.733   2.412
 6275W        W10339   5.824   0.036   9.824
 6276W        W10340  10.251   1.349   3.375
 6277W        W10341   1.232   4.270  11.798
 6278W        W10342   6.664   6.091   8.807
 6279W        W10343   8.012   0.413   3.329
 6280W        W10344   1.407   0.292   2.056
 6281W        W10345   0.334   3.780   1.734
 6282W        W10346   7.946   9.986  10.610
 6283W        W10347   4.142   2.687   0.191
 6284W        W10348   9.508   5.193   9.060
 6285W        W10349   4.182   3.751   1.836
 6286W        W10350   6.636   3.816   2.478
 6287W        W10351   7.714   3.158   1.762
 6288W        W10352   5.396   0.429   2.745
 6289W        W10353   4.891   9.782   3.561
 6290W        W10354   3.815   2.128   8.562
 6291W        W10355   5.468   5.289   9.886
 6292W        W10356   3.112   4.773  10.583
 6293W        W10357   6.959   4.058  10.360
 6294W        W10358   0.300   1.805   3.037
 6295W        W10359   5.583   0.278  11.966
 6296W        W10360   3.302  10.291   3.412
 6297W        W10361   3.318   7.635   3.674
 6298W        W10362   1.259   1.712   0.390
 6299W        W10363   1.757   8.622   4.093
 6300W        W10364   3.755   1.170   3.062
 6301W        W10365   6.049   8.035  11.523
 6302W        W10366   2.851   3.132   0.162
 6303W        W10367   4.241   5.710   9.643
 6304W        W10368   3.651   8.683   1.833
 6305W        W10369   5.550   9.830   0.439
 6306W        W10370   2.280   4.728  11.749
 6307W        W10371   4.149   0.891   2.569
 6308W        W10372   6.784   3.235   1.736
 6309W        W10373   2.470   7.321  10.190
 6310W        W10374   7.923   0.338  11.055
 6311W        W10375   7.362   3.693   1.389
 6312W        W10376   9.847   5.986  11.435
 6313W        W10377   6.247   6.997   9.159
 6314W        W10378   9.158   0.878   9.916
 6315W        W10379   2.771   5.130  10.492
 6316W        W10380   7.461   2.840   2.961
 6317W        W10381   2.273   5.769   1.366
 6318W        W10382   1.228   0.486  11.548
 6319W        W10383   9.471   1.097  11.854
 6320W        W10384   6.073   8.810   9.960
 6321W        W10385   1.391   3.680   3.422
 6322W        W10386   4.840   8.901  11.820
 6323W        W10387   3.353   5.976   2.779
 6324W        W10388   9.087   2.730   9.998
 6325W        W10389   5.264   3.113   2.570
 6326W        W10390   8.952   4.951   1.331
 6327W        W10391   3.772   3.134   1.450
 6328W        W10392   3.204   7.769   1.481
 6329W        W10393  10.105   3.919   9.746
 6330W        W10394   0.033   0.348   1.689
 6331W        W10395   7.100   3.793  10.776
 6332W        W10396   7.893   3.174   8.782
 6333W        W10397   0.160   7.896   2.969
 6334W        W10398   8.434   5.134  11.865
 6335W        W10399   9.078   5.532   1.011
 6336W        W10400   5.767   1.581   3.420
 6337W        W10401   4.043   1.397  10.114
 6338W        W10402   3.120   8.802   1.932
 6339W        W10403   3.342   0.049   9.868
 6340W        W10404   2.440   6.449  10.234
 6341W        W10405   9.366   5.861   0.278
 6342W        W10406   3.152   6.604   3.509
 6343W        W10407   3.796  10.041   1.852
 6344W        W10408   3.350  10.031   9.819
 6345W        W10409   5.006   0.261   1.881
 6346W        W10410   5.315   8.074  10.306
 6347W        W10411   1.377   9.018   2.031
 6348W        W10412   1.391   2.256  10.134
 6349W        W10413   1.861   2.633   3.390
 6350W        W10414   0.186   3.752   2.746
 6351W        W10415   5.768   6.581  11.151
 6352W        W10416   8.045   9.372  11.346
 6353W        W10417   6.163   1.849  11.045
 6354W        W10418   5.087   8.078  11.364
 6355W        W10419   4.518   1.367   9.912
 6356W        W10420   6.165   7.111   0.471
 6357W        W10421   3.056   1.873   0.974
 6358W        W10422   6.978   4.695   1.485
 6359W        W10423   1.029  10.153   8.673
 6360W        W10424   6.332   8.255   3.247
 6361W        W10425   2.479   4.268  10.523
 6362W        W10426   2.126   0.775   9.944
 6363W        W10427   7.198   9.806   0.698
 6364W        W10428   9.345   1.883   2.078
 6365W        W10429   1.811   9.315   9.187
 6366W        W10430   5.577   8.690  11.817
 6367W        W10431   9.774   4.594  11.308
 6368W        W10432   7.098   5.925   2.597
 6369W        W10433   1.823   5.668  11.001
 6370W        W10434   9.340   4.948  11.945
 6371W        W10435   3.172   1.273   9.123
 6372W        W10436   7.875  10.251  11.498
 6373W        W10437   1.564   0.215  11.868
 6374W        W10438   6.352   5.556   2.476
 6375W        W10439   8.548   1.005  11.054
 6376W        W10440   0.633   4.582   1.864
 6377W        W10441   7.516   7.127   0.674
 6378W        W10442   6.614   4.751   3.095
 6379W        W10443   8.513  10.356   3.082
 6380W        W10444   8.056   1.804   2.789
 6381W        W10445   7.066   0.481   0.619
 6382W        W10446   2.217   3.242   2.383
 6383W        W10447   3.200   4.712   9.553
 6384W        W10448   9.310   9.901  10.579
 6385W        W10449   5.343   3.074   2.069
 6386W        W10450   4.101   7.978   3.424
 6387W        W10451   2.404   4.119   2.334
 6388W        W10452   0.727   4.224   0.700
 6389W        W10453   9.434   9.674   9.088
 6390W        W10454   5.751   1.154  11.987
 6391W        W10455   8.849   2.323   1.963
 6392W        W10456   6.972   0.398   8.936
 6393W        W10457   8.919   5.675   1.947
 6394W        W10458   1.720   3.766  10.775
 6395W        W10459   9.660   3.597   3.524
 6396W        W10460   8.436   8.470  10.934
 6397W        W10461   8.087   0.443   0.614
 6398W        W10462   0.798   3.122  10.045
 6399W        W10463   6.223   9.603   0.969
 6400W        W10464   5.317   9.946   0.952
 6401W        W10465  10.069   3.182   2.087
 6402W        W10466  10.395   9.276  10.012
 6403W        W10467   6.019   7.152  11.288
 6404W        W10468   2.364   1.475   1.291
 6405W        W10469   6.739   3.196  10.246
 6406W        W10470   3.734   9.145   3.149
 6407W        W10471   2.838   6.169   8.842
 6408W        W10472   3.330   4.742   2.210
 6409W        W10473   3.572  10.480   0.700
 6410W        W10474   8.992   7.553   8.675
 6411W        W10475   9.700   8.751   9.086
 6412W        W10476  10.433   2.176   2.970
 6413W        W10477   2.376   2.111  10.502
 6414W        W10478   2.045   3.233   9.738
 6415W        W10479   6.884   1.815   1.889
 6416W        W10480   9.972   1.339   2.051
 6417W        W10481   9.784   9.175   2.877
 6418W        W10482   2.972   4.296  10.638
 6419W        W10483   5.613   4.493   9.424
 6420W        W10484   5.462   3.299   3.506
 6421W        W10485   0.378   7.252  11.554
 6422W        W10486   2.171   3.756  11.644
 6423W        W10487  10.047   3.454   9.035
 6424W        W10488   2.721   3.137   8.978
 6425W        W10489   8.615   3.844  10.612
 6426W        W10490   3.775   3.121   3.486
 6427W        W10491   7.279   7.164   2.790
 6428W        W10492   1.853   5.011   1.146
 6429W        W10493   6.832   9.873   9.419
 6430W        W10494   3.576   5.007   2.592
 6431W        W10495   0.402   7.864   0.446
 6432W        W10496   8.962   9.338   1.303
 6433W        W10497   5.774   1.752   9.483
 6434W        W10498   2.181   6.501   0.298
 6435W        W10499   5.327   2.879  10.955
 6436W        W10500   8.993   9.518   9.292
 6437W        W10501   7.206   5.215   8.485
 6438W        W10502   5.142   6.607  10.409
 6439W        W10503   9.483   4.065   0.267
 6440W        W10504   8.335   1.834   0.789
 6441W        W10505   9.125   6.107   3.698
 6442W        W10506   8.854   8.383   3.135
 6443W        W10507   1.722   0.558   0.235
 6444W        W10508   1.311  10.483  11.458
 6445W        W10509   9.968   8.546   2.419
 6446W        W10510   8.429   5.976   1.764
 6447W        W10511   1.220   7.193   3.058
 6448W        W10512   5.704   8.351   9.554
 6449W        W10513   4.290   4.779   8.614
 6450W        W10514   9.967   7.903  11.111
 6451W        W10515   7.352   5.116   3.068
 6452W        W10516   8.041   2.270   1.972
 6453W        W10517   6.444   9.838   0.468
 6454W        W10518   4.982   3.686   9.379
 6455W        W10519   6.164   6.306  11.356
 6456W        W10520   1.903   0.417   3.047
 6457W        W10521   2.184   4.686   9.454
 6458W        W10522   6.476   9.616   9.714
 6459W        W10523   4.935   8.039   2.294
 6460W        W10524   4.420   2.645   1.871
 6461W        W10525  10.244   9.643  10.950
 6462W        W10526   6.239   5.115   2.250
 6463W        W10527   5.469   3.327   1.500
 6464W        W10528   0.718   7.785   9.107
 6465W        W10529   6.235  10.434   3.161
 6466W        W10530   6.332   2.840   0.799
 6467W        W10531   5.455   1.135  10.504
 6468W        W10532   4.673   2.747  10.109
 6469W        W10533   1.855   6.182   2.303
 6470W        W10534   6.244   5.060   3.276
 6471W        W10535   1.610   6.563   8.843
 6472W        W10536   6.062   6.108   1.776
 6473W        W10537   5.708   4.320   1.394
 6474W        W10538   3.843   7.755   0.348
 6475W        W10539   0.421   6.624   3.384
 6476W        W10540   0.877   4.972  10.282
 6477W        W10541   0.156  10.172   2.070
 6478W        W10542   5.273   2.697  11.859
 6479W        W10543   9.572   3.123   0.252
 6480W        W10544  10.187   6.495   8.560
 6481W        W10545   5.254  10.432   2.826
 6482W        W10546   7.477   9.118   9.507
 6483W        W10547   4.468   6.468   0.149
 6484W        W10548   8.622   9.571   2.728
 6485W        W10549   2.383   4.231   1.398
 6486W        W10550  10.381   2.191   0.924
 6487W        W10551   8.007   7.934   9.994
 6488W        W10552   1.451   9.598  11.492
 6489W        W10553   5.706   7.240   3.570
 6490W        W10554   2.848   6.836   8.584
 6491W        W10555   3.020   3.477   0.536
 6492W        W10556   0.317   9.790   3.277
 6493W        W10557   5.507   9.357   2.254
 6494W        W10558   7.710   3.274   1.252
 6495W        W10559   6.150   4.098   4.077
 6496W        W10560   8.121   0.704   1.451
 6497W        W10561   0.409   4.109   1.345
 6498W        W10562   3.550   0.531  11.044
 6499W        W10563   4.787   9.859   1.754
 6500W        W10564   5.092   6.603   3.333
 6501W        W10565   1.842   1.389   0.986
 6502W        W10566   6.193   5.185   1.756
 6503W        W10567  10.035   5.797   2.312
 6504W        W10568   8.614   1.654  11.851
 6505W        W10569   6.025   8.548   1.870
 6506W        W10570   7.382   9.191   2.924
 6507W        W10571   8.854   8.371   1.960
 6508W        W10572   7.419   1.226   2.417
 6509W        W10573   9.571   9.501  11.558
 6510W        W10574   0.962   6.866   0.822
 6511W        W10575   7.008   0.776  11.397
 6512W        W10576   1.212   1.304   2.263
 6513W        W10577   1.659   9.071   3.360
 6514W        W10578   4.029   5.879  10.070
 6515W        W10579   2.646   2.486  11.768
 6516W        W10580   1.589   7.446  10.397
 6517W        W10581   1.181   1.002   1.344
 6518W        W10582   6.129   4.466   1.114
 6519W        W10583   3.375   2.593   1.837
 6520W        W10584   5.820   2.700  10.949
 6521W        W10585   8.313   7.309   1.149
 6522W        W10586   6.245   7.793   0.403
 6523W        W10587   0.548   4.075  10.447
 6524W        W10588   6.522   2.688   2.428
 6525W        W10589   2.205   2.831   1.148
 6526W        W10590   0.630  10.284   1.906
 6527W        W10591   6.313   1.330  10.233
 6528W        W10592   9.003   4.055   9.088
 6529W        W10593   8.819   2.809   0.524
 6530W        W10594   3.190   6.720   1.548
 6531W        W10595   5.190   0.883   1.896
 6532W        W10596   8.067   7.744   1.165
 6533W        W10597   8.266  10.470   9.713
 6534W        W10598   1.743   3.033   2.524
 6535W        W10599   1.787   6.126  10.703
 6536W        W10600   9.463   2.398   1.353
 6537W        W10601   4.937   6.396   1.943
 6538W        W10602   9.411   5.436   2.668
 6539W        W10603   4.813   8.664   9.890
 6540W        W10604   2.151   6.526  11.243
 6541W        W10605   4.637   3.344   2.596
 6542W        W10606   5.705   0.233  10.944
 6543W        W10607   1.427   8.490   2.737
 6544W        W10608   2.714   6.016  10.281
 6545W        W10609   2.788   2.206   0.242
 6546W        W10610   3.745   5.435   3.461
 6547W        W10611   4.561   6.063   2.009
 6548W        W10612   6.419   2.314   9.121
 6549W        W10613   1.827   2.209   2.748
 6550W        W10614   8.824   1.310   3.046
 6551W        W10615   7.199   1.065  10.808
 6552W        W10616   2.402   2.351   1.907
 6553W        W10617   0.924   1.133  10.229
 6554W        W10618   6.612   0.826   2.747
 6555W        W10619   0.353   9.950   2.811
 6556W        W10620   4.516   2.600   9.114
 6557W        W10621   2.217   1.422   9.389
 6558W        W10622   3.685   5.356   0.383
 6559W        W10623   8.543   6.359   0.257
 6560W        W10624   7.233  10.312  11.856
 6561W        W10625   3.624   8.458  10.534
 6562W        W10626   4.717   8.900   2.618
 6563W        W10627   7.888   2.678   2.747
 6564W        W10628   3.200   0.917   0.947
 6565W        W10629   1.582   3.105   0.717
 6566W        W10630   5.437   8.014   2.277
 6567W        W10631   9.346   3.618   2.443
 6568W        W10632   4.249   5.677  11.746
 6569W        W10633   1.037   2.857   8.539
 6570W        W10634   9.042   6.429  11.030
 6571W        W10635   3.779   6.955  10.490
 6572W        W10636   8.825   3.741   1.950
 6573W        W10637   9.949   7.757   3.555
 6574W        W10638   6.599   0.519   0.268
 6575W        W10639   3.303   6.583   9.791
 6576W        W10640  10.089   9.310  11.278
 6577W        W10641   5.780   4.311   3.087
 6578W        W10642   5.613   3.214   0.456
 6579W        W10643   0.769   8.987   3.186
 6580W        W10644   7.787   7.181  10.097
 6581W        W10645   8.480   6.031   9.028
 6582W        W10646   1.503   0.081   2.874
 6583W        W10647   0.432   0.324   0.759
 6584W        W10648   3.626   5.480  10.355
 6585W        W10649   8.822  10.326   0.861
 6586W        W10650   8.584   8.515   8.915
 6587W        W10651   5.854   4.381   2.142
 6588W        W10652   0.183   6.500   8.746
 6589W        W10653   6.568   6.776   8.810
 6590W        W10654   0.103   8.617  10.904
 6591W        W10655   7.842   3.661   9.346
 6592W        W10656   3.005   7.083   1.869
 6593W        W10657   7.890   7.658   2.178
 6594W        W10658   5.173  10.266   1.819
 6595W        W10659   5.632   4.093   3.975
 6596W        W10660   5.487   7.612  11.822
 6597W        W10661   6.164   2.800  11.947
 6598W        W10662   4.926   8.741   8.496
 6599W        W10663   5.520   0.753   0.206
 6600W        W10664   8.358   6.000   0.886
 6601W        W10665   5.198   6.002   2.747
 6602W        W10666   8.582   4.172   1.743
 6603W        W10667   6.203   3.716  10.428
 6604W        W10668   2.215   2.294   0.983
 6605W        W10669   9.425   5.360   0.264
 6606W        W10670   7.478   3.051   9.730
 6607W        W10671   5.805   4.781   3.310
 6608W        W10672   1.976   6.127  11.731
 6609W        W10673   4.136   4.893   9.783
 6610W        W10674   5.901   1.373   9.821
 6611W        W10675   1.847   6.954   1.446
 6612W        W10676   4.994   1.661   2.499
 6613W        W10677   3.733   2.259   2.075
 6614W        W10678   6.931   6.299   9.460
 6615W        W10679   3.407   1.901  11.243
 6616W        W10680   1.815   0.861   0.634
 6617W        W10681   3.332   4.489   0.793
 6618W        W10682   9.745   4.163   2.924
 6619W        W10683   4.460  10.427   8.630
 6620W        W10684   0.263   6.198  10.270
 6621W        W10685   3.334   1.124   2.777
 6622W        W10686   1.783   5.692   8.700
 6623W        W10687   8.428   8.589   8.412
 6624W        W10688   5.098   1.412  10.689
 6625W        W10689   0.752   5.482   1.512
 6626W        W10690   9.205   8.127   2.853
 6627W        W10691   6.525   5.601  11.170
 6628W        W10692  10.364   5.968  11.311
 6629W        W10693   9.455   6.881   0.075
 6630W        W10694   9.672   2.507  11.510
 6631W        W10695   7.514   8.499   8.397
 6632W        W10696   7.964   1.413   9.356
 6633W        W10697   0.814   7.503   1.392
 6634W        W10698   0.898   3.591   0.287
 6635W        W10699   1.607   0.821  11.322
 6636W        W10700  10.271   7.464  11.303
 6637W        W10701   8.429   8.053  11.860
 6638W        W10702   7.081   2.328   3.567
 6639W        W10703   3.120   3.540  11.087
 6640W        W10704   0.336   5.785   1.006
 6641W        W10705   4.260   0.746  10.871
 6642W        W10706   7.981   6.958   0.424
 6643W        W10707   1.402   7.560  11.846
 6644W        W10708   4.960   3.517   9.868
 6645W        W10709   1.889   7.216   2.297
 6646W        W10710   1.271   6.275  11.332
 6647W        W10711   4.192   8.591   1.804
 6648W        W10712   4.963  10.321  10.125
 6649W        W10713   7.978   4.086  10.515
 6650W        W10714   8.912   2.815   9.546
 6651W        W10715   2.390   6.177   9.046
 6652W        W10716   1.023   8.544  10.716
 6653W        W10717   8.993   9.949   1.969
 6654W        W10718   1.258   9.028   3.022
 6655W        W10719   7.263   3.946   9.214
 6656W        W10720   7.163   0.506   0.120
 6657W        W10721   8.707  10.411   9.988
 6658W        W10722   2.781   6.902   2.281
 6659W        W10723   4.750   7.358  11.153
 6660W        W10724   2.199   3.701   0.668
 6661W        W10725   4.766   3.601   1.001
 6662W        W10726   9.579   1.833   3.868
 6663W        W10727   9.880   3.794  10.960
 6664W        W10728   6.409   9.559   3.379
 6665W        W10729   3.322   4.547   2.724
 6666W        W10730   3.284   7.045   0.167
 6667W        W10731   6.721   9.578   0.864
 6668W        W10732   5.666   9.242   3.345
 6669W        W10733   4.253   1.304   0.704
 6670W        W10734   8.819   3.777  11.717
 6671W        W10735  10.037   2.232   0.210
 6672W        W10736   6.085   0.899   8.963
 6673W        W10737   6.327   0.714   3.551
 6674W        W10738   9.176   1.509   1.779
 6675W        W10739   2.295  10.223  11.445
 6676W        W10740   0.690   7.858   9.622
 6677W        W10741   4.343   3.067   2.272
 6678W        W10742   2.465   9.702   9.578
 6679W        W10743   0.756   1.929   1.805
 6680W        W10744   5.568   9.871   2.758
 6681W        W10745   0.019   0.693   2.669
 6682W        W10746   0.364   4.999  10.245
 6683W        W10747   2.873   7.445   9.891
 6684W        W10748   8.695   1.239   1.986
 6685W        W10749   9.970   4.844   3.244
 6686W        W10750  10.157   8.647   2.908
 6687W        W10751   2.664   6.239   9.822
 6688W        W10752   6.642   5.729  10.704
 6689W        W10753   2.163   8.233  11.876
 6690W        W10754   5.289   6.926  10.035
 6691W        W10755   0.239   5.998   2.947
 6692W        W10756   1.031   7.623  11.453
 6693W        W10757   8.129   3.498   0.753
 6694W        W10758  10.455  10.222  11.330
 6695W        W10759   0.541   9.444   2.891
 6696W        W10760   6.439   2.365  10.486
 6697W        W10761   4.214   7.073  11.673
 6698W        W10762   6.389   5.118   2.744
 6699W        W10763   2.219   1.632   0.654
 6700W        W10764   8.991   1.913   9.050
 6701W        W10765   2.267   2.712   3.052
 6702W        W10766   0.380   3.603   1.253
 6703W        W10767   8.854   8.600   9.638
 6704W        W10768   5.993   2.333   0.249
 6705W        W10769   6.324   9.792   1.709
 6706W        W10770   2.564   7.330  10.738
 6707W        W10771   3.231   8.899   0.537
 6708W        W10772   3.326   4.196  10.266
 6709W        W10773   0.036   8.421   9.032
 6710W        W10774   7.413  10.183   0.956
 6711W        W10775   3.154   1.852   9.878
 6712W        W10776   8.102   3.095   2.521
 6713W        W10777   6.016   4.574   8.640
 6714W        W10778   4.602   4.086   1.819
 6715W        W10779   0.167   8.960   8.894
 6716W        W10780   4.156   3.253   2.729
 6717W        W10781   2.659   5.695  11.262
 6718W        W10782   7.084  10.477   0.714
 6719W        W10783   2.300   1.184   0.863
 6720W        W10784   3.865   5.438   2.442
 6721W        W10785   4.008   4.138   9.487
 6722W        W10786   9.781   5.925   1.881
 6723W        W10787   3.222  10.227  11.072
 6724W        W10788   0.048   7.588   0.704
 6725W        W10789   4.116   5.953  10.931
 6726W        W10790   6.986   3.369  11.077
 6727W        W10791   1.239   9.959   2.939
 6728W        W10792   7.394  10.418   9.529
 6729W        W10793   2.298   7.486   3.270
 6730W        W10794  10.307   1.243   8.880
 6731W        W10795   5.174   6.039   1.309
 6732W        W10796   8.322   3.076   3.323
 6733W        W10797   9.959   6.951   3.200
 6734W        W10798   7.004   9.981   3.133
 6735W        W10799   4.284   1.686   1.421
 6736W        W10800   6.561   3.557  11.558
 6737W        W10801   1.343  10.019   0.943
 6738W        W10802   3.659   5.763   8.865
 6739W        W10803   9.975   3.365   0.770
 6740W        W10804   4.479   7.914   2.474
 6741W        W10805   6.510   5.699   1.110
 6742W        W10806   0.895   6.197   0.398
 6743W        W10807   0.859   5.976   1.304
 6744W        W10808  10.332   3.986   0.647
 6745W        W10809   6.569   7.036   2.247
 6746W        W10810   9.516  10.255  10.266
 6747W        W10811   9.603   2.348   2.879
 6748W        W10812   6.382   1.798   1.914
 6749W        W10813   2.170   8.968   0.712
 6750W        W10814   5.076   7.192   0.762
 6751W        W10815   3.270   6.090   1.885
 6752W        W10816   7.560  10.073   0.472
 6753W        W10817   0.384   9.424   0.398
 6754W        W10818   6.985   4.257   8.926
 6755W        W10819   5.661   6.002   1.481
 6756W        W10820   9.186   3.302  11.923
 6757W        W10821   6.565   8.647  10.068
 6758W        W10822   4.650   8.486  10.942
 6759W        W10823   9.961   3.813   3.190
 6760W        W10824   5.109   0.856  11.931
 6761W        W10825   0.240   5.849   9.748
 6762W        W10826   5.543   1.168   1.088
 6763W        W10827   4.167   3.548   3.149
 6764W        W10828   2.256   6.701   3.033
 6765W        W10829   7.668   0.867  10.937
 6766W        W10830   6.860   9.450   2.452
 6767W        W10831  10.273   7.932   9.227
 6768W        W10832   2.621   8.813   2.101
 6769W        W10833   8.964   6.679   0.061
 6770W        W10834   1.600   9.017   1.033
 6771W        W10835   8.000   0.444   0.040
 6772W        W10836   2.313   4.717   1.215
 6773W        W10837   2.595   9.861   1.453
 6774W        W10838   6.600   5.392  10.345
 6775W        W10839   7.428   2.735   8.461
 6776W        W10840   8.845   1.776   0.781
 6777W        W10841   1.235   5.443  10.893
 6778W        W10842   5.305   6.497  11.423
 6779W        W10843   2.354   8.665   1.112
 6780W        W10844   5.476   0.407   9.913
 6781W        W10845   8.863   2.579   2.409
 6782W        W10846   6.715   9.026   8.940
 6783W        W10847   5.452   7.130   9.598
 6784W        W10848   0.272   8.520   8.569
 6785W        W10849   8.563   4.268   0.732
 6786W        W10850   8.900   3.093  10.457
 6787W        W10851   5.205   0.857   3.132
 6788W        W10852   7.633   1.260   0.115
 6789W        W10853   7.644   9.157   0.886
 6790W        W10854   5.565   4.341  10.734
 6791W        W10855   9.810   2.889   0.918
 6792W        W10856   1.759  10.234   0.740
 6793W        W10857   2.393   4.667   1.725
 6794W        W10858   6.338   8.343   0.363
 6795W        W10859   0.257   4.565   1.498
 6796W        W10860   5.207   2.906   1.611
 6797W        W10861   6.788   9.523   9.050
 6798W        W10862   3.582   8.636   3.105
 6799W        W10863   1.432   8.608  10.377
 6800W        W10864   8.955   6.652   1.984
 6801W        W10865   1.817   8.599   3.138
 6802W        W10866   5.211   4.154   3.229
 6803W        W10867   8.162   9.518   3.465
 6804W        W10868   6.167   9.851  10.070
 6805W        W10869   7.804   5.914  10.079
 6806W        W10870   4.162   0.872   0.401
 6807W        W10871   9.839   7.461   9.317
 6808W        W10872   4.291   0.411   0.227
 6809W        W10873   7.124   6.033   8.582
 6810W        W10874   1.254   9.853  10.778
 6811W        W10875   9.378   0.574  11.942
 6812W        W10876  10.255   5.785   0.220
 6813W        W10877   1.653   0.828   3.325
 6814W        W10878   2.453   4.611   0.718
 6815W        W10879   5.537   7.958   9.815
 6816W        W10880   5.183   5.656  10.409
 6817W        W10881   4.721   9.135   9.719
 6818W        W10882   8.331   3.276  11.292
 6819W        W10883  10.039  10.443   9.450
 6820W        W10884   6.879   8.967   1.668
 6821W        W10885   3.247   0.193  10.813
 6822W        W10886   4.478   8.080  10.692
 6823W        W10887   6.809   4.281  11.704
 6824W        W10888   9.850   4.806   2.369
 6825W        W10889   5.784   6.150   0.097
 6826W        W10890   5.103   1.392   1.820
 6827W        W10891   3.567   4.654  10.399
 6828W        W10892   5.746   8.428  11.381
 6829W        W10893   4.597   0.994   2.937
 6830W        W10894   0.544   3.297   2.862
 6831W        W10895   0.159   8.892   9.408
 6832W        W10896   4.968   1.691   0.041
 6833W        W10897  10.356   3.270   1.657
 6834W        W10898   8.979   0.968   8.935
 6835W        W10899   6.444   0.332  10.396
 6836W        W10900   3.320   9.599   0.113
 6837W        W10901   9.946   4.157   2.464
 6838W        W10902  10.303   2.276   2.463
 6839W        W10903   1.228   3.076   1.618
 6840W        W10904   2.981   1.737  11.487
 6841W        W10905   5.417   5.681   2.364
 6842W        W10906   8.888   3.692   9.453
 6843W        W10907   0.578   3.232   3.435
 6844W        W10908   3.958   8.930  11.966
 6845W        W10909   9.413   7.042   3.415
 6846W        W10910   6.541   5.441   1.989
 6847W        W10911   7.599   0.582   1.346
 6848W        W10912   5.597   6.991   2.307
 6849W        W10913   7.129   1.311   0.199
 6850W        W10914   5.432  10.396   0.296
 6851W        W10915   8.541  10.248   8.682
 6852W        W10916   8.882   7.177   0.193
 6853W        W10917   4.071   7.131  10.887
 6854W        W10918   8.836   5.097   9.831
 6855W        W10919   3.736   5.076   9.096
 6856W        W10920   0.377   2.239  11.922
 6857W        W10921   7.233   8.821   8.723
 6858W        W10922   0.100   9.353   3.442
 6859W        W10923   0.277   1.723  11.705
 6860W        W10924   1.766   2.115  11.609
 6861W        W10925   7.763   2.344   8.562
 6862W        W10926   4.256   4.041   3.105
 6863W        W10927   3.283  10.277  11.586
 6864W        W10928   7.615   1.635  10.206
 6865W        W10929   9.256   5.098   3.322
 6866W        W10930   9.598   9.997   0.754
 6867W        W10931   0.582   3.323  11.292
 6868W        W10932   1.766   2.627   9.003
 6869W        W10933   4.961   6.079   3.239
 6870W        W10934   9.923   6.786   2.245
 6871W        W10935   2.459   5.562   2.207
 6872W        W10936   5.007   1.722   3.141
 6873W        W10937   6.754   2.587   0.827
 6874W        W10938   5.438   2.205   9.592
 6875W        W10939   6.409   1.160   9.766
 6876W        W10940   7.957   2.281  11.873
 6877W        W10941   1.299   2.848   8.968
 6878W        W10942   1.267   7.353   0.330
 6879W        W10943   4.930   1.880   0.889
 6880W        W10944   0.838   4.260  10.829
 6881W        W10945   7.367   9.140  11.155
 6882W        W10946  10.042   5.244   9.343
 6883W        W10947   4.326   3.121  11.865
 6884W        W10948   3.389   1.303   0.249
 6885W        W10949   9.935   5.365   9.881
 6886W        W10950   7.370   4.111   3.857
 6887W        W10951   6.255   4.038   2.176
 6888W        W10952   2.110   1.906   1.975
 6889W        W10953   0.609   7.522   2.312
 6890W        W10954   6.432   3.339   9.019
 6891W        W10955   9.724   6.832   1.765
 6892W        W10956   5.686   8.868   2.995
 6893W        W10957  10.408   1.390   2.453
 6894W        W10958   0.343   4.202   2.026
 6895W        W10959   3.957   1.772  11.732
 6896W        W10960   0.364   1.775  10.315
 6897W        W10961   6.647   3.747   2.995
 6898W        W10962   8.607   5.547   0.826
 6899W        W10963   8.030   4.758   3.518
 6900W        W10964   7.143   9.427   0.002
 6901W        W10965   1.774   6.145  11.227
 6902W        W10966   2.610   7.944  11.983
 6903W        W10967   8.500   0.911  11.572
 6904W        W10968  10.097   5.499  10.493
 6905W        W10969   8.488   5.663   3.142
 6906W        W10970   3.694   0.237   9.549
 6907W        W10971   6.034   9.458   2.006
 6908W        W10972   0.861   0.653   8.471
 6909W        W10973   0.525  10.301   8.744
 6910W        W10974   9.015   9.316   8.798
 6911W        W10975   6.155   1.370  11.745
 6912W        W10976   0.051   8.510  10.397
 6913W        W10977   6.519   9.825  10.944
 6914W        W10978   2.676   2.634   8.867
 6915W        W10979   7.889   2.948  11.274
 6916W        W10980   0.870   3.534   9.190
 6917W        W10981   6.651   4.477  10.464
 6918W        W10982   2.595   5.138  11.010
 6919W        W10983   8.617   5.562  11.677
 6920W        W10984   4.416   1.320   0.236
 6921W        W10985   5.212   6.224   0.803
 6922W        W10986   6.504  10.030   8.220
 6923W        W10987   4.263   5.656   2.749
 6924W        W10988   9.959   7.989  10.123
 6925W        W10989   2.412   7.740   0.719
 6926W        W10990   9.009   3.633   1.183
 6927W        W10991   7.369   5.409  11.823
 6928W        W10992   8.325   3.663  11.840
 6929W        W10993   6.481   7.121   9.592
 6930W        W10994   9.948   7.081   0.098
 6931W        W10995   3.806   5.565   2.959
 6932W        W10996  10.481   0.904  11.893
 6933W        W10997   7.615  10.283   2.967
 6934W        W10998   5.110  10.448   3.349
 6935W        W10999   9.528   4.245   1.238
 6936W        W11000   7.537   4.663   3.190
 6937W        W11001   3.210  10.329   2.432
 6938W        W11002   6.899   3.137   3.704
 6939W        W11003   9.375   8.348  10.982
 6940W        W11004   8.058   7.155   3.160
 6941W        W11005   7.481   7.861   9.363
 6942W        W11006   8.454   3.332   2.832
 6943W        W11007   4.616   3.556   2.081
 6944W        W11008   6.438   4.924  10.444
 6945W        W11009   7.566   1.437   1.516
 6946W        W11010   6.043   4.585   0.562
 6947W        W11011   3.840   7.283   2.852
 6948W        W11012   8.584   0.675   1.718
 6949W        W11013   8.513   1.413  11.390
 6950W        W11014   1.247   4.708   1.354
 6951W        W11015   7.485   7.749  11.903
 6952W        W11016  10.334   2.705   9.137
 6953W        W11017   7.943   9.920   2.793
 6954W        W11018   4.490   6.609   2.198
 6955W        W11019   0.826   4.717   0.858
 6956W        W11020   7.059   4.730  11.554
 6957W        W11021   5.193   2.228  10.592
 6958W        W11022   1.697   4.709   0.447
 6959W        W11023   8.552  10.218   1.272
 6960W        W11024   0.127   8.022   0.996
 6961W        W11025   4.633   7.425  10.319
 6962W        W11026   8.432   9.022  11.531
 6963W        W11027   7.211   9.201   9.057
 6964W        W11028   6.282   6.102   9.963
 6965W        W11029   9.861  10.446   8.939
 6966W        W11030   5.945   1.908   0.606
 6967W        W11031   2.766   2.734   0.478
 6968W        W11032   0.276   5.117   2.158
 6969W        W11033   4.013   9.081   1.876
 6970W        W11034   1.874   5.098   1.659
 6971W        W11035   9.027   4.088   0.924
 6972W        W11036   0.409   5.605   0.517
 6973W        W11037   6.700   4.284   3.272
 6974W        W11038  10.454   7.891   3.511
 6975W        W11039   1.984   1.722  10.116
 6976W        W11040   7.594   0.713   3.088
 6977W        W11041   7.575   2.075   3.657
 6978W        W11042   1.217   8.638  11.691
 6979W        W11043   2.790   5.305  10.008
 6980W        W11044   2.373   2.740   3.543
 6981W        W11045  10.321   2.156   1.445
 6982W        W11046   6.004   1.724   8.651
 6983W        W11047   9.371   8.595   1.113
 6984W        W11048   0.761   3.721   0.796
 6985W        W11049   4.199   7.444   1.554
 6986W        W11050   6.322   4.664   0.136
 6987W        W11051   3.543   1.954   9.520
 6988W        W11052   3.153   6.430   3.994
 6989W        W11053   8.581   4.844   2.744
 6990W        W11054   9.349   0.167   8.996
 6991W        W11055   3.642   4.160   1.619
 6992W        W11056   1.601   4.208   0.779
 6993W        W11057   3.399   7.416   9.226
 6994W        W11058   9.881   9.069   9.446
 6995W        W11059   5.650   4.538   0.893
 6996W        W11060   2.240   4.695  10.349
 6997W        W11061  10.028   2.114  10.660
 6998W        W11062   9.243   9.851  11.798
 6999W        W11063   5.105  10.042   0.504
 7000W        W11064   1.207   0.339   2.539
 7001W        W11065   7.478   0.984  11.461
 7002W        W11066   9.969   2.283  11.171
 7003W        W11067   3.377   1.823  10.361
 7004W        W11068   8.005   4.797   9.983
 7005W        W11069   9.318   7.575   2.882
 7006W        W11070   6.410   0.377   2.929
 7007W        W11071   1.722   4.888   9.420
 7008W        W11072   3.704   1.498   9.378
 7009W        W11073   9.930   8.062   0.443
 7010W        W11074   8.838   1.006   0.388
 7011W        W11075   5.506   7.188  10.470
 7012W        W11076   2.390   9.439   0.684
 7013W        W11077   3.845   4.233  10.415
 7014W        W11078   4.803   4.262   2.265
 7015W        W11079   4.605   2.417   0.153
 7016W        W11080   8.422   5.562   0.141
 7017W        W11081   3.652  10.050  11.295
 7018W        W11082   9.067   4.784  11.334
 7019W        W11083   9.643   7.079   9.924
 7020W        W11084   4.636   8.633   8.964
 7021W        W11085   4.802   4.033  10.327
 7022W        W11086   1.956   0.786   9.008
 7023W        W11087   8.434  10.042   2.670
 7024W        W11088  10.048   5.622   3.651
 7025W        W11089   5.214   2.207   3.175
 7026W        W11090   6.917   5.543   0.035
 7027W        W11091   2.233   0.042   9.036
 7028W        W11092   8.154   5.160   2.576
 7029W        W11093   8.310   0.598  10.384
 7030W        W11094  10.005   5.235   8.824
 7031W        W11095   9.191   9.047  10.368
 7032W        W11096  10.038   4.586   2.788
 7033W        W11097   9.017   4.670  10.144
 7034W        W11098   5.779   4.812   1.299
 7035W        W11099   7.211   6.363   3.303
 7036W        W11100   1.680   3.593   9.804
 7037W        W11101   7.602   4.871   2.225
 7038W        W11102   3.707   1.816   8.984
 7039W        W11103   8.609   5.368   2.684
 7040W        W11104   4.078   9.965   3.157
 7041W        W11105   4.242   2.914   1.482
 7042W        W11106   7.143   4.486   3.464
 7043W        W11107   6.947   6.939  11.500
 7044W        W11108   9.788   4.505   0.240
 7045W        W11109   6.651   4.132   1.830
 7046W        W11110   2.634   6.814  10.858
 7047W        W11111   6.883   9.589   0.382
 7048W        W11112   1.663   3.487   8.505
 7049W        W11113  10.306   3.977   8.266
 7050W        W11114   5.466   9.500   8.962
 7051W        W11115   8.940   7.562   9.746
 7052W        W11116   1.304   3.831   0.072
 7053W        W11117   1.066   4.710   8.496
 7054W        W11118   4.549   3.596   9.076
 7055W        W11119   5.537   1.594   8.517
 7056W        W11120   0.868   7.941  10.091
 7057W        W11121  10.456  10.490  11.829
 7058W        W11122   1.432   2.263   1.379
 7059W        W11123   7.363   9.428   2.287
 7060W        W11124   5.538   6.705  11.956
 7061W        W11125   8.847   2.407   0.069
 7062W        W11126   6.452   3.081   8.542
 7063W        W11127   8.934   0.683  11.742
 7064W        W11128   0.302   4.488  11.476
 7065W        W11129   4.711   6.678   8.575
 7066W        W11130   6.711   6.767   9.304
 7067W        W11131   0.580   1.171   0.309
 7068W        W11132   9.255   2.415  11.784
 7069W        W11133   5.298   1.853  11.667
 7070W        W11134   1.179   1.796  11.863
 7071W        W11135  10.454   4.289   9.588
 7072W        W11136   1.019   3.292   2.411
 7073W        W11137   2.706   7.911   1.472
 7074W        W11138   3.276   6.044   9.063
 7075W        W11139   9.826   2.227   2.201
 7076W        W11140   4.249   2.206   1.496
 7077W        W11141   6.512   6.295   1.689
 7078W        W11142   3.091   6.563   2.013
 7079W        W11143   5.452   6.483   2.661
 7080W        W11144   0.804   9.780   3.143
 7081W        W11145   2.825   0.211   3.577
 7082W        W11146   7.885   2.051   0.953
 7083W        W11147   0.512   6.710   1.008
 7084W        W11148   2.190   1.264  10.484
 7085W        W11149   8.447   0.525   1.112
 7086W        W11150   7.889   1.846   1.719
 7087W        W11151   6.461   5.932   2.071
 7088W        W11152   6.686  10.375   2.875
 7089W        W11153   7.001   6.383   2.760
 7090W        W11154   4.288   2.146  11.872
 7091W        W11155   6.488   9.311   1.801
 7092W        W11156   6.098   2.733   2.728
 7093W        W11157   0.704   8.571  11.589
 7094W        W11158   2.285   7.211   1.446
 7095W        W11159   4.155  10.027  11.242
 7096W        W11160  10.307   6.425   2.305
 7097W        W11161  10.313   1.795  11.549
 7098W        W11162   9.280   4.209  10.075
 7099W        W11163   1.312   6.935  11.057
 7100W        W11164   3.738   7.489  10.524
 7101W        W11165   1.315   1.573  11.421
 7102W        W11166   9.574   0.037  11.219
 7103W        W11167   1.140   1.706  10.957
 7104W        W11168   0.369   3.265   1.759
 7105W        W11169   6.531   4.657   0.827
 7106W        W11170   0.031   9.105   0.167
 7107W        W11171   1.820   3.154   1.186
 7108W        W11172   9.877   7.479  10.844
 7109W        W11173   1.440   9.815   0.445
 7110W        W11174   1.607   4.316   1.912
 7111W        W11175   4.669   1.018   1.173
 7112W        W11176   6.878   6.647   1.310
 7113W        W11177   2.823   7.001  10.407
 7114W        W11178   3.549   6.994   9.605
 7115W        W11179   5.110   0.569   1.484
 7116W        W11180   1.990   4.272   0.440
 7117W        W11181   2.791   9.370   9.363
 7118W        W11182   9.175   8.795   3.476
 7119W        W11183   8.369   7.638   8.972
 7120W        W11184   4.055   7.007   9.576
 7121W        W11185   4.319   6.292   4.146
 7122W        W11186   0.816   0.387   1.852
 7123W        W11187   9.467   2.455   0.858
 7124W        W11188   9.853   5.043   1.526
 7125W        W11189   2.539   7.816   9.980
 7126W        W11190  10.205   0.517   3.064
 7127W        W11191   2.849   0.214   1.735
 7128W        W11192   3.350   4.750  11.028
 7129W        W11193   3.579   6.216   8.628
 7130W        W11194   9.544   2.506  11.009
 7131W        W11195   9.661   8.691   2.825
 7132W        W11196   5.520   9.372   9.480
 7133W        W11197   8.452   8.543   9.951
 7134W        W11198   7.860   5.410   8.872
 7135W        W11199   6.987   2.683   2.232
 7136W        W11200   2.603   1.818   2.676
 7137W        W11201   9.776   7.540  11.431
 7138W        W11202   6.914   3.529   9.231
 7139W        W11203   2.287   3.477  10.671
 7140W        W11204   9.192   9.142   0.457
 7141W        W11205   6.577  10.492   8.901
 7142W        W11206   9.024   2.048  10.857
 7143W        W11207   0.929   7.117  11.397
 7144W        W11208   1.422   5.618   3.282
 7145W        W11209   0.372   2.909   9.315
 7146W        W11210  10.306   5.999  10.480
 7147W        W11211   9.150   5.164   9.435
 7148W        W11212   0.521   3.239   2.325
 7149W        W11213   7.467   2.217  11.726
 7150W        W11214   0.247   1.490   3.425
 7151W        W11215  10.265   4.232  10.928
 7152W        W11216  10.385   2.909   9.622
 7153W        W11217   5.464   7.858   0.270
 7154W        W11218   4.769   7.353   1.290
 7155W        W11219   4.623   2.841   0.443
 7156W        W11220   2.383   7.418  11.229
 7157W        W11221   9.307  10.047   2.798
 7158W        W11222   6.605   5.237   3.600
 7159W        W11223   3.598   0.245   3.519
 7160W        W11224   6.200   5.734  10.374
 7161W        W11225   2.594   0.193   0.011
 7162W        W11226   1.451   4.903   1.827
 7163W        W11227   1.884   8.908   9.814
 7164W        W11228  10.249   1.095  10.984
 7165W        W11229   4.288   4.715   0.948
 7166W        W11230   1.804  10.387  11.154
 7167W        W11231   0.387   6.145   0.639
 7168W        W11232   6.781   1.674   0.907
 7169W        W11233   0.911   3.859  11.741
 7170W        W11234   6.184   3.334   8.092
 7171W        W11235   3.586   6.632   0.207
 7172W        W11236   6.988   5.018   9.377
 7173W        W11237   7.353   9.497  11.542
 7174W        W11238   4.651   9.620   1.042
 7175W        W11239   2.612   4.714  10.730
 7176W        W11240   5.461   7.052   3.980
 7177W        W11241   9.684   7.609   2.146
 7178W        W11242   9.721   3.001  11.341
 7179W        W11243   6.229   5.275   1.277
 7180W        W11244   0.331   3.168  10.309
 7181W        W11245   0.426   8.461   9.428
 7182W        W11246   3.810   8.445   2.342
 7183W        W11247   9.590   8.751   2.155
 7184W        W11248   8.354   2.292  11.490
 7185W        W11249   0.173   2.152   9.998
 7186W        W11250   4.969   0.385   9.147
 7187W        W11251   5.109   7.695   0.637
 7188W        W11252  10.043  10.276   0.803
 7189W        W11253   2.305   6.448  10.721
 7190W        W11254   4.985   5.339   1.629
 7191W        W11255   9.483   1.386   1.325
 7192W        W11256   1.901   4.428  11.474
 7193W        W11257   7.712   6.662  11.361
 7194W        W11258   6.688   5.276   3.109
 7195W        W11259   1.260   5.910   1.957
 7196W        W11260   7.117   4.016   3.062
 7197W        W11261   1.822   6.163   0.252
 7198W        W11262   7.575   7.302   2.365
 7199W        W11263   5.528   9.428  10.483
 7200W        W11264   2.696   6.401   2.309
 7201W        W11265   4.067   9.047   0.492
 7202W        W11266   6.102   2.380   0.744
 7203W        W11267   0.796   8.085   2.250
 7204W        W11268   3.194   6.511   8.828
 7205W        W11269   1.711   8.830   8.916
 7206W        W11270   1.322   5.206  10.426
 7207W        W11271   5.589   2.831   2.850
 7208W        W11272   3.221   1.855   0.496
 7209W        W11273   1.618   6.962   1.905
 7210W        W11274   6.209   3.029   9.360
 7211W        W11275   4.895   8.046   3.576
 7212W        W11276   7.524   9.559   9.254
 7213W        W11277   6.665   1.698   2.356
 7214W        W11278   2.796   2.835   9.867
 7215W        W11279  10.258   2.812  10.544
 7216W        W11280   1.784   6.913  11.255
 7217W        W11281   5.945   8.100  11.013
 7218W        W11282   4.141   5.757   2.129
 7219W        W11283   9.986   7.570   1.313
 7220W        W11284   0.810   9.415  10.042
 7221W        W11285   4.191   5.592  11.260
 7222W        W11286   1.342   8.160  11.558
 7223W        W11287   8.609   3.749   1.464
 7224W        W11288   6.887   0.910   0.397
 7225W        W11289   4.729   5.403  10.425
 7226W        W11290   9.851   8.046   2.322
 7227W        W11291   7.083  10.405   8.681
 7228W        W11292   8.126   8.198  11.326
 7229W        W11293   3.031   2.361  10.024
 7230W        W11294   7.589   6.871  10.894
 7231W        W11295   4.095   4.271   9.973
 7232W        W11296  10.290   6.226   0.483
 7233W        W11297   6.393   9.697   2.563
 7234W        W11298   5.045   9.576  11.754
 7235W        W11299   8.636   4.435   2.415
 7236W        W11300   1.619   7.254   2.737
 7237W        W11301   7.578   7.012   3.290
 7238W        W11302   9.399   5.187   1.263
 7239W        W11303   8.301   9.176   2.360
 7240W        W11304   0.323   8.173  11.586
 7241W        W11305   9.900   1.745   3.458
 7242W        W11306   8.433   8.329   2.282
 7243W        W11307   6.915   4.651   8.598
 7244W        W11308   0.595   7.198   1.046
 7245W        W11309   0.784  10.436  10.974
 7246W        W11310   4.206   9.337   2.286
 7247W        W11311   6.518   2.138   0.905
 7248W        W11312   0.792   6.988  10.273
 7249W        W11313   2.849   5.893   3.931
 7250W        W11314   4.077   6.628  11.426
 7251W        W11315   5.951   6.918  10.502
 7252W        W11316   8.394   8.576   9.430
 7253W        W11317   9.422   0.669   9.020
 7254W        W11318   8.102   5.174   0.328
 7255W        W11319   4.786   4.185   0.275
 7256W        W11320   9.874   0.868  10.294
 7257W        W11321   2.903   6.635   9.503
 7258W        W11322   6.856   5.921   0.370
 7259W        W11323  10.428   6.583   1.747
 7260W        W11324   7.378   4.473   9.866
 7261W        W11325   7.936   3.208   2.991
 7262W        W11326   1.388   4.701   0.029
 7263W        W11327   6.278   0.420   1.076
 7264W        W11328   3.123   0.850  10.177
 7265W        W11329   9.503   8.051   1.610
 7266W        W11330   2.110   4.995   0.611
 7267W        W11331   4.197   9.396  11.884
 7268W        W11332   2.807   6.967   0.936
 7269W        W11333   2.736   3.846  11.433
 7270W        W11334   1.705  10.332   9.719
 7271W        W11335   0.889   5.510   8.632
 7272W        W11336   5.982   6.884   3.329
 7273W        W11337   7.419   7.575   0.406
 7274W        W11338   5.212   0.542   2.282
 7275W        W11339   3.278   9.685  11.137
 7276W        W11340   9.244   7.068  10.343
 7277W        W11341   4.979   5.575   0.278
 7278W        W11342   1.774   1.398  11.256
 7279W        W11343   0.563   5.175   8.901
 7280W        W11344   5.741   9.411   0.928
 7281W        W11345   5.036   6.987  11.381
 7282W        W11346   0.888   9.896   1.688
 7283W        W11347   1.680   9.782   8.999
 7284W        W11348   8.977   6.624   9.545
 7285W        W11349   9.906   2.668  11.959
 7286W        W11350   7.959   8.344   8.584
 7287W        W11351   1.961   5.676   2.290
 7288W        W11352   7.844   7.508   9.209
 7289W        W11353   5.483   5.725   9.028
 7290W        W11354   0.307   3.558   9.973
 7291W        W11355  10.361   6.604  11.842
 7292W        W11356   3.334   3.064  11.993
 7293W        W11357   4.557   7.690   9.906
 7294W        W11358   8.420   2.113  11.975
 7295W        W11359   6.540   7.513  10.604
 7296W        W11360   2.825   2.383   2.887
 7297W        W11361   7.539   2.005   9.841
 7298W        W11362   3.636   5.016   9.601
 7299W        W11363   9.385   7.868   2.467
 7300W        W11364   5.944   8.656   0.327
 7301W        W11365   3.587   3.823   9.405
 7302W        W11366   0.269   6.540   2.135
 7303W        W11367   2.360   5.129   9.300
 7304W        W11368   9.793   8.060   1.199
 7305W        W11369   9.353  10.159   8.880
 7306W        W11370   7.367   1.769  11.967
 7307W        W11371   1.497   3.188   2.990
 7308W        W11372   0.783  10.303  10.090
 7309W        W11373   0.860   7.713   3.572
 7310W        W11374   1.276   1.297   9.064
 7311W        W11375   8.064   0.290   9.056
 7312W        W11376   5.088   0.762   0.996
 7313ION    NA+11377   6.455   4.850   8.718
 7314ION    NA+11378   1.830  10.063   2.200
 7315ION    NA+11379   7.770   7.063  11.706
 7316ION    NA+11380   9.063   5.979   1.330
 7317ION    NA+11381   5.502   3.586   9.494
 7318ION    NA+11382   7.896   4.750   0.136
 7319ION    NA+11383   5.519   4.063   0.965
 7320ION    NA+11384   6.213   1.434  10.730
 7321ION    NA+11385   2.610   8.325   9.849
 7322ION    NA+11386   2.744   4.606  10.251
 7323ION    NA+11387   1.499   2.355  10.628
 7324ION    NA+11388  10.110   4.991  11.448
 7325ION    NA+11389   2.671   0.353  10.295
 7326ION    NA+11390   0.624   9.096   9.426
 7327ION    NA+11391   5.139   4.609   2.629
 7328ION    NA+11392   4.197   8.553   0.232
 7329ION    NA+11393   7.467   4.367   2.318
 7330ION    NA+11394   1.125   7.623   2.293
 7331ION    NA+11395   8.845   0.613   9.615
 7332ION    NA+11396   3.714   2.631  10.075
 7333ION    NA+11397   7.334   1.316   1.944
 7334ION    NA+11398   4.998   3.256   0.662
 7335ION    NA+11399   4.217   5.405   0.511
 7336ION    NA+11400   0.625   8.409  11.104
 7337ION    NA+11401   0.656   2.728   1.089
 7338ION    NA+11402   8.292   1.532   1.758
 7339ION    NA+11403   0.798   2.706   9.764
 7340ION    NA+11404   1.513   2.730   0.016
 7341ION    NA+11405   7.104   9.073   9.877
 7342ION    NA+11406   8.446   6.194   3.076
 7343ION    NA+11407   2.936   9.499   2.733
 7344ION    NA+11408   8.917   9.134   2.647
 7345ION    NA+11409   2.395   2.139  11.017
 7346ION    NA+11410   0.931   5.164  11.985
 7347ION    NA+11411   9.657   2.105  11.842
 7348ION    NA+11412   7.062   7.191   0.373
 7349ION    NA+11413   2.321   1.249   9.947
 7350ION    NA+11414   4.986   4.087  11.776
 7351ION    NA+11415   6.537   7.777   9.049
 7352ION    NA+11416   8.637   8.245  11.405
 7353ION    NA+11417   2.702   6.477   0.338
 7354ION    NA+11418   1.659   5.181   2.692
 7355ION    NA+11419   5.152   8.235   0.943
 7356ION    NA+11420   5.644   6.086  11.208
 7357ION    NA+11421   3.066   7.115   9.504
 7358ION    NA+11422   6.704   9.161   3.237
 7359ION    NA+11423   1.698   7.130  10.789
 7360ION    NA+11424   0.010   1.638   9.167
 7361ION    NA+11425   1.413   8.298   0.560
 7362ION    NA+11426   7.899   8.740   9.370
 7363ION    NA+11427   8.365   9.048  10.874
 7364ION    NA+11428   4.402   1.507  11.413
 7365ION    NA+11429   3.124   2.881  11.288
 7366ION    NA+11430   3.810   3.877   0.658
 7367ION    NA+11431   7.672   7.863   1.461
 7368ION    NA+11432   9.039   5.110   2.791
 7369ION    NA+11433   6.647   1.692   3.168
 7370ION    NA+11434   3.454   8.387  11.449
 7371ION    NA+11435   9.859   9.509   1.248
 7372ION    NA+11436   7.061   3.115   2.536
 7373ION    NA+11437   6.200   2.548   1.231
 7374ION    NA+11438   3.992   2.264   0.932
 7375ION    NA+11439   5.978   9.647   9.611
 7376ION    NA+11440   9.959   9.831  11.389
 7377ION    NA+11441   9.026  10.334  10.435
 7378ION    NA+11442   1.186   9.117   0.758
 7379ION    NA+11443   8.545   6.997   3.015
 7380ION    NA+11444   3.730   1.665   3.024
 7381ION    NA+11445   6.005   6.988   8.716
 7382ION    NA+11446   6.578   0.719   0.781
 7383ION    NA+11447   8.463   6.863   0.221
 7384ION    NA+11448   7.086   6.450  11.702
 7385ION    NA+11449   1.396   4.457   8.927
 7386ION    NA+11450   1.652   0.360  10.341
 7387ION    NA+11451   2.979   3.944   0.316
 7388ION    NA+11452   2.082   0.190  11.634
 7389ION    NA+11453   3.864  10.133   0.457
 7390ION    CL-11454   5.823   5.589   2.671
 7391ION    CL-11455   8.195   9.862   1.351
 7392ION    CL-11456   6.204   0.549   0.598
 7393ION    CL-11457   6.573   1.698  10.777
 7394ION    CL-11458   7.501   7.273   9.525
 7395ION    CL-11459  10.172   8.336   0.955
 7396ION    CL-11460   4.074   5.275   9.430
 7397ION    CL-11461   1.566   7.672   2.353
 7398ION    CL-11462   1.919   5.502  10.030
 7399ION    CL-11463   9.426   7.613   3.441
 7400ION    CL-11464   5.538   2.623  11.363
 7401ION    CL-11465   2.826   9.888   8.364
 7402ION    CL-11466   4.109   6.395  10.084
 7403ION    CL-11467   2.457   4.119   3.038
 7404ION    CL-11468   1.190   8.696   0.586
 7405ION    CL-11469  10.466   5.183   9.597
 7406ION    CL-11470   9.167   9.495   2.558
 7407ION    CL-11471   2.189   8.422   3.440
 7408ION    CL-11472  10.231   7.897   0.058
 7409ION    CL-11473   0.284   1.598   0.218
 7410ION    CL-11474   7.803   7.425   1.453
 7411ION    CL-11475   7.683   8.349   9.333
 7412ION    CL-11476   2.905   2.917  11.676
 7413ION    CL-11477   4.246   5.260   0.087
 7414ION    CL-11478   0.622   8.800   9.092
 7415ION    CL-11479   1.956   6.472   1.613
 7416ION    CL-11480   7.874   6.395   9.120
 7417ION    CL-11481   7.374   6.797  11.774
 7418ION    CL-11482   5.486   7.383  11.339
 7419ION    CL-11483   2.730   2.395   3.414
 7420ION    CL-11484   0.981   4.789  11.749
 7421ION    CL-11485   0.291   3.942   0.873
 7422ION    CL-11486   8.674   6.565   2.936
 7423ION    CL-11487   1.063   8.484  11.211
 7424ION    CL-11488  10.204  10.008  11.733
 7425ION    CL-11489   7.248   6.268   1.336
 7426ION    CL-11490   9.696   6.160   3.674
 7427ION    CL-11491   3.898   1.914   1.192
 7428ION    CL-11492   2.953   3.258   2.927
 7429ION    CL-11493   6.229   4.731   9.084
 7430ION    CL-11494   4.480   1.668  11.822
 7431ION    CL-11495   1.910   0.594  11.729
 7432ION    CL-11496   7.839   2.167  10.984
 7433ION    CL-11497   9.842   8.009   9.535
 7434ION    CL-11498   9.712   9.605  11.078
 7435ION    CL-11499   6.506   9.282   2.846
 7436ION    CL-11500  10.067   2.213  11.704
 7437ION    CL-11501   3.412   3.869   0.437
 7438ION    CL-11502   2.128   3.755   2.138
 7439ION    CL-11503   8.863   7.926  11.622
 7440ION    CL-11504   3.707   1.454   2.626
 7441ION    CL-11505  10.371   3.745  10.815
 7442ION    CL-11506   7.352   8.157   1.325
 7443ION    CL-11507   6.748   1.281   9.422
 7444ION    CL-11508   4.143   4.803   1.784
 7445ION    CL-11509   9.306   5.907   1.696
 7446ION    CL-11510   0.242   8.162  11.086
 7447ION    CL-11511   6.315   6.624   1.285
 7448ION    CL-11512   8.646   0.918   9.872
 7449ION    CL-11513   8.807   3.100  11.493
 7450ION    CL-11514   9.366   0.787  11.415
 7451ION    CL-11515   4.798   8.418   9.421
 7452ION    CL-11516   0.041   0.344   0.195
 7453ION    CL-11517   5.091   4.487  11.976
 7454ION    CL-11518   3.802  10.043   9.130
 7455ION    CL-11519   1.300   4.272   2.358
 7456ION    CL-11520   8.160   7.083  11.962
 7457ION    CL-11521   8.971   1.757   3.291
 7458ION    CL-11522   3.252   7.579  10.743
 7459ION    CL-11523   9.570   6.684  10.257
 7460ION    CL-11524   4.454   8.908   0.153
 7461ION    CL-11525   7.700   5.955   2.171
 7462ION    CL-11526   1.496   4.192  10.514
 7463ION    CL-11527   0.708   6.573   2.440
 7464ION    CL-11528   8.361   5.551   8.896
 7465ION    CL-11529  10.201   4.143   8.733
 7466ION    CL-11530   5.074   3.722  11.515
  10.50000  10.50000  12.00000
