Protein in INSANE! Membrane UpperLeaflet>POPC=1.0 LowerLeaflet>POPC=1.0
10365
    1AU     AUC    1   3.671   4.232   6.259  0.0138 -0.1033  0.0713
    1AU     AUC    2   3.944   4.126   6.115  0.0048  0.0239 -0.0777
    1AU     AUC    3   3.745   4.425   6.012 -0.0011 -0.0923 -0.0045
    1AU     AUC    4   3.607   4.056   6.512 -0.1058 -0.0652 -0.0952
    1AU     AUC    5   3.407   4.332   6.443 -0.0390 -0.0377 -0.0491
    1AU     AUC    6   3.421   4.043   6.226  0.1150  0.1118  0.0547
    1AU     AUC    7   3.658   4.105   5.960  0.0438  0.0195  0.0446
    1AU     AUC    8   3.730   4.380   6.579 -0.0128 -0.0912  0.0175
    1AU     AUC    9   3.951   4.444   6.287 -0.0405  0.0603 -0.0371
    1AU     AUC   10   3.639   4.553   6.303 -0.0319  0.0229  0.0475
    1AU     AUC   11   3.443   4.355   6.087 -0.1273 -0.0604 -0.0469
    1AU     AUC   12   3.919   4.110   6.443 -0.0819  0.0280 -0.0487
    1AU     AUC   13   3.762   3.899   6.228 -0.0690 -0.0176 -0.0441
    1AU     AUC   14   4.234   4.079   5.940 -0.0638  0.0158  0.0761
    1AU     AUC   15   4.057   4.374   5.833 -0.0194  0.0410 -0.1573
    1AU     AUC   16   3.846   4.659   5.755 -0.0441  0.0078 -0.0038
    1AU     AUC   17   3.465   3.886   6.785  0.0854  0.0136 -0.0787
    1AU     AUC   18   3.297   4.122   6.732 -0.1105  0.0281  0.0351
    1AU     AUC   19   3.141   4.359   6.588  0.0987 -0.0029  0.0447
    1AU     AUC   20   3.184   3.796   6.144  0.0156 -0.0364  0.0146
    1AU     AUC   21   3.384   3.866   5.865  0.1187 -0.0181 -0.1330
    1AU     AUC   22   3.628   3.954   5.644  0.0525  0.0172  0.0029
    1AU     AUC   23   3.769   4.551   6.888 -0.0768 -0.0723  0.0181
    1AU     AUC   24   4.036   4.606   6.625 -0.0063  0.0185 -0.0307
    1AU     AUC   25   4.236   4.668   6.322  0.0773 -0.0095  0.0859
    1AU     AUC   26   3.552   4.915   6.328  0.0020 -0.0129 -0.0045
    1AU     AUC   27   3.325   4.737   6.127  0.0163 -0.0280  0.0815
    1AU     AUC   28   3.197   4.487   5.885  0.0199 -0.0597  0.0182
    1AU     AUC   29   4.192   3.995   6.646 -0.0135  0.0322 -0.0127
    1AU     AUC   30   4.006   3.751   6.496  0.0401  0.0259  0.0712
    1AU     AUC   31   3.834   3.573   6.257 -0.0124 -0.0009 -0.0093
    1AU     AUC   32   3.663   4.800   6.046  0.0245 -0.0052 -0.0544
    1AU     AUC   33   3.528   4.608   5.817  0.0468 -0.0678  0.1160
    1AU     AUC   34   4.227   3.965   6.266  0.0358 -0.0178 -0.0205
    1AU     AUC   35   4.046   3.790   6.092  0.0935 -0.0387 -0.0315
    1AU     AUC   36   3.321   4.656   6.465 -0.0539 -0.0007  0.0936
    1AU     AUC   37   3.135   4.430   6.238  0.0249  0.0123 -0.0154
    1AU     AUC   38   3.848   3.915   6.764 -0.0088  0.1122  0.1187
    1AU     AUC   39   3.652   3.699   6.538  0.1195 -0.0114  0.0609
    1AU     AUC   40   3.939   4.012   5.742  0.0440  0.0527 -0.0660
    1AU     AUC   41   3.732   4.311   5.675 -0.0180  0.1188 -0.0692
    1AU     AUC   42   3.320   3.803   6.476 -0.0438 -0.0806  0.0487
    1AU     AUC   43   3.124   4.079   6.360 -0.0110  0.0430 -0.0581
    1AU     AUC   44   4.233   4.381   6.090 -0.0840  0.0094 -0.0197
    1AU     AUC   45   4.030   4.692   6.044  0.0169  0.0166 -0.0748
    1AU     AUC   46   3.622   4.227   6.859 -0.0194 -0.0645 -0.0257
    1AU     AUC   47   3.430   4.481   6.784 -0.0478 -0.1180  0.0455
    1AU     AUC   48   3.142   4.118   5.976  0.0188 -0.0077 -0.0516
    1AU     AUC   49   3.421   4.235   5.771 -0.0689  0.0200 -0.0016
    1AU     AUC   50   3.678   4.730   6.637  0.0007  0.0571  0.0497
    1AU     AUC   51   3.911   4.820   6.372 -0.0411 -0.0836  0.0316
    1AU     AUC   52   3.501   3.689   6.172 -0.0780 -0.0351  0.0091
    1AU     AUC   53   3.748   3.722   5.920  0.0586  0.0784  0.0149
    1AU     AUC   54   4.034   4.289   6.764  0.0100  0.0363 -0.0326
    1AU     AUC   55   4.219   4.333   6.458 -0.0172  0.0603  0.0040
    1AU    AUSL   56   3.635   5.017   5.747 -0.0839 -0.0105 -0.0661
    1AU    AUSL   57   3.752   5.129   6.170  0.0471 -0.0045 -0.0250
    1AU     AUL   58   3.816   5.263   5.860 -0.0198  0.0854  0.0907
    1AU       S   59   4.176   5.463   6.085  0.1914  0.2673 -0.1294
    1AU     LIG   60   4.448   5.772   6.027  0.1270 -0.1895  0.2398
    1AU     LIG   61   4.513   6.157   6.148  0.1800  0.3387  0.1414
    1AU     LIG   62   4.345   6.415   6.272 -0.3740  0.0111 -0.2573
    1AU       S   63   3.344   5.323   5.741  0.3278  0.2605  0.0449
    1AU     LIG   64   3.535   5.576   5.543 -0.0798 -0.2443  0.0062
    1AU     LIG   65   3.953   5.701   5.717  0.0009  0.3192  0.0285
    1AU     LIG   66   4.394   5.630   5.566 -0.1422  0.1721 -0.0652
    1AU    AUSL   67   3.343   5.032   6.095 -0.0324  0.0012 -0.0663
    1AU    AUSL   68   2.973   4.781   6.054 -0.0560  0.0199 -0.0692
    1AU     AUL   69   2.916   5.126   6.007  0.0541  0.0360  0.0100
    1AU       S   70   3.352   5.267   6.026  0.1006  0.0371  0.2927
    1AU     LIG   71   3.507   5.620   6.102  0.2647  0.3629 -0.1218
    1AU     LIG   72   3.822   5.806   6.239  0.0611 -0.0663  0.0465
    1AU     LIG   73   4.140   5.912   6.474 -0.1741 -0.2803  0.0585
    1AU       S   74   2.642   5.051   6.371  0.3561  0.2489 -0.0403
    1AU     LIG   75   2.504   5.442   6.281 -0.1644 -0.3150  0.3253
    1AU     LIG   76   2.626   5.828   6.486 -0.1633 -0.0040 -0.2274
    1AU     LIG   77   2.814   6.069   6.792 -0.5224 -0.4208  0.2719
    1AU    AUSL   78   3.233   4.851   5.715  0.0146 -0.0040  0.0060
    1AU    AUSL   79   3.602   4.682   5.458  0.0130  0.0029 -0.0385
    1AU     AUL   80   3.556   5.026   5.428  0.0662  0.1055  0.0245
    1AU       S   81   3.145   5.013   5.610 -0.0713 -0.4316 -0.0819
    1AU     LIG   82   2.767   4.856   5.605  0.1909 -0.0824  0.2347
    1AU     LIG   83   2.463   4.601   5.301  0.3923 -0.0633 -0.0523
    1AU     LIG   84   1.991   4.645   5.250 -0.2540 -0.0283 -0.0020
    1AU       S   85   3.306   4.663   5.252  0.0242 -0.2888 -0.3078
    1AU     LIG   86   2.887   4.997   5.185  0.0088 -0.0303  0.0185
    1AU     LIG   87   2.692   5.336   5.546  0.1506 -0.0124 -0.0974
    1AU     LIG   88   2.362   5.470   5.796 -0.2354 -0.1414  0.1643
    1AU    AUSL   89   4.371   3.710   6.130 -0.0206  0.0491 -0.0324
    1AU    AUSL   90   4.048   3.461   5.962  0.0031  0.0292  0.0100
    1AU     AUL   91   4.459   3.455   6.015  0.0280 -0.0232  0.0326
    1AU       S   92   4.524   3.274   6.443  0.1040  0.5062  0.2994
    1AU     LIG   93   4.700   2.766   6.531  0.0399 -0.2769 -0.3119
    1AU     LIG   94   4.923   2.456   6.437 -0.2796  0.0787 -0.1588
    1AU     LIG   95   5.385   2.224   6.551  0.0716 -0.0714 -0.3068
    1AU       S   96   4.137   3.220   5.751  0.2945  0.3761 -0.3964
    1AU     LIG   97   3.973   2.870   5.747  0.3756 -0.0858  0.3338
    1AU     LIG   98   4.062   2.407   5.803  0.0727 -0.4278  0.2607
    1AU     LIG   99   4.289   2.037   5.814 -0.0969 -0.1929 -0.0145
    1AU    AUSL  100   4.443   3.739   6.585 -0.0545  0.0152 -0.0818
    1AU    AUSL  101   4.582   4.059   5.990 -0.0672 -0.0807  0.0149
    1AU     AUL  102   4.669   3.753   6.276 -0.0378  0.0498  0.0518
    1AU       S  103   4.936   4.093   6.014  0.1302  0.2494 -0.0042
    1AU     LIG  104   5.299   4.025   5.769 -0.0204  0.0393 -0.0361
    1AU     LIG  105   5.632   3.972   5.946  0.1194 -0.0972 -0.1725
    1AU     LIG  106   5.998   4.278   6.131  0.0340 -0.1146  0.1447
    1AU       S  107   4.653   3.351   6.540 -0.1925 -0.2585 -0.4029
    1AU     LIG  108   5.014   3.167   6.833 -0.0867 -0.2850  0.2152
    1AU     LIG  109   5.465   3.024   6.752 -0.1152 -0.1187  0.1875
    1AU     LIG  110   5.827   3.438   6.740 -0.2075 -0.0479  0.3051
    1AU    AUSL  111   4.099   3.523   6.397 -0.0544  0.0397  0.0229
    1AU    AUSL  112   4.051   3.710   6.797 -0.0513 -0.0540  0.1709
    1AU     AUL  113   4.301   3.550   6.805 -0.0403  0.0373  0.0154
    1AU       S  114   4.057   3.260   7.085 -0.0151  0.1267  0.0094
    1AU     LIG  115   4.215   2.814   7.235  0.1121 -0.0462  0.0813
    1AU     LIG  116   4.479   2.721   7.578  0.0841  0.1412  0.3035
    1AU     LIG  117   4.764   2.650   7.866 -0.2950 -0.2626  0.2955
    1AU       S  118   4.277   3.270   6.438  0.1483  0.1499 -0.1987
    1AU     LIG  119   4.233   2.904   6.739 -0.1998  0.0047  0.1635
    1AU     LIG  120   4.133   2.649   6.529 -0.0575 -0.0972  0.2294
    1AU     LIG  121   4.350   2.357   6.224  0.1158  0.2145  0.0200
    1AU    AUSL  122   2.928   4.575   6.443  0.0491  0.0470  0.0473
    1AU    AUSL  123   2.990   4.366   6.028  0.0293  0.1341  0.0340
    1AU     AUL  124   2.702   4.616   6.126  0.0033  0.0308 -0.0696
    1AU       S  125   2.575   4.876   6.529 -0.0191  0.1051  0.3416
    1AU     LIG  126   2.166   5.188   6.565  0.0499 -0.1723 -0.0430
    1AU     LIG  127   1.963   5.315   6.268  0.0649 -0.4850 -0.1514
    1AU     LIG  128   1.987   5.724   6.149 -0.0644 -0.2218 -0.1831
    1AU       S  129   2.468   4.161   6.056  0.1341 -0.3174  0.4629
    1AU     LIG  130   2.182   3.853   6.117  0.1272  0.0235 -0.0687
    1AU     LIG  131   1.868   3.570   6.348 -0.1849  0.0794 -0.0836
    1AU     LIG  132   1.439   3.547   6.183 -0.0782  0.2950  0.0346
    1AU    AUSL  133   3.113   4.965   6.446 -0.0770  0.0354  0.0787
    1AU    AUSL  134   3.246   4.625   6.743  0.0519 -0.0007  0.0545
    1AU     AUL  135   2.942   4.804   6.798 -0.0814  0.0104 -0.0719
    1AU       S  136   3.222   5.198   6.834 -0.1767 -0.1428 -0.1857
    1AU     LIG  137   3.074   5.684   6.979  0.0825  0.0566 -0.3270
    1AU     LIG  138   3.286   6.038   7.065  0.0841  0.0990  0.1317
    1AU     LIG  139   3.597   6.083   7.274  0.2239 -0.1010  0.2466
    1AU       S  140   2.873   5.110   6.472  0.1527 -0.2724  0.1086
    1AU     LIG  141   3.030   5.546   6.427  0.1802 -0.0723 -0.0160
    1AU     LIG  142   3.241   5.947   6.400  0.1211  0.0323 -0.1872
    1AU     LIG  143   3.178   6.165   5.955  0.0777 -0.0636  0.0721
    1AU    AUSL  144   3.660   3.626   6.995 -0.0530  0.0825 -0.0384
    1AU    AUSL  145   4.150   4.046   7.029 -0.0284 -0.0600 -0.0013
    1AU     AUL  146   4.005   3.732   7.164 -0.0037 -0.0579 -0.0129
    1AU       S  147   3.864   3.300   7.110 -0.3069 -0.1390  0.1144
    1AU     LIG  148   3.967   3.301   7.550  0.0504 -0.0693 -0.0254
    1AU     LIG  149   3.742   3.279   7.858  0.4303  0.3341 -0.0067
    1AU     LIG  150   3.895   3.046   8.131  0.0478 -0.3038 -0.0005
    1AU       S  151   4.092   4.098   7.437 -0.4202 -0.0016  0.3613
    1AU     LIG  152   4.420   3.744   7.452  0.2410  0.3188  0.2559
    1AU     LIG  153   4.774   3.725   7.138 -0.3677 -0.0494  0.1075
    1AU     LIG  154   4.958   3.929   6.817 -0.2104 -0.0390 -0.5329
    1AU    AUSL  155   3.811   3.383   6.675 -0.0089 -0.0531  0.0004
    1AU    AUSL  156   3.423   3.636   6.633 -0.0233 -0.0123 -0.0877
    1AU     AUL  157   3.447   3.393   6.895  0.0431  0.0613  0.0672
    1AU       S  158   3.428   3.096   6.551 -0.3107 -0.1032  0.0520
    1AU     LIG  159   3.230   2.985   6.942 -0.0243 -0.1143 -0.2333
    1AU     LIG  160   3.166   2.678   7.282  0.2312 -0.3307  0.3646
    1AU     LIG  161   2.714   2.624   7.521  0.2569 -0.0192  0.1881
    1AU       S  162   3.902   3.246   6.793  0.0718 -0.3064 -0.0773
    1AU     LIG  163   3.689   2.753   6.841 -0.2116  0.2075  0.1065
    1AU     LIG  164   3.299   2.493   6.778  0.1428 -0.3065  0.0365
    1AU     LIG  165   3.255   2.301   6.444 -0.0083  0.3091 -0.0978
    1AU    AUSL  166   3.900   4.035   5.389 -0.0584  0.0042 -0.0037
    1AU    AUSL  167   4.218   3.847   5.755  0.0793 -0.0851  0.0143
    1AU     AUL  168   4.013   3.741   5.294 -0.0930  0.0106  0.0370
    1AU       S  169   4.324   3.710   5.640 -0.1554 -0.0989 -0.0077
    1AU     LIG  170   4.791   3.655   5.768 -0.1094  0.1321 -0.2794
    1AU     LIG  171   5.149   3.634   6.077  0.4117  0.1659  0.2686
    1AU     LIG  172   5.328   3.453   6.347  0.1373 -0.0813 -0.5695
    1AU       S  173   4.156   4.122   5.067 -0.2757 -0.1564 -0.5291
    1AU     LIG  174   4.259   4.168   4.598  0.0862  0.0569 -0.1292
    1AU     LIG  175   4.275   4.213   4.210  0.1789 -0.1674 -0.0793
    1AU     LIG  176   4.216   4.341   3.780 -0.0093  0.5390  0.0224
    1AU    AUSL  177   4.310   4.197   5.515 -0.0233  0.0312  0.0011
    1AU    AUSL  178   4.268   4.698   5.629 -0.1166 -0.0040 -0.0810
    1AU     AUL  179   4.531   4.511   5.389 -0.0803  0.0489  0.1347
    1AU       S  180   4.358   4.054   5.212  0.0912 -0.2943 -0.1923
    1AU     LIG  181   4.702   4.280   4.918  0.2346  0.3203 -0.0785
    1AU     LIG  182   4.751   4.171   4.458 -0.0250  0.0257 -0.2082
    1AU     LIG  183   4.838   3.929   4.213  0.3866  0.0169  0.1272
    1AU       S  184   4.615   4.934   5.599 -0.1050  0.2788 -0.2190
    1AU     LIG  185   4.946   5.107   5.398 -0.3281  0.0667  0.1680
    1AU     LIG  186   5.383   5.030   5.315 -0.1607 -0.3102 -0.2412
    1AU     LIG  187   5.776   4.936   5.269 -0.1033  0.2119 -0.0670
    1AU    AUSL  188   3.930   4.438   5.596  0.0156  0.0443  0.0841
    1AU    AUSL  189   3.534   4.241   5.332  0.0355  0.0043 -0.0718
    1AU     AUL  190   3.786   4.417   5.229 -0.0368  0.0332 -0.0097
    1AU       S  191   3.328   4.468   5.049  0.1120 -0.2736 -0.1365
    1AU     LIG  192   3.682   4.240   4.800  0.2293  0.1346  0.0139
    1AU     LIG  193   3.970   3.790   4.749 -0.0648  0.0133  0.0937
    1AU     LIG  194   4.165   3.517   4.911  0.0840 -0.0885  0.2799
    1AU       S  195   4.229   4.420   5.090  0.3072 -0.1337 -0.3362
    1AU     LIG  196   3.974   4.596   4.714  0.0680 -0.0620  0.0523
    1AU     LIG  197   3.635   4.678   4.509  0.0059  0.0478 -0.0150
    1AU     LIG  198   3.189   4.627   4.607 -0.0423 -0.1890  0.2057
    1AU    AUSL  199   3.015   3.810   6.420 -0.0307  0.0546  0.0070
    1AU    AUSL  200   2.784   4.180   6.374 -0.0127  0.0775 -0.1154
    1AU     AUL  201   2.691   3.749   6.410  0.0305 -0.0416  0.0487
    1AU       S  202   2.540   4.187   6.288 -0.2351  0.0513 -0.1324
    1AU     LIG  203   2.098   4.412   6.315 -0.2886  0.0676  0.1933
    1AU     LIG  204   1.909   4.793   6.016  0.0085 -0.2673  0.4588
    1AU     LIG  205   1.557   5.047   6.166  0.1904  0.1315 -0.1908
    1AU       S  206   2.591   3.946   6.813 -0.1938 -0.0458  0.2697
    1AU     LIG  207   2.175   3.885   6.651  0.0329 -0.0288 -0.1520
    1AU     LIG  208   1.719   4.014   6.446 -0.1690 -0.0965 -0.0773
    1AU     LIG  209   1.485   4.433   6.307  0.0058 -0.2420 -0.2005
    1AU    AUSL  210   3.054   3.725   6.833  0.0787 -0.0809  0.0093
    1AU    AUSL  211   3.192   3.424   6.330  0.0245 -0.0293 -0.0378
    1AU     AUL  212   3.019   3.484   6.652  0.1450  0.0885 -0.0311
    1AU       S  213   2.628   3.698   6.940 -0.1495 -0.0300 -0.1536
    1AU     LIG  214   2.519   3.344   6.749  0.0874 -0.3466  0.0944
    1AU     LIG  215   2.701   2.970   6.743  0.1098  0.3065 -0.5163
    1AU     LIG  216   2.851   2.585   6.897  0.1161  0.1537 -0.3981
    1AU       S  217   3.224   3.125   6.503  0.2698 -0.0377  0.8119
    1AU     LIG  218   3.040   2.765   6.398  0.0694 -0.0632  0.2403
    1AU     LIG  219   2.801   2.457   6.356  0.0009 -0.0661 -0.4723
    1AU     LIG  220   2.391   2.331   6.317 -0.1896  0.0077  0.1403
    1AU    AUSL  221   3.079   4.134   6.695 -0.0075 -0.0365 -0.0131
    1AU    AUSL  222   3.320   4.005   7.059  0.0119  0.0053 -0.0280
    1AU     AUL  223   3.057   3.839   7.067 -0.0284  0.0222 -0.0107
    1AU       S  224   3.160   4.131   7.421  0.3377  0.0304 -0.0668
    1AU     LIG  225   2.878   4.401   7.750  0.1833 -0.0454  0.2419
    1AU     LIG  226   2.498   4.433   7.847  0.0391 -0.3708  0.1233
    1AU     LIG  227   2.081   4.324   7.870 -0.0235  0.4237  0.0068
    1AU       S  228   2.741   4.089   6.818  0.4109 -0.3633  0.3039
    1AU     LIG  229   2.593   4.444   6.825 -0.0521  0.1908  0.0234
    1AU     LIG  230   2.185   4.397   6.826  0.1475 -0.0483 -0.1144
    1AU     LIG  231   1.904   4.145   6.945  0.0804  0.3597 -0.2751
    1AU    AUSL  232   4.390   4.755   6.038 -0.0829 -0.0733 -0.0848
    1AU    AUSL  233   3.971   4.833   5.897 -0.0732 -0.0624 -0.0386
    1AU     AUL  234   4.184   5.043   5.712 -0.0556 -0.0384  0.0753
    1AU       S  235   4.599   4.855   5.993  0.0115 -0.3189 -0.1720
    1AU     LIG  236   4.709   5.028   6.344 -0.4595 -0.0142  0.0462
    1AU     LIG  237   5.071   5.265   6.444 -0.1527 -0.0668 -0.1182
    1AU     LIG  238   5.260   5.627   6.552 -0.3568 -0.0845 -0.2321
    1AU       S  239   4.351   5.291   6.083  0.3063  0.1121  0.1149
    1AU     LIG  240   4.724   5.316   5.941 -0.0420  0.1507 -0.1971
    1AU     LIG  241   5.119   5.106   5.950 -0.0113  0.2745 -0.1204
    1AU     LIG  242   5.543   4.964   5.801  0.3251  0.0798  0.0791
    1AU    AUSL  243   4.290   4.353   5.910  0.0484  0.0346 -0.0539
    1AU    AUSL  244   4.616   4.429   6.219  0.0203 -0.0299  0.0775
    1AU     AUL  245   4.620   4.390   5.841 -0.0501  0.0202 -0.0074
    1AU       S  246   4.743   4.788   5.751 -0.1800 -0.5664  0.0251
    1AU     LIG  247   5.094   4.634   5.724 -0.3771  0.1779 -0.0435
    1AU     LIG  248   5.409   4.452   5.457 -0.2973  0.0126  0.0342
    1AU     LIG  249   5.758   4.455   5.211 -0.2104  0.1663 -0.5193
    1AU       S  250   4.960   4.429   6.143  0.0384 -0.0068 -0.1229
    1AU     LIG  251   5.138   4.749   6.288  0.0769 -0.0595 -0.2771
    1AU     LIG  252   5.493   5.011   6.305 -0.2069 -0.0163 -0.2710
    1AU     LIG  253   6.038   5.272   6.317  0.0185 -0.1361  0.1350
    1AU    AUSL  254   3.485   4.411   7.090 -0.0006 -0.0218  0.0157
    1AU    AUSL  255   3.729   4.031   6.938  0.0343 -0.0107  0.0286
    1AU     AUL  256   3.577   4.005   7.264 -0.0865  0.0013  0.0166
    1AU       S  257   3.962   4.068   7.505  0.0762 -0.1634  0.1382
    1AU     LIG  258   3.941   3.834   7.824 -0.0974 -0.0092 -0.1243
    1AU     LIG  259   3.572   3.655   7.605  0.0266 -0.0471 -0.2091
    1AU     LIG  260   3.407   3.322   7.379 -0.1022 -0.0288 -0.3624
    1AU       S  261   3.263   4.336   7.442  0.0106 -0.1579  0.0573
    1AU     LIG  262   3.593   4.601   7.585 -0.1520 -0.4498 -0.1775
    1AU     LIG  263   3.858   5.022   7.384  0.0191  0.1420 -0.1436
    1AU     LIG  264   4.242   5.091   7.598  0.2030 -0.0318  0.2927
    1AU    AUSL  265   3.048   4.393   7.029 -0.0528  0.0592  0.0725
    1AU    AUSL  266   3.517   4.838   7.012  0.0301 -0.0551  0.1432
    1AU     AUL  267   3.235   4.688   7.148  0.0022  0.0338 -0.0166
    1AU       S  268   3.283   5.116   6.959  0.0362  0.1572  0.4794
    1AU     LIG  269   2.966   5.301   7.258 -0.2931 -0.1740  0.1994
    1AU     LIG  270   2.485   5.451   7.254  0.0714  0.2307 -0.1193
    1AU     LIG  271   2.045   5.309   7.103  0.3229 -0.0090  0.2178
    1AU       S  272   2.976   4.278   7.264  0.0634 -0.0644 -0.2087
    1AU     LIG  273   2.712   4.777   7.259  0.1342 -0.1431  0.0860
    1AU     LIG  274   2.532   5.087   6.949 -0.0081  0.2779 -0.1959
    1AU     LIG  275   2.619   5.413   6.775  0.0985 -0.0151 -0.1272
    1AU    AUSL  276   2.963   4.190   5.625  0.1204 -0.0164 -0.0106
    1AU    AUSL  277   2.881   3.944   6.023  0.1411 -0.1205 -0.0024
    1AU     AUL  278   2.766   4.323   5.754 -0.0160  0.0598  0.0136
    1AU       S  279   2.653   3.908   5.965 -0.2881  0.1129 -0.0778
    1AU     LIG  280   2.791   3.486   6.035  0.1036  0.0109 -0.1893
    1AU     LIG  281   2.751   3.169   6.284  0.3674 -0.2723  0.0801
    1AU     LIG  282   2.522   2.840   6.315  0.0120  0.0777 -0.0180
    1AU       S  283   2.725   4.046   5.392  0.1108 -0.0622 -0.1009
    1AU     LIG  284   2.297   4.186   5.566  0.1614  0.1435  0.4166
    1AU     LIG  285   2.285   4.593   5.786 -0.0680  0.0337  0.0402
    1AU     LIG  286   2.411   4.984   5.942 -0.2297 -0.5131  0.0972
    1AU    AUSL  287   3.014   3.739   5.682 -0.0240  0.0718 -0.0517
    1AU    AUSL  288   3.435   3.560   5.562 -0.0356  0.0230 -0.0545
    1AU     AUL  289   3.203   3.572   5.331 -0.0169 -0.0116 -0.0483
    1AU       S  290   2.750   3.777   5.537 -0.5627  0.3974  0.1331
    1AU     LIG  291   2.394   3.573   5.707  0.0201  0.1333 -0.1977
    1AU     LIG  292   2.330   3.398   6.187  0.1277 -0.2331  0.0554
    1AU     LIG  293   2.060   3.075   6.385 -0.3062 -0.3031  0.2291
    1AU       S  294   3.334   3.174   5.510  0.1756 -0.2115  0.1021
    1AU     LIG  295   3.109   3.055   5.161 -0.1190 -0.1005  0.1521
    1AU     LIG  296   3.166   2.546   5.063  0.2191  0.3047  0.1275
    1AU     LIG  297   3.459   2.182   5.296  0.1598  0.3461 -0.2406
    1AU    AUSL  298   3.371   3.976   5.625 -0.1040 -0.1499  0.0019
    1AU    AUSL  299   3.302   4.431   5.651  0.0522 -0.0558  0.0612
    1AU     AUL  300   3.206   4.135   5.339 -0.1086  0.0482  0.0309
    1AU       S  301   3.129   4.605   5.325 -0.1305  0.3326  0.1937
    1AU     LIG  302   2.852   4.576   4.983  0.1496  0.0777  0.1185
    1AU     LIG  303   2.705   4.427   4.528  0.0876  0.3829  0.1506
    1AU     LIG  304   2.382   4.201   4.443 -0.4478  0.0077  0.1209
    1AU       S  305   2.869   3.877   5.238 -0.1746  0.6624 -0.2055
    1AU     LIG  306   2.613   4.116   4.944  0.1274 -0.0066 -0.1780
    1AU     LIG  307   2.308   4.462   4.878  0.0261  0.2377 -0.0329
    1AU     LIG  308   1.991   4.567   4.780  0.4310 -0.1275  0.3441
    1AU    AUSL  309   3.861   5.170   6.606 -0.0005  0.0282  0.0026
    1AU    AUSL  310   4.119   4.961   6.289 -0.0243  0.0149 -0.0189
    1AU     AUL  311   3.811   5.326   6.360  0.1323  0.0369 -0.0140
    1AU       S  312   4.049   5.420   6.740 -0.1165  0.2327  0.1769
    1AU     LIG  313   3.946   5.760   7.002 -0.0400  0.3388 -0.0607
    1AU     LIG  314   4.032   6.212   7.036 -0.1105 -0.0184 -0.0717
    1AU     LIG  315   3.979   6.641   7.121  0.2493 -0.1490 -0.0036
    1AU       S  316   4.230   5.162   6.204  0.0515 -0.0012 -0.4208
    1AU     LIG  317   4.492   5.554   6.487  0.2007  0.0588  0.3429
    1AU     LIG  318   4.799   5.765   6.569  0.0798  0.3039 -0.3018
    1AU     LIG  319   5.016   5.980   6.923  0.2664  0.3144 -0.1843
    1AU    AUSL  320   3.894   4.779   6.815  0.0068  0.0441  0.0080
    1AU    AUSL  321   3.511   4.909   6.554 -0.0316 -0.0118  0.0226
    1AU     AUL  322   3.737   5.079   6.907 -0.0024  0.0128  0.0275
    1AU       S  323   4.144   5.290   7.020 -0.1010  0.1107  0.1445
    1AU     LIG  324   4.383   5.539   7.099  0.1060  0.2284  0.1919
    1AU     LIG  325   4.464   5.892   6.949  0.5507  0.0189 -0.0594
    1AU     LIG  326   4.487   6.192   6.807 -0.1320 -0.0189 -0.2261
    1AU       S  327   3.386   5.287   6.643  0.0350 -0.1365  0.1710
    1AU     LIG  328   3.547   5.683   6.697 -0.0356  0.2309 -0.1753
    1AU     LIG  329   3.598   6.131   6.674  0.1402  0.0822  0.0007
    1AU     LIG  330   3.926   6.519   6.649  0.1438 -0.1289  0.1554
    1AU    AUSL  331   4.295   4.952   6.671  0.1227  0.0011 -0.0215
    1AU    AUSL  332   4.247   4.559   6.937  0.0706  0.0141 -0.0112
    1AU     AUL  333   4.167   4.819   7.052  0.0338 -0.0639 -0.0097
    1AU       S  334   4.607   4.658   6.922  0.2295 -0.1206 -0.2455
    1AU     LIG  335   4.559   4.942   7.226 -0.1220  0.0009 -0.0934
    1AU     LIG  336   4.675   5.263   7.414 -0.0786  0.1447 -0.1224
    1AU     LIG  337   4.871   5.630   7.240 -0.2963 -0.2899 -0.1456
    1AU       S  338   4.325   5.162   6.717 -0.2379 -0.0355 -0.3216
    1AU     LIG  339   4.785   5.231   6.908 -0.2112 -0.2127  0.1300
    1AU     LIG  340   5.236   5.336   6.975  0.3410 -0.0151  0.3502
    1AU     LIG  341   5.589   5.183   6.846 -0.2195  0.1004  0.0367
    1AU    AUSL  342   3.623   3.361   5.897 -0.0524 -0.0241 -0.0774
    1AU    AUSL  343   3.804   3.744   5.710 -0.0308  0.1211 -0.0356
    1AU     AUL  344   3.780   3.424   5.580 -0.0413  0.0781 -0.0090
    1AU       S  345   3.486   3.054   5.657  0.0473 -0.5654 -0.2398
    1AU     LIG  346   3.545   2.817   5.995 -0.1606  0.0666 -0.2864
    1AU     LIG  347   3.603   2.619   6.318  0.2914  0.1301  0.2421
    1AU     LIG  348   3.823   2.187   6.306 -0.2007  0.3921  0.0901
    1AU       S  349   4.237   3.412   5.533 -0.1364 -0.0290  0.1345
    1AU     LIG  350   4.655   3.133   5.625 -0.4969 -0.0696 -0.2328
    1AU     LIG  351   4.882   3.057   6.063  0.2485  0.0067 -0.2195
    1AU     LIG  352   5.164   2.922   6.342 -0.1109  0.1856 -0.0547
    1AU    AUSL  353   3.308   3.655   5.993  0.0921 -0.1163 -0.0267
    1AU    AUSL  354   3.637   3.471   6.300 -0.0004  0.0492 -0.0814
    1AU     AUL  355   3.342   3.258   6.059 -0.0952  0.1119 -0.0060
    1AU       S  356   3.106   3.244   5.668  0.3136  0.0591  0.3955
    1AU     LIG  357   3.013   2.903   5.916 -0.0284  0.3506 -0.5100
    1AU     LIG  358   3.141   2.448   5.995  0.2166 -0.1312 -0.2596
    1AU     LIG  359   3.308   2.053   5.972 -0.0306  0.2439 -0.1899
    1AU       S  360   3.577   3.103   6.399  0.2023  0.2617  0.0964
    1AU     LIG  361   3.914   3.072   6.184 -0.1788  0.4000 -0.1301
    1AU     LIG  362   4.340   2.918   6.103 -0.3821  0.0188 -0.1019
    1AU     LIG  363   4.536   2.637   5.811 -0.2344  0.1292 -0.1831
    1AU    AUSL  364   4.448   4.212   6.783 -0.0783  0.0176  0.1547
    1AU    AUSL  365   3.904   4.399   7.119  0.0845 -0.0145  0.0118
    1AU     AUL  366   4.346   4.307   7.117 -0.0152 -0.0688 -0.0345
    1AU       S  367   3.938   4.335   7.364 -0.3143 -0.0173 -0.0538
    1AU     LIG  368   4.222   4.568   7.477 -0.1280  0.0580 -0.3924
    1AU     LIG  369   4.697   4.548   7.465 -0.4664 -0.6116  0.2101
    1AU     LIG  370   5.016   4.623   7.744  0.0436 -0.1864 -0.1456
    1AU       S  371   4.743   4.498   6.958 -0.0927  0.5657 -0.0662
    1AU     LIG  372   5.114   4.385   6.676  0.3474  0.0318 -0.2488
    1AU     LIG  373   5.571   4.544   6.451 -0.2452 -0.2756  0.2134
    1AU     LIG  374   5.874   4.730   6.194  0.1507 -0.3873  0.0526
    1AU    AUSL  375   4.329   4.559   6.506 -0.0562  0.0669  0.0315
    1AU    AUSL  376   4.373   4.103   6.388  0.0347 -0.0160 -0.0625
    1AU     AUL  377   4.660   4.271   6.510  0.0508 -0.1177  0.0578
    1AU       S  378   4.738   4.710   6.696 -0.1379  0.0733 -0.1223
    1AU     LIG  379   5.203   4.859   6.771  0.4336 -0.2864 -0.0413
    1AU     LIG  380   5.482   4.687   7.029 -0.2287 -0.1067  0.3413
    1AU     LIG  381   5.635   4.303   6.917 -0.0435 -0.1488  0.0530
    1AU       S  382   5.001   4.082   6.262 -0.3652 -0.0639 -0.1760
    1AU     LIG  383   5.456   4.068   6.383 -0.1936 -0.3391  0.1159
    1AU     LIG  384   5.775   3.881   6.430 -0.1830  0.1784  0.1153
    1AU     LIG  385   6.195   3.895   6.370 -0.5743  0.3859 -0.2561
    2POPC   NC3  386   1.985   4.419   9.286  0.1970 -0.0002  0.0904
    2POPC   PO4  387   2.094   4.717   8.865 -0.2526 -0.1132  0.0176
    2POPC   GL1  388   2.014   4.634   8.463 -0.0802  0.3445  0.4195
    2POPC   GL2  389   1.770   4.556   8.170  0.1655  0.0640 -0.2133
    2POPC   C1A  390   2.294   4.777   8.143  0.1508  0.0319  0.2407
    2POPC   D2A  391   2.292   5.085   7.872 -0.1736  0.2841  0.2567
    2POPC   C3A  392   2.284   5.057   7.483 -0.3755 -0.1428 -0.1031
    2POPC   C4A  393   2.141   4.797   7.065 -0.2395 -0.1260  0.3632
    2POPC   C1B  394   1.841   4.725   7.868 -0.0048  0.0988  0.1125
    2POPC   C2B  395   1.907   4.576   7.507 -0.3343  0.1505  0.0358
    2POPC   C3B  396   2.105   4.377   7.313 -0.0938 -0.3383  0.4152
    2POPC   C4B  397   2.445   4.253   7.236 -0.1276 -0.1109 -0.0511
    3POPC   NC3  398   0.807   9.036   8.248 -0.2399 -0.0506 -0.1927
    3POPC   PO4  399   0.975   9.288   7.935 -0.2044 -0.0236  0.0434
    3POPC   GL1  400   0.994   9.321   7.504  0.1490 -0.0251 -0.2898
    3POPC   GL2  401   0.967   9.092   7.238 -0.2587 -0.3620  0.0122
    3POPC   C1A  402   0.773   9.488   7.033  0.0630  0.2478 -0.3153
    3POPC   D2A  403   0.647   9.374   6.629 -0.3290  0.3388  0.2286
    3POPC   C3A  404   0.864   9.135   6.366  0.1900  0.3361 -0.1061
    3POPC   C4A  405   1.167   9.035   6.104 -0.2043  0.1078  0.2961
    3POPC   C1B  406   1.020   8.867   6.976  0.2016  0.0683  0.1369
    3POPC   C2B  407   0.885   8.499   6.756  0.0976  0.4357  0.0463
    3POPC   C3B  408   0.725   8.294   6.513 -0.1816  0.0059 -0.0483
    3POPC   C4B  409   0.745   7.944   6.384  0.0002 -0.0126  0.3006
    4POPC   NC3  410   9.313   0.929   8.123  0.1068 -0.0369  0.0006
    4POPC   PO4  411   9.572   0.739   7.817 -0.1273  0.0196 -0.1642
    4POPC   GL1  412   9.338   0.582   7.525  0.1825  0.1615  0.0894
    4POPC   GL2  413   9.489   0.316   7.405 -0.0790 -0.0379 -0.1215
    4POPC   C1A  414   9.181   0.703   7.139 -0.1635  0.0889  0.1807
    4POPC   D2A  415   9.311   1.037   6.912 -0.5915  0.3293  0.1184
    4POPC   C3A  416   9.773   1.113   6.854 -0.0375  0.1896  0.0440
    4POPC   C4A  417  10.125   0.982   6.577 -0.3099  0.0381 -0.2939
    4POPC   C1B  418   9.760   0.506   7.107  0.2247  0.3632 -0.2406
    4POPC   C2B  419   9.739   0.628   6.647 -0.0489  0.0081  0.1203
    4POPC   C3B  420   9.645   0.910   6.372  0.1158 -0.2160 -0.0781
    4POPC   C4B  421   9.874   1.306   6.279  0.2882 -0.0715  0.3814
    5POPC   NC3  422   8.451   3.617   8.621  0.1393  0.3592  0.3703
    5POPC   PO4  423   8.679   3.914   8.555  0.3032 -0.1452 -0.3279
    5POPC   GL1  424   8.815   3.892   8.080 -0.0840 -0.0493 -0.0321
    5POPC   GL2  425   8.577   4.095   8.006 -0.1078  0.0341 -0.0020
    5POPC   C1A  426   8.742   3.874   7.550 -0.0359  0.0386  0.1796
    5POPC   D2A  427   8.499   3.805   7.217  0.0753  0.2364 -0.0102
    5POPC   C3A  428   8.015   3.904   7.061 -0.1958  0.0080  0.4408
    5POPC   C4A  429   7.601   3.854   7.069 -0.0189 -0.0669  0.0941
    5POPC   C1B  430   8.778   4.322   7.722 -0.0642 -0.0357 -0.1325
    5POPC   C2B  431   8.767   4.400   7.294 -0.1636 -0.1564  0.2192
    5POPC   C3B  432   8.614   4.167   6.792 -0.1698  0.1431  0.1862
    5POPC   C4B  433   8.317   4.143   6.668  0.0806  0.1887  0.2093
    6POPC   NC3  434   9.334   1.373   7.306 -0.0163  0.2029 -0.3245
    6POPC   PO4  435   9.648   1.440   7.480 -0.2621 -0.0011  0.4194
    6POPC   GL1  436   9.623   1.770   7.031 -0.0762 -0.1456 -0.3757
    6POPC   GL2  437   9.439   1.568   6.827 -0.2669 -0.0194 -0.1703
    6POPC   C1A  438   9.544   2.089   6.684  0.0806 -0.0526 -0.2659
    6POPC   D2A  439   9.538   2.234   6.204  0.0353 -0.2536 -0.1613
    6POPC   C3A  440   9.748   2.529   5.914 -0.1312 -0.0236 -0.0412
    6POPC   C4A  441   9.918   2.775   5.529 -0.1915 -0.1235 -0.1352
    6POPC   C1B  442   9.367   1.322   6.489 -0.0237 -0.0375 -0.2992
    6POPC   C2B  443   9.046   1.188   6.234 -0.2049 -0.1541 -0.3838
    6POPC   C3B  444   8.769   1.187   5.833  0.0008 -0.0052 -0.0363
    6POPC   C4B  445   8.874   1.176   5.283  0.0485  0.2548 -0.1947
    7POPC   NC3  446   5.360   9.154   8.323 -0.0245 -0.0464 -0.0132
    7POPC   PO4  447   5.216   8.906   8.044  0.1038  0.1586 -0.1485
    7POPC   GL1  448   5.158   8.663   7.711  0.0361 -0.1068 -0.1648
    7POPC   GL2  449   4.995   8.417   7.849 -0.0938  0.0113  0.1090
    7POPC   C1A  450   4.878   8.525   7.272  0.0055  0.2056 -0.1868
    7POPC   D2A  451   4.838   8.292   6.946  0.4303  0.2682 -0.0670
    7POPC   C3A  452   4.553   8.522   6.701  0.1589 -0.3770 -0.0706
    7POPC   C4A  453   4.174   8.290   6.455  0.0998 -0.0011 -0.1695
    7POPC   C1B  454   4.985   8.103   7.557 -0.0020  0.0498 -0.0033
    7POPC   C2B  455   4.667   7.975   7.322  0.0315  0.1025  0.0944
    7POPC   C3B  456   4.605   7.760   6.982 -0.0250  0.0378  0.1648
    7POPC   C4B  457   4.544   7.972   6.625  0.2253 -0.0651 -0.0415
    8POPC   NC3  458   9.116   5.772   8.735 -0.1593  0.0803 -0.0273
    8POPC   PO4  459   9.138   5.314   8.532 -0.3162  0.0418 -0.1645
    8POPC   GL1  460   9.380   5.194   8.021 -0.1282 -0.1437  0.1020
    8POPC   GL2  461   9.600   5.020   7.950 -0.0211 -0.3089 -0.0060
    8POPC   C1A  462   9.380   5.544   7.726 -0.2329 -0.1819  0.0208
    8POPC   D2A  463   9.638   5.770   7.442 -0.3045 -0.3533 -0.0117
    8POPC   C3A  464   9.388   5.869   7.042  0.1253  0.0518  0.0382
    8POPC   C4A  465   9.091   5.644   6.803 -0.0203  0.0565  0.0716
    8POPC   C1B  466   9.522   5.068   7.531  0.0666 -0.0218  0.3371
    8POPC   C2B  467   9.557   4.939   7.005 -0.2170 -0.3141 -0.1147
    8POPC   C3B  468   9.856   5.066   6.656 -0.2538  0.2820 -0.1245
    8POPC   C4B  469   9.921   4.820   6.213  0.1272  0.1869  0.0229
    9POPC   NC3  470   9.010   2.812   8.104 -0.2203 -0.0142 -0.1370
    9POPC   PO4  471   9.133   3.244   8.005 -0.0695 -0.2086  0.0477
    9POPC   GL1  472   9.058   3.072   7.526  0.0727 -0.1000 -0.1074
    9POPC   GL2  473   8.875   2.793   7.511 -0.0580 -0.1112  0.0330
    9POPC   C1A  474   9.178   3.121   7.096 -0.2923 -0.0673 -0.0014
    9POPC   D2A  475   9.031   2.814   6.720  0.0035 -0.0971  0.2466
    9POPC   C3A  476   8.834   3.089   6.425 -0.0380 -0.1958  0.2201
    9POPC   C4A  477   8.677   3.362   6.249  0.0182 -0.1027 -0.1542
    9POPC   C1B  478   8.754   2.711   7.169  0.1150  0.1360 -0.1124
    9POPC   C2B  479   8.658   2.397   6.845  0.3852  0.1593 -0.0650
    9POPC   C3B  480   8.701   2.024   6.554 -0.2914  0.2120  0.0363
    9POPC   C4B  481   8.774   1.544   6.524  0.0904 -0.2822  0.3132
   10POPC   NC3  482   8.151   8.466   7.973  0.3138  0.2452 -0.1926
   10POPC   PO4  483   8.463   8.683   7.930 -0.2092 -0.0906 -0.1114
   10POPC   GL1  484   8.721   8.634   7.540 -0.1386  0.0802 -0.4757
   10POPC   GL2  485   8.594   8.967   7.354  0.0694  0.0680  0.1491
   10POPC   C1A  486   8.634   8.373   7.276 -0.1650  0.6165 -0.1225
   10POPC   D2A  487   8.844   8.102   6.967  0.3040 -0.1542 -0.2895
   10POPC   C3A  488   8.993   8.362   6.645 -0.0780 -0.1336  0.0984
   10POPC   C4A  489   8.894   8.672   6.403 -0.0831 -0.1655  0.3067
   10POPC   C1B  490   8.454   9.279   6.969  0.1704 -0.2409 -0.1548
   10POPC   C2B  491   8.228   9.270   6.571 -0.3254 -0.4747 -0.4378
   10POPC   C3B  492   8.256   9.296   6.178  0.3403  0.4720 -0.0825
   10POPC   C4B  493   8.527   8.984   6.097  0.1911  0.2189  0.0060
   11POPC   NC3  494   4.833   3.449   9.152 -0.0001  0.2257  0.0491
   11POPC   PO4  495   4.926   3.802   9.572  0.0251 -0.0710 -0.3598
   11POPC   GL1  496   4.935   4.139   9.300  0.1701  0.0389  0.2188
   11POPC   GL2  497   5.290   4.332   9.354  0.2295 -0.1673 -0.1643
   11POPC   C1A  498   4.714   4.152   8.820  0.0688 -0.1338 -0.0500
   11POPC   D2A  499   4.563   4.117   8.433 -0.0833  0.1914 -0.0446
   11POPC   C3A  500   4.237   3.887   8.308  0.0534 -0.1333  0.1955
   11POPC   C4A  501   4.254   3.558   7.965 -0.0155 -0.0471 -0.0389
   11POPC   C1B  502   5.104   4.469   8.949 -0.2096  0.1694  0.2188
   11POPC   C2B  503   5.011   4.428   8.540  0.1450  0.1775 -0.0284
   11POPC   C3B  504   4.991   4.836   8.264 -0.0087  0.2132 -0.0775
   11POPC   C4B  505   5.046   5.308   7.977  0.1952  0.0123  0.3313
   12POPC   NC3  506   5.520   8.528   8.142 -0.0825 -0.0177  0.0169
   12POPC   PO4  507   5.787   8.910   8.379 -0.2453  0.2697 -0.2893
   12POPC   GL1  508   5.847   8.878   7.941 -0.0095 -0.2679 -0.0550
   12POPC   GL2  509   5.645   8.827   7.788 -0.0409  0.1193  0.0195
   12POPC   C1A  510   6.124   8.868   7.626  0.0910  0.4125  0.2956
   12POPC   D2A  511   5.981   9.118   7.239 -0.1299 -0.2293 -0.0965
   12POPC   C3A  512   5.637   9.162   6.985  0.0075 -0.0068  0.2838
   12POPC   C4A  513   5.471   9.512   7.103 -0.2494  0.0688 -0.1265
   12POPC   C1B  514   5.691   8.598   7.422 -0.1252 -0.0260 -0.0619
   12POPC   C2B  515   5.822   8.665   7.025  0.1685  0.1001 -0.0652
   12POPC   C3B  516   6.139   8.622   6.845 -0.0775  0.0805  0.0639
   12POPC   C4B  517   6.637   8.413   6.880  0.0736  0.3456  0.2953
   13POPC   NC3  518   1.432   9.048   8.031  0.0470 -0.0654  0.4335
   13POPC   PO4  519   1.845   8.967   7.956  0.1172 -0.0383 -0.3545
   13POPC   GL1  520   1.722   8.977   7.565 -0.0681  0.2784 -0.2304
   13POPC   GL2  521   1.946   9.016   7.375  0.0545 -0.0945  0.4387
   13POPC   C1A  522   1.442   9.216   7.313 -0.0849  0.3629  0.0976
   13POPC   D2A  523   1.224   9.388   6.936 -0.1565 -0.0073  0.3309
   13POPC   C3A  524   1.319   9.174   6.560  0.0737 -0.2018 -0.2818
   13POPC   C4A  525   1.627   9.154   6.256  0.1710  0.3290 -0.1170
   13POPC   C1B  526   2.176   9.134   7.004  0.0707 -0.2645  0.1385
   13POPC   C2B  527   2.287   8.981   6.599 -0.1042  0.1209 -0.3750
   13POPC   C3B  528   2.154   8.784   6.269  0.0306  0.0221  0.0928
   13POPC   C4B  529   1.987   8.845   5.930 -0.0464  0.3265 -0.0434
   14POPC   NC3  530   2.657   6.609   8.424 -0.0785 -0.2692  0.2980
   14POPC   PO4  531   2.387   6.297   8.362 -0.1158 -0.0644  0.1978
   14POPC   GL1  532   2.726   5.939   8.367  0.0201 -0.3658  0.0859
   14POPC   GL2  533   2.965   5.837   8.577  0.1767 -0.1238  0.1865
   14POPC   C1A  534   2.995   5.808   8.050  0.0010  0.2980 -0.0799
   14POPC   D2A  535   3.234   5.722   7.932 -0.0617  0.0188  0.3090
   14POPC   C3A  536   3.317   5.703   7.557 -0.4777  0.0645  0.1951
   14POPC   C4A  537   3.490   5.473   7.180  0.0416 -0.4229 -0.1958
   14POPC   C1B  538   2.889   5.401   8.605  0.2840 -0.1191 -0.0262
   14POPC   C2B  539   2.965   4.994   8.446  0.0061  0.2763 -0.3296
   14POPC   C3B  540   3.005   4.848   8.099  0.4182  0.0704  0.2062
   14POPC   C4B  541   2.811   4.894   7.745  0.0382 -0.0584 -0.3416
   15POPC   NC3  542   6.827   6.938   8.242  0.0356 -0.3143 -0.3393
   15POPC   PO4  543   6.631   7.290   8.029  0.1553 -0.1107  0.0696
   15POPC   GL1  544   6.528   6.961   7.704  0.0506  0.1308 -0.1816
   15POPC   GL2  545   6.581   7.048   7.402  0.0414 -0.1413  0.2435
   15POPC   C1A  546   6.289   6.690   7.337  0.0232 -0.0962  0.0325
   15POPC   D2A  547   5.977   6.756   7.048  0.2001 -0.1933 -0.0432
   15POPC   C3A  548   6.026   7.041   6.608 -0.3563 -0.0162  0.2376
   15POPC   C4A  549   5.799   6.977   6.265 -0.1207 -0.2284  0.0379
   15POPC   C1B  550   6.354   7.421   7.408 -0.0853 -0.0564 -0.1900
   15POPC   C2B  551   6.470   7.729   7.070  0.1845 -0.1790  0.1086
   15POPC   C3B  552   6.746   7.849   6.777 -0.0197  0.2178  0.0573
   15POPC   C4B  553   7.149   7.685   6.653  0.2126 -0.1975 -0.1987
   16POPC   NC3  554   7.116   1.904   8.274 -0.3586 -0.2332  0.0388
   16POPC   PO4  555   7.016   1.677   8.052  0.5170 -0.3390 -0.0114
   16POPC   GL1  556   7.186   1.884   7.698  0.0038  0.2423  0.0146
   16POPC   GL2  557   7.372   2.169   7.676 -0.2241 -0.1717 -0.1849
   16POPC   C1A  558   7.174   1.965   7.253 -0.0967 -0.1299 -0.0704
   16POPC   D2A  559   7.307   2.152   6.917  0.0079 -0.1298  0.0210
   16POPC   C3A  560   7.197   2.419   6.650  0.2247  0.0440  0.2766
   16POPC   C4A  561   7.144   2.767   6.476 -0.2626 -0.1459 -0.2540
   16POPC   C1B  562   7.517   2.411   7.333  0.0247 -0.0214 -0.0651
   16POPC   C2B  563   7.584   2.747   7.038 -0.3083 -0.2527  0.0664
   16POPC   C3B  564   7.883   3.184   6.822 -0.1067  0.2688 -0.0207
   16POPC   C4B  565   7.829   3.573   6.675  0.1240 -0.1785  0.0779
   17POPC   NC3  566   6.673   8.515   8.458  0.0751 -0.3079 -0.1747
   17POPC   PO4  567   7.098   8.609   8.608 -0.1422  0.1803  0.2513
   17POPC   GL1  568   7.100   8.664   8.140  0.4015  0.2230 -0.4929
   17POPC   GL2  569   6.824   8.797   7.935  0.1597  0.1503 -0.3653
   17POPC   C1A  570   7.209   8.490   7.761  0.0080  0.1059  0.1328
   17POPC   D2A  571   7.457   8.592   7.403  0.0842  0.4783  0.1644
   17POPC   C3A  572   7.887   8.213   7.315  0.4606 -0.0051  0.3314
   17POPC   C4A  573   8.207   8.016   7.124 -0.0491  0.1885  0.1051
   17POPC   C1B  574   6.538   8.574   7.659 -0.0843 -0.0354 -0.2733
   17POPC   C2B  575   6.196   8.369   7.333  0.1105 -0.0361  0.0919
   17POPC   C3B  576   6.219   8.152   6.973 -0.0200  0.2263  0.0872
   17POPC   C4B  577   6.376   8.087   6.548  0.0867  0.2264  0.2420
   18POPC   NC3  578   9.532   2.979   8.110 -0.0571  0.0921  0.0887
   18POPC   PO4  579   9.879   2.887   8.182 -0.1524  0.0506 -0.3018
   18POPC   GL1  580   9.954   3.034   7.779 -0.1253 -0.1065 -0.0558
   18POPC   GL2  581  10.349   3.189   7.731 -0.3194  0.2269 -0.1359
   18POPC   C1A  582   9.917   2.787   7.426  0.0453 -0.1121 -0.0965
   18POPC   D2A  583   9.577   2.794   7.203  0.0281 -0.0951  0.3514
   18POPC   C3A  584   9.504   2.998   6.734 -0.1063 -0.2744 -0.0608
   18POPC   C4A  585   9.427   3.143   6.332 -0.0211 -0.1521 -0.0224
   18POPC   C1B  586  10.066   3.406   7.462  0.1491  0.0373 -0.0504
   18POPC   C2B  587  10.023   3.743   7.087  0.3411 -0.0967  0.0622
   18POPC   C3B  588   9.983   3.957   6.657 -0.2752  0.2677 -0.1160
   18POPC   C4B  589  10.061   3.882   6.292 -0.0158 -0.3890  0.0568
   19POPC   NC3  590   6.952   7.011   8.998  0.0114  0.0251 -0.1980
   19POPC   PO4  591   6.629   6.773   8.644  0.1267  0.1883 -0.1164
   19POPC   GL1  592   6.403   6.497   8.276  0.1807 -0.3162 -0.2097
   19POPC   GL2  593   6.053   6.606   8.254 -0.1301 -0.0539  0.3256
   19POPC   C1A  594   6.332   6.445   7.834 -0.1416  0.2213 -0.0406
   19POPC   D2A  595   6.084   6.292   7.464  0.2425 -0.2800 -0.0723
   19POPC   C3A  596   5.944   5.833   7.509 -0.3829  0.1292  0.0682
   19POPC   C4A  597   5.609   5.499   7.278 -0.3170  0.1699 -0.2009
   19POPC   C1B  598   5.869   6.626   7.803  0.5795  0.1899 -0.3347
   19POPC   C2B  599   5.666   6.511   7.381  0.1458 -0.2684 -0.0788
   19POPC   C3B  600   5.674   6.342   6.927 -0.4662 -0.2316  0.2661
   19POPC   C4B  601   5.844   6.490   6.513 -0.0445  0.2631  0.2298
   20POPC   NC3  602   6.813   1.183   7.699 -0.1810  0.0878  0.3894
   20POPC   PO4  603   6.666   1.611   7.576 -0.5777  0.0141  0.1383
   20POPC   GL1  604   6.467   1.496   7.194 -0.1276  0.1502  0.0864
   20POPC   GL2  605   6.166   1.688   7.348  0.3300 -0.1311 -0.4373
   20POPC   C1A  606   6.624   1.583   6.775  0.1727 -0.5197  0.0779
   20POPC   D2A  607   6.847   1.933   6.536 -0.0581  0.0414 -0.3231
   20POPC   C3A  608   6.838   1.828   6.176  0.1033  0.0644  0.0061
   20POPC   C4A  609   7.038   1.519   5.939 -0.0806 -0.0309 -0.2217
   20POPC   C1B  610   6.334   1.978   7.106 -0.0266 -0.2304 -0.0919
   20POPC   C2B  611   6.251   2.102   6.699  0.3596 -0.1808  0.1350
   20POPC   C3B  612   6.324   1.925   6.354 -0.0557  0.0496  0.0547
   20POPC   C4B  613   6.236   1.916   5.948  0.0373 -0.2359  0.1024
   21POPC   NC3  614   6.451   6.449   8.947 -0.0585 -0.0105 -0.1206
   21POPC   PO4  615   6.103   6.265   8.602  0.0388  0.0613  0.1522
   21POPC   GL1  616   6.093   6.067   8.233 -0.0827  0.0748 -0.0812
   21POPC   GL2  617   6.474   6.022   8.112 -0.1983  0.0709 -0.0340
   21POPC   C1A  618   5.965   6.077   7.921  0.0132  0.1565 -0.3018
   21POPC   D2A  619   5.558   6.113   7.645  0.1240  0.0627 -0.0917
   21POPC   C3A  620   5.584   5.985   7.192 -0.0489 -0.0210 -0.0504
   21POPC   C4A  621   5.551   5.843   6.861  0.0171  0.0674  0.1789
   21POPC   C1B  622   6.372   5.989   7.649  0.1368  0.0137 -0.2093
   21POPC   C2B  623   6.543   6.121   7.307  0.0743 -0.2306 -0.1233
   21POPC   C3B  624   6.294   6.379   6.888 -0.0501 -0.0959 -0.2388
   21POPC   C4B  625   6.339   6.633   6.522 -0.1844 -0.3125  0.2194
   22POPC   NC3  626   1.959   2.674   8.551  0.1823  0.2709 -0.1520
   22POPC   PO4  627   1.855   3.036   8.786 -0.1713 -0.0442  0.1410
   22POPC   GL1  628   1.818   3.101   8.323  0.4561  0.1124 -0.0969
   22POPC   GL2  629   1.717   3.342   8.193 -0.1912  0.1160  0.0950
   22POPC   C1A  630   2.018   3.029   7.900  0.2260 -0.0323  0.2141
   22POPC   D2A  631   2.384   3.071   7.695  0.1239 -0.0173 -0.2881
   22POPC   C3A  632   2.531   3.430   7.470 -0.1554  0.3163 -0.1840
   22POPC   C4A  633   2.648   3.824   7.541 -0.2409 -0.0204  0.3062
   22POPC   C1B  634   1.631   3.527   7.687  0.0468  0.0433  0.1171
   22POPC   C2B  635   1.646   3.334   7.275  0.2107 -0.0242 -0.1066
   22POPC   C3B  636   1.665   3.495   6.791 -0.2452  0.1702 -0.1325
   22POPC   C4B  637   1.282   3.789   6.615 -0.0145  0.1643  0.1072
   23POPC   NC3  638   5.166   2.064   8.732  0.1622 -0.1581  0.1534
   23POPC   PO4  639   4.921   2.278   8.426 -0.3928 -0.1503  0.1382
   23POPC   GL1  640   4.854   2.168   8.084  0.0583 -0.3343 -0.0477
   23POPC   GL2  641   4.883   1.901   8.028  0.1995  0.0922  0.4123
   23POPC   C1A  642   4.588   2.234   7.767 -0.0177  0.0869 -0.0129
   23POPC   D2A  643   4.127   2.360   7.508 -0.1612 -0.1775 -0.1098
   23POPC   C3A  644   4.213   2.260   7.116 -0.1253  0.2065 -0.1983
   23POPC   C4A  645   4.425   2.280   6.744  0.1375 -0.1515  0.2925
   23POPC   C1B  646   4.886   1.812   7.687 -0.0231  0.1374  0.1727
   23POPC   C2B  647   4.892   1.697   7.221 -0.0904  0.0659  0.1175
   23POPC   C3B  648   4.704   1.796   6.794  0.0794 -0.2280  0.1233
   23POPC   C4B  649   4.493   1.868   6.352 -0.1587 -0.0162  0.0304
   24POPC   NC3  650   1.194   1.798   7.900 -0.0340  0.0771  0.4628
   24POPC   PO4  651   1.382   2.117   7.970 -0.1310  0.2542  0.3902
   24POPC   GL1  652   1.166   2.240   7.553 -0.1925  0.0686 -0.2065
   24POPC   GL2  653   1.302   1.939   7.380  0.2589 -0.0339  0.1567
   24POPC   C1A  654   0.946   2.623   7.279  0.2643  0.0712  0.2061
   24POPC   D2A  655   0.709   2.966   7.300 -0.0018  0.2071  0.1385
   24POPC   C3A  656   0.623   3.372   7.008 -0.2631  0.2012  0.7065
   24POPC   C4A  657   0.695   3.446   6.625  0.2029 -0.0421 -0.2048
   24POPC   C1B  658   1.184   1.688   7.054  0.0850 -0.1911  0.1146
   24POPC   C2B  659   1.427   1.507   6.754 -0.0444 -0.1202  0.2221
   24POPC   C3B  660   1.620   1.349   6.368  0.0516  0.1381 -0.0177
   24POPC   C4B  661   1.459   1.034   6.184 -0.2802 -0.0975  0.3224
   25POPC   NC3  662   3.010   1.694   8.789  0.2967  0.1870  0.1351
   25POPC   PO4  663   3.097   1.885   8.454  0.0102 -0.0570  0.0553
   25POPC   GL1  664   3.102   1.769   7.994  0.1402  0.2074  0.1302
   25POPC   GL2  665   3.029   1.493   7.862  0.0278  0.1893 -0.0523
   25POPC   C1A  666   3.291   1.907   7.592 -0.0632 -0.0851 -0.0761
   25POPC   D2A  667   3.242   2.149   7.216 -0.2262  0.1146 -0.0361
   25POPC   C3A  668   3.460   1.966   6.862 -0.1036 -0.1341 -0.0479
   25POPC   C4A  669   3.619   1.662   6.556 -0.1683  0.0010 -0.1465
   25POPC   C1B  670   3.371   1.375   7.464  0.1396 -0.2239  0.1114
   25POPC   C2B  671   3.531   1.430   7.024 -0.1188  0.0332  0.6330
   25POPC   C3B  672   3.515   1.191   6.638  0.3080  0.0692  0.2320
   25POPC   C4B  673   3.317   1.082   6.246 -0.2303  0.1517 -0.2501
   26POPC   NC3  674   6.363   7.548   8.387  0.0497 -0.1480  0.0221
   26POPC   PO4  675   5.967   7.542   8.472 -0.1523  0.3650 -0.0777
   26POPC   GL1  676   5.962   7.547   7.980  0.1816  0.1223  0.0410
   26POPC   GL2  677   6.161   7.301   7.893  0.1377 -0.2343 -0.1024
   26POPC   C1A  678   5.761   7.511   7.577 -0.2532  0.0141 -0.1319
   26POPC   D2A  679   5.543   7.593   7.264 -0.0499  0.2760 -0.2512
   26POPC   C3A  680   5.323   7.407   7.085 -0.0162 -0.2988  0.0437
   26POPC   C4A  681   5.086   7.160   6.774  0.1892  0.3153 -0.0286
   26POPC   C1B  682   6.008   7.096   7.584 -0.0063 -0.0726  0.1503
   26POPC   C2B  683   5.778   7.173   7.243 -0.0360  0.1762 -0.1135
   26POPC   C3B  684   5.520   6.937   6.900 -0.3343 -0.1145 -0.1757
   26POPC   C4B  685   5.346   6.622   6.643  0.0546 -0.0097  0.0974
   27POPC   NC3  686   6.128   9.249   8.224  0.0226  0.0664 -0.0049
   27POPC   PO4  687   6.622   9.027   8.339  0.1673 -0.0913  0.3485
   27POPC   GL1  688   6.637   9.258   7.925 -0.1785  0.0273  0.1702
   27POPC   GL2  689   6.430   9.479   7.880 -0.1730 -0.2350  0.0420
   27POPC   C1A  690   6.479   9.147   7.441 -0.0260  0.0375  0.0157
   27POPC   D2A  691   6.452   8.884   7.170  0.2958  0.1269 -0.0413
   27POPC   C3A  692   6.673   8.933   6.832 -0.1355  0.0004 -0.2296
   27POPC   C4A  693   6.616   9.264   6.579 -0.0580 -0.1696 -0.2526
   27POPC   C1B  694   6.096   9.552   7.627  0.2929 -0.0217 -0.0511
   27POPC   C2B  695   6.005   9.712   7.322 -0.0587  0.1440  0.0284
   27POPC   C3B  696   6.002   9.552   6.930 -0.3537 -0.1270  0.0791
   27POPC   C4B  697   5.681   9.735   6.701  0.0232 -0.0464  0.1383
   28POPC   NC3  698   9.605   5.109   8.510  0.2207  0.1177  0.0377
   28POPC   PO4  699   9.183   4.819   8.351 -0.3208  0.0370 -0.1593
   28POPC   GL1  700   9.206   4.677   7.933 -0.2665 -0.1323  0.0484
   28POPC   GL2  701   9.425   4.525   7.783  0.4227 -0.0278 -0.0354
   28POPC   C1A  702   8.816   4.783   7.684 -0.0329  0.0293 -0.0679
   28POPC   D2A  703   8.446   4.809   7.477 -0.0466 -0.0995  0.3343
   28POPC   C3A  704   8.169   5.092   7.597 -0.0635  0.0038  0.2006
   28POPC   C4A  705   7.916   5.597   7.629  0.1998  0.3456  0.2913
   28POPC   C1B  706   9.279   4.596   7.364  0.1826 -0.0433 -0.3523
   28POPC   C2B  707   9.010   4.813   7.054  0.5145  0.0401 -0.2652
   28POPC   C3B  708   8.940   5.074   6.766 -0.0128  0.1094  0.3368
   28POPC   C4B  709   8.879   5.327   6.391  0.2077  0.3083 -0.2302
   29POPC   NC3  710   2.177   3.639   9.081  0.1469 -0.1718  0.1182
   29POPC   PO4  711   2.546   3.528   9.305 -0.1302 -0.0396 -0.0560
   29POPC   GL1  712   2.672   3.792   8.963  0.2643  0.1302 -0.4574
   29POPC   GL2  713   2.988   3.558   8.831 -0.0175 -0.1845 -0.2183
   29POPC   C1A  714   2.566   3.883   8.552  0.2035  0.2301 -0.2246
   29POPC   D2A  715   2.654   4.009   8.115 -0.1172 -0.1849  0.3664
   29POPC   C3A  716   2.991   3.927   7.974 -0.2072  0.2228  0.1565
   29POPC   C4A  717   3.091   3.584   7.645 -0.0343 -0.1360 -0.0763
   29POPC   C1B  718   3.088   4.070   8.682 -0.0317  0.0564  0.0341
   29POPC   C2B  719   3.201   4.291   8.307  0.0372 -0.1004  0.1856
   29POPC   C3B  720   3.322   4.372   7.937 -0.1425 -0.0757  0.1706
   29POPC   C4B  721   3.553   4.139   7.750 -0.3087 -0.0242  0.2528
   30POPC   NC3  722   4.376   7.285   8.872  0.1415  0.0645  0.0630
   30POPC   PO4  723   4.337   6.844   8.858  0.1720 -0.3150 -0.0988
   30POPC   GL1  724   4.263   6.793   8.398 -0.0233 -0.1267  0.0443
   30POPC   GL2  725   4.582   6.771   8.433  0.0287 -0.2074  0.1624
   30POPC   C1A  726   4.010   6.894   7.951 -0.1044  0.1405  0.0780
   30POPC   D2A  727   3.703   7.010   7.606 -0.3546 -0.1136  0.0788
   30POPC   C3A  728   3.220   7.053   7.647 -0.0559  0.0164 -0.1060
   30POPC   C4A  729   2.812   7.078   7.576 -0.0199 -0.0348  0.0958
   30POPC   C1B  730   4.454   6.337   8.461 -0.1124 -0.1687 -0.0066
   30POPC   C2B  731   4.430   5.988   8.252  0.1205  0.0670  0.2745
   30POPC   C3B  732   4.211   5.807   7.986  0.2446 -0.1571 -0.1614
   30POPC   C4B  733   4.137   5.372   8.003  0.0942  0.0569  0.2147
   31POPC   NC3  734   4.545   0.363   8.404 -0.1991 -0.1060  0.0342
   31POPC   PO4  735   4.970   0.464   8.177 -0.1284 -0.0627 -0.2260
   31POPC   GL1  736   5.098   0.524   7.719 -0.2975 -0.1865 -0.0737
   31POPC   GL2  737   5.116   0.826   7.562  0.0714  0.2798  0.2643
   31POPC   C1A  738   5.548   0.533   7.505 -0.2550 -0.0157  0.0391
   31POPC   D2A  739   5.622   0.415   7.065 -0.1873 -0.2686  0.0659
   31POPC   C3A  740   5.283   0.425   6.760  0.0924 -0.1290 -0.0526
   31POPC   C4A  741   5.012   0.410   6.397 -0.1324  0.2404 -0.0835
   31POPC   C1B  742   5.328   0.801   7.152  0.0999  0.0197 -0.0003
   31POPC   C2B  743   5.511   0.875   6.766 -0.2381 -0.1458  0.1792
   31POPC   C3B  744   5.593   1.209   6.427  0.1766 -0.0125  0.1890
   31POPC   C4B  745   5.564   1.158   5.933 -0.0816 -0.1989  0.0265
   32POPC   NC3  746   8.487   4.359   8.587 -0.1241 -0.0425  0.0149
   32POPC   PO4  747   8.115   4.408   8.188  0.0261  0.1166 -0.3023
   32POPC   GL1  748   8.072   4.195   7.786 -0.1453  0.1627 -0.2655
   32POPC   GL2  749   7.712   4.210   7.635  0.0651 -0.0120  0.0064
   32POPC   C1A  750   8.288   4.224   7.408  0.0469  0.0928 -0.4927
   32POPC   D2A  751   8.293   4.411   7.085  0.1158  0.1698 -0.1307
   32POPC   C3A  752   8.510   4.778   6.929  0.3193 -0.2927  0.0549
   32POPC   C4A  753   8.473   5.204   6.674  0.1334  0.0200 -0.1338
   32POPC   C1B  754   7.807   4.281   7.188  0.1695 -0.5321  0.1115
   32POPC   C2B  755   7.849   4.580   6.809  0.1364 -0.1639  0.3345
   32POPC   C3B  756   8.192   4.653   6.527  0.0743 -0.0646  0.1435
   32POPC   C4B  757   8.525   4.444   6.370 -0.1610 -0.1652  0.1128
   33POPC   NC3  758   3.711   5.013   9.678 -0.0819  0.2872 -0.3207
   33POPC   PO4  759   3.717   5.322   9.744  0.0550  0.2962 -0.2260
   33POPC   GL1  760   4.016   5.387   9.384 -0.0134 -0.1728  0.0386
   33POPC   GL2  761   3.782   5.258   9.181 -0.2327 -0.0820 -0.1270
   33POPC   C1A  762   4.334   5.268   8.945 -0.0336  0.4461 -0.2390
   33POPC   D2A  763   4.801   5.222   8.748  0.1133  0.2466  0.2783
   33POPC   C3A  764   4.902   5.451   8.424  0.0212 -0.3050  0.2925
   33POPC   C4A  765   4.662   5.603   8.066  0.1051  0.1142 -0.0741
   33POPC   C1B  766   3.727   4.949   8.991 -0.1383  0.0371  0.2305
   33POPC   C2B  767   3.840   4.599   8.824  0.4134  0.1252  0.0433
   33POPC   C3B  768   3.752   4.163   8.778 -0.2870  0.0729 -0.1322
   33POPC   C4B  769   3.486   3.760   8.621 -0.1129 -0.4138  0.2608
   34POPC   NC3  770   8.138   3.296   8.267 -0.1095 -0.0687 -0.0938
   34POPC   PO4  771   7.847   3.596   8.233  0.1543 -0.0048 -0.0226
   34POPC   GL1  772   7.871   3.678   7.822  0.0963 -0.1849 -0.3122
   34POPC   GL2  773   7.530   3.699   7.627  0.1826 -0.3249  0.0685
   34POPC   C1A  774   8.093   3.630   7.475 -0.1972 -0.0426 -0.3257
   34POPC   D2A  775   8.204   3.356   7.122 -0.2277 -0.0421 -0.1789
   34POPC   C3A  776   8.337   3.636   6.783  0.1457 -0.2219  0.0174
   34POPC   C4A  777   8.193   3.710   6.386 -0.3376  0.2649  0.0412
   34POPC   C1B  778   7.207   4.039   7.514  0.0298 -0.0790 -0.0391
   34POPC   C2B  779   6.785   4.165   7.361 -0.1205  0.2955 -0.1139
   34POPC   C3B  780   6.397   4.223   7.118 -0.1185 -0.0518 -0.0233
   34POPC   C4B  781   6.035   4.437   7.127 -0.0331 -0.0157  0.1631
   35POPC   NC3  782   3.822   1.112   8.548  0.2108 -0.0093  0.0539
   35POPC   PO4  783   3.989   1.493   8.407 -0.1128 -0.0418  0.1867
   35POPC   GL1  784   4.023   1.807   8.108 -0.0924  0.1575  0.4852
   35POPC   GL2  785   4.024   2.130   8.112  0.4364 -0.0107 -0.2540
   35POPC   C1A  786   4.109   1.879   7.645  0.1044 -0.2572 -0.2173
   35POPC   D2A  787   4.391   1.821   7.310  0.1020 -0.0735 -0.1247
   35POPC   C3A  788   4.679   2.110   7.249  0.1653  0.1951 -0.2537
   35POPC   C4A  789   5.018   2.109   6.946  0.1566  0.1498  0.0065
   35POPC   C1B  790   4.223   2.512   8.003 -0.3018 -0.1231  0.0112
   35POPC   C2B  791   4.445   3.040   7.938 -0.0821  0.1446 -0.2985
   35POPC   C3B  792   4.481   3.224   7.483 -0.1106 -0.2633 -0.0859
   35POPC   C4B  793   4.564   3.256   7.056  0.0443 -0.1447  0.1795
   36POPC   NC3  794   3.623   7.350   8.810 -0.0341 -0.0919 -0.2111
   36POPC   PO4  795   4.042   7.460   8.520 -0.2179  0.0026  0.3010
   36POPC   GL1  796   4.282   7.263   8.252 -0.0865 -0.1348 -0.2935
   36POPC   GL2  797   4.313   7.439   7.975 -0.3091  0.1817 -0.1780
   36POPC   C1A  798   4.656   7.091   8.051  0.0009 -0.0883  0.4088
   36POPC   D2A  799   4.816   6.948   7.680 -0.0928  0.3673 -0.0865
   36POPC   C3A  800   4.731   6.560   7.494  0.0907 -0.0361  0.0135
   36POPC   C4A  801   4.768   6.156   7.310 -0.2400  0.1117  0.0763
   36POPC   C1B  802   4.278   7.192   7.666 -0.0669 -0.0979  0.0485
   36POPC   C2B  803   4.255   7.009   7.340  0.1391 -0.1108  0.0388
   36POPC   C3B  804   4.066   7.003   6.811 -0.4298 -0.0703 -0.1537
   36POPC   C4B  805   3.815   7.328   6.716  0.0262  0.3514 -0.2884
   37POPC   NC3  806   9.557   4.493   8.344 -0.3335  0.2645  0.1341
   37POPC   PO4  807  10.015   4.329   8.462 -0.0212  0.3434 -0.0198
   37POPC   GL1  808  10.146   4.303   8.040  0.0666  0.0686  0.3194
   37POPC   GL2  809   9.762   4.171   7.909 -0.2201 -0.3462  0.1137
   37POPC   C1A  810  10.484   4.369   7.698 -0.0289  0.1886 -0.0518
   37POPC   D2A  811  10.656   4.306   7.373  0.0303 -0.0540 -0.1853
   37POPC   C3A  812  10.717   4.515   7.017  0.1604 -0.0157  0.0985
   37POPC   C4A  813  10.584   4.534   6.605  0.3151 -0.2016 -0.1691
   37POPC   C1B  814  10.014   4.113   7.615 -0.3413  0.3635 -0.3024
   37POPC   C2B  815  10.171   4.212   7.254  0.1014 -0.0313 -0.2979
   37POPC   C3B  816  10.191   4.405   6.905  0.0454  0.1341 -0.0653
   37POPC   C4B  817   9.798   4.522   6.744  0.1032 -0.0673  0.1527
   38POPC   NC3  818   8.446   1.420   8.360  0.1930  0.1075  0.0353
   38POPC   PO4  819   8.568   1.615   7.986 -0.0383  0.2938  0.1485
   38POPC   GL1  820   8.350   1.580   7.628  0.0256 -0.0483 -0.1019
   38POPC   GL2  821   8.519   1.423   7.368 -0.4737 -0.1184 -0.0544
   38POPC   C1A  822   8.144   1.816   7.323  0.3306 -0.1011 -0.3379
   38POPC   D2A  823   7.966   1.858   6.891 -0.1657 -0.0347 -0.0035
   38POPC   C3A  824   7.695   1.908   6.572  0.1026  0.2318  0.0254
   38POPC   C4A  825   7.425   1.994   6.162  0.1384  0.3062 -0.1280
   38POPC   C1B  826   8.430   1.522   7.002 -0.0894  0.0845  0.0128
   38POPC   C2B  827   8.268   1.588   6.607 -0.0498  0.0193 -0.0229
   38POPC   C3B  828   7.997   1.482   6.358  0.1119  0.0354 -0.2489
   38POPC   C4B  829   8.035   1.490   5.991  0.0732  0.0919 -0.2973
   39POPC   NC3  830   3.505   8.219   8.335 -0.1588  0.2316 -0.2281
   39POPC   PO4  831   3.894   8.246   8.078  0.0706  0.0254 -0.0195
   39POPC   GL1  832   4.177   8.361   7.652  0.1346  0.2246 -0.0401
   39POPC   GL2  833   4.516   8.348   7.638  0.2278 -0.0691 -0.2828
   39POPC   C1A  834   4.128   7.910   7.461 -0.0946 -0.0864  0.0101
   39POPC   D2A  835   4.234   7.586   7.235 -0.0891 -0.0270  0.2178
   39POPC   C3A  836   3.838   7.287   7.206  0.0226 -0.5377  0.0247
   39POPC   C4A  837   3.601   6.918   6.918 -0.1103  0.1231 -0.0573
   39POPC   C1B  838   4.420   8.476   7.204  0.2061 -0.2308 -0.0401
   39POPC   C2B  839   4.168   8.123   6.995  0.3135 -0.1987  0.1737
   39POPC   C3B  840   3.763   7.816   6.998  0.0194 -0.2350 -0.3243
   39POPC   C4B  841   3.373   7.459   7.067 -0.1318 -0.1579  0.0488
   40POPC   NC3  842   7.307   4.814   8.795  0.3959  0.1020  0.1224
   40POPC   PO4  843   7.373   5.042   8.319  0.0817 -0.0938  0.0889
   40POPC   GL1  844   7.195   4.986   7.978  0.0955 -0.0456  0.1006
   40POPC   GL2  845   6.834   4.919   7.934 -0.0279  0.2609  0.1923
   40POPC   C1A  846   7.131   5.084   7.450 -0.3198  0.1655 -0.0002
   40POPC   D2A  847   7.202   5.271   7.089 -0.1626 -0.1342  0.2979
   40POPC   C3A  848   7.335   5.666   6.935  0.3496  0.2555  0.3114
   40POPC   C4A  849   7.430   5.746   6.501  0.0487  0.0942  0.0726
   40POPC   C1B  850   6.754   5.177   7.719  0.1689 -0.1674  0.1017
   40POPC   C2B  851   6.677   5.174   7.321  0.1318 -0.1513 -0.4610
   40POPC   C3B  852   6.484   5.124   6.954  0.1447  0.1832 -0.0724
   40POPC   C4B  853   6.512   5.287   6.443  0.1491  0.0220 -0.1110
   41POPC   NC3  854   7.430   2.776   8.294  0.0584  0.3624 -0.2305
   41POPC   PO4  855   7.867   2.832   8.177  0.3961  0.1487 -0.6066
   41POPC   GL1  856   7.800   2.774   7.765  0.0107 -0.0514  0.2077
   41POPC   GL2  857   7.463   2.679   7.814  0.1418  0.0020  0.1623
   41POPC   C1A  858   8.000   2.775   7.405  0.2154  0.0578 -0.1254
   41POPC   D2A  859   8.244   2.849   7.162 -0.3581  0.0005  0.0242
   41POPC   C3A  860   8.202   2.710   6.642  0.1381  0.1267 -0.0962
   41POPC   C4A  861   8.117   2.580   6.286  0.2117 -0.1118 -0.0275
   41POPC   C1B  862   7.335   2.915   7.465  0.2277 -0.0948  0.4845
   41POPC   C2B  863   7.055   3.291   7.319  0.0632  0.3345  0.1246
   41POPC   C3B  864   7.170   3.650   7.179 -0.1444  0.4916  0.0409
   41POPC   C4B  865   7.046   3.949   6.918  0.0285  0.0134  0.1416
   42POPC   NC3  866   9.106   0.457   7.964  0.0797 -0.0278 -0.2048
   42POPC   PO4  867   8.768   0.654   7.678 -0.0666 -0.1593  0.1558
   42POPC   GL1  868   8.664   0.532   7.329  0.2727 -0.0121  0.1704
   42POPC   GL2  869   8.592   0.154   7.211  0.2486 -0.0597 -0.0640
   42POPC   C1A  870   8.704   0.649   6.922  0.0768  0.0388 -0.2642
   42POPC   D2A  871   8.562   0.637   6.454  0.0402 -0.0843  0.1584
   42POPC   C3A  872   8.307   0.295   6.320  0.1767  0.2918 -0.0190
   42POPC   C4A  873   7.974   0.008   6.148 -0.0717 -0.0339  0.0377
   42POPC   C1B  874   8.134   0.256   7.299  0.1169 -0.0050  0.0798
   42POPC   C2B  875   7.682   0.312   7.238  0.2909 -0.0071  0.1268
   42POPC   C3B  876   7.505   0.693   7.315 -0.1117 -0.0747 -0.0203
   42POPC   C4B  877   7.472   1.169   7.221 -0.2955 -0.0176 -0.0588
   43POPC   NC3  878   1.707   9.435   8.164  0.4711 -0.1269  0.2805
   43POPC   PO4  879   1.509   9.781   8.290 -0.0796 -0.4134  0.1167
   43POPC   GL1  880   1.701  10.004   8.096 -0.2161  0.0290  0.1047
   43POPC   GL2  881   1.741  10.353   7.998 -0.4138  0.0690  0.3573
   43POPC   C1A  882   1.969  10.002   7.741  0.1053  0.0883 -0.1567
   43POPC   D2A  883   2.310  10.194   7.494  0.0259  0.1167 -0.3631
   43POPC   C3A  884   2.362  10.614   7.501  0.1325 -0.2476 -0.0264
   43POPC   C4A  885   2.710  10.826   7.689 -0.0256 -0.0024 -0.1063
   43POPC   C1B  886   1.892  10.502   7.657 -0.1073 -0.0108  0.1152
   43POPC   C2B  887   1.800  10.778   7.239 -0.1398 -0.1513 -0.0103
   43POPC   C3B  888   1.866  10.974   6.783 -0.1112 -0.1687 -0.1314
   43POPC   C4B  889   1.916  11.402   6.582 -0.2247  0.0029 -0.0770
   44POPC   NC3  890   6.347   5.784   8.523  0.4767  0.1621  0.0921
   44POPC   PO4  891   6.719   5.594   8.592  0.1806 -0.0356  0.1277
   44POPC   GL1  892   6.733   5.513   8.198  0.0039 -0.1797  0.3138
   44POPC   GL2  893   6.428   5.512   8.091  0.4871 -0.2754  0.1463
   44POPC   C1A  894   7.137   5.553   7.864  0.0406 -0.2100 -0.1279
   44POPC   D2A  895   7.453   5.371   7.696 -0.3245  0.1567 -0.2439
   44POPC   C3A  896   7.630   5.024   7.415  0.3000 -0.0669  0.0662
   44POPC   C4A  897   7.530   4.785   7.125  0.0567  0.1556  0.0209
   44POPC   C1B  898   6.309   5.524   7.705  0.1947  0.0215  0.0823
   44POPC   C2B  899   6.208   5.487   7.225 -0.0017 -0.0236 -0.0617
   44POPC   C3B  900   5.995   5.498   6.753  0.0507 -0.0735  0.1761
   44POPC   C4B  901   5.804   5.658   6.437  0.5360 -0.1585  0.1673
   45POPC   NC3  902   5.820   7.129   8.216  0.0387  0.1531 -0.0132
   45POPC   PO4  903   5.511   7.452   8.333 -0.0054  0.4531  0.0083
   45POPC   GL1  904   5.282   7.107   8.271 -0.1041  0.2835 -0.2217
   45POPC   GL2  905   5.409   7.055   7.968 -0.1470 -0.0374  0.1961
   45POPC   C1A  906   5.021   6.693   8.097  0.1998  0.3396 -0.0363
   45POPC   D2A  907   4.599   6.558   7.978 -0.2546  0.1418  0.1462
   45POPC   C3A  908   4.617   6.179   7.870 -0.1130 -0.1371  0.3202
   45POPC   C4A  909   4.467   5.781   7.592 -0.3321 -0.0981 -0.1275
   45POPC   C1B  910   5.329   7.135   7.506  0.2141 -0.0919 -0.0122
   45POPC   C2B  911   5.123   6.929   7.242  0.0331  0.3011  0.2656
   45POPC   C3B  912   4.678   6.862   7.109 -0.1459  0.0804  0.0190
   45POPC   C4B  913   4.434   6.664   6.868  0.1873 -0.0444  0.3774
   46POPC   NC3  914   8.137   9.117   7.751  0.1085 -0.4245  0.0946
   46POPC   PO4  915   7.743   9.212   8.109 -0.0721  0.2445 -0.0757
   46POPC   GL1  916   7.498   9.157   7.841  0.2163 -0.1080 -0.0545
   46POPC   GL2  917   7.608   9.199   7.493  0.4338 -0.1874  0.1648
   46POPC   C1A  918   7.199   8.948   7.638 -0.0365 -0.3610 -0.1501
   46POPC   D2A  919   6.927   8.971   7.323  0.2849 -0.2222 -0.0160
   46POPC   C3A  920   6.893   8.492   7.293  0.3608 -0.0528  0.0953
   46POPC   C4A  921   7.136   8.251   7.018  0.1575 -0.2211  0.0664
   46POPC   C1B  922   7.410   9.083   7.180  0.2158 -0.2910  0.3946
   46POPC   C2B  923   7.243   8.869   6.956 -0.0760  0.0515 -0.0664
   46POPC   C3B  924   7.053   8.578   6.642 -0.4216  0.2329  0.1020
   46POPC   C4B  925   6.916   8.211   6.378 -0.1511  0.0827  0.0672
   47POPC   NC3  926   8.781   8.230   7.952  0.1118 -0.1538  0.3059
   47POPC   PO4  927   8.380   8.049   8.106 -0.0274 -0.0810  0.0364
   47POPC   GL1  928   8.077   7.877   7.896 -0.1117 -0.2864  0.1655
   47POPC   GL2  929   8.212   7.685   7.632  0.1588  0.0657 -0.2263
   47POPC   C1A  930   7.733   7.801   7.538 -0.0506  0.0828  0.2283
   47POPC   D2A  931   7.421   8.037   7.494 -0.3101  0.1953  0.1541
   47POPC   C3A  932   7.026   8.062   7.482  0.0996 -0.1955 -0.0441
   47POPC   C4A  933   6.651   8.080   7.351 -0.2828  0.1163 -0.1388
   47POPC   C1B  934   8.528   7.749   7.301 -0.1940  0.1986 -0.0622
   47POPC   C2B  935   8.301   7.757   6.740 -0.2390  0.0633  0.2158
   47POPC   C3B  936   7.915   7.590   6.519 -0.0637  0.1228  0.1265
   47POPC   C4B  937   7.609   7.373   6.647 -0.0086 -0.0314 -0.1649
   48POPC   NC3  938   5.725   3.542   9.229  0.2578 -0.0764 -0.4544
   48POPC   PO4  939   5.261   3.404   8.972 -0.1354  0.2831  0.2237
   48POPC   GL1  940   5.157   3.558   8.561 -0.0915  0.4568 -0.0738
   48POPC   GL2  941   5.193   3.452   8.193 -0.1058 -0.1004  0.3101
   48POPC   C1A  942   4.769   3.698   8.266  0.0653 -0.0701  0.1903
   48POPC   D2A  943   4.628   3.872   7.905 -0.1235  0.1800 -0.2175
   48POPC   C3A  944   4.303   4.196   7.891  0.1925  0.3490  0.1805
   48POPC   C4A  945   3.910   4.441   7.953  0.1733  0.0465  0.0242
   48POPC   C1B  946   5.256   3.450   7.828 -0.3063 -0.0782  0.0635
   48POPC   C2B  947   5.429   3.739   7.541 -0.0176 -0.0698 -0.1590
   48POPC   C3B  948   5.689   3.795   7.228 -0.2019 -0.2070  0.0060
   48POPC   C4B  949   5.443   3.714   6.971  0.3512 -0.2439 -0.0578
   49POPC   NC3  950   4.772   9.172   8.798  0.0851  0.3666  0.4535
   49POPC   PO4  951   4.820   9.122   8.284 -0.1536 -0.0090 -0.1501
   49POPC   GL1  952   4.787   9.276   7.902  0.1625 -0.0636 -0.1193
   49POPC   GL2  953   5.103   9.398   7.897 -0.0982  0.1744  0.1282
   49POPC   C1A  954   4.664   9.140   7.422  0.0266 -0.0231  0.0999
   49POPC   D2A  955   4.679   8.952   6.988 -0.0041 -0.1050  0.3101
   49POPC   C3A  956   4.548   9.164   6.573  0.1125  0.1637  0.2747
   49POPC   C4A  957   4.600   9.516   6.358 -0.1382  0.1786 -0.1139
   49POPC   C1B  958   4.999   9.428   7.463 -0.0931 -0.0397 -0.0026
   49POPC   C2B  959   5.027   9.306   7.089  0.0514  0.1176  0.0141
   49POPC   C3B  960   5.042   9.065   6.643  0.0816 -0.0546  0.1168
   49POPC   C4B  961   4.937   9.147   6.218  0.0474 -0.0804  0.2881
   50POPC   NC3  962   0.506   6.978   7.888 -0.0919 -0.0675  0.1099
   50POPC   PO4  963   0.073   6.930   7.970 -0.0961 -0.0247 -0.2590
   50POPC   GL1  964  -0.258   7.014   7.729 -0.5363 -0.1853  0.1384
   50POPC   GL2  965  -0.346   7.329   7.674  0.2873 -0.0876 -0.1143
   50POPC   C1A  966  -0.179   6.797   7.317  0.0403  0.1658  0.0561
   50POPC   D2A  967  -0.038   6.846   7.050 -0.0917  0.0035  0.1357
   50POPC   C3A  968  -0.114   7.004   6.661 -0.1232 -0.2405  0.1095
   50POPC   C4A  969  -0.373   7.434   6.601  0.0359  0.0009 -0.2633
   50POPC   C1B  970  -0.629   7.430   7.423  0.4580  0.2604 -0.2403
   50POPC   C2B  971  -0.757   7.557   7.025  0.2288  0.1409  0.0992
   50POPC   C3B  972  -0.895   7.716   6.661  0.2357  0.3398  0.0093
   50POPC   C4B  973  -0.844   7.925   6.260 -0.0792  0.1087 -0.0758
   51POPC   NC3  974   2.787   9.592   8.239  0.1188  0.3199  0.1746
   51POPC   PO4  975   2.744   9.098   8.219 -0.0510  0.1496  0.0241
   51POPC   GL1  976   2.707   9.277   7.778 -0.2084 -0.0783  0.2467
   51POPC   GL2  977   2.978   9.271   7.742  0.0091  0.0721 -0.2432
   51POPC   C1A  978   2.526   9.035   7.365 -0.2554 -0.0763 -0.1161
   51POPC   D2A  979   2.402   8.632   7.311 -0.2580 -0.0220 -0.0631
   51POPC   C3A  980   2.577   8.523   6.881 -0.1109 -0.0562  0.1388
   51POPC   C4A  981   2.785   8.198   6.590  0.1408  0.0150 -0.2516
   51POPC   C1B  982   2.929   9.304   7.346  0.3261  0.0157  0.2180
   51POPC   C2B  983   2.936   8.918   6.975 -0.0572 -0.2142 -0.4810
   51POPC   C3B  984   2.907   8.714   6.534  0.0164 -0.4528 -0.1830
   51POPC   C4B  985   2.741   8.548   6.210  0.2525 -0.1743  0.2329
   52POPC   NC3  986   8.668   6.572   8.534  0.3347 -0.0552  0.0994
   52POPC   PO4  987   8.911   6.204   8.660 -0.1224  0.1165  0.0126
   52POPC   GL1  988   9.063   6.242   8.300 -0.0521  0.1453  0.2025
   52POPC   GL2  989   8.835   6.287   8.099 -0.2210 -0.1805  0.0038
   52POPC   C1A  990   9.181   5.996   7.863 -0.2650  0.2822  0.1660
   52POPC   D2A  991   9.070   5.756   7.410 -0.0967 -0.0492  0.0593
   52POPC   C3A  992   8.820   5.512   7.192  0.1385  0.2124 -0.0140
   52POPC   C4A  993   8.483   5.208   7.203  0.2543 -0.1109 -0.0184
   52POPC   C1B  994   8.688   6.522   7.743  0.2177 -0.0398  0.2019
   52POPC   C2B  995   8.414   6.433   7.352  0.1587 -0.2897  0.0105
   52POPC   C3B  996   8.284   6.200   6.903 -0.0475 -0.2040 -0.1300
   52POPC   C4B  997   8.245   6.048   6.444  0.1585 -0.2030  0.0881
   53POPC   NC3  998   5.778   2.789   8.698  0.2587  0.1789  0.2288
   53POPC   PO4  999   5.782   3.213   8.907  0.1156 -0.1972  0.2978
   53POPC   GL1 1000   5.659   3.233   8.480  0.2954 -0.1736 -0.1944
   53POPC   GL2 1001   5.542   3.021   8.274  0.3772 -0.0405 -0.2474
   53POPC   C1A 1002   5.658   3.428   8.117  0.1793 -0.4093 -0.2046
   53POPC   D2A 1003   5.573   3.834   8.041  0.3688  0.0217 -0.1420
   53POPC   C3A 1004   5.134   3.932   7.996 -0.3110 -0.0360  0.1985
   53POPC   C4A 1005   4.887   4.286   8.064 -0.0020  0.1322 -0.1458
   53POPC   C1B 1006   5.471   3.021   7.959 -0.0732  0.1802  0.1839
   53POPC   C2B 1007   5.245   2.785   7.696  0.1293 -0.0750 -0.0352
   53POPC   C3B 1008   4.886   2.944   7.387 -0.2219 -0.0895 -0.0984
   53POPC   C4B 1009   4.768   2.621   7.094 -0.0972 -0.0634  0.2809
   54POPC   NC3 1010   1.256   0.439   7.857 -0.1542  0.3291  0.3080
   54POPC   PO4 1011   1.036   0.110   7.575  0.3666  0.0488 -0.2919
   54POPC   GL1 1012   1.327   0.029   7.241 -0.0455  0.2226 -0.0861
   54POPC   GL2 1013   1.601   0.161   7.485 -0.0974 -0.0843 -0.1503
   54POPC   C1A 1014   1.700   0.129   6.978  0.2454  0.0394  0.0824
   54POPC   D2A 1015   1.741   0.519   6.727 -0.0536 -0.0714 -0.0001
   54POPC   C3A 1016   1.535   0.455   6.448  0.1162 -0.1043  0.2679
   54POPC   C4A 1017   1.129   0.322   6.262 -0.2181  0.0904  0.3263
   54POPC   C1B 1018   1.932   0.475   7.212  0.1985  0.1418 -0.1201
   54POPC   C2B 1019   2.087   0.791   6.924 -0.2505  0.1844 -0.2057
   54POPC   C3B 1020   2.335   1.133   6.817  0.0138 -0.0522 -0.3081
   54POPC   C4B 1021   2.309   1.209   6.354 -0.1501 -0.2257  0.0496
   55POPC   NC3 1022   3.109   1.371   8.362 -0.3086  0.1002  0.1943
   55POPC   PO4 1023   3.322   0.973   8.333 -0.0346  0.2598 -0.2276
   55POPC   GL1 1024   3.714   1.079   8.058  0.0760 -0.4613  0.1328
   55POPC   GL2 1025   3.588   1.392   8.059  0.1483  0.3095 -0.1053
   55POPC   C1A 1026   3.737   1.089   7.553  0.1352  0.1354 -0.6667
   55POPC   D2A 1027   3.579   0.954   7.189  0.1047 -0.2237 -0.3439
   55POPC   C3A 1028   3.119   1.074   7.074 -0.0701  0.2969 -0.2409
   55POPC   C4A 1029   2.713   1.234   7.225 -0.1247  0.1994  0.1831
   55POPC   C1B 1030   3.699   1.676   7.831  0.2722  0.0272 -0.0321
   55POPC   C2B 1031   3.694   2.126   7.756  0.0015  0.3376  0.2597
   55POPC   C3B 1032   3.354   2.427   7.675  0.3104  0.2019 -0.0500
   55POPC   C4B 1033   3.376   2.917   7.710 -0.0302 -0.2393 -0.0964
   56POPC   NC3 1034   0.846   0.684   8.150  0.2182  0.0927  0.1198
   56POPC   PO4 1035   0.725   0.458   7.814  0.0810  0.2966  0.0333
   56POPC   GL1 1036   0.857   0.521   7.415 -0.0699 -0.1935  0.1412
   56POPC   GL2 1037   0.604   0.265   7.308  0.0559 -0.2479  0.1092
   56POPC   C1A 1038   0.821   0.872   7.057 -0.0938 -0.2305  0.2006
   56POPC   D2A 1039   1.148   1.108   6.949 -0.0292 -0.0843  0.0556
   56POPC   C3A 1040   1.420   0.988   6.677 -0.3178 -0.1853  0.2324
   56POPC   C4A 1041   1.872   0.878   6.433 -0.1739 -0.1115  0.1343
   56POPC   C1B 1042   0.746   0.423   6.905 -0.0906  0.2364  0.0474
   56POPC   C2B 1043   0.715   0.327   6.619 -0.1351  0.1246  0.1283
   56POPC   C3B 1044   0.641   0.452   6.176  0.0707  0.0273  0.0362
   56POPC   C4B 1045   0.461   0.430   5.844  0.0978  0.1688  0.2772
   57POPC   NC3 1046   1.618   4.559   8.894 -0.0970 -0.0798 -0.0112
   57POPC   PO4 1047   1.751   4.276   8.653 -0.1976 -0.1300  0.1220
   57POPC   GL1 1048   1.900   4.080   8.273 -0.1484 -0.2439 -0.1095
   57POPC   GL2 1049   2.146   3.777   8.301  0.4112  0.0509  0.3094
   57POPC   C1A 1050   1.784   3.915   7.901  0.0945  0.1287 -0.1589
   57POPC   D2A 1051   1.768   4.084   7.508  0.1658 -0.0990 -0.0917
   57POPC   C3A 1052   1.945   3.763   7.260 -0.1185 -0.2557  0.3983
   57POPC   C4A 1053   2.280   3.790   7.249 -0.0867 -0.0804 -0.1411
   57POPC   C1B 1054   2.264   3.748   7.861  0.0171  0.0292  0.2452
   57POPC   C2B 1055   2.126   3.490   7.680 -0.0728  0.0721 -0.0424
   57POPC   C3B 1056   2.115   3.289   7.290 -0.2621  0.3258  0.1138
   57POPC   C4B 1057   2.092   3.162   6.877 -0.1422 -0.2722 -0.0160
   58POPC   NC3 1058   3.882   3.070   9.066 -0.1209  0.0704  0.1269
   58POPC   PO4 1059   4.314   3.287   8.933 -0.1092  0.4951 -0.0084
   58POPC   GL1 1060   3.937   3.397   8.651  0.0428 -0.3061  0.0399
   58POPC   GL2 1061   3.627   3.218   8.624 -0.0760  0.0934 -0.1898
   58POPC   C1A 1062   3.812   3.585   8.273  0.1034  0.2636  0.0704
   58POPC   D2A 1063   3.430   3.755   8.087 -0.0864  0.4355  0.1371
   58POPC   C3A 1064   3.098   3.626   8.346  0.1463 -0.1824  0.1138
   58POPC   C4A 1065   2.720   3.352   8.547 -0.0310 -0.1514  0.1102
   58POPC   C1B 1066   3.393   3.252   8.231 -0.3101  0.3618 -0.1162
   58POPC   C2B 1067   3.117   3.186   8.030 -0.1771 -0.0363  0.0330
   58POPC   C3B 1068   2.756   3.286   7.952  0.1582 -0.5013  0.0273
   58POPC   C4B 1069   2.407   3.355   8.166  0.4226 -0.1081 -0.1870
   59POPC   NC3 1070   6.964   3.727   8.319  0.0270  0.0449 -0.1829
   59POPC   PO4 1071   7.328   3.759   8.081  0.1264 -0.3338  0.1119
   59POPC   GL1 1072   6.895   4.033   7.884  0.1215  0.1893  0.0043
   59POPC   GL2 1073   6.904   4.330   7.887  0.2243 -0.0196 -0.2530
   59POPC   C1A 1074   6.491   4.046   7.773 -0.1389  0.0615 -0.0314
   59POPC   D2A 1075   6.133   3.939   7.509 -0.2466 -0.2416  0.1431
   59POPC   C3A 1076   5.732   4.187   7.550  0.5164  0.0188 -0.4235
   59POPC   C4A 1077   5.394   4.229   7.714 -0.0861 -0.1973  0.2055
   59POPC   C1B 1078   6.803   4.593   7.537 -0.1071 -0.2547 -0.1707
   59POPC   C2B 1079   6.932   4.753   7.108  0.1592 -0.0212 -0.2444
   59POPC   C3B 1080   7.185   4.825   6.736  0.2822 -0.0713  0.2010
   59POPC   C4B 1081   7.603   4.790   6.425 -0.2612  0.1271 -0.0009
   60POPC   NC3 1082   7.544   1.322   8.038 -0.2460  0.1814 -0.0892
   60POPC   PO4 1083   7.282   1.398   7.732  0.0178 -0.3891 -0.1597
   60POPC   GL1 1084   7.089   1.468   7.304 -0.2149  0.2345  0.0640
   60POPC   GL2 1085   6.885   1.170   7.088  0.0710 -0.3476 -0.1453
   60POPC   C1A 1086   7.114   1.593   6.906  0.3159 -0.1001 -0.1374
   60POPC   D2A 1087   7.201   1.601   6.439  0.0301  0.1389 -0.0943
   60POPC   C3A 1088   7.508   1.495   6.075 -0.0454  0.2581 -0.2100
   60POPC   C4A 1089   7.669   1.630   5.740  0.0903 -0.1653 -0.0512
   60POPC   C1B 1090   7.062   0.836   7.147  0.0928  0.2199  0.0767
   60POPC   C2B 1091   7.183   0.449   6.941  0.2138  0.0699  0.0427
   60POPC   C3B 1092   7.293   0.175   6.650 -0.0070  0.2517  0.1860
   60POPC   C4B 1093   7.437  -0.011   6.270 -0.2635  0.0517 -0.0300
   61POPC   NC3 1094   2.203   2.011   8.058  0.1449  0.1264 -0.2549
   61POPC   PO4 1095   2.199   1.566   8.195 -0.0722 -0.0379 -0.0998
   61POPC   GL1 1096   2.313   1.543   7.805  0.1201  0.2225 -0.2985
   61POPC   GL2 1097   2.031   1.471   7.601  0.3512 -0.1215 -0.0960
   61POPC   C1A 1098   2.557   1.710   7.469 -0.1576  0.3911 -0.0907
   61POPC   D2A 1099   2.952   1.659   7.287  0.0228  0.2573 -0.2187
   61POPC   C3A 1100   3.045   1.602   6.922 -0.3829 -0.2395  0.0962
   61POPC   C4A 1101   3.091   1.513   6.489 -0.2459  0.0959 -0.1050
   61POPC   C1B 1102   2.196   1.461   7.175 -0.0186 -0.0899  0.0683
   61POPC   C2B 1103   2.465   1.623   6.948  0.0852  0.3300 -0.2094
   61POPC   C3B 1104   2.657   1.501   6.668  0.1168 -0.0764  0.1047
   61POPC   C4B 1105   2.828   1.124   6.615 -0.1102  0.1695 -0.5162
   62POPC   NC3 1106   1.370   3.334   8.571  0.0727 -0.0735 -0.0321
   62POPC   PO4 1107   1.350   3.759   8.796 -0.1137  0.1496 -0.1219
   62POPC   GL1 1108   1.277   3.813   8.356  0.0689 -0.2079 -0.2617
   62POPC   GL2 1109   1.388   4.147   8.312 -0.0794  0.2206  0.0054
   62POPC   C1A 1110   1.260   3.832   7.804 -0.0817 -0.0118 -0.0296
   62POPC   D2A 1111   1.290   3.787   7.440 -0.1107  0.0624  0.0437
   62POPC   C3A 1112   1.393   3.981   7.131  0.0048  0.2459  0.0992
   62POPC   C4A 1113   1.410   4.261   6.770 -0.2659  0.0821  0.2288
   62POPC   C1B 1114   1.368   4.326   7.837  0.1932  0.0759  0.1216
   62POPC   C2B 1115   1.426   4.466   7.369 -0.0134 -0.1795 -0.3030
   62POPC   C3B 1116   1.667   4.596   6.987  0.0530 -0.0489  0.0102
   62POPC   C4B 1117   1.829   4.746   6.492  0.0828  0.0934  0.1982
   63POPC   NC3 1118   0.814   3.682   8.712  0.1055  0.2585 -0.2223
   63POPC   PO4 1119   0.842   3.340   8.487 -0.0110 -0.0031  0.0248
   63POPC   GL1 1120   0.952   3.571   8.065 -0.1073 -0.1127 -0.0382
   63POPC   GL2 1121   0.740   3.718   7.770 -0.2420 -0.1225  0.2915
   63POPC   C1A 1122   1.068   3.403   7.639 -0.1159  0.1753  0.0854
   63POPC   D2A 1123   1.005   3.443   7.282 -0.0760  0.1677 -0.2291
   63POPC   C3A 1124   1.125   3.348   6.929 -0.0332 -0.2127  0.1669
   63POPC   C4A 1125   1.168   3.242   6.481  0.0176 -0.0032  0.1591
   63POPC   C1B 1126   0.776   3.836   7.372 -0.2496 -0.1120  0.0680
   63POPC   C2B 1127   0.816   3.855   6.893 -0.1183  0.2109  0.0999
   63POPC   C3B 1128   0.825   4.014   6.514  0.0339  0.0358 -0.0736
   63POPC   C4B 1129   1.038   4.147   6.208  0.1599  0.0868 -0.0717
   64POPC   NC3 1130   6.128   1.710   7.914  0.1024 -0.1623 -0.1868
   64POPC   PO4 1131   5.570   1.616   7.927 -0.1289 -0.0388  0.0750
   64POPC   GL1 1132   5.370   1.883   7.713  0.0286 -0.0073 -0.2961
   64POPC   GL2 1133   5.463   1.765   7.358  0.0690  0.0290 -0.1200
   64POPC   C1A 1134   5.663   2.150   7.499 -0.6792  0.0718  0.0139
   64POPC   D2A 1135   6.003   2.347   7.236 -0.0398 -0.0870  0.0738
   64POPC   C3A 1136   5.927   2.519   6.798  0.0682  0.1638 -0.1474
   64POPC   C4A 1137   5.622   2.687   6.496 -0.1732  0.3892 -0.0425
   64POPC   C1B 1138   5.440   1.799   6.883  0.1194  0.4444  0.0724
   64POPC   C2B 1139   5.289   1.626   6.468 -0.0839  0.1206 -0.1337
   64POPC   C3B 1140   5.259   1.569   6.031  0.2292 -0.2355 -0.2782
   64POPC   C4B 1141   5.119   1.250   5.810 -0.3281  0.1044 -0.2687
   65POPC   NC3 1142   0.924   7.316   8.307 -0.1133  0.3214 -0.0274
   65POPC   PO4 1143   0.628   7.444   7.952  0.1396 -0.1646  0.2829
   65POPC   GL1 1144   0.781   7.292   7.564 -0.1184  0.1928 -0.0405
   65POPC   GL2 1145   1.054   7.045   7.550 -0.2636  0.3361  0.3626
   65POPC   C1A 1146   0.674   7.075   7.167 -0.0939 -0.0784 -0.0248
   65POPC   D2A 1147   0.901   6.781   6.901  0.1905  0.0386  0.0863
   65POPC   C3A 1148   1.232   6.801   6.686  0.0694  0.3148  0.0570
   65POPC   C4A 1149   1.637   6.706   6.603  0.0270 -0.1557  0.3537
   65POPC   C1B 1150   1.305   6.940   7.184  0.0976 -0.1441  0.0090
   65POPC   C2B 1151   1.583   7.156   6.932  0.3112 -0.2014  0.1064
   65POPC   C3B 1152   1.855   7.267   6.568  0.0265  0.1585 -0.0503
   65POPC   C4B 1153   2.211   7.340   6.321  0.1431 -0.0993  0.0040
   66POPC   NC3 1154   7.695   4.082   8.087  0.1856 -0.2616 -0.0937
   66POPC   PO4 1155   7.315   4.206   8.236  0.1625 -0.1564 -0.3169
   66POPC   GL1 1156   7.431   4.516   7.975  0.0533  0.2001 -0.2463
   66POPC   GL2 1157   7.698   4.660   7.834  0.1454  0.0127  0.0437
   66POPC   C1A 1158   7.329   4.532   7.504  0.2118 -0.0370 -0.0925
   66POPC   D2A 1159   7.232   4.387   7.111 -0.3550 -0.0532  0.0089
   66POPC   C3A 1160   7.437   4.352   6.673  0.4694 -0.2894  0.0207
   66POPC   C4A 1161   7.790   4.096   6.545 -0.0883 -0.0846 -0.1619
   66POPC   C1B 1162   8.000   4.601   7.481 -0.2127 -0.1655  0.1595
   66POPC   C2B 1163   8.046   4.892   7.137  0.0280  0.1128 -0.0267
   66POPC   C3B 1164   8.004   5.142   6.815  0.1910  0.3941 -0.3048
   66POPC   C4B 1165   7.873   5.492   6.701  0.3354 -0.0432 -0.0933
   67POPC   NC3 1166   4.252   9.191   8.062  0.0677  0.0266 -0.0514
   67POPC   PO4 1167   4.051   8.771   7.913 -0.5826  0.1267 -0.0012
   67POPC   GL1 1168   4.093   8.955   7.499  0.1677  0.2074 -0.0647
   67POPC   GL2 1169   3.746   9.148   7.377 -0.2572  0.0171  0.0626
   67POPC   C1A 1170   4.211   9.141   7.100 -0.0853 -0.0838  0.1205
   67POPC   D2A 1171   4.251   9.449   6.796 -0.0464  0.1494  0.0506
   67POPC   C3A 1172   4.112   9.395   6.375 -0.2092  0.0695  0.0105
   67POPC   C4A 1173   4.031   9.536   5.915  0.2784  0.1449 -0.1557
   67POPC   C1B 1174   3.719   8.782   7.120 -0.4247  0.2383  0.0631
   67POPC   C2B 1175   4.075   8.667   6.810  0.1829  0.0333  0.0835
   67POPC   C3B 1176   4.090   8.832   6.329 -0.1777 -0.2439 -0.3131
   67POPC   C4B 1177   4.038   8.581   5.999 -0.2344  0.0478 -0.1507
   68POPC   NC3 1178   1.916   6.067   8.392 -0.0224 -0.0178  0.0121
   68POPC   PO4 1179   1.752   5.656   8.169  0.0765 -0.3473 -0.1117
   68POPC   GL1 1180   1.967   5.987   7.801 -0.1566 -0.1414 -0.1590
   68POPC   GL2 1181   2.070   6.307   7.910  0.5121  0.1018 -0.2319
   68POPC   C1A 1182   1.815   6.241   7.385 -0.3722 -0.0760  0.1310
   68POPC   D2A 1183   1.884   6.419   6.945  0.0137 -0.0755 -0.3070
   68POPC   C3A 1184   1.957   6.300   6.595 -0.0255 -0.0907 -0.0100
   68POPC   C4A 1185   2.191   6.108   6.399  0.1903 -0.0882 -0.0860
   68POPC   C1B 1186   2.181   6.493   7.577  0.2390 -0.0329 -0.0708
   68POPC   C2B 1187   2.260   6.547   7.233 -0.3882 -0.0046 -0.0150
   68POPC   C3B 1188   2.393   6.436   6.865 -0.0115  0.0666  0.0636
   68POPC   C4B 1189   2.665   6.492   6.587 -0.2970 -0.0852  0.1199
   69POPC   NC3 1190   0.288   1.600   7.828  0.0998  0.0090  0.1939
   69POPC   PO4 1191   0.270   1.829   7.393 -0.2333 -0.3592  0.0773
   69POPC   GL1 1192   0.380   2.082   6.899  0.1952  0.0764 -0.3097
   69POPC   GL2 1193   0.643   1.860   6.720  0.1821 -0.2364 -0.2798
   69POPC   C1A 1194   0.351   2.185   6.522  0.2925 -0.3298  0.2325
   69POPC   D2A 1195   0.398   2.251   6.147  0.1668 -0.0337 -0.0685
   69POPC   C3A 1196   0.550   2.599   6.089 -0.1891  0.1284 -0.1505
   69POPC   C4A 1197   1.033   2.757   6.258  0.0903 -0.2454  0.3819
   69POPC   C1B 1198   1.038   1.754   6.499  0.0366 -0.4553 -0.0021
   69POPC   C2B 1199   1.447   1.861   6.320  0.2766  0.3780  0.2274
   69POPC   C3B 1200   1.805   2.145   6.383 -0.2083 -0.1217 -0.0600
   69POPC   C4B 1201   1.809   2.617   6.403  0.2055 -0.2368  0.1074
   70POPC   NC3 1202   3.455   5.678   9.504 -0.4448  0.2198 -0.0630
   70POPC   PO4 1203   3.262   5.291   9.429 -0.1116 -0.0472 -0.2161
   70POPC   GL1 1204   3.333   5.224   9.052 -0.0976  0.2655  0.2334
   70POPC   GL2 1205   3.064   5.021   9.006 -0.3117  0.0618 -0.1431
   70POPC   C1A 1206   3.391   5.286   8.639 -0.2296  0.0999  0.0685
   70POPC   D2A 1207   3.277   5.336   8.219  0.1892  0.2960 -0.3201
   70POPC   C3A 1208   3.212   5.205   7.713  0.1182 -0.4230 -0.1009
   70POPC   C4A 1209   3.406   5.019   7.465 -0.3422 -0.0100  0.2520
   70POPC   C1B 1210   3.355   4.765   8.659  0.3326 -0.0237 -0.0955
   70POPC   C2B 1211   3.728   4.687   8.338  0.0333 -0.3251  0.0872
   70POPC   C3B 1212   4.112   4.884   8.126  0.1021 -0.0808 -0.0263
   70POPC   C4B 1213   4.585   5.123   8.001 -0.2076 -0.1482 -0.2892
   71POPC   NC3 1214   7.641   7.415   8.458  0.1850  0.0345  0.2254
   71POPC   PO4 1215   7.272   7.319   8.333  0.0491  0.0733  0.1133
   71POPC   GL1 1216   7.139   7.182   7.801 -0.0645  0.0445 -0.0836
   71POPC   GL2 1217   7.118   6.828   7.701 -0.0884 -0.0910 -0.1825
   71POPC   C1A 1218   7.292   7.430   7.548  0.1789 -0.3234 -0.4317
   71POPC   D2A 1219   7.256   7.690   7.169  0.1143  0.0710 -0.1977
   71POPC   C3A 1220   7.670   7.738   7.031 -0.4248  0.0052 -0.0242
   71POPC   C4A 1221   7.886   8.080   6.724  0.0075  0.0997 -0.0576
   71POPC   C1B 1222   7.114   6.982   7.321 -0.0000 -0.0002  0.0168
   71POPC   C2B 1223   7.297   6.749   6.962  0.2077  0.1136 -0.2461
   71POPC   C3B 1224   7.418   6.328   6.887  0.3592 -0.2641 -0.0224
   71POPC   C4B 1225   7.732   6.032   6.728 -0.0407 -0.2071 -0.0404
   72POPC   NC3 1226   0.753   2.970   8.147  0.1127 -0.2459  0.4233
   72POPC   PO4 1227   1.205   3.007   8.211 -0.2972 -0.0431 -0.0234
   72POPC   GL1 1228   1.462   3.018   7.806 -0.2672  0.0204 -0.1778
   72POPC   GL2 1229   1.218   2.930   7.624  0.1250  0.3233  0.0726
   72POPC   C1A 1230   1.641   2.801   7.381 -0.0176 -0.2082 -0.0755
   72POPC   D2A 1231   1.800   2.717   7.040 -0.0363 -0.1258  0.1085
   72POPC   C3A 1232   1.653   2.996   6.727 -0.2365 -0.2879 -0.2420
   72POPC   C4A 1233   1.525   2.935   6.168 -0.2130 -0.3054 -0.5931
   72POPC   C1B 1234   1.277   2.938   7.070  0.0566  0.3906 -0.4187
   72POPC   C2B 1235   1.020   2.821   6.764 -0.1947 -0.4435 -0.1478
   72POPC   C3B 1236   0.695   2.663   6.562 -0.0964 -0.0095 -0.1300
   72POPC   C4B 1237   0.353   2.931   6.800 -0.1450  0.2015  0.1265
   73POPC   NC3 1238   0.396   8.684   7.570 -0.1249 -0.2561  0.3214
   73POPC   PO4 1239   0.423   9.115   7.794  0.0372 -0.2817  0.0532
   73POPC   GL1 1240   0.363   9.144   7.321 -0.4362  0.0399  0.0541
   73POPC   GL2 1241   0.518   8.915   7.157  0.2386 -0.1229 -0.4458
   73POPC   C1A 1242   0.120   9.265   6.911  0.1468  0.1330  0.2641
   73POPC   D2A 1243   0.211   9.443   6.404  0.2432  0.0785  0.2061
   73POPC   C3A 1244   0.357   9.124   6.194 -0.1599  0.0767  0.2222
   73POPC   C4A 1245   0.507   8.931   5.809 -0.2022  0.2291 -0.0776
   73POPC   C1B 1246   0.572   8.882   6.698  0.1557  0.2840  0.2099
   73POPC   C2B 1247   0.558   8.652   6.248  0.1125 -0.0488 -0.1615
   73POPC   C3B 1248   0.854   8.427   5.968  0.2307  0.3120 -0.1086
   73POPC   C4B 1249   1.198   8.317   5.847  0.0345 -0.1598  0.0155
   74POPC   NC3 1250   1.498   6.900   8.195 -0.0614 -0.1942  0.0772
   74POPC   PO4 1251   1.027   6.935   8.026 -0.1456  0.2431  0.1825
   74POPC   GL1 1252   1.133   6.659   7.824 -0.2814  0.3704  0.2732
   74POPC   GL2 1253   1.411   6.666   7.587  0.0525 -0.1967  0.2146
   74POPC   C1A 1254   0.936   6.607   7.407  0.0678  0.0371 -0.1175
   74POPC   D2A 1255   0.484   6.561   7.129 -0.0986 -0.2460  0.0502
   74POPC   C3A 1256   0.554   6.417   6.783 -0.0924  0.0775  0.1101
   74POPC   C4A 1257   0.623   6.040   6.495 -0.5152  0.2494 -0.0911
   74POPC   C1B 1258   1.771   6.824   7.556  0.3598  0.3417 -0.1300
   74POPC   C2B 1259   1.951   7.024   7.230  0.0448 -0.0086 -0.2729
   74POPC   C3B 1260   2.127   6.923   6.816 -0.1275  0.0947  0.1793
   74POPC   C4B 1261   2.364   6.910   6.530 -0.0644 -0.0186 -0.3079
   75POPC   NC3 1262   0.446   0.780   7.585 -0.0174  0.1020 -0.0633
   75POPC   PO4 1263   0.483   1.204   7.527  0.2876 -0.1071  0.0842
   75POPC   GL1 1264   0.386   1.413   7.110 -0.2157  0.4533  0.1228
   75POPC   GL2 1265   0.693   1.611   7.128  0.0245  0.1441 -0.0897
   75POPC   C1A 1266   0.214   1.572   6.719  0.2127 -0.2450  0.1766
   75POPC   D2A 1267   0.086   1.818   6.338 -0.0620  0.2527 -0.0459
   75POPC   C3A 1268  -0.315   1.597   6.026  0.3850 -0.0044 -0.0632
   75POPC   C4A 1269  -0.746   1.596   5.975 -0.2364  0.2712  0.2573
   75POPC   C1B 1270   0.765   1.382   6.712 -0.2070 -0.0939 -0.2435
   75POPC   C2B 1271   0.726   1.289   6.344 -0.0365 -0.1134  0.2183
   75POPC   C3B 1272   1.061   1.378   6.099 -0.3077 -0.1756  0.0381
   75POPC   C4B 1273   1.498   1.494   5.939 -0.0869 -0.0287  0.0173
   76POPC   NC3 1274   0.040   9.463   7.752  0.1447 -0.1005 -0.1217
   76POPC   PO4 1275  -0.321   9.468   7.624  0.2538  0.0322  0.0616
   76POPC   GL1 1276  -0.176   9.539   7.254 -0.0758 -0.0911  0.1435
   76POPC   GL2 1277   0.212   9.645   7.248 -0.2458  0.3445  0.2239
   76POPC   C1A 1278  -0.163   9.587   6.748  0.1427  0.1092  0.1253
   76POPC   D2A 1279  -0.233   9.893   6.363  0.1092 -0.0632 -0.3556
   76POPC   C3A 1280  -0.435   9.651   5.948  0.1459 -0.1646 -0.0304
   76POPC   C4A 1281  -0.726   9.677   5.684 -0.2184 -0.0010 -0.0049
   76POPC   C1B 1282   0.328   9.716   6.874  0.1333 -0.1967  0.3560
   76POPC   C2B 1283   0.243   9.931   6.370  0.0048  0.1094 -0.0506
   76POPC   C3B 1284  -0.017  10.161   5.928  0.1810 -0.0159  0.3318
   76POPC   C4B 1285  -0.276  10.620   5.957 -0.3723  0.1337  0.0780
   77POPC   NC3 1286   8.288   2.670   8.596  0.2833 -0.1690  0.0795
   77POPC   PO4 1287   8.444   2.912   8.297  0.0007 -0.0145  0.0752
   77POPC   GL1 1288   8.465   2.857   7.886 -0.3856 -0.0088  0.3728
   77POPC   GL2 1289   8.693   3.106   7.820  0.2096  0.0815  0.0221
   77POPC   C1A 1290   8.364   2.536   7.628 -0.0073  0.0184 -0.2680
   77POPC   D2A 1291   8.280   2.358   7.243 -0.1128 -0.1203  0.0143
   77POPC   C3A 1292   7.910   2.362   6.997  0.0579 -0.1488  0.0904
   77POPC   C4A 1293   7.781   2.424   6.628 -0.0931 -0.1946  0.0856
   77POPC   C1B 1294   8.528   3.266   7.471  0.0538  0.0895  0.2049
   77POPC   C2B 1295   8.654   3.166   6.990  0.0293 -0.1001 -0.0577
   77POPC   C3B 1296   8.379   3.157   6.623 -0.2360 -0.0841  0.1609
   77POPC   C4B 1297   7.960   3.265   6.324 -0.0270  0.1135  0.0173
   78POPC   NC3 1298   7.225   6.078   8.641 -0.1030 -0.5332 -0.0092
   78POPC   PO4 1299   7.525   6.085   8.223 -0.3530 -0.4420 -0.4355
   78POPC   GL1 1300   7.659   6.359   7.987  0.0022  0.1100  0.0453
   78POPC   GL2 1301   7.859   6.681   7.976  0.0445 -0.0649 -0.0172
   78POPC   C1A 1302   7.516   6.343   7.506  0.0790  0.1457 -0.0909
   78POPC   D2A 1303   7.198   6.427   7.361 -0.0519 -0.3616 -0.0792
   78POPC   C3A 1304   7.001   6.120   7.248 -0.0093  0.0859 -0.0197
   78POPC   C4A 1305   7.319   5.844   7.444  0.1318  0.0148 -0.0478
   78POPC   C1B 1306   8.026   6.589   7.570  0.1929  0.1562  0.1008
   78POPC   C2B 1307   7.923   6.314   7.221  0.0709  0.2551  0.0565
   78POPC   C3B 1308   7.944   5.857   7.159  0.0355  0.2232 -0.3329
   78POPC   C4B 1309   7.760   5.452   7.182 -0.2185 -0.1273 -0.2174
   79POPC   NC3 1310   8.960   0.190   7.569  0.1210 -0.0435 -0.1201
   79POPC   PO4 1311   8.648  -0.227   7.667 -0.1434 -0.1328  0.1270
   79POPC   GL1 1312   8.283  -0.224   7.445  0.2100  0.3234 -0.0315
   79POPC   GL2 1313   7.978  -0.216   7.458 -0.0446 -0.1316 -0.1449
   79POPC   C1A 1314   8.087  -0.097   6.968  0.0452  0.0111  0.1372
   79POPC   D2A 1315   7.916   0.181   6.649 -0.0030 -0.1182 -0.0198
   79POPC   C3A 1316   7.638   0.530   6.757 -0.2212 -0.1069  0.1002
   79POPC   C4A 1317   7.358   0.661   6.505 -0.1165 -0.3867 -0.0232
   79POPC   C1B 1318   7.983  -0.531   7.111  0.1342 -0.2286  0.1111
   79POPC   C2B 1319   7.802  -0.949   7.111 -0.3168 -0.3078 -0.0619
   79POPC   C3B 1320   7.554  -1.294   6.923 -0.3926 -0.0542  0.0816
   79POPC   C4B 1321   7.381  -1.544   6.568  0.2333 -0.0787 -0.0721
   80POPC   NC3 1322   7.269   9.616   8.065 -0.3992 -0.0324  0.3480
   80POPC   PO4 1323   6.905   9.953   8.138  0.1030 -0.3721 -0.1717
   80POPC   GL1 1324   6.877   9.738   7.803  0.3223  0.3935 -0.0931
   80POPC   GL2 1325   6.599   9.921   7.689 -0.0493  0.1931 -0.0156
   80POPC   C1A 1326   6.899   9.496   7.437  0.2497  0.2953  0.1641
   80POPC   D2A 1327   6.956   9.331   7.025  0.1945  0.3295  0.1471
   80POPC   C3A 1328   7.174   9.355   6.673 -0.0003  0.0176 -0.1120
   80POPC   C4A 1329   6.993   9.525   6.358 -0.2632 -0.0940 -0.1030
   80POPC   C1B 1330   6.500   9.749   7.306  0.1797  0.0314 -0.1017
   80POPC   C2B 1331   6.456   9.391   7.018 -0.1040 -0.0249 -0.0518
   80POPC   C3B 1332   6.199   9.092   6.813  0.1664 -0.0626  0.3048
   80POPC   C4B 1333   5.884   9.029   6.531 -0.0050  0.1641  0.2314
   81POPC   NC3 1334   1.932   5.182   8.697  0.1075  0.0391 -0.0113
   81POPC   PO4 1335   2.328   5.490   8.952  0.0226  0.0219 -0.2231
   81POPC   GL1 1336   2.321   5.543   8.466  0.0276 -0.1025 -0.0165
   81POPC   GL2 1337   2.463   5.194   8.386  0.1356 -0.0909 -0.0558
   81POPC   C1A 1338   2.466   5.630   8.019 -0.0812 -0.1080  0.1754
   81POPC   D2A 1339   2.259   5.621   7.630  0.0105 -0.0460 -0.1371
   81POPC   C3A 1340   1.861   5.320   7.572 -0.1050  0.2118  0.2955
   81POPC   C4A 1341   1.573   4.970   7.562  0.3539  0.1754 -0.2424
   81POPC   C1B 1342   2.821   5.285   8.079  0.2501  0.0024  0.0053
   81POPC   C2B 1343   2.774   5.538   7.641 -0.1695 -0.0434 -0.4117
   81POPC   C3B 1344   2.901   5.886   7.407 -0.0164  0.0956  0.0926
   81POPC   C4B 1345   3.208   6.176   7.507  0.1384 -0.1948 -0.3331
   82POPC   NC3 1346   5.685   4.954   9.297  0.0822  0.0961  0.0756
   82POPC   PO4 1347   5.585   5.361   9.010 -0.0491  0.0739  0.2408
   82POPC   GL1 1348   5.587   5.418   8.542  0.1891 -0.2283 -0.2795
   82POPC   GL2 1349   5.818   5.745   8.493  0.1212  0.0750  0.0910
   82POPC   C1A 1350   5.512   5.196   8.059  0.1818  0.1670 -0.0658
   82POPC   D2A 1351   5.370   4.863   7.966 -0.0924  0.1536 -0.1217
   82POPC   C3A 1352   5.365   4.450   8.156 -0.3568  0.0599 -0.3751
   82POPC   C4A 1353   5.269   4.044   8.456 -0.1553  0.2836  0.1316
   82POPC   C1B 1354   5.912   5.563   8.039 -0.1374 -0.0136 -0.2406
   82POPC   C2B 1355   5.904   5.341   7.660  0.2403 -0.1595 -0.1058
   82POPC   C3B 1356   5.723   5.036   7.539 -0.3666 -0.1783  0.0575
   82POPC   C4B 1357   5.590   4.686   7.562  0.0181  0.4700  0.3324
   83POPC   NC3 1358   1.234   4.560   8.522 -0.0542  0.0170  0.2488
   83POPC   PO4 1359   1.506   4.816   8.510 -0.0831  0.1487 -0.2489
   83POPC   GL1 1360   1.430   4.960   8.072 -0.3927  0.0848  0.1261
   83POPC   GL2 1361   1.546   5.281   7.939  0.0422 -0.1029  0.2515
   83POPC   C1A 1362   1.145   4.823   7.736  0.1435  0.0275  0.0947
   83POPC   D2A 1363   1.121   4.919   7.323 -0.3166 -0.0313  0.0957
   83POPC   C3A 1364   1.596   5.082   7.100 -0.0758  0.1121 -0.0575
   83POPC   C4A 1365   1.593   5.246   6.687 -0.0542 -0.2727 -0.4080
   83POPC   C1B 1366   1.315   5.359   7.494 -0.1295  0.1341 -0.2087
   83POPC   C2B 1367   1.466   5.553   7.129 -0.1187  0.0374 -0.2401
   83POPC   C3B 1368   1.424   5.995   7.072  0.0736 -0.3144 -0.0970
   83POPC   C4B 1369   1.340   6.436   7.066 -0.1034  0.1780 -0.2611
   84POPC   NC3 1370   9.213   3.872   8.808 -0.3357  0.0766  0.0047
   84POPC   PO4 1371   9.218   3.746   8.403 -0.3166  0.0127 -0.0178
   84POPC   GL1 1372   9.313   3.756   7.992  0.0625  0.2194 -0.0799
   84POPC   GL2 1373   9.106   3.612   7.703  0.2631  0.0549  0.1083
   84POPC   C1A 1374   9.225   4.119   7.616  0.0131 -0.2180 -0.0775
   84POPC   D2A 1375   9.127   4.044   7.219 -0.2838 -0.3548 -0.1956
   84POPC   C3A 1376   9.125   4.361   6.948 -0.0843 -0.0178  0.0883
   84POPC   C4A 1377   8.970   4.603   6.590  0.0404  0.1583  0.2783
   84POPC   C1B 1378   8.961   3.553   7.252 -0.1172  0.0598 -0.6278
   84POPC   C2B 1379   8.861   3.695   6.900  0.2252  0.0783  0.1730
   84POPC   C3B 1380   8.698   3.803   6.451 -0.0505  0.1286 -0.2743
   84POPC   C4B 1381   8.522   3.829   6.037 -0.5314  0.1639 -0.3463
   85POPC   NC3 1382   0.295   3.421   8.542 -0.0381 -0.2417  0.0717
   85POPC   PO4 1383   0.446   3.349   8.113  0.1361 -0.1614 -0.0425
   85POPC   GL1 1384   0.150   3.681   7.860  0.1273 -0.1065  0.1072
   85POPC   GL2 1385  -0.097   3.411   7.744  0.1036  0.0964  0.0541
   85POPC   C1A 1386  -0.071   3.802   7.508 -0.2740  0.0588 -0.1346
   85POPC   D2A 1387  -0.179   3.697   7.202 -0.0223  0.3878 -0.0329
   85POPC   C3A 1388  -0.366   3.602   6.852 -0.2678 -0.0011  0.1816
   85POPC   C4A 1389  -0.579   3.493   6.521  0.1608 -0.2190  0.1491
   85POPC   C1B 1390  -0.128   3.250   7.463 -0.1400 -0.2027  0.1828
   85POPC   C2B 1391   0.103   3.284   7.074  0.1877 -0.1625  0.1445
   85POPC   C3B 1392   0.208   3.418   6.640 -0.0615 -0.1625 -0.1911
   85POPC   C4B 1393  -0.069   3.634   6.439 -0.3583 -0.0148  0.0477
   86POPC   NC3 1394   0.062   7.417   7.942  0.0329  0.0806 -0.3536
   86POPC   PO4 1395   0.341   7.831   7.724  0.0216  0.0864  0.1066
   86POPC   GL1 1396   0.126   7.523   7.417  0.1600  0.0177 -0.0975
   86POPC   GL2 1397   0.200   7.185   7.533  0.1293 -0.2601  0.0407
   86POPC   C1A 1398  -0.186   7.360   7.177  0.3897  0.1459 -0.0720
   86POPC   D2A 1399  -0.479   7.116   6.994  0.0805 -0.2439 -0.0492
   86POPC   C3A 1400  -0.697   7.078   6.523 -0.0087  0.0149  0.1363
   86POPC   C4A 1401  -1.113   6.899   6.334 -0.2006 -0.0710 -0.1900
   86POPC   C1B 1402   0.248   7.239   7.026 -0.1049  0.0248  0.0579
   86POPC   C2B 1403   0.390   6.908   6.720  0.3220  0.0928 -0.3371
   86POPC   C3B 1404   0.442   6.859   6.290  0.1216  0.0002  0.1509
   86POPC   C4B 1405   0.662   6.952   5.930 -0.4084 -0.0694  0.2471
   87POPC   NC3 1406   2.309   8.896   7.958  0.2148 -0.0798  0.1479
   87POPC   PO4 1407   2.249   9.320   8.174 -0.1084  0.1082  0.0048
   87POPC   GL1 1408   2.150   9.330   7.753  0.1450  0.0195 -0.1854
   87POPC   GL2 1409   1.836   9.467   7.681  0.0437  0.1033  0.0219
   87POPC   C1A 1410   2.294   9.497   7.365  0.3250 -0.1250 -0.2369
   87POPC   D2A 1411   2.384   9.903   7.093 -0.1942  0.0884 -0.1009
   87POPC   C3A 1412   2.202  10.085   6.716 -0.0643  0.0036 -0.2954
   87POPC   C4A 1413   2.099  10.159   6.282 -0.0389  0.1359 -0.2295
   87POPC   C1B 1414   1.843   9.433   7.224  0.1580  0.1315  0.1339
   87POPC   C2B 1415   2.123   9.579   6.808  0.2477 -0.2974 -0.0057
   87POPC   C3B 1416   2.433   9.660   6.484 -0.0585 -0.4344 -0.3554
   87POPC   C4B 1417   2.629   9.984   6.377  0.0006 -0.2659 -0.0266
   88POPC   NC3 1418   8.339   0.910   8.352  0.0265  0.0119  0.0842
   88POPC   PO4 1419   8.228   0.647   7.922 -0.2158 -0.3062  0.0413
   88POPC   GL1 1420   8.261   0.864   7.456  0.1462 -0.0192  0.0414
   88POPC   GL2 1421   7.920   0.882   7.460  0.0260 -0.0140  0.1219
   88POPC   C1A 1422   8.422   0.988   7.106  0.0976  0.2225 -0.0763
   88POPC   D2A 1423   8.399   1.047   6.698 -0.0641 -0.0871 -0.2334
   88POPC   C3A 1424   8.476   1.258   6.270 -0.0225  0.0932  0.0723
   88POPC   C4A 1425   8.469   1.683   6.120  0.3045  0.0273  0.2604
   88POPC   C1B 1426   7.935   0.857   7.106  0.0700 -0.1849 -0.1383
   88POPC   C2B 1427   8.187   0.595   6.888  0.2403 -0.3651  0.3839
   88POPC   C3B 1428   8.369   0.271   6.802  0.0047 -0.1214 -0.0708
   88POPC   C4B 1429   8.598  -0.044   6.692  0.0821  0.0530  0.2067
   89POPC   NC3 1430   4.810   0.062   7.974  0.0941  0.3422  0.2973
   89POPC   PO4 1431   4.529   0.439   7.868  0.1492 -0.2455  0.0317
   89POPC   GL1 1432   4.627   0.754   7.562 -0.1707 -0.0809 -0.0087
   89POPC   GL2 1433   4.569   1.036   7.586 -0.2086 -0.1841 -0.2187
   89POPC   C1A 1434   4.438   0.711   7.173  0.1894  0.0436 -0.2263
   89POPC   D2A 1435   4.257   0.875   6.775 -0.1192  0.0395  0.2269
   89POPC   C3A 1436   3.884   0.771   6.752 -0.2222  0.1439 -0.0922
   89POPC   C4A 1437   3.677   0.514   6.888 -0.0775 -0.1036 -0.0893
   89POPC   C1B 1438   4.497   1.283   7.168 -0.3176  0.0282  0.0043
   89POPC   C2B 1439   4.478   1.329   6.784 -0.0437 -0.0741  0.2905
   89POPC   C3B 1440   4.285   1.283   6.378  0.0002  0.0389 -0.1285
   89POPC   C4B 1441   3.977   1.494   6.138  0.0974 -0.1339 -0.2433
   90POPC   NC3 1442   2.701   6.765   8.857 -0.5618  0.0215 -0.0110
   90POPC   PO4 1443   3.118   6.738   8.732 -0.1920 -0.0128  0.2600
   90POPC   GL1 1444   3.133   6.283   8.450 -0.1167  0.2423  0.1236
   90POPC   GL2 1445   3.011   6.356   8.234 -0.0899  0.1190  0.0729
   90POPC   C1A 1446   3.483   6.082   8.102 -0.0191  0.3740  0.1614
   90POPC   D2A 1447   3.707   5.983   7.759 -0.0652 -0.1324  0.0859
   90POPC   C3A 1448   4.098   6.111   7.537  0.3547  0.0003 -0.0833
   90POPC   C4A 1449   4.256   6.636   7.611  0.3852  0.0571 -0.0830
   90POPC   C1B 1450   2.904   6.268   7.883 -0.0211  0.1532  0.0853
   90POPC   C2B 1451   2.549   6.088   7.700 -0.4046  0.0174 -0.3404
   90POPC   C3B 1452   2.463   6.094   7.348  0.3999  0.0796 -0.0861
   90POPC   C4B 1453   2.416   5.852   6.969  0.2001 -0.0146 -0.1412
   91POPC   NC3 1454   0.041   6.566   8.740  0.0172 -0.1283  0.0818
   91POPC   PO4 1455  -0.388   6.707   8.559  0.2148  0.3495  0.0371
   91POPC   GL1 1456  -0.226   6.612   8.149  0.0321  0.0323  0.0402
   91POPC   GL2 1457  -0.174   6.293   8.162 -0.0473 -0.1443 -0.0211
   91POPC   C1A 1458  -0.515   6.481   7.731 -0.2026  0.1447  0.3629
   91POPC   D2A 1459  -0.458   6.260   7.353 -0.3167  0.3136 -0.1584
   91POPC   C3A 1460  -0.390   6.454   7.020 -0.0642 -0.0530 -0.1079
   91POPC   C4A 1461  -0.496   6.658   6.607 -0.1266  0.2240 -0.2812
   91POPC   C1B 1462  -0.018   6.317   7.760 -0.3669  0.1805  0.2610
   91POPC   C2B 1463   0.034   6.281   7.258 -0.0354  0.5412 -0.0783
   91POPC   C3B 1464   0.094   6.433   6.835  0.3901  0.2864 -0.0409
   91POPC   C4B 1465   0.084   6.532   6.451  0.1709 -0.1796 -0.1205
   92POPC   NC3 1466   3.403   7.664   7.946  0.3469  0.2606 -0.1148
   92POPC   PO4 1467   3.145   7.959   8.121 -0.2345 -0.3578  0.1298
   92POPC   GL1 1468   3.409   8.209   7.813 -0.3745 -0.2949  0.0276
   92POPC   GL2 1469   3.617   7.988   7.647  0.2136 -0.2614  0.2631
   92POPC   C1A 1470   3.506   8.507   7.547  0.0448 -0.2778 -0.0923
   92POPC   D2A 1471   3.746   8.292   7.277  0.1297 -0.0375  0.0170
   92POPC   C3A 1472   3.681   8.298   6.882  0.0336 -0.0714  0.0249
   92POPC   C4A 1473   3.428   8.403   6.551  0.2002  0.2227 -0.2278
   92POPC   C1B 1474   3.347   7.990   7.239  0.2765 -0.0172 -0.1131
   92POPC   C2B 1475   3.251   8.037   6.888  0.1619  0.0069  0.0449
   92POPC   C3B 1476   3.362   7.668   6.577 -0.0943 -0.1597  0.2715
   92POPC   C4B 1477   3.291   7.286   6.521  0.2720 -0.3252 -0.0758
   93POPC   NC3 1478   0.875   7.978   7.869 -0.3387  0.3352 -0.1471
   93POPC   PO4 1479   1.076   8.316   7.741  0.2289 -0.0332 -0.0416
   93POPC   GL1 1480   1.376   7.973   7.635 -0.1851 -0.1845  0.1083
   93POPC   GL2 1481   1.633   8.047   7.328 -0.1249  0.0504  0.0656
   93POPC   C1A 1482   1.573   7.613   7.541  0.3588  0.2551 -0.0752
   93POPC   D2A 1483   1.451   7.342   7.390 -0.3610 -0.0370 -0.1170
   93POPC   C3A 1484   1.099   7.373   7.099 -0.0493 -0.2111  0.1597
   93POPC   C4A 1485   0.841   7.573   6.800 -0.1230 -0.0840 -0.0618
   93POPC   C1B 1486   1.467   7.754   7.017 -0.1444  0.4777  0.1204
   93POPC   C2B 1487   1.199   7.966   6.687 -0.0193  0.1841  0.3033
   93POPC   C3B 1488   1.319   8.305   6.387 -0.0962  0.2192 -0.0805
   93POPC   C4B 1489   1.166   8.649   6.389  0.1859 -0.1299 -0.1143
   94POPC   NC3 1490   8.486   5.479   8.492  0.2380 -0.2125 -0.0802
   94POPC   PO4 1491   8.814   5.792   8.362  0.2306 -0.1909 -0.4195
   94POPC   GL1 1492   8.827   5.648   7.944  0.2309 -0.0769 -0.1560
   94POPC   GL2 1493   8.506   5.910   7.982  0.1346 -0.1583  0.1574
   94POPC   C1A 1494   8.756   5.336   7.716 -0.1289 -0.1298 -0.0232
   94POPC   D2A 1495   8.989   5.120   7.393  0.2889 -0.2448 -0.1196
   94POPC   C3A 1496   9.276   5.349   7.118 -0.2024 -0.0721 -0.1438
   94POPC   C4A 1497   9.665   5.462   6.920 -0.1066  0.1469  0.2617
   94POPC   C1B 1498   8.720   6.073   7.606 -0.2665  0.3107 -0.0548
   94POPC   C2B 1499   8.721   6.032   7.145  0.1591  0.1580  0.0774
   94POPC   C3B 1500   9.026   6.170   6.810  0.0501 -0.0534  0.3303
   94POPC   C4B 1501   9.387   6.205   6.555 -0.2561  0.0297 -0.0053
   95POPC   NC3 1502   0.110   8.276   7.843 -0.0215 -0.0480  0.4077
   95POPC   PO4 1503   0.562   8.238   7.612  0.0927  0.0471 -0.0837
   95POPC   GL1 1504   0.576   8.310   7.214  0.1094 -0.4322 -0.0408
   95POPC   GL2 1505   0.861   8.496   7.338 -0.0107 -0.2644  0.1735
   95POPC   C1A 1506   0.371   8.402   6.822 -0.0437 -0.0579  0.3131
   95POPC   D2A 1507   0.275   8.266   6.349 -0.0544  0.1310  0.0663
   95POPC   C3A 1508   0.168   7.955   6.416 -0.2137 -0.1587 -0.3633
   95POPC   C4A 1509   0.432   7.484   6.492  0.2471 -0.0574  0.1842
   95POPC   C1B 1510   1.224   8.298   7.065 -0.1263 -0.0222  0.1237
   95POPC   C2B 1511   1.513   8.369   6.827 -0.1951 -0.3305  0.0898
   95POPC   C3B 1512   1.639   8.714   6.528  0.3159 -0.3006  0.1823
   95POPC   C4B 1513   1.542   8.651   6.051 -0.2994  0.1848  0.2284
   96POPC   NC3 1514   6.418   4.351   8.781  0.1370  0.3280  0.2103
   96POPC   PO4 1515   6.717   4.705   8.804  0.0875 -0.0264 -0.3834
   96POPC   GL1 1516   6.547   4.758   8.379  0.2078 -0.3909  0.0885
   96POPC   GL2 1517   6.371   4.982   8.328  0.0862  0.0782  0.2297
   96POPC   C1A 1518   6.460   4.507   8.037 -0.0438  0.0031  0.1616
   96POPC   D2A 1519   6.338   4.560   7.621 -0.1006  0.0332 -0.1591
   96POPC   C3A 1520   6.480   4.712   7.181 -0.0963  0.4636  0.1268
   96POPC   C4A 1521   6.409   4.790   6.646  0.0256  0.1608  0.0042
   96POPC   C1B 1522   6.315   5.034   7.834  0.4976  0.0836  0.2275
   96POPC   C2B 1523   6.177   5.050   7.413  0.2085  0.1759 -0.1973
   96POPC   C3B 1524   6.037   5.045   7.048 -0.0835 -0.0160  0.1056
   96POPC   C4B 1525   5.944   4.834   6.708 -0.1726  0.1815  0.1374
   97POPC   NC3 1526   3.986   0.155   8.460 -0.1634  0.2534  0.1777
   97POPC   PO4 1527   4.014   0.320   8.088  0.0082  0.2394  0.2737
   97POPC   GL1 1528   3.957   0.325   7.603 -0.0796  0.1516  0.1593
   97POPC   GL2 1529   4.219   0.308   7.483  0.0761  0.1905  0.2460
   97POPC   C1A 1530   3.938   0.679   7.280 -0.1656 -0.1574 -0.0147
   97POPC   D2A 1531   4.074   1.088   7.197  0.2325  0.1247 -0.0467
   97POPC   C3A 1532   3.976   1.259   6.863 -0.0659  0.0460 -0.0130
   97POPC   C4A 1533   4.040   1.761   6.798  0.0300  0.0090  0.1922
   97POPC   C1B 1534   4.200   0.253   7.047  0.0021 -0.0785 -0.0480
   97POPC   C2B 1535   4.153   0.321   6.599 -0.0264  0.1006  0.0609
   97POPC   C3B 1536   3.791   0.259   6.440 -0.1739 -0.0518  0.1502
   97POPC   C4B 1537   3.658   0.292   6.057 -0.4400  0.3176 -0.0613
   98POPC   NC3 1538   5.602   1.117   7.956  0.1366 -0.2392  0.0540
   98POPC   PO4 1539   5.949   1.220   7.921 -0.0494 -0.1975  0.1772
   98POPC   GL1 1540   5.792   1.366   7.446 -0.0787 -0.3933 -0.0390
   98POPC   GL2 1541   5.513   1.268   7.364  0.2520 -0.2155 -0.2137
   98POPC   C1A 1542   5.916   1.329   6.993 -0.1726 -0.2563 -0.2778
   98POPC   D2A 1543   5.967   1.582   6.586 -0.0540  0.0156  0.1251
   98POPC   C3A 1544   5.755   1.904   6.411  0.1709  0.0638  0.0846
   98POPC   C4A 1545   5.913   2.206   6.239  0.0829  0.1383  0.0035
   98POPC   C1B 1546   5.266   1.354   6.970 -0.0164  0.2222 -0.0112
   98POPC   C2B 1547   4.940   1.305   6.694  0.0190 -0.1718  0.0376
   98POPC   C3B 1548   4.834   1.335   6.220 -0.1794  0.1415 -0.0182
   98POPC   C4B 1549   4.496   1.532   5.912 -0.0949  0.0223  0.3157
   99POPC   NC3 1550   3.325   4.054   9.604 -0.1277  0.0842 -0.1108
   99POPC   PO4 1551   3.648   3.719   9.519  0.0898  0.2157 -0.0881
   99POPC   GL1 1552   3.723   3.980   9.233 -0.0052  0.1274 -0.2616
   99POPC   GL2 1553   3.640   4.294   9.274 -0.0895  0.4132 -0.0771
   99POPC   C1A 1554   4.099   4.277   9.131 -0.3151 -0.3198 -0.0930
   99POPC   D2A 1555   4.268   4.367   8.738  0.2881  0.0391  0.1839
   99POPC   C3A 1556   4.088   4.317   8.397 -0.0099  0.2839  0.0243
   99POPC   C4A 1557   3.686   4.142   8.272  0.1306 -0.0515  0.0230
   99POPC   C1B 1558   3.333   4.356   8.984 -0.0292 -0.3830  0.2021
   99POPC   C2B 1559   2.919   4.525   8.739  0.1724  0.2748  0.2316
   99POPC   C3B 1560   2.639   4.472   8.342  0.0469 -0.3426 -0.3021
   99POPC   C4B 1561   2.326   4.261   8.306  0.0432 -0.3124  0.0535
  100POPC   NC3 1562   6.704   2.297   8.388  0.0536 -0.1024  0.3089
  100POPC   PO4 1563   7.087   2.336   8.058  0.0591  0.1101  0.0793
  100POPC   GL1 1564   6.984   2.437   7.569 -0.0616  0.0755 -0.2267
  100POPC   GL2 1565   6.743   2.184   7.383 -0.0401 -0.1267 -0.0902
  100POPC   C1A 1566   7.038   2.601   7.147 -0.4769  0.1717  0.2615
  100POPC   D2A 1567   7.095   2.947   6.960 -0.0885  0.0653  0.0658
  100POPC   C3A 1568   7.434   3.208   6.992  0.1881 -0.3749 -0.0262
  100POPC   C4A 1569   7.723   3.292   7.312  0.3493  0.2689 -0.2237
  100POPC   C1B 1570   6.758   2.177   6.942  0.1274  0.1616 -0.1224
  100POPC   C2B 1571   6.598   2.371   6.442  0.0153 -0.2908  0.1472
  100POPC   C3B 1572   6.609   2.291   5.949  0.1194  0.0374 -0.5281
  100POPC   C4B 1573   6.769   2.369   5.622 -0.1145  0.0570  0.1805
  101POPC   NC3 1574   4.358   8.383   8.164 -0.0665  0.2016  0.2393
  101POPC   PO4 1575   4.738   8.059   8.161 -0.0653  0.0255  0.2652
  101POPC   GL1 1576   4.746   7.706   7.959 -0.1914 -0.0035 -0.1334
  101POPC   GL2 1577   5.004   7.460   7.924 -0.0943  0.0069 -0.1660
  101POPC   C1A 1578   4.557   7.559   7.598  0.1397 -0.0927 -0.1868
  101POPC   D2A 1579   4.810   7.335   7.265 -0.0298 -0.2181  0.3673
  101POPC   C3A 1580   4.470   7.296   6.945 -0.1519  0.1574  0.0178
  101POPC   C4A 1581   4.230   7.613   6.711  0.0664  0.1334 -0.4951
  101POPC   C1B 1582   5.091   7.631   7.543 -0.2512 -0.2399 -0.1105
  101POPC   C2B 1583   5.137   7.854   7.073  0.2995  0.0692  0.3449
  101POPC   C3B 1584   5.020   7.765   6.638 -0.0001 -0.3098  0.3692
  101POPC   C4B 1585   4.994   7.843   6.254 -0.2912 -0.2525  0.2707
  102POPC   NC3 1586   8.989   1.957   8.068  0.3668 -0.3505  0.4010
  102POPC   PO4 1587   9.355   2.307   7.962  0.0531 -0.0962  0.0406
  102POPC   GL1 1588   9.233   2.370   7.526 -0.0717 -0.0325 -0.0239
  102POPC   GL2 1589   8.945   2.192   7.498 -0.3580  0.2021  0.2336
  102POPC   C1A 1590   9.290   2.385   7.041  0.0586 -0.3836  0.1487
  102POPC   D2A 1591   9.136   2.394   6.507 -0.3932 -0.1379 -0.0319
  102POPC   C3A 1592   9.295   2.676   6.150  0.0955 -0.3441  0.1688
  102POPC   C4A 1593   9.495   2.994   5.853  0.2668 -0.2645 -0.1787
  102POPC   C1B 1594   8.625   2.066   7.238 -0.5458 -0.1481 -0.3882
  102POPC   C2B 1595   8.418   1.979   6.967  0.1825  0.0554 -0.2103
  102POPC   C3B 1596   8.260   2.106   6.539 -0.0196 -0.2803  0.0022
  102POPC   C4B 1597   8.471   2.219   6.131 -0.1165 -0.1844 -0.1989
  103POPC   NC3 1598   2.225   7.998   8.074  0.3226 -0.0048 -0.1349
  103POPC   PO4 1599   1.931   8.101   7.910 -0.2504  0.0578 -0.0006
  103POPC   GL1 1600   2.037   7.721   7.726  0.3459 -0.1488  0.0653
  103POPC   GL2 1601   2.374   7.664   7.654  0.3287 -0.0893 -0.1530
  103POPC   C1A 1602   2.008   7.484   7.386  0.0727 -0.0389  0.1078
  103POPC   D2A 1603   2.119   7.503   6.924 -0.1106  0.4150 -0.2555
  103POPC   C3A 1604   2.447   7.342   6.818 -0.2563 -0.2049  0.0963
  103POPC   C4A 1605   2.738   7.299   6.531  0.0851 -0.2455 -0.2300
  103POPC   C1B 1606   2.561   7.678   7.284  0.2998 -0.1672 -0.0831
  103POPC   C2B 1607   2.756   7.725   6.817  0.1976  0.0336  0.2539
  103POPC   C3B 1608   2.458   7.789   6.478  0.0439 -0.2248 -0.0984
  103POPC   C4B 1609   2.112   7.808   6.453  0.2682 -0.4252  0.1038
  104POPC   NC3 1610   4.537   6.128   9.692  0.1808 -0.3196  0.1736
  104POPC   PO4 1611   4.402   5.693   9.677 -0.1580 -0.0036  0.0899
  104POPC   GL1 1612   4.378   5.722   9.334  0.0498 -0.2215  0.0486
  104POPC   GL2 1613   4.199   5.980   9.277 -0.0030 -0.0329  0.2263
  104POPC   C1A 1614   4.644   5.718   8.867  0.0184 -0.2017 -0.2469
  104POPC   D2A 1615   4.846   5.919   8.528  0.1625  0.1156 -0.1208
  104POPC   C3A 1616   4.976   6.082   8.171 -0.0985  0.0070  0.4902
  104POPC   C4A 1617   4.952   5.888   7.687  0.3000  0.1308  0.0984
  104POPC   C1B 1618   4.080   5.697   8.913 -0.1431 -0.3516  0.2213
  104POPC   C2B 1619   3.901   5.354   8.682 -0.0864 -0.1403 -0.0868
  104POPC   C3B 1620   3.801   5.212   8.332 -0.1421  0.2169 -0.2268
  104POPC   C4B 1621   3.639   4.997   7.948  0.1783 -0.2496  0.1568
  105POPC   NC3 1622   3.553   6.481   8.830  0.0973 -0.1081  0.1726
  105POPC   PO4 1623   3.703   6.130   9.231  0.1743  0.0577  0.2814
  105POPC   GL1 1624   3.734   6.017   8.852  0.2336  0.0535  0.1191
  105POPC   GL2 1625   3.592   5.711   8.915 -0.1794 -0.1851  0.1915
  105POPC   C1A 1626   3.963   5.939   8.406 -0.2254 -0.0690  0.0118
  105POPC   D2A 1627   4.086   6.293   8.041  0.2114  0.2458 -0.0214
  105POPC   C3A 1628   3.787   6.501   7.758 -0.0103  0.2397 -0.5214
  105POPC   C4A 1629   3.334   6.558   7.916  0.2886  0.1651 -0.0049
  105POPC   C1B 1630   3.474   5.749   8.494  0.0332 -0.2333  0.0067
  105POPC   C2B 1631   3.696   5.632   8.095  0.1517 -0.0593  0.0484
  105POPC   C3B 1632   3.747   5.451   7.744 -0.0595  0.2734 -0.0407
  105POPC   C4B 1633   3.984   5.649   7.466  0.1363 -0.1094  0.2481
  106POPC   NC3 1634   0.608   5.009   9.097 -0.0643  0.0591  0.1200
  106POPC   PO4 1635   0.297   4.763   8.700 -0.5024 -0.1620  0.0376
  106POPC   GL1 1636   0.240   4.792   8.243  0.2604 -0.1078  0.3110
  106POPC   GL2 1637   0.505   4.892   8.209  0.1808  0.2980 -0.0675
  106POPC   C1A 1638   0.225   4.660   7.790  0.1780 -0.0422  0.0890
  106POPC   D2A 1639   0.102   4.624   7.348 -0.3447  0.0359 -0.1658
  106POPC   C3A 1640   0.016   4.222   7.208  0.0630  0.1480 -0.2038
  106POPC   C4A 1641  -0.158   4.064   6.784 -0.1235 -0.2533  0.0212
  106POPC   C1B 1642   0.616   4.949   7.822  0.0595  0.0003  0.3775
  106POPC   C2B 1643   0.647   4.697   7.369  0.0567  0.0748  0.0292
  106POPC   C3B 1644   0.701   4.867   7.026 -0.1335  0.0317  0.1854
  106POPC   C4B 1645   0.692   5.046   6.605  0.0603  0.0427  0.0151
  107POPC   NC3 1646   8.463   7.610   8.304  0.0788  0.1734  0.2337
  107POPC   PO4 1647   8.061   7.488   8.242 -0.2615 -0.3427  0.2006
  107POPC   GL1 1648   8.061   7.211   7.986  0.1117 -0.0131 -0.0222
  107POPC   GL2 1649   7.623   7.115   8.011  0.2068  0.0149  0.0891
  107POPC   C1A 1650   8.021   7.252   7.558  0.1557  0.0585 -0.1092
  107POPC   D2A 1651   8.071   7.446   7.165  0.2018  0.0317 -0.2735
  107POPC   C3A 1652   8.103   7.198   6.807  0.0973  0.0461 -0.2545
  107POPC   C4A 1653   8.021   7.022   6.411  0.1248  0.0283  0.1800
  107POPC   C1B 1654   7.594   6.984   7.625  0.0072 -0.1930  0.4742
  107POPC   C2B 1655   7.712   6.785   7.225  0.1271  0.0188 -0.2647
  107POPC   C3B 1656   7.758   6.753   6.807  0.4427 -0.3060 -0.0790
  107POPC   C4B 1657   7.483   6.924   6.515  0.0411  0.0236  0.0014
  108POPC   NC3 1658   4.254   5.078   9.703  0.1411 -0.1226  0.1322
  108POPC   PO4 1659   4.506   4.736   9.898  0.1422 -0.2388  0.0090
  108POPC   GL1 1660   4.244   4.565   9.521  0.1047 -0.0442  0.0926
  108POPC   GL2 1661   4.032   4.702   9.432 -0.0587  0.1202  0.0582
  108POPC   C1A 1662   4.582   4.509   9.190 -0.1107 -0.0676  0.0402
  108POPC   D2A 1663   4.690   4.734   8.776 -0.0018  0.0295 -0.1368
  108POPC   C3A 1664   4.533   4.623   8.335  0.1361  0.1119 -0.1714
  108POPC   C4A 1665   4.471   4.626   7.920  0.1772  0.3179 -0.1518
  108POPC   C1B 1666   4.226   4.797   9.077  0.2327 -0.0976 -0.0992
  108POPC   C2B 1667   4.194   4.874   8.663 -0.3441 -0.1502 -0.0620
  108POPC   C3B 1668   4.345   5.164   8.464 -0.3088 -0.2021 -0.2475
  108POPC   C4B 1669   4.324   5.564   8.446 -0.0988  0.1341  0.1211
  109POPC   NC3 1670   2.938   0.763   8.114  0.1110 -0.2992 -0.3381
  109POPC   PO4 1671   2.916   0.371   8.324 -0.2303 -0.2142  0.2666
  109POPC   GL1 1672   2.963   0.255   7.860  0.1148  0.0723 -0.0067
  109POPC   GL2 1673   2.991   0.495   7.707  0.2902 -0.1985  0.1676
  109POPC   C1A 1674   2.930   0.230   7.367 -0.1325  0.4091  0.1344
  109POPC   D2A 1675   2.844   0.094   6.897 -0.0856 -0.0408 -0.1090
  109POPC   C3A 1676   2.634  -0.366   6.827  0.0699  0.1234 -0.1071
  109POPC   C4A 1677   2.673  -0.546   6.394  0.0543  0.0376 -0.1335
  109POPC   C1B 1678   2.801   0.725   7.426 -0.0546  0.0509  0.1524
  109POPC   C2B 1679   2.719   0.721   6.941  0.1682  0.4220  0.1684
  109POPC   C3B 1680   2.484   0.775   6.518  0.2845 -0.0961 -0.3464
  109POPC   C4B 1681   2.547   0.748   6.124  0.2282  0.1695  0.0372
  110POPC   NC3 1682   3.855   9.489   8.095 -0.0645 -0.1951 -0.0029
  110POPC   PO4 1683   4.341   9.652   8.144  0.1168 -0.2355  0.0679
  110POPC   GL1 1684   4.382   9.488   7.710  0.2083 -0.3657  0.2661
  110POPC   GL2 1685   4.019   9.506   7.618  0.0686  0.0032  0.1839
  110POPC   C1A 1686   4.365   9.525   7.306 -0.2708  0.0576  0.2927
  110POPC   D2A 1687   4.675   9.673   7.047  0.0172  0.2474  0.4494
  110POPC   C3A 1688   4.985   9.751   6.816 -0.2553 -0.1443 -0.0992
  110POPC   C4A 1689   5.219   9.481   6.544 -0.2788 -0.1079 -0.1739
  110POPC   C1B 1690   3.835   9.640   7.240 -0.2872 -0.0986  0.0604
  110POPC   C2B 1691   3.702   9.585   6.746 -0.0583  0.0042 -0.1762
  110POPC   C3B 1692   3.494   9.485   6.344 -0.2394 -0.0691 -0.2277
  110POPC   C4B 1693   3.621   9.205   6.087 -0.1605  0.3012  0.0379
  111POPC   NC3 1694   7.308   6.758   8.154 -0.1917 -0.0181  0.0161
  111POPC   PO4 1695   7.068   6.442   8.320  0.3950 -0.1713  0.4251
  111POPC   GL1 1696   6.824   6.497   7.962  0.1991 -0.1282 -0.0983
  111POPC   GL2 1697   7.157   6.272   7.844 -0.1882 -0.2957 -0.0613
  111POPC   C1A 1698   6.747   6.549   7.564  0.2525  0.1880  0.0079
  111POPC   D2A 1699   6.752   6.637   7.149 -0.0916  0.1144  0.1361
  111POPC   C3A 1700   6.826   6.463   6.774 -0.1731 -0.3165 -0.0515
  111POPC   C4A 1701   6.712   6.328   6.411 -0.0848  0.2705  0.0157
  111POPC   C1B 1702   6.851   6.024   7.724 -0.1817 -0.1547  0.2808
  111POPC   C2B 1703   6.813   5.673   7.452 -0.2329 -0.1396  0.0660
  111POPC   C3B 1704   6.666   5.620   7.013  0.2432 -0.3047  0.0853
  111POPC   C4B 1705   6.569   6.010   6.767  0.0198 -0.2254  0.1275
  112POPC   NC3 1706   5.502   0.090   8.738 -0.0564  0.3964  0.0556
  112POPC   PO4 1707   5.753  -0.171   8.343 -0.4674  0.0141 -0.1213
  112POPC   GL1 1708   5.585  -0.313   7.951  0.0271 -0.0766  0.1470
  112POPC   GL2 1709   5.672   0.057   7.817  0.1247 -0.5354  0.2255
  112POPC   C1A 1710   5.485  -0.498   7.541  0.1619 -0.2845  0.0019
  112POPC   D2A 1711   5.220  -0.794   7.294 -0.0162 -0.0872 -0.2364
  112POPC   C3A 1712   5.250  -0.994   6.955 -0.2381  0.0171  0.1640
  112POPC   C4A 1713   5.492  -0.963   6.684 -0.0109 -0.2492 -0.4280
  112POPC   C1B 1714   5.406   0.013   7.551 -0.2335 -0.0695  0.0025
  112POPC   C2B 1715   5.196   0.225   7.247 -0.3222 -0.3718  0.2820
  112POPC   C3B 1716   4.883   0.523   7.133  0.1993 -0.0258 -0.2659
  112POPC   C4B 1717   4.587   0.438   6.742 -0.2021 -0.1910 -0.0362
  113POPC   NC3 1718   0.573   6.172   8.171 -0.0148  0.2571 -0.1667
  113POPC   PO4 1719   0.183   5.941   8.416 -0.0841  0.1584 -0.2223
  113POPC   GL1 1720   0.223   5.822   7.935 -0.1580 -0.0124  0.2767
  113POPC   GL2 1721   0.383   5.997   7.743 -0.1624  0.1541 -0.2532
  113POPC   C1A 1722   0.252   5.339   7.726 -0.0946 -0.1299 -0.1726
  113POPC   D2A 1723   0.292   5.075   7.274 -0.1167 -0.0864  0.0581
  113POPC   C3A 1724   0.494   5.308   6.958  0.1447 -0.2618  0.0733
  113POPC   C4A 1725   0.464   5.451   6.492  0.0554 -0.0005  0.0530
  113POPC   C1B 1726   0.564   6.179   7.431  0.0851 -0.3839 -0.0332
  113POPC   C2B 1727   0.898   6.222   7.139 -0.1651  0.0507 -0.2200
  113POPC   C3B 1728   0.998   6.284   6.790 -0.0643 -0.0071  0.1940
  113POPC   C4B 1729   1.309   6.246   6.598 -0.0681  0.1096 -0.0345
  114POPC   NC3 1730   8.604   1.150   7.748 -0.0841 -0.0850 -0.1713
  114POPC   PO4 1731   8.947   1.498   7.594 -0.2315  0.0359  0.1586
  114POPC   GL1 1732   8.941   1.691   7.266 -0.0314 -0.0119 -0.2267
  114POPC   GL2 1733   8.930   1.436   6.999 -0.0626 -0.0727  0.0480
  114POPC   C1A 1734   9.084   1.930   6.934  0.0071  0.0623 -0.0976
  114POPC   D2A 1735   9.168   1.835   6.429 -0.0415 -0.0480 -0.0150
  114POPC   C3A 1736   9.047   2.107   6.105 -0.2156 -0.1417  0.0524
  114POPC   C4A 1737   8.739   2.089   5.723  0.0847  0.3139  0.0988
  114POPC   C1B 1738   8.907   1.025   6.690 -0.0526  0.0085 -0.0164
  114POPC   C2B 1739   9.185   0.648   6.521 -0.0636  0.0859 -0.0076
  114POPC   C3B 1740   9.362   0.362   6.827 -0.0888 -0.1003 -0.3915
  114POPC   C4B 1741   9.046   0.097   6.858  0.1381 -0.2616 -0.2034
  115POPC   NC3 1742   9.147   8.407   8.395  0.0542 -0.0582 -0.0418
  115POPC   PO4 1743   9.333   8.137   8.081  0.0091 -0.0563 -0.2306
  115POPC   GL1 1744   9.296   8.367   7.728 -0.1064 -0.0428  0.0264
  115POPC   GL2 1745   9.205   8.628   7.845 -0.1215  0.0220  0.2955
  115POPC   C1A 1746   9.214   8.314   7.366  0.2996 -0.1156 -0.0187
  115POPC   D2A 1747   9.292   7.956   7.188 -0.2992  0.1700  0.1650
  115POPC   C3A 1748   9.694   7.864   6.921  0.1464 -0.2526 -0.0091
  115POPC   C4A 1749  10.152   7.937   6.806  0.2068 -0.1975  0.0753
  115POPC   C1B 1750   9.111   8.872   7.325  0.3137 -0.0995 -0.0954
  115POPC   C2B 1751   9.240   8.664   7.006 -0.1138  0.1480 -0.2632
  115POPC   C3B 1752   9.381   8.802   6.683  0.1132  0.0102 -0.0587
  115POPC   C4B 1753   9.799   8.765   6.528  0.1798  0.1649  0.1853
  116POPC   NC3 1754   6.210   3.573   8.695 -0.1253  0.0202  0.1082
  116POPC   PO4 1755   6.554   3.385   8.435 -0.1674 -0.4126  0.4013
  116POPC   GL1 1756   6.565   3.453   7.909 -0.3146 -0.1400 -0.2664
  116POPC   GL2 1757   6.968   3.427   7.873  0.0642  0.2811  0.1005
  116POPC   C1A 1758   6.378   3.468   7.526 -0.0847 -0.1302 -0.0344
  116POPC   D2A 1759   6.131   3.523   7.153  0.0823  0.0860 -0.1108
  116POPC   C3A 1760   6.017   3.933   6.897 -0.2436  0.1474 -0.1365
  116POPC   C4A 1761   6.071   4.308   6.627 -0.1038 -0.1612  0.3327
  116POPC   C1B 1762   6.823   3.694   7.536 -0.0084  0.1288 -0.0714
  116POPC   C2B 1763   6.594   3.736   7.131  0.2836 -0.0916 -0.1415
  116POPC   C3B 1764   6.586   3.948   6.727 -0.2653  0.0274 -0.0778
  116POPC   C4B 1765   6.479   4.290   6.323  0.0464 -0.0361 -0.0070
  117POPC   NC3 1766   2.852   7.656   8.468  0.3536 -0.1522  0.2871
  117POPC   PO4 1767   2.577   7.645   8.118 -0.0448 -0.1191  0.1185
  117POPC   GL1 1768   2.860   7.706   7.731 -0.2728 -0.2230 -0.1169
  117POPC   GL2 1769   3.017   7.955   7.628 -0.3252  0.6119 -0.0327
  117POPC   C1A 1770   3.009   7.534   7.410 -0.1815  0.1697 -0.2061
  117POPC   D2A 1771   2.944   7.263   7.076 -0.0071  0.0688  0.0307
  117POPC   C3A 1772   3.156   6.860   7.173  0.0111 -0.2718  0.3253
  117POPC   C4A 1773   3.506   6.582   7.353 -0.0750 -0.0043  0.2279
  117POPC   C1B 1774   2.828   8.084   7.193 -0.0940  0.1240  0.0354
  117POPC   C2B 1775   2.398   8.008   6.972  0.2072 -0.3152  0.3068
  117POPC   C3B 1776   1.938   8.015   6.903 -0.0015 -0.0795  0.1622
  117POPC   C4B 1777   1.666   7.946   6.593  0.0787  0.0679  0.2585
  118POPC   NC3 1778   6.522   3.010   8.080 -0.0222 -0.1760  0.2055
  118POPC   PO4 1779   6.387   2.640   8.451 -0.0363 -0.2163 -0.0689
  118POPC   GL1 1780   6.071   2.754   8.026 -0.5309  0.1459 -0.3147
  118POPC   GL2 1781   6.020   3.029   7.991  0.0099 -0.1900  0.0211
  118POPC   C1A 1782   5.974   2.614   7.682 -0.3256  0.2845 -0.1083
  118POPC   D2A 1783   5.633   2.609   7.427  0.1125  0.4375  0.5040
  118POPC   C3A 1784   5.585   2.754   7.139  0.1810  0.1184  0.1323
  118POPC   C4A 1785   5.226   2.620   6.858  0.0597  0.1072 -0.1431
  118POPC   C1B 1786   6.077   3.061   7.486 -0.2286  0.1522  0.0574
  118POPC   C2B 1787   6.001   3.001   7.057  0.1722  0.0188 -0.1692
  118POPC   C3B 1788   6.212   2.980   6.700 -0.0032  0.1362 -0.0179
  118POPC   C4B 1789   6.154   2.606   6.370  0.1426 -0.1282  0.2971
  119POPC   NC3 1790   9.344   9.111   7.962 -0.2790 -0.0684  0.0060
  119POPC   PO4 1791   9.683   8.864   7.912  0.3843 -0.1525  0.3937
  119POPC   GL1 1792   9.566   8.724   7.472 -0.1324 -0.0491 -0.4376
  119POPC   GL2 1793   9.575   9.042   7.270  0.2479 -0.2702  0.2128
  119POPC   C1A 1794   9.709   8.640   7.033 -0.3081 -0.0164 -0.1959
  119POPC   D2A 1795   9.520   8.332   6.754  0.4621  0.0705  0.1095
  119POPC   C3A 1796   9.448   8.324   6.301 -0.2108 -0.0963 -0.2304
  119POPC   C4A 1797   9.096   8.212   5.991 -0.1171 -0.2406  0.1127
  119POPC   C1B 1798   9.327   9.165   6.967  0.2482 -0.4075  0.0784
  119POPC   C2B 1799   8.937   9.084   6.919 -0.0497 -0.1631 -0.1653
  119POPC   C3B 1800   8.747   8.742   6.938  0.2499 -0.1091 -0.0561
  119POPC   C4B 1801   8.284   8.475   6.971 -0.2080  0.0134  0.3921
  120POPC   NC3 1802   8.118   1.934   8.140 -0.0859  0.0278  0.1249
  120POPC   PO4 1803   8.053   1.606   8.099  0.2025 -0.0432 -0.1433
  120POPC   GL1 1804   7.865   1.583   7.693  0.5040 -0.2510  0.3277
  120POPC   GL2 1805   7.608   1.702   7.425  0.3656 -0.3647  0.3385
  120POPC   C1A 1806   7.961   1.367   7.389  0.0331  0.2152  0.0339
  120POPC   D2A 1807   7.986   1.336   6.947 -0.2462  0.1557  0.1085
  120POPC   C3A 1808   7.880   1.086   6.668 -0.0077 -0.0216  0.0162
  120POPC   C4A 1809   7.575   1.055   6.301 -0.0792  0.0258 -0.1227
  120POPC   C1B 1810   7.555   1.696   7.071  0.1920  0.0666 -0.4294
  120POPC   C2B 1811   7.586   1.488   6.737  0.2150  0.1367 -0.0263
  120POPC   C3B 1812   7.271   1.104   6.765  0.0321  0.4299 -0.1172
  120POPC   C4B 1813   6.869   0.943   6.660  0.1037 -0.1972 -0.2220
  121POPC   NC3 1814   5.690   4.050   9.020  0.2034 -0.1950  0.1784
  121POPC   PO4 1815   6.061   4.020   8.739 -0.1000 -0.3045  0.1901
  121POPC   GL1 1816   6.009   3.880   8.354 -0.1734  0.0619 -0.1667
  121POPC   GL2 1817   6.313   3.794   8.238 -0.1366  0.2250  0.0869
  121POPC   C1A 1818   6.032   4.190   8.009  0.0377  0.1346  0.2042
  121POPC   D2A 1819   5.899   4.681   7.999  0.0815 -0.1179 -0.0131
  121POPC   C3A 1820   5.779   4.841   8.319  0.0384  0.2263 -0.1439
  121POPC   C4A 1821   5.319   4.975   8.563 -0.2522  0.1597  0.1306
  121POPC   C1B 1822   6.075   3.596   7.940  0.1757 -0.0031  0.1685
  121POPC   C2B 1823   5.858   3.552   7.625 -0.3287  0.0159  0.0725
  121POPC   C3B 1824   5.673   3.274   7.433 -0.1755 -0.5197 -0.1822
  121POPC   C4B 1825   5.230   3.342   7.259  0.2839 -0.2666  0.0893
  122POPC   NC3 1826   1.770   1.279   8.106  0.1619 -0.3025  0.0415
  122POPC   PO4 1827   1.420   1.387   8.188  0.1597 -0.0988 -0.5104
  122POPC   GL1 1828   1.551   1.484   7.673  0.0802 -0.0768 -0.0634
  122POPC   GL2 1829   1.553   1.177   7.671  0.0208 -0.0019 -0.0232
  122POPC   C1A 1830   1.617   1.598   7.282  0.0135 -0.2077  0.1390
  122POPC   D2A 1831   1.604   1.990   6.901 -0.1215  0.1780 -0.0004
  122POPC   C3A 1832   1.887   2.331   6.800  0.0850  0.2562  0.2261
  122POPC   C4A 1833   2.241   2.722   6.686 -0.1365  0.4097 -0.1866
  122POPC   C1B 1834   1.293   0.877   7.339 -0.0310  0.2035  0.3236
  122POPC   C2B 1835   1.333   0.632   7.011  0.3627  0.1659 -0.0951
  122POPC   C3B 1836   1.234   0.217   6.771  0.1301 -0.1449 -0.0435
  122POPC   C4B 1837   1.086  -0.083   6.514  0.1178  0.3319  0.1608
  123POPC   NC3 1838   5.096   7.718   8.348  0.0631 -0.2550 -0.0234
  123POPC   PO4 1839   5.306   8.109   8.170 -0.0108 -0.0280  0.1136
  123POPC   GL1 1840   5.455   8.222   7.713 -0.1342 -0.4304 -0.0053
  123POPC   GL2 1841   5.690   8.055   7.550 -0.2242 -0.2705 -0.0149
  123POPC   C1A 1842   5.313   8.338   7.241 -0.0662  0.3188 -0.3117
  123POPC   D2A 1843   5.313   8.226   6.791  0.2035 -0.4095 -0.1046
  123POPC   C3A 1844   5.601   7.907   6.725  0.0518 -0.1009 -0.1168
  123POPC   C4A 1845   5.941   7.720   6.727 -0.0250 -0.0985  0.2195
  123POPC   C1B 1846   5.733   8.167   7.090 -0.2563  0.0074 -0.1340
  123POPC   C2B 1847   5.871   8.288   6.627  0.0156 -0.0850  0.1639
  123POPC   C3B 1848   5.951   8.545   6.274  0.1218 -0.0057  0.0089
  123POPC   C4B 1849   5.487   8.623   6.212  0.1686  0.1836  0.0311
  124POPC   NC3 1850   6.719   2.067   7.860 -0.5106  0.4620  0.1220
  124POPC   PO4 1851   6.682   2.554   7.966 -0.1425  0.0312  0.0997
  124POPC   GL1 1852   6.450   2.712   7.671 -0.2419 -0.0284  0.4904
  124POPC   GL2 1853   6.626   3.082   7.529  0.0013  0.2206  0.1373
  124POPC   C1A 1854   6.329   2.687   7.259 -0.0613  0.0375 -0.0136
  124POPC   D2A 1855   6.666   2.683   6.886  0.0423  0.1244 -0.1632
  124POPC   C3A 1856   6.777   3.085   6.603 -0.0698  0.3384 -0.0508
  124POPC   C4A 1857   6.833   3.515   6.722 -0.2470 -0.2188 -0.0929
  124POPC   C1B 1858   6.560   3.220   7.091 -0.3408 -0.2172 -0.3852
  124POPC   C2B 1859   6.333   3.450   6.736  0.0561 -0.1838  0.0968
  124POPC   C3B 1860   6.147   3.326   6.356  0.2062 -0.0038  0.1849
  124POPC   C4B 1861   5.748   3.108   6.296 -0.0177 -0.5400  0.2122
  125POPC   NC3 1862   7.888   6.641   8.837  0.0803 -0.1102  0.1837
  125POPC   PO4 1863   8.141   6.481   8.453 -0.3339 -0.1110  0.1147
  125POPC   GL1 1864   8.364   6.589   8.110 -0.0134 -0.2587  0.1685
  125POPC   GL2 1865   8.239   6.305   7.958  0.1931 -0.2823  0.0065
  125POPC   C1A 1866   8.378   6.930   7.707  0.1872  0.1596 -0.0967
  125POPC   D2A 1867   8.248   6.892   7.225  0.2535 -0.0528  0.1238
  125POPC   C3A 1868   8.269   6.725   6.782  0.1826 -0.0206  0.0474
  125POPC   C4A 1869   8.161   6.546   6.389 -0.1277 -0.1410 -0.3303
  125POPC   C1B 1870   8.204   6.039   7.566  0.1613 -0.1495  0.1089
  125POPC   C2B 1871   8.383   5.716   7.349  0.1834  0.1563 -0.1051
  125POPC   C3B 1872   8.360   5.606   6.911  0.3410  0.1434  0.2174
  125POPC   C4B 1873   8.647   5.752   6.643 -0.4400  0.2146  0.1403
  126POPC   NC3 1874   6.834   0.760   8.259 -0.4119 -0.0117 -0.0544
  126POPC   PO4 1875   6.822   0.729   7.872 -0.0564  0.0674  0.1111
  126POPC   GL1 1876   6.471   0.756   7.607 -0.0390  0.2631 -0.0464
  126POPC   GL2 1877   6.696   0.642   7.390 -0.0742  0.2115  0.1368
  126POPC   C1A 1878   6.423   1.008   7.157  0.1964  0.1473 -0.2235
  126POPC   D2A 1879   6.318   1.171   6.640 -0.1732  0.0949 -0.1365
  126POPC   C3A 1880   6.706   1.297   6.341 -0.0593  0.1047  0.0254
  126POPC   C4A 1881   7.082   1.100   6.186 -0.0991  0.1866  0.1944
  126POPC   C1B 1882   6.663   0.536   6.984  0.3596  0.1509 -0.0818
  126POPC   C2B 1883   6.820   0.432   6.595 -0.3194 -0.2319  0.1285
  126POPC   C3B 1884   7.049   0.337   6.215  0.4279  0.1619  0.0897
  126POPC   C4B 1885   7.136  -0.065   5.888  0.1703 -0.1985 -0.0402
  127POPC   NC3 1886   3.246   9.029   8.206  0.0633 -0.0709  0.1557
  127POPC   PO4 1887   3.326   9.420   8.087 -0.2411  0.0316  0.0725
  127POPC   GL1 1888   3.377   9.594   7.654  0.0772  0.0927 -0.0554
  127POPC   GL2 1889   3.556   9.761   7.749  0.0520  0.0986 -0.3115
  127POPC   C1A 1890   3.356   9.677   7.202 -0.1912 -0.0339  0.0996
  127POPC   D2A 1891   3.304   9.911   6.728  0.5169 -0.1060  0.3400
  127POPC   C3A 1892   3.237   9.965   6.348  0.1603  0.1234  0.3910
  127POPC   C4A 1893   2.995  10.375   6.295  0.0560 -0.2206 -0.0208
  127POPC   C1B 1894   3.412  10.084   7.507 -0.0543 -0.0325  0.2386
  127POPC   C2B 1895   3.262  10.264   7.200  0.0428  0.1098 -0.0890
  127POPC   C3B 1896   3.244  10.385   6.743  0.2920 -0.4897 -0.3219
  127POPC   C4B 1897   3.523  10.347   6.351  0.0996 -0.0312  0.1511
  128POPC   NC3 1898   4.442   1.640   8.194  0.0879  0.0135  0.1153
  128POPC   PO4 1899   4.700   1.337   8.340 -0.0513 -0.1583 -0.0268
  128POPC   GL1 1900   4.699   1.396   7.875  0.2026 -0.0982  0.2423
  128POPC   GL2 1901   5.074   1.362   7.791  0.1867 -0.1701 -0.2118
  128POPC   C1A 1902   4.220   1.364   7.651  0.1238  0.0703  0.2425
  128POPC   D2A 1903   3.939   1.574   7.261 -0.0700 -0.1565 -0.1722
  128POPC   C3A 1904   3.774   1.982   7.283  0.2118 -0.5323  0.1217
  128POPC   C4A 1905   3.667   2.383   7.185 -0.0759 -0.2164  0.1743
  128POPC   C1B 1906   4.986   1.255   7.411  0.0262 -0.0180 -0.1223
  128POPC   C2B 1907   4.915   1.030   7.109  0.3295  0.3782 -0.0044
  128POPC   C3B 1908   4.820   0.843   6.736 -0.2971  0.1543 -0.0806
  128POPC   C4B 1909   5.159   0.951   6.375 -0.0311  0.1178  0.1109
  129POPC   NC3 1910   6.214   0.031   8.502  0.1529  0.0309  0.3974
  129POPC   PO4 1911   5.910   0.293   8.190 -0.0644 -0.2722  0.1432
  129POPC   GL1 1912   6.086   0.445   7.679  0.0310 -0.3066 -0.0936
  129POPC   GL2 1913   5.962   0.761   7.666 -0.2409 -0.0580 -0.3875
  129POPC   C1A 1914   6.202   0.513   7.289 -0.1315  0.1381 -0.0162
  129POPC   D2A 1915   6.228   0.262   6.843 -0.3453 -0.0811 -0.0686
  129POPC   C3A 1916   5.969   0.336   6.477  0.1799  0.0466  0.1663
  129POPC   C4A 1917   5.565   0.453   6.326 -0.1429 -0.0148 -0.0824
  129POPC   C1B 1918   5.833   0.863   7.289  0.0455 -0.2435  0.1648
  129POPC   C2B 1919   5.968   0.719   6.833  0.0599 -0.2594 -0.4453
  129POPC   C3B 1920   6.369   0.692   6.542  0.3195  0.0604  0.1388
  129POPC   C4B 1921   6.713   0.713   6.225  0.1791  0.3687 -0.4786
  130POPC   NC3 1922   1.006   6.106   8.558 -0.0578 -0.0922 -0.1328
  130POPC   PO4 1923   1.093   6.161   8.135  0.0291 -0.3345  0.0427
  130POPC   GL1 1924   0.989   6.099   7.727 -0.1272  0.1836  0.0281
  130POPC   GL2 1925   1.256   6.127   7.659  0.1570 -0.0785 -0.3073
  130POPC   C1A 1926   1.030   5.816   7.339  0.2129 -0.0737  0.2566
  130POPC   D2A 1927   0.896   5.810   6.911 -0.1363 -0.1264 -0.0834
  130POPC   C3A 1928   1.227   5.700   6.633 -0.0370 -0.0408  0.1488
  130POPC   C4A 1929   1.510   5.548   6.298  0.0729  0.1675 -0.0417
  130POPC   C1B 1930   1.539   5.888   7.601  0.1757 -0.3071  0.0242
  130POPC   C2B 1931   1.875   5.753   7.288 -0.0247 -0.3820 -0.2600
  130POPC   C3B 1932   1.906   5.938   6.963  0.0552  0.0862 -0.2638
  130POPC   C4B 1933   1.823   5.820   6.612 -0.1191 -0.0053  0.2713
  131POPC   NC3 1934   3.037   3.300   9.287 -0.0309  0.0627  0.0347
  131POPC   PO4 1935   3.381   2.994   9.082  0.1247  0.1614 -0.1391
  131POPC   GL1 1936   3.258   2.873   8.628 -0.4553 -0.1141  0.2434
  131POPC   GL2 1937   3.101   2.548   8.606 -0.0821 -0.0267  0.1962
  131POPC   C1A 1938   3.473   2.725   8.268  0.0951 -0.1153  0.0534
  131POPC   D2A 1939   3.747   2.606   8.043 -0.3572 -0.0901 -0.2663
  131POPC   C3A 1940   3.847   2.757   7.720  0.2034 -0.0167 -0.0300
  131POPC   C4A 1941   3.688   2.877   7.334 -0.0009  0.1825 -0.0746
  131POPC   C1B 1942   2.879   2.797   8.277 -0.2521 -0.2605  0.1020
  131POPC   C2B 1943   2.966   2.722   7.885  0.1594  0.0734  0.0779
  131POPC   C3B 1944   2.941   3.086   7.505  0.1893  0.0641  0.3408
  131POPC   C4B 1945   2.929   3.325   7.160 -0.3306  0.2618 -0.0217
  132POPC   NC3 1946   0.993   5.522   8.568  0.0741  0.3763 -0.0693
  132POPC   PO4 1947   0.650   5.630   8.326  0.1131 -0.4363  0.2817
  132POPC   GL1 1948   0.743   5.404   7.871 -0.2367 -0.0512  0.0605
  132POPC   GL2 1949   0.825   5.632   7.745  0.1019  0.0642 -0.1550
  132POPC   C1A 1950   0.770   5.225   7.455  0.0276 -0.2352  0.0552
  132POPC   D2A 1951   0.951   5.376   7.096  0.3124  0.0573 -0.1906
  132POPC   C3A 1952   1.137   5.122   6.829 -0.2260 -0.1137 -0.1669
  132POPC   C4A 1953   1.347   4.771   6.646 -0.2329  0.0519 -0.2356
  132POPC   C1B 1954   0.509   5.676   7.341 -0.1798  0.4000 -0.1810
  132POPC   C2B 1955   0.227   5.870   7.024 -0.0469 -0.0883 -0.0186
  132POPC   C3B 1956   0.167   5.948   6.670  0.0002 -0.0015  0.1922
  132POPC   C4B 1957   0.225   5.780   6.156 -0.0371 -0.0015  0.0718
  133POPC   NC3 1958   9.409   7.345   8.603  0.1040 -0.0399  0.1014
  133POPC   PO4 1959   9.084   7.505   8.452  0.2680 -0.1766 -0.2231
  133POPC   GL1 1960   8.843   7.267   8.063 -0.1140  0.1071 -0.1225
  133POPC   GL2 1961   8.525   7.349   7.878  0.3144 -0.1100 -0.0512
  133POPC   C1A 1962   8.902   6.974   7.729  0.1468 -0.1021  0.2023
  133POPC   D2A 1963   9.001   6.854   7.390  0.2001 -0.3063 -0.1109
  133POPC   C3A 1964   8.855   6.607   7.210 -0.1721  0.1294 -0.0058
  133POPC   C4A 1965   8.736   6.594   6.809  0.0988 -0.0989  0.2471
  133POPC   C1B 1966   8.600   7.303   7.456  0.3084  0.0080 -0.5903
  133POPC   C2B 1967   8.676   7.093   7.092 -0.1061  0.1822  0.2160
  133POPC   C3B 1968   8.585   7.287   6.687  0.2789 -0.2168 -0.2038
  133POPC   C4B 1969   8.443   7.382   6.240  0.0234 -0.1212  0.0134
  134POPC   NC3 1970   5.115   6.483   9.114 -0.1151 -0.1251 -0.0785
  134POPC   PO4 1971   5.122   6.142   8.883  0.0811  0.0086 -0.2144
  134POPC   GL1 1972   5.332   6.052   8.506  0.0651 -0.3133  0.0589
  134POPC   GL2 1973   5.640   6.222   8.459  0.0885 -0.2373 -0.1227
  134POPC   C1A 1974   5.501   5.880   8.127 -0.0054  0.0684  0.1662
  134POPC   D2A 1975   5.448   5.642   7.718  0.2156  0.0947  0.0733
  134POPC   C3A 1976   5.199   5.284   7.515 -0.2819  0.2678  0.0791
  134POPC   C4A 1977   5.111   4.936   7.322 -0.0332 -0.4784 -0.0017
  134POPC   C1B 1978   5.444   6.369   8.106 -0.0772 -0.4953  0.0082
  134POPC   C2B 1979   5.136   6.332   7.724  0.1112  0.0551 -0.2245
  134POPC   C3B 1980   5.193   6.381   7.277 -0.1242 -0.2067 -0.0542
  134POPC   C4B 1981   4.964   6.493   6.937  0.0216  0.2048 -0.3418
  135POPC   NC3 1982   2.076   2.601   8.992  0.2162 -0.0983  0.0899
  135POPC   PO4 1983   2.323   2.421   8.691  0.3606 -0.1770  0.2338
  135POPC   GL1 1984   2.471   2.419   8.293 -0.1583  0.0750 -0.1367
  135POPC   GL2 1985   2.748   2.276   8.278 -0.3576  0.0512 -0.0499
  135POPC   C1A 1986   2.433   2.630   7.956  0.0317 -0.2095  0.1654
  135POPC   D2A 1987   2.304   2.321   7.613  0.1613  0.1609  0.2852
  135POPC   C3A 1988   2.207   2.582   7.281 -0.0814  0.0422 -0.1622
  135POPC   C4A 1989   2.526   2.936   7.177  0.2352 -0.3608  0.0189
  135POPC   C1B 1990   2.846   2.175   7.740  0.2998  0.0687 -0.1171
  135POPC   C2B 1991   2.710   2.151   7.306  0.1858  0.1945 -0.0172
  135POPC   C3B 1992   2.914   2.113   6.869  0.0452  0.4187  0.3277
  135POPC   C4B 1993   2.878   1.932   6.570 -0.0993  0.0997 -0.3137
  136POPC   NC3 1994   8.058   0.155   8.055  0.1777 -0.2423  0.1999
  136POPC   PO4 1995   7.719  -0.028   7.822  0.2561 -0.1376 -0.0036
  136POPC   GL1 1996   7.344  -0.005   7.508  0.2465  0.1428 -0.1849
  136POPC   GL2 1997   7.074   0.302   7.384 -0.0396 -0.2303  0.1095
  136POPC   C1A 1998   7.356  -0.079   7.073  0.1100 -0.1230 -0.0115
  136POPC   D2A 1999   7.624  -0.297   6.636 -0.0692 -0.5135  0.3092
  136POPC   C3A 2000   7.747  -0.745   6.609  0.0198 -0.0800 -0.1099
  136POPC   C4A 2001   8.103  -0.875   6.604  0.1364 -0.1138 -0.0952
  136POPC   C1B 2002   6.844   0.102   6.935  0.1637 -0.0689  0.0534
  136POPC   C2B 2003   6.562   0.034   6.592  0.0841  0.0444  0.0979
  136POPC   C3B 2004   6.173  -0.171   6.491  0.0504 -0.1755 -0.2057
  136POPC   C4B 2005   5.931  -0.194   6.200 -0.1462  0.1096 -0.0323
  137POPC   NC3 2006   2.363   8.935   8.513  0.1426 -0.0589 -0.0405
  137POPC   PO4 2007   2.604   8.625   8.274 -0.0220 -0.0570 -0.1758
  137POPC   GL1 2008   2.785   8.772   7.771  0.3366  0.0518  0.1733
  137POPC   GL2 2009   3.116   8.732   7.792  0.0787 -0.2296  0.0122
  137POPC   C1A 2010   3.009   8.503   7.370  0.0944  0.1013 -0.3157
  137POPC   D2A 2011   3.228   8.527   7.020 -0.1414 -0.2594  0.2150
  137POPC   C3A 2012   3.401   8.847   6.764 -0.1168 -0.2546 -0.1204
  137POPC   C4A 2013   3.607   9.107   6.703 -0.1054  0.1368  0.3337
  137POPC   C1B 2014   3.229   8.916   7.497  0.1619  0.1138  0.0256
  137POPC   C2B 2015   3.312   9.182   7.153 -0.0843  0.1110 -0.3161
  137POPC   C3B 2016   3.160   9.397   6.765 -0.0116 -0.0221  0.0086
  137POPC   C4B 2017   2.940   9.582   6.474 -0.2069  0.1657 -0.1588
  138POPC   NC3 2018   0.078   2.061   7.878 -0.1833  0.1725 -0.0174
  138POPC   PO4 2019   0.523   2.154   7.860  0.2718 -0.2130  0.2614
  138POPC   GL1 2020   0.535   2.259   7.420  0.0862 -0.0561  0.0502
  138POPC   GL2 2021   0.793   2.093   7.224  0.0216 -0.0055 -0.1586
  138POPC   C1A 2022   0.444   2.530   7.062 -0.0399  0.2047  0.1549
  138POPC   D2A 2023   0.032   2.547   6.771 -0.0442  0.1171 -0.2570
  138POPC   C3A 2024   0.035   2.645   6.404  0.0492 -0.0198 -0.0288
  138POPC   C4A 2025   0.181   2.978   6.230  0.1643 -0.0519 -0.0844
  138POPC   C1B 2026   0.943   2.293   6.869  0.0248  0.2540  0.5991
  138POPC   C2B 2027   0.957   2.235   6.383 -0.0663  0.2012 -0.0317
  138POPC   C3B 2028   0.904   2.153   6.008  0.0008 -0.0571  0.3288
  138POPC   C4B 2029   0.778   1.794   5.788 -0.0843 -0.0063 -0.1954
  139POPC   NC3 2030   1.413   8.229   8.060  0.1021  0.1290  0.0798
  139POPC   PO4 2031   1.609   8.511   8.088  0.1419 -0.1759 -0.3616
  139POPC   GL1 2032   1.575   8.461   7.621 -0.2937  0.3495 -0.2689
  139POPC   GL2 2033   1.935   8.482   7.636 -0.4273  0.0443 -0.2558
  139POPC   C1A 2034   1.467   8.665   7.264 -0.1225 -0.2468  0.0517
  139POPC   D2A 2035   1.675   8.912   6.972  0.3361 -0.2327 -0.2254
  139POPC   C3A 2036   1.752   9.235   6.781 -0.1916 -0.2606 -0.1413
  139POPC   C4A 2037   2.080   9.338   6.366 -0.0601 -0.1324  0.0481
  139POPC   C1B 2038   1.932   8.494   7.208 -0.2761 -0.0065 -0.1952
  139POPC   C2B 2039   2.017   8.574   6.825 -0.0840 -0.2492 -0.2954
  139POPC   C3B 2040   2.223   8.335   6.580  0.1316  0.4669  0.1022
  139POPC   C4B 2041   2.285   8.271   6.173  0.1137 -0.1657  0.1412
  140POPC   NC3 2042   6.061   8.006   8.672 -0.2039  0.1199 -0.0427
  140POPC   PO4 2043   6.431   8.055   8.312 -0.1068 -0.2597  0.1030
  140POPC   GL1 2044   6.371   7.913   7.964 -0.1509 -0.3868  0.0198
  140POPC   GL2 2045   6.611   7.739   7.771 -0.1934  0.1197  0.1240
  140POPC   C1A 2046   6.166   7.838   7.587  0.2258  0.1492 -0.1466
  140POPC   D2A 2047   5.996   7.794   7.201 -0.0007 -0.0092 -0.2399
  140POPC   C3A 2048   6.130   7.346   6.985  0.0343  0.0375 -0.0672
  140POPC   C4A 2049   6.480   6.974   6.859  0.1592  0.2716  0.1216
  140POPC   C1B 2050   6.819   7.593   7.421  0.0793 -0.1555  0.2010
  140POPC   C2B 2051   6.845   7.372   7.066  0.0735 -0.1456  0.0966
  140POPC   C3B 2052   7.204   7.195   6.887  0.0416 -0.0914  0.1265
  140POPC   C4B 2053   7.522   7.273   7.122 -0.0823  0.0430 -0.2904
  141POPC   NC3 2054   5.302   2.930   8.672 -0.2199 -0.0353 -0.3600
  141POPC   PO4 2055   5.412   2.521   8.564  0.0548  0.3144  0.0334
  141POPC   GL1 2056   5.150   2.642   8.178  0.0009  0.1183 -0.3350
  141POPC   GL2 2057   4.961   3.029   8.280  0.0556  0.0497  0.0091
  141POPC   C1A 2058   5.168   2.336   7.745  0.1038 -0.0971 -0.0979
  141POPC   D2A 2059   5.198   2.362   7.346  0.2890  0.3728  0.0565
  141POPC   C3A 2060   5.514   2.258   7.012 -0.3942  0.0042  0.0043
  141POPC   C4A 2061   5.867   1.905   7.026 -0.3740 -0.0974 -0.1156
  141POPC   C1B 2062   4.922   3.118   7.866 -0.0699 -0.1692 -0.1844
  141POPC   C2B 2063   4.846   3.555   7.637  0.1647  0.1275  0.3361
  141POPC   C3B 2064   4.957   3.984   7.522 -0.0998  0.0969  0.2588
  141POPC   C4B 2065   5.187   4.318   7.259 -0.0397 -0.1928 -0.2653
  142POPC   NC3 2066   2.101   7.483   8.168  0.1370  0.1236 -0.0715
  142POPC   PO4 2067   1.945   7.151   8.273 -0.2140  0.0402  0.0383
  142POPC   GL1 2068   2.031   6.868   7.973  0.2144 -0.0976 -0.1831
  142POPC   GL2 2069   2.370   6.662   8.051  0.0155  0.2637  0.1370
  142POPC   C1A 2070   2.275   7.029   7.620  0.1465 -0.1812 -0.0053
  142POPC   D2A 2071   2.458   7.141   7.232  0.1722  0.2190  0.1084
  142POPC   C3A 2072   2.628   6.928   6.974 -0.0099 -0.5398 -0.0722
  142POPC   C4A 2073   2.962   6.914   6.643 -0.2272 -0.0806  0.1752
  142POPC   C1B 2074   2.633   6.603   7.601 -0.2813 -0.0036 -0.2874
  142POPC   C2B 2075   2.799   6.478   7.185  0.2685  0.0045 -0.2409
  142POPC   C3B 2076   3.140   6.477   6.856 -0.0617  0.4914  0.0935
  142POPC   C4B 2077   3.289   6.497   6.496  0.0832  0.3169 -0.1768
  143POPC   NC3 2078   1.539   2.607   8.143  0.4141  0.2097  0.1539
  143POPC   PO4 2079   1.896   2.363   8.156 -0.1711  0.1292 -0.1387
  143POPC   GL1 2080   1.815   2.218   7.742  0.0870 -0.1495  0.0200
  143POPC   GL2 2081   1.771   1.908   7.742  0.0359  0.3037  0.1228
  143POPC   C1A 2082   1.784   2.265   7.351  0.2303  0.1362 -0.3509
  143POPC   D2A 2083   1.393   2.432   7.083 -0.2511 -0.0122 -0.2926
  143POPC   C3A 2084   1.411   2.370   6.663  0.1510  0.0371  0.0140
  143POPC   C4A 2085   1.410   2.385   6.190  0.0653  0.0936  0.0925
  143POPC   C1B 2086   2.039   1.916   7.374 -0.2061  0.2546 -0.4305
  143POPC   C2B 2087   2.165   2.016   7.055  0.2279 -0.1555  0.2303
  143POPC   C3B 2088   2.394   2.083   6.733  0.1269 -0.0908  0.0280
  143POPC   C4B 2089   2.411   1.819   6.324 -0.1849 -0.2423 -0.0289
  144POPC   NC3 2090   0.968   1.160   3.972 -0.3625  0.2039  0.1563
  144POPC   PO4 2091   0.657   0.814   3.996  0.0811  0.0943 -0.2638
  144POPC   GL1 2092   0.503   0.637   4.408  0.0161 -0.1449  0.0356
  144POPC   GL2 2093   0.412   0.298   4.406 -0.1614 -0.2344 -0.1261
  144POPC   C1A 2094   0.407   0.665   4.868  0.0589 -0.0686 -0.0314
  144POPC   D2A 2095   0.268   0.531   5.372 -0.0846  0.1191  0.2804
  144POPC   C3A 2096   0.126   0.111   5.554  0.0788 -0.0699  0.0216
  144POPC   C4A 2097   0.065  -0.026   5.961  0.1076  0.2200 -0.1134
  144POPC   C1B 2098   0.778   0.342   4.771 -0.0774  0.2437 -0.0592
  144POPC   C2B 2099   0.907   0.596   5.080  0.2416 -0.2300 -0.1575
  144POPC   C3B 2100   0.669   0.870   5.415 -0.0929  0.1038 -0.1372
  144POPC   C4B 2101   0.687   1.323   5.611 -0.1255  0.0268 -0.2461
  145POPC   NC3 2102   4.148   7.791   4.619  0.0655  0.0088  0.1565
  145POPC   PO4 2103   3.757   7.690   4.634  0.0851  0.1273  0.3014
  145POPC   GL1 2104   3.833   7.379   4.742  0.1425  0.3306 -0.2945
  145POPC   GL2 2105   3.798   7.428   5.074 -0.0389 -0.2336  0.1509
  145POPC   C1A 2106   3.591   6.993   4.912 -0.0172  0.0052 -0.2143
  145POPC   D2A 2107   3.563   6.902   5.361  0.3418 -0.2483  0.1295
  145POPC   C3A 2108   3.225   6.970   5.670 -0.0138 -0.0113  0.0619
  145POPC   C4A 2109   3.032   7.171   6.024 -0.0407  0.1704  0.0273
  145POPC   C1B 2110   3.938   7.275   5.418 -0.0243  0.2787  0.2537
  145POPC   C2B 2111   3.937   6.874   5.637 -0.2486 -0.1021  0.1466
  145POPC   C3B 2112   3.824   6.437   5.578 -0.0863  0.0587 -0.0840
  145POPC   C4B 2113   3.631   6.056   5.799  0.1401 -0.0468  0.0403
  146POPC   NC3 2114   5.720   2.395   3.908  0.0669 -0.0469  0.5879
  146POPC   PO4 2115   5.410   2.123   4.055  0.0545 -0.0877 -0.3901
  146POPC   GL1 2116   5.382   2.256   4.433  0.0992  0.3186 -0.0461
  146POPC   GL2 2117   5.401   1.937   4.610  0.0999  0.0258  0.2475
  146POPC   C1A 2118   5.541   2.410   4.798  0.2846 -0.1901 -0.2705
  146POPC   D2A 2119   5.676   2.451   5.224  0.2235  0.0738 -0.1830
  146POPC   C3A 2120   5.547   2.511   5.670  0.0791  0.0141  0.1447
  146POPC   C4A 2121   5.479   2.472   6.101 -0.3795 -0.0168  0.0052
  146POPC   C1B 2122   5.571   1.950   5.069  0.0409 -0.0566 -0.3187
  146POPC   C2B 2123   5.452   1.980   5.509 -0.1974 -0.1216  0.1898
  146POPC   C3B 2124   5.342   2.048   5.952 -0.0122 -0.0820  0.0809
  146POPC   C4B 2125   5.030   1.999   6.317 -0.2254 -0.0200 -0.1624
  147POPC   NC3 2126   4.740   8.350   3.979  0.1827  0.1406 -0.0414
  147POPC   PO4 2127   4.937   8.185   4.279 -0.0375  0.3675 -0.3171
  147POPC   GL1 2128   4.752   8.265   4.543 -0.0440 -0.1680 -0.3137
  147POPC   GL2 2129   4.826   8.549   4.647  0.2121 -0.0691 -0.1042
  147POPC   C1A 2130   4.772   8.116   4.986  0.0344 -0.0566 -0.1086
  147POPC   D2A 2131   4.539   8.160   5.332 -0.1890 -0.0272  0.1862
  147POPC   C3A 2132   4.608   8.159   5.763 -0.0383  0.2367 -0.0533
  147POPC   C4A 2133   4.616   8.217   6.176  0.0230 -0.0354 -0.1840
  147POPC   C1B 2134   4.475   8.657   5.001 -0.3862  0.1020 -0.0755
  147POPC   C2B 2135   4.174   8.891   5.360 -0.0681  0.0972 -0.0897
  147POPC   C3B 2136   3.908   8.936   5.664 -0.1056  0.5507 -0.0456
  147POPC   C4B 2137   3.451   8.940   5.682 -0.1404 -0.0007  0.1900
  148POPC   NC3 2138   2.940   9.067   4.486  0.3049  0.1985  0.0488
  148POPC   PO4 2139   3.164   9.377   4.682 -0.2591  0.2932  0.0117
  148POPC   GL1 2140   3.015   9.131   5.005  0.0124 -0.0805 -0.0361
  148POPC   GL2 2141   2.833   8.737   4.942 -0.3006 -0.2785 -0.0794
  148POPC   C1A 2142   2.940   8.964   5.404 -0.0221 -0.0139  0.1351
  148POPC   D2A 2143   2.941   8.820   5.818 -0.2871  0.4132 -0.3175
  148POPC   C3A 2144   3.266   8.559   6.121 -0.1121  0.0002  0.1254
  148POPC   C4A 2145   3.587   8.766   6.281  0.3952  0.0368  0.0887
  148POPC   C1B 2146   2.602   8.461   5.271  0.0213  0.1945 -0.0669
  148POPC   C2B 2147   2.913   8.270   5.514  0.2702 -0.0996  0.1263
  148POPC   C3B 2148   2.880   8.169   5.901 -0.2768  0.1885 -0.2272
  148POPC   C4B 2149   3.147   8.081   6.249 -0.2038  0.2593 -0.1184
  149POPC   NC3 2150   8.273   6.851   3.880  0.1747  0.2945 -0.2316
  149POPC   PO4 2151   8.317   6.800   4.347 -0.3816 -0.1097 -0.1892
  149POPC   GL1 2152   8.330   6.572   4.680 -0.1428 -0.0060 -0.0523
  149POPC   GL2 2153   8.258   6.802   4.949  0.1749 -0.1566  0.1890
  149POPC   C1A 2154   8.507   6.453   5.072  0.2415 -0.0190  0.1235
  149POPC   D2A 2155   8.819   6.588   5.119  0.2302 -0.0701  0.2474
  149POPC   C3A 2156   8.839   6.309   5.425  0.1666  0.2410 -0.1032
  149POPC   C4A 2157   9.008   6.099   5.721 -0.1770  0.2291 -0.0961
  149POPC   C1B 2158   8.024   6.858   5.249 -0.2778  0.0469 -0.0547
  149POPC   C2B 2159   7.928   6.632   5.601 -0.1943 -0.1880 -0.0088
  149POPC   C3B 2160   7.735   6.630   5.998  0.3707 -0.0191 -0.2957
  149POPC   C4B 2161   7.681   6.424   6.433  0.0987 -0.0673 -0.1458
  150POPC   NC3 2162   3.327   5.948   3.290  0.0577 -0.1905  0.0559
  150POPC   PO4 2163   3.247   6.203   3.592 -0.1815  0.2613  0.2503
  150POPC   GL1 2164   3.469   6.073   3.853 -0.1532 -0.1346 -0.1570
  150POPC   GL2 2165   3.561   6.180   4.165 -0.1950  0.0387 -0.0888
  150POPC   C1A 2166   3.357   5.718   4.121  0.6193 -0.3831  0.2088
  150POPC   D2A 2167   3.413   5.447   4.453  0.3892  0.4336  0.0582
  150POPC   C3A 2168   3.737   5.224   4.545  0.0346 -0.0294 -0.0255
  150POPC   C4A 2169   4.139   5.063   4.696  0.1849 -0.2858  0.0386
  150POPC   C1B 2170   3.458   5.961   4.549  0.1173  0.2066  0.0509
  150POPC   C2B 2171   3.536   5.702   4.882 -0.1206  0.1598 -0.0413
  150POPC   C3B 2172   3.695   5.337   5.009  0.4688 -0.3967  0.2333
  150POPC   C4B 2173   3.926   5.307   5.333 -0.1410 -0.2296  0.1340
  151POPC   NC3 2174   9.143   6.983   3.539 -0.1005 -0.0426  0.2609
  151POPC   PO4 2175   9.256   6.896   4.062  0.3263  0.0665  0.3476
  151POPC   GL1 2176   9.294   7.058   4.492  0.0185  0.0057 -0.5938
  151POPC   GL2 2177   9.118   7.135   4.770 -0.4028 -0.0738  0.3506
  151POPC   C1A 2178   9.649   6.900   4.792 -0.1880 -0.0351  0.0238
  151POPC   D2A 2179   9.811   6.672   4.886  0.1406  0.2664 -0.2282
  151POPC   C3A 2180  10.251   6.624   5.118 -0.1946  0.0047  0.2930
  151POPC   C4A 2181  10.411   6.997   5.383 -0.0029  0.0595 -0.0190
  151POPC   C1B 2182   9.164   6.933   5.138 -0.1981  0.0178  0.0793
  151POPC   C2B 2183   9.099   6.903   5.604  0.0630  0.1700 -0.0185
  151POPC   C3B 2184   8.899   7.112   5.933  0.0875 -0.0327  0.2255
  151POPC   C4B 2185   8.923   7.445   6.197 -0.0958  0.1239 -0.0368
  152POPC   NC3 2186   3.073   1.816   3.501 -0.2828 -0.0846 -0.0373
  152POPC   PO4 2187   2.706   1.827   3.754 -0.3150  0.2935  0.2885
  152POPC   GL1 2188   2.784   1.699   4.205  0.0527 -0.0643 -0.0910
  152POPC   GL2 2189   2.617   1.817   4.404  0.0804 -0.2877 -0.0406
  152POPC   C1A 2190   3.083   1.476   4.442  0.0073  0.1479 -0.0829
  152POPC   D2A 2191   3.319   1.398   4.813 -0.0606 -0.3646 -0.1708
  152POPC   C3A 2192   3.015   1.546   5.105 -0.2038  0.1296 -0.0182
  152POPC   C4A 2193   2.718   1.678   5.433 -0.0426  0.2200 -0.2583
  152POPC   C1B 2194   2.919   1.896   4.728  0.2316  0.2083 -0.0840
  152POPC   C2B 2195   3.018   2.062   5.162  0.0633  0.0714  0.4611
  152POPC   C3B 2196   2.834   2.196   5.551 -0.0163  0.3606 -0.0299
  152POPC   C4B 2197   2.748   2.113   6.038 -0.0236 -0.1502 -0.1140
  153POPC   NC3 2198   0.113   8.553   4.271  0.2741  0.0770  0.2484
  153POPC   PO4 2199  -0.197   8.773   4.283  0.0046  0.0123  0.2593
  153POPC   GL1 2200  -0.133   8.592   4.692 -0.1648  0.3278  0.1658
  153POPC   GL2 2201  -0.145   8.313   4.736 -0.0796  0.3794  0.1422
  153POPC   C1A 2202  -0.440   8.794   4.983 -0.1172  0.3888 -0.2326
  153POPC   D2A 2203  -0.321   8.812   5.390 -0.2013 -0.1798 -0.1480
  153POPC   C3A 2204  -0.340   8.545   5.717  0.2139 -0.1039 -0.1103
  153POPC   C4A 2205  -0.454   8.730   6.061 -0.1795 -0.1805  0.0527
  153POPC   C1B 2206  -0.143   8.387   5.162 -0.1432 -0.3102  0.0212
  153POPC   C2B 2207  -0.051   8.206   5.571 -0.1284 -0.2885  0.0626
  153POPC   C3B 2208   0.031   8.259   5.940 -0.0552 -0.1805  0.3475
  153POPC   C4B 2209   0.126   8.669   6.018 -0.1897  0.1662 -0.2289
  154POPC   NC3 2210   7.588   7.132   4.300  0.1636  0.2427  0.2983
  154POPC   PO4 2211   7.766   6.785   4.462  0.1797  0.1202  0.1994
  154POPC   GL1 2212   7.856   6.444   4.781 -0.1615 -0.0786  0.0572
  154POPC   GL2 2213   7.585   6.307   4.784  0.2701  0.3331  0.0622
  154POPC   C1A 2214   8.035   6.340   5.194 -0.2560 -0.0367  0.0288
  154POPC   D2A 2215   8.360   6.339   5.551  0.1136 -0.1809  0.2341
  154POPC   C3A 2216   8.499   6.269   5.998  0.0153 -0.2415  0.1874
  154POPC   C4A 2217   8.815   6.301   6.371  0.0075  0.2755  0.1433
  154POPC   C1B 2218   7.611   6.512   5.201 -0.1337 -0.0879  0.0790
  154POPC   C2B 2219   7.434   6.641   5.613  0.2176  0.0354  0.0014
  154POPC   C3B 2220   7.202   6.599   6.083 -0.1352 -0.1581  0.3044
  154POPC   C4B 2221   7.035   6.797   6.514  0.1077  0.1838 -0.1763
  155POPC   NC3 2222   8.842   2.372   4.272  0.0517  0.3541  0.1325
  155POPC   PO4 2223   8.501   2.750   4.274 -0.2333 -0.2417  0.4351
  155POPC   GL1 2224   8.518   2.644   4.654 -0.0153 -0.1458  0.0455
  155POPC   GL2 2225   8.635   2.410   4.772 -0.0082  0.3622  0.1376
  155POPC   C1A 2226   8.305   2.629   5.074 -0.0243  0.4313 -0.0864
  155POPC   D2A 2227   7.896   2.518   5.292  0.2651  0.3698  0.0922
  155POPC   C3A 2228   7.628   2.750   5.537 -0.1848 -0.2222  0.0322
  155POPC   C4A 2229   7.736   2.931   5.919  0.1176 -0.4007  0.0815
  155POPC   C1B 2230   8.534   2.064   5.033 -0.1497  0.3655 -0.1643
  155POPC   C2B 2231   8.334   2.094   5.367  0.0731  0.0720 -0.1823
  155POPC   C3B 2232   8.197   1.965   5.818 -0.3535  0.0142 -0.0914
  155POPC   C4B 2233   7.922   1.944   6.135 -0.3443  0.1571 -0.1831
  156POPC   NC3 2234   3.122   7.447   4.215  0.2607  0.1238 -0.0501
  156POPC   PO4 2235   3.016   7.731   4.368 -0.2096  0.1568 -0.4859
  156POPC   GL1 2236   3.002   7.706   4.835  0.1888  0.1073  0.2513
  156POPC   GL2 2237   3.241   7.554   4.793 -0.2606 -0.0727  0.1488
  156POPC   C1A 2238   2.797   7.476   5.111  0.0948 -0.2371  0.0493
  156POPC   D2A 2239   2.855   7.179   5.321 -0.0206  0.2576  0.4243
  156POPC   C3A 2240   2.586   7.213   5.633  0.0992  0.1145  0.0168
  156POPC   C4A 2241   2.567   7.465   5.962  0.0800 -0.2219 -0.1699
  156POPC   C1B 2242   3.310   7.408   5.149  0.0477  0.1498  0.1782
  156POPC   C2B 2243   3.481   7.371   5.525 -0.0993  0.0095  0.1606
  156POPC   C3B 2244   3.592   7.261   5.869 -0.0974  0.0499 -0.0985
  156POPC   C4B 2245   3.713   7.488   6.236 -0.0190 -0.1799 -0.1475
  157POPC   NC3 2246   7.347   7.323   4.707  0.1977  0.1301 -0.2783
  157POPC   PO4 2247   6.904   7.216   4.773  0.1817  0.1293  0.2240
  157POPC   GL1 2248   7.005   6.977   5.202  0.0657  0.0250  0.0616
  157POPC   GL2 2249   7.259   7.023   5.291 -0.0922  0.1498  0.2283
  157POPC   C1A 2250   6.829   7.065   5.527  0.0520 -0.2021  0.1576
  157POPC   D2A 2251   7.169   7.061   5.809 -0.3809  0.0532  0.0122
  157POPC   C3A 2252   7.143   7.289   6.299 -0.0805  0.2059  0.0823
  157POPC   C4A 2253   6.839   7.299   6.528  0.1232  0.1727 -0.1947
  157POPC   C1B 2254   7.650   7.055   5.496  0.0241 -0.0905  0.0377
  157POPC   C2B 2255   7.895   7.405   5.574 -0.0758  0.2478  0.0379
  157POPC   C3B 2256   8.050   7.613   5.989  0.2914 -0.1878  0.2610
  157POPC   C4B 2257   7.786   8.030   6.156 -0.1736  0.1592 -0.5252
  158POPC   NC3 2258   0.322   5.431   4.216  0.0587 -0.2450 -0.3647
  158POPC   PO4 2259   0.616   5.603   4.337  0.0085 -0.2551  0.1522
  158POPC   GL1 2260   0.916   5.510   4.677  0.1908  0.2224  0.0281
  158POPC   GL2 2261   1.272   5.468   4.651  0.2750  0.1947  0.4170
  158POPC   C1A 2262   0.803   5.364   5.050 -0.1426  0.1915 -0.3046
  158POPC   D2A 2263   0.686   5.244   5.491 -0.0955  0.0219  0.2643
  158POPC   C3A 2264   0.678   5.562   5.729  0.0570 -0.1511 -0.2108
  158POPC   C4A 2265   0.721   5.720   6.116 -0.0897  0.1322  0.0831
  158POPC   C1B 2266   1.394   5.568   5.032 -0.1780  0.1370  0.2500
  158POPC   C2B 2267   1.551   5.804   5.257 -0.0574 -0.1585 -0.2778
  158POPC   C3B 2268   1.752   6.077   5.216  0.0835  0.2001 -0.1875
  158POPC   C4B 2269   1.917   6.395   5.495 -0.2429 -0.2776 -0.1723
  159POPC   NC3 2270   4.165   1.035   4.122  0.1076  0.0045 -0.0902
  159POPC   PO4 2271   3.819   1.098   4.116 -0.0202  0.0549  0.4721
  159POPC   GL1 2272   3.793   0.847   4.437  0.4526  0.1450  0.4216
  159POPC   GL2 2273   3.700   1.108   4.621  0.2279 -0.1113 -0.3112
  159POPC   C1A 2274   3.674   0.501   4.810 -0.2026  0.0169 -0.2855
  159POPC   D2A 2275   3.782   0.244   5.212 -0.1095 -0.3113 -0.0814
  159POPC   C3A 2276   3.508   0.372   5.603  0.0350  0.0622 -0.0436
  159POPC   C4A 2277   3.147   0.315   5.821  0.1415 -0.0589 -0.0088
  159POPC   C1B 2278   3.818   1.616   4.798 -0.1216  0.0497  0.1020
  159POPC   C2B 2279   3.977   2.044   4.968  0.0178 -0.1874 -0.1506
  159POPC   C3B 2280   3.972   2.185   5.327  0.0260  0.0363  0.0419
  159POPC   C4B 2281   3.752   1.971   5.736 -0.0654 -0.1367  0.1546
  160POPC   NC3 2282   5.064   6.160   3.849 -0.0377 -0.0830  0.1055
  160POPC   PO4 2283   5.149   6.365   4.224  0.0017  0.0599 -0.0035
  160POPC   GL1 2284   4.743   6.220   4.360 -0.0263 -0.5857  0.1235
  160POPC   GL2 2285   4.763   5.939   4.342 -0.2541 -0.0025 -0.0806
  160POPC   C1A 2286   4.436   6.057   4.765  0.1051 -0.1679 -0.3025
  160POPC   D2A 2287   4.424   5.797   4.995 -0.2473 -0.1060 -0.1275
  160POPC   C3A 2288   4.768   5.502   5.213 -0.2206 -0.0229 -0.1620
  160POPC   C4A 2289   5.025   5.645   5.528  0.2000 -0.0780 -0.2649
  160POPC   C1B 2290   4.515   5.572   4.510 -0.1317  0.0224 -0.1386
  160POPC   C2B 2291   4.649   5.224   4.683  0.0665 -0.2720 -0.3891
  160POPC   C3B 2292   5.031   5.102   4.821 -0.2883  0.0720 -0.3700
  160POPC   C4B 2293   5.408   5.027   4.838  0.0743  0.1959  0.0435
  161POPC   NC3 2294   2.299   0.522   4.148 -0.1551 -0.0555  0.0210
  161POPC   PO4 2295   2.649   0.533   4.464  0.1312 -0.3554 -0.0269
  161POPC   GL1 2296   2.808   0.896   4.635 -0.2490  0.2177 -0.2474
  161POPC   GL2 2297   2.932   0.966   4.918  0.4334 -0.3485 -0.1194
  161POPC   C1A 2298   2.659   1.413   4.676  0.1212  0.1925 -0.3434
  161POPC   D2A 2299   2.553   1.624   4.982  0.1140 -0.1217 -0.1150
  161POPC   C3A 2300   2.495   1.997   4.949 -0.1518  0.0556  0.2875
  161POPC   C4A 2301   2.617   2.419   5.006  0.1287  0.0145 -0.0594
  161POPC   C1B 2302   2.714   0.630   5.132  0.1676 -0.1487  0.1872
  161POPC   C2B 2303   2.770   0.194   5.370  0.1800 -0.2562  0.2915
  161POPC   C3B 2304   2.695   0.031   5.811  0.0334  0.0999 -0.1397
  161POPC   C4B 2305   2.450  -0.268   5.995 -0.5320 -0.1227  0.0622
  162POPC   NC3 2306   6.272   0.309   4.452  0.1864 -0.1859 -0.2625
  162POPC   PO4 2307   5.951   0.018   4.304 -0.2163 -0.2059 -0.0020
  162POPC   GL1 2308   5.949   0.013   4.796 -0.2655 -0.0584  0.3390
  162POPC   GL2 2309   5.933   0.305   4.847  0.0623 -0.0995  0.0623
  162POPC   C1A 2310   5.807  -0.210   5.160 -0.1675  0.0926 -0.3825
  162POPC   D2A 2311   5.976  -0.202   5.618 -0.3450 -0.2121  0.1617
  162POPC   C3A 2312   6.054   0.200   5.827  0.4199  0.1042  0.0064
  162POPC   C4A 2313   6.220   0.473   6.074  0.0122 -0.1370 -0.0439
  162POPC   C1B 2314   5.655   0.384   5.109  0.0404 -0.0261 -0.1078
  162POPC   C2B 2315   5.634   0.149   5.505  0.3578  0.0923 -0.0715
  162POPC   C3B 2316   5.550  -0.045   5.900  0.2649  0.0330 -0.1272
  162POPC   C4B 2317   5.202  -0.123   6.083  0.3955  0.0250 -0.0867
  163POPC   NC3 2318   8.213   8.110   4.530  0.1398 -0.2353  0.1087
  163POPC   PO4 2319   8.683   8.017   4.355  0.3239 -0.3758 -0.0850
  163POPC   GL1 2320   8.662   7.999   4.891 -0.0536 -0.1062  0.1899
  163POPC   GL2 2321   8.498   8.282   4.977  0.0253 -0.1275  0.0559
  163POPC   C1A 2322   8.749   8.037   5.301 -0.0208 -0.2185 -0.1014
  163POPC   D2A 2323   8.637   8.179   5.720  0.0719  0.2122  0.1676
  163POPC   C3A 2324   8.175   8.090   5.758  0.0436 -0.1217 -0.1641
  163POPC   C4A 2325   7.808   7.853   5.532 -0.0920  0.1649  0.3102
  163POPC   C1B 2326   8.290   7.974   5.289  0.1044  0.2175  0.0674
  163POPC   C2B 2327   8.387   7.641   5.515  0.0243  0.2465 -0.0801
  163POPC   C3B 2328   8.471   7.237   5.717 -0.2759 -0.0366  0.0516
  163POPC   C4B 2329   8.166   6.867   5.918  0.0265  0.1805  0.0808
  164POPC   NC3 2330   8.743   8.480   4.093  0.1013 -0.3359  0.1138
  164POPC   PO4 2331   8.538   8.512   4.530 -0.0301  0.2613  0.0095
  164POPC   GL1 2332   8.715   8.719   4.903  0.2076  0.1399 -0.0004
  164POPC   GL2 2333   8.542   8.952   5.031  0.2713  0.1049 -0.2631
  164POPC   C1A 2334   8.814   8.564   5.360 -0.1673 -0.0049  0.1423
  164POPC   D2A 2335   8.821   8.633   5.819 -0.0051  0.0464 -0.0225
  164POPC   C3A 2336   8.547   8.396   6.153  0.0475  0.0817 -0.3099
  164POPC   C4A 2337   8.519   8.242   6.643  0.1029 -0.0037 -0.0052
  164POPC   C1B 2338   8.496   8.967   5.481 -0.0216 -0.1640 -0.0780
  164POPC   C2B 2339   8.575   9.350   5.656 -0.1376  0.1367 -0.0691
  164POPC   C3B 2340   8.643   9.511   6.126 -0.1773 -0.1015 -0.4581
  164POPC   C4B 2341   8.913   9.870   6.309  0.1073  0.0949  0.1924
  165POPC   NC3 2342   1.948   1.285   4.047  0.0527  0.0334  0.5328
  165POPC   PO4 2343   1.465   1.319   3.945 -0.2103 -0.2341  0.0288
  165POPC   GL1 2344   1.625   1.401   4.384 -0.1682 -0.1011 -0.3878
  165POPC   GL2 2345   1.539   1.640   4.440  0.0804  0.0671  0.0106
  165POPC   C1A 2346   1.603   1.389   4.870 -0.1076  0.0729 -0.0131
  165POPC   D2A 2347   1.612   1.254   5.243 -0.1471  0.1519 -0.1919
  165POPC   C3A 2348   1.860   1.172   5.587  0.2090  0.1932 -0.0457
  165POPC   C4A 2349   2.302   1.011   5.696 -0.0725 -0.4764  0.1381
  165POPC   C1B 2350   1.523   1.852   4.888  0.0328 -0.2555  0.1543
  165POPC   C2B 2351   1.575   1.763   5.300  0.1473  0.1252  0.1953
  165POPC   C3B 2352   1.856   1.663   5.645 -0.1488  0.0320  0.0102
  165POPC   C4B 2353   1.966   1.775   6.088  0.0121 -0.0446 -0.0244
  166POPC   NC3 2354   7.976   0.040   4.454  0.0269 -0.2063  0.3406
  166POPC   PO4 2355   8.260  -0.205   4.557  0.0008  0.0435  0.5062
  166POPC   GL1 2356   8.096  -0.343   4.849 -0.1916  0.1396 -0.1144
  166POPC   GL2 2357   7.711  -0.299   4.827 -0.1185  0.1155 -0.3102
  166POPC   C1A 2358   8.058  -0.446   5.280 -0.1182 -0.5030  0.0852
  166POPC   D2A 2359   8.099  -0.534   5.708 -0.2052  0.2497  0.1039
  166POPC   C3A 2360   7.816  -0.565   6.042  0.0879  0.0259  0.1600
  166POPC   C4A 2361   7.385  -0.510   6.227  0.0040 -0.2038  0.0129
  166POPC   C1B 2362   7.946   0.096   5.127 -0.0482  0.3369  0.1268
  166POPC   C2B 2363   7.983   0.287   5.501  0.0143 -0.1086 -0.3330
  166POPC   C3B 2364   8.028   0.509   5.885 -0.2234 -0.1113 -0.0825
  166POPC   C4B 2365   8.342   0.835   5.980 -0.0571  0.2187 -0.1112
  167POPC   NC3 2366   7.064   3.066   4.242  0.0487  0.1494 -0.1359
  167POPC   PO4 2367   7.259   3.443   4.398  0.1473 -0.2971  0.4825
  167POPC   GL1 2368   6.906   3.307   4.627  0.4145 -0.1120 -0.1695
  167POPC   GL2 2369   6.613   3.302   4.486  0.4787 -0.0893 -0.0880
  167POPC   C1A 2370   6.938   3.133   5.085 -0.1750  0.0569  0.1385
  167POPC   D2A 2371   6.671   3.189   5.428 -0.0971  0.1054 -0.4512
  167POPC   C3A 2372   6.779   3.217   5.831  0.1946 -0.2008 -0.0174
  167POPC   C4A 2373   7.027   3.372   6.201  0.0101 -0.1069 -0.1842
  167POPC   C1B 2374   6.540   3.394   4.986  0.0181 -0.0717  0.0751
  167POPC   C2B 2375   6.461   3.660   5.437 -0.1210  0.0944  0.4586
  167POPC   C3B 2376   6.689   3.716   5.813 -0.2730 -0.3524 -0.2070
  167POPC   C4B 2377   6.557   3.579   6.218 -0.1876  0.1045 -0.0233
  168POPC   NC3 2378   8.183   0.659   3.810 -0.1303  0.0854 -0.2852
  168POPC   PO4 2379   8.646   0.693   4.028 -0.2935  0.1780  0.0130
  168POPC   GL1 2380   8.650   0.784   4.375  0.1432  0.1509 -0.2450
  168POPC   GL2 2381   8.696   0.535   4.540 -0.0339  0.1678  0.0591
  168POPC   C1A 2382   8.567   1.018   4.840  0.0592  0.2029  0.0703
  168POPC   D2A 2383   8.713   1.432   4.885 -0.0076  0.0097 -0.1178
  168POPC   C3A 2384   8.919   1.651   5.206 -0.1218 -0.0313 -0.0016
  168POPC   C4A 2385   9.162   1.860   5.531  0.0604 -0.2823 -0.0033
  168POPC   C1B 2386   8.704   0.484   4.915  0.2024 -0.2360 -0.0362
  168POPC   C2B 2387   8.499   0.752   5.237  0.2878 -0.2551  0.0371
  168POPC   C3B 2388   8.351   1.149   5.489 -0.0371  0.0737 -0.0838
  168POPC   C4B 2389   8.548   1.589   5.620 -0.0466 -0.1957 -0.1901
  169POPC   NC3 2390   0.695   0.265   3.740 -0.0194 -0.4079  0.1994
  169POPC   PO4 2391   0.903  -0.099   4.032 -0.1404 -0.2570 -0.0826
  169POPC   GL1 2392   0.934  -0.033   4.492 -0.0195  0.0915 -0.0927
  169POPC   GL2 2393   1.184   0.125   4.706 -0.2487  0.0849  0.0986
  169POPC   C1A 2394   0.833  -0.101   5.005 -0.0475 -0.1058  0.0056
  169POPC   D2A 2395   0.660  -0.428   5.425 -0.1335 -0.1541  0.1692
  169POPC   C3A 2396   0.481  -0.189   5.788  0.0586  0.0229 -0.0929
  169POPC   C4A 2397   0.652  -0.063   6.156  0.0333 -0.4729 -0.2417
  169POPC   C1B 2398   1.218   0.318   5.281  0.0298  0.1101  0.0578
  169POPC   C2B 2399   1.054   0.563   5.625  0.2434  0.0247  0.0413
  169POPC   C3B 2400   0.959   0.811   6.034 -0.0884 -0.1071 -0.1472
  169POPC   C4B 2401   0.952   0.810   6.474 -0.0208 -0.0442 -0.1102
  170POPC   NC3 2402   7.687   3.507   3.940  0.2908  0.0019  0.3156
  170POPC   PO4 2403   7.806   3.987   4.343  0.0819 -0.0003  0.2271
  170POPC   GL1 2404   8.033   4.066   4.795  0.0677  0.1695  0.0597
  170POPC   GL2 2405   8.444   4.174   4.802 -0.1379 -0.2159  0.5472
  170POPC   C1A 2406   8.149   4.223   5.200  0.4411 -0.2786  0.2384
  170POPC   D2A 2407   8.387   4.243   5.541 -0.3351 -0.0904  0.1264
  170POPC   C3A 2408   8.140   4.112   5.837 -0.1835 -0.0105  0.3233
  170POPC   C4A 2409   7.845   4.342   6.110 -0.0976 -0.3495  0.2320
  170POPC   C1B 2410   8.680   4.224   5.139 -0.1740 -0.1540 -0.3155
  170POPC   C2B 2411   8.747   3.885   5.508  0.1415  0.1044 -0.0312
  170POPC   C3B 2412   8.967   4.162   5.910  0.0034  0.0072  0.0950
  170POPC   C4B 2413   9.154   4.040   6.370 -0.2047 -0.1723 -0.1376
  171POPC   NC3 2414   8.277   5.487   4.361 -0.1770  0.0068  0.0654
  171POPC   PO4 2415   7.881   5.323   4.367  0.0219 -0.0757 -0.1093
  171POPC   GL1 2416   7.923   5.166   4.824  0.2485 -0.0468 -0.1539
  171POPC   GL2 2417   7.685   5.035   4.995 -0.0690 -0.0170  0.3123
  171POPC   C1A 2418   8.119   4.943   5.255 -0.2395  0.0522  0.0263
  171POPC   D2A 2419   8.128   4.675   5.585 -0.0518 -0.2012 -0.1903
  171POPC   C3A 2420   8.164   4.738   5.997  0.0720 -0.2066 -0.1229
  171POPC   C4A 2421   8.108   5.068   6.272 -0.0583  0.0598  0.2853
  171POPC   C1B 2422   7.596   4.991   5.401  0.0754  0.1278 -0.1811
  171POPC   C2B 2423   7.265   5.028   5.732  0.0058  0.3189  0.1075
  171POPC   C3B 2424   7.189   4.976   6.171 -0.3633  0.2254  0.1538
  171POPC   C4B 2425   6.852   4.957   6.437  0.1880  0.2121 -0.2052
  172POPC   NC3 2426   3.573   9.570   4.350 -0.1628 -0.0835 -0.1136
  172POPC   PO4 2427   3.949   9.735   4.294 -0.2387  0.0700  0.1422
  172POPC   GL1 2428   3.949   9.775   4.603 -0.1001 -0.3192 -0.1725
  172POPC   GL2 2429   3.523   9.742   4.809 -0.3008  0.0981 -0.2493
  172POPC   C1A 2430   4.093   9.566   4.953  0.2482 -0.1007 -0.1778
  172POPC   D2A 2431   4.192   9.430   5.426 -0.0839  0.0253 -0.2084
  172POPC   C3A 2432   4.420   9.705   5.622 -0.0827  0.1041 -0.2477
  172POPC   C4A 2433   4.670   9.592   5.903 -0.3523 -0.1833  0.2704
  172POPC   C1B 2434   3.229   9.770   5.180 -0.5778 -0.1365  0.0750
  172POPC   C2B 2435   3.154   9.452   5.459  0.2664 -0.0747  0.1420
  172POPC   C3B 2436   2.997   9.320   5.958 -0.0217  0.1990  0.1549
  172POPC   C4B 2437   3.177   9.096   6.342  0.1145 -0.1084 -0.3551
  173POPC   NC3 2438   4.242   8.271   4.491 -0.2640  0.2743  0.2772
  173POPC   PO4 2439   4.445   8.588   4.260 -0.0953  0.1418 -0.0021
  173POPC   GL1 2440   4.149   8.845   4.616 -0.0711 -0.2924  0.0312
  173POPC   GL2 2441   3.911   8.600   4.646 -0.1658  0.1520 -0.1904
  173POPC   C1A 2442   4.243   9.044   4.884 -0.0424 -0.3100  0.0143
  173POPC   D2A 2443   4.612   9.292   4.999 -0.2988  0.3655  0.0835
  173POPC   C3A 2444   4.723   9.659   5.165  0.1570 -0.3683  0.0790
  173POPC   C4A 2445   4.750  10.143   5.104  0.0154  0.4047  0.0520
  173POPC   C1B 2446   3.801   8.736   5.014  0.2213 -0.2803 -0.1485
  173POPC   C2B 2447   3.758   8.497   5.402 -0.0807 -0.1727  0.0187
  173POPC   C3B 2448   3.733   8.068   5.532 -0.2832  0.0422 -0.2838
  173POPC   C4B 2449   3.774   7.742   5.810  0.2043 -0.0345 -0.0044
  174POPC   NC3 2450   6.766   2.738   3.350  0.0182 -0.1335  0.2323
  174POPC   PO4 2451   6.661   2.752   3.853  0.1037  0.1879 -0.1357
  174POPC   GL1 2452   6.582   2.564   4.305 -0.2442 -0.4551 -0.0145
  174POPC   GL2 2453   6.825   2.760   4.485 -0.0659  0.1434  0.0245
  174POPC   C1A 2454   6.365   2.899   4.632  0.3275  0.1554  0.1488
  174POPC   D2A 2455   6.336   2.962   5.130 -0.1472  0.0187  0.3394
  174POPC   C3A 2456   6.194   3.233   5.560 -0.0531 -0.3123  0.1420
  174POPC   C4A 2457   6.252   3.506   5.861 -0.0003  0.1193 -0.1146
  174POPC   C1B 2458   6.727   2.641   4.888 -0.1338 -0.0342 -0.1458
  174POPC   C2B 2459   6.794   2.733   5.300  0.0037  0.1182 -0.1634
  174POPC   C3B 2460   6.496   2.768   5.601 -0.2010  0.0319  0.0334
  174POPC   C4B 2461   6.327   3.004   5.945  0.3930  0.1175 -0.0764
  175POPC   NC3 2462   7.179   9.331   4.014 -0.1481 -0.0544  0.0770
  175POPC   PO4 2463   6.733   9.208   4.206  0.1398 -0.3672  0.1269
  175POPC   GL1 2464   6.939   9.488   4.523  0.0755 -0.0714 -0.1070
  175POPC   GL2 2465   6.709   9.826   4.552 -0.0352  0.1091 -0.0476
  175POPC   C1A 2466   7.088   9.469   4.980 -0.2373 -0.0361 -0.4196
  175POPC   D2A 2467   7.344   9.460   5.367 -0.0143 -0.0732  0.2788
  175POPC   C3A 2468   7.744   9.521   5.640  0.1629 -0.0699  0.0929
  175POPC   C4A 2469   8.216   9.628   5.711  0.0696  0.4458  0.0287
  175POPC   C1B 2470   6.592   9.868   4.973 -0.1020 -0.2480 -0.2774
  175POPC   C2B 2471   6.499  10.132   5.336  0.3362  0.3074 -0.1268
  175POPC   C3B 2472   6.702  10.157   5.744  0.0563 -0.0021  0.0439
  175POPC   C4B 2473   6.640   9.772   6.039 -0.1588 -0.0629  0.1951
  176POPC   NC3 2474   6.427   5.824   4.629 -0.0189 -0.0642 -0.1239
  176POPC   PO4 2475   6.244   5.492   4.479 -0.0531  0.2899  0.1981
  176POPC   GL1 2476   6.083   5.504   4.966 -0.0846 -0.1508 -0.0868
  176POPC   GL2 2477   6.287   5.704   5.102 -0.2798 -0.1486 -0.3601
  176POPC   C1A 2478   5.892   5.437   5.237  0.3039  0.3489  0.2411
  176POPC   D2A 2479   5.483   5.489   5.417 -0.3037 -0.5449  0.2923
  176POPC   C3A 2480   5.381   5.529   5.852 -0.0213 -0.1598  0.1138
  176POPC   C4A 2481   5.524   5.448   6.125  0.0360  0.4281 -0.1525
  176POPC   C1B 2482   6.326   5.568   5.529 -0.1425  0.1622  0.1301
  176POPC   C2B 2483   6.437   5.345   5.970  0.2431 -0.1572  0.4773
  176POPC   C3B 2484   6.391   4.938   6.053 -0.2324  0.1157 -0.0456
  176POPC   C4B 2485   6.347   4.539   5.869  0.0998  0.2190 -0.1341
  177POPC   NC3 2486   0.022   3.857   4.248 -0.0637  0.0167 -0.0136
  177POPC   PO4 2487   0.506   4.071   4.231  0.2380 -0.0507  0.1695
  177POPC   GL1 2488   0.418   4.057   4.649 -0.0444 -0.0621  0.0739
  177POPC   GL2 2489   0.027   4.004   4.689 -0.3104 -0.0713  0.2794
  177POPC   C1A 2490   0.486   4.237   5.078 -0.1190 -0.0032  0.1296
  177POPC   D2A 2491   0.751   4.351   5.398 -0.0173  0.0159  0.2290
  177POPC   C3A 2492   1.100   4.247   5.691 -0.1250 -0.0977 -0.1154
  177POPC   C4A 2493   1.456   4.029   6.006 -0.1099 -0.1916  0.0641
  177POPC   C1B 2494   0.010   4.031   5.110 -0.0112 -0.2063  0.0259
  177POPC   C2B 2495   0.216   4.169   5.470  0.3710  0.0890  0.1439
  177POPC   C3B 2496   0.264   4.415   5.886  0.0789  0.1304 -0.0167
  177POPC   C4B 2497  -0.020   4.368   6.294 -0.1624  0.1302 -0.1692
  178POPC   NC3 2498   8.218   2.314   4.428  0.3113 -0.2076  0.0857
  178POPC   PO4 2499   7.849   2.477   4.639 -0.1706 -0.2512  0.1052
  178POPC   GL1 2500   7.545   2.472   4.955  0.0128  0.0055 -0.0236
  178POPC   GL2 2501   7.327   2.751   4.942 -0.1810 -0.1362  0.0989
  178POPC   C1A 2502   7.473   2.036   4.998  0.1552 -0.1755 -0.2737
  178POPC   D2A 2503   7.682   1.659   5.178 -0.0844 -0.0244 -0.2344
  178POPC   C3A 2504   8.070   1.728   5.312  0.2100  0.3518 -0.1132
  178POPC   C4A 2505   8.373   1.548   5.152  0.3914  0.0390  0.0284
  178POPC   C1B 2506   7.251   2.546   5.300  0.3368 -0.0606  0.3408
  178POPC   C2B 2507   7.390   2.399   5.784 -0.1526 -0.2572  0.1554
  178POPC   C3B 2508   7.560   2.510   6.164  0.4969 -0.2324 -0.3036
  178POPC   C4B 2509   7.694   2.864   6.400  0.0325  0.0382  0.0717
  179POPC   NC3 2510   1.737   7.667   4.197 -0.4364  0.1776 -0.0278
  179POPC   PO4 2511   2.139   7.570   4.048  0.0924  0.2612  0.3193
  179POPC   GL1 2512   2.254   7.305   4.399 -0.1749  0.2086 -0.3688
  179POPC   GL2 2513   1.939   7.374   4.587 -0.1089  0.1271  0.3099
  179POPC   C1A 2514   2.346   7.343   4.916  0.0429  0.0831  0.1049
  179POPC   D2A 2515   2.328   7.458   5.298  0.3657  0.1497  0.2213
  179POPC   C3A 2516   2.131   7.483   5.728 -0.2020 -0.1252 -0.0129
  179POPC   C4A 2517   2.151   7.827   5.903  0.0588 -0.0052  0.1008
  179POPC   C1B 2518   1.851   7.321   5.053 -0.1973 -0.0339 -0.0582
  179POPC   C2B 2519   1.742   7.325   5.424  0.0471  0.2707 -0.2066
  179POPC   C3B 2520   1.646   7.365   5.804 -0.0743  0.0644  0.0759
  179POPC   C4B 2521   1.802   7.576   6.111  0.0574  0.0257  0.0355
  180POPC   NC3 2522   2.547   9.410   3.998 -0.1677  0.6337  0.1675
  180POPC   PO4 2523   2.834   9.501   4.229  0.1101 -0.3637  0.1931
  180POPC   GL1 2524   2.657   9.463   4.698  0.2494  0.2274 -0.0904
  180POPC   GL2 2525   2.339   9.339   4.798  0.3729 -0.0003 -0.1253
  180POPC   C1A 2526   2.611   9.451   5.201 -0.0301 -0.0572 -0.1354
  180POPC   D2A 2527   2.642   9.279   5.573 -0.1564 -0.0145 -0.1327
  180POPC   C3A 2528   2.494   8.941   5.843  0.0405  0.4796 -0.2643
  180POPC   C4A 2529   2.512   8.565   5.745  0.0677  0.3434 -0.0058
  180POPC   C1B 2530   2.016   9.188   4.991  0.2304  0.2373 -0.2010
  180POPC   C2B 2531   1.718   9.429   5.347  0.2494 -0.2734  0.1548
  180POPC   C3B 2532   1.464   9.762   5.709  0.0302 -0.0288  0.0915
  180POPC   C4B 2533   1.583  10.141   5.745 -0.1465 -0.1383 -0.2207
  181POPC   NC3 2534   2.545   5.525   3.676  0.2386  0.1803 -0.0874
  181POPC   PO4 2535   2.289   5.699   4.030 -0.3373 -0.2085 -0.1326
  181POPC   GL1 2536   2.661   5.638   4.156  0.1934 -0.0454 -0.0733
  181POPC   GL2 2537   2.595   5.461   4.468 -0.2192  0.0127 -0.0763
  181POPC   C1A 2538   2.938   6.058   4.158  0.0768  0.1446  0.0032
  181POPC   D2A 2539   3.052   6.259   4.459 -0.0952  0.0986 -0.0134
  181POPC   C3A 2540   3.157   6.123   4.898 -0.2370  0.0570 -0.2750
  181POPC   C4A 2541   3.355   5.979   5.336  0.1542  0.1245  0.0252
  181POPC   C1B 2542   2.429   5.432   5.020  0.1894  0.1102  0.1540
  181POPC   C2B 2543   2.462   5.785   5.376  0.0010 -0.1152  0.1347
  181POPC   C3B 2544   2.455   6.024   5.845 -0.0976  0.3318  0.2548
  181POPC   C4B 2545   2.686   6.231   6.179 -0.3723  0.1296  0.0368
  182POPC   NC3 2546   6.220   7.813   3.884  0.1447  0.2953 -0.0318
  182POPC   PO4 2547   6.264   7.953   4.316  0.2034 -0.1294  0.1032
  182POPC   GL1 2548   6.361   7.951   4.831 -0.1011  0.0451  0.1520
  182POPC   GL2 2549   6.724   8.000   4.962  0.4335  0.1436 -0.3192
  182POPC   C1A 2550   6.277   7.987   5.209 -0.0964 -0.0779  0.0525
  182POPC   D2A 2551   6.075   8.062   5.557  0.1517  0.0290  0.1426
  182POPC   C3A 2552   6.184   7.795   5.894 -0.2081 -0.2188  0.2027
  182POPC   C4A 2553   6.491   7.659   6.166  0.1721  0.0043 -0.0378
  182POPC   C1B 2554   6.828   8.305   5.271  0.1929  0.3141  0.3871
  182POPC   C2B 2555   6.666   8.629   5.538 -0.0285 -0.0478 -0.0520
  182POPC   C3B 2556   6.577   8.775   5.964 -0.0769 -0.2949  0.2520
  182POPC   C4B 2557   6.325   9.047   6.275  0.1133 -0.0578  0.0752
  183POPC   NC3 2558   4.275   2.749   3.308  0.3702 -0.2429  0.2452
  183POPC   PO4 2559   4.303   2.347   3.493 -0.1423  0.3318 -0.0268
  183POPC   GL1 2560   4.181   2.492   3.795  0.0320 -0.1504 -0.1538
  183POPC   GL2 2561   4.397   2.722   3.791  0.0709 -0.0306  0.3596
  183POPC   C1A 2562   3.885   2.425   4.056 -0.1140 -0.0407  0.0009
  183POPC   D2A 2563   3.774   2.407   4.583  0.2757  0.0018  0.3569
  183POPC   C3A 2564   3.665   2.497   4.966  0.0634  0.2131 -0.2146
  183POPC   C4A 2565   3.718   2.592   5.432 -0.0961 -0.1957 -0.1288
  183POPC   C1B 2566   4.271   2.625   4.290 -0.1238 -0.0388  0.0277
  183POPC   C2B 2567   4.231   2.325   4.581  0.0276 -0.0298  0.1265
  183POPC   C3B 2568   4.468   2.144   4.968 -0.1140  0.2349 -0.0501
  183POPC   C4B 2569   4.567   2.204   5.434  0.0598 -0.1203  0.1597
  184POPC   NC3 2570   2.197   0.416   4.664  0.2102 -0.0503 -0.0817
  184POPC   PO4 2571   1.969   0.244   4.398  0.3472 -0.3427 -0.0376
  184POPC   GL1 2572   1.962   0.016   4.775 -0.0288  0.0417  0.0582
  184POPC   GL2 2573   1.682  -0.093   4.888 -0.1714  0.1532 -0.2231
  184POPC   C1A 2574   2.154  -0.057   5.152 -0.2423  0.3128  0.0248
  184POPC   D2A 2575   2.162   0.054   5.605  0.2302  0.1020 -0.1082
  184POPC   C3A 2576   2.463   0.440   5.715  0.3427  0.0534  0.1895
  184POPC   C4A 2577   2.798   0.610   5.655  0.0203 -0.2923  0.1187
  184POPC   C1B 2578   1.735   0.235   5.317 -0.2416 -0.0992  0.1950
  184POPC   C2B 2579   2.029   0.609   5.571 -0.2899  0.0101 -0.1745
  184POPC   C3B 2580   1.934   0.843   5.945 -0.2313  0.1898 -0.2339
  184POPC   C4B 2581   1.975   1.282   6.044 -0.2563  0.4637  0.2615
  185POPC   NC3 2582   2.282   1.556   3.758  0.1473 -0.1334 -0.1351
  185POPC   PO4 2583   2.310   1.643   4.074 -0.2078  0.3537  0.0230
  185POPC   GL1 2584   2.105   1.585   4.423  0.1850 -0.1647 -0.0714
  185POPC   GL2 2585   2.139   1.406   4.565  0.1413 -0.1512 -0.1519
  185POPC   C1A 2586   1.991   1.837   4.700  0.0896  0.2588 -0.1280
  185POPC   D2A 2587   1.994   1.875   5.085 -0.2009  0.1366 -0.3462
  185POPC   C3A 2588   2.271   1.897   5.334 -0.0099  0.0889  0.1095
  185POPC   C4A 2589   2.287   2.141   5.690  0.0345 -0.1534  0.0781
  185POPC   C1B 2590   2.110   1.365   4.975  0.0249  0.1133  0.0944
  185POPC   C2B 2591   2.227   1.436   5.486 -0.4276  0.1551  0.1009
  185POPC   C3B 2592   2.504   1.517   5.867  0.2122  0.3781 -0.0762
  185POPC   C4B 2593   2.890   1.659   5.993  0.1560 -0.1373  0.2448
  186POPC   NC3 2594   7.424   5.371   4.676  0.0781  0.0485 -0.3245
  186POPC   PO4 2595   7.261   4.960   4.751 -0.1996 -0.0025  0.0208
  186POPC   GL1 2596   7.243   4.684   5.058 -0.3726  0.2205  0.1407
  186POPC   GL2 2597   6.903   4.621   5.042  0.0486 -0.1539  0.0105
  186POPC   C1A 2598   7.263   4.592   5.517  0.0223  0.0417  0.6359
  186POPC   D2A 2599   7.305   4.544   5.997  0.0715  0.2390 -0.0809
  186POPC   C3A 2600   7.035   4.466   6.363  0.0320  0.2869 -0.2180
  186POPC   C4A 2601   6.762   4.448   6.736 -0.3369 -0.0905  0.1686
  186POPC   C1B 2602   6.494   4.610   5.107  0.0691 -0.0216 -0.0983
  186POPC   C2B 2603   6.208   4.598   5.391  0.0557 -0.3493  0.0244
  186POPC   C3B 2604   5.846   4.555   5.698 -0.2485 -0.3700 -0.1297
  186POPC   C4B 2605   5.532   4.440   5.979 -0.1008 -0.1030  0.1530
  187POPC   NC3 2606   5.633   1.651   4.316  0.0863  0.1655 -0.0361
  187POPC   PO4 2607   5.918   1.920   4.017  0.1521  0.0346 -0.0671
  187POPC   GL1 2608   5.907   2.144   4.303  0.3785  0.0106  0.3081
  187POPC   GL2 2609   5.892   2.023   4.609 -0.2416 -0.5550  0.0355
  187POPC   C1A 2610   6.127   2.487   4.546 -0.0389 -0.3682 -0.2223
  187POPC   D2A 2611   5.936   2.755   4.894 -0.1933  0.2681  0.0499
  187POPC   C3A 2612   5.530   2.895   4.989  0.3495  0.0629  0.2303
  187POPC   C4A 2613   5.153   2.725   4.976 -0.0737 -0.2035 -0.0262
  187POPC   C1B 2614   5.996   2.206   4.962 -0.2066  0.1146  0.2608
  187POPC   C2B 2615   6.188   2.513   5.272 -0.1364 -0.0070 -0.0845
  187POPC   C3B 2616   5.918   2.855   5.467 -0.0740 -0.0100  0.0860
  187POPC   C4B 2617   5.792   2.861   5.920  0.1244  0.1354 -0.1843
  188POPC   NC3 2618   6.744   2.196   3.935  0.1824 -0.0398 -0.0349
  188POPC   PO4 2619   6.883   2.150   4.410  0.0265  0.3763  0.1390
  188POPC   GL1 2620   6.651   2.200   4.732 -0.0432 -0.0847  0.3087
  188POPC   GL2 2621   6.979   2.232   4.980 -0.3970  0.0833  0.1103
  188POPC   C1A 2622   6.499   2.099   5.188 -0.0320 -0.0140  0.0777
  188POPC   D2A 2623   6.144   1.983   5.451  0.0870  0.0815  0.1389
  188POPC   C3A 2624   5.914   2.225   5.646  0.0220 -0.0749 -0.3097
  188POPC   C4A 2625   6.126   2.542   5.878  0.3248 -0.0566  0.5400
  188POPC   C1B 2626   7.173   2.024   5.406 -0.1006  0.0212 -0.2040
  188POPC   C2B 2627   7.069   2.023   5.821 -0.1805  0.0198  0.0577
  188POPC   C3B 2628   7.021   2.368   6.145 -0.1861  0.2063  0.0335
  188POPC   C4B 2629   6.751   2.775   6.106  0.1750  0.0251  0.0368
  189POPC   NC3 2630   4.813   6.731   4.527  0.1265 -0.1145 -0.0795
  189POPC   PO4 2631   4.656   7.183   4.598  0.3492  0.1496  0.0633
  189POPC   GL1 2632   4.835   7.123   4.917 -0.3234 -0.0000 -0.0771
  189POPC   GL2 2633   4.984   7.446   5.011  0.1218 -0.2468  0.3965
  189POPC   C1A 2634   4.911   6.983   5.335 -0.0604 -0.3610 -0.0123
  189POPC   D2A 2635   4.880   6.981   5.771  0.0274 -0.0516 -0.0038
  189POPC   C3A 2636   4.505   7.015   6.095  0.0290 -0.0374  0.0856
  189POPC   C4A 2637   4.668   7.015   6.532  0.2014  0.0746  0.2320
  189POPC   C1B 2638   4.747   7.517   5.370  0.1353 -0.2289  0.0054
  189POPC   C2B 2639   4.403   7.243   5.543 -0.2305  0.0224  0.0493
  189POPC   C3B 2640   4.098   7.344   5.854 -0.1504  0.0676  0.0401
  189POPC   C4B 2641   4.150   7.305   6.305 -0.0609  0.2594  0.0872
  190POPC   NC3 2642   6.005   3.954   3.562  0.1557 -0.1754  0.3441
  190POPC   PO4 2643   5.591   3.672   3.599  0.0214 -0.0808  0.0431
  190POPC   GL1 2644   5.287   3.645   3.875  0.0006  0.0700  0.1134
  190POPC   GL2 2645   5.100   3.836   3.860  0.0119  0.1657  0.2228
  190POPC   C1A 2646   5.263   3.689   4.338 -0.1505  0.3488 -0.1054
  190POPC   D2A 2647   4.985   3.621   4.611 -0.1386 -0.0514  0.0117
  190POPC   C3A 2648   4.907   3.687   5.012 -0.2899 -0.1786 -0.0913
  190POPC   C4A 2649   4.545   3.615   5.217  0.1397  0.0541 -0.1422
  190POPC   C1B 2650   4.681   3.581   3.941 -0.1732 -0.0853  0.3654
  190POPC   C2B 2651   4.364   3.245   3.874 -0.0475  0.3993 -0.0867
  190POPC   C3B 2652   3.910   3.215   4.039  0.4819 -0.2283 -0.3857
  190POPC   C4B 2653   3.713   2.867   4.182  0.1311  0.1040 -0.2737
  191POPC   NC3 2654   1.003   5.370   4.236  0.0061 -0.2879 -0.1458
  191POPC   PO4 2655   0.595   5.135   4.443 -0.3818 -0.0969 -0.0958
  191POPC   GL1 2656   0.803   4.935   4.705 -0.2930  0.1403 -0.1549
  191POPC   GL2 2657   0.841   4.661   4.778  0.1908 -0.1521  0.0909
  191POPC   C1A 2658   1.174   5.022   4.935  0.1409  0.0851  0.0982
  191POPC   D2A 2659   1.261   5.053   5.438 -0.1147 -0.2077  0.1145
  191POPC   C3A 2660   1.121   5.095   5.775  0.1450 -0.0080  0.1190
  191POPC   C4A 2661   0.973   4.835   6.221  0.0963  0.1844  0.0472
  191POPC   C1B 2662   0.801   4.837   5.193  0.0482  0.1669  0.2776
  191POPC   C2B 2663   0.832   4.739   5.640 -0.0365  0.0947 -0.0206
  191POPC   C3B 2664   0.716   4.543   5.915  0.0519  0.2542 -0.2224
  191POPC   C4B 2665   0.552   4.413   6.297  0.0435  0.0816  0.0438
  192POPC   NC3 2666   6.913   4.108   4.110  0.1604  0.2192  0.3467
  192POPC   PO4 2667   6.875   3.686   4.211 -0.2401  0.1256  0.3740
  192POPC   GL1 2668   6.814   3.761   4.647 -0.2720 -0.4235 -0.2613
  192POPC   GL2 2669   7.098   3.755   4.854 -0.1932  0.1970 -0.0242
  192POPC   C1A 2670   6.694   3.934   5.107  0.2194 -0.1647 -0.0451
  192POPC   D2A 2671   6.602   4.132   5.508  0.0317  0.0953 -0.1854
  192POPC   C3A 2672   6.756   4.499   5.524  0.3582 -0.1223  0.0871
  192POPC   C4A 2673   6.832   4.813   5.827  0.0328 -0.1118 -0.0617
  192POPC   C1B 2674   7.002   3.651   5.276 -0.2186 -0.3101  0.1529
  192POPC   C2B 2675   7.180   3.564   5.698  0.4111 -0.1145 -0.3465
  192POPC   C3B 2676   7.256   3.789   6.008 -0.0602  0.0944  0.0620
  192POPC   C4B 2677   7.411   4.143   6.201  0.0386 -0.0270 -0.0162
  193POPC   NC3 2678   5.242   0.640   4.182  0.2075 -0.1256 -0.2182
  193POPC   PO4 2679   5.576   0.224   4.005  0.0915 -0.1394 -0.3123
  193POPC   GL1 2680   5.482   0.312   4.544 -0.1951 -0.0797 -0.1180
  193POPC   GL2 2681   5.439   0.025   4.793  0.0320 -0.0851 -0.0534
  193POPC   C1A 2682   5.199   0.424   4.955  0.1609  0.2188 -0.0310
  193POPC   D2A 2683   5.215   0.480   5.423  0.2036  0.2536 -0.3602
  193POPC   C3A 2684   4.973   0.854   5.495  0.1519 -0.3228  0.1855
  193POPC   C4A 2685   4.714   1.179   5.582  0.0646  0.3354  0.0450
  193POPC   C1B 2686   5.325  -0.088   5.231 -0.0723 -0.1753  0.1337
  193POPC   C2B 2687   5.138  -0.042   5.604 -0.0010  0.0102  0.0173
  193POPC   C3B 2688   4.998   0.313   5.900 -0.4315  0.1707 -0.1949
  193POPC   C4B 2689   4.803   0.748   6.005 -0.1589 -0.2898 -0.1149
  194POPC   NC3 2690   7.974   6.478   4.110 -0.0702 -0.0467 -0.3335
  194POPC   PO4 2691   8.196   6.149   4.417 -0.2759 -0.0647  0.0492
  194POPC   GL1 2692   8.206   6.013   4.851 -0.0827  0.0614 -0.1710
  194POPC   GL2 2693   8.103   5.660   4.781 -0.2582  0.0091 -0.2360
  194POPC   C1A 2694   8.265   5.929   5.312 -0.1727 -0.1403  0.5268
  194POPC   D2A 2695   8.255   5.811   5.808 -0.2837  0.1934  0.1230
  194POPC   C3A 2696   8.645   5.798   6.040  0.1612  0.2143  0.3221
  194POPC   C4A 2697   9.086   5.836   6.238  0.1963  0.2526  0.5119
  194POPC   C1B 2698   7.919   5.419   5.213 -0.0719 -0.3376  0.0423
  194POPC   C2B 2699   7.835   5.700   5.427  0.0008  0.1102 -0.0609
  194POPC   C3B 2700   7.910   6.085   5.612  0.2558 -0.0615  0.0115
  194POPC   C4B 2701   7.998   6.192   5.958 -0.2285 -0.2450  0.0991
  195POPC   NC3 2702   1.094   8.190   4.271 -0.0869 -0.1740 -0.2063
  195POPC   PO4 2703   1.458   8.082   3.946  0.0840  0.1030 -0.3152
  195POPC   GL1 2704   1.567   8.097   4.430  0.1179 -0.1132  0.0612
  195POPC   GL2 2705   1.601   7.861   4.640 -0.0513 -0.1414 -0.1651
  195POPC   C1A 2706   1.812   8.311   4.656  0.1772  0.0299 -0.1872
  195POPC   D2A 2707   1.844   8.722   4.916  0.0260  0.4071 -0.1817
  195POPC   C3A 2708   2.252   8.781   4.970  0.0319 -0.0058 -0.1136
  195POPC   C4A 2709   2.499   9.007   5.165 -0.0786  0.1527  0.0193
  195POPC   C1B 2710   1.564   8.063   4.949  0.0358 -0.1755 -0.0467
  195POPC   C2B 2711   1.346   8.041   5.317 -0.1102  0.0376 -0.0876
  195POPC   C3B 2712   0.846   8.020   5.395  0.1773  0.1823 -0.2141
  195POPC   C4B 2713   0.603   8.307   5.549 -0.1057  0.1033 -0.1259
  196POPC   NC3 2714   2.793   8.207   4.128 -0.1299 -0.0570 -0.2901
  196POPC   PO4 2715   2.756   8.546   4.324 -0.0014  0.2567  0.1574
  196POPC   GL1 2716   2.837   8.181   4.619 -0.2094 -0.0531 -0.0125
  196POPC   GL2 2717   2.947   8.251   4.968 -0.0949  0.1810  0.1708
  196POPC   C1A 2718   2.585   7.872   4.802  0.0068 -0.0212 -0.1739
  196POPC   D2A 2719   2.497   7.976   5.202 -0.0415 -0.1933  0.0894
  196POPC   C3A 2720   2.662   7.715   5.537 -0.0468 -0.0505 -0.0921
  196POPC   C4A 2721   2.991   7.494   5.602  0.3000  0.0752 -0.2683
  196POPC   C1B 2722   3.171   7.886   5.267 -0.2033  0.0572  0.0641
  196POPC   C2B 2723   3.280   7.861   5.685 -0.0427  0.1834 -0.0160
  196POPC   C3B 2724   3.265   7.632   6.027 -0.0861  0.0817  0.3022
  196POPC   C4B 2725   2.948   7.632   6.303 -0.2249 -0.1069 -0.3479
  197POPC   NC3 2726   7.149   5.904   4.229  0.0031  0.0681 -0.1011
  197POPC   PO4 2727   6.947   5.791   4.610 -0.1018  0.0239 -0.0152
  197POPC   GL1 2728   7.064   5.811   4.997 -0.1959 -0.0846 -0.2266
  197POPC   GL2 2729   7.384   5.668   5.063 -0.0453  0.2060  0.2016
  197POPC   C1A 2730   6.918   5.894   5.477  0.3129  0.1645  0.0455
  197POPC   D2A 2731   6.636   5.784   5.834  0.1310 -0.0947  0.1899
  197POPC   C3A 2732   6.527   6.230   5.964 -0.0704 -0.1237 -0.1825
  197POPC   C4A 2733   6.709   6.766   6.159 -0.1036  0.1219  0.0836
  197POPC   C1B 2734   7.354   5.664   5.470  0.1911 -0.1191  0.2082
  197POPC   C2B 2735   7.363   5.515   5.853 -0.0531  0.0797  0.2788
  197POPC   C3B 2736   7.615   5.338   6.178  0.0296  0.1106 -0.1297
  197POPC   C4B 2737   7.506   5.187   6.674  0.3112  0.0476 -0.0782
  198POPC   NC3 2738   0.762   7.455   3.953 -0.0828 -0.0568  0.1905
  198POPC   PO4 2739   0.913   7.354   4.349 -0.1486 -0.2461  0.1311
  198POPC   GL1 2740   0.985   7.547   4.732  0.1220  0.3483  0.0341
  198POPC   GL2 2741   1.125   7.819   4.666 -0.1028 -0.1617  0.0326
  198POPC   C1A 2742   0.822   7.516   5.151 -0.0858 -0.1623 -0.0950
  198POPC   D2A 2743   0.735   7.591   5.557  0.0456 -0.3731 -0.0754
  198POPC   C3A 2744   0.842   7.473   6.075 -0.1494 -0.5628  0.2992
  198POPC   C4A 2745   0.879   7.210   6.424  0.0371 -0.1008  0.3076
  198POPC   C1B 2746   1.421   7.618   5.043 -0.0224  0.0723  0.1481
  198POPC   C2B 2747   1.290   7.603   5.478 -0.4306  0.0287 -0.0409
  198POPC   C3B 2748   1.194   7.784   5.758  0.2726  0.2248 -0.0489
  198POPC   C4B 2749   1.255   7.842   6.156 -0.1596  0.1582 -0.0258
  199POPC   NC3 2750   8.099   7.164   4.600  0.1623  0.0706 -0.0976
  199POPC   PO4 2751   7.873   7.597   4.861 -0.0936 -0.3010 -0.1357
  199POPC   GL1 2752   7.460   7.489   5.183 -0.4156 -0.1710 -0.0483
  199POPC   GL2 2753   7.118   7.501   5.158 -0.1091 -0.1406  0.0573
  199POPC   C1A 2754   7.323   7.516   5.583  0.2810 -0.3326  0.0687
  199POPC   D2A 2755   6.984   7.680   5.901 -0.0980 -0.0347 -0.0227
  199POPC   C3A 2756   6.649   7.500   5.701  0.0109  0.2494 -0.1806
  199POPC   C4A 2757   6.337   7.321   5.584 -0.0487 -0.1031  0.1358
  199POPC   C1B 2758   6.890   7.799   5.384 -0.2749  0.1783 -0.3161
  199POPC   C2B 2759   6.587   7.980   5.686 -0.1133  0.0838 -0.0626
  199POPC   C3B 2760   6.385   8.210   6.062  0.3025 -0.0415 -0.3034
  199POPC   C4B 2761   6.519   8.592   6.485  0.1070 -0.0001  0.0683
  200POPC   NC3 2762   4.652   2.936   3.036  0.1088 -0.1982 -0.1024
  200POPC   PO4 2763   4.735   2.754   3.443  0.0582  0.0120 -0.1986
  200POPC   GL1 2764   4.996   2.757   3.890  0.0375 -0.0101 -0.1396
  200POPC   GL2 2765   5.273   2.573   4.052  0.2136  0.0773 -0.2081
  200POPC   C1A 2766   4.835   2.599   4.321 -0.2102 -0.2576  0.1550
  200POPC   D2A 2767   4.669   2.779   4.655  0.0839 -0.0857 -0.1669
  200POPC   C3A 2768   4.668   2.617   5.004  0.3672  0.2588 -0.1361
  200POPC   C4A 2769   4.803   2.742   5.358  0.1392 -0.0912 -0.1020
  200POPC   C1B 2770   5.346   2.782   4.417  0.1633  0.0796 -0.0816
  200POPC   C2B 2771   5.077   3.080   4.652  0.4078  0.2278 -0.1358
  200POPC   C3B 2772   4.839   3.210   4.908 -0.1148  0.0931 -0.0954
  200POPC   C4B 2773   4.389   3.084   5.039 -0.0967  0.2283  0.3459
  201POPC   NC3 2774   7.762   4.831   4.441 -0.1819  0.0381  0.2592
  201POPC   PO4 2775   8.044   4.442   4.453 -0.2029 -0.1256 -0.1139
  201POPC   GL1 2776   8.004   4.612   4.840  0.2037 -0.4929  0.1380
  201POPC   GL2 2777   8.258   4.628   4.908 -0.1772  0.0037  0.0922
  201POPC   C1A 2778   7.758   4.518   5.177  0.1628  0.1041 -0.1613
  201POPC   D2A 2779   7.702   4.386   5.634 -0.1042  0.2440 -0.0572
  201POPC   C3A 2780   7.660   3.977   5.831  0.3425 -0.2242 -0.0389
  201POPC   C4A 2781   7.737   3.743   6.232 -0.2997 -0.2128 -0.4247
  201POPC   C1B 2782   8.550   4.701   5.294 -0.2265 -0.0445 -0.1639
  201POPC   C2B 2783   8.707   5.037   5.489  0.0095  0.1144  0.0219
  201POPC   C3B 2784   9.013   4.985   5.874  0.1694  0.0753  0.1434
  201POPC   C4B 2785   9.220   4.584   6.073  0.4233 -0.0561 -0.0438
  202POPC   NC3 2786   5.952   6.332   3.970  0.0489  0.0631  0.0431
  202POPC   PO4 2787   5.662   6.125   4.304 -0.2181 -0.1449  0.0032
  202POPC   GL1 2788   5.349   5.945   4.509  0.3503 -0.0166 -0.0121
  202POPC   GL2 2789   5.405   6.064   4.869 -0.0351  0.2405 -0.1829
  202POPC   C1A 2790   4.923   5.921   4.861 -0.2036  0.0815  0.0106
  202POPC   D2A 2791   4.796   6.031   5.282 -0.0321  0.0109  0.0426
  202POPC   C3A 2792   4.856   6.035   5.765 -0.1789  0.0430 -0.2801
  202POPC   C4A 2793   5.074   5.863   6.112 -0.0524 -0.1916  0.1128
  202POPC   C1B 2794   5.316   6.007   5.322 -0.0404  0.0461 -0.1323
  202POPC   C2B 2795   5.423   6.005   5.748  0.1965  0.0999 -0.0910
  202POPC   C3B 2796   5.572   6.009   6.115 -0.1479 -0.1801 -0.2155
  202POPC   C4B 2797   5.484   6.151   6.494 -0.1909  0.0742 -0.0365
  203POPC   NC3 2798   3.298   6.809   3.605  0.0882 -0.0126  0.0455
  203POPC   PO4 2799   3.226   6.959   4.078 -0.1629  0.1091  0.0162
  203POPC   GL1 2800   3.289   6.903   4.415 -0.3097 -0.1523 -0.0519
  203POPC   GL2 2801   3.228   7.093   4.622 -0.2234  0.3377  0.2455
  203POPC   C1A 2802   3.351   6.536   4.802  0.0735 -0.0415  0.1723
  203POPC   D2A 2803   3.571   6.396   5.089 -0.2930  0.0066 -0.1845
  203POPC   C3A 2804   3.344   6.462   5.560 -0.1014  0.1192  0.0528
  203POPC   C4A 2805   3.481   6.660   5.982 -0.1094 -0.0800  0.0511
  203POPC   C1B 2806   3.109   6.843   5.097 -0.1578  0.1244  0.3765
  203POPC   C2B 2807   2.911   6.363   5.297  0.1107 -0.0678 -0.0299
  203POPC   C3B 2808   2.877   5.995   5.551  0.1863 -0.2500  0.1499
  203POPC   C4B 2809   2.955   5.731   5.948  0.0556 -0.4233  0.1396
  204POPC   NC3 2810   3.378   8.059   4.648 -0.1975 -0.0518 -0.3556
  204POPC   PO4 2811   3.719   8.192   4.353 -0.0311 -0.1810 -0.1306
  204POPC   GL1 2812   3.815   8.196   4.893  0.0790 -0.0479  0.2556
  204POPC   GL2 2813   3.610   7.938   5.078  0.0343 -0.0926  0.2124
  204POPC   C1A 2814   4.100   8.296   5.127  0.0860 -0.2985  0.0147
  204POPC   D2A 2815   4.171   8.347   5.544  0.0215 -0.0405 -0.1213
  204POPC   C3A 2816   4.116   8.054   5.956  0.0277 -0.0669  0.1672
  204POPC   C4A 2817   4.146   7.798   6.239 -0.3109  0.0687  0.0931
  204POPC   C1B 2818   4.070   7.798   5.277  0.1629 -0.0635 -0.0515
  204POPC   C2B 2819   4.386   7.731   5.587 -0.0617 -0.2178  0.2495
  204POPC   C3B 2820   4.519   7.529   6.019 -0.1122  0.6011  0.1015
  204POPC   C4B 2821   4.592   7.466   6.469  0.0093  0.0300  0.0650
  205POPC   NC3 2822   2.238   3.795   3.547  0.1155 -0.2630  0.0554
  205POPC   PO4 2823   1.983   3.647   3.870 -0.0962 -0.2422 -0.2354
  205POPC   GL1 2824   2.013   3.661   4.322  0.0122 -0.4815 -0.0389
  205POPC   GL2 2825   1.732   3.545   4.410  0.1507  0.0557 -0.2260
  205POPC   C1A 2826   1.920   3.976   4.714 -0.0364  0.1031  0.3441
  205POPC   D2A 2827   1.804   3.730   5.022  0.0247  0.0659 -0.1641
  205POPC   C3A 2828   1.948   3.687   5.392 -0.1183 -0.3717 -0.3856
  205POPC   C4A 2829   1.914   3.848   5.734 -0.4230  0.2199 -0.0559
  205POPC   C1B 2830   1.648   3.373   4.745 -0.1861  0.1049 -0.0626
  205POPC   C2B 2831   1.575   3.181   5.177 -0.0867  0.0972  0.0662
  205POPC   C3B 2832   1.652   3.248   5.605 -0.0769 -0.4590 -0.1030
  205POPC   C4B 2833   1.860   3.209   5.972  0.2498 -0.0542  0.2069
  206POPC   NC3 2834   1.501   2.926   4.052 -0.1167 -0.0042  0.1580
  206POPC   PO4 2835   1.730   2.490   4.026 -0.1492 -0.2202  0.1225
  206POPC   GL1 2836   1.693   2.781   4.452  0.1339  0.0696 -0.0697
  206POPC   GL2 2837   1.466   2.746   4.678  0.2141 -0.5404  0.0630
  206POPC   C1A 2838   1.910   2.841   4.724  0.1661 -0.0427  0.2451
  206POPC   D2A 2839   1.988   2.824   5.191 -0.0954 -0.4507  0.3957
  206POPC   C3A 2840   1.666   2.738   5.536  0.2824  0.0298  0.1663
  206POPC   C4A 2841   1.358   2.452   5.638  0.0583  0.0657  0.1998
  206POPC   C1B 2842   1.353   2.751   5.097 -0.1685  0.1012 -0.2726
  206POPC   C2B 2843   1.222   3.021   5.505  0.1294 -0.3072  0.0698
  206POPC   C3B 2844   1.111   3.126   5.937  0.2010 -0.1518  0.2870
  206POPC   C4B 2845   0.703   3.094   6.317  0.2876  0.2129 -0.0923
  207POPC   NC3 2846   3.846   1.511   3.745 -0.1586  0.0742 -0.0433
  207POPC   PO4 2847   3.574   1.860   3.610  0.0128  0.0284 -0.2504
  207POPC   GL1 2848   3.495   2.037   3.957  0.1982 -0.2279 -0.0382
  207POPC   GL2 2849   3.144   2.026   4.039  0.3724  0.2104 -0.3696
  207POPC   C1A 2850   3.764   1.987   4.350 -0.0518 -0.3263  0.0638
  207POPC   D2A 2851   4.253   1.815   4.584 -0.1988  0.0253  0.0864
  207POPC   C3A 2852   4.302   1.633   4.910  0.0590 -0.1291 -0.1089
  207POPC   C4A 2853   4.477   1.661   5.356 -0.1354 -0.0908  0.0083
  207POPC   C1B 2854   3.307   1.952   4.452  0.2392  0.2005 -0.2807
  207POPC   C2B 2855   3.517   2.031   4.820  0.2064  0.0453 -0.4122
  207POPC   C3B 2856   3.591   1.695   5.251 -0.0374  0.1088  0.3609
  207POPC   C4B 2857   3.941   1.650   5.410  0.4190 -0.0294  0.2499
  208POPC   NC3 2858   9.076   0.355   4.132  0.0377 -0.0109 -0.1391
  208POPC   PO4 2859   8.894   0.063   4.360  0.4140  0.2457 -0.0263
  208POPC   GL1 2860   9.006   0.016   4.784 -0.0472 -0.0289 -0.0851
  208POPC   GL2 2861   9.335  -0.134   4.875  0.0507 -0.1828 -0.1807
  208POPC   C1A 2862   8.963   0.198   5.159 -0.1255 -0.3362  0.3401
  208POPC   D2A 2863   9.319   0.210   5.354 -0.2734 -0.1813 -0.0623
  208POPC   C3A 2864   9.202   0.498   5.780  0.1725 -0.0193  0.0820
  208POPC   C4A 2865   8.938   0.770   6.093  0.1619  0.4466  0.1409
  208POPC   C1B 2866   9.558  -0.401   5.196  0.4353  0.1638  0.0121
  208POPC   C2B 2867   9.775  -0.438   5.634 -0.1013 -0.0344 -0.1973
  208POPC   C3B 2868   9.513  -0.544   5.961 -0.1007 -0.0296  0.0944
  208POPC   C4B 2869   9.546  -0.531   6.400  0.0983 -0.1647 -0.2171
  209POPC   NC3 2870   9.029   9.282   4.351  0.2256 -0.0293 -0.0096
  209POPC   PO4 2871   8.627   8.964   4.330 -0.2054 -0.2214  0.2585
  209POPC   GL1 2872   8.687   9.280   4.695 -0.0246  0.3679 -0.0857
  209POPC   GL2 2873   8.990   9.208   4.884  0.0946  0.1146 -0.1327
  209POPC   C1A 2874   8.550   9.414   5.166  0.0557 -0.3922 -0.2388
  209POPC   D2A 2875   8.457   9.859   5.254 -0.0572 -0.0471 -0.1163
  209POPC   C3A 2876   8.484  10.108   5.637 -0.0370 -0.1301  0.2052
  209POPC   C4A 2877   8.658  10.014   5.932  0.4462  0.0989  0.1216
  209POPC   C1B 2878   9.046   9.218   5.371  0.0562 -0.0597  0.1446
  209POPC   C2B 2879   9.018   9.063   5.780 -0.3865 -0.2661 -0.0987
  209POPC   C3B 2880   9.021   9.165   6.127 -0.0944 -0.2007  0.0744
  209POPC   C4B 2881   8.993   9.391   6.516  0.0055  0.4150 -0.1521
  210POPC   NC3 2882   8.357   1.599   3.955 -0.2896 -0.1199  0.1264
  210POPC   PO4 2883   8.156   1.976   3.998  0.0545 -0.0982 -0.0084
  210POPC   GL1 2884   8.302   1.825   4.485  0.3551  0.0309  0.0066
  210POPC   GL2 2885   8.461   1.510   4.500 -0.0342  0.0299 -0.2068
  210POPC   C1A 2886   8.042   1.845   4.855  0.2013 -0.1091 -0.2139
  210POPC   D2A 2887   7.949   2.123   4.993 -0.0247  0.0263  0.0922
  210POPC   C3A 2888   7.741   2.079   5.455  0.2364  0.2328 -0.1064
  210POPC   C4A 2889   7.894   2.366   5.769  0.0104 -0.2907 -0.0481
  210POPC   C1B 2890   8.109   1.376   4.719 -0.0277  0.3038 -0.2473
  210POPC   C2B 2891   7.958   1.228   5.143  0.2905  0.4526 -0.0779
  210POPC   C3B 2892   7.765   1.196   5.534  0.3660 -0.2027  0.0170
  210POPC   C4B 2893   7.908   1.033   5.861  0.2206 -0.0469  0.2924
  211POPC   NC3 2894   3.291   4.835   3.229 -0.0623 -0.0513 -0.1743
  211POPC   PO4 2895   3.360   5.183   3.439  0.0719  0.1638 -0.0328
  211POPC   GL1 2896   3.443   5.212   3.909  0.0159  0.1539 -0.1750
  211POPC   GL2 2897   3.657   5.320   4.073 -0.0347 -0.1626  0.1825
  211POPC   C1A 2898   3.292   5.020   4.298 -0.2343  0.0563  0.1719
  211POPC   D2A 2899   3.308   5.049   4.785 -0.1755 -0.3445 -0.1593
  211POPC   C3A 2900   3.639   4.831   4.972 -0.3080  0.0376  0.2354
  211POPC   C4A 2901   4.101   4.868   5.186 -0.0963 -0.3154 -0.0275
  211POPC   C1B 2902   3.844   5.746   4.288  0.1191  0.1911  0.0114
  211POPC   C2B 2903   3.916   6.007   4.714  0.1669 -0.0279 -0.2509
  211POPC   C3B 2904   3.949   6.450   4.802  0.1912  0.2854  0.1213
  211POPC   C4B 2905   4.000   6.839   5.134 -0.2485 -0.1065  0.0250
  212POPC   NC3 2906   2.869   5.102   3.471  0.2894 -0.1248 -0.0071
  212POPC   PO4 2907   2.740   4.737   3.374  0.0803 -0.2366  0.1469
  212POPC   GL1 2908   2.687   4.602   3.731 -0.4174 -0.0162 -0.1989
  212POPC   GL2 2909   2.584   4.719   4.011  0.1299 -0.0915 -0.0410
  212POPC   C1A 2910   2.729   4.250   4.025  0.1247 -0.0171 -0.4001
  212POPC   D2A 2911   2.794   3.936   4.434  0.1373 -0.0302  0.1846
  212POPC   C3A 2912   2.380   3.725   4.654  0.0122  0.1520  0.0251
  212POPC   C4A 2913   2.413   3.713   5.157 -0.0249 -0.1421  0.2108
  212POPC   C1B 2914   2.988   4.668   4.200  0.2434 -0.2255 -0.1003
  212POPC   C2B 2915   3.427   4.627   4.073  0.2815 -0.1420 -0.0708
  212POPC   C3B 2916   3.778   4.428   4.103  0.2473 -0.0282  0.0461
  212POPC   C4B 2917   3.839   4.094   4.349 -0.0766  0.4004 -0.2928
  213POPC   NC3 2918   7.573   8.453   3.917  0.4070 -0.0906  0.0062
  213POPC   PO4 2919   7.734   8.187   4.316 -0.2191 -0.0714  0.0751
  213POPC   GL1 2920   7.751   8.359   4.701 -0.5317 -0.0066 -0.2697
  213POPC   GL2 2921   8.068   8.497   4.801 -0.3543  0.1578 -0.1340
  213POPC   C1A 2922   7.844   8.261   5.211 -0.1383  0.0600  0.0881
  213POPC   D2A 2923   7.771   8.583   5.601  0.2530 -0.0069 -0.0972
  213POPC   C3A 2924   7.604   8.559   6.030 -0.1576  0.2750  0.2204
  213POPC   C4A 2925   7.271   8.486   6.192  0.1822 -0.0707 -0.0929
  213POPC   C1B 2926   8.218   8.635   5.283 -0.0312  0.1604  0.1451
  213POPC   C2B 2927   8.331   8.556   5.680  0.1642 -0.1743 -0.0785
  213POPC   C3B 2928   8.084   8.721   6.092 -0.0205  0.1318  0.1054
  213POPC   C4B 2929   8.050   8.377   6.381  0.1234  0.0072  0.2011
  214POPC   NC3 2930   1.544   9.666   4.415 -0.1201  0.2161  0.1238
  214POPC   PO4 2931   1.496  10.109   4.298 -0.3347  0.1434 -0.1540
  214POPC   GL1 2932   1.208  10.350   4.590 -0.4410  0.2126 -0.1555
  214POPC   GL2 2933   0.985  10.429   4.552  0.1243  0.2878  0.1970
  214POPC   C1A 2934   1.273  10.589   4.967  0.0508 -0.1961 -0.1270
  214POPC   D2A 2935   1.056  10.784   5.263  0.1209  0.0612  0.4136
  214POPC   C3A 2936   1.166  11.201   5.481  0.1793 -0.2100  0.2799
  214POPC   C4A 2937   1.345  11.597   5.809 -0.0377  0.0424 -0.1073
  214POPC   C1B 2938   1.177  10.881   4.582 -0.1443  0.2502 -0.0576
  214POPC   C2B 2939   1.126  11.125   4.945  0.2968 -0.0585  0.1828
  214POPC   C3B 2940   0.782  11.246   5.174  0.4936  0.0357  0.3004
  214POPC   C4B 2941   0.434  11.483   5.454 -0.3006 -0.0198  0.0129
  215POPC   NC3 2942   0.247   5.834   4.524 -0.0785  0.0223  0.1003
  215POPC   PO4 2943   0.011   6.225   4.313 -0.2175  0.0462  0.2069
  215POPC   GL1 2944   0.008   6.129   4.823  0.1903 -0.1469  0.3829
  215POPC   GL2 2945   0.052   5.835   5.057 -0.2315  0.1983  0.0690
  215POPC   C1A 2946   0.185   6.298   5.264 -0.3408 -0.1911  0.3226
  215POPC   D2A 2947   0.416   6.466   5.594  0.0423  0.1383 -0.1978
  215POPC   C3A 2948   0.578   6.378   6.093 -0.0680 -0.0957  0.1511
  215POPC   C4A 2949   0.879   6.540   6.350 -0.0364  0.2162 -0.0383
  215POPC   C1B 2950   0.074   5.640   5.447 -0.2325 -0.2609  0.0328
  215POPC   C2B 2951   0.197   5.420   5.875 -0.0267  0.1116  0.1260
  215POPC   C3B 2952   0.089   5.326   6.254  0.1096  0.0808  0.1151
  215POPC   C4B 2953  -0.206   5.648   6.445  0.2861  0.1837 -0.0912
  216POPC   NC3 2954   9.225   2.414   3.768  0.3015 -0.1924 -0.1156
  216POPC   PO4 2955   9.249   2.093   4.005  0.4493 -0.0245 -0.0728
  216POPC   GL1 2956   9.192   1.881   4.418  0.3391  0.1577 -0.0927
  216POPC   GL2 2957   8.895   2.026   4.630 -0.1124  0.4677  0.1843
  216POPC   C1A 2958   9.179   1.577   4.778 -0.0406 -0.0287  0.2185
  216POPC   D2A 2959   9.405   1.303   4.971 -0.0262 -0.0665 -0.0576
  216POPC   C3A 2960   9.063   0.861   4.942 -0.0249 -0.1743  0.1276
  216POPC   C4A 2961   8.973   0.688   5.354  0.1828  0.2715 -0.1200
  216POPC   C1B 2962   9.015   2.071   4.958 -0.0940  0.2802  0.1147
  216POPC   C2B 2963   9.386   2.216   5.185 -0.0160  0.2182  0.2801
  216POPC   C3B 2964   9.825   2.304   5.417  0.0479  0.1544 -0.3713
  216POPC   C4B 2965  10.259   2.266   5.644 -0.2006  0.4570  0.0159
  217POPC   NC3 2966   1.943   8.064   3.990  0.0153 -0.1192 -0.0038
  217POPC   PO4 2967   2.226   8.445   4.046  0.1146  0.1502  0.0846
  217POPC   GL1 2968   2.275   8.235   4.376  0.3881  0.0505 -0.3011
  217POPC   GL2 2969   2.052   7.955   4.453 -0.3001 -0.2337 -0.1555
  217POPC   C1A 2970   2.356   8.333   4.774 -0.0840 -0.0156 -0.1172
  217POPC   D2A 2971   2.073   8.314   5.110  0.0472  0.1619  0.0295
  217POPC   C3A 2972   2.131   8.684   5.450  0.2512 -0.0899 -0.0058
  217POPC   C4A 2973   2.095   9.136   5.467 -0.0002  0.0693  0.2429
  217POPC   C1B 2974   2.079   7.844   4.867  0.0168 -0.0544  0.2027
  217POPC   C2B 2975   1.861   7.851   5.287  0.2667 -0.4811  0.0199
  217POPC   C3B 2976   1.695   7.861   5.663 -0.0729 -0.2235  0.1622
  217POPC   C4B 2977   1.733   8.158   6.100 -0.2118  0.1706  0.1619
  218POPC   NC3 2978   0.486   3.491   3.754  0.0179 -0.2360  0.0118
  218POPC   PO4 2979   0.216   3.330   4.022 -0.1739 -0.0849 -0.0435
  218POPC   GL1 2980   0.283   3.515   4.418 -0.2188 -0.2885 -0.0844
  218POPC   GL2 2981   0.433   3.239   4.578 -0.0906  0.0710  0.1388
  218POPC   C1A 2982   0.273   3.566   4.972  0.1559  0.1987  0.1261
  218POPC   D2A 2983   0.412   3.610   5.331  0.0406  0.1334 -0.0163
  218POPC   C3A 2984   0.691   3.350   5.556 -0.3191 -0.0033  0.2774
  218POPC   C4A 2985   0.558   3.024   5.837  0.0400 -0.2511  0.1228
  218POPC   C1B 2986   0.359   2.898   4.773  0.1602 -0.0476  0.1553
  218POPC   C2B 2987   0.367   2.582   5.111 -0.1762 -0.0010 -0.0659
  218POPC   C3B 2988   0.547   2.178   5.143  0.1056 -0.7284 -0.2187
  218POPC   C4B 2989   0.374   1.739   4.968 -0.0340  0.3583  0.3959
  219POPC   NC3 2990   2.363   2.852   3.594 -0.1859 -0.0821 -0.1189
  219POPC   PO4 2991   2.233   2.587   3.953  0.1653 -0.0391 -0.2471
  219POPC   GL1 2992   2.317   2.658   4.374  0.4208 -0.2474 -0.0240
  219POPC   GL2 2993   2.700   2.764   4.318 -0.1156  0.2032 -0.3045
  219POPC   C1A 2994   2.358   2.856   4.811  0.0375  0.0747  0.0962
  219POPC   D2A 2995   2.579   2.889   5.124 -0.0033 -0.0142 -0.1085
  219POPC   C3A 2996   2.842   2.740   5.449  0.1867  0.2731 -0.1656
  219POPC   C4A 2997   3.232   2.606   5.550 -0.1169  0.1010  0.1630
  219POPC   C1B 2998   2.951   2.938   4.684 -0.0380  0.2743 -0.1836
  219POPC   C2B 2999   3.340   2.925   4.754 -0.1439 -0.3859 -0.1623
  219POPC   C3B 3000   3.573   2.965   5.078 -0.0786 -0.0650 -0.1029
  219POPC   C4B 3001   3.936   3.135   5.216  0.0805 -0.2694 -0.0437
  220POPC   NC3 3002   9.537   4.770   4.018 -0.1953 -0.1602 -0.0165
  220POPC   PO4 3003   9.938   4.966   4.110  0.1245  0.0454 -0.0332
  220POPC   GL1 3004   9.895   4.767   4.484 -0.0394 -0.0925  0.4104
  220POPC   GL2 3005   9.716   4.400   4.410  0.0286 -0.2348 -0.0380
  220POPC   C1A 3006  10.021   4.765   4.890  0.4233 -0.0808  0.3886
  220POPC   D2A 3007   9.944   4.634   5.369  0.1358 -0.0207 -0.0468
  220POPC   C3A 3008  10.011   4.954   5.648 -0.1252 -0.0491  0.0431
  220POPC   C4A 3009  10.276   5.108   6.014  0.1937  0.1701  0.0234
  220POPC   C1B 3010   9.555   4.470   4.835 -0.1937  0.0224 -0.5248
  220POPC   C2B 3011   9.479   4.406   5.283  0.2891 -0.0522  0.0543
  220POPC   C3B 3012   9.339   4.697   5.581 -0.0365 -0.0261  0.2811
  220POPC   C4B 3013   9.541   4.891   5.938 -0.1332 -0.0336  0.0267
  221POPC   NC3 3014   4.436   5.733   2.997  0.1817 -0.0756 -0.1064
  221POPC   PO4 3015   4.384   5.396   3.386 -0.3007  0.1992  0.0804
  221POPC   GL1 3016   4.432   5.362   3.838 -0.0801  0.1715 -0.0867
  221POPC   GL2 3017   4.421   5.680   4.019 -0.1920  0.1187  0.3131
  221POPC   C1A 3018   4.627   5.037   4.204 -0.1453 -0.0201 -0.3242
  221POPC   D2A 3019   5.080   5.024   4.350  0.1242 -0.1985  0.1367
  221POPC   C3A 3020   5.064   5.512   4.567 -0.0961 -0.0032  0.3652
  221POPC   C4A 3021   5.287   5.550   4.948  0.0033 -0.0397  0.1600
  221POPC   C1B 3022   4.128   5.345   4.274  0.0248 -0.1932  0.0926
  221POPC   C2B 3023   4.061   5.527   4.736  0.0129 -0.1113  0.2073
  221POPC   C3B 3024   3.984   5.730   5.165  0.3085  0.0016 -0.5294
  221POPC   C4B 3025   3.888   6.025   5.306 -0.2037 -0.1096 -0.0783
  222POPC   NC3 3026   5.934   9.638   3.774 -0.3015 -0.0184 -0.2819
  222POPC   PO4 3027   5.812   9.288   4.023  0.2318 -0.1619 -0.0409
  222POPC   GL1 3028   5.944   9.249   4.457 -0.0866 -0.1897  0.0535
  222POPC   GL2 3029   5.700   9.284   4.686  0.2395  0.3855  0.0225
  222POPC   C1A 3030   6.077   9.069   4.845 -0.1341  0.0355  0.3105
  222POPC   D2A 3031   6.059   9.067   5.359 -0.1201  0.0604  0.1369
  222POPC   C3A 3032   6.409   9.130   5.539  0.0462 -0.1016 -0.0185
  222POPC   C4A 3033   6.522   9.571   5.612 -0.1487  0.2851  0.1781
  222POPC   C1B 3034   5.633   9.053   5.058 -0.0666 -0.0712 -0.1702
  222POPC   C2B 3035   5.593   9.164   5.487  0.2787 -0.1542  0.0698
  222POPC   C3B 3036   5.443   9.089   5.843  0.2453 -0.0093 -0.1101
  222POPC   C4B 3037   5.496   9.156   6.282  0.0984 -0.2034 -0.0208
  223POPC   NC3 3038   6.062   3.360   3.867 -0.1114 -0.1076 -0.0242
  223POPC   PO4 3039   6.320   3.615   3.772  0.0754 -0.1305  0.0667
  223POPC   GL1 3040   6.386   3.655   4.175 -0.0633 -0.1507  0.2319
  223POPC   GL2 3041   6.170   3.468   4.326 -0.1389 -0.0800 -0.3220
  223POPC   C1A 3042   6.178   3.795   4.631 -0.0909 -0.1586 -0.1299
  223POPC   D2A 3043   6.074   3.763   5.100 -0.1280 -0.1413  0.1787
  223POPC   C3A 3044   5.901   3.669   5.573  0.3006  0.0241 -0.2011
  223POPC   C4A 3045   5.799   3.530   6.092  0.3951  0.2564  0.3054
  223POPC   C1B 3046   5.995   3.249   4.641  0.2318 -0.3344  0.0370
  223POPC   C2B 3047   5.854   3.265   5.116  0.0388 -0.3439 -0.4276
  223POPC   C3B 3048   5.645   3.287   5.465 -0.1887  0.1109  0.1566
  223POPC   C4B 3049   5.424   3.269   5.913  0.2813  0.0510  0.0261
  224POPC   NC3 3050   2.338   7.152   3.791  0.4512  0.2127 -0.1560
  224POPC   PO4 3051   2.649   7.409   3.969  0.1492 -0.4320 -0.4462
  224POPC   GL1 3052   2.737   7.087   4.332 -0.1637 -0.1183  0.0823
  224POPC   GL2 3053   2.803   7.286   4.592 -0.1335 -0.0893 -0.0520
  224POPC   C1A 3054   2.807   6.689   4.487 -0.2741  0.2759 -0.0995
  224POPC   D2A 3055   2.800   6.484   4.801  0.0706  0.2517 -0.1135
  224POPC   C3A 3056   2.391   6.411   4.919 -0.1799 -0.0557  0.2015
  224POPC   C4A 3057   1.927   6.502   4.985  0.0069 -0.1170  0.0673
  224POPC   C1B 3058   2.654   6.967   4.922  0.0963 -0.1913 -0.1836
  224POPC   C2B 3059   2.561   6.772   5.217  0.1614  0.0191  0.3055
  224POPC   C3B 3060   2.815   6.726   5.643 -0.0026 -0.3103 -0.1296
  224POPC   C4B 3061   2.976   6.682   6.056  0.1013  0.2619 -0.0553
  225POPC   NC3 3062   1.880   5.395   3.955  0.2818  0.0876 -0.0595
  225POPC   PO4 3063   1.399   5.284   3.938 -0.2666 -0.2325 -0.1041
  225POPC   GL1 3064   1.570   5.102   4.380  0.2391  0.2488 -0.0597
  225POPC   GL2 3065   2.000   5.102   4.527  0.2227 -0.1967  0.3966
  225POPC   C1A 3066   1.614   5.151   4.750 -0.1686  0.0790  0.0233
  225POPC   D2A 3067   1.761   5.078   5.165  0.0665  0.2925  0.0081
  225POPC   C3A 3068   1.676   4.824   5.548  0.2267 -0.1159  0.0729
  225POPC   C4A 3069   1.411   4.641   5.843  0.3281  0.4482 -0.3267
  225POPC   C1B 3070   2.251   4.994   4.960 -0.0334 -0.0751  0.0014
  225POPC   C2B 3071   2.234   5.174   5.387 -0.0297  0.0472 -0.0819
  225POPC   C3B 3072   2.010   5.199   5.693  0.2316  0.0322 -0.2448
  225POPC   C4B 3073   1.641   5.373   5.705 -0.0986 -0.0579 -0.0431
  226POPC   NC3 3074   3.532   3.749   3.070  0.0542 -0.0090  0.0078
  226POPC   PO4 3075   3.238   3.942   3.419 -0.2488 -0.0899 -0.3026
  226POPC   GL1 3076   3.111   3.508   3.563 -0.0270  0.2662  0.1043
  226POPC   GL2 3077   2.827   3.589   3.626 -0.1187 -0.2408 -0.2223
  226POPC   C1A 3078   2.918   3.196   3.980 -0.1956  0.1190 -0.2730
  226POPC   D2A 3079   3.203   2.976   4.298  0.2030  0.1407  0.1782
  226POPC   C3A 3080   3.450   3.228   4.402 -0.2582 -0.1140 -0.1523
  226POPC   C4A 3081   3.808   3.482   4.403  0.2176  0.1739 -0.2453
  226POPC   C1B 3082   3.021   3.650   4.017 -0.0372 -0.0526  0.2206
  226POPC   C2B 3083   3.040   3.506   4.421 -0.1314 -0.3077  0.2556
  226POPC   C3B 3084   3.226   3.413   4.834 -0.2665  0.0553  0.2403
  226POPC   C4B 3085   3.680   3.409   4.860  0.2943  0.3306  0.0351
  227POPC   NC3 3086   1.930   8.929   4.033  0.1628  0.0555 -0.1789
  227POPC   PO4 3087   1.690   9.031   4.385  0.0743  0.0110 -0.1343
  227POPC   GL1 3088   1.492   9.022   4.680 -0.1655 -0.1964  0.0015
  227POPC   GL2 3089   1.337   9.323   4.756  0.0479 -0.0300 -0.0511
  227POPC   C1A 3090   1.495   8.985   5.143 -0.1264 -0.0376  0.1731
  227POPC   D2A 3091   1.622   8.948   5.573  0.2151  0.1204 -0.2491
  227POPC   C3A 3092   1.746   9.234   5.801 -0.1286 -0.1999 -0.0640
  227POPC   C4A 3093   1.845   9.679   6.036  0.1180 -0.1893  0.1448
  227POPC   C1B 3094   1.273   9.461   5.186 -0.3712 -0.1196 -0.1991
  227POPC   C2B 3095   1.242   9.270   5.652 -0.0554  0.0369 -0.1579
  227POPC   C3B 3096   1.338   9.492   6.109  0.0870 -0.2278 -0.2527
  227POPC   C4B 3097   1.594   9.619   6.491 -0.1578  0.0753 -0.4317
  228POPC   NC3 3098   6.475   4.989   4.347  0.0965  0.1372  0.1013
  228POPC   PO4 3099   6.823   4.763   4.451 -0.2338 -0.0045  0.0756
  228POPC   GL1 3100   6.730   5.022   4.889 -0.0089  0.0426  0.2826
  228POPC   GL2 3101   6.692   5.413   4.855  0.2608  0.2794 -0.0937
  228POPC   C1A 3102   6.718   4.989   5.272  0.2641  0.2326  0.1071
  228POPC   D2A 3103   6.448   5.040   5.571  0.0511 -0.0510 -0.0674
  228POPC   C3A 3104   6.097   5.074   5.584  0.0014  0.0883  0.0610
  228POPC   C4A 3105   5.864   5.315   5.701 -0.4078 -0.0162  0.0934
  228POPC   C1B 3106   6.780   5.473   5.281 -0.2839  0.0586  0.0315
  228POPC   C2B 3107   6.873   5.332   5.723 -0.1269  0.1074  0.2728
  228POPC   C3B 3108   6.949   5.418   6.118 -0.2290  0.0545  0.2231
  228POPC   C4B 3109   6.964   5.397   6.664  0.5986  0.2351  0.0192
  229POPC   NC3 3110   0.078   7.174   4.180 -0.1756  0.0078  0.3857
  229POPC   PO4 3111   0.304   7.513   4.146  0.1825 -0.1131 -0.2875
  229POPC   GL1 3112   0.402   7.574   4.636  0.1279 -0.0471  0.3736
  229POPC   GL2 3113   0.544   7.258   4.781  0.0416  0.0076 -0.2520
  229POPC   C1A 3114   0.630   7.890   4.866 -0.1138  0.3804  0.2187
  229POPC   D2A 3115   0.954   8.237   4.930  0.2793 -0.0511  0.2280
  229POPC   C3A 3116   0.980   8.520   5.241  0.1178  0.1963 -0.0656
  229POPC   C4A 3117   0.954   8.750   5.613 -0.2486 -0.0798 -0.0633
  229POPC   C1B 3118   0.352   7.602   5.149 -0.1344  0.2067  0.0516
  229POPC   C2B 3119   0.385   7.878   5.396  0.0516 -0.0573  0.0502
  229POPC   C3B 3120   0.481   7.880   5.906  0.0688 -0.2105  0.0105
  229POPC   C4B 3121   0.275   7.538   6.055 -0.1078 -0.1021  0.0490
  230POPC   NC3 3122   3.426   0.668   3.996  0.0534 -0.2323  0.1530
  230POPC   PO4 3123   3.098   0.576   4.253 -0.2395  0.2144  0.0380
  230POPC   GL1 3124   3.306   0.764   4.650 -0.1336 -0.1724  0.0692
  230POPC   GL2 3125   3.130   0.538   4.892  0.1591  0.0087  0.1315
  230POPC   C1A 3126   3.450   0.922   5.034  0.2002  0.0182  0.0264
  230POPC   D2A 3127   3.704   1.206   5.193  0.2245  0.0007  0.0649
  230POPC   C3A 3128   3.666   1.334   5.724 -0.4411  0.2425  0.1564
  230POPC   C4A 3129   3.491   1.569   6.090  0.0426 -0.1554 -0.0052
  230POPC   C1B 3130   3.186   0.618   5.294  0.0051 -0.1039 -0.0403
  230POPC   C2B 3131   3.087   1.075   5.378 -0.1058  0.1933  0.3276
  230POPC   C3B 3132   3.169   1.447   5.598 -0.3165 -0.0420  0.1234
  230POPC   C4B 3133   3.201   1.860   5.550 -0.1927  0.2242 -0.1317
  231POPC   NC3 3134   3.520   8.811   3.947 -0.2422  0.0648  0.0851
  231POPC   PO4 3135   3.538   8.855   4.332  0.0686 -0.0070  0.1533
  231POPC   GL1 3136   3.424   8.852   4.723  0.1146 -0.1156  0.0028
  231POPC   GL2 3137   3.288   8.523   4.736 -0.0625 -0.3295  0.0896
  231POPC   C1A 3138   3.440   9.050   5.177  0.0770 -0.4865  0.0146
  231POPC   D2A 3139   3.673   9.420   5.240 -0.3093 -0.2609 -0.1000
  231POPC   C3A 3140   3.676   9.468   5.602 -0.3229  0.3528 -0.0446
  231POPC   C4A 3141   3.380   9.625   5.893 -0.0189  0.0446  0.0794
  231POPC   C1B 3142   3.255   8.591   5.256  0.0062  0.1305  0.3873
  231POPC   C2B 3143   3.381   8.383   5.654 -0.0299  0.0631  0.1084
  231POPC   C3B 3144   3.615   8.216   6.010  0.0427  0.0400 -0.3246
  231POPC   C4B 3145   3.743   8.034   6.427 -0.1026 -0.1710 -0.0292
  232POPC   NC3 3146   6.387   6.478   4.707  0.1306  0.1169  0.0348
  232POPC   PO4 3147   6.185   6.113   4.917  0.0770  0.0898 -0.1111
  232POPC   GL1 3148   5.799   5.948   5.142 -0.2174  0.1467 -0.1538
  232POPC   GL2 3149   5.792   6.190   5.297 -0.5499 -0.0480 -0.1136
  232POPC   C1A 3150   5.861   5.794   5.617  0.0987  0.0559 -0.0118
  232POPC   D2A 3151   6.025   5.710   5.978  0.2145 -0.1293  0.3692
  232POPC   C3A 3152   6.333   5.739   6.283  0.1807 -0.2311 -0.2026
  232POPC   C4A 3153   6.776   5.833   6.369 -0.2901 -0.0302  0.0052
  232POPC   C1B 3154   5.794   6.562   5.486 -0.2513 -0.2148 -0.0151
  232POPC   C2B 3155   6.002   6.934   5.690 -0.1209 -0.1207  0.2664
  232POPC   C3B 3156   6.312   7.080   5.966 -0.2073 -0.2231 -0.0101
  232POPC   C4B 3157   6.408   7.106   6.288 -0.0305  0.0778 -0.1700
  233POPC   NC3 3158   1.949   6.012   4.268  0.2871 -0.0717  0.0206
  233POPC   PO4 3159   1.494   5.779   4.307  0.2314 -0.0957 -0.0136
  233POPC   GL1 3160   1.898   5.615   4.535  0.0830  0.2313 -0.0717
  233POPC   GL2 3161   2.186   5.758   4.593  0.2586  0.0145  0.1383
  233POPC   C1A 3162   1.926   5.491   4.956  0.2585 -0.2277 -0.3477
  233POPC   D2A 3163   1.977   5.609   5.345 -0.1932  0.1324 -0.0671
  233POPC   C3A 3164   1.996   5.851   5.643 -0.0914  0.0552 -0.5096
  233POPC   C4A 3165   1.982   6.218   5.944  0.2558  0.2026 -0.1382
  233POPC   C1B 3166   2.168   5.947   5.017 -0.3764 -0.1405 -0.1583
  233POPC   C2B 3167   2.403   6.290   5.378 -0.1602  0.3861 -0.0292
  233POPC   C3B 3168   2.329   6.513   5.842 -0.0069 -0.1257 -0.0492
  233POPC   C4B 3169   2.491   6.916   6.068 -0.1101  0.2041 -0.3075
  234POPC   NC3 3170   7.980   2.827   4.293  0.2881 -0.1610 -0.0014
  234POPC   PO4 3171   7.767   3.256   4.390  0.0179 -0.4199 -0.1145
  234POPC   GL1 3172   7.862   2.983   4.799  0.1702  0.2491  0.0348
  234POPC   GL2 3173   7.991   3.391   4.858  0.1705 -0.0042  0.1205
  234POPC   C1A 3174   7.993   3.007   5.286 -0.0959 -0.1830 -0.1363
  234POPC   D2A 3175   8.196   3.155   5.719  0.2650 -0.2311 -0.0865
  234POPC   C3A 3176   8.405   2.972   6.111 -0.0017  0.1744 -0.2867
  234POPC   C4A 3177   8.710   2.610   6.297 -0.0626 -0.1111 -0.1264
  234POPC   C1B 3178   7.684   3.405   5.162  0.1344 -0.1326 -0.4019
  234POPC   C2B 3179   7.347   3.192   5.342  0.0066  0.3353  0.0642
  234POPC   C3B 3180   7.241   3.057   5.700  0.1247 -0.0608 -0.3071
  234POPC   C4B 3181   7.264   2.888   5.987  0.3056  0.1838  0.3419
  235POPC   NC3 3182   1.019   6.259   3.911  0.3094 -0.1527 -0.3106
  235POPC   PO4 3183   0.936   6.460   4.282 -0.2899  0.1628 -0.2715
  235POPC   GL1 3184   1.128   6.439   4.673  0.0732 -0.0129 -0.0768
  235POPC   GL2 3185   0.969   6.364   4.895  0.2900 -0.0618 -0.1268
  235POPC   C1A 3186   1.437   6.395   4.968  0.4790  0.0433 -0.0426
  235POPC   D2A 3187   1.390   6.375   5.382 -0.1549 -0.1812 -0.0801
  235POPC   C3A 3188   1.499   6.087   5.670  0.2108 -0.2155 -0.2448
  235POPC   C4A 3189   1.602   6.046   6.215  0.0836  0.2758  0.0209
  235POPC   C1B 3190   1.045   6.676   5.161  0.2337 -0.0860  0.0644
  235POPC   C2B 3191   1.030   6.695   5.600 -0.0027 -0.1755 -0.0319
  235POPC   C3B 3192   1.070   6.443   5.923 -0.1547  0.1055 -0.0558
  235POPC   C4B 3193   1.106   6.031   6.111  0.0300 -0.2042 -0.0039
  236POPC   NC3 3194   6.790   1.438   3.659 -0.1362  0.0429 -0.1437
  236POPC   PO4 3195   7.032   1.219   3.930  0.0807  0.0993 -0.0591
  236POPC   GL1 3196   7.110   1.064   4.322  0.0671 -0.1970 -0.3645
  236POPC   GL2 3197   7.109   1.333   4.482 -0.0267  0.2485  0.0056
  236POPC   C1A 3198   7.343   0.859   4.575  0.0215 -0.2439  0.1899
  236POPC   D2A 3199   7.321   0.745   5.019  0.1327  0.0263 -0.0279
  236POPC   C3A 3200   7.309   1.141   5.265 -0.4026 -0.0989  0.2931
  236POPC   C4A 3201   7.107   1.447   5.494 -0.1099 -0.2967 -0.0235
  236POPC   C1B 3202   6.916   1.113   4.853 -0.0699 -0.2658 -0.1761
  236POPC   C2B 3203   6.686   1.323   5.184 -0.0021 -0.2721  0.1696
  236POPC   C3B 3204   6.520   0.975   5.340  0.1268  0.1079 -0.2802
  236POPC   C4B 3205   6.317   0.779   5.698 -0.0211 -0.1149  0.0801
  237POPC   NC3 3206   8.309   4.086   4.268 -0.2526 -0.0185 -0.1329
  237POPC   PO4 3207   8.798   4.162   4.431 -0.1386 -0.2418  0.0958
  237POPC   GL1 3208   8.732   3.791   4.550  0.1558 -0.1352 -0.1663
  237POPC   GL2 3209   8.906   3.853   4.828  0.0959  0.0561 -0.0063
  237POPC   C1A 3210   8.414   3.697   4.862  0.0734  0.3295 -0.2175
  237POPC   D2A 3211   8.186   3.704   5.233 -0.0224 -0.0067  0.0762
  237POPC   C3A 3212   8.243   3.672   5.588 -0.0013  0.0094 -0.3206
  237POPC   C4A 3213   8.081   3.590   5.921  0.0557 -0.1726  0.1176
  237POPC   C1B 3214   9.133   3.969   5.006 -0.0917  0.1360  0.0756
  237POPC   C2B 3215   9.241   4.025   5.468  0.2145  0.0788  0.1370
  237POPC   C3B 3216   9.469   4.200   5.768 -0.1195 -0.2626 -0.1019
  237POPC   C4B 3217   9.696   3.977   6.023  0.0002 -0.2418  0.1640
  238POPC   NC3 3218   3.874   2.611   2.871 -0.0775 -0.0561 -0.2020
  238POPC   PO4 3219   3.749   2.808   3.213  0.2460  0.1111  0.0525
  238POPC   GL1 3220   3.494   2.740   3.683  0.1185 -0.2149 -0.1620
  238POPC   GL2 3221   3.369   3.091   3.696  0.2132 -0.1290  0.1102
  238POPC   C1A 3222   3.234   2.543   4.003 -0.0993 -0.2565 -0.1836
  238POPC   D2A 3223   3.309   2.466   4.396 -0.1562  0.0147 -0.0325
  238POPC   C3A 3224   2.911   2.448   4.618 -0.2974  0.1653 -0.1833
  238POPC   C4A 3225   2.535   2.287   4.574 -0.1246  0.1099 -0.1737
  238POPC   C1B 3226   3.518   3.451   3.880 -0.0256 -0.0851 -0.0704
  238POPC   C2B 3227   3.500   3.791   4.113  0.2801  0.0531 -0.0824
  238POPC   C3B 3228   3.488   3.817   4.552 -0.2726  0.1460 -0.1552
  238POPC   C4B 3229   3.468   3.837   5.050  0.0081 -0.2194 -0.2491
  239POPC   NC3 3230   1.025   5.946   4.388 -0.0505 -0.2556  0.0281
  239POPC   PO4 3231   0.731   5.960   4.650  0.1020  0.1168 -0.0002
  239POPC   GL1 3232   0.587   6.069   4.941 -0.0074  0.1806 -0.0651
  239POPC   GL2 3233   0.513   5.749   5.170 -0.2880 -0.0775 -0.0782
  239POPC   C1A 3234   0.826   6.247   5.369 -0.2437 -0.1636  0.2128
  239POPC   D2A 3235   0.910   6.031   5.701  0.2611 -0.1320 -0.0566
  239POPC   C3A 3236   0.435   5.974   5.735  0.0723  0.0765 -0.1108
  239POPC   C4A 3237  -0.050   6.101   5.701  0.0285  0.1907 -0.0010
  239POPC   C1B 3238   0.971   5.774   5.241  0.1495 -0.2005  0.1657
  239POPC   C2B 3239   1.227   5.607   5.489 -0.0480 -0.1765 -0.0382
  239POPC   C3B 3240   1.174   5.560   5.900 -0.3231  0.2391  0.2558
  239POPC   C4B 3241   1.019   5.302   6.278  0.1953  0.1595 -0.1832
  240POPC   NC3 3242   5.546   8.174   4.520 -0.2207  0.0305  0.1079
  240POPC   PO4 3243   5.317   8.510   4.448  0.0673 -0.0036 -0.0678
  240POPC   GL1 3244   5.440   8.579   4.810  0.0286 -0.0140 -0.0241
  240POPC   GL2 3245   5.219   8.270   4.930  0.1264 -0.1806  0.1205
  240POPC   C1A 3246   5.514   8.545   5.284 -0.1827 -0.2627  0.1512
  240POPC   D2A 3247   5.582   8.615   5.738 -0.0361  0.1535 -0.2545
  240POPC   C3A 3248   5.775   8.242   5.910  0.4477 -0.0623  0.1621
  240POPC   C4A 3249   5.896   7.987   6.279  0.0630  0.2795 -0.1972
  240POPC   C1B 3250   5.049   8.311   5.361 -0.1879 -0.1139 -0.0150
  240POPC   C2B 3251   5.105   8.611   5.619 -0.1434  0.3775 -0.2976
  240POPC   C3B 3252   4.945   8.731   5.974  0.1064  0.1113  0.0921
  240POPC   C4B 3253   5.004   8.526   6.449 -0.3178 -0.1734 -0.2887
  241POPC   NC3 3254   7.094   6.227   4.784  0.0645 -0.1612  0.1800
  241POPC   PO4 3255   6.717   6.143   4.900 -0.0899  0.0647  0.1106
  241POPC   GL1 3256   6.587   6.230   5.267  0.2132  0.1055 -0.1065
  241POPC   GL2 3257   6.389   6.087   5.509  0.2695 -0.0309 -0.1418
  241POPC   C1A 3258   6.435   6.589   5.580  0.1638 -0.3670 -0.2989
  241POPC   D2A 3259   6.123   6.630   6.016  0.4008 -0.0806 -0.1035
  241POPC   C3A 3260   5.708   6.468   6.057  0.0500 -0.1550  0.1546
  241POPC   C4A 3261   5.270   6.372   6.087  0.1502  0.2820  0.0810
  241POPC   C1B 3262   6.057   6.206   5.789  0.2077  0.1072  0.1575
  241POPC   C2B 3263   6.074   6.144   6.280  0.2223 -0.0483  0.0498
  241POPC   C3B 3264   6.026   6.057   6.691 -0.1669 -0.1525 -0.2636
  241POPC   C4B 3265   6.109   5.924   7.046 -0.0664  0.3563  0.3535
  242POPC   NC3 3266   0.904   6.910   4.627  0.1915 -0.0780 -0.0175
  242POPC   PO4 3267   1.267   6.801   4.325  0.2437  0.0108 -0.2161
  242POPC   GL1 3268   1.372   6.833   4.802 -0.2138 -0.1593 -0.0021
  242POPC   GL2 3269   1.188   7.150   4.987 -0.2778  0.2976 -0.0420
  242POPC   C1A 3270   1.668   6.854   5.165 -0.0037  0.1574  0.0750
  242POPC   D2A 3271   1.606   6.826   5.678  0.1052 -0.0722 -0.0337
  242POPC   C3A 3272   1.636   6.551   6.050 -0.0516 -0.0785  0.2045
  242POPC   C4A 3273   2.084   6.590   6.256 -0.1876  0.1178 -0.3679
  242POPC   C1B 3274   1.175   7.128   5.464 -0.1501 -0.0426 -0.1100
  242POPC   C2B 3275   1.201   7.121   5.856  0.1015 -0.1198 -0.0241
  242POPC   C3B 3276   1.398   7.054   6.298  0.2613 -0.1892 -0.0568
  242POPC   C4B 3277   1.408   7.480   6.596 -0.0955  0.2104  0.0881
  243POPC   NC3 3278   6.709   1.658   4.519 -0.1958 -0.3045  0.0502
  243POPC   PO4 3279   6.640   1.252   4.237  0.0141 -0.1277 -0.0686
  243POPC   GL1 3280   6.255   1.055   4.533  0.1298  0.0784  0.0611
  243POPC   GL2 3281   6.147   0.853   4.384 -0.2825  0.1192  0.3052
  243POPC   C1A 3282   6.189   1.149   4.966  0.0253  0.1545 -0.0627
  243POPC   D2A 3283   5.945   1.098   5.345 -0.1404 -0.1785  0.2016
  243POPC   C3A 3284   6.022   1.234   5.735  0.2064 -0.1438  0.3491
  243POPC   C4A 3285   6.304   1.023   6.090 -0.1667 -0.0531  0.0511
  243POPC   C1B 3286   5.790   0.807   4.668  0.0038 -0.1370 -0.1663
  243POPC   C2B 3287   5.560   0.982   5.050 -0.3541 -0.0114  0.4783
  243POPC   C3B 3288   5.479   0.920   5.552  0.1962 -0.1075 -0.1373
  243POPC   C4B 3289   5.340   0.679   5.902 -0.2387 -0.1135  0.1403
  244POPC   NC3 3290   8.976   5.568   4.326 -0.0475 -0.2237  0.1895
  244POPC   PO4 3291   9.107   5.208   4.478  0.0819 -0.2710 -0.2383
  244POPC   GL1 3292   9.122   5.428   4.855  0.2118 -0.3230  0.2095
  244POPC   GL2 3293   9.428   5.388   4.985 -0.1258  0.0091  0.0109
  244POPC   C1A 3294   8.943   5.313   5.196 -0.0628  0.1488  0.1778
  244POPC   D2A 3295   9.252   5.144   5.464  0.0284  0.1826 -0.3631
  244POPC   C3A 3296   9.649   5.001   5.282 -0.1186  0.1435 -0.0823
  244POPC   C4A 3297   9.969   5.216   5.165 -0.1491  0.1910 -0.0010
  244POPC   C1B 3298   9.255   5.607   5.380  0.1691 -0.3167 -0.0878
  244POPC   C2B 3299   9.339   5.545   5.844  0.4097 -0.0199 -0.1315
  244POPC   C3B 3300   9.306   5.251   6.222  0.1316 -0.1192  0.4977
  244POPC   C4B 3301   9.394   4.870   6.494 -0.0958 -0.1577  0.1563
  245POPC   NC3 3302   9.482   3.148   3.909 -0.1374 -0.0738 -0.1333
  245POPC   PO4 3303   9.471   3.548   3.984 -0.0794 -0.0349  0.2412
  245POPC   GL1 3304   9.501   3.393   4.345 -0.0732  0.0568 -0.0843
  245POPC   GL2 3305   9.246   3.551   4.692 -0.2071 -0.2992 -0.2475
  245POPC   C1A 3306   9.640   3.112   4.762 -0.0185  0.1149 -0.1970
  245POPC   D2A 3307   9.805   3.124   5.214  0.1754 -0.3233 -0.1414
  245POPC   C3A 3308   9.836   3.272   5.682  0.0915  0.3756 -0.1806
  245POPC   C4A 3309   9.487   3.489   5.928  0.0337 -0.0207 -0.0908
  245POPC   C1B 3310   9.440   3.589   5.107  0.0292  0.2271 -0.1109
  245POPC   C2B 3311   9.615   3.691   5.485 -0.1766 -0.1578 -0.0877
  245POPC   C3B 3312  10.043   3.681   5.791  0.2571  0.2394  0.0660
  245POPC   C4B 3313  10.043   3.459   6.133  0.0810 -0.1147 -0.1629
  246POPC   NC3 3314   4.435   1.892   3.720  0.2880  0.3974  0.0879
  246POPC   PO4 3315   4.666   1.564   3.983  0.2418 -0.3147 -0.0853
  246POPC   GL1 3316   4.689   1.807   4.393 -0.2262 -0.0420 -0.2432
  246POPC   GL2 3317   4.973   2.014   4.354 -0.1550 -0.1216  0.0628
  246POPC   C1A 3318   4.829   1.701   4.815 -0.2304 -0.0845  0.1455
  246POPC   D2A 3319   5.124   1.790   5.078 -0.4561 -0.0095  0.1954
  246POPC   C3A 3320   4.945   1.793   5.461  0.0226  0.0054  0.1089
  246POPC   C4A 3321   4.769   1.994   5.810  0.0749 -0.1066 -0.1989
  246POPC   C1B 3322   4.959   2.264   4.778 -0.1926 -0.1976  0.1841
  246POPC   C2B 3323   5.154   2.267   5.268  0.1286 -0.0183 -0.0398
  246POPC   C3B 3324   5.077   2.418   5.548 -0.0468 -0.0958 -0.0783
  246POPC   C4B 3325   4.959   2.469   5.976 -0.0766 -0.4036  0.2012
  247POPC   NC3 3326   0.715   2.476   3.778 -0.3071  0.2538 -0.1198
  247POPC   PO4 3327   0.990   2.858   4.017  0.1988 -0.1475  0.0715
  247POPC   GL1 3328   0.963   2.777   4.432  0.0698 -0.1442 -0.1103
  247POPC   GL2 3329   0.902   3.089   4.593  0.2455 -0.0212 -0.0919
  247POPC   C1A 3330   1.103   2.325   4.670 -0.0943  0.0410  0.1344
  247POPC   D2A 3331   0.958   1.853   4.772 -0.1960 -0.1846  0.1723
  247POPC   C3A 3332   0.715   1.494   4.689 -0.1772 -0.0077  0.0562
  247POPC   C4A 3333   0.732   1.051   4.916  0.3240  0.1861 -0.3007
  247POPC   C1B 3334   1.165   3.143   4.866  0.0804 -0.1560 -0.2423
  247POPC   C2B 3335   1.083   3.450   5.277  0.3246 -0.4842  0.1855
  247POPC   C3B 3336   1.190   3.564   5.706 -0.1568 -0.0142  0.1723
  247POPC   C4B 3337   0.925   3.600   6.106 -0.1047 -0.0805  0.2532
  248POPC   NC3 3338   0.275   0.570   3.809 -0.0514  0.1969  0.1699
  248POPC   PO4 3339   0.045   0.493   4.148  0.3729  0.2727 -0.0077
  248POPC   GL1 3340  -0.096   0.608   4.554 -0.1081  0.1572  0.2163
  248POPC   GL2 3341  -0.342   0.353   4.588  0.1669  0.0032 -0.1812
  248POPC   C1A 3342  -0.184   0.554   5.044 -0.0744  0.3346  0.1004
  248POPC   D2A 3343  -0.230   0.704   5.437  0.0052 -0.0324 -0.2932
  248POPC   C3A 3344  -0.286   1.062   5.445  0.0203 -0.0581  0.0478
  248POPC   C4A 3345  -0.455   1.275   5.652 -0.1335 -0.1691 -0.0950
  248POPC   C1B 3346   0.075   0.197   4.823  0.1847 -0.1525  0.1473
  248POPC   C2B 3347   0.352   0.130   5.156  0.1011  0.0280  0.1776
  248POPC   C3B 3348   0.687   0.179   5.454 -0.1716 -0.3784 -0.1088
  248POPC   C4B 3349   0.971  -0.001   5.696 -0.1760 -0.2586  0.0464
  249POPC   NC3 3350   7.223   4.470   4.514  0.0026 -0.3292 -0.0561
  249POPC   PO4 3351   7.606   4.313   4.652  0.5027 -0.1491  0.0400
  249POPC   GL1 3352   7.584   4.084   5.034  0.1674 -0.1470 -0.5112
  249POPC   GL2 3353   7.282   4.156   5.119  0.2318  0.1747  0.3479
  249POPC   C1A 3354   7.574   3.824   5.388  0.0662  0.0351 -0.0090
  249POPC   D2A 3355   7.745   3.428   5.617 -0.0737  0.1850 -0.2078
  249POPC   C3A 3356   7.547   3.372   6.031  0.0515  0.1527 -0.0335
  249POPC   C4A 3357   7.395   3.230   6.464 -0.0838  0.2628 -0.2773
  249POPC   C1B 3358   7.105   4.081   5.501  0.0099 -0.4564  0.0041
  249POPC   C2B 3359   6.923   4.144   5.940 -0.0477 -0.1337 -0.3724
  249POPC   C3B 3360   6.956   3.955   6.391  0.1055 -0.1933 -0.2780
  249POPC   C4B 3361   7.388   3.780   6.591  0.4202  0.0080  0.0253
  250POPC   NC3 3362   5.681   7.209   4.712 -0.0036  0.1082  0.1416
  250POPC   PO4 3363   5.924   6.907   4.780  0.0397  0.2171 -0.0393
  250POPC   GL1 3364   5.592   6.777   5.090 -0.0633  0.0038  0.0496
  250POPC   GL2 3365   5.402   7.035   5.120 -0.0642 -0.0575 -0.1670
  250POPC   C1A 3366   5.273   6.527   5.305  0.2345 -0.3293  0.0898
  250POPC   D2A 3367   4.879   6.482   5.526 -0.1136 -0.0175  0.0909
  250POPC   C3A 3368   4.804   6.524   5.977  0.1363 -0.2431 -0.2912
  250POPC   C4A 3369   4.918   6.284   6.461 -0.0830 -0.0545  0.3272
  250POPC   C1B 3370   5.497   6.950   5.509  0.0945 -0.0629  0.0339
  250POPC   C2B 3371   5.335   6.993   5.949  0.2944 -0.2719 -0.0805
  250POPC   C3B 3372   5.357   7.172   6.416 -0.0514 -0.0173 -0.1143
  250POPC   C4B 3373   5.616   7.373   6.679  0.2519  0.0422 -0.2320
  251POPC   NC3 3374   8.838   6.780   4.516  0.0682 -0.2028  0.1364
  251POPC   PO4 3375   8.571   7.176   4.445 -0.0576 -0.3204  0.0436
  251POPC   GL1 3376   8.593   7.358   4.932 -0.0780 -0.0468  0.0062
  251POPC   GL2 3377   8.234   7.357   5.047  0.2625 -0.1132  0.1051
  251POPC   C1A 3378   8.867   7.468   5.317 -0.0232  0.1480 -0.2513
  251POPC   D2A 3379   8.912   7.588   5.704  0.0355  0.2234  0.0204
  251POPC   C3A 3380   8.619   7.715   5.931  0.1014  0.3748  0.1872
  251POPC   C4A 3381   8.329   7.952   6.230 -0.1626  0.1494  0.1291
  251POPC   C1B 3382   8.504   6.990   5.281  0.0154  0.1137 -0.3550
  251POPC   C2B 3383   8.638   6.748   5.569 -0.1697  0.0753 -0.1308
  251POPC   C3B 3384   8.860   6.627   5.984 -0.0487 -0.0197 -0.2123
  251POPC   C4B 3385   9.241   6.430   6.131  0.1946  0.0029 -0.1677
  252POPC   NC3 3386   9.610   7.758   3.902 -0.1427  0.0124 -0.0102
  252POPC   PO4 3387   9.527   7.597   4.236  0.3090  0.3887 -0.1257
  252POPC   GL1 3388   9.575   7.450   4.667  0.0266 -0.0813  0.0386
  252POPC   GL2 3389   9.628   7.718   4.824  0.2544  0.0563  0.0854
  252POPC   C1A 3390   9.521   7.268   5.131 -0.1440 -0.3592  0.1613
  252POPC   D2A 3391   9.363   7.348   5.462  0.0576 -0.0653 -0.1181
  252POPC   C3A 3392   9.376   7.331   5.915 -0.3658 -0.2667  0.1496
  252POPC   C4A 3393   9.408   6.957   6.206  0.2226  0.0633  0.0015
  252POPC   C1B 3394   9.831   8.004   4.887  0.0442  0.2283 -0.0078
  252POPC   C2B 3395  10.010   8.488   4.957  0.2246  0.0384 -0.1920
  252POPC   C3B 3396   9.769   8.883   5.026 -0.1062 -0.0454 -0.0908
  252POPC   C4B 3397  10.018   9.324   5.064 -0.2883  0.5105  0.2510
  253POPC   NC3 3398   8.237   8.906   4.602 -0.3086  0.0294 -0.1452
  253POPC   PO4 3399   7.868   8.711   4.270  0.1832 -0.0651 -0.0729
  253POPC   GL1 3400   7.599   8.847   4.780 -0.1026 -0.1660 -0.0319
  253POPC   GL2 3401   7.831   8.865   5.016 -0.2619  0.1219  0.1373
  253POPC   C1A 3402   7.308   9.025   4.887 -0.1272 -0.3720 -0.0010
  253POPC   D2A 3403   7.018   9.011   5.249  0.0997 -0.1040 -0.1898
  253POPC   C3A 3404   6.930   9.280   5.585 -0.2027 -0.2733  0.1377
  253POPC   C4A 3405   6.703   9.239   6.027 -0.2112 -0.0617 -0.1338
  253POPC   C1B 3406   7.621   9.067   5.327  0.0907 -0.3219 -0.0742
  253POPC   C2B 3407   7.401   9.144   5.759  0.0014 -0.0975 -0.2570
  253POPC   C3B 3408   7.122   8.874   5.811  0.0564  0.1387 -0.2621
  253POPC   C4B 3409   6.964   8.997   6.342 -0.1209  0.0134 -0.2576
  254POPC   NC3 3410   8.865   7.648   4.595  0.1132  0.0839 -0.0191
  254POPC   PO4 3411   9.217   7.928   4.579 -0.3602 -0.0491  0.0782
  254POPC   GL1 3412   9.150   8.017   5.024  0.4030 -0.0047 -0.0797
  254POPC   GL2 3413   9.200   7.733   5.127  0.0419  0.4077 -0.0039
  254POPC   C1A 3414   9.199   8.034   5.556 -0.0283 -0.0404 -0.1716
  254POPC   D2A 3415   9.447   7.807   5.789  0.2052  0.0175  0.2313
  254POPC   C3A 3416   9.345   7.820   6.200  0.2308  0.1538 -0.2563
  254POPC   C4A 3417   9.247   7.946   6.588  0.0600  0.0197  0.1775
  254POPC   C1B 3418   9.586   7.782   5.306  0.0633 -0.0003 -0.2791
  254POPC   C2B 3419   9.832   7.486   5.588 -0.2020  0.1212  0.0244
  254POPC   C3B 3420   9.795   7.022   5.832 -0.0816 -0.0220  0.0669
  254POPC   C4B 3421   9.782   6.558   5.947  0.0316 -0.1545 -0.1877
  255POPC   NC3 3422   4.648   1.280   4.362 -0.1935 -0.0970 -0.0293
  255POPC   PO4 3423   4.648   0.818   4.327 -0.0497 -0.0750  0.2392
  255POPC   GL1 3424   4.463   0.933   4.636 -0.1329  0.1341  0.2857
  255POPC   GL2 3425   4.238   1.118   4.603 -0.1101 -0.0899 -0.0070
  255POPC   C1A 3426   4.586   0.937   5.115  0.1171 -0.4336 -0.1850
  255POPC   D2A 3427   4.495   0.674   5.480 -0.1425 -0.0770  0.5327
  255POPC   C3A 3428   4.439   0.553   5.795  0.3217 -0.0237 -0.0202
  255POPC   C4A 3429   4.517   0.371   6.221 -0.0881  0.1555 -0.2579
  255POPC   C1B 3430   4.144   1.141   5.006 -0.0804  0.1052 -0.2831
  255POPC   C2B 3431   4.209   1.202   5.486 -0.2831  0.0074  0.0553
  255POPC   C3B 3432   4.314   1.044   5.925 -0.1047  0.1401 -0.1454
  255POPC   C4B 3433   4.465   0.848   6.289  0.1419 -0.1269 -0.2872
  256POPC   NC3 3434   9.006   6.387   4.236  0.3238 -0.2704  0.0703
  256POPC   PO4 3435   9.211   6.047   4.244  0.0833 -0.0161  0.0219
  256POPC   GL1 3436   9.234   6.054   4.614 -0.0254  0.1212  0.0539
  256POPC   GL2 3437   8.898   6.276   4.739  0.2076 -0.2632  0.2035
  256POPC   C1A 3438   9.309   6.200   5.116  0.1390  0.0565 -0.1310
  256POPC   D2A 3439   9.344   6.468   5.482 -0.0688 -0.1733  0.0217
  256POPC   C3A 3440   9.596   6.869   5.427  0.1936  0.3119 -0.3808
  256POPC   C4A 3441   9.938   7.055   5.154 -0.1854  0.3316  0.1190
  256POPC   C1B 3442   8.784   6.033   5.021  0.1975 -0.1211  0.2935
  256POPC   C2B 3443   8.758   5.791   5.405 -0.0392 -0.3839  0.0544
  256POPC   C3B 3444   8.826   5.455   5.715  0.2905  0.0034  0.1473
  256POPC   C4B 3445   8.550   5.215   5.929 -0.0633 -0.0096 -0.0287
  257POPC   NC3 3446   1.753   0.506   3.888 -0.0971  0.3673  0.2083
  257POPC   PO4 3447   1.946   0.805   4.176 -0.1964  0.2091  0.2221
  257POPC   GL1 3448   1.770   0.789   4.618 -0.0413 -0.3333 -0.1776
  257POPC   GL2 3449   1.857   0.976   4.734  0.1953 -0.1679  0.1037
  257POPC   C1A 3450   1.580   0.479   4.899 -0.0697 -0.2032  0.1264
  257POPC   D2A 3451   1.649   0.741   5.268 -0.1326 -0.4862  0.0032
  257POPC   C3A 3452   1.452   0.850   5.448  0.0328 -0.2214 -0.1387
  257POPC   C4A 3453   1.251   1.057   5.706  0.2831 -0.1252 -0.2705
  257POPC   C1B 3454   2.073   0.944   5.182  0.0057  0.1224  0.0757
  257POPC   C2B 3455   2.593   1.197   5.290  0.1804 -0.0960  0.3289
  257POPC   C3B 3456   2.796   1.102   5.784  0.2866 -0.0926  0.0862
  257POPC   C4B 3457   2.895   1.193   6.138 -0.1563 -0.1413  0.1140
  258POPC   NC3 3458   1.226   4.320   3.732 -0.0178  0.0263 -0.2892
  258POPC   PO4 3459   0.800   4.354   3.899  0.0400 -0.0404  0.2460
  258POPC   GL1 3460   1.087   4.371   4.209 -0.3049 -0.0402  0.1129
  258POPC   GL2 3461   0.920   4.252   4.496  0.1071  0.1308 -0.4273
  258POPC   C1A 3462   1.302   4.686   4.568 -0.1870  0.1077 -0.0925
  258POPC   D2A 3463   1.522   4.619   4.952  0.0188  0.0125 -0.1468
  258POPC   C3A 3464   1.689   4.272   5.018  0.1791  0.1251  0.0083
  258POPC   C4A 3465   1.994   4.166   5.176  0.5532 -0.3109 -0.0320
  258POPC   C1B 3466   0.837   3.998   4.870 -0.0777 -0.0052 -0.0764
  258POPC   C2B 3467   0.776   3.896   5.204 -0.1518 -0.0834 -0.1588
  258POPC   C3B 3468   0.806   3.823   5.524  0.1135 -0.1782  0.0705
  258POPC   C4B 3469   0.646   4.082   5.860 -0.6478 -0.2469 -0.0304
  259POPC   NC3 3470   9.669   1.977   4.173 -0.0912 -0.1950 -0.1510
  259POPC   PO4 3471   9.640   2.421   4.090 -0.1349 -0.0471  0.2986
  259POPC   GL1 3472   9.864   2.421   4.425  0.0059  0.0071 -0.2227
  259POPC   GL2 3473   9.802   2.240   4.703  0.2252  0.1990  0.1023
  259POPC   C1A 3474  10.226   2.400   4.608 -0.1423  0.2552 -0.2618
  259POPC   D2A 3475  10.518   2.603   4.912  0.5988 -0.2316  0.5607
  259POPC   C3A 3476  10.748   2.401   5.249  0.2252  0.2468  0.2048
  259POPC   C4A 3477  10.726   1.970   5.355 -0.3225 -0.3280  0.4657
  259POPC   C1B 3478   9.641   2.539   4.869  0.1799  0.3222 -0.2340
  259POPC   C2B 3479   9.496   2.787   5.275 -0.3097  0.0347 -0.1327
  259POPC   C3B 3480   9.154   2.782   5.516  0.1110 -0.3875 -0.0599
  259POPC   C4B 3481   8.852   2.575   5.812 -0.0786  0.1039 -0.1875
  260POPC   NC3 3482   2.061   3.243   3.420  0.2264 -0.1789 -0.3130
  260POPC   PO4 3483   2.344   3.350   3.728 -0.0034  0.0099 -0.2030
  260POPC   GL1 3484   2.337   3.304   4.130  0.1498  0.3151 -0.1145
  260POPC   GL2 3485   2.124   3.174   4.354 -0.2303 -0.0853 -0.1057
  260POPC   C1A 3486   2.593   3.291   4.501  0.1158  0.1203  0.0443
  260POPC   D2A 3487   2.773   3.343   4.925  0.0614 -0.0615 -0.1800
  260POPC   C3A 3488   2.673   3.284   5.386  0.4092 -0.0623  0.0851
  260POPC   C4A 3489   2.600   3.072   5.742 -0.1740 -0.1497 -0.2039
  260POPC   C1B 3490   2.117   3.340   4.753  0.0594 -0.2369  0.1717
  260POPC   C2B 3491   2.239   3.271   5.116 -0.0988  0.1683 -0.3791
  260POPC   C3B 3492   2.113   3.083   5.566  0.0738 -0.2784 -0.0840
  260POPC   C4B 3493   2.080   2.759   5.928  0.0668  0.2669 -0.0027
  261POPC   NC3 3494   5.369   8.011   4.098  0.1433  0.0205  0.0058
  261POPC   PO4 3495   5.636   7.652   4.431  0.1668  0.2613  0.1321
  261POPC   GL1 3496   5.432   7.662   4.909 -0.2565  0.1762 -0.3254
  261POPC   GL2 3497   5.466   7.520   5.174 -0.1914 -0.1235 -0.4755
  261POPC   C1A 3498   5.155   7.805   5.313  0.1709  0.2235  0.0176
  261POPC   D2A 3499   5.036   7.967   5.733 -0.2089  0.1266  0.2909
  261POPC   C3A 3500   5.119   8.279   5.994 -0.2081 -0.2786 -0.1146
  261POPC   C4A 3501   5.386   8.176   6.310 -0.0102  0.1545 -0.2485
  261POPC   C1B 3502   5.332   7.418   5.604  0.1855  0.3398 -0.0511
  261POPC   C2B 3503   4.982   7.433   5.841  0.1292 -0.1364  0.2271
  261POPC   C3B 3504   4.953   7.273   6.170  0.1454 -0.1914 -0.1770
  261POPC   C4B 3505   5.060   6.795   6.265 -0.0032 -0.1693 -0.1656
  262POPC   NC3 3506   9.051   3.583   4.269  0.3645  0.2797  0.2120
  262POPC   PO4 3507   9.029   3.186   4.145 -0.1604  0.0849  0.3204
  262POPC   GL1 3508   9.157   3.058   4.549 -0.2112 -0.0307 -0.0030
  262POPC   GL2 3509   8.963   2.782   4.555 -0.1731  0.3049  0.0548
  262POPC   C1A 3510   9.215   3.174   4.963  0.2658  0.1672 -0.4457
  262POPC   D2A 3511   8.930   3.460   5.157 -0.3444  0.0858  0.2976
  262POPC   C3A 3512   9.070   3.327   5.516  0.1424  0.1649  0.0153
  262POPC   C4A 3513   8.991   3.103   6.000 -0.0864  0.1398 -0.0534
  262POPC   C1B 3514   9.090   2.550   4.889  0.0434  0.1465 -0.0808
  262POPC   C2B 3515   8.875   2.455   5.285 -0.1300  0.1249  0.0696
  262POPC   C3B 3516   9.287   2.342   5.678 -0.3093 -0.1878 -0.0138
  262POPC   C4B 3517   9.574   2.039   5.766  0.1551 -0.0559  0.2055
  263POPC   NC3 3518   8.576   4.563   4.554  0.2118 -0.2210  0.0595
  263POPC   PO4 3519   8.740   4.870   4.327 -0.0044 -0.0046  0.1243
  263POPC   GL1 3520   8.628   5.092   4.684  0.0327 -0.0641  0.0792
  263POPC   GL2 3521   8.893   4.931   4.865  0.1135 -0.2955  0.1927
  263POPC   C1A 3522   8.400   5.294   5.002  0.0288  0.2413 -0.0907
  263POPC   D2A 3523   8.333   5.440   5.437  0.1085  0.1531 -0.1671
  263POPC   C3A 3524   7.893   5.229   5.723 -0.1884  0.0756  0.0131
  263POPC   C4A 3525   7.694   4.858   5.916  0.1953 -0.1877  0.1126
  263POPC   C1B 3526   9.010   4.748   5.231  0.2316  0.3098 -0.0289
  263POPC   C2B 3527   8.945   4.426   5.509  0.4585  0.1786  0.0554
  263POPC   C3B 3528   8.642   4.562   5.883 -0.4273  0.2710  0.2059
  263POPC   C4B 3529   8.643   4.885   6.319 -0.0652 -0.3343 -0.2609
  264POPC   NC3 3530   4.646   5.016   3.562  0.0405 -0.0029  0.0311
  264POPC   PO4 3531   5.011   4.726   3.694 -0.1175 -0.1703 -0.0278
  264POPC   GL1 3532   5.079   4.532   4.193 -0.1335 -0.3556  0.1920
  264POPC   GL2 3533   5.232   4.308   4.278 -0.2477 -0.0861 -0.1896
  264POPC   C1A 3534   4.936   4.618   4.594 -0.1759  0.2597 -0.1381
  264POPC   D2A 3535   4.484   4.713   4.644 -0.0176  0.0500  0.2999
  264POPC   C3A 3536   4.208   4.722   4.278 -0.3392  0.2243  0.0084
  264POPC   C4A 3537   3.906   4.941   4.107  0.2354  0.2142 -0.0135
  264POPC   C1B 3538   5.249   4.110   4.626 -0.0399  0.2137 -0.2361
  264POPC   C2B 3539   5.167   4.174   5.008 -0.0068 -0.3119  0.2008
  264POPC   C3B 3540   4.999   4.271   5.331  0.2669  0.1518 -0.0874
  264POPC   C4B 3541   4.736   4.021   5.491 -0.1110  0.0949  0.2901
  265POPC   NC3 3542   2.420   6.263   3.449 -0.1673 -0.1111 -0.0550
  265POPC   PO4 3543   2.553   6.481   3.899  0.0853 -0.0653 -0.1386
  265POPC   GL1 3544   2.458   6.229   4.226  0.1204  0.1062  0.0378
  265POPC   GL2 3545   2.346   6.559   4.400  0.2348  0.0127 -0.1508
  265POPC   C1A 3546   2.592   6.041   4.555 -0.1418  0.3839 -0.2823
  265POPC   D2A 3547   2.730   5.989   4.990 -0.0099  0.2195  0.1892
  265POPC   C3A 3548   2.935   5.636   5.031  0.0306 -0.0535 -0.2694
  265POPC   C4A 3549   3.166   5.404   5.239  0.1516  0.1685 -0.0221
  265POPC   C1B 3550   2.180   6.869   4.746 -0.2924 -0.0814  0.0454
  265POPC   C2B 3551   2.155   6.963   5.230 -0.2100 -0.2748  0.1887
  265POPC   C3B 3552   2.125   6.926   5.641 -0.1165  0.1258 -0.3539
  265POPC   C4B 3553   2.032   7.045   6.031  0.1774  0.0226 -0.1261
  266POPC   NC3 3554   1.591   5.100   3.525  0.0666  0.2724  0.2715
  266POPC   PO4 3555   1.925   4.910   3.808 -0.0002  0.1838 -0.0538
  266POPC   GL1 3556   2.072   4.726   4.122  0.0847 -0.0879 -0.1721
  266POPC   GL2 3557   2.000   4.523   4.118 -0.0506 -0.2608 -0.2434
  266POPC   C1A 3558   2.344   4.774   4.429  0.1899 -0.1040 -0.0890
  266POPC   D2A 3559   2.752   4.924   4.630 -0.2193 -0.2350 -0.1650
  266POPC   C3A 3560   2.918   5.299   4.715  0.0998  0.0364  0.1021
  266POPC   C4A 3561   3.012   5.776   4.593 -0.0105  0.2850  0.0137
  266POPC   C1B 3562   1.822   4.338   4.385  0.1542  0.1733 -0.2384
  266POPC   C2B 3563   1.415   4.113   4.634  0.2353 -0.3006 -0.1185
  266POPC   C3B 3564   1.184   4.265   5.053 -0.1485  0.1172  0.3546
  266POPC   C4B 3565   1.268   4.580   5.358 -0.0010  0.1881 -0.1675
  267POPC   NC3 3566   4.283   6.931   4.456 -0.2232 -0.0471  0.1367
  267POPC   PO4 3567   4.339   6.529   4.270 -0.0226  0.2357  0.1114
  267POPC   GL1 3568   4.431   6.562   4.784  0.1862  0.0632 -0.1404
  267POPC   GL2 3569   4.449   6.835   4.971 -0.1186  0.1258  0.0243
  267POPC   C1A 3570   4.243   6.286   5.142 -0.0816 -0.0068 -0.2058
  267POPC   D2A 3571   4.389   6.188   5.500 -0.1668 -0.2612  0.1289
  267POPC   C3A 3572   4.104   6.133   5.877 -0.2958 -0.0635  0.1348
  267POPC   C4A 3573   3.809   6.335   6.151 -0.2727 -0.1481  0.3136
  267POPC   C1B 3574   4.453   6.669   5.362 -0.1880  0.2518 -0.1132
  267POPC   C2B 3575   4.363   6.628   5.820 -0.1048  0.0954 -0.1560
  267POPC   C3B 3576   3.999   6.827   6.130 -0.3881 -0.1744  0.1198
  267POPC   C4B 3577   3.604   6.915   6.373  0.4441 -0.0323  0.3220
  268POPC   NC3 3578   5.055   1.199   3.645 -0.0926 -0.3243 -0.0540
  268POPC   PO4 3579   4.984   1.064   4.021 -0.1394 -0.0082  0.0717
  268POPC   GL1 3580   5.138   1.152   4.503  0.2544 -0.0120 -0.0758
  268POPC   GL2 3581   5.016   0.821   4.703  0.0991  0.1792 -0.2617
  268POPC   C1A 3582   5.291   1.447   4.795 -0.3900  0.1747  0.3109
  268POPC   D2A 3583   5.683   1.469   5.049  0.2625  0.1473  0.1986
  268POPC   C3A 3584   6.069   1.624   5.131  0.1968  0.2560  0.2781
  268POPC   C4A 3585   6.285   1.530   5.461 -0.0431  0.0395  0.1106
  268POPC   C1B 3586   5.027   1.059   5.019 -0.3623  0.2263 -0.1737
  268POPC   C2B 3587   5.151   1.318   5.329 -0.1114 -0.1278 -0.0704
  268POPC   C3B 3588   5.515   1.509   5.525  0.0456 -0.2122  0.0490
  268POPC   C4B 3589   5.709   1.760   5.851 -0.0589 -0.1434 -0.1152
  269POPC   NC3 3590   5.623   3.189   3.535 -0.1393  0.1969 -0.3625
  269POPC   PO4 3591   5.515   2.893   3.753 -0.1360  0.0013  0.0953
  269POPC   GL1 3592   5.417   3.193   4.060 -0.1529  0.0538 -0.2523
  269POPC   GL2 3593   5.655   3.495   4.110  0.1657 -0.2783  0.2696
  269POPC   C1A 3594   4.988   3.253   4.178  0.2025 -0.2316  0.0296
  269POPC   D2A 3595   4.633   3.093   4.225  0.0021 -0.1552 -0.0501
  269POPC   C3A 3596   4.262   3.191   4.397  0.2837  0.0027 -0.1255
  269POPC   C4A 3597   3.956   2.979   4.676 -0.2252  0.2169  0.2252
  269POPC   C1B 3598   5.510   3.327   4.573  0.1887 -0.2334  0.0879
  269POPC   C2B 3599   5.368   3.363   4.990  0.3087 -0.0903  0.2755
  269POPC   C3B 3600   5.157   3.117   5.293  0.1749  0.3197 -0.0901
  269POPC   C4B 3601   5.175   2.867   5.687  0.2218  0.0596  0.1923
  270POPC   NC3 3602   7.513   1.248   3.835 -0.1079 -0.0178 -0.0549
  270POPC   PO4 3603   7.800   0.939   3.930  0.3003  0.2147 -0.0911
  270POPC   GL1 3604   7.787   1.022   4.325  0.0376 -0.2076 -0.0719
  270POPC   GL2 3605   7.615   1.204   4.341  0.0663  0.0722 -0.1600
  270POPC   C1A 3606   7.851   0.884   4.773  0.1161 -0.1079 -0.2668
  270POPC   D2A 3607   7.856   0.685   5.199 -0.0812 -0.0775 -0.0774
  270POPC   C3A 3608   7.514   0.756   5.508  0.0064  0.2918 -0.0935
  270POPC   C4A 3609   7.323   1.122   5.772 -0.2368 -0.0870  0.3024
  270POPC   C1B 3610   7.512   1.340   4.811 -0.1570  0.1285 -0.2503
  270POPC   C2B 3611   7.185   1.572   4.966  0.1420  0.1490  0.1951
  270POPC   C3B 3612   6.857   1.780   5.201  0.4770  0.3324  0.3119
  270POPC   C4B 3613   6.655   1.902   5.610  0.1448 -0.0626 -0.1187
  271POPC   NC3 3614   5.464   4.563   3.914  0.0867  0.1379 -0.0897
  271POPC   PO4 3615   5.888   4.428   3.856 -0.0859 -0.2012  0.2169
  271POPC   GL1 3616   6.112   4.093   4.096 -0.0800  0.0658 -0.0699
  271POPC   GL2 3617   5.933   3.930   4.120 -0.0095 -0.1932  0.3173
  271POPC   C1A 3618   6.272   4.216   4.351  0.2653 -0.3299  0.3677
  271POPC   D2A 3619   6.361   4.567   4.601 -0.1902 -0.0244  0.2411
  271POPC   C3A 3620   6.004   4.779   4.765 -0.1913  0.0448  0.2497
  271POPC   C4A 3621   6.235   5.076   5.111  0.1202  0.2099 -0.0459
  271POPC   C1B 3622   5.659   3.913   4.501 -0.2414 -0.1837  0.4685
  271POPC   C2B 3623   5.569   3.870   4.945 -0.1900  0.1190  0.4022
  271POPC   C3B 3624   5.385   3.791   5.280 -0.2803  0.0495 -0.2348
  271POPC   C4B 3625   5.214   3.544   5.561  0.0646 -0.0514 -0.2081
  272POPC   NC3 3626   6.912   0.755   3.972  0.2013  0.1285  0.5116
  272POPC   PO4 3627   6.661   0.657   4.380 -0.0657 -0.0522  0.3148
  272POPC   GL1 3628   6.680   0.674   4.747  0.2349 -0.0077 -0.1741
  272POPC   GL2 3629   6.375   0.613   4.883 -0.0154  0.0089 -0.1331
  272POPC   C1A 3630   6.889   0.668   5.083  0.4843  0.0026 -0.1132
  272POPC   D2A 3631   6.985   0.876   5.525 -0.2179 -0.0708 -0.1055
  272POPC   C3A 3632   6.745   1.116   5.784 -0.1178  0.0423 -0.0688
  272POPC   C4A 3633   6.527   1.463   5.904 -0.3099  0.1007 -0.2543
  272POPC   C1B 3634   6.077   0.717   5.141 -0.3026 -0.0663  0.0749
  272POPC   C2B 3635   5.907   0.654   5.466 -0.0647 -0.1411 -0.2592
  272POPC   C3B 3636   5.875   0.768   5.917 -0.0501  0.0120 -0.3743
  272POPC   C4B 3637   5.896   0.831   6.348 -0.0738 -0.2190  0.1708
  273POPC   NC3 3638   6.421   6.943   4.933  0.1044 -0.0919 -0.0205
  273POPC   PO4 3639   6.735   6.657   5.006 -0.0083  0.0633  0.0470
  273POPC   GL1 3640   7.045   6.442   5.258 -0.0766  0.2742 -0.0916
  273POPC   GL2 3641   7.334   6.163   5.307  0.2251 -0.0577 -0.4367
  273POPC   C1A 3642   6.975   6.354   5.703 -0.3518 -0.0672  0.1795
  273POPC   D2A 3643   7.037   6.113   6.027  0.1610 -0.0601 -0.2665
  273POPC   C3A 3644   7.199   6.212   6.394 -0.1285  0.1485 -0.1250
  273POPC   C4A 3645   7.075   6.023   6.715 -0.1444  0.3520  0.0034
  273POPC   C1B 3646   7.390   6.111   5.728 -0.0805  0.0535 -0.0321
  273POPC   C2B 3647   7.598   5.912   6.074  0.1603  0.3664  0.3334
  273POPC   C3B 3648   7.861   5.776   6.271 -0.5777  0.0029 -0.0177
  273POPC   C4B 3649   8.234   5.518   6.351 -0.2474  0.0725 -0.2823
  274POPC   NC3 3650   4.952   9.246   4.257 -0.0546 -0.1546 -0.2405
  274POPC   PO4 3651   5.023   9.578   4.546 -0.1378  0.0642 -0.1528
  274POPC   GL1 3652   5.208   9.307   4.870 -0.0777 -0.0601  0.0182
  274POPC   GL2 3653   5.066   8.989   4.807  0.1036  0.2622 -0.2942
  274POPC   C1A 3654   5.136   9.157   5.265 -0.2341  0.0276 -0.0267
  274POPC   D2A 3655   4.935   9.172   5.605  0.2201 -0.0715  0.0652
  274POPC   C3A 3656   4.546   9.132   5.622  0.0432 -0.0515  0.3070
  274POPC   C4A 3657   4.261   9.114   5.956  0.0302 -0.0648  0.0359
  274POPC   C1B 3658   4.987   8.701   5.084  0.0220  0.1785  0.1291
  274POPC   C2B 3659   4.679   8.690   5.418  0.2655  0.2446  0.3181
  274POPC   C3B 3660   4.452   8.676   5.787  0.0091  0.1745  0.1361
  274POPC   C4B 3661   4.565   8.758   6.246  0.0873  0.2529 -0.4177
  275POPC   NC3 3662   8.572   3.186   3.887  0.0416 -0.2617 -0.1712
  275POPC   PO4 3663   8.587   3.603   4.078 -0.0912 -0.0602  0.2141
  275POPC   GL1 3664   8.580   3.338   4.396  0.1238  0.2043  0.1221
  275POPC   GL2 3665   8.259   3.108   4.510 -0.1876  0.2905 -0.2442
  275POPC   C1A 3666   8.738   3.174   4.741 -0.3128 -0.0288 -0.0813
  275POPC   D2A 3667   8.829   2.928   5.142  0.1923 -0.0899 -0.2099
  275POPC   C3A 3668   8.525   2.854   5.506 -0.2724 -0.1903 -0.3473
  275POPC   C4A 3669   8.278   2.609   5.691 -0.2709 -0.1727  0.1166
  275POPC   C1B 3670   8.343   3.106   4.975  0.1441  0.1409  0.1256
  275POPC   C2B 3671   8.500   3.312   5.336 -0.0218 -0.4501  0.1681
  275POPC   C3B 3672   8.635   3.444   5.731  0.0409  0.0664 -0.2246
  275POPC   C4B 3673   9.000   3.585   5.946 -0.1183  0.0464  0.0764
  276POPC   NC3 3674   1.652   2.174   3.658 -0.0770  0.2848 -0.3259
  276POPC   PO4 3675   1.764   1.781   3.971  0.0296 -0.2724  0.1311
  276POPC   GL1 3676   1.874   2.063   4.274 -0.0597 -0.0319  0.1054
  276POPC   GL2 3677   2.105   2.237   4.294 -0.0994  0.1672  0.0654
  276POPC   C1A 3678   1.646   2.207   4.553  0.1857 -0.2910  0.1177
  276POPC   D2A 3679   1.533   2.334   5.011  0.3016  0.1000  0.0986
  276POPC   C3A 3680   1.765   2.196   5.353 -0.1457 -0.1254 -0.3934
  276POPC   C4A 3681   1.796   2.174   5.843  0.0087 -0.3197 -0.1051
  276POPC   C1B 3682   2.031   2.335   4.743 -0.1702  0.2407 -0.2001
  276POPC   C2B 3683   2.181   2.394   5.137 -0.0932 -0.0099 -0.2532
  276POPC   C3B 3684   2.379   2.575   5.494  0.1165  0.1423 -0.0041
  276POPC   C4B 3685   2.638   2.568   5.876  0.0690  0.2633 -0.1030
  277POPC   NC3 3686   6.460   7.531   4.663  0.0418 -0.1326 -0.2525
  277POPC   PO4 3687   6.129   7.328   4.762 -0.1273 -0.0667  0.0596
  277POPC   GL1 3688   5.975   7.616   5.051  0.3647  0.1637  0.0707
  277POPC   GL2 3689   5.904   7.785   4.801  0.1619 -0.2094 -0.2064
  277POPC   C1A 3690   5.872   7.585   5.468  0.1203 -0.1061 -0.2712
  277POPC   D2A 3691   5.745   7.327   5.873  0.0432 -0.3163 -0.1743
  277POPC   C3A 3692   6.007   7.500   6.293  0.0742  0.1464 -0.0783
  277POPC   C4A 3693   6.343   7.484   6.595 -0.2401  0.1521 -0.0237
  277POPC   C1B 3694   5.652   8.056   5.096 -0.0700 -0.2584  0.2727
  277POPC   C2B 3695   5.551   8.045   5.440 -0.0128  0.2415 -0.2767
  277POPC   C3B 3696   5.498   7.797   5.792 -0.2196 -0.2529  0.0681
  277POPC   C4B 3697   5.465   7.627   6.237  0.2729 -0.0244 -0.1698
  278POPC   NC3 3698   0.734   3.306   4.174  0.2268  0.0072  0.3226
  278POPC   PO4 3699   1.205   3.368   4.216  0.0021  0.3146 -0.2093
  278POPC   GL1 3700   1.223   3.648   4.499 -0.2948  0.1320 -0.3303
  278POPC   GL2 3701   0.798   3.688   4.524  0.0934 -0.3066 -0.2001
  278POPC   C1A 3702   1.310   3.691   4.936 -0.3457 -0.2422 -0.0099
  278POPC   D2A 3703   1.323   3.918   5.377  0.1575 -0.0845  0.2061
  278POPC   C3A 3704   1.643   4.241   5.504 -0.0538  0.0671 -0.0382
  278POPC   C4A 3705   1.843   4.361   5.843 -0.0755 -0.1401  0.1096
  278POPC   C1B 3706   0.848   3.518   4.845  0.1004 -0.0847 -0.1448
  278POPC   C2B 3707   0.656   3.111   5.112 -0.0097  0.0520  0.2317
  278POPC   C3B 3708   0.744   2.739   5.437  0.2717 -0.0884  0.1945
  278POPC   C4B 3709   0.903   2.597   5.769 -0.1251  0.0856 -0.1336
  279POPC   NC3 3710   7.238   8.007   4.439  0.2442  0.1732  0.0879
  279POPC   PO4 3711   6.956   7.743   4.647  0.0621  0.0194  0.0031
  279POPC   GL1 3712   7.219   7.963   4.949 -0.0861 -0.0936  0.1090
  279POPC   GL2 3713   7.511   7.945   4.820  0.0003  0.0352 -0.0679
  279POPC   C1A 3714   7.342   8.041   5.452  0.2811 -0.0182 -0.1013
  279POPC   D2A 3715   7.407   8.067   5.875  0.0785  0.0334  0.4438
  279POPC   C3A 3716   7.474   7.656   6.070 -0.1633  0.1462 -0.2144
  279POPC   C4A 3717   7.655   7.218   6.121 -0.2027 -0.0340  0.2897
  279POPC   C1B 3718   7.363   8.420   5.014 -0.0960 -0.0799  0.3473
  279POPC   C2B 3719   7.327   8.551   5.422 -0.1245  0.1093  0.4032
  279POPC   C3B 3720   7.040   8.348   5.684 -0.1556 -0.1834 -0.2197
  279POPC   C4B 3721   6.892   8.383   5.911  0.0698  0.0627 -0.0038
  280POPC   NC3 3722   0.979   8.400   3.595  0.0127 -0.1408  0.1191
  280POPC   PO4 3723   0.996   8.594   3.963  0.0692 -0.1383  0.0544
  280POPC   GL1 3724   1.149   8.757   4.290 -0.1731 -0.0066 -0.2093
  280POPC   GL2 3725   1.341   8.607   4.422  0.1589  0.2126  0.0482
  280POPC   C1A 3726   1.004   8.909   4.711 -0.0532  0.0595  0.0799
  280POPC   D2A 3727   0.981   9.040   5.113 -0.0383  0.3119  0.0732
  280POPC   C3A 3728   0.541   8.845   5.239  0.0581  0.0645  0.3618
  280POPC   C4A 3729   0.161   8.686   5.454 -0.0278 -0.4183  0.0943
  280POPC   C1B 3730   1.405   8.525   4.888  0.0907 -0.0733 -0.1333
  280POPC   C2B 3731   1.486   8.531   5.275 -0.1067 -0.0466 -0.0541
  280POPC   C3B 3732   1.685   8.435   5.635  0.1711  0.0131 -0.3354
  280POPC   C4B 3733   2.157   8.227   5.614  0.1769 -0.0800  0.0443
  281POPC   NC3 3734   4.235   4.020   2.812 -0.0038  0.1583 -0.1803
  281POPC   PO4 3735   4.046   3.711   3.059  0.1095  0.0309  0.2325
  281POPC   GL1 3736   3.847   4.068   3.254 -0.2241  0.0105  0.0742
  281POPC   GL2 3737   3.785   3.851   3.524  0.0869 -0.2406  0.1797
  281POPC   C1A 3738   3.622   4.339   3.657 -0.0176  0.2061  0.0452
  281POPC   D2A 3739   3.244   4.173   3.903  0.0362  0.0445 -0.2438
  281POPC   C3A 3740   3.262   4.213   4.426  0.4032  0.0773  0.0387
  281POPC   C4A 3741   3.066   4.115   4.801 -0.4599  0.2087 -0.0062
  281POPC   C1B 3742   3.931   3.948   3.851 -0.0028 -0.0262 -0.1970
  281POPC   C2B 3743   4.118   3.718   4.129  0.1778 -0.0704  0.2824
  281POPC   C3B 3744   4.350   3.717   4.385 -0.4696 -0.1010  0.0341
  281POPC   C4B 3745   4.533   3.799   4.719 -0.0560 -0.1671 -0.0618
  282POPC   NC3 3746   7.596   0.283   4.224 -0.1904 -0.1128 -0.1321
  282POPC   PO4 3747   7.516  -0.146   4.343 -0.0136  0.2035  0.0470
  282POPC   GL1 3748   7.453   0.080   4.635  0.1780  0.0137 -0.1226
  282POPC   GL2 3749   7.697   0.363   4.743  0.0289  0.1560 -0.4589
  282POPC   C1A 3750   7.167   0.250   4.883  0.1768  0.0346  0.1594
  282POPC   D2A 3751   6.979   0.215   5.283  0.3234  0.0527 -0.2327
  282POPC   C3A 3752   7.127   0.382   5.591 -0.0330  0.1699  0.1286
  282POPC   C4A 3753   7.332   0.652   5.970  0.2935 -0.0273  0.2996
  282POPC   C1B 3754   7.508   0.310   5.250 -0.2397  0.0893 -0.1899
  282POPC   C2B 3755   7.577   0.269   5.787  0.2769 -0.1386  0.0320
  282POPC   C3B 3756   7.669   0.392   6.239  0.1844  0.0696 -0.2133
  282POPC   C4B 3757   7.974   0.662   6.371 -0.0947 -0.0429 -0.1698
  283POPC   NC3 3758   6.671   8.758   3.996  0.0441  0.0222  0.2664
  283POPC   PO4 3759   6.326   8.482   4.210  0.0467  0.2686 -0.0508
  283POPC   GL1 3760   6.239   8.407   4.600  0.1016 -0.1563 -0.3415
  283POPC   GL2 3761   5.995   8.265   4.652  0.0958  0.3665  0.1232
  283POPC   C1A 3762   6.435   8.723   5.003 -0.1671  0.1700  0.1711
  283POPC   D2A 3763   6.636   9.159   4.878 -0.1138 -0.0527 -0.1026
  283POPC   C3A 3764   6.330   9.427   5.121  0.1166  0.0700  0.4548
  283POPC   C4A 3765   6.155   9.824   5.250 -0.1178  0.0145 -0.2165
  283POPC   C1B 3766   5.984   8.599   4.964  0.0284  0.3653  0.0171
  283POPC   C2B 3767   6.001   8.586   5.369  0.2392  0.2665 -0.2190
  283POPC   C3B 3768   6.122   8.794   5.786 -0.2123 -0.1034  0.1099
  283POPC   C4B 3769   5.932   9.088   5.958 -0.1284  0.2960  0.2653
  284POPC   NC3 3770   0.058   0.997   4.028  0.2054  0.0696 -0.2987
  284POPC   PO4 3771   0.052   1.449   4.037  0.1915  0.0497  0.4032
  284POPC   GL1 3772   0.223   1.599   4.408  0.3195  0.3517 -0.1267
  284POPC   GL2 3773  -0.054   1.689   4.623  0.0328  0.0482  0.0928
  284POPC   C1A 3774   0.254   1.267   4.802 -0.0492  0.0352  0.3031
  284POPC   D2A 3775   0.219   0.999   5.140 -0.1056 -0.3728 -0.0066
  284POPC   C3A 3776   0.190   0.974   5.631  0.2763 -0.0592 -0.0500
  284POPC   C4A 3777   0.386   0.868   6.007  0.2203  0.0212 -0.3586
  284POPC   C1B 3778  -0.118   1.779   5.117  0.2317  0.4295  0.2182
  284POPC   C2B 3779  -0.054   1.543   5.568 -0.2285 -0.0560 -0.0762
  284POPC   C3B 3780   0.273   1.618   5.920 -0.2210  0.1329 -0.3388
  284POPC   C4B 3781   0.582   1.814   6.229  0.0719 -0.2211  0.0136
  285POPC   NC3 3782   4.429   0.375   4.358 -0.1461  0.3588 -0.2234
  285POPC   PO4 3783   4.056   0.514   4.242 -0.0170  0.1911 -0.0881
  285POPC   GL1 3784   4.121   0.610   4.704 -0.3031 -0.2003  0.0452
  285POPC   GL2 3785   4.299   0.447   4.864  0.1766 -0.1823  0.1599
  285POPC   C1A 3786   3.943   0.713   5.219  0.1914  0.1229  0.0193
  285POPC   D2A 3787   3.894   0.829   5.568 -0.1369  0.1237  0.0051
  285POPC   C3A 3788   3.550   0.803   5.874 -0.0540  0.1149  0.3071
  285POPC   C4A 3789   3.184   0.833   5.823  0.2613 -0.2005 -0.2210
  285POPC   C1B 3790   4.268   0.280   5.260 -0.1249  0.0001  0.0542
  285POPC   C2B 3791   4.031   0.295   5.676 -0.2877 -0.0005  0.3599
  285POPC   C3B 3792   4.009   0.603   6.039 -0.0159  0.3279  0.2931
  285POPC   C4B 3793   3.891   0.988   6.206 -0.1545 -0.0017 -0.2640
  286POPC   NC3 3794   5.572   5.424   3.803  0.0068  0.0810 -0.1222
  286POPC   PO4 3795   5.582   5.041   4.141  0.0535 -0.0553  0.2546
  286POPC   GL1 3796   5.499   4.735   4.389 -0.1912  0.0538  0.4679
  286POPC   GL2 3797   5.692   4.437   4.350 -0.1358  0.0382  0.1527
  286POPC   C1A 3798   5.460   4.516   4.819 -0.2474  0.0859  0.2839
  286POPC   D2A 3799   5.076   4.693   5.087 -0.3600 -0.0383  0.2025
  286POPC   C3A 3800   4.677   4.858   5.078 -0.1165 -0.0546 -0.0720
  286POPC   C4A 3801   4.363   5.271   5.149 -0.1973  0.1366  0.0077
  286POPC   C1B 3802   5.904   4.276   4.699  0.1890 -0.0519  0.1401
  286POPC   C2B 3803   6.150   4.224   4.963 -0.0545 -0.0471  0.0826
  286POPC   C3B 3804   6.121   4.134   5.488 -0.1479  0.0608  0.0460
  286POPC   C4B 3805   6.362   4.000   5.899  0.6542 -0.5633 -0.1044
  287W        W 3806   0.214   8.863  11.130 -0.2017 -0.1339 -0.0815
  288W        W 3807   7.149   5.435   3.477  0.0320 -0.1545 -0.1250
  289W        W 3808   6.411   8.099   0.893  0.0580  0.0404 -0.1271
  290W        W 3809   2.515   3.796   4.008  0.0418  0.3568 -0.1736
  291W        W 3810   6.888   0.192   2.095 -0.3651  0.2962  0.0420
  292W        W 3811   0.263   4.875   3.483  0.2660 -0.1603 -0.1902
  293W        W 3812   8.878   6.081   3.825  0.1382  0.0013 -0.0456
  294W        W 3813   3.544   7.977  11.500  0.0013  0.0322 -0.1894
  295W        W 3814   6.952   1.729   4.060  0.1700  0.0134  0.2217
  296W        W 3815   1.611   5.441  12.289  0.4721 -0.0574  0.0164
  297W        W 3816   3.417   5.083   2.725 -0.2880  0.0280  0.5297
  298W        W 3817   0.225   7.963   0.377  0.1143  0.1530  0.2045
  299W        W 3818   1.382   2.486   9.381  0.0542 -0.4011 -0.1662
  300W        W 3819   3.355   2.592   1.989  0.3263  0.2148  0.0254
  301W        W 3820   5.661   5.802   3.336  0.1796  0.1041  0.1072
  302W        W 3821   6.561   0.414   1.319  0.0987  0.1549  0.1368
  303W        W 3822   0.313   0.835   1.803 -0.1843  0.0378  0.2114
  304W        W 3823   1.834   8.392  10.928 -0.1397 -0.1784 -0.1817
  305W        W 3824   3.939   3.875   0.213 -0.0158 -0.3405  0.0679
  306W        W 3825   3.214   8.375   3.104 -0.0205 -0.0782  0.2146
  307W        W 3826   1.061   8.828   1.382  0.1311  0.2324 -0.2716
  308W        W 3827   1.893   8.827   0.807 -0.2149 -0.2260  0.0576
  309W        W 3828   6.621   2.000  11.692 -0.1922 -0.1407  0.1838
  310W        W 3829   1.652   3.516   9.155 -0.0409 -0.1792  0.1506
  311W        W 3830   6.835   2.555   2.109  0.1856  0.1841  0.3686
  312W        W 3831   3.064   3.747  12.357  0.0848 -0.0151  0.0728
  313W        W 3832   4.441   4.211  10.538  0.2515 -0.2251 -0.1396
  314W        W 3833   1.782   9.573  12.520  0.1957 -0.0361 -0.0535
  315W        W 3834   2.783   5.270  11.658 -0.1234  0.2848  0.1323
  316W        W 3835   3.765   3.327   2.912  0.0187  0.3010  0.2311
  317W        W 3836   7.802   3.612  11.231  0.2397 -0.1564  0.0145
  318W        W 3837   6.548   1.337   8.134 -0.0239  0.0497 -0.3042
  319W        W 3838   8.755   8.053   9.306  0.0011  0.0022 -0.0325
  320W        W 3839   8.732   0.544   3.356  0.0780 -0.0664 -0.2920
  321W        W 3840   0.004   8.427   8.324 -0.1195  0.0706  0.3022
  322W        W 3841   3.952   5.070   1.003  0.0306 -0.1959  0.0230
  323W        W 3842   4.569   7.458  10.723  0.0327  0.2295 -0.4908
  324W        W 3843   2.366   7.364   8.544  0.1235 -0.0692  0.1778
  325W        W 3844   2.771   5.237   9.729  0.0488  0.0092 -0.1230
  326W        W 3845   2.287   7.574   0.901 -0.3778  0.1182  0.2587
  327W        W 3846   8.423   0.255   7.713  0.1697  0.0843 -0.0982
  328W        W 3847   8.349   1.298   1.952  0.2681 -0.2266 -0.0224
  329W        W 3848   4.810   7.726   8.767  0.0204 -0.2066 -0.0782
  330W        W 3849   9.111   6.588   9.867  0.1084 -0.0842 -0.1394
  331W        W 3850   1.270   6.555  11.690 -0.2552  0.3742 -0.2309
  332W        W 3851   6.298   5.680  12.481 -0.0725  0.1034 -0.2029
  333W        W 3852   8.212   7.141   3.437  0.0093  0.0360 -0.0209
  334W        W 3853   4.885   2.808  12.266  0.2164  0.0391 -0.1273
  335W        W 3854   7.716   1.950   9.617  0.3968 -0.0701 -0.0816
  336W        W 3855   2.190   0.097  11.317  0.1641  0.0642  0.1158
  337W        W 3856   3.364   5.666  11.220  0.0145  0.0811  0.0373
  338W        W 3857   4.234   2.406   2.486 -0.1185 -0.1815  0.0237
  339W        W 3858   3.316   2.403   9.677 -0.0595  0.1204 -0.2741
  340W        W 3859   5.338   5.565  10.606 -0.1913  0.0430  0.1542
  341W        W 3860   7.972   4.867   3.006  0.0123 -0.1330  0.0317
  342W        W 3861   6.438   3.877   9.728 -0.4766 -0.0560  0.0701
  343W        W 3862   8.800   6.416   2.446  0.1696 -0.1541 -0.0903
  344W        W 3863   2.850   7.205  11.431 -0.1861 -0.0803  0.3783
  345W        W 3864   0.994   6.215  11.385 -0.2116  0.3499  0.0394
  346W        W 3865   0.366   5.089   0.840 -0.0471 -0.2122  0.0126
  347W        W 3866   0.983   3.522   3.780  0.2832  0.1666  0.2814
  348W        W 3867   3.238   0.683   0.214 -0.2434 -0.2307 -0.0731
  349W        W 3868   5.526   4.539   2.449  0.0233  0.1052 -0.1846
  350W        W 3869   2.506   0.309  10.142  0.0216 -0.1640  0.5950
  351W        W 3870   1.311   2.570   2.509 -0.1152 -0.3894 -0.2393
  352W        W 3871   9.487   8.836   0.539 -0.2075  0.2063  0.1129
  353W        W 3872   7.962   3.602   8.708  0.0143 -0.1201  0.0039
  354W        W 3873   6.382   9.589   4.071  0.0186  0.2327 -0.0455
  355W        W 3874   5.698   7.016  12.019 -0.2755 -0.1446 -0.0176
  356W        W 3875   8.037   7.469  12.207 -0.1515 -0.0754 -0.0948
  357W        W 3876   0.963   7.986   7.361 -0.2588 -0.0360 -0.3091
  358W        W 3877   5.945   2.394   1.842  0.1943  0.0035 -0.0549
  359W        W 3878   4.579   3.618   1.358 -0.1139  0.2188 -0.0429
  360W        W 3879   9.626   4.169  12.516 -0.4048  0.1697  0.0710
  361W        W 3880   6.455   3.225  10.964  0.0043 -0.0901  0.0546
  362W        W 3881   7.085   7.038   4.351 -0.1936 -0.1147 -0.1546
  363W        W 3882   8.361   7.672  10.095  0.1085 -0.2003  0.2590
  364W        W 3883   1.396   7.882  11.715  0.2061 -0.1591  0.2331
  365W        W 3884   4.325   1.099  10.274 -0.0208 -0.0219 -0.1075
  366W        W 3885   1.079   3.717   1.933 -0.0594 -0.0426  0.2134
  367W        W 3886   2.634   9.344  12.573 -0.1920 -0.3895  0.0412
  368W        W 3887   7.873   9.617   1.766  0.0784  0.0597  0.0461
  369W        W 3888   3.384   1.352   2.852 -0.0349 -0.0014  0.0202
  370W        W 3889   1.210   0.881  11.928  0.1236 -0.0694  0.0840
  371W        W 3890   8.814   3.158   9.783  0.1765  0.0441  0.0338
  372W        W 3891   2.070   0.503   3.463  0.1647 -0.3086  0.1049
  373W        W 3892   1.353   7.847   1.224  0.1954 -0.0011 -0.2596
  374W        W 3893   6.899   8.546   0.614 -0.0722  0.0988 -0.2456
  375W        W 3894   1.288   1.851   2.418 -0.0664 -0.0425 -0.0979
  376W        W 3895   2.572   4.501   0.503 -0.2422  0.3051  0.0908
  377W        W 3896   1.585   4.276   1.514  0.0618  0.0308  0.1910
  378W        W 3897   3.194   7.043   1.366 -0.2384 -0.1552 -0.0600
  379W        W 3898   5.326   3.010  12.244 -0.0224 -0.0261  0.1708
  380W        W 3899   2.718   6.144  12.467  0.5140  0.0762  0.1933
  381W        W 3900   1.597   7.444   3.132 -0.0055 -0.0943  0.0220
  382W        W 3901   9.518   8.415  11.846 -0.0571 -0.1104  0.1508
  383W        W 3902   2.195   1.093   7.913 -0.0971  0.1014  0.1087
  384W        W 3903   3.898   2.033   8.607 -0.4620  0.1819  0.1085
  385W        W 3904   6.560   4.905   1.002 -0.1446  0.0171 -0.2450
  386W        W 3905   8.930   6.077  10.665  0.1146  0.0146 -0.0154
  387W        W 3906   2.486   7.769   9.401  0.0001  0.1192  0.3166
  388W        W 3907   9.176   2.729  11.394  0.1885 -0.0263 -0.2219
  389W        W 3908   7.845   6.587  12.326 -0.1788 -0.0837 -0.3839
  390W        W 3909   3.195   3.200  11.902  0.5021  0.1697  0.4020
  391W        W 3910   1.364   6.731   2.957 -0.1881  0.2349 -0.2870
  392W        W 3911   7.343   6.461   4.396 -0.0786  0.1784  0.0347
  393W        W 3912   8.224   2.944  11.485 -0.2477 -0.0585  0.3093
  394W        W 3913   6.993   4.481  11.831  0.1565 -0.0163 -0.0848
  395W        W 3914   7.261   0.879   2.657 -0.0654  0.2031  0.1973
  396W        W 3915   7.884   7.578  11.249  0.0055  0.1023  0.0171
  397W        W 3916   2.111   1.427   0.359 -0.2639 -0.1881 -0.0451
  398W        W 3917   9.351   4.316   1.866  0.2173  0.2206 -0.0759
  399W        W 3918   1.295   3.258  12.182 -0.0188  0.1416 -0.1623
  400W        W 3919   7.071   4.503  10.816 -0.1990 -0.1352  0.1414
  401W        W 3920   7.095   3.387   2.788  0.1433 -0.0237 -0.0400
  402W        W 3921   9.494   8.850  10.278  0.0371  0.0374 -0.3055
  403W        W 3922   8.520   7.247  10.320 -0.2399  0.1092 -0.4366
  404W        W 3923   9.095   2.570  12.319 -0.3997 -0.1337 -0.1565
  405W        W 3924   0.864   4.739  10.128 -0.3128 -0.0045 -0.0099
  406W        W 3925   4.033   2.723  11.795  0.0779 -0.2766  0.2568
  407W        W 3926   8.890   0.521  12.002 -0.2666  0.3150  0.0055
  408W        W 3927   8.263   4.529  10.267  0.1216  0.1214 -0.1361
  409W        W 3928   7.180   3.256   8.296 -0.0673 -0.3545 -0.0120
  410W        W 3929   6.723   8.282   4.521  0.3095  0.2851  0.3017
  411W        W 3930   5.730   0.695   4.157  0.2475 -0.1116  0.0890
  412W        W 3931   4.587   2.730   9.578 -0.3344 -0.1121 -0.3161
  413W        W 3932   6.520   5.367   0.804  0.0288 -0.0005  0.0633
  414W        W 3933   3.520   7.709  10.421  0.0904 -0.3039 -0.3829
  415W        W 3934   8.408   6.329   1.403 -0.3708 -0.3241 -0.1215
  416W        W 3935   9.019   9.428   0.926  0.2417 -0.1281 -0.1235
  417W        W 3936   1.435   5.930  12.359  0.0194 -0.0769  0.1617
  418W        W 3937   0.906   4.852  11.234  0.2146  0.2083 -0.1171
  419W        W 3938   5.489   1.358  11.321  0.0634 -0.2442 -0.3060
  420W        W 3939   5.003   4.420   2.650 -0.3306  0.0233  0.2189
  421W        W 3940   6.254   1.201   1.116 -0.0391 -0.1232 -0.4090
  422W        W 3941   3.679   3.057  12.571 -0.2006  0.0729  0.0233
  423W        W 3942   1.326   6.077   9.019  0.0615  0.1261 -0.0718
  424W        W 3943   0.366   4.585   0.645  0.1425 -0.2990  0.0429
  425W        W 3944   8.668   4.172   9.000  0.0552  0.0193 -0.1240
  426W        W 3945   8.515   4.265   2.169 -0.1411  0.0574 -0.0610
  427W        W 3946   7.937   7.495   0.175  0.3806 -0.1535 -0.0670
  428W        W 3947   1.021   2.531   0.183  0.0110  0.2479  0.4574
  429W        W 3948   5.977   2.757   1.499  0.1647  0.2212  0.1929
  430W        W 3949   6.910   7.802   3.242  0.0671 -0.0701 -0.2345
  431W        W 3950   5.863   5.503  10.671 -0.2095  0.0128  0.0698
  432W        W 3951   0.654   2.188   9.862 -0.1453 -0.0779 -0.0149
  433W        W 3952   3.819   7.145  11.240 -0.0704  0.0819  0.0378
  434W        W 3953   0.830   6.212  10.379 -0.0638  0.2689 -0.0815
  435W        W 3954   2.701   5.549   2.790 -0.0022 -0.1979 -0.1131
  436W        W 3955   5.586   0.597   3.090 -0.3554 -0.2900  0.2181
  437W        W 3956   9.026   8.373   4.714  0.1809  0.0543  0.2303
  438W        W 3957   5.245   7.220   2.966  0.1504  0.1406 -0.0156
  439W        W 3958   2.915   0.210  11.898 -0.1273 -0.0362  0.1677
  440W        W 3959   0.783   5.026   2.599  0.1323 -0.0002  0.1421
  441W        W 3960   1.142   5.586   2.347  0.1302  0.1016  0.1790
  442W        W 3961   8.491   9.661   3.463  0.0350  0.3029 -0.0976
  443W        W 3962   8.156   6.563  11.058 -0.1154  0.0370  0.4493
  444W        W 3963   2.766   5.867   0.709 -0.0967 -0.1683  0.0653
  445W        W 3964   9.546   1.975   9.169 -0.0150 -0.3491 -0.0172
  446W        W 3965   5.022   2.031   2.276 -0.0329  0.0147 -0.2489
  447W        W 3966   8.329   7.953   9.600 -0.3210 -0.4013 -0.1631
  448W        W 3967   9.283   8.881   2.386 -0.1804 -0.1138  0.0198
  449W        W 3968   6.735   7.517  11.704  0.0230 -0.0388 -0.2277
  450W        W 3969   8.677   0.991   0.945 -0.1548  0.1344 -0.0070
  451W        W 3970   7.044   2.421   3.586 -0.0404 -0.2072 -0.0007
  452W        W 3971   2.690   5.908   1.821  0.0309  0.1395  0.2922
  453W        W 3972   8.865   6.289  11.662 -0.0548 -0.0901 -0.2512
  454W        W 3973   1.575   0.225  10.382 -0.0356 -0.0563 -0.0625
  455W        W 3974   1.403   0.237  12.485  0.0632  0.1491 -0.0959
  456W        W 3975   8.528   5.478   2.999  0.1737 -0.0616 -0.1592
  457W        W 3976   0.170   6.000   9.450 -0.2137 -0.2592  0.2492
  458W        W 3977   1.601   8.416   0.675  0.2407  0.0274 -0.1044
  459W        W 3978   8.630   7.928   0.182 -0.0204  0.2415  0.3022
  460W        W 3979   5.413   7.863  11.234 -0.1056  0.2772  0.1178
  461W        W 3980   9.417   8.445  10.704  0.2893  0.2305  0.0429
  462W        W 3981   0.874   0.576  12.157 -0.0202  0.1225 -0.1529
  463W        W 3982   1.375   7.752  10.176 -0.2221 -0.0631  0.0926
  464W        W 3983   0.735   8.375   9.925 -0.1720  0.1759  0.2527
  465W        W 3984   6.872   3.319   1.262 -0.0554 -0.0749 -0.2072
  466W        W 3985   8.216   4.635   2.032 -0.1729  0.0451 -0.1209
  467W        W 3986   7.771   9.230   2.222 -0.0683  0.1243 -0.1123
  468W        W 3987   0.554   8.109  10.635  0.0266  0.5138 -0.0654
  469W        W 3988   4.256   0.157   8.915 -0.2735 -0.2074  0.3348
  470W        W 3989   2.017   3.306  11.745  0.1307  0.1199 -0.1417
  471W        W 3990   3.203   6.519   3.165 -0.4226  0.3598  0.1318
  472W        W 3991   9.406   1.131   3.139  0.1542  0.1509  0.1379
  473W        W 3992   1.494   8.327  11.894  0.0453 -0.3063 -0.0517
  474W        W 3993   2.704   6.900   1.571 -0.1629 -0.0508  0.2074
  475W        W 3994   8.932   7.317   0.621  0.0081  0.0481 -0.2336
  476W        W 3995   4.934   2.906   9.241  0.2184 -0.0189  0.0897
  477W        W 3996   9.190   4.830   3.662 -0.1052 -0.0127  0.2711
  478W        W 3997   2.897   2.527   0.398  0.0689  0.0588 -0.1389
  479W        W 3998   1.051   1.610   8.916 -0.1676  0.2562  0.1924
  480W        W 3999   1.501   8.360   9.627 -0.0477  0.0740 -0.0429
  481W        W 4000   7.329   3.444  12.549  0.1718 -0.0503  0.0982
  482W        W 4001   2.724   0.807   3.990  0.2200  0.2298 -0.0805
  483W        W 4002   1.020   0.287   9.908 -0.1718 -0.1527  0.2505
  484W        W 4003   7.973   5.245   1.717  0.0820 -0.2629 -0.2472
  485W        W 4004   3.119   2.838   9.559  0.4676  0.2490  0.3532
  486W        W 4005   3.478   1.811   9.065  0.1252  0.0238 -0.1962
  487W        W 4006   5.154   7.035  11.889 -0.0764  0.0486 -0.4576
  488W        W 4007   6.988   3.444   8.751 -0.0172  0.2795 -0.1585
  489W        W 4008   7.581   6.204   9.885 -0.1807  0.1712 -0.1271
  490W        W 4009   3.323   0.637  10.712  0.5281  0.3803  0.0980
  491W        W 4010   0.494   0.949   9.038  0.1602  0.2618 -0.2415
  492W        W 4011   9.544   2.638  11.091 -0.0885 -0.1934  0.0952
  493W        W 4012   0.283   5.797  10.939  0.1769 -0.1071 -0.2367
  494W        W 4013   9.199   0.661   3.311 -0.1411  0.0124 -0.0690
  495W        W 4014   3.260   6.610   9.457  0.1510  0.3850 -0.2798
  496W        W 4015   9.433   8.970  10.824  0.1840  0.0081 -0.0116
  497W        W 4016   0.950   3.670   3.270  0.0653 -0.0402 -0.2599
  498W        W 4017   7.499   7.536   9.777 -0.2403  0.1519  0.2600
  499W        W 4018   8.026   4.644  12.556  0.1777 -0.1356 -0.5148
  500W        W 4019   6.831   1.049   2.899  0.1761 -0.0639 -0.1433
  501W        W 4020   5.520   5.027  10.015  0.0384 -0.0336 -0.1071
  502W        W 4021   5.253   8.168   9.425 -0.0518 -0.0263  0.2502
  503W        W 4022   1.137   5.347   1.091 -0.2579  0.1186  0.1341
  504W        W 4023   7.684   3.913   9.138 -0.1325 -0.0504  0.2157
  505W        W 4024   8.599   2.990   0.719 -0.2740 -0.0771 -0.2480
  506W        W 4025   4.654   1.213   2.280 -0.2769 -0.1937  0.0632
  507W        W 4026   2.401   7.945   3.867 -0.4575  0.1206 -0.0138
  508W        W 4027   7.472   3.276   9.552  0.0551 -0.3614  0.2280
  509W        W 4028   9.291   5.424   0.954  0.1811  0.4010  0.0480
  510W        W 4029   1.976   5.453   3.018 -0.0653 -0.0324 -0.0587
  511W        W 4030   7.687   5.711   8.523  0.0227  0.1799  0.3094
  512W        W 4031   6.920   8.788   4.453  0.4014  0.1146 -0.0582
  513W        W 4032   3.915   4.375   0.294  0.3311 -0.4673 -0.0468
  514W        W 4033   3.649   4.827   3.667  0.2102 -0.0014  0.3752
  515W        W 4034   6.944   1.216  11.772  0.1242  0.2091  0.0643
  516W        W 4035   8.168   8.734  11.912 -0.0592 -0.2614 -0.1072
  517W        W 4036   1.632   7.700   0.080 -0.1258  0.0682  0.3036
  518W        W 4037   3.442   4.749   0.517  0.0086  0.0491 -0.2688
  519W        W 4038   2.806   0.664   0.359  0.0823 -0.0732 -0.2056
  520W        W 4039   7.900   5.451   9.146 -0.3034 -0.0710 -0.1666
  521W        W 4040   2.690   9.285   1.540 -0.3065  0.0522  0.0354
  522W        W 4041   0.867   2.234  11.160 -0.1971  0.3066 -0.0862
  523W        W 4042   6.830   8.028   1.727 -0.2603 -0.0204 -0.1887
  524W        W 4043   0.424   2.107   3.946  0.1028  0.0394  0.2075
  525W        W 4044   0.328   4.136  12.212  0.1945 -0.0957  0.1725
  526W        W 4045   6.736   8.520   0.130 -0.1306 -0.0091  0.2425
  527W        W 4046   7.721   3.162  12.478  0.1524  0.1713 -0.0832
  528W        W 4047   0.913   8.467   0.011  0.0502  0.2452 -0.0678
  529W        W 4048   3.670   5.960   1.956 -0.0732  0.0194 -0.0367
  530W        W 4049   6.082   8.980  10.097  0.0924 -0.2370  0.1069
  531W        W 4050   3.570   7.878   9.055 -0.0045 -0.0932  0.0449
  532W        W 4051   1.930   9.240   9.728  0.0677  0.1878 -0.0872
  533W        W 4052   7.655   0.874   2.207 -0.0645  0.2038  0.0751
  534W        W 4053   7.458   2.892   0.711  0.0763  0.0849  0.1558
  535W        W 4054   8.082   5.134  12.400 -0.0586  0.0173  0.0998
  536W        W 4055   9.388   7.169   2.759 -0.1853 -0.0216 -0.0086
  537W        W 4056   1.512   4.606   9.400  0.0463 -0.4510  0.0523
  538W        W 4057   2.519   0.642   8.457  0.0033  0.1858  0.0927
  539W        W 4058   4.026   5.358  12.506  0.0438  0.1532  0.0515
  540W        W 4059   2.422   0.956   1.388 -0.1805 -0.0885 -0.1974
  541W        W 4060   1.385   9.575   7.812 -0.2553 -0.2220 -0.0368
  542W        W 4061   8.161   7.294   4.109 -0.1267  0.0906  0.2773
  543W        W 4062   4.088   8.049   3.444 -0.2768 -0.1364  0.1979
  544W        W 4063   4.281   4.829   1.307  0.0999  0.6072 -0.1627
  545W        W 4064   9.519   0.559   1.006 -0.1771 -0.0036 -0.1925
  546W        W 4065   1.241   8.847   7.639  0.0832 -0.1182 -0.2629
  547W        W 4066   8.264   5.149  10.972 -0.0888 -0.3568 -0.1906
  548W        W 4067   2.760   8.017  10.754 -0.3496  0.1033 -0.2095
  549W        W 4068   6.224   9.357   2.335  0.0135 -0.5518 -0.0519
  550W        W 4069   8.991   3.019  12.570  0.2134  0.1137 -0.0871
  551W        W 4070   7.848   1.107  10.427 -0.0123  0.2081  0.0729
  552W        W 4071   1.521   8.479   3.652 -0.0830  0.0471  0.0040
  553W        W 4072   7.961   9.661   8.844 -0.1822  0.2144  0.1354
  554W        W 4073   0.470   8.726   1.506  0.0819  0.2984  0.0787
  555W        W 4074   1.308   0.933   8.056  0.1836  0.2131  0.0255
  556W        W 4075   8.249   2.501  10.011 -0.1739 -0.1820 -0.0217
  557W        W 4076   5.478   3.784  12.293  0.2256  0.0226  0.2186
  558W        W 4077   4.992   3.707  12.372 -0.1989 -0.1341 -0.0387
  559W        W 4078   3.022   0.633   9.716 -0.1367 -0.1354  0.0856
  560W        W 4079   4.616   0.173  11.005 -0.4122  0.3440 -0.2211
  561W        W 4080   7.950   7.891   9.885 -0.1587  0.0429  0.1157
  562W        W 4081   4.002   3.478  12.490 -0.2258 -0.3380 -0.1388
  563W        W 4082   6.585   4.476   2.825 -0.1134 -0.3227 -0.0984
  564W        W 4083   5.471   0.054   2.070 -0.0606 -0.0931 -0.2415
  565W        W 4084   1.840   0.498   9.275 -0.2226  0.1471  0.0551
  566W        W 4085   4.158   3.822   2.299  0.2313  0.0144  0.1952
  567W        W 4086   1.857   3.210   2.921 -0.0922 -0.1554  0.1457
  568W        W 4087   6.475   8.803   3.526  0.0478 -0.0777 -0.2499
  569W        W 4088   5.079   2.573   2.248  0.4006 -0.0169  0.0585
  570W        W 4089   9.114   2.989  11.007 -0.0745  0.2441 -0.0984
  571W        W 4090   1.004   3.507  10.446  0.0426 -0.1409  0.0983
  572W        W 4091   0.175   0.378   1.955 -0.0563 -0.1403 -0.0757
  573W        W 4092   1.528   8.948  10.377 -0.1957 -0.2948  0.1080
  574W        W 4093   9.321   5.832   2.595  0.1419  0.2503  0.1721
  575W        W 4094   7.110   5.046  10.633  0.2102  0.0753 -0.1188
  576W        W 4095   3.224   5.286   1.383 -0.1891  0.2377  0.0655
  577W        W 4096   0.673   6.523   7.755  0.3523  0.2320  0.0265
  578W        W 4097   6.273   6.621  11.405 -0.2603 -0.1391 -0.1772
  579W        W 4098   9.526   5.631   3.448  0.2399  0.1184  0.1507
  580W        W 4099   8.271   1.038   4.168  0.2981 -0.0478 -0.1042
  581W        W 4100   4.804   4.789   0.607 -0.1675  0.2855  0.0088
  582W        W 4101   5.117   9.442  12.074  0.0985 -0.1134 -0.2259
  583W        W 4102   4.816   5.962   3.189  0.0880 -0.3465  0.0522
  584W        W 4103   5.441   8.293   1.338 -0.0139  0.0989  0.1600
  585W        W 4104   3.388   2.182   8.764 -0.5956  0.0824  0.1883
  586W        W 4105   8.743   8.359  11.595 -0.1725  0.3295  0.2501
  587W        W 4106   1.927   2.120  11.603 -0.2488  0.1873  0.2321
  588W        W 4107   7.735   1.845   0.682 -0.1778 -0.2160  0.0317
  589W        W 4108   3.716   8.851   1.763  0.3407  0.3049 -0.2586
  590W        W 4109   1.048   1.615   1.981 -0.1361  0.2078 -0.2038
  591W        W 4110   4.106   6.104   2.934 -0.1719  0.1830  0.0736
  592W        W 4111   7.503   2.641  12.354 -0.0692  0.0499 -0.2211
  593W        W 4112   6.938   8.361   9.082  0.4409 -0.0242 -0.0834
  594W        W 4113   7.860   3.605   0.103  0.1945 -0.1729  0.1797
  595W        W 4114   0.247   9.318   9.071  0.0483  0.2095 -0.2490
  596W        W 4115   5.923   1.271   0.255  0.0406 -0.3460 -0.0198
  597W        W 4116   8.807   8.232   2.238  0.0622  0.0063  0.1529
  598W        W 4117   0.052   3.558   3.538 -0.0439 -0.2436  0.0877
  599W        W 4118   8.275   3.448  10.267  0.2209  0.0114  0.1172
  600W        W 4119   4.214   4.815   2.666  0.2162 -0.1824 -0.3294
  601W        W 4120   1.327   2.257   0.674 -0.0161 -0.1344 -0.3253
  602W        W 4121   0.156   5.997   3.296 -0.0803 -0.2411  0.0755
  603W        W 4122   4.398   8.675   3.728 -0.2082 -0.0494 -0.0061
  604W        W 4123   3.214   4.904   2.284 -0.1588  0.3309  0.0314
  605W        W 4124   1.073   6.796  10.727 -0.2436 -0.1876 -0.1989
  606W        W 4125   0.814   4.555   0.958 -0.1075 -0.2396 -0.0133
  607W        W 4126   5.545   5.353   0.441  0.1087 -0.1162 -0.2216
  608W        W 4127   0.338   3.877   8.839 -0.2346 -0.0838  0.2211
  609W        W 4128   6.560   4.958   1.894 -0.1654  0.1159  0.0622
  610W        W 4129   8.570   0.934  11.378 -0.0903 -0.0208  0.0358
  611W        W 4130   1.712   8.757   2.906 -0.0043 -0.0389  0.2243
  612W        W 4131   2.758   8.811   2.365 -0.0679  0.4635 -0.4187
  613W        W 4132   6.122   1.949   8.567  0.0082 -0.1809 -0.2514
  614W        W 4133   4.275   9.129   1.533  0.2492 -0.2965  0.2352
  615W        W 4134   7.216   5.594   8.455  0.0817 -0.3053 -0.0155
  616W        W 4135   4.475   7.992  10.937  0.1719 -0.1704 -0.5189
  617W        W 4136   2.102   7.618   9.009 -0.2769 -0.2203 -0.2252
  618W        W 4137   1.560   0.226   0.915  0.1699 -0.0070 -0.0907
  619W        W 4138   3.556   0.349   4.405 -0.0873 -0.2704  0.1156
  620W        W 4139   9.189   7.660   2.871 -0.1150  0.1966  0.1550
  621W        W 4140   4.618   7.040   9.741  0.0242 -0.1463 -0.1364
  622W        W 4141   9.183   5.144   1.383 -0.0547 -0.2030 -0.2689
  623W        W 4142   8.188   2.762  11.009  0.0513  0.1214  0.0556
  624W        W 4143   6.738   1.725   1.712  0.1417  0.7159  0.0447
  625W        W 4144   9.649   5.523   9.220  0.0854  0.0505 -0.4369
  626W        W 4145   2.127   1.061   2.269 -0.1950 -0.2284  0.0773
  627W        W 4146   6.072   2.345  10.750 -0.2530 -0.3032  0.1168
  628W        W 4147   6.968   7.571   9.906  0.0287  0.5117  0.1715
  629W        W 4148   0.615   5.067   3.179  0.0460  0.3895  0.0248
  630W        W 4149   1.029   8.573  12.107  0.1839  0.1710 -0.2286
  631W        W 4150   9.296   0.176  10.172  0.0053  0.4299  0.0330
  632W        W 4151   3.731   2.235  10.663  0.0241  0.0902 -0.1143
  633W        W 4152   0.054   6.446   1.488  0.0363 -0.0078 -0.1061
  634W        W 4153   6.312   8.954   9.174  0.1274  0.1378 -0.2791
  635W        W 4154   7.288   9.025   9.610 -0.0772  0.2478 -0.0475
  636W        W 4155   1.561   2.181   2.670  0.2126 -0.2288  0.0330
  637W        W 4156   9.051   4.135  11.927  0.2058 -0.0974  0.0549
  638W        W 4157   7.506   0.670  10.544 -0.0993  0.0931 -0.0603
  639W        W 4158   7.023   9.094   3.058 -0.0607 -0.3246 -0.0527
  640W        W 4159   8.549   7.192  10.849  0.0106 -0.0960  0.1194
  641W        W 4160   0.905   7.691  10.907 -0.0634  0.2144 -0.1544
  642W        W 4161   8.137   5.408   3.750 -0.2676 -0.3265  0.1731
  643W        W 4162   1.870   5.505   9.139 -0.2187  0.0108  0.2424
  644W        W 4163   4.326   1.322   3.275 -0.0117  0.1241 -0.0968
  645W        W 4164   9.628   9.300   4.069 -0.1829 -0.0048  0.1195
  646W        W 4165   8.146   2.082  12.119 -0.0961 -0.0241  0.3478
  647W        W 4166   4.476   3.991   0.923 -0.0479  0.0347  0.0297
  648W        W 4167   8.157   0.636   1.351 -0.0591 -0.0079  0.1060
  649W        W 4168   7.925   2.248   3.574 -0.0471  0.0434 -0.2930
  650W        W 4169   8.132   1.692   3.067 -0.0245  0.0737 -0.2817
  651W        W 4170   8.795   2.940   2.907  0.1336 -0.0724 -0.1076
  652W        W 4171   1.876   7.963   0.643  0.0875 -0.0723 -0.0170
  653W        W 4172   9.117   8.530   3.190 -0.1077  0.1410 -0.0625
  654W        W 4173   2.011   9.675   9.074  0.0242  0.0008  0.2719
  655W        W 4174   6.768   0.925   1.298  0.2792  0.0611 -0.3118
  656W        W 4175   0.848   8.660   8.568  0.2934 -0.0868  0.0367
  657W        W 4176   6.893   2.688  10.835 -0.0904 -0.0967 -0.2302
  658W        W 4177   0.827   9.474   0.515 -0.3419  0.3226  0.2226
  659W        W 4178   5.996   7.339   0.397 -0.2138 -0.0603 -0.0059
  660W        W 4179   1.611   4.856   2.194 -0.0374  0.2304 -0.1886
  661W        W 4180   5.059   6.797   2.234  0.0100 -0.1276 -0.0630
  662W        W 4181   6.458   6.607   3.096  0.1941 -0.0653 -0.2157
  663W        W 4182   2.785   1.564   1.699 -0.0242 -0.0985  0.0048
  664W        W 4183   0.122   7.534   0.704  0.1221 -0.0126 -0.2283
  665W        W 4184   7.346   5.484   2.221 -0.0634 -0.0122  0.0531
  666W        W 4185   1.259   4.207   8.999 -0.0238  0.0043 -0.2090
  667W        W 4186   5.494   6.503  10.694  0.0197  0.1391  0.0593
  668W        W 4187   3.045   2.073   9.190  0.0571 -0.0834 -0.2063
  669W        W 4188   1.857   8.465   9.191 -0.0333  0.2647 -0.0428
  670W        W 4189   2.478   9.596   0.538 -0.4009 -0.2100  0.0647
  671W        W 4190   7.692   7.629   4.376  0.0368  0.0768  0.0775
  672W        W 4191   6.597   4.302   9.291  0.1707  0.2234 -0.0204
  673W        W 4192   7.192   5.187   5.227 -0.0433  0.2892  0.1459
  674W        W 4193   8.493   6.989  11.795 -0.1965  0.1802  0.3257
  675W        W 4194   7.841   7.173   1.565 -0.0795 -0.0268  0.4023
  676W        W 4195   7.146   0.917  12.297  0.0206  0.3767  0.1119
  677W        W 4196   3.190   0.144   0.320 -0.0928  0.2029 -0.3345
  678W        W 4197   7.801   1.062   9.655  0.3100 -0.3283  0.0128
  679W        W 4198   3.528   0.548  10.180 -0.0141  0.1593  0.0556
  680W        W 4199   6.828   6.633   2.443  0.0085 -0.2469  0.1559
  681W        W 4200   8.932   9.259   8.408 -0.0110 -0.2282  0.2191
  682W        W 4201   4.564   1.521  12.091  0.3205  0.1461  0.2421
  683W        W 4202   8.279   2.213   1.808  0.0343 -0.0262  0.0396
  684W        W 4203   4.494   1.565  10.569 -0.1777 -0.1437  0.1518
  685W        W 4204   0.248   5.478  11.436  0.0686  0.1801 -0.1302
  686W        W 4205   2.653   2.964   9.401  0.0355  0.1350  0.0862
  687W        W 4206   2.895   9.329  10.742 -0.0300  0.4101  0.2227
  688W        W 4207   2.286   5.938   8.723  0.0196 -0.1522  0.2420
  689W        W 4208   8.448   5.269   9.755  0.1446 -0.5462  0.1562
  690W        W 4209   3.441   1.122  11.270  0.0508 -0.1965 -0.2752
  691W        W 4210   1.919   0.909   0.169 -0.0780  0.2974 -0.3355
  692W        W 4211   4.896   1.185  10.542 -0.1452 -0.3878  0.1045
  693W        W 4212   8.962   6.010  10.072 -0.1489 -0.1963 -0.1397
  694W        W 4213   3.870   4.330  12.382 -0.0595  0.0237  0.0806
  695W        W 4214   2.477   5.008   8.859  0.0513 -0.0379 -0.3708
  696W        W 4215   4.874   0.369   4.539  0.1467 -0.1268 -0.0040
  697W        W 4216   6.615   4.708   1.472  0.0780 -0.1563  0.0534
  698W        W 4217   3.384   8.807   2.181  0.0336  0.0222  0.0869
  699W        W 4218   4.856   5.714   1.034  0.3787 -0.1008 -0.3385
  700W        W 4219   3.609   7.699   0.056 -0.2899 -0.1028  0.2413
  701W        W 4220   2.361   4.346  12.499  0.1700  0.0463  0.0100
  702W        W 4221   2.785   3.615   1.309 -0.1446 -0.1051 -0.0946
  703W        W 4222   3.948   7.859   2.599  0.0047 -0.0806 -0.1318
  704W        W 4223   9.419   4.715   8.840 -0.0424  0.2570  0.1476
  705W        W 4224   5.962   1.466   8.841 -0.3018 -0.1400 -0.0577
  706W        W 4225   3.006   7.324   8.070 -0.0282 -0.0325  0.1018
  707W        W 4226   9.619   8.024   2.178 -0.0520  0.2329  0.0828
  708W        W 4227   2.944   8.529  10.664 -0.1637  0.0209 -0.4233
  709W        W 4228   7.516   9.213  10.628  0.0834 -0.0191 -0.2236
  710W        W 4229   0.243   3.952   3.718  0.1632  0.1187  0.2458
  711W        W 4230   9.266   9.010   3.425  0.0075 -0.0987  0.1367
  712W        W 4231   1.361   0.132   3.852  0.0990 -0.1552 -0.1893
  713W        W 4232   0.456   5.890  10.466 -0.0590 -0.3637  0.2488
  714W        W 4233   3.992   8.472  12.089 -0.5708 -0.2498  0.2151
  715W        W 4234   1.148   2.040   2.904 -0.0874 -0.1976 -0.0628
  716W        W 4235   5.534   4.080   3.878  0.0235 -0.0651  0.3160
  717W        W 4236   5.446   9.502   9.669 -0.1409 -0.1384 -0.0283
  718W        W 4237   3.987   3.561   9.892  0.1473  0.0002 -0.0766
  719W        W 4238   6.600   5.377  11.729 -0.1808  0.0647  0.2250
  720W        W 4239   2.091   6.922   9.669 -0.2843  0.1664  0.0312
  721W        W 4240   4.771   0.153   7.470  0.0100 -0.1641 -0.1182
  722W        W 4241   3.860   8.963   8.793  0.0719 -0.2418  0.1606
  723W        W 4242   9.238   2.229  11.017  0.2679  0.3324 -0.0245
  724W        W 4243   1.679   9.023   0.175 -0.2317  0.1888  0.0042
  725W        W 4244   0.751   4.059   0.203  0.4549 -0.2078 -0.0028
  726W        W 4245   2.066   3.966   0.734 -0.3454  0.0574 -0.0066
  727W        W 4246   5.401   8.986   0.328  0.0446 -0.2877  0.0854
  728W        W 4247   8.216   7.531  11.576  0.2641 -0.0500 -0.0378
  729W        W 4248   7.922   5.932   3.669  0.4774  0.1805 -0.0289
  730W        W 4249   7.565   0.272   1.182  0.1159 -0.0955  0.0030
  731W        W 4250   5.334   3.490   0.145 -0.4706  0.0497 -0.0873
  732W        W 4251   1.022   7.792   2.883 -0.1775  0.1153  0.0737
  733W        W 4252   2.028   1.493   2.016  0.2355  0.0861  0.0710
  734W        W 4253   0.606   9.149   8.757 -0.0288  0.0312  0.0223
  735W        W 4254   4.946   8.045  11.449 -0.1785  0.0140 -0.1423
  736W        W 4255   3.910   9.508   8.938 -0.0849 -0.0355 -0.3009
  737W        W 4256   3.944   2.342   2.066 -0.0292  0.1464 -0.2294
  738W        W 4257   7.919   2.237   0.366  0.1216  0.1630  0.1218
  739W        W 4258   3.452   2.229   0.063 -0.0597 -0.0234 -0.0607
  740W        W 4259   2.281   9.061   3.245  0.0289 -0.2960  0.0867
  741W        W 4260   9.042   6.368   3.325 -0.0277 -0.0043 -0.1439
  742W        W 4261   1.386   7.302   1.016  0.0201 -0.0915  0.1375
  743W        W 4262   6.156   4.440   8.380 -0.0865  0.2180  0.1081
  744W        W 4263   0.463   8.346   0.141 -0.1625  0.0315  0.1312
  745W        W 4264   7.672   5.749  11.645  0.3080 -0.0438  0.1707
  746W        W 4265   0.547   2.448   8.753 -0.0175  0.2252 -0.0122
  747W        W 4266   9.523   3.649  10.249  0.0676  0.2123  0.1157
  748W        W 4267   9.342   5.505   1.630  0.0135  0.1742 -0.1079
  749W        W 4268   9.142   3.514   0.145 -0.0102 -0.1447  0.1588
  750W        W 4269   9.580   0.935  12.572  0.0988  0.4703  0.1959
  751W        W 4270   4.141   1.602  10.205 -0.0182  0.4317 -0.2114
  752W        W 4271   9.126   3.921   9.384  0.0193  0.1911  0.1976
  753W        W 4272   6.852   3.018  11.234  0.1067  0.0300 -0.0140
  754W        W 4273   8.060   8.806  10.718  0.3212 -0.1125 -0.2803
  755W        W 4274   9.428   2.801   7.636 -0.1771 -0.0792  0.2033
  756W        W 4275   0.634   6.020   9.959 -0.1147  0.1479  0.1646
  757W        W 4276   7.792   4.392  10.728 -0.0196  0.2482  0.1829
  758W        W 4277   2.096   5.568  12.010 -0.2179 -0.0159 -0.1800
  759W        W 4278   1.171   7.505   7.746 -0.2724  0.2649  0.3046
  760W        W 4279   6.931   5.255   2.488 -0.2488 -0.0722  0.0435
  761W        W 4280   8.162   0.136  11.141 -0.1119 -0.2407 -0.0844
  762W        W 4281   2.562   1.316  10.781  0.3973 -0.1231  0.2267
  763W        W 4282   1.482   1.765   1.170  0.0709 -0.2685  0.2392
  764W        W 4283   1.038   6.530   8.816 -0.0485 -0.3126 -0.0684
  765W        W 4284   6.002   5.805   4.034  0.0939  0.0462  0.1138
  766W        W 4285   1.555   5.539   0.880  0.0914 -0.0024  0.0193
  767W        W 4286   5.576   6.620   4.202 -0.0868 -0.0410 -0.2435
  768W        W 4287   7.468   1.539   1.473 -0.0630  0.1005  0.0476
  769W        W 4288   3.262   1.044   0.585 -0.1415  0.4114  0.0335
  770W        W 4289   7.704   7.910   8.427 -0.1423  0.0175 -0.0489
  771W        W 4290   8.749   4.280   0.531 -0.0277 -0.0878 -0.1628
  772W        W 4291   5.704   3.661   8.744 -0.0207  0.1481  0.0423
  773W        W 4292   6.897   6.497   0.154 -0.1524 -0.1821 -0.0876
  774W        W 4293   2.273   5.307  11.583 -0.1218  0.5075 -0.0909
  775W        W 4294   7.674   8.287   0.508 -0.1193 -0.0806  0.0339
  776W        W 4295   6.274   0.647   1.010  0.3727 -0.3907 -0.0640
  777W        W 4296   2.486   7.170   7.996 -0.1271  0.1337 -0.0051
  778W        W 4297   7.244   8.394   0.254 -0.2582  0.0852 -0.1402
  779W        W 4298   9.690   4.608   3.125 -0.0314 -0.0462  0.0735
  780W        W 4299   1.857   0.280  10.016  0.0283 -0.0513  0.3990
  781W        W 4300   5.363   0.147  11.761 -0.0625  0.2244 -0.2867
  782W        W 4301   3.082   2.519   2.707  0.1755 -0.2130 -0.0150
  783W        W 4302   1.166   6.718   3.776  0.2005  0.1788  0.0135
  784W        W 4303   4.566   1.561   1.353 -0.2736  0.1391  0.1654
  785W        W 4304   0.557   1.305  12.096  0.2584  0.0429  0.0054
  786W        W 4305   1.442   5.167  10.955  0.1918  0.2437  0.2550
  787W        W 4306   6.605   8.995   0.047  0.1089 -0.2739 -0.2026
  788W        W 4307   1.367   7.418   2.086 -0.0487 -0.0279 -0.1997
  789W        W 4308   3.570   9.072   7.814 -0.3728  0.1451 -0.0181
  790W        W 4309   6.999   6.949  11.922 -0.2826 -0.2319  0.0035
  791W        W 4310   2.597   4.515  10.978  0.0201 -0.2038 -0.2100
  792W        W 4311   0.389   0.666   9.933 -0.1233  0.1364 -0.0474
  793W        W 4312   7.620   0.314   8.281  0.0532 -0.2239 -0.0474
  794W        W 4313   8.260   6.349   2.737  0.1605  0.1676  0.2406
  795W        W 4314   6.568   2.954  10.229  0.3107  0.0968  0.0958
  796W        W 4315   3.897   5.886  11.825  0.0769  0.0814 -0.0292
  797W        W 4316   7.580   7.673  10.291 -0.1080  0.2573 -0.0999
  798W        W 4317   3.628   0.596   7.878  0.1372  0.0462 -0.2861
  799W        W 4318   2.122   6.248   3.021 -0.0748 -0.1419 -0.2635
  800W        W 4319   2.645   8.534   3.751 -0.0708 -0.3865 -0.4518
  801W        W 4320   5.416   5.813   1.160 -0.2323  0.2952  0.0067
  802W        W 4321   3.271   1.027  12.357 -0.1907  0.3021 -0.0478
  803W        W 4322   2.360   4.848  12.365 -0.0615  0.2661  0.2011
  804W        W 4323   4.346   5.067   1.859 -0.2796  0.0956 -0.2829
  805W        W 4324   6.592   9.558  12.082  0.0903 -0.2661  0.0346
  806W        W 4325   6.481   2.977  12.010  0.0886  0.0717  0.0160
  807W        W 4326   5.642   3.587   1.512  0.3586 -0.0086  0.1270
  808W        W 4327   1.775   2.567  10.257 -0.0632  0.0794 -0.2158
  809W        W 4328   0.059   5.878   0.784 -0.0785 -0.0107  0.3709
  810W        W 4329   8.973   5.098   2.550 -0.2434  0.2560  0.0265
  811W        W 4330   6.043   5.266   4.061  0.1485 -0.1956 -0.1651
  812W        W 4331   8.446   3.711  11.330  0.1689 -0.3463  0.1690
  813W        W 4332   4.983   0.045   1.375  0.1739  0.0020  0.0192
  814W        W 4333   9.076   8.953   2.897  0.3453 -0.2766 -0.1761
  815W        W 4334   0.347   5.292  11.868 -0.1080  0.0648  0.0474
  816W        W 4335   8.519   4.468   2.632 -0.0515  0.1242  0.1071
  817W        W 4336   0.121   8.818   0.974  0.1888 -0.1523  0.2355
  818W        W 4337   5.283   0.918  11.036 -0.0130 -0.2047 -0.0970
  819W        W 4338   4.885   0.143   9.604  0.0703 -0.0345  0.0703
  820W        W 4339   9.374   2.341   4.476  0.2914 -0.2211  0.0460
  821W        W 4340   7.351   8.062   2.335  0.1244  0.1365  0.3662
  822W        W 4341   4.060   6.285   9.630  0.0319  0.0934 -0.1413
  823W        W 4342   9.455   0.201   8.697  0.1048  0.0158  0.1106
  824W        W 4343   9.423   8.013  12.205 -0.0392 -0.4451 -0.0433
  825W        W 4344   3.967   6.911   2.535 -0.1962  0.1830  0.1869
  826W        W 4345   7.474   5.295   8.794  0.2159 -0.0003  0.3909
  827W        W 4346   9.465   6.504   3.885 -0.0484 -0.1077  0.1230
  828W        W 4347   9.568   5.555   8.659  0.1016 -0.2753  0.2775
  829W        W 4348   1.307   0.081   2.124  0.0048 -0.1032 -0.0627
  830W        W 4349   0.121   7.786  10.767 -0.2399 -0.1613  0.3730
  831W        W 4350   1.848   3.451   1.037 -0.3980 -0.1077 -0.1343
  832W        W 4351   7.429   3.905   0.838 -0.1128  0.0182 -0.0849
  833W        W 4352   7.887   1.450  10.904  0.2025  0.2611  0.0045
  834W        W 4353   4.075   9.586   0.029 -0.0873 -0.0782  0.0539
  835W        W 4354   8.566   4.675  11.159  0.2179  0.2024 -0.0144
  836W        W 4355   4.985   4.864  11.040 -0.2427 -0.2688  0.0146
  837W        W 4356   2.114   2.974   0.924  0.3484  0.4717 -0.1290
  838W        W 4357   3.443   8.333  11.874  0.4867  0.0103  0.0760
  839W        W 4358   7.392   7.941   9.314 -0.1215  0.1205  0.1593
  840W        W 4359   3.590   4.185   0.603  0.0095 -0.3603 -0.0475
  841W        W 4360   7.911   1.278   0.091  0.1048 -0.1835  0.1500
  842W        W 4361   8.025   9.386  11.483  0.6729 -0.2050  0.1919
  843W        W 4362   8.071   4.699  11.065 -0.0726  0.0274 -0.1608
  844W        W 4363   3.923   2.908  11.267  0.0694 -0.0244  0.2363
  845W        W 4364   4.917   3.349  10.302 -0.0040  0.3470 -0.1283
  846W        W 4365   7.082   7.386   9.324  0.3283  0.4939 -0.0017
  847W        W 4366   6.901   0.543   1.640  0.0945  0.0660  0.2546
  848W        W 4367   8.140   2.295   9.545 -0.0013 -0.3177 -0.2028
  849W        W 4368   2.955   4.373   1.703  0.0042  0.0497 -0.1039
  850W        W 4369   8.379   2.858   1.626 -0.1222 -0.0444  0.2250
  851W        W 4370   8.421   6.111  11.838 -0.1466 -0.2271  0.2050
  852W        W 4371   7.937   8.714   3.625 -0.0034 -0.2103  0.0258
  853W        W 4372   3.098   7.889   9.408  0.1269 -0.2124  0.1893
  854W        W 4373   3.716   7.506  11.592 -0.0799  0.2105 -0.3447
  855W        W 4374   7.231   8.773   9.143 -0.0408 -0.0222  0.0816
  856W        W 4375   6.701   6.211  11.398  0.2197  0.1838  0.3296
  857W        W 4376   0.364   2.935   2.060 -0.0607  0.0721 -0.3333
  858W        W 4377   4.704   3.899  11.958  0.0739 -0.0356 -0.0276
  859W        W 4378   7.558   5.926   2.439  0.3057 -0.3019 -0.0394
  860W        W 4379   2.466   7.836   2.596 -0.1546 -0.0353 -0.1460
  861W        W 4380   1.000   8.125  11.879  0.1386 -0.5035 -0.2585
  862W        W 4381   7.413   3.917  12.396  0.0406 -0.2016  0.1751
  863W        W 4382   3.295   9.154   3.576  0.0536 -0.0375 -0.0854
  864W        W 4383   7.649   3.176  10.456 -0.1105 -0.0739 -0.2349
  865W        W 4384   0.876   2.625  10.149 -0.1982 -0.3146 -0.1690
  866W        W 4385   3.685   7.126   9.659 -0.0140  0.2387  0.2692
  867W        W 4386   3.897   5.384   2.781 -0.1742 -0.6073 -0.0810
  868W        W 4387   5.818   5.009  10.591 -0.3041 -0.3810 -0.0151
  869W        W 4388   7.489   4.447  12.465  0.0979  0.0497 -0.1103
  870W        W 4389   2.968   6.965   9.250  0.2579 -0.0147 -0.2639
  871W        W 4390   0.494   3.653  11.399 -0.2349 -0.1960  0.1296
  872W        W 4391   7.211   0.713  10.981  0.0257 -0.3004 -0.3913
  873W        W 4392   2.895   6.841   8.025 -0.2577  0.3038  0.0019
  874W        W 4393   4.602   1.502   2.926  0.2279  0.0032  0.1301
  875W        W 4394   8.498   8.001  10.498 -0.1872 -0.0450 -0.0718
  876W        W 4395   7.135   3.620  12.093 -0.0281 -0.2857  0.3445
  877W        W 4396   5.758   3.822   0.244  0.0237 -0.0749  0.0143
  878W        W 4397   2.747   6.043   1.166  0.0535  0.0444  0.1791
  879W        W 4398   0.027   2.890   9.150 -0.0711  0.0451  0.0525
  880W        W 4399   1.333   4.540  12.419 -0.2192  0.0364 -0.1796
  881W        W 4400   7.524   2.632   1.985  0.3244 -0.0299  0.2776
  882W        W 4401   1.245   2.942   0.014 -0.0682  0.1872 -0.2190
  883W        W 4402   8.954   0.235   0.971 -0.2610  0.2098 -0.3203
  884W        W 4403   1.414   3.405  11.686  0.1131  0.3764  0.5612
  885W        W 4404   8.657   5.977   2.206  0.0333  0.3990 -0.0775
  886W        W 4405   6.106   0.317   3.290 -0.0050 -0.1642 -0.1965
  887W        W 4406   4.554   7.388   1.833  0.1344 -0.0599 -0.0192
  888W        W 4407   3.166   7.225   1.868  0.0792  0.0701 -0.0360
  889W        W 4408   1.574   4.626   3.520 -0.1939  0.0392 -0.3583
  890W        W 4409   9.286   4.993  10.843  0.0892 -0.2364  0.1961
  891W        W 4410   0.884   8.244   3.122 -0.0645  0.0444  0.1936
  892W        W 4411   0.925   0.401   4.179  0.1246  0.1225  0.0331
  893W        W 4412   0.955   9.444  10.951 -0.0100  0.0211 -0.0479
  894W        W 4413   5.715   7.400   3.294  0.2821  0.0351 -0.3422
  895W        W 4414   8.294   6.900   1.258 -0.0040 -0.1077  0.0635
  896W        W 4415   3.553   6.617  12.351 -0.0101  0.0865  0.2933
  897W        W 4416   3.707   0.338   9.057 -0.0276 -0.1011 -0.3713
  898W        W 4417   3.821   8.004  10.733  0.0496  0.2515  0.0905
  899W        W 4418   6.473   8.359   9.517 -0.2125 -0.0058 -0.0428
  900W        W 4419   9.584   6.982   1.754  0.0832 -0.3830 -0.0493
  901W        W 4420   3.742   3.320   3.425  0.1663 -0.2691  0.1020
  902W        W 4421   2.761   7.699  10.261 -0.1653 -0.0457  0.3843
  903W        W 4422   1.307   5.902  11.082  0.1463  0.0081  0.1766
  904W        W 4423   5.299   3.137  11.763  0.1528 -0.2373  0.0663
  905W        W 4424   6.406   5.252   1.277  0.0522  0.1317  0.1456
  906W        W 4425   3.852   8.527   0.037  0.0263  0.2977 -0.1177
  907W        W 4426   5.870   1.845  12.442  0.0492  0.4261 -0.1900
  908W        W 4427   2.874   4.204   2.522 -0.0011 -0.2134 -0.0863
  909W        W 4428   1.327   7.973   0.731  0.2352 -0.1131 -0.0812
  910W        W 4429   4.832   4.654   0.151  0.5307  0.0280  0.1180
  911W        W 4430   1.932   0.134   1.302 -0.0315 -0.1134 -0.1719
  912W        W 4431   5.937   9.545  10.340 -0.0419 -0.1262 -0.1641
  913W        W 4432   2.212   8.782   3.634  0.1605  0.2126  0.1288
  914W        W 4433   3.887   0.284  12.361 -0.0360  0.0877  0.0313
  915W        W 4434   8.155   2.201   0.949  0.1165 -0.0144  0.1545
  916W        W 4435   9.659   7.671   2.854 -0.0187  0.2102 -0.0226
  917W        W 4436   0.463   6.438   4.609  0.0632  0.0629 -0.3393
  918W        W 4437   2.649   4.277   9.685  0.1629 -0.0357  0.0521
  919W        W 4438   2.221   2.503   2.923  0.1088 -0.0990  0.2280
  920W        W 4439   8.995   3.955   3.244 -0.0416  0.2403  0.0348
  921W        W 4440   6.196   2.455   9.936  0.3103  0.2576  0.2254
  922W        W 4441   4.747   8.615   8.828 -0.1942  0.0432 -0.0402
  923W        W 4442   3.685   3.938  10.963  0.1449 -0.1059 -0.0366
  924W        W 4443   1.563   2.941   1.296  0.1371  0.0512 -0.0627
  925W        W 4444   3.893   3.981  10.504  0.0099 -0.2214  0.0964
  926W        W 4445   1.881   5.496  10.947  0.0626 -0.3938 -0.5532
  927W        W 4446   4.245   5.814  12.270 -0.0435  0.0506 -0.0016
  928W        W 4447   6.020   6.697   4.336 -0.1544 -0.0995 -0.0112
  929W        W 4448   0.232   9.114  12.391 -0.3990 -0.1555  0.2576
  930W        W 4449   6.437   2.102   3.084  0.0030  0.0069  0.1525
  931W        W 4450   5.884   4.447  10.097 -0.0897 -0.2723 -0.1025
  932W        W 4451   4.458   8.942  11.085 -0.1583  0.1442  0.1964
  933W        W 4452   3.999   2.124   0.543  0.5412 -0.1815  0.1828
  934W        W 4453   7.522   3.584  11.677 -0.2973  0.4815  0.1121
  935W        W 4454   1.291   7.903   9.668  0.2547  0.0287  0.3065
  936W        W 4455   1.939   1.072   0.692  0.2741 -0.0305 -0.1834
  937W        W 4456   8.030   5.323   0.777  0.5698 -0.0710 -0.1502
  938W        W 4457   6.981   4.015   9.748 -0.0130 -0.0389 -0.0081
  939W        W 4458   7.765   8.874   9.614  0.0219  0.0198 -0.2844
  940W        W 4459   8.532   8.483   8.360  0.2019 -0.0511 -0.4116
  941W        W 4460   2.100   3.271   9.396 -0.0279  0.0489 -0.1906
  942W        W 4461   8.554   7.357   8.747  0.0497  0.2061  0.0672
  943W        W 4462   1.647   1.742   0.298 -0.0536  0.0452 -0.1870
  944W        W 4463   2.447   0.228   1.132  0.0159 -0.0507 -0.1387
  945W        W 4464   6.188   4.983   2.236 -0.2344  0.0092  0.0571
  946W        W 4465   8.660   9.531   2.248  0.0243 -0.2320  0.2492
  947W        W 4466   9.016   4.045   2.118 -0.3422 -0.4146 -0.0041
  948W        W 4467   6.980   2.965   0.517 -0.2177  0.1375 -0.0182
  949W        W 4468   9.661   4.906   0.562 -0.2314 -0.3043  0.2423
  950W        W 4469   8.592   8.397   9.608  0.3354  0.1105 -0.3658
  951W        W 4470   4.590   8.524  10.152 -0.1371 -0.2959  0.0639
  952W        W 4471   1.941   9.412  10.789  0.1841  0.2005 -0.1630
  953W        W 4472   9.197   4.202   8.173  0.0450  0.0456  0.2890
  954W        W 4473   1.112   2.538   8.956  0.1099  0.0319 -0.0156
  955W        W 4474   1.115   8.052  12.446  0.1771 -0.2915 -0.3747
  956W        W 4475   7.364   2.809  11.311  0.0078 -0.0103  0.1211
  957W        W 4476   3.563   7.349   3.864  0.2375 -0.1174  0.2388
  958W        W 4477   1.212   1.248   3.558  0.0143  0.1476 -0.0583
  959W        W 4478   3.086   4.427   3.446  0.0185  0.0008 -0.0235
  960W        W 4479   9.200   0.152  12.157 -0.2149  0.2086  0.0626
  961W        W 4480   7.993   8.379   8.445 -0.3291 -0.0914 -0.2719
  962W        W 4481   7.005   3.767   0.983  0.1483  0.0214 -0.0171
  963W        W 4482   3.392   3.094   1.802  0.1982  0.2665  0.1430
  964W        W 4483   1.479   0.622  10.082 -0.0590  0.1644 -0.0760
  965W        W 4484   4.341   9.371  12.228  0.0733  0.0578 -0.2101
  966W        W 4485   9.344   4.159   2.866  0.0054  0.2277 -0.0623
  967W        W 4486   6.187   2.658   8.959  0.0788 -0.2032  0.2518
  968W        W 4487   3.565   0.644  12.268 -0.0229 -0.3442 -0.1989
  969W        W 4488   4.386   8.131  11.520 -0.2297  0.3519  0.2846
  970W        W 4489   0.598   3.380  10.051  0.1600 -0.0300 -0.0172
  971W        W 4490   9.229   4.429  12.277 -0.2934 -0.1653 -0.2869
  972W        W 4491   1.424   9.302  10.929 -0.0933  0.1156  0.4016
  973W        W 4492   5.613   2.240   0.166  0.0083 -0.1921  0.0529
  974W        W 4493   6.132   4.642  11.452  0.1759  0.3102  0.4654
  975W        W 4494   6.025   9.331   9.315 -0.0278 -0.1176  0.1645
  976W        W 4495   2.196   2.997  10.074 -0.1786 -0.2031  0.0052
  977W        W 4496   6.658   6.962  11.307 -0.1686 -0.0608  0.0541
  978W        W 4497   8.443   0.947   0.228  0.1224 -0.0429  0.0728
  979W        W 4498   6.271   5.232  10.837 -0.0130  0.1681 -0.1984
  980W        W 4499   1.502   3.182   0.826 -0.1445  0.0538  0.2299
  981W        W 4500   3.636   4.783   0.005 -0.2270 -0.2496 -0.3472
  982W        W 4501   9.619   3.749   2.719  0.2565  0.1415  0.1213
  983W        W 4502   6.337   0.654   3.631  0.0421 -0.0437  0.0115
  984W        W 4503   1.722   5.290  11.770  0.1643 -0.1426  0.0790
  985W        W 4504   3.169   7.576  10.092 -0.3393  0.1172  0.1943
  986W        W 4505   2.817   6.727  12.576  0.0585  0.4155 -0.0327
  987W        W 4506   3.800   5.068  11.762  0.3276  0.0997  0.0144
  988W        W 4507   2.467   5.260  12.115 -0.1910  0.1866  0.1970
  989W        W 4508   3.002   6.113  11.175  0.1827 -0.1303 -0.2394
  990W        W 4509   7.538   1.841  11.119 -0.0574  0.1689  0.3138
  991W        W 4510   6.021   5.721   9.843  0.3463 -0.1271 -0.0171
  992W        W 4511   6.200   6.959   9.590 -0.1670  0.3770  0.1990
  993W        W 4512   8.742   4.438  10.215  0.1164  0.1942 -0.2930
  994W        W 4513   4.420   0.662  12.151 -0.0019 -0.0104 -0.2742
  995W        W 4514   0.805   2.837   0.744  0.1467 -0.0263  0.0116
  996W        W 4515   5.203   5.947  11.932 -0.1032 -0.2644 -0.1350
  997W        W 4516   0.774   9.463  10.508 -0.2453  0.2323 -0.4352
  998W        W 4517   7.418   5.738   0.401 -0.1561 -0.1724  0.0461
  999W        W 4518   1.557   2.080  10.372  0.0462 -0.1333  0.2299
 1000W        W 4519   1.692   1.151  11.929 -0.0480 -0.3697 -0.3336
 1001W        W 4520   0.811   0.013  11.730 -0.1904  0.0253 -0.1786
 1002W        W 4521   2.814   6.471   9.274  0.0442 -0.0036 -0.0906
 1003W        W 4522   1.788   0.095   3.596 -0.2284 -0.2474 -0.1705
 1004W        W 4523   8.264   8.710   8.839  0.0107  0.0518  0.3330
 1005W        W 4524   0.473   9.353  10.108  0.0101  0.1180 -0.1592
 1006W        W 4525   4.455   6.254  10.441  0.1009  0.0172 -0.1660
 1007W        W 4526   6.441   6.574  11.958 -0.0600 -0.0149  0.0677
 1008W        W 4527   8.547   4.180   3.270 -0.0252 -0.0934  0.0671
 1009W        W 4528   1.794   3.201   9.851 -0.1415 -0.1564  0.0727
 1010W        W 4529   2.246   0.065   0.126  0.1888 -0.1397 -0.0689
 1011W        W 4530   7.411   6.557   0.073  0.1324 -0.1017 -0.1096
 1012W        W 4531   1.351   9.086   8.527  0.3635  0.0675  0.2976
 1013W        W 4532   9.019   5.043  12.202  0.0042 -0.0956 -0.0594
 1014W        W 4533   2.713   2.275   4.130  0.1141  0.0543 -0.1597
 1015W        W 4534   6.610   1.839  10.340  0.1678  0.1919 -0.0573
 1016W        W 4535   1.077   2.253   1.488  0.1462  0.0595 -0.1253
 1017W        W 4536   8.698   2.159   2.357  0.0418 -0.0467  0.0056
 1018W        W 4537   6.695   8.107   0.415 -0.1978 -0.1256 -0.0667
 1019W        W 4538   6.129   6.177   9.632 -0.2340 -0.3721 -0.2449
 1020W        W 4539   0.761   8.697   7.856  0.1002  0.0111 -0.0760
 1021W        W 4540   8.234   0.888   8.813  0.4233  0.0156 -0.2557
 1022W        W 4541   6.225   5.313   2.726  0.3497  0.1229  0.0728
 1023W        W 4542   1.805   0.151   1.779 -0.0024 -0.3919 -0.3031
 1024W        W 4543   7.770   0.367   2.086  0.1870 -0.1062 -0.1361
 1025W        W 4544   1.744   9.523  11.243 -0.5914 -0.0300  0.2185
 1026W        W 4545   0.621   1.156   2.681  0.0323 -0.0594  0.1188
 1027W        W 4546   0.454   3.810   3.206  0.2260 -0.1105 -0.1392
 1028W        W 4547   6.993   6.586   9.365 -0.1041  0.0352 -0.2557
 1029W        W 4548   3.320   2.720   0.348 -0.3184 -0.0614 -0.0357
 1030W        W 4549   4.838   7.600  12.450  0.0760  0.0196  0.1212
 1031W        W 4550   5.337   2.771   9.644  0.0054  0.0191  0.3722
 1032W        W 4551   1.017   6.871   9.675  0.0107  0.1117  0.2080
 1033W        W 4552   7.538   6.754   1.922 -0.3549 -0.0732 -0.2528
 1034W        W 4553   6.579   2.369  12.085  0.1818  0.1527  0.0441
 1035W        W 4554   9.247   3.480   9.250  0.3025  0.1672  0.1011
 1036W        W 4555   4.434   4.708  10.394  0.0389  0.2303 -0.0789
 1037W        W 4556   6.116   2.910   1.992 -0.3072 -0.0928 -0.0860
 1038W        W 4557   8.284   7.578   3.680  0.0203  0.0516  0.0996
 1039W        W 4558   4.690   8.268   2.115  0.2507  0.1533  0.0984
 1040W        W 4559   2.099   8.308  11.913  0.0225 -0.3258 -0.0228
 1041W        W 4560   4.498   8.433  12.029 -0.1101 -0.3859 -0.1873
 1042W        W 4561   0.271   8.353   9.673  0.0683 -0.0300 -0.0638
 1043W        W 4562   8.871   8.946  11.384  0.1450  0.1988 -0.0782
 1044W        W 4563   6.758   3.769   9.337  0.0332  0.0446 -0.0044
 1045W        W 4564   0.484   8.211   8.628 -0.2330 -0.0183 -0.1662
 1046W        W 4565   6.935   5.830   0.374  0.0928 -0.3506 -0.0828
 1047W        W 4566   7.826   2.611   3.264 -0.0191 -0.2160  0.1609
 1048W        W 4567   1.782   5.772   1.770 -0.0993  0.2022 -0.0980
 1049W        W 4568   6.881   2.356   3.024  0.0646 -0.1994 -0.2725
 1050W        W 4569   9.417   6.338  10.728 -0.0927  0.2816 -0.0811
 1051W        W 4570   5.378   0.302   9.792  0.2236  0.1565  0.0029
 1052W        W 4571   0.834   9.230   1.748  0.1427 -0.1532 -0.1487
 1053W        W 4572   7.982   5.938   8.192 -0.0510  0.0597 -0.3976
 1054W        W 4573   3.181   0.287  12.453  0.1093 -0.0840 -0.1558
 1055W        W 4574   3.499   3.508  10.744  0.4767 -0.0630  0.0518
 1056W        W 4575   5.821   9.633   0.037  0.1795  0.3608  0.0417
 1057W        W 4576   3.460   4.401   1.000 -0.0374 -0.2791 -0.0257
 1058W        W 4577   6.147   4.034  10.331  0.0376 -0.2427  0.1607
 1059W        W 4578   0.468   2.327  10.843 -0.2796  0.2580  0.0961
 1060W        W 4579   5.958   1.549   3.715 -0.1140 -0.1863  0.1833
 1061W        W 4580   3.854   8.584   3.579 -0.3391  0.3650  0.0482
 1062W        W 4581   9.175   8.359  10.210 -0.0599  0.0209 -0.0880
 1063W        W 4582   7.445   9.448  11.148  0.1256  0.0437 -0.1534
 1064W        W 4583   1.462   5.310   8.479  0.1331  0.0951 -0.0796
 1065W        W 4584   1.942   7.851   2.523  0.2506 -0.1871  0.2527
 1066W        W 4585   4.572   9.492   9.133 -0.0100  0.0949 -0.0524
 1067W        W 4586   7.240   3.974   4.451  0.0387 -0.3014 -0.1651
 1068W        W 4587   7.664   7.515   2.899 -0.0494 -0.2428 -0.0987
 1069W        W 4588   8.128   1.698   0.997 -0.2124  0.0126 -0.1780
 1070W        W 4589   2.342   1.768   0.888  0.3082  0.0270  0.1196
 1071W        W 4590   9.097   9.418   3.124  0.0208 -0.0537  0.1113
 1072W        W 4591   0.001   7.189   1.201  0.3873  0.2601 -0.0615
 1073W        W 4592   0.565   1.099   8.081 -0.1118 -0.0504 -0.0554
 1074W        W 4593   0.659   0.949   1.415  0.0986 -0.2529  0.1185
 1075W        W 4594   7.834   3.134   2.010  0.1490 -0.1027 -0.1144
 1076W        W 4595   7.345   7.003   2.316  0.0236  0.1321  0.0215
 1077W        W 4596   0.124   0.084   9.038 -0.0153  0.1727  0.0012
 1078W        W 4597   1.430   6.493   3.452 -0.2712  0.1343 -0.0869
 1079W        W 4598   7.440   3.481   1.991  0.0485  0.0904 -0.3442
 1080W        W 4599   0.610   1.920   4.395  0.0214 -0.0825 -0.0443
 1081W        W 4600   3.319   3.356   2.649  0.2191 -0.1357 -0.0316
 1082W        W 4601   5.144   5.712   4.092 -0.1183  0.0843  0.2768
 1083W        W 4602   5.887   9.058   2.708 -0.0312 -0.0185  0.0854
 1084W        W 4603   9.186   0.817   2.860 -0.3967 -0.1113  0.2155
 1085W        W 4604   0.812   0.334  10.791  0.2131  0.4401  0.4577
 1086W        W 4605   0.776   8.741   0.424 -0.1981 -0.1273 -0.2878
 1087W        W 4606   0.698   8.208   1.842  0.2484 -0.2152  0.1471
 1088W        W 4607   6.852   9.624   3.750 -0.0562  0.2705  0.0115
 1089W        W 4608   7.991   8.026  10.369  0.0437  0.0099  0.1388
 1090W        W 4609   8.992   4.304   8.599  0.0695  0.0729 -0.1524
 1091W        W 4610   3.057   3.163  10.619 -0.2615 -0.1624  0.3820
 1092W        W 4611   4.201   1.211  11.785 -0.0664 -0.0115  0.1178
 1093W        W 4612   8.062   4.377   3.054 -0.2912  0.0262 -0.5374
 1094W        W 4613   3.891   2.369  12.143 -0.0534 -0.2237 -0.0315
 1095W        W 4614   7.665   8.270   8.065  0.1629  0.0825  0.0503
 1096W        W 4615   1.030   7.793   0.412 -0.0023 -0.0258  0.3600
 1097W        W 4616   6.132   9.109  12.546  0.2583 -0.5527 -0.1758
 1098W        W 4617   0.454   6.634  10.258  0.0612 -0.0087  0.1649
 1099W        W 4618   0.339   5.536   8.939 -0.0565 -0.4521 -0.1647
 1100W        W 4619   0.519   3.320   8.987  0.0694  0.2884 -0.2095
 1101W        W 4620   0.991   3.524  10.919  0.1634  0.2083 -0.1066
 1102W        W 4621   0.574   3.308   3.168 -0.2826  0.1522  0.0538
 1103W        W 4622   7.622   4.409  11.243 -0.0771 -0.1818  0.2417
 1104W        W 4623   9.535   1.356  11.799  0.2483 -0.1855 -0.0255
 1105W        W 4624   3.983   6.211  12.239 -0.1025  0.5159  0.1858
 1106W        W 4625   0.847   3.806  10.060  0.1822  0.2092 -0.1432
 1107W        W 4626   0.091   8.789   0.135 -0.1712 -0.2612 -0.2439
 1108W        W 4627   1.553   6.152   3.813  0.0293 -0.0489 -0.0900
 1109W        W 4628   1.697   6.144   1.470 -0.0927 -0.0266 -0.0439
 1110W        W 4629   4.227   0.517  11.133  0.1221 -0.1164  0.2461
 1111W        W 4630   9.090   9.316  10.972 -0.2588 -0.1426 -0.0382
 1112W        W 4631   2.145   4.542   3.491  0.0984  0.0145  0.2026
 1113W        W 4632   6.647   0.613   9.110 -0.2977 -0.0869  0.0071
 1114W        W 4633   9.471   7.560   2.360  0.2652  0.0075  0.0306
 1115W        W 4634   5.564   8.368   8.628 -0.1411  0.2021  0.1021
 1116W        W 4635   5.471   1.626   3.833  0.0235 -0.1749 -0.1082
 1117W        W 4636   8.649   7.778  11.528  0.0735 -0.1489  0.1620
 1118W        W 4637   2.022   3.817  12.398 -0.1834  0.3473  0.2297
 1119W        W 4638   6.833   3.314   3.390 -0.1136  0.1501 -0.1301
 1120W        W 4639   4.838   8.239   9.796 -0.0514  0.1592 -0.0420
 1121W        W 4640   7.906   3.724   0.624 -0.1792  0.1781 -0.1091
 1122W        W 4641   3.713   4.210  11.877  0.1531 -0.0714 -0.0077
 1123W        W 4642   0.713   4.362   9.010  0.0768  0.1697  0.1532
 1124W        W 4643   9.156   7.859   2.065  0.1144  0.2144  0.0886
 1125W        W 4644   9.585   5.577   2.913  0.2221  0.0868  0.1131
 1126W        W 4645   0.180   1.713  11.996  0.0937  0.1425  0.0365
 1127W        W 4646   9.276   1.006   8.806 -0.1981  0.1200 -0.0620
 1128W        W 4647   4.184   5.515   1.069 -0.1305  0.2535  0.3111
 1129W        W 4648   5.805   7.686   9.934 -0.1404  0.1553 -0.2365
 1130W        W 4649   8.138   7.034   0.142  0.1819 -0.3084  0.0104
 1131W        W 4650   4.987   1.517  11.257 -0.2665 -0.0478  0.0863
 1132W        W 4651   6.705   4.105  11.638  0.0287 -0.0955 -0.1949
 1133W        W 4652   0.351   6.499   1.931 -0.3000 -0.0050  0.0518
 1134W        W 4653   0.922   7.695  12.120  0.1174  0.2660 -0.0280
 1135W        W 4654   5.215   3.618  11.894  0.0752 -0.4354  0.0588
 1136W        W 4655   7.516   1.391  11.298  0.0006  0.0155  0.0122
 1137W        W 4656   6.682   5.449   9.127 -0.2312  0.1610  0.3400
 1138W        W 4657   4.512   6.022   0.835 -0.1211 -0.0549  0.2365
 1139W        W 4658   0.892   6.490   9.982  0.1334  0.1951 -0.1003
 1140W        W 4659   7.362   8.547   4.483 -0.0250  0.0913  0.1002
 1141W        W 4660   7.306   9.511   3.463  0.1015 -0.3272  0.1402
 1142W        W 4661   4.662   6.478   1.093 -0.1278  0.0151  0.2367
 1143W        W 4662   7.502   0.239  10.995 -0.0592 -0.2564 -0.3592
 1144W        W 4663   2.775   3.081   3.460  0.2504  0.3286  0.1159
 1145W        W 4664   3.137   5.966   0.332 -0.1191 -0.0133  0.0834
 1146W        W 4665   3.559   1.909   8.212  0.2557 -0.3766  0.3860
 1147W        W 4666   7.356   6.755  10.468 -0.1371  0.0601  0.0278
 1148W        W 4667   5.103   6.449   4.751  0.0790  0.1148  0.2783
 1149W        W 4668   6.085   4.795   8.798 -0.0068  0.0932 -0.0724
 1150W        W 4669   8.840   9.449   8.857  0.0847  0.1118 -0.0599
 1151W        W 4670   1.579   4.160   0.644  0.0344  0.1204 -0.0971
 1152W        W 4671   2.230   2.858  10.509 -0.0483  0.3846  0.1069
 1153W        W 4672   4.301   2.207  11.566  0.1588 -0.0432  0.1116
 1154W        W 4673   2.396   0.948   0.512  0.0649 -0.2029 -0.2891
 1155W        W 4674   4.054   4.520   3.190  0.0256  0.0083  0.0172
 1156W        W 4675   5.104   4.093  10.410 -0.2596 -0.2132  0.2376
 1157W        W 4676   1.706   4.119   0.085  0.1894 -0.0257  0.2298
 1158W        W 4677   7.395   7.864   3.354  0.1808 -0.0011 -0.0968
 1159W        W 4678   1.675   0.778   1.552 -0.1210  0.0336  0.0792
 1160W        W 4679   7.333   7.988   1.332 -0.2068  0.3150  0.2698
 1161W        W 4680   7.111   9.643   2.508 -0.3285 -0.0930  0.1534
 1162W        W 4681   5.193   4.482  11.834  0.0357 -0.2943  0.1547
 1163W        W 4682   3.425   9.344  10.631 -0.1194  0.4050  0.0876
 1164W        W 4683   5.047   8.598   1.647  0.0855  0.1020 -0.1039
 1165W        W 4684   5.633   4.791   0.459 -0.0129  0.0045  0.0243
 1166W        W 4685   8.934   1.210   2.711 -0.1010  0.0256 -0.0474
 1167W        W 4686   9.335   7.381   0.907  0.2941 -0.1687  0.0120
 1168W        W 4687   2.439   9.085  10.858  0.1460 -0.0206 -0.2901
 1169W        W 4688   5.581   2.539   7.953 -0.1628  0.0384 -0.4521
 1170W        W 4689   8.328   5.016   9.377 -0.1324  0.0553 -0.0259
 1171W        W 4690   9.098   1.371  11.537  0.0023 -0.1836 -0.0438
 1172W        W 4691   1.133   8.634   9.752  0.0426  0.3761 -0.0603
 1173W        W 4692   1.473   7.277  11.890 -0.0816  0.1085  0.1235
 1174W        W 4693   9.484   0.166   7.865  0.0736 -0.2916  0.1580
 1175W        W 4694   2.495   3.381   2.715  0.0011 -0.0529 -0.0643
 1176W        W 4695   8.758   3.004   1.296 -0.0344 -0.0959  0.3239
 1177W        W 4696   9.316   7.585   3.347 -0.1454  0.1054  0.0450
 1178W        W 4697   5.797   0.169   0.556  0.0892  0.2660 -0.3257
 1179W        W 4698   1.418   6.776   9.999 -0.2828  0.3741  0.0348
 1180W        W 4699   4.890   7.315   9.059 -0.0756 -0.0986 -0.3809
 1181W        W 4700   3.580   7.233  10.720 -0.2769 -0.2235 -0.0764
 1182W        W 4701   4.560   9.479   1.183 -0.2810  0.0013  0.0661
 1183W        W 4702   0.485   2.397   2.258  0.1410 -0.1615 -0.2526
 1184W        W 4703   3.562   9.257  11.782  0.3046 -0.0494  0.1130
 1185W        W 4704   0.442   3.616   9.347 -0.2393  0.0881 -0.1235
 1186W        W 4705   0.328   3.855   0.087 -0.0888 -0.2138 -0.2653
 1187W        W 4706   4.904   9.556   0.802 -0.0537  0.1700  0.0035
 1188W        W 4707   3.313   3.587   1.152 -0.0681  0.1270  0.1355
 1189W        W 4708   7.054   9.299  12.566 -0.3826 -0.2139 -0.3141
 1190W        W 4709   8.685   2.741  11.737 -0.0120 -0.2927 -0.2994
 1191W        W 4710   1.830   9.113   2.566  0.2835 -0.1103  0.2266
 1192W        W 4711   4.843   7.586   0.570  0.1023  0.0435  0.2197
 1193W        W 4712   1.023   2.602   8.421  0.0423  0.1767 -0.2641
 1194W        W 4713   4.297   2.002   2.088  0.0221  0.2691  0.0931
 1195W        W 4714   5.804   3.099  10.593 -0.0074  0.0461  0.0746
 1196W        W 4715   1.464   1.277   3.108 -0.0258 -0.0299 -0.0299
 1197W        W 4716   5.446   4.113   1.016 -0.0181  0.1574 -0.2188
 1198W        W 4717   6.085   2.449   0.203 -0.1629  0.1954  0.0483
 1199W        W 4718   9.638   0.842   9.711 -0.0664 -0.1613  0.1386
 1200W        W 4719   3.138   2.056   2.650  0.0005  0.0259  0.1032
 1201W        W 4720   5.680   2.091   8.716  0.2689 -0.0503 -0.1609
 1202W        W 4721   5.923   7.370  12.373  0.0464  0.0448  0.0526
 1203W        W 4722   5.013   9.370   9.957 -0.0146 -0.1354 -0.2556
 1204W        W 4723   6.663   7.044  10.765  0.1237 -0.3100  0.0630
 1205W        W 4724   0.868   8.919   2.358 -0.0877 -0.2054  0.4804
 1206W        W 4725   1.979   5.545   2.444 -0.2023  0.0095  0.1041
 1207W        W 4726   0.025   4.097   3.239  0.1297  0.0476 -0.0939
 1208W        W 4727   2.062   9.568  11.756  0.2367  0.0519 -0.0304
 1209W        W 4728   0.453   5.946   2.164 -0.0398  0.0095  0.0731
 1210W        W 4729   8.558   1.162   3.694 -0.1672  0.1534  0.1306
 1211W        W 4730   3.427   1.380  10.772 -0.0870  0.0566 -0.0785
 1212W        W 4731   2.718   3.954   0.934 -0.0432  0.1219 -0.1170
 1213W        W 4732   6.575   3.121   0.344 -0.1372  0.1810  0.1268
 1214W        W 4733   5.922   7.097   9.186 -0.2142  0.4634 -0.1151
 1215W        W 4734   5.735   3.655   9.902  0.0239 -0.1142  0.2379
 1216W        W 4735   2.077   4.258   2.240 -0.0003  0.2142 -0.2606
 1217W        W 4736   1.725   7.836   9.391  0.1389 -0.1437 -0.1676
 1218W        W 4737   4.559   8.120   3.608 -0.0699 -0.0026  0.0856
 1219W        W 4738   6.857   6.081  11.838 -0.3086 -0.2496  0.0534
 1220W        W 4739   2.712   9.460   1.044  0.2456 -0.0441  0.2030
 1221W        W 4740   9.221   2.812  11.901  0.0265 -0.0064 -0.2430
 1222W        W 4741   2.065   7.964   0.221  0.2341 -0.0162  0.2246
 1223W        W 4742   7.774   9.021   1.389 -0.2564  0.0655  0.0209
 1224W        W 4743   5.988   7.102   1.288 -0.2992  0.2271  0.2458
 1225W        W 4744   9.427   6.770   1.146 -0.2260 -0.1075 -0.1948
 1226W        W 4745   7.582   4.611   3.706  0.0827 -0.1051 -0.1202
 1227W        W 4746   0.223   8.518  11.505 -0.2777 -0.5218 -0.1768
 1228W        W 4747   1.108   6.308  10.894 -0.0859 -0.0855 -0.1082
 1229W        W 4748   7.665   4.689   1.797  0.0023  0.2594  0.1341
 1230W        W 4749   8.318   8.282   9.164  0.0231  0.2280 -0.0946
 1231W        W 4750   5.289   6.526  11.178 -0.3320  0.3707 -0.1147
 1232W        W 4751   4.909   0.600   9.738  0.1705  0.1948 -0.2609
 1233W        W 4752   3.115   1.469  10.275 -0.1230 -0.2940  0.0186
 1234W        W 4753   7.417   8.761   0.643  0.0465 -0.0583 -0.0917
 1235W        W 4754   0.477   2.065   8.403 -0.4133 -0.0215  0.3072
 1236W        W 4755   6.702   8.108   9.972  0.0414 -0.0243  0.2929
 1237W        W 4756   8.162   1.747   2.133  0.0628  0.1553  0.1118
 1238W        W 4757   5.340   9.604   1.072  0.2494 -0.1104  0.1000
 1239W        W 4758   8.932   7.029   8.568  0.0809  0.1778 -0.2450
 1240W        W 4759   3.862   2.012  11.790 -0.2165  0.1644  0.0290
 1241W        W 4760   7.783   4.666   9.696  0.1598 -0.3487  0.2253
 1242W        W 4761   4.655   8.007   0.898  0.0937  0.4115  0.0998
 1243W        W 4762   3.386   4.739   1.764  0.1072 -0.4530  0.0471
 1244W        W 4763   9.417   4.503   9.878  0.0072 -0.1482 -0.0494
 1245W        W 4764   1.891   8.381  10.394 -0.0378 -0.2202 -0.1280
 1246W        W 4765   7.775   4.305   1.445 -0.0129  0.0236  0.2444
 1247W        W 4766   1.341   3.816   9.852 -0.0857  0.1043  0.0964
 1248W        W 4767   7.685   7.642   1.108 -0.0300  0.1354 -0.4470
 1249W        W 4768   8.932   1.355   9.056 -0.4546 -0.1185 -0.3004
 1250W        W 4769   0.219   9.660  12.421  0.0141 -0.3040  0.0285
 1251W        W 4770   1.111   7.391   1.487  0.2870  0.1389  0.1876
 1252W        W 4771   3.853   0.708  11.471 -0.2353 -0.1764  0.2616
 1253W        W 4772   3.101   4.615  11.918 -0.4190 -0.2393 -0.0674
 1254W        W 4773   7.817   6.597  11.412  0.1137  0.3322 -0.1192
 1255W        W 4774   3.024   5.144   2.962  0.0718 -0.0513 -0.2838
 1256W        W 4775   7.800   5.795  10.168 -0.0444 -0.1826 -0.5450
 1257W        W 4776   9.665   3.205  11.823  0.0678 -0.1226 -0.0245
 1258W        W 4777   0.582   8.282   4.582 -0.1370  0.1081  0.4693
 1259W        W 4778   4.079   0.452   9.399  0.2170 -0.2542  0.1723
 1260W        W 4779   8.122   9.511   3.120  0.0433  0.0444  0.0762
 1261W        W 4780   9.149   6.479  10.376 -0.0151  0.0325 -0.0206
 1262W        W 4781   1.914   6.547   9.905  0.2986 -0.0925 -0.1126
 1263W        W 4782   4.334   7.409   4.275 -0.1235  0.2120  0.2720
 1264W        W 4783   0.077   1.162   7.896 -0.1872  0.2335  0.2460
 1265W        W 4784   9.516   5.801   1.234 -0.2020 -0.2259  0.0583
 1266W        W 4785   7.064   6.321   4.016 -0.0510  0.1339  0.0359
 1267W        W 4786   8.043   2.714  12.508  0.1652 -0.3700  0.1755
 1268W        W 4787   2.836   0.413  10.669 -0.0210 -0.1551  0.0108
 1269W        W 4788   1.791   4.005   2.841 -0.2574 -0.2496  0.2408
 1270W        W 4789   5.593   8.190  10.238  0.1605  0.3431  0.3276
 1271W        W 4790   0.764   4.670   8.634 -0.0982 -0.1685  0.0509
 1272W        W 4791   0.771   3.043   3.613  0.3268 -0.1485 -0.1998
 1273W        W 4792   1.791   0.043   9.508  0.2200 -0.0810  0.0750
 1274W        W 4793   0.831   4.445  11.503  0.0712 -0.0754 -0.0109
 1275W        W 4794   3.584   5.770  10.069 -0.3921  0.7077  0.0954
 1276W        W 4795   8.637   5.799   8.825  0.2110 -0.0542  0.1129
 1277W        W 4796   8.325   1.991   1.351  0.1834  0.1387  0.0392
 1278W        W 4797   5.598   2.686   2.978 -0.1224 -0.3304 -0.2421
 1279W        W 4798   0.733   5.525   2.052 -0.1026  0.2953  0.0061
 1280W        W 4799   5.738   4.388  11.611  0.0162 -0.0385  0.3121
 1281W        W 4800   7.607   8.754  10.420  0.0436  0.1115  0.0338
 1282W        W 4801   3.824   1.309   3.206 -0.2710 -0.3791  0.1523
 1283W        W 4802   3.725   6.907   0.770  0.2099  0.1692  0.0427
 1284W        W 4803   4.491   5.159  10.206 -0.0989  0.1895  0.4989
 1285W        W 4804   6.471   1.144   3.237  0.0823  0.2334 -0.1299
 1286W        W 4805   2.550   6.669  11.617 -0.2140 -0.0416 -0.1095
 1287W        W 4806   0.013   6.792   9.243 -0.1515  0.2889  0.1252
 1288W        W 4807   2.899   4.992   0.491  0.2157  0.1350 -0.0234
 1289W        W 4808   1.071   2.177   1.996 -0.0777  0.1961 -0.0282
 1290W        W 4809   0.422   4.223   1.568 -0.0679 -0.0366  0.0686
 1291W        W 4810   3.484   0.552   3.392 -0.0733  0.0161  0.2766
 1292W        W 4811   6.744   6.431   3.616  0.0050 -0.0126  0.5126
 1293W        W 4812   2.562   4.824  11.833  0.0439  0.3120  0.0764
 1294W        W 4813   6.889   3.456  11.043 -0.0130  0.0717  0.0061
 1295W        W 4814   6.698   1.369   2.058  0.1700  0.1529  0.1502
 1296W        W 4815   5.886   2.438   8.376 -0.2196 -0.1160 -0.2149
 1297W        W 4816   0.554   1.500   3.099 -0.0360 -0.4390  0.2521
 1298W        W 4817   6.154   2.101   3.581 -0.3827  0.2430 -0.1338
 1299W        W 4818   3.549   7.504   2.016  0.1899  0.0237 -0.0284
 1300W        W 4819   3.458   6.798  10.971  0.2146  0.2360  0.1315
 1301W        W 4820   0.062   5.197   4.548 -0.1733 -0.0710 -0.2752
 1302W        W 4821   9.376   7.331   0.340  0.3340 -0.0699  0.0942
 1303W        W 4822   1.237   3.745  12.013 -0.1837  0.0208  0.0761
 1304W        W 4823   5.996   8.564  10.379 -0.1445 -0.1789  0.3724
 1305W        W 4824   8.956   3.329   2.556 -0.0178  0.2871  0.5270
 1306W        W 4825   4.226   8.935  10.028 -0.2875 -0.1453  0.2855
 1307W        W 4826   4.009   5.320   1.508 -0.1724 -0.1033 -0.0635
 1308W        W 4827   6.075   5.634   8.925 -0.0543  0.0010 -0.1868
 1309W        W 4828   0.237   4.425   3.906 -0.1241 -0.1568 -0.1213
 1310W        W 4829   0.573   7.593   0.559  0.2996  0.1563  0.0280
 1311W        W 4830   5.996   2.327   3.177  0.2298 -0.1443 -0.2628
 1312W        W 4831   3.157   8.374   2.502 -0.1349 -0.1699 -0.2161
 1313W        W 4832   0.075   7.948   9.328  0.0465 -0.0674 -0.0391
 1314W        W 4833   0.337   4.116  10.727 -0.0822  0.1987 -0.0154
 1315W        W 4834   1.194   8.196  10.040 -0.0079  0.1023 -0.2252
 1316W        W 4835   8.186   9.347   1.379 -0.1080 -0.2988 -0.0700
 1317W        W 4836   9.404   1.958   1.937 -0.0435 -0.1850 -0.2167
 1318W        W 4837   2.803   1.190   0.736 -0.0475  0.0729  0.3109
 1319W        W 4838   1.179   0.572  11.064  0.0889 -0.1494 -0.0259
 1320W        W 4839   3.576   8.039   9.954 -0.1504 -0.2593 -0.0048
 1321W        W 4840   0.087   8.062  11.381  0.1892 -0.2533 -0.0313
 1322W        W 4841   3.721   6.607   9.366  0.0792  0.0399  0.3400
 1323W        W 4842   3.597   7.255  12.014 -0.1117  0.0342 -0.0116
 1324W        W 4843   9.087   7.896   4.103  0.2821 -0.0903 -0.2571
 1325W        W 4844   5.111   6.246   9.555 -0.0158  0.0353 -0.0201
 1326W        W 4845   2.981   8.914  11.124  0.2086  0.3802  0.1865
 1327W        W 4846   8.186   8.987   3.173  0.1855  0.1711 -0.1151
 1328W        W 4847   3.268   2.285   3.481 -0.2013  0.1085 -0.2336
 1329W        W 4848   3.654   7.292   0.394 -0.0749 -0.2305  0.1732
 1330W        W 4849   3.619   9.398   8.535 -0.0977  0.2995  0.1379
 1331W        W 4850   1.052   8.714   2.875  0.0478 -0.0017 -0.1582
 1332W        W 4851   6.088   0.592   9.821 -0.1942  0.1782 -0.0605
 1333W        W 4852   2.148   9.453   1.798 -0.2407 -0.1171  0.0843
 1334W        W 4853   2.239   4.237   3.099 -0.0941  0.2826  0.1096
 1335W        W 4854   3.918   3.067   9.681 -0.0915 -0.1902 -0.0603
 1336W        W 4855   0.945   3.479   2.796  0.2410 -0.0021  0.1399
 1337W        W 4856   8.170   3.311   0.761  0.1057 -0.1395 -0.0699
 1338W        W 4857   0.440   7.175   0.951 -0.2878  0.1002 -0.3755
 1339W        W 4858   7.544   8.668   8.369 -0.2898 -0.3803  0.1039
 1340W        W 4859   4.434   3.200   9.432  0.3101  0.1821  0.2481
 1341W        W 4860   8.393   1.966   2.669 -0.1065  0.0026  0.0517
 1342W        W 4861   3.547   3.567   0.107 -0.3141 -0.0624  0.0280
 1343W        W 4862   0.117   3.357   3.050  0.0441 -0.0917 -0.0591
 1344W        W 4863   8.538   0.003   8.133 -0.3258 -0.1235  0.2162
 1345W        W 4864   1.508   7.015   9.592 -0.1649  0.0624  0.0167
 1346W        W 4865   6.242   6.512   3.598  0.2396  0.0713  0.0684
 1347W        W 4866   2.690   8.365  11.120  0.0684  0.1601 -0.1992
 1348W        W 4867   8.702   8.969   9.623 -0.0210  0.3692 -0.1597
 1349W        W 4868   2.330   7.582   0.398 -0.2106 -0.1043  0.0590
 1350W        W 4869   0.091   2.553  10.649 -0.1878  0.1721  0.0259
 1351W        W 4870   5.069   6.078   0.730  0.0503  0.3558  0.0111
 1352W        W 4871   7.148   1.842   0.079  0.2956  0.0006 -0.1067
 1353W        W 4872   7.004   1.828   8.756  0.0559 -0.1774  0.0575
 1354W        W 4873   7.648   0.002   2.456 -0.2839  0.1042  0.0034
 1355W        W 4874   6.760   3.407  10.108 -0.1254 -0.1888  0.0652
 1356W        W 4875   8.853   4.159   2.785  0.1302 -0.3480  0.1361
 1357W        W 4876   1.975   7.026   4.148 -0.1787  0.0361  0.3623
 1358W        W 4877   7.373   9.035   8.744  0.1566  0.0814  0.0665
 1359W        W 4878   7.258   5.523   1.525 -0.1527 -0.0721 -0.1303
 1360W        W 4879   7.757   7.229   2.502 -0.1791 -0.0062  0.1237
 1361W        W 4880   6.043   5.868  10.328  0.1381 -0.1932 -0.1959
 1362W        W 4881   1.465   7.071  12.359 -0.1421 -0.0982 -0.3631
 1363W        W 4882   7.335   0.370  11.983  0.1600 -0.1252 -0.0384
 1364W        W 4883   2.898   4.106  11.330  0.2730  0.2511 -0.0043
 1365W        W 4884   8.653   4.811   3.607  0.0820  0.0419  0.0809
 1366W        W 4885   8.386   1.917   3.528  0.5474 -0.0927  0.2689
 1367W        W 4886   0.219   7.451   3.637  0.2092 -0.0091  0.1135
 1368W        W 4887   1.829   2.319   0.371  0.4645  0.0902  0.2139
 1369W        W 4888   4.575   7.280   0.291 -0.1538 -0.2357  0.4039
 1370W        W 4889   7.403   2.267   0.214  0.2197 -0.1882  0.0336
 1371W        W 4890   4.307   2.047  12.205  0.1803 -0.1689  0.0969
 1372W        W 4891   4.383   3.532  12.020 -0.0236 -0.0470  0.0575
 1373W        W 4892   0.496   6.744   8.942 -0.1009 -0.2787  0.0361
 1374W        W 4893   2.488   1.165   9.944  0.1073  0.2444 -0.0193
 1375W        W 4894   8.270   3.075  11.946  0.3528  0.1373 -0.2456
 1376W        W 4895   9.602   0.582  10.155 -0.1695 -0.1523  0.0398
 1377W        W 4896   1.074   6.293   3.241  0.0459  0.0353  0.0836
 1378W        W 4897   7.371   7.353   0.600  0.0219  0.2857  0.1003
 1379W        W 4898   7.702   5.092   9.396  0.2090  0.3455  0.1231
 1380W        W 4899   6.147   0.818  11.206 -0.2715 -0.1844 -0.2751
 1381W        W 4900   8.294   5.262   8.884 -0.0047  0.1615  0.0499
 1382W        W 4901   6.190   1.612   4.624  0.1565 -0.2843  0.2660
 1383W        W 4902   8.384   2.663  10.525 -0.0463  0.2727  0.0083
 1384W        W 4903   8.071   3.122   8.799  0.2611  0.0805  0.0010
 1385W        W 4904   5.789   6.155   9.979  0.1810  0.1259 -0.3403
 1386W        W 4905   0.431   9.411  11.939 -0.0363  0.2012 -0.0038
 1387W        W 4906   6.388   0.432   8.112 -0.0586  0.1417  0.1967
 1388W        W 4907   2.325   0.482  10.614  0.2289  0.1465 -0.0406
 1389W        W 4908   5.124   2.883   2.748  0.1116 -0.1951  0.0596
 1390W        W 4909   4.888   5.975   0.302  0.2962  0.3400  0.0734
 1391W        W 4910   6.838   3.951  11.123  0.0627 -0.0440  0.0395
 1392W        W 4911   7.182   8.673  12.372  0.1997 -0.2357  0.1870
 1393W        W 4912   3.202   7.465  12.417  0.2940  0.1956 -0.2986
 1394W        W 4913   5.612   6.277   9.441 -0.0136  0.1791 -0.1008
 1395W        W 4914   9.656   7.683   1.170 -0.2115  0.2149 -0.0341
 1396W        W 4915   9.558   9.180   4.555  0.0226  0.2639  0.0825
 1397W        W 4916   2.437   7.938   9.963 -0.0215 -0.0829 -0.0536
 1398W        W 4917   4.732   7.543  11.984 -0.0680  0.0226  0.1275
 1399W        W 4918   0.496   7.523   9.220 -0.0796 -0.1257  0.0958
 1400W        W 4919   9.615   0.159  11.101  0.4775  0.1758 -0.2613
 1401W        W 4920   3.571   1.064   2.225 -0.0421  0.1471 -0.0875
 1402W        W 4921   2.380   6.450   9.730  0.2889 -0.1526  0.3967
 1403W        W 4922   3.205   4.680  12.462  0.1790  0.0487 -0.2296
 1404W        W 4923   8.726   9.168   1.893  0.1858 -0.1805  0.2383
 1405W        W 4924   1.910   7.455  10.920 -0.3153  0.0335 -0.1429
 1406W        W 4925   4.098   3.877   1.293 -0.0204 -0.2429 -0.0405
 1407W        W 4926   9.118   4.543   3.106 -0.3690  0.3409 -0.2261
 1408W        W 4927   5.250   2.886   3.296  0.0086  0.2944  0.2200
 1409W        W 4928   3.099   7.320   8.786 -0.0831  0.2736 -0.3321
 1410W        W 4929   0.031   2.928   9.761 -0.0239  0.0232 -0.4989
 1411W        W 4930   1.679   3.708   0.444 -0.3627  0.0291  0.1171
 1412W        W 4931   6.881   2.862   8.346 -0.1095  0.2366  0.0002
 1413W        W 4932   4.225   1.684  11.721  0.0570  0.1984 -0.2498
 1414W        W 4933   7.371   7.282   1.289  0.2590 -0.2011  0.3608
 1415W        W 4934   9.250   8.937   0.047  0.1435  0.0970 -0.1075
 1416W        W 4935   2.767   4.693   0.078  0.1548 -0.2758  0.1934
 1417W        W 4936   4.576   6.333   2.912  0.2881  0.1145  0.3835
 1418W        W 4937   4.783   3.776  10.590 -0.3098 -0.1218  0.1011
 1419W        W 4938   2.890   7.441   9.264  0.0648 -0.0594 -0.2418
 1420W        W 4939   1.530   2.272   1.239 -0.0372 -0.2257  0.0942
 1421W        W 4940   6.322   0.726   2.391 -0.0363  0.0440 -0.2565
 1422W        W 4941   2.213   5.117  10.979 -0.0612  0.1499  0.1279
 1423W        W 4942   2.888   6.397   0.847 -0.0163  0.2676  0.0574
 1424W        W 4943   3.870   4.591  11.602 -0.2201  0.0526  0.0720
 1425W        W 4944   4.531   0.826   0.651 -0.0393 -0.0228  0.0516
 1426W        W 4945   7.580   2.461   9.492  0.0624  0.0674  0.1041
 1427W        W 4946   9.081   4.641   0.527  0.0967  0.2217  0.3500
 1428W        W 4947   7.471   8.751   3.483  0.0319 -0.1248  0.2141
 1429W        W 4948   4.737   2.363   0.480  0.0730  0.1000  0.1131
 1430W        W 4949   1.065   1.226   1.601  0.0037  0.1008  0.4081
 1431W        W 4950   4.604   7.228  11.571 -0.1666 -0.2524  0.0799
 1432W        W 4951   8.055   6.002   1.478  0.2356  0.1791 -0.3342
 1433W        W 4952   1.544   8.608  10.030 -0.0919 -0.2926  0.1216
 1434W        W 4953   1.993   5.158   2.088  0.3441 -0.2644 -0.1952
 1435W        W 4954   1.181   5.076   2.200  0.0216  0.2326 -0.2222
 1436W        W 4955   0.656   0.339   0.544 -0.1322  0.1804 -0.0157
 1437W        W 4956   4.590   5.418  11.395  0.2496  0.0859 -0.4637
 1438W        W 4957   1.048   3.894   4.098 -0.3037  0.0251 -0.0850
 1439W        W 4958   9.153   6.706   1.631 -0.0216  0.0574  0.1387
 1440W        W 4959   5.858   8.171  12.546  0.6904  0.1638  0.0926
 1441W        W 4960   3.499   4.375   1.469  0.2675  0.3019 -0.0227
 1442W        W 4961   3.179   3.797  10.997 -0.2013 -0.1596  0.1483
 1443W        W 4962   2.803   7.898   3.032 -0.0295  0.1586 -0.3505
 1444W        W 4963   4.230   2.964   2.799  0.1225  0.2156  0.1664
 1445W        W 4964   7.589   2.888   2.875  0.2836  0.0794 -0.2734
 1446W        W 4965   7.333   1.720   1.953  0.3225 -0.0875 -0.1168
 1447W        W 4966   7.197   1.260   3.334  0.0625  0.4745 -0.0613
 1448W        W 4967   8.271   0.383   1.838 -0.0932  0.2480  0.1605
 1449W        W 4968   7.493   9.612   2.951  0.2782  0.0462  0.0596
 1450W        W 4969   2.430   0.120   1.606 -0.0175 -0.2930 -0.0286
 1451W        W 4970   0.684   0.435   2.075 -0.0234 -0.1405  0.1608
 1452W        W 4971   8.117   1.526   1.490 -0.1588  0.0863 -0.1411
 1453W        W 4972   2.402   4.769   9.808  0.0089 -0.0351  0.0218
 1454W        W 4973   8.408   5.028  11.957  0.0368  0.2134 -0.0357
 1455W        W 4974   1.462   0.167   9.169 -0.2485 -0.0661 -0.1054
 1456W        W 4975   9.032   6.630   0.850 -0.0282  0.1202 -0.2321
 1457W        W 4976   1.695   9.380   3.982  0.0476 -0.0066 -0.2291
 1458W        W 4977   1.219   3.796   0.334  0.0392 -0.2029  0.2510
 1459W        W 4978   6.087   1.399   4.193  0.0391  0.0290 -0.0635
 1460W        W 4979   7.215   4.223   3.175  0.2493 -0.2227  0.3231
 1461W        W 4980   8.165   0.566   4.319  0.1571 -0.0450 -0.4291
 1462W        W 4981   0.520   6.925   2.154  0.0914  0.0096 -0.1674
 1463W        W 4982   5.548   8.737  10.220 -0.1125 -0.0990  0.1387
 1464W        W 4983   3.635   1.719   0.340  0.0000  0.3502  0.0192
 1465W        W 4984   4.954   2.304  12.142 -0.0644  0.2311 -0.0466
 1466W        W 4985   0.800   4.018  10.525 -0.0719  0.1930 -0.0348
 1467W        W 4986   0.618   8.277   4.104  0.1704  0.1062 -0.0887
 1468W        W 4987   6.325   3.927  11.977 -0.4142 -0.1313 -0.0257
 1469W        W 4988   7.867   2.873   1.506  0.4887  0.1217  0.1209
 1470W        W 4989   6.514   5.916   9.048  0.0508  0.3694 -0.2994
 1471W        W 4990   3.565   6.680   1.471 -0.0217 -0.0800  0.0588
 1472W        W 4991   7.530   6.901  10.985  0.0602 -0.2524 -0.2446
 1473W        W 4992   4.301   4.194   0.064 -0.3321 -0.2627 -0.0090
 1474W        W 4993   4.483   3.008  11.942  0.1363 -0.1362  0.0631
 1475W        W 4994   3.706   0.884  10.904 -0.0930  0.1221 -0.0494
 1476W        W 4995   6.161   7.412   4.239  0.2815  0.0892 -0.0147
 1477W        W 4996   6.755   8.107  10.942 -0.4658  0.2010 -0.2066
 1478W        W 4997   3.202   3.604   1.644 -0.1122 -0.0780 -0.1350
 1479W        W 4998   6.768   3.855   3.732 -0.2097 -0.1388 -0.0102
 1480W        W 4999   0.460   0.524   3.307  0.1757  0.0032  0.1821
 1481W        W 5000   1.351   4.510   1.882  0.1657  0.1256  0.1943
 1482W        W 5001   7.131   5.469  11.725  0.0297  0.2344 -0.0753
 1483W        W 5002   1.183   0.908   9.718  0.0088 -0.0765 -0.2419
 1484W        W 5003   2.782   0.690   0.924 -0.1295  0.2939 -0.0590
 1485W        W 5004   2.265   6.840   8.676 -0.0298 -0.1137  0.1250
 1486W        W 5005   6.619   8.681   1.766 -0.1999 -0.1524 -0.1943
 1487W        W 5006   6.983   5.935   1.447 -0.5616  0.0465 -0.3525
 1488W        W 5007   6.366   6.149  10.604  0.1289 -0.0990  0.1845
 1489W        W 5008   2.089   1.523  11.574  0.0910  0.0414 -0.0297
 1490W        W 5009   8.483   3.317   2.734  0.1144  0.0447  0.1022
 1491W        W 5010   8.669   5.946   1.135 -0.2450 -0.0377  0.0068
 1492W        W 5011   0.181   1.172   1.433  0.1262  0.4000 -0.0349
 1493W        W 5012   5.253   8.042  12.391  0.1875  0.0815  0.1831
 1494W        W 5013   9.204   0.598   9.758 -0.1044 -0.1163 -0.1352
 1495W        W 5014   8.969   3.383   8.754  0.0168  0.0880  0.1235
 1496W        W 5015   5.999   3.127  11.748 -0.1165  0.1019  0.4022
 1497W        W 5016   0.963   7.545   0.895 -0.0928  0.0984 -0.2913
 1498W        W 5017   4.560   1.300   0.814  0.0213  0.2202 -0.0916
 1499W        W 5018   8.126   3.953  10.999  0.1225  0.0149 -0.2402
 1500W        W 5019   6.724   3.403   0.749 -0.2363 -0.1335  0.0401
 1501W        W 5020   5.980   2.940   3.181  0.0245 -0.0177  0.2212
 1502W        W 5021   1.090   4.754  11.951  0.2403 -0.2615  0.0047
 1503W        W 5022   8.487   9.624   0.976  0.1907  0.2648 -0.3952
 1504W        W 5023   0.221   4.317   1.033 -0.1703 -0.1085 -0.1167
 1505W        W 5024   4.006   5.809   3.850 -0.0964 -0.1899 -0.2998
 1506W        W 5025   6.788   6.624  11.638  0.1458 -0.0083  0.1943
 1507W        W 5026   0.032   5.262   3.752  0.3838 -0.0051  0.2195
 1508W        W 5027   2.189   8.800  11.655  0.1773 -0.2526 -0.1104
 1509W        W 5028   3.794   0.957  10.399 -0.0678  0.2322  0.1325
 1510W        W 5029   6.251   2.153   7.642  0.0136 -0.4321  0.1340
 1511W        W 5030   0.923   0.929   7.668  0.0386  0.1527 -0.0604
 1512W        W 5031   8.622   7.274  11.353 -0.0726  0.1602 -0.1644
 1513W        W 5032   4.763   8.041  11.924  0.1815  0.0511  0.3218
 1514W        W 5033   5.596   5.555   4.286 -0.2100 -0.2855  0.3369
 1515W        W 5034   6.501   7.421   5.153  0.0309 -0.0556 -0.0077
 1516W        W 5035   0.573   1.447   1.274 -0.4441 -0.0440  0.0484
 1517W        W 5036   4.654   8.749   0.459 -0.3935 -0.0240  0.0151
 1518W        W 5037   6.609   5.701   4.125  0.2888  0.1740 -0.1315
 1519W        W 5038   8.094   8.450   3.182 -0.3496  0.1100  0.0791
 1520W        W 5039   0.769   5.536   1.441 -0.1703  0.0773  0.0841
 1521W        W 5040   6.894   8.159   1.141  0.5643 -0.0013 -0.0724
 1522W        W 5041   6.796   1.208   9.764  0.1735 -0.2022  0.0852
 1523W        W 5042   8.510   9.205  10.116 -0.1288 -0.0712  0.0058
 1524W        W 5043   2.048   6.386   0.416 -0.2387 -0.2965  0.3793
 1525W        W 5044   7.460   5.322  12.069  0.0968 -0.0870 -0.0051
 1526W        W 5045   3.088   6.425  10.703 -0.0382  0.5714 -0.0121
 1527W        W 5046   7.419   1.864   9.198 -0.2140  0.0631 -0.0156
 1528W        W 5047   8.982   8.566  11.099 -0.2063 -0.2003  0.1112
 1529W        W 5048   2.750   3.465  12.085 -0.0470 -0.2461 -0.0577
 1530W        W 5049   5.621   8.207  12.052  0.3052  0.0427  0.1506
 1531W        W 5050   7.901   7.323   0.627 -0.1678 -0.2348  0.0481
 1532W        W 5051   8.656   5.993   4.280 -0.2026 -0.0925 -0.1091
 1533W        W 5052   6.067   5.439  11.567 -0.3391  0.2903  0.1119
 1534W        W 5053   8.525   5.774  11.426 -0.0346  0.3112  0.0353
 1535W        W 5054   7.364   2.984   1.232 -0.2114 -0.0347 -0.1202
 1536W        W 5055   4.696   7.042   4.073 -0.1474 -0.0507  0.0778
 1537W        W 5056   8.130   9.290   9.321 -0.2110  0.0537  0.1787
 1538W        W 5057   8.116   8.888   8.294  0.3782  0.2825 -0.3888
 1539W        W 5058   3.488   9.447   0.514 -0.1449 -0.3095 -0.1390
 1540W        W 5059   9.387   1.830  11.796 -0.3625 -0.0168  0.1558
 1541W        W 5060   7.503   6.385   9.032 -0.0944 -0.1232  0.1902
 1542W        W 5061   6.418   9.344   8.714 -0.0526 -0.1723  0.0491
 1543W        W 5062   0.183   8.990  11.757  0.2620  0.1455 -0.4497
 1544W        W 5063   0.680   3.618   0.453  0.0287 -0.0223  0.1863
 1545W        W 5064   0.450   6.860   1.532  0.0475  0.0426  0.0493
 1546W        W 5065   5.472   8.464  12.505 -0.0347 -0.4499  0.1582
 1547W        W 5066   1.916   5.253   1.613 -0.0157 -0.0597  0.0477
 1548W        W 5067   7.265   1.753   1.068 -0.0226  0.0015  0.0797
 1549W        W 5068   2.244   0.594   2.426 -0.0700  0.0575  0.1957
 1550W        W 5069   8.293   6.805  10.058  0.1011 -0.2845  0.1659
 1551W        W 5070   0.020   2.010   0.996 -0.1305  0.2333  0.0422
 1552W        W 5071   7.880   2.037   2.631  0.0725 -0.3125  0.1270
 1553W        W 5072   7.034   0.799  10.022 -0.0580  0.1014  0.0130
 1554W        W 5073   0.903   5.741  10.269  0.1657  0.0790 -0.0007
 1555W        W 5074   8.762   3.924   0.142 -0.0683  0.1427 -0.2756
 1556W        W 5075   0.128   0.706   2.401 -0.0586  0.0022 -0.0425
 1557W        W 5076   5.727   7.695  10.846 -0.2381 -0.4167  0.1871
 1558W        W 5077   3.903   1.598  12.063 -0.0409  0.3499 -0.1026
 1559W        W 5078   3.076   4.591   1.299 -0.1205 -0.0665 -0.0895
 1560W        W 5079   4.949   9.535  10.488  0.0414  0.0636  0.1390
 1561W        W 5080   8.709   3.335   8.325 -0.2943 -0.0791  0.1008
 1562W        W 5081   6.880   3.265   2.388  0.1714  0.1034  0.2750
 1563W        W 5082   6.737   5.662  12.135  0.0101 -0.3192  0.0643
 1564W        W 5083   0.402   5.451   3.400  0.2111 -0.1436 -0.1438
 1565W        W 5084   9.307   2.988   1.469 -0.2045  0.2700  0.0927
 1566W        W 5085   6.269   6.903  10.108  0.1400 -0.1322 -0.1836
 1567W        W 5086   0.184   1.271   0.494  0.2397  0.0483 -0.0264
 1568W        W 5087   9.077   0.195  11.182 -0.2679  0.1568  0.2733
 1569W        W 5088   7.491   4.734   1.311  0.1738 -0.3991  0.2172
 1570W        W 5089   3.349   3.574   2.236 -0.2331 -0.0911  0.1902
 1571W        W 5090   0.175   6.638   0.442 -0.0810 -0.0399  0.2578
 1572W        W 5091   8.662   3.764   1.396 -0.0407 -0.0371 -0.2774
 1573W        W 5092   3.544   2.340   0.572  0.0328  0.1194 -0.1495
 1574W        W 5093   3.119   8.356   8.711  0.1070  0.3601 -0.1276
 1575W        W 5094   6.268   9.526   0.641 -0.2204 -0.0972  0.1300
 1576W        W 5095   4.553   0.290   9.243  0.4435  0.1085 -0.0578
 1577W        W 5096   0.759   3.238  11.383  0.2553  0.3278 -0.0884
 1578W        W 5097   7.060   4.567   9.169 -0.1377  0.0222 -0.3243
 1579W        W 5098   4.017   9.083  10.876  0.0236 -0.1238 -0.3199
 1580W        W 5099   4.158   8.283   3.934  0.0195  0.4825  0.2158
 1581W        W 5100   8.229   9.086   0.258 -0.0752 -0.2592  0.0101
 1582W        W 5101   6.615   3.113   8.817 -0.0688 -0.1643  0.1818
 1583W        W 5102   3.081   1.100   9.597 -0.0823 -0.2868  0.1981
 1584W        W 5103   7.758   8.069  11.267  0.2665 -0.2961  0.2095
 1585W        W 5104   2.741   8.153   9.113 -0.2173  0.0593 -0.0197
 1586W        W 5105   0.506   9.478   0.878 -0.1367 -0.0265  0.3344
 1587W        W 5106   6.596   4.494  12.279 -0.1345  0.0491  0.0096
 1588W        W 5107   0.584   2.279  10.359 -0.0940  0.2579  0.1973
 1589W        W 5108   7.222   6.190   2.740 -0.3835 -0.2258 -0.4486
 1590W        W 5109   1.916   0.564   0.528 -0.4146  0.0950 -0.3321
 1591W        W 5110   5.960   1.669   1.127 -0.0264  0.0175  0.2358
 1592W        W 5111   1.918   8.490   0.193  0.0805 -0.1609 -0.0713
 1593W        W 5112   9.133   7.934  10.509 -0.3648  0.2365  0.0472
 1594W        W 5113   9.251   0.981  10.077 -0.1800  0.0628  0.0306
 1595W        W 5114   7.204   1.453   8.937 -0.0633 -0.1738  0.3736
 1596W        W 5115   7.690   8.206   0.993  0.2901 -0.2243  0.2808
 1597W        W 5116   5.240   6.428   0.379  0.1077  0.1149 -0.2356
 1598W        W 5117   4.802   7.226  10.174 -0.0515 -0.3498  0.0797
 1599W        W 5118   0.652   4.794   3.847  0.0977 -0.0788  0.2907
 1600W        W 5119   7.874   7.879   3.574 -0.0703 -0.0913  0.0735
 1601W        W 5120   8.216   5.645  10.975  0.3462  0.1236 -0.0801
 1602W        W 5121   3.964   1.237  11.236  0.0429 -0.1883 -0.0464
 1603W        W 5122   7.942   1.212   3.035 -0.0949  0.2311 -0.2112
 1604W        W 5123   6.515   8.929   2.193  0.0629 -0.4137 -0.0049
 1605W        W 5124   3.594   8.752  12.178  0.5032  0.2227  0.0852
 1606W        W 5125   4.249   3.701   1.732  0.1344 -0.0344 -0.3264
 1607W        W 5126   5.225   8.450   8.989  0.0542 -0.0441 -0.1578
 1608W        W 5127   5.743   7.091   2.931  0.0555 -0.1135 -0.0162
 1609W        W 5128   9.387   1.886   7.597  0.4354 -0.0207 -0.4069
 1610W        W 5129   8.004   3.804   9.977 -0.0329  0.0292 -0.0006
 1611W        W 5130   6.604   5.687   2.746 -0.0077  0.1150  0.1640
 1612W        W 5131   0.395   5.442   4.784  0.0604 -0.2794 -0.0130
 1613W        W 5132   8.402   7.937   2.861  0.3749  0.1832  0.3019
 1614W        W 5133   6.896   5.277  11.301 -0.3196  0.0595  0.3143
 1615W        W 5134   5.634   9.307  11.540 -0.2000  0.2510 -0.2188
 1616W        W 5135   4.033   3.468   9.351 -0.1261  0.0104 -0.1044
 1617W        W 5136   3.809   3.444   2.117  0.0325  0.1023 -0.1829
 1618W        W 5137   3.344   0.562  11.612  0.0599  0.4822  0.0210
 1619W        W 5138   5.813   2.788   4.203 -0.0506  0.2259 -0.1215
 1620W        W 5139   2.583   7.137   9.565 -0.1874  0.1143  0.1431
 1621W        W 5140   0.309   1.843   1.403 -0.2147  0.0045 -0.1089
 1622W        W 5141   2.477   6.966  10.580  0.2668  0.0215 -0.0671
 1623W        W 5142   7.444   1.160   9.234 -0.1969 -0.2413 -0.0342
 1624W        W 5143   1.382   5.585   8.877 -0.0501 -0.1176 -0.0483
 1625W        W 5144   6.057   0.002   1.892 -0.1051 -0.0965 -0.3480
 1626W        W 5145   8.926   5.570   0.533 -0.0199  0.1725 -0.0252
 1627W        W 5146   9.574   5.023  10.401 -0.4316  0.1371 -0.1846
 1628W        W 5147   8.219   5.369  10.502  0.1974 -0.1468  0.3025
 1629W        W 5148   5.232   5.753   3.009 -0.1534  0.1667  0.2905
 1630W        W 5149   0.275   6.334   9.867 -0.1110 -0.1427 -0.1671
 1631W        W 5150   6.397   3.936   0.865  0.0534  0.0878  0.1450
 1632W        W 5151   6.043   8.514   9.327  0.1931 -0.2510  0.0680
 1633W        W 5152   5.778   3.843  11.264 -0.2101  0.4339 -0.1611
 1634W        W 5153   0.780   3.044  10.923 -0.1003 -0.2002 -0.1662
 1635W        W 5154   0.870   8.029   1.023  0.1255 -0.1111  0.1154
 1636W        W 5155   0.273   8.601  10.179  0.2004  0.2069 -0.0019
 1637W        W 5156   5.571   0.425  10.301 -0.0550  0.1372  0.4361
 1638W        W 5157   6.206   5.696   1.055  0.1572 -0.1833 -0.0606
 1639W        W 5158   4.026   9.262   1.976  0.0510  0.0966 -0.2022
 1640W        W 5159   3.546   6.143   1.436  0.0375  0.1075 -0.1300
 1641W        W 5160   3.063   5.685   3.733 -0.2385 -0.0223  0.2061
 1642W        W 5161   5.431   8.281  11.608  0.0044  0.0597  0.2222
 1643W        W 5162   1.794   4.968   9.891 -0.0516  0.0633 -0.2797
 1644W        W 5163   3.298   1.869   0.716 -0.1284 -0.3634  0.0205
 1645W        W 5164   9.066   2.061  12.265  0.0987 -0.0003  0.0586
 1646W        W 5165   3.028   2.588  11.928  0.1037  0.1159 -0.1345
 1647W        W 5166   5.174   1.304  10.047 -0.0681  0.2292 -0.1868
 1648W        W 5167   1.121   4.618   2.367  0.0215  0.2490 -0.0429
 1649W        W 5168   2.367   4.356   0.926  0.2912  0.0515  0.1753
 1650W        W 5169   6.448   4.456  11.834 -0.1365 -0.2232 -0.0445
 1651W        W 5170   4.007   8.076   8.599  0.0127 -0.3664  0.1197
 1652W        W 5171   6.142   6.976  12.188  0.1510 -0.0606  0.0202
 1653W        W 5172   5.721   7.166   4.196  0.0364 -0.1626  0.1843
 1654W        W 5173   4.709   4.477   3.370 -0.2709  0.5075  0.0408
 1655W        W 5174   6.854   0.056  10.001 -0.0238 -0.0219 -0.0167
 1656W        W 5175   8.154   8.775   9.309  0.2605 -0.0627 -0.2438
 1657W        W 5176   0.373   1.878   9.522  0.0892  0.0550  0.0517
 1658W        W 5177   0.163   2.120  11.679  0.3261 -0.0770  0.3861
 1659W        W 5178   0.040   3.904   8.413  0.0444  0.3564  0.2091
 1660W        W 5179   1.917   5.838  12.443  0.1173 -0.1334 -0.3006
 1661W        W 5180   3.607   5.393   0.833  0.0279 -0.1707  0.3034
 1662W        W 5181   8.502   7.230   2.327 -0.3842  0.0801 -0.0015
 1663W        W 5182   5.326   6.254   2.246 -0.0896  0.1009 -0.3600
 1664W        W 5183   4.539   5.838  11.089  0.2763  0.1401  0.1566
 1665W        W 5184   3.163   6.376  12.564 -0.1995  0.1166 -0.1178
 1666W        W 5185   3.926   7.405   2.417 -0.0627  0.2993 -0.0680
 1667W        W 5186   1.158   0.637   3.790  0.3103 -0.2216  0.2239
 1668W        W 5187   0.794   6.443  12.414  0.2968  0.0048  0.1455
 1669W        W 5188   2.408   1.182   4.239 -0.4629 -0.1349  0.0784
 1670W        W 5189   0.673   6.539  10.716  0.1277  0.4399  0.4680
 1671W        W 5190   6.103   4.312  12.142 -0.0658  0.0035 -0.0995
 1672W        W 5191   0.685   5.687   9.564  0.0417  0.2124 -0.3389
 1673W        W 5192   7.227   5.156   1.086  0.2341 -0.1255  0.2233
 1674W        W 5193   7.008   1.265  11.280  0.1865  0.0831  0.1255
 1675W        W 5194   1.931   3.141   1.506 -0.1713 -0.0711  0.1284
 1676W        W 5195   5.628   2.735  12.579 -0.2814 -0.1519  0.3921
 1677W        W 5196   0.226   0.646   1.341 -0.2933  0.2599  0.1259
 1678W        W 5197   3.071   2.038  12.410  0.0495 -0.1394 -0.0443
 1679W        W 5198   3.786   6.870   4.453  0.2181  0.0171 -0.0412
 1680W        W 5199   8.928   8.462   0.015  0.2802 -0.1457  0.1340
 1681W        W 5200   5.070   6.141   1.345 -0.0148  0.1374  0.2142
 1682W        W 5201   8.724   1.350  12.326 -0.1301 -0.0763 -0.1796
 1683W        W 5202   3.674   0.018   1.910  0.0144  0.0841 -0.2996
 1684W        W 5203   2.753   8.694   1.713  0.0702  0.4367 -0.1529
 1685W        W 5204   3.893   0.895   9.566 -0.2682  0.0018  0.0066
 1686W        W 5205   8.137   0.080   3.749 -0.2902 -0.1963 -0.2097
 1687W        W 5206   1.333   4.291   2.697  0.2812  0.1846 -0.0930
 1688W        W 5207   5.345   4.279   2.044  0.2586 -0.0466 -0.2882
 1689W        W 5208   2.575   6.580  12.179  0.1225 -0.2006 -0.1141
 1690W        W 5209   0.322   4.709   1.735  0.0336  0.1581  0.1223
 1691W        W 5210   1.395   1.068  10.377 -0.1617  0.1160  0.4895
 1692W        W 5211   9.443   1.309  11.185  0.2078 -0.1094  0.0564
 1693W        W 5212   1.007   0.951  11.427 -0.0741  0.1764 -0.0740
 1694W        W 5213   7.560   7.746   8.891  0.0157 -0.0609 -0.0110
 1695W        W 5214   9.194   0.863   4.154 -0.5873  0.1025  0.0220
 1696W        W 5215   8.173   0.957  10.065 -0.0018  0.0830 -0.0290
 1697W        W 5216   6.362   3.038   2.404 -0.0899 -0.2254 -0.1915
 1698W        W 5217   4.849   3.952  11.425  0.3249 -0.1403  0.1614
 1699W        W 5218   1.442   1.503  12.147  0.1696  0.0513  0.3215
 1700W        W 5219   7.913   1.066   1.467 -0.0692  0.4224 -0.0607
 1701W        W 5220   0.422   4.358   2.906 -0.1563  0.1355  0.0069
 1702W        W 5221   9.373   1.101   2.475  0.0118 -0.0092  0.2312
 1703W        W 5222   5.219   0.885   1.737 -0.1760 -0.0045  0.3286
 1704W        W 5223   0.177   7.315  10.705  0.4243  0.0583 -0.0603
 1705W        W 5224   2.754   5.479  10.780 -0.0484 -0.1825 -0.0034
 1706W        W 5225   0.049   6.162   0.348  0.0867  0.0815  0.1597
 1707W        W 5226   9.595   5.774   4.095  0.0981  0.3145 -0.0148
 1708W        W 5227   3.471   8.880   0.281  0.4607 -0.0724  0.2230
 1709W        W 5228   0.010   3.100  12.312  0.1046  0.2735 -0.1319
 1710W        W 5229   3.921   0.679   3.767  0.0244  0.0502 -0.0023
 1711W        W 5230   6.999   6.540   1.530  0.0406  0.0546 -0.0667
 1712W        W 5231   3.096   5.922  10.160 -0.3445  0.2723  0.3793
 1713W        W 5232   6.214   6.204  11.755 -0.3325  0.1134  0.4133
 1714W        W 5233   0.967   6.948  10.178 -0.1541 -0.0793 -0.2228
 1715W        W 5234   8.614   9.133   9.137 -0.2037 -0.3154 -0.1094
 1716W        W 5235   1.436   6.509   9.561  0.0328  0.1977  0.2143
 1717W        W 5236   4.739   6.555   3.979  0.0814 -0.3756  0.1160
 1718W        W 5237   0.145   4.219   0.360  0.1594 -0.3416 -0.2362
 1719W        W 5238   7.659   8.311   3.360  0.0676 -0.0917 -0.4112
 1720W        W 5239   9.153   8.377   9.685  0.2390  0.1560 -0.4041
 1721W        W 5240   9.163   4.025  11.023  0.1681  0.1280  0.2419
 1722W        W 5241   5.857   0.810   9.425 -0.0883 -0.0533  0.2577
 1723W        W 5242   1.036   3.314   0.593  0.3217 -0.0138 -0.2218
 1724W        W 5243   9.305   6.954  10.238  0.1186 -0.1943  0.0816
 1725W        W 5244   3.454   6.953   9.002  0.0324  0.2418  0.0059
 1726W        W 5245   4.493   7.871   3.126  0.0148  0.1045 -0.1809
 1727W        W 5246   2.497   2.374   2.022 -0.1328  0.0138 -0.0415
 1728W        W 5247   2.395   0.379   0.523  0.1609  0.2943 -0.2224
 1729W        W 5248   5.334   0.526   1.341  0.2531  0.0730 -0.0430
 1730W        W 5249   3.958   0.203  11.390  0.0024  0.2551  0.1997
 1731W        W 5250   7.043   5.491   3.952 -0.2435 -0.2685  0.0793
 1732W        W 5251   2.769   9.664  10.342 -0.1168  0.1526  0.1793
 1733W        W 5252   5.059   4.269  12.219  0.0735  0.2343 -0.0126
 1734W        W 5253   3.801   9.231   4.743  0.0239  0.1981  0.3429
 1735W        W 5254   1.882   0.529   2.885 -0.1414 -0.2233  0.3741
 1736W        W 5255   4.995   9.139   0.503  0.0503 -0.2015  0.2535
 1737W        W 5256   3.830   2.264   9.701  0.1415  0.3303 -0.1256
 1738W        W 5257   2.945   4.905   1.654 -0.0052  0.1154 -0.1133
 1739W        W 5258   0.945   1.182   3.116 -0.1922 -0.2353  0.2331
 1740W        W 5259   8.910   3.649   0.573  0.1166  0.0287 -0.1931
 1741W        W 5260   3.723   4.008   2.166 -0.2535 -0.4387 -0.1985
 1742W        W 5261   1.898   2.173   9.492 -0.0558 -0.0724  0.0400
 1743W        W 5262   7.489   8.135  10.268 -0.0387 -0.1555 -0.3179
 1744W        W 5263   8.712   2.462   8.421  0.1739  0.0666  0.3426
 1745W        W 5264   9.413   8.111   3.089 -0.0673 -0.0881  0.0390
 1746W        W 5265   6.447   1.640   8.726 -0.0265  0.1255 -0.2133
 1747W        W 5266   1.576   0.900   9.429  0.1756  0.1243  0.0258
 1748W        W 5267   5.135   8.127   1.984  0.0597  0.0893 -0.3304
 1749W        W 5268   1.120   5.824  11.570 -0.1467 -0.1870  0.0613
 1750W        W 5269   6.055   4.316   0.848 -0.0026  0.1345 -0.0506
 1751W        W 5270   8.950   2.776   1.755 -0.1587  0.0953 -0.2248
 1752W        W 5271   4.159   9.313   8.591 -0.0823  0.1532  0.2087
 1753W        W 5272   7.933   5.254   8.537  0.2481 -0.1802 -0.0821
 1754W        W 5273   6.359   1.213   2.409 -0.3013  0.0565 -0.0034
 1755W        W 5274   1.179   9.371  11.805  0.0435 -0.0677  0.0612
 1756W        W 5275   2.868   3.080   2.927 -0.1257 -0.0115  0.1853
 1757W        W 5276   9.235   1.064   7.671 -0.0176  0.6221 -0.2368
 1758W        W 5277   2.856   1.910  10.375  0.2796 -0.4430  0.2491
 1759W        W 5278   5.837   2.212   1.271 -0.2052 -0.1060  0.0382
 1760W        W 5279   8.649   1.098  10.869  0.1316 -0.1222 -0.0118
 1761W        W 5280   7.265   3.356  10.090 -0.0562  0.0728 -0.2701
 1762W        W 5281   1.123   5.475  12.505  0.2114  0.0434 -0.2127
 1763W        W 5282   4.716   5.750   3.664  0.0063  0.1296 -0.2646
 1764W        W 5283   8.392   8.355   0.341  0.0239 -0.0075 -0.0834
 1765W        W 5284   1.715   6.091   4.691 -0.0639 -0.1131 -0.2435
 1766W        W 5285   8.085   0.450   8.506 -0.0298  0.1379  0.1627
 1767W        W 5286   8.987   0.778   1.747 -0.1374  0.1226 -0.0291
 1768W        W 5287   1.235   8.055   3.381 -0.2732 -0.1324  0.0350
 1769W        W 5288   1.486   6.926   1.276 -0.3056 -0.0935 -0.3516
 1770W        W 5289   2.445   3.393   2.224 -0.2157 -0.0580 -0.0782
 1771W        W 5290   8.836   3.500  10.244 -0.0053  0.0272  0.3435
 1772W        W 5291   2.136   6.679   0.861 -0.1079 -0.3927 -0.1645
 1773W        W 5292   3.989   0.780  12.024  0.2974  0.1151  0.0661
 1774W        W 5293   0.568   5.207   8.600  0.1530  0.3471  0.1430
 1775W        W 5294   7.420   9.587  10.015  0.0436  0.1544  0.2175
 1776W        W 5295   2.420   7.333  10.106  0.1715  0.0760  0.1719
 1777W        W 5296   3.501   9.332   2.222 -0.2970  0.1798 -0.4326
 1778W        W 5297   4.543   4.192   9.704 -0.0339 -0.0888 -0.0475
 1779W        W 5298   6.796   6.955   3.942 -0.2766 -0.0802  0.3651
 1780W        W 5299   2.990   1.670   2.989 -0.1732 -0.0245 -0.1364
 1781W        W 5300   9.313   6.390   9.057  0.1196  0.0325 -0.1283
 1782W        W 5301   7.331   6.322   3.567  0.1027 -0.0942  0.1375
 1783W        W 5302   6.077   9.467   3.316 -0.0226  0.0383  0.1622
 1784W        W 5303   8.345   8.001  12.379  0.1767 -0.0676  0.0251
 1785W        W 5304   9.045   0.319   3.000  0.0806  0.0343 -0.0202
 1786W        W 5305   2.707   4.455  12.193 -0.1805 -0.0052  0.0221
 1787W        W 5306   0.508   8.158   9.163 -0.0245 -0.1654  0.2188
 1788W        W 5307   8.077   1.564   2.593 -0.0352 -0.1326 -0.0737
 1789W        W 5308   8.717   3.707   9.058 -0.3678 -0.3854  0.2513
 1790W        W 5309   6.062   7.248   3.638  0.1538 -0.2538  0.1231
 1791W        W 5310   0.539   9.223   1.337  0.0417  0.0603 -0.1040
 1792W        W 5311   2.121   4.823   0.220 -0.1906  0.0112  0.2505
 1793W        W 5312   0.236   0.147   8.097  0.1582  0.0815 -0.1672
 1794W        W 5313   7.852   9.514   1.053 -0.0739  0.1114  0.3281
 1795W        W 5314   2.089   5.211   1.086  0.0742 -0.0933  0.1450
 1796W        W 5315   2.431   0.874   8.917 -0.0855 -0.1710  0.0319
 1797W        W 5316   1.172   8.982  12.404  0.4668  0.1927 -0.0464
 1798W        W 5317   5.189   0.839   8.877 -0.1220  0.2163 -0.2558
 1799W        W 5318   7.024   4.276  10.254 -0.1375 -0.0330 -0.0685
 1800W        W 5319   5.264   9.136  10.334  0.0905  0.1589 -0.0013
 1801W        W 5320   2.773   7.720   0.745  0.3449 -0.0529 -0.2705
 1802W        W 5321   4.496   8.640   2.381 -0.1493  0.4000 -0.1482
 1803W        W 5322   0.051   2.763   8.647 -0.3086  0.0817 -0.3921
 1804W        W 5323   2.066   1.530   2.529  0.0250  0.2544 -0.0657
 1805W        W 5324   6.940   4.607   2.184 -0.4116 -0.0939 -0.1234
 1806W        W 5325   3.100   1.163   1.661  0.3378  0.1067 -0.1771
 1807W        W 5326   9.298   8.066  11.458 -0.1420 -0.2188  0.0635
 1808W        W 5327   8.411   1.853   8.788  0.0616 -0.0943  0.1308
 1809W        W 5328   6.811   0.683   0.871 -0.1251  0.4854 -0.1501
 1810W        W 5329   7.623   2.739   0.268  0.0390  0.2135  0.1084
 1811W        W 5330   1.384   8.274   9.105 -0.0020 -0.2015 -0.0557
 1812W        W 5331   6.822   5.747   2.317 -0.3205  0.2144 -0.2890
 1813W        W 5332   0.212   2.701   2.546 -0.1475  0.1058 -0.0532
 1814W        W 5333   6.507   6.525   4.058 -0.3758 -0.0968  0.0618
 1815W        W 5334   4.382   5.591  10.514 -0.1384  0.1793 -0.0871
 1816W        W 5335   2.271   8.919   2.504 -0.1367 -0.1056 -0.0549
 1817W        W 5336   7.608   2.305   1.626 -0.3810  0.5013  0.2737
 1818W        W 5337   7.881   8.795   2.784 -0.1761  0.1174  0.2660
 1819W        W 5338   9.395   1.934   1.418 -0.1551  0.1635  0.0943
 1820W        W 5339   8.417   8.849   2.703  0.3499 -0.3370 -0.1158
 1821W        W 5340   5.421   7.056   1.060  0.3531 -0.1721 -0.2045
 1822W        W 5341   6.850   1.482  12.415 -0.1603  0.2351 -0.3960
 1823W        W 5342   5.030   5.501   0.299 -0.0990 -0.0862 -0.3580
 1824W        W 5343   0.839   5.229  10.276 -0.2487 -0.1939 -0.0356
 1825W        W 5344   7.360   5.909  10.824  0.0553 -0.3548  0.0712
 1826W        W 5345   3.522   6.877   3.096 -0.3198 -0.0353  0.1888
 1827W        W 5346   8.076   2.682   9.188 -0.2149 -0.0413  0.3811
 1828W        W 5347   9.001   6.088  11.218 -0.2639 -0.0241  0.0807
 1829W        W 5348   1.031   6.189  11.950  0.1509 -0.1676  0.0190
 1830W        W 5349   0.417   4.685  11.214  0.2229  0.0452 -0.0911
 1831W        W 5350   6.785   4.694  10.378 -0.1417 -0.1182  0.0934
 1832W        W 5351   8.304   3.116   9.873  0.0847  0.1745  0.5515
 1833W        W 5352   3.181   6.907  12.277 -0.0036  0.0029  0.2258
 1834W        W 5353   4.879   0.582   0.298 -0.0316 -0.0333  0.0746
 1835W        W 5354   0.911   0.670   3.021 -0.4098  0.1593  0.1444
 1836W        W 5355   0.107   5.454  10.415  0.2250 -0.1182  0.0469
 1837W        W 5356   7.873   6.533   3.576 -0.3270 -0.2595 -0.0218
 1838W        W 5357   9.220   1.597   9.396 -0.0314  0.3493  0.3020
 1839W        W 5358   6.811   7.721   8.229  0.1195 -0.0438 -0.3782
 1840W        W 5359   4.480   4.420   2.905  0.2468 -0.1271  0.2748
 1841W        W 5360   1.125   8.681   9.265  0.0678  0.1183 -0.3250
 1842W        W 5361   6.549   7.384   2.799 -0.0109  0.1476 -0.2474
 1843W        W 5362   6.219   8.866   8.632 -0.2386 -0.2489  0.1100
 1844W        W 5363   1.981   1.508   8.653 -0.2066 -0.1266 -0.1738
 1845W        W 5364   2.511   3.483   3.250 -0.1394  0.3683  0.1532
 1846W        W 5365   5.831   2.794   0.999  0.0318 -0.1029  0.0928
 1847W        W 5366   5.938   3.222   1.194 -0.0373 -0.1109 -0.3026
 1848W        W 5367   5.863   3.890   3.009 -0.0693  0.1906  0.0176
 1849W        W 5368   0.157   4.997   2.724  0.0681 -0.0253 -0.2307
 1850W        W 5369   7.654   2.058   1.148 -0.1791 -0.0357 -0.2619
 1851W        W 5370   6.881   6.310   1.045  0.0666 -0.0850 -0.0295
 1852W        W 5371   0.539   1.436   9.180  0.0244  0.0083  0.2781
 1853W        W 5372   4.346   1.129   8.641  0.2753 -0.0326 -0.1289
 1854W        W 5373   6.609   4.438  11.069  0.1110 -0.0838 -0.1016
 1855W        W 5374   2.257   6.991  12.316  0.2308 -0.1096 -0.0080
 1856W        W 5375   8.586   1.967   8.344 -0.0068 -0.1153  0.2766
 1857W        W 5376   0.821   4.116   2.690  0.2168  0.2536 -0.2129
 1858W        W 5377   8.354   8.581  11.408  0.2475  0.1745 -0.0779
 1859W        W 5378   4.890   6.599   9.795  0.4092 -0.1362 -0.1061
 1860W        W 5379   8.621   7.601   4.097  0.2957  0.3329  0.4450
 1861W        W 5380   9.014   5.120  11.700  0.0483 -0.0727 -0.1914
 1862W        W 5381   0.411   5.054  10.469  0.1842 -0.1490 -0.0508
 1863W        W 5382   8.608   6.974   0.168  0.1299 -0.0023 -0.0888
 1864W        W 5383   3.780   2.601   0.150 -0.0852  0.2361  0.1477
 1865W        W 5384   9.327   9.097   9.821 -0.3203 -0.3226 -0.0424
 1866W        W 5385   9.035   3.497   3.741  0.2752  0.0292 -0.1961
 1867W        W 5386   5.424   0.238   0.205  0.2904  0.0252 -0.1732
 1868W        W 5387   0.859   0.052   0.098 -0.1959  0.2160  0.1966
 1869W        W 5388   7.174   3.534   3.760  0.0401  0.3325 -0.1640
 1870W        W 5389   1.841   1.067   1.215  0.0104  0.0532 -0.0155
 1871W        W 5390   7.950   1.771   3.615 -0.3185 -0.0134  0.1121
 1872W        W 5391   2.049   0.105   3.139 -0.1595  0.0277 -0.1214
 1873W        W 5392   2.017   0.872  12.274  0.1909 -0.2057  0.0033
 1874W        W 5393   3.888   5.693  11.254  0.1610  0.0930 -0.0994
 1875W        W 5394   9.481   4.335   9.443 -0.2820  0.2267  0.2697
 1876W        W 5395   3.432   2.418   3.038 -0.1362 -0.4730  0.1285
 1877W        W 5396   7.500   3.253   3.475 -0.1285 -0.1933 -0.0648
 1878W        W 5397   3.343   0.443   0.703 -0.2819  0.1476  0.2658
 1879W        W 5398   2.621   1.190   8.214  0.1095 -0.0660  0.1549
 1880W        W 5399   2.509   0.659   9.730  0.2385 -0.1536 -0.1931
 1881W        W 5400   8.403   6.567  11.535  0.2086  0.1351 -0.2377
 1882W        W 5401   0.968   9.511   9.052  0.0733  0.1151 -0.3996
 1883W        W 5402   8.547   0.737  10.488  0.2718  0.2203 -0.0227
 1884W        W 5403   4.862   6.230  11.177 -0.2018  0.2228 -0.0632
 1885W        W 5404   2.778   3.996   0.444 -0.1899  0.1596 -0.0121
 1886W        W 5405   7.255   1.045   9.688  0.0888  0.0193  0.3317
 1887W        W 5406   0.736   7.582  11.397 -0.0534  0.3132 -0.4682
 1888W        W 5407   6.502   7.398   3.849 -0.3787 -0.0216 -0.1301
 1889W        W 5408   8.399   1.486  10.975  0.1744  0.4673  0.2365
 1890W        W 5409   4.642   9.019   4.581  0.0082  0.0450  0.0185
 1891W        W 5410   0.003   5.299   9.856 -0.4034 -0.2912 -0.4533
 1892W        W 5411   7.681   7.832  10.764  0.2066 -0.0882  0.2214
 1893W        W 5412   4.424   2.145   8.399  0.0410  0.3221 -0.2560
 1894W        W 5413   8.316   3.699   1.027  0.0810  0.1464 -0.3392
 1895W        W 5414   5.514   6.860  11.588 -0.1779 -0.1160 -0.3380
 1896W        W 5415   2.509   0.786  10.971  0.0193  0.1415 -0.1576
 1897W        W 5416   4.370   0.322  12.552 -0.2489 -0.0750 -0.1274
 1898W        W 5417   6.910   9.497   1.761 -0.1321 -0.3599 -0.1736
 1899W        W 5418   7.714   6.757   2.746 -0.1010  0.0090  0.2289
 1900W        W 5419   5.966   6.990  11.455  0.1386 -0.0825  0.2831
 1901W        W 5420   8.019   8.789   2.190 -0.0583  0.2256  0.1132
 1902W        W 5421   7.414   8.357  11.545 -0.0349 -0.0261 -0.0269
 1903W        W 5422   8.501   8.874  10.461  0.0274  0.2953  0.1693
 1904W        W 5423   4.845   6.994   2.798  0.0798 -0.0100  0.3298
 1905W        W 5424   0.347   0.010   3.989 -0.2526  0.0964 -0.1304
 1906W        W 5425   1.583   6.089  11.440  0.2566 -0.0130 -0.0652
 1907W        W 5426   7.748   3.149  11.083 -0.0442 -0.0572  0.3967
 1908W        W 5427   1.271   5.762   1.410  0.1329 -0.0420  0.2439
 1909W        W 5428   5.129   1.375   3.036 -0.1852  0.2407  0.1706
 1910W        W 5429   2.069   5.341  12.547 -0.1244 -0.0915 -0.4022
 1911W        W 5430   3.302   8.032   0.743 -0.0769 -0.0579 -0.0915
 1912W        W 5431   7.646   1.811   0.189  0.0029  0.0176  0.0135
 1913W        W 5432   3.183   4.420   2.187 -0.1302 -0.1088  0.0141
 1914W        W 5433   6.185   4.145  11.554 -0.2176 -0.2582  0.0749
 1915W        W 5434   5.319   9.398   1.558  0.0212 -0.0501  0.1507
 1916W        W 5435   8.129   6.572  11.909  0.0608 -0.3108  0.2801
 1917W        W 5436   7.923   1.495  11.757  0.1395  0.3060 -0.0231
 1918W        W 5437   1.890   7.465   0.596 -0.0616 -0.2021  0.0629
 1919W        W 5438   4.710   0.956  11.854 -0.0532  0.1359  0.1771
 1920W        W 5439   4.077   0.217  10.276 -0.0003 -0.3167 -0.1168
 1921W        W 5440   6.882   4.146   2.334 -0.2596  0.0888 -0.1166
 1922W        W 5441   0.541   3.880   8.310  0.0958  0.1011 -0.1192
 1923W        W 5442   7.838   4.117   8.580 -0.0024 -0.1427 -0.2161
 1924W        W 5443   1.179   2.181   3.495 -0.0049  0.3860  0.1305
 1925W        W 5444   6.735   1.900   2.745 -0.0245  0.2493  0.0668
 1926W        W 5445   6.896   8.928   2.502 -0.2151  0.2946  0.1535
 1927W        W 5446   0.503   8.327   8.122 -0.2013 -0.1575 -0.3499
 1928W        W 5447   5.671   4.214   0.540 -0.0186  0.0112 -0.1917
 1929W        W 5448   0.350   1.661   0.843 -0.2266 -0.2403 -0.1540
 1930W        W 5449   1.387   8.397   3.088 -0.1515 -0.2523  0.0839
 1931W        W 5450   8.985   6.567   3.767 -0.1517 -0.2125  0.0960
 1932W        W 5451   8.621   4.758   0.352 -0.1271 -0.0421  0.3059
 1933W        W 5452   4.404   0.168   9.712  0.7363  0.0982 -0.0072
 1934W        W 5453   5.668   4.992  12.580 -0.0961  0.0081 -0.1569
 1935W        W 5454   8.956   6.341   1.316  0.0673  0.0254 -0.0896
 1936W        W 5455   0.629   4.520   2.478 -0.3003 -0.0024 -0.0384
 1937W        W 5456   8.672   5.411   1.990 -0.0592  0.1228 -0.3056
 1938W        W 5457   0.409   6.782   3.255  0.0189 -0.2354  0.2064
 1939W        W 5458   2.774   7.571   9.769  0.1321  0.1054 -0.0183
 1940W        W 5459   7.672   1.495   3.326 -0.1474  0.0563  0.1211
 1941W        W 5460   4.293   6.825  11.553  0.1493  0.3239 -0.2340
 1942W        W 5461   7.421   1.520   8.451 -0.5909  0.1837  0.1258
 1943W        W 5462   6.289   0.837   1.524  0.2111 -0.0102 -0.2124
 1944W        W 5463   0.181   6.267   3.708  0.3635  0.2151  0.3233
 1945W        W 5464   0.396   5.687   1.727  0.0060 -0.1798  0.5786
 1946W        W 5465   0.060   8.613   2.384 -0.3029 -0.0008  0.1215
 1947W        W 5466   0.263   0.482  10.953  0.1670 -0.1872  0.3101
 1948W        W 5467   6.186   8.574   2.407 -0.0946  0.0939  0.0469
 1949W        W 5468   8.915   7.392   0.085 -0.4569 -0.0879  0.0940
 1950W        W 5469   1.748   9.161   9.098 -0.0604 -0.2949 -0.3166
 1951W        W 5470   9.433   3.740  11.985 -0.0216 -0.3367 -0.0533
 1952W        W 5471   0.132   9.485   8.619 -0.1170 -0.0172 -0.0557
 1953W        W 5472   6.307   6.402  10.108  0.1745  0.3168 -0.0768
 1954W        W 5473   2.872   7.249   0.709 -0.0606 -0.1358  0.0078
 1955W        W 5474   4.212   1.887   1.591 -0.2504  0.0832 -0.1965
 1956W        W 5475   6.090   4.946   0.726 -0.2016  0.2629 -0.2076
 1957W        W 5476   1.790   9.415  10.295 -0.0964 -0.1513  0.1876
 1958W        W 5477   6.482   4.415   2.311  0.1435 -0.3339  0.2199
 1959W        W 5478   3.406   1.467   9.893  0.6481  0.0130 -0.0984
 1960W        W 5479   2.461   6.148  11.330  0.2729 -0.1231 -0.0025
 1961W        W 5480   1.966   2.410  10.702 -0.2340 -0.0510 -0.0868
 1962W        W 5481   7.303   4.307   1.941  0.0951  0.2315  0.0764
 1963W        W 5482   0.038   2.227   9.699  0.3012  0.3121 -0.2785
 1964W        W 5483   3.534   8.032   2.875 -0.1150  0.0586 -0.0404
 1965W        W 5484   3.561   6.982   2.164 -0.1188 -0.0970  0.4632
 1966W        W 5485   6.248   8.125  10.755 -0.0393  0.3404  0.1738
 1967W        W 5486   5.929   5.898  11.377  0.1372  0.2399  0.1767
 1968W        W 5487   7.661   9.535   8.479 -0.3525 -0.1319 -0.1800
 1969W        W 5488   8.062   7.899  11.933  0.0736 -0.0073 -0.0477
 1970W        W 5489   4.682   8.269   0.422  0.1161  0.1076  0.1019
 1971W        W 5490   6.688   0.373  12.175  0.1977 -0.0265  0.3049
 1972W        W 5491   7.336   5.507  10.335 -0.1393 -0.0374  0.1548
 1973W        W 5492   9.297   4.009   4.492 -0.1278 -0.1076  0.3080
 1974W        W 5493   2.447   8.787  10.353 -0.2970 -0.0631  0.0968
 1975W        W 5494   1.356   6.264   2.546 -0.0427  0.0071 -0.2184
 1976W        W 5495   4.304   0.185  12.076  0.3984  0.2252  0.3249
 1977W        W 5496   0.231   0.614   9.302  0.2914  0.0487  0.1480
 1978W        W 5497   2.931   3.533   0.659 -0.0399  0.0138 -0.0250
 1979W        W 5498   6.291   4.962   9.639  0.1953  0.0278  0.4102
 1980W        W 5499   3.612   9.362   2.829 -0.1235  0.2751 -0.0722
 1981W        W 5500   3.262   8.013   1.238  0.0407  0.0596  0.1329
 1982W        W 5501   1.370   3.840   3.643  0.0203  0.0279  0.1550
 1983W        W 5502   4.680   6.962   1.295 -0.0405 -0.2663 -0.0393
 1984W        W 5503   5.354   0.815   3.731 -0.1042  0.0036  0.0344
 1985W        W 5504   0.661   8.874   9.879  0.0506  0.1378 -0.0719
 1986W        W 5505   6.173   4.131   0.423 -0.3282  0.2059 -0.3583
 1987W        W 5506   3.556   3.294  10.069 -0.1531 -0.5080  0.4949
 1988W        W 5507   7.706   0.712   9.303  0.5649  0.0666 -0.0424
 1989W        W 5508   4.464   0.781   0.031  0.3415 -0.0124  0.0717
 1990W        W 5509   8.368   5.807   3.382 -0.1334 -0.3231  0.0302
 1991W        W 5510   4.183   6.762   9.554  0.0528  0.2971 -0.1199
 1992W        W 5511   7.963   0.770   0.010 -0.0408 -0.3277 -0.0717
 1993W        W 5512   2.155   2.442   2.434 -0.1135  0.0489 -0.2853
 1994W        W 5513   2.179   4.099   1.735 -0.2153 -0.0751 -0.0583
 1995W        W 5514   5.508   1.975   1.039 -0.0957  0.2169  0.2330
 1996W        W 5515   3.383   0.944   3.153 -0.0871  0.1224  0.1375
 1997W        W 5516   6.048   5.294   8.568 -0.0662 -0.1128 -0.1596
 1998W        W 5517   1.036   1.139   2.161 -0.1992 -0.2494  0.0330
 1999W        W 5518   0.993   0.456  11.599  0.1027 -0.1067  0.1086
 2000W        W 5519   7.635   3.228   8.471 -0.0230  0.0387 -0.0291
 2001W        W 5520   7.425   3.824   0.368 -0.1180 -0.1212  0.1092
 2002W        W 5521   2.247   1.330   9.095  0.0651 -0.0602  0.0852
 2003W        W 5522   7.767   6.018   1.081 -0.1204 -0.3493 -0.2486
 2004W        W 5523   9.099   5.472   2.880 -0.1031  0.1352  0.1238
 2005W        W 5524   7.648   2.750  10.706 -0.2521 -0.2115  0.3559
 2006W        W 5525   2.609   9.506   1.979  0.0725 -0.1606 -0.2037
 2007W        W 5526   5.940   0.980   3.705 -0.0672  0.0070 -0.1346
 2008W        W 5527   7.621   1.870   3.990 -0.3460  0.2129  0.1255
 2009W        W 5528   6.454   3.636  11.281 -0.4035 -0.1905  0.1388
 2010W        W 5529   9.434   1.406   8.475  0.2454  0.2765  0.0066
 2011W        W 5530   2.230   1.992   0.462 -0.0367  0.2911 -0.0431
 2012W        W 5531   7.752   6.389   1.550  0.1120  0.1005 -0.1781
 2013W        W 5532   5.844   6.639   9.762  0.0200 -0.1433  0.1017
 2014W        W 5533   8.766   5.202   0.235 -0.3288  0.2497 -0.0226
 2015W        W 5534   5.884   8.565   1.203 -0.0438  0.0270  0.1709
 2016W        W 5535   4.944   0.738   1.066 -0.0421 -0.0011 -0.1991
 2017W        W 5536   9.132   4.745  11.203 -0.2303  0.0192 -0.5003
 2018W        W 5537   4.395   7.561  10.285 -0.0878 -0.0284  0.1252
 2019W        W 5538   8.831   2.018  10.788  0.2854 -0.1534  0.1717
 2020W        W 5539   5.688   7.171   8.738 -0.2269 -0.2087  0.1834
 2021W        W 5540   1.862   8.150  11.454  0.1397 -0.1681 -0.0688
 2022W        W 5541   4.920   2.812   0.558 -0.2751 -0.0895 -0.2371
 2023W        W 5542   5.728   0.492   3.562 -0.4875 -0.0642 -0.1022
 2024W        W 5543   1.304   1.682  11.086 -0.0996  0.2383  0.1744
 2025W        W 5544   1.717   5.772  10.561 -0.0535 -0.2813 -0.1615
 2026W        W 5545   5.317   5.279   2.076 -0.2727  0.1797  0.2507
 2027W        W 5546   9.019   7.345   8.915  0.1246 -0.0391 -0.2481
 2028W        W 5547   9.596   2.065   3.621 -0.2573  0.1086 -0.0304
 2029W        W 5548   4.748   8.106  12.444 -0.0436 -0.0997  0.0949
 2030W        W 5549   9.396   5.906   9.107  0.2818 -0.0732  0.2852
 2031W        W 5550   7.647   1.138   2.633  0.2183 -0.3811  0.1483
 2032W        W 5551   8.473   5.178   0.678  0.0062  0.1699 -0.0760
 2033W        W 5552   7.758   2.040   3.168  0.2745 -0.0177  0.1446
 2034W        W 5553   2.823   5.397   1.585  0.0029  0.0519  0.2683
 2035W        W 5554   4.735   9.616  12.373 -0.2577  0.0577 -0.3339
 2036W        W 5555   8.868   7.945   7.568  0.2955 -0.1474  0.1680
 2037W        W 5556   1.556   0.855   8.490  0.2364 -0.0744  0.0863
 2038W        W 5557   5.355   7.274  10.129 -0.0207 -0.0616 -0.1113
 2039W        W 5558   8.096   7.653   8.846 -0.1075  0.2179  0.0031
 2040W        W 5559   6.129   5.272   1.762 -0.3098  0.1393 -0.0223
 2041W        W 5560   4.021   8.467   9.350  0.4235 -0.0195  0.0155
 2042W        W 5561   9.578   8.119  10.364  0.0118 -0.1168 -0.1204
 2043W        W 5562   2.964   3.820   2.125  0.1331 -0.0029  0.1820
 2044W        W 5563   3.975   5.605   3.220  0.1735  0.0977 -0.2521
 2045W        W 5564   3.512   3.113   1.278  0.0927 -0.1821  0.2482
 2046W        W 5565   5.683   0.427  12.346 -0.1051 -0.1676 -0.1845
 2047W        W 5566   5.050   9.620   8.955  0.0261  0.2409  0.0712
 2048W        W 5567   6.980   7.478  12.185 -0.0788  0.0416  0.0457
 2049W        W 5568   1.137   7.111  11.571 -0.0468  0.0831 -0.1364
 2050W        W 5569   4.081   9.564   2.932  0.0672 -0.1548  0.0184
 2051W        W 5570   8.089   3.641   2.595  0.1021 -0.0532  0.0130
 2052W        W 5571   2.067   1.183   9.607  0.0818  0.0876  0.0542
 2053W        W 5572   8.363   2.353   8.987  0.0343  0.0628 -0.3238
 2054W        W 5573   2.405   4.057  11.030 -0.1746 -0.0729 -0.4544
 2055W        W 5574   7.027   0.300  11.204  0.0723 -0.2351  0.1599
 2056W        W 5575   2.241   8.282  12.387  0.1265  0.1230 -0.0591
 2057W        W 5576   8.871   1.030   3.207 -0.0183  0.0342 -0.0556
 2058W        W 5577   8.612   6.916   0.739  0.0106 -0.1638 -0.0719
 2059W        W 5578   4.105   9.251   1.029 -0.0763 -0.1947 -0.0871
 2060W        W 5579   8.910   2.573   2.572  0.2464  0.2000  0.2812
 2061W        W 5580   7.283   0.387   7.856  0.0315  0.1479 -0.2391
 2062W        W 5581   0.592   6.977   3.718  0.1160 -0.0800 -0.1407
 2063W        W 5582   8.195   1.782   0.007 -0.0908  0.2913  0.2423
 2064W        W 5583   4.658   3.766   2.630 -0.2963  0.1385  0.1277
 2065W        W 5584   7.296   5.030   3.710 -0.1277 -0.1117  0.0020
 2066W        W 5585   7.105   7.494   2.921  0.0397  0.0667 -0.2079
 2067W        W 5586   8.105   5.265   2.718  0.0136 -0.0584 -0.3540
 2068W        W 5587   8.289   3.755  12.527 -0.0008 -0.0153  0.2242
 2069W        W 5588   3.952   6.853   0.157 -0.0797  0.0030  0.0562
 2070W        W 5589   4.927   5.757   9.690  0.0921  0.1415  0.0949
 2071W        W 5590   1.007   9.419  10.024  0.2847 -0.0096  0.0570
 2072W        W 5591   6.073   2.786   2.697  0.3504 -0.1836 -0.0656
 2073W        W 5592   2.395   5.701  12.458 -0.3229  0.0524  0.0702
 2074W        W 5593   2.666   8.944  11.732 -0.2520 -0.1921  0.0213
 2075W        W 5594   7.800   4.926   8.905 -0.1266 -0.0957  0.1073
 2076W        W 5595   8.975   0.632  11.474 -0.3052  0.0159  0.2435
 2077W        W 5596   2.806   2.461   9.633  0.2404 -0.2570 -0.0200
 2078W        W 5597   0.533   7.928   9.635  0.2188  0.3468 -0.1665
 2079W        W 5598   1.128   2.980  11.721  0.1549  0.0955  0.1805
 2080W        W 5599   2.148   6.022   9.715  0.1514 -0.1909  0.3787
 2081W        W 5600   6.009   5.681  12.022 -0.1193 -0.0020  0.0412
 2082W        W 5601   9.491   7.684   8.252 -0.1126  0.0743 -0.0378
 2083W        W 5602   3.375   7.428   9.207  0.0969 -0.0153 -0.1705
 2084W        W 5603   3.267   7.809   3.288  0.3602  0.3819 -0.0431
 2085W        W 5604   1.990   3.185   2.033  0.2580 -0.0053  0.0369
 2086W        W 5605   0.913   9.632   1.264 -0.2773 -0.0952  0.0650
 2087W        W 5606   0.806   6.575  11.790 -0.0642 -0.3632 -0.3626
 2088W        W 5607   6.599   1.476   0.879  0.0503 -0.2514  0.2724
 2089W        W 5608   6.894   3.609  11.581  0.0573  0.0606  0.0137
 2090W        W 5609   6.463   2.359   0.551  0.1290 -0.1950  0.3443
 2091W        W 5610   6.194   8.214   3.245 -0.0635  0.0939 -0.1849
 2092W        W 5611   1.351   2.578  10.577 -0.3389  0.0224 -0.0786
 2093W        W 5612   0.592   0.124  12.123  0.3929  0.2725 -0.1336
 2094W        W 5613   0.649   7.237   1.731 -0.1478  0.0011  0.2413
 2095W        W 5614   5.930   5.929   0.129 -0.5486 -0.0527  0.1238
 2096W        W 5615   7.515   7.361  10.723  0.0191  0.0817 -0.0770
 2097W        W 5616   0.176   6.793  10.703  0.2363 -0.0678  0.0929
 2098W        W 5617   3.902   7.630  12.249 -0.0430  0.1280  0.0769
 2099W        W 5618   8.136   9.591   0.623  0.1860  0.3150 -0.0668
 2100W        W 5619   1.135   4.902   3.770  0.0225 -0.0676  0.1622
 2101W        W 5620   2.719   7.874   1.250  0.1800  0.0352  0.3240
 2102W        W 5621   8.788   8.067  10.007 -0.0003 -0.1965  0.0387
 2103W        W 5622   6.007   4.968  10.049  0.3614 -0.1682  0.0818
 2104W        W 5623   6.644   2.616   2.552  0.2099  0.0814  0.1394
 2105W        W 5624   1.637   0.375   3.273  0.1809 -0.2074  0.0485
 2106W        W 5625   0.843   7.875   1.510  0.1192 -0.1560 -0.1427
 2107W        W 5626   9.247   3.217   1.909 -0.0831  0.4038 -0.2114
 2108W        W 5627   6.723   8.289   3.213 -0.2575  0.2897  0.0532
 2109W        W 5628   7.227   2.041   9.629 -0.3593  0.1671  0.2272
 2110W        W 5629   1.252   5.117  10.035 -0.0979  0.1124 -0.0973
 2111W        W 5630   9.381   4.753   2.655  0.0645  0.0513 -0.1113
 2112W        W 5631   1.018   2.278  12.325 -0.1860 -0.2969 -0.0343
 2113W        W 5632   2.343   6.015  12.081  0.2272 -0.1501  0.1345
 2114W        W 5633   6.474   7.424  12.143 -0.0397  0.2087 -0.0199
 2115W        W 5634   1.717   3.835  10.981  0.5633 -0.1689 -0.0388
 2116W        W 5635   7.384   6.284   1.872  0.1543  0.2004  0.2433
 2117W        W 5636   1.849   4.348  11.671  0.0761 -0.0664 -0.3246
 2118W        W 5637   9.430   2.187  11.446 -0.0058 -0.0455  0.0386
 2119W        W 5638   2.687   3.881   1.716  0.2790 -0.0090  0.0171
 2120W        W 5639   0.966   1.350   7.959 -0.3160 -0.0225  0.0967
 2121W        W 5640   8.768   3.334   9.323  0.0565 -0.0381 -0.1441
 2122W        W 5641   0.055   3.270   1.825 -0.0802  0.0919 -0.0108
 2123W        W 5642   8.932   7.306   9.988  0.1063 -0.1281 -0.2138
 2124W        W 5643   3.560   3.359  12.180  0.0370  0.0583  0.1575
 2125W        W 5644   4.729   0.963  10.016  0.1876  0.3936 -0.1832
 2126W        W 5645   3.202   6.140   1.814 -0.0653  0.0404 -0.1846
 2127W        W 5646   0.782   3.958   3.661  0.0346  0.0756  0.0135
 2128W        W 5647   9.503   4.000   2.279 -0.0385 -0.1090 -0.0918
 2129W        W 5648   6.857   5.142   1.463  0.0516 -0.1306  0.0021
 2130W        W 5649   6.328   1.040   0.657 -0.0396  0.4490  0.0146
 2131W        W 5650   3.612   4.726  10.097 -0.2560 -0.0654  0.1794
 2132W        W 5651   2.497   0.663  11.447  0.0597 -0.2142  0.2005
 2133W        W 5652   3.169   1.368  11.673  0.0636  0.0191  0.5809
 2134W        W 5653   9.420   7.329   9.888  0.3327 -0.1092 -0.0166
 2135W        W 5654   9.249   5.222   9.548 -0.1912  0.1942 -0.0956
 2136W        W 5655   3.141   1.494   0.494  0.2965  0.2077  0.1686
 2137W        W 5656   2.054   1.570   9.957 -0.2311  0.0552  0.2055
 2138W        W 5657   6.376   3.123   3.459  0.0170 -0.3727  0.0377
 2139W        W 5658   5.827   3.620   2.001  0.2671  0.1419  0.3587
 2140W        W 5659   9.490   4.488  10.968  0.3651  0.5070  0.0037
 2141W        W 5660   9.281   5.561  10.151  0.1142 -0.0930 -0.0752
 2142W        W 5661   0.270   6.583   8.236 -0.2398  0.1928  0.0580
 2143W        W 5662   7.027   1.727  11.809  0.1939  0.0309  0.0600
 2144W        W 5663   7.830   3.375   1.585 -0.3390 -0.1626 -0.0743
 2145W        W 5664   6.682   3.134  12.438 -0.0066 -0.1013  0.2417
 2146W        W 5665   0.123   4.832  11.779  0.0645 -0.0023  0.0754
 2147W        W 5666   1.056   7.463   2.459  0.0191  0.1540  0.1480
 2148W        W 5667   1.594   5.162   0.505 -0.1969 -0.1695 -0.0458
 2149W        W 5668   5.343   2.931   0.849  0.3601  0.0850  0.1257
 2150W        W 5669   0.109   1.140   2.808 -0.0764  0.3175 -0.1520
 2151W        W 5670   9.469   2.580   9.441  0.2043 -0.0199 -0.0592
 2152W        W 5671   2.048   1.093   1.717  0.1419 -0.0414  0.1291
 2153W        W 5672   6.628   7.430   9.066 -0.2627 -0.2235 -0.2604
 2154W        W 5673   0.738   4.645   1.475  0.3962 -0.0592  0.1556
 2155W        W 5674   8.154   4.797   8.513  0.2343 -0.0036  0.1540
 2156W        W 5675   5.158   7.480   0.176 -0.1600 -0.1622 -0.0201
 2157W        W 5676   6.417   9.339   3.656 -0.0704  0.0658  0.0916
 2158W        W 5677   5.049   6.971  11.419  0.1748  0.1383 -0.0293
 2159W        W 5678   8.964   5.849   3.354 -0.3201  0.2509 -0.2374
 2160W        W 5679   6.364   8.602  10.784 -0.1971  0.0959 -0.4007
 2161W        W 5680   7.173   8.276   3.610  0.1977  0.0180 -0.0735
 2162W        W 5681   2.860   4.035  11.878  0.1347  0.1645 -0.1198
 2163W        W 5682   0.662   5.333   3.848  0.0710 -0.1754  0.0504
 2164W        W 5683   2.524   2.928  11.323 -0.1419  0.0007 -0.0015
 2165W        W 5684   6.497   9.313  10.065  0.1404  0.1238 -0.0358
 2166W        W 5685   2.345   7.455   2.142  0.1863 -0.3002 -0.2723
 2167W        W 5686   2.008   6.010  11.108  0.1341 -0.0290  0.1803
 2168W        W 5687   2.662   5.058  11.134 -0.0711 -0.1129 -0.1493
 2169W        W 5688   5.619   1.164   9.105  0.1833  0.2340  0.1642
 2170W        W 5689   2.464   3.160  11.808 -0.0609  0.2641 -0.0998
 2171W        W 5690   5.254   5.856   9.291 -0.1385  0.0232 -0.4978
 2172W        W 5691   0.813   1.418  11.294 -0.1104 -0.1454  0.2212
 2173W        W 5692   1.499   6.770   0.176 -0.0956  0.0019  0.1417
 2174W        W 5693   9.077   1.586  10.606 -0.0093  0.0043  0.1656
 2175W        W 5694   8.444   2.323   0.512  0.2247 -0.0317 -0.3353
 2176W        W 5695   8.083   2.424   1.389  0.1474  0.2038 -0.4195
 2177W        W 5696   8.564   6.268  11.225 -0.1792 -0.1722 -0.0633
 2178W        W 5697   4.752   1.935  11.380  0.0517 -0.2166  0.1074
 2179W        W 5698   4.222   9.145  11.540  0.1899 -0.0813 -0.0507
 2180W        W 5699   4.469   0.476  10.099 -0.4736  0.1855  0.0648
 2181W        W 5700   4.049   3.139  12.117  0.0492  0.2023  0.1298
 2182W        W 5701   6.707   2.473   1.201 -0.0948  0.3807  0.0978
 2183W        W 5702   7.484   5.969   1.495  0.3399  0.0316  0.0848
 2184W        W 5703   1.245   8.555  10.474 -0.1942  0.1703  0.1815
 2185W        W 5704   3.390   2.111   1.743 -0.1605 -0.1038 -0.0890
 2186W        W 5705   8.501   2.480   3.376  0.1067  0.0586  0.0586
 2187W        W 5706   2.310   6.875   1.830 -0.2165 -0.0241 -0.3238
 2188W        W 5707   5.176   1.089   2.204 -0.1278 -0.2114  0.2796
 2189W        W 5708   0.193   5.133  12.359 -0.0188  0.1878 -0.0517
 2190W        W 5709   2.790   8.170   3.515  0.0791  0.0016  0.2378
 2191W        W 5710   7.710   7.763   0.607  0.0840 -0.0143 -0.0254
 2192W        W 5711   6.875   1.217  10.756  0.3132  0.0451 -0.5423
 2193W        W 5712   9.498   1.576   7.961 -0.2476 -0.3645 -0.1817
 2194W        W 5713   2.217   3.651  10.828  0.0158  0.2581 -0.0273
 2195W        W 5714   3.135   5.889   2.787  0.0790 -0.1156 -0.1895
 2196W        W 5715   9.498   3.846   0.276 -0.2325 -0.2893 -0.2650
 2197W        W 5716   0.760   1.773  10.352  0.4446 -0.2292  0.0235
 2198W        W 5717   6.184   8.643  12.578  0.1848  0.3001  0.1367
 2199W        W 5718   6.328   1.727   9.210  0.2335 -0.0089 -0.0886
 2200W        W 5719   5.237   6.113  10.909  0.2311  0.0433  0.1078
 2201W        W 5720   0.033   2.303   7.434  0.0875  0.2041  0.2627
 2202W        W 5721   7.402   1.060   1.270  0.1716 -0.0250 -0.4524
 2203W        W 5722   8.525   0.479   1.077  0.2740  0.1325  0.3175
 2204W        W 5723   3.975   2.779   1.495  0.1774 -0.0814  0.0866
 2205W        W 5724   8.882   6.985   2.483 -0.2017  0.0251 -0.0019
 2206W        W 5725   4.471   9.606   4.105  0.0538  0.1948  0.3262
 2207W        W 5726   6.269   0.379   2.796 -0.2937  0.5394  0.0105
 2208W        W 5727   2.591   4.196   2.095  0.2114  0.1533 -0.0137
 2209W        W 5728   8.218   7.899   0.475  0.0685  0.3560 -0.0146
 2210W        W 5729   4.609   0.217   3.587  0.0452 -0.0366 -0.2423
 2211W        W 5730   0.653   8.129  12.169  0.2990  0.0214 -0.0905
 2212W        W 5731   6.885   2.754  12.204  0.2850 -0.0741  0.1549
 2213W        W 5732   4.674   4.467   1.085 -0.4007 -0.0268  0.0856
 2214W        W 5733   6.742   9.267   0.428  0.2935 -0.2363 -0.1330
 2215W        W 5734   3.669   5.722  12.237 -0.1031 -0.1648  0.1595
 2216W        W 5735   7.983   8.394   9.647  0.1036 -0.3097  0.2435
 2217W        W 5736   1.060   0.161  10.342 -0.2535 -0.1570 -0.5650
 2218W        W 5737   5.691   8.141   9.641 -0.0181 -0.1185  0.1137
 2219W        W 5738   3.510   7.800   4.169 -0.1971  0.2540 -0.0652
 2220W        W 5739   3.698   0.223   3.893 -0.2035 -0.2941 -0.2937
 2221W        W 5740   1.097   9.074   0.300 -0.0134  0.1813  0.1396
 2222W        W 5741   5.799   4.155   1.841  0.0679  0.2426 -0.2700
 2223W        W 5742   5.606   6.730   8.526  0.0627 -0.0659  0.0657
 2224W        W 5743   0.825   2.421   3.195  0.0635 -0.0590 -0.2322
 2225W        W 5744   2.395   3.566   0.863 -0.2001  0.1472  0.0401
 2226W        W 5745   6.824   5.096   3.446  0.0197  0.1686  0.1967
 2227W        W 5746   2.192   9.362   2.850  0.2108 -0.1324  0.0721
 2228W        W 5747   0.900   9.205   3.169 -0.2052 -0.2570 -0.2344
 2229W        W 5748   6.701   7.372   4.292  0.0407  0.0676  0.0436
 2230W        W 5749   4.746   8.962  11.533  0.1201  0.0298 -0.0292
 2231W        W 5750   7.438   3.249   4.794 -0.0530  0.0966 -0.1337
 2232W        W 5751   9.323   5.285   2.092  0.1999 -0.1924  0.2856
 2233W        W 5752   7.418   2.782  11.824 -0.4352 -0.2024 -0.2451
 2234W        W 5753   0.038   2.191   8.734 -0.1089  0.1525 -0.3607
 2235W        W 5754   1.654   6.660   3.962  0.0838 -0.0091 -0.2184
 2236W        W 5755   1.784   1.798  11.216  0.1732  0.0053  0.3233
 2237W        W 5756   3.476   2.646   1.495 -0.1005  0.1256  0.0891
 2238W        W 5757   5.943   2.350  12.321  0.0519 -0.2811 -0.0022
 2239W        W 5758   7.361   6.411  12.163 -0.0569  0.2582 -0.1525
 2240W        W 5759   3.465   5.647   0.114  0.1947 -0.0550  0.0472
 2241W        W 5760   8.790   6.819  10.202 -0.1369 -0.0325 -0.1536
 2242W        W 5761   5.441   0.365   2.578  0.0454 -0.1378  0.2201
 2243W        W 5762   3.845   7.969  11.909  0.3771 -0.2294 -0.1123
 2244W        W 5763   5.322   0.823   9.404 -0.0008  0.2111 -0.1126
 2245W        W 5764   0.062   2.166  11.091 -0.1644 -0.0062 -0.0586
 2246W        W 5765   4.070   1.061   1.536 -0.0752 -0.0551 -0.2889
 2247W        W 5766   1.281   7.494  11.228 -0.1492  0.1526 -0.0014
 2248W        W 5767   7.226   6.896   8.593  0.1759 -0.1612  0.2529
 2249W        W 5768   5.115   5.360   1.193 -0.2981  0.2789 -0.1554
 2250W        W 5769   3.237   0.024   0.957 -0.0627 -0.0984 -0.0263
 2251W        W 5770   2.267   0.153   2.107 -0.1000 -0.3194  0.0771
 2252W        W 5771   1.233   1.465   9.408 -0.3765 -0.0190  0.2269
 2253W        W 5772   3.951   1.810   3.359 -0.1259 -0.2464 -0.2905
 2254W        W 5773   0.436   7.745   1.895 -0.1186 -0.2462  0.4212
 2255W        W 5774   9.008   1.538   3.169  0.1581 -0.1307 -0.0295
 2256W        W 5775   1.431   4.799   2.705  0.2232 -0.0210 -0.0674
 2257W        W 5776   4.421   6.320  11.441  0.0529 -0.0632  0.0684
 2258W        W 5777   3.447   8.341  10.614  0.3153  0.1375  0.0747
 2259W        W 5778   0.219   6.713   1.018  0.2113  0.1602 -0.1817
 2260W        W 5779   6.947   0.047   3.243  0.3712 -0.2009  0.1149
 2261W        W 5780   0.961   1.595   2.754  0.0547  0.0633  0.3287
 2262W        W 5781   9.158   4.772   9.380 -0.4055 -0.0712  0.2517
 2263W        W 5782   5.296   6.829   9.831 -0.2783 -0.3544  0.2261
 2264W        W 5783   8.392   0.550  10.911  0.1988 -0.1365 -0.2447
 2265W        W 5784   0.923   7.200  11.032 -0.1243 -0.2035  0.1116
 2266W        W 5785   0.627   8.557   9.411 -0.0932  0.0161  0.0462
 2267W        W 5786   3.955   6.999   9.119  0.0325 -0.1507  0.0400
 2268W        W 5787   8.939   7.487   2.304  0.4519  0.0624 -0.1710
 2269W        W 5788   7.507   2.810   4.466  0.0224 -0.3192  0.0912
 2270W        W 5789   4.119   2.117  10.082  0.1106 -0.0185  0.1296
 2271W        W 5790   9.279   0.327   1.815 -0.3555 -0.1787 -0.0561
 2272W        W 5791   9.522   9.204   9.325 -0.2611  0.3352  0.0636
 2273W        W 5792   0.996   7.967  10.461  0.0440 -0.3112 -0.0340
 2274W        W 5793   4.711   4.366  10.151  0.2115 -0.0415  0.0803
 2275W        W 5794   6.369   0.629   8.566  0.1430 -0.0237  0.1446
 2276W        W 5795   5.346   8.657   3.441 -0.2057 -0.0668 -0.0989
 2277W        W 5796   9.316   8.382   2.224  0.1777  0.0237 -0.1488
 2278W        W 5797   0.441   1.364  11.635 -0.1892 -0.2183 -0.1521
 2279W        W 5798   4.915   7.118  12.514  0.1590 -0.1309 -0.3487
 2280W        W 5799   0.997   0.430   9.237 -0.1068 -0.3945  0.3298
 2281W        W 5800   9.677   0.079  11.998  0.0916 -0.3632 -0.0421
 2282W        W 5801   9.063   0.601  10.379  0.0562  0.4226 -0.1661
 2283W        W 5802   8.787   2.341  11.283 -0.1192  0.0851 -0.0254
 2284W        W 5803   8.107   7.482   9.594  0.2439  0.0729  0.2204
 2285W        W 5804   8.475   2.073   7.804 -0.0664  0.1429 -0.1042
 2286W        W 5805   4.428   2.523  11.998 -0.0448 -0.1062  0.1355
 2287W        W 5806   8.237   0.363   4.784  0.0216  0.0137 -0.2269
 2288W        W 5807   1.545   2.986   1.823 -0.0713  0.1244 -0.4014
 2289W        W 5808   3.703   5.123   2.300 -0.1521 -0.0468  0.0453
 2290W        W 5809   6.272   1.973  12.099 -0.2221 -0.2297 -0.0064
 2291W        W 5810   4.655   3.133   0.961 -0.1458 -0.0422 -0.3654
 2292W        W 5811   3.883   6.251   0.347 -0.3499  0.1073  0.1303
 2293W        W 5812   0.496   6.236   1.531 -0.1144  0.0190 -0.1009
 2294W        W 5813   8.836   0.985   7.301  0.3783  0.1504 -0.1370
 2295W        W 5814   1.077   2.041   1.015 -0.5053 -0.0652 -0.1051
 2296W        W 5815   2.222   5.141   2.664  0.0708 -0.1189 -0.2364
 2297W        W 5816   0.006   5.668   0.099 -0.1375 -0.0372 -0.0360
 2298W        W 5817   4.520   2.791   9.061  0.1632  0.1432 -0.0823
 2299W        W 5818   8.396   7.321   0.982  0.0956 -0.2396 -0.0356
 2300W        W 5819   8.856   8.339  10.704  0.0733  0.3325  0.0864
 2301W        W 5820   6.152   0.662  10.732 -0.1067  0.1653 -0.2163
 2302W        W 5821   0.477   0.138  10.344 -0.1956 -0.2348 -0.0464
 2303W        W 5822   9.588   7.136   3.306  0.0099  0.0021  0.1847
 2304W        W 5823   8.083   3.553  11.635 -0.0763  0.1777 -0.0457
 2305W        W 5824   6.239   9.425   2.803  0.0220  0.3511  0.0378
 2306W        W 5825   8.519   7.554   9.246  0.3144  0.2573  0.0735
 2307W        W 5826   4.408   0.629   8.784  0.0024 -0.0673  0.3481
 2308W        W 5827   2.719   6.352   0.364  0.0221  0.0881  0.4209
 2309W        W 5828   1.623   0.369   8.682 -0.2602  0.1578  0.2207
 2310W        W 5829   1.809   7.334   9.288 -0.0172 -0.2796 -0.1141
 2311W        W 5830   6.286   3.589  10.109 -0.0060  0.0241  0.0373
 2312W        W 5831   3.884   8.574  10.742 -0.1855  0.0293  0.0008
 2313W        W 5832   6.963   1.428   1.304 -0.4638  0.1551 -0.2186
 2314W        W 5833   1.531   2.631  11.527  0.3962  0.1209 -0.1508
 2315W        W 5834   3.642   8.940   3.313 -0.0272  0.0193 -0.0327
 2316W        W 5835   0.584   0.597  11.396  0.1259 -0.0413 -0.1493
 2317W        W 5836   4.725   6.327   3.505 -0.2272 -0.0437  0.1237
 2318W        W 5837   6.033   2.839   3.734 -0.0690 -0.0874 -0.1417
 2319W        W 5838   8.837   1.990   1.348  0.0860  0.1684 -0.3038
 2320W        W 5839   2.051   1.794   0.030 -0.3783 -0.1452  0.0002
 2321W        W 5840   4.821   6.869   8.855 -0.1272 -0.0816 -0.0035
 2322W        W 5841   2.155   9.306   4.296 -0.0239  0.0721  0.3026
 2323W        W 5842   5.201   8.692  10.603 -0.0194 -0.0028  0.1961
 2324W        W 5843   8.202   2.529  11.906  0.1959  0.2754  0.0753
 2325W        W 5844   5.384   3.808   1.981  0.0524  0.2869  0.0543
 2326W        W 5845   7.310   9.231   0.460  0.1041 -0.1686  0.0676
 2327W        W 5846   3.536   8.365   9.380 -0.1386 -0.0916 -0.1075
 2328W        W 5847   1.912   4.594  12.414  0.1016  0.1017  0.4340
 2329W        W 5848   4.173   0.982  10.855 -0.1339 -0.1290 -0.0489
 2330W        W 5849   7.754   3.696   3.451  0.2538  0.0070 -0.1951
 2331W        W 5850   1.694   7.091   2.813 -0.0396 -0.2081  0.0638
 2332W        W 5851   9.289   1.662   8.894 -0.3723 -0.1228 -0.0683
 2333W        W 5852   6.988   8.990   0.800  0.3619  0.2088 -0.2224
 2334W        W 5853   9.139   7.749   0.506 -0.0255  0.0754 -0.0736
 2335W        W 5854   4.312   2.393   1.708  0.0152 -0.1011 -0.0310
 2336W        W 5855   0.657   7.352  10.092  0.0602 -0.1723 -0.1581
 2337W        W 5856   2.830   8.739   0.069  0.0435 -0.2910 -0.1030
 2338W        W 5857   2.588   1.744   9.085  0.2277  0.1391  0.1715
 2339W        W 5858   9.181   4.070   0.664 -0.4481 -0.2390 -0.1243
 2340W        W 5859   9.561   2.855  10.258  0.0033  0.0118  0.0361
 2341W        W 5860   2.636   2.334   1.108  0.0438 -0.0447  0.3181
 2342W        W 5861   0.335   5.783   3.792  0.3122  0.0872 -0.2480
 2343W        W 5862   2.596   7.728   8.913  0.1247 -0.2458  0.1595
 2344W        W 5863   1.908   7.185   8.821  0.1141 -0.0289 -0.2612
 2345W        W 5864   4.152   3.238   3.177  0.0768 -0.0205 -0.3826
 2346W        W 5865   7.640   4.402   2.713 -0.1375  0.1670 -0.0816
 2347W        W 5866   7.942   2.362  10.567 -0.1621  0.0205  0.1269
 2348W        W 5867   2.501   1.655  11.266  0.1707 -0.2189 -0.1859
 2349W        W 5868   0.957   6.820   3.241 -0.1291  0.0889  0.1018
 2350W        W 5869   0.552   6.900   9.839  0.0370  0.2284 -0.2305
 2351W        W 5870   1.401   4.880  10.421  0.2168 -0.5069 -0.2826
 2352W        W 5871   1.639   5.680   3.666 -0.0542  0.3729  0.0462
 2353W        W 5872   2.703   1.676   8.306 -0.1803  0.1655 -0.2474
 2354W        W 5873   0.739   9.125   4.054  0.1116  0.2581  0.3466
 2355W        W 5874   7.001   6.046  12.411 -0.0906 -0.1894  0.1324
 2356W        W 5875   6.207   6.250   1.886  0.0559 -0.3650  0.3920
 2357W        W 5876   5.361   3.805   0.607 -0.2417 -0.2085 -0.0138
 2358W        W 5877   7.785   2.177  12.448  0.0962  0.2953  0.3466
 2359W        W 5878   3.119   2.585   9.084  0.0524 -0.4423 -0.1529
 2360W        W 5879   5.478   8.641   9.397  0.1627  0.0622  0.5695
 2361W        W 5880   0.570   8.933  10.333 -0.2011 -0.1890  0.0610
 2362W        W 5881   6.216   6.031   0.668  0.0916 -0.2549 -0.0563
 2363W        W 5882   1.985   1.560   1.152 -0.2680 -0.5230  0.0094
 2364W        W 5883   3.417   1.381   0.888 -0.0302 -0.2226 -0.0847
 2365W        W 5884   1.064   0.001   9.504  0.2094 -0.3000 -0.1582
 2366W        W 5885   2.938   0.643   3.200 -0.1892 -0.2678  0.0855
 2367W        W 5886   1.014   1.848  11.473 -0.0922 -0.2663  0.1999
 2368W        W 5887   0.380   5.479   2.831 -0.1175  0.1389  0.2058
 2369W        W 5888   8.473   7.707  12.008 -0.0180 -0.3077  0.0746
 2370W        W 5889   2.078   6.601  10.620  0.0360 -0.2845  0.0101
 2371W        W 5890   0.711   2.099   0.167 -0.0713  0.0476 -0.2212
 2372W        W 5891   8.479   3.302   3.360 -0.0286 -0.0533  0.2307
 2373W        W 5892   9.243   3.165   1.032  0.1777 -0.2927  0.2231
 2374W        W 5893   4.719   7.233   8.544  0.3071 -0.3362 -0.1433
 2375W        W 5894   8.761   9.446   1.396 -0.0959  0.1219  0.0453
 2376W        W 5895   5.181   0.368   9.261 -0.0370  0.1097 -0.3010
 2377W        W 5896   6.648   4.276   1.176 -0.0646  0.1607 -0.1274
 2378W        W 5897   2.183   3.767  11.923 -0.0605 -0.2409 -0.1090
 2379W        W 5898   0.293   4.418   9.820  0.0519  0.3003 -0.0034
 2380W        W 5899   7.383   2.439   2.470  0.0384 -0.1587 -0.1012
 2381W        W 5900   5.420   9.117  11.139  0.2252 -0.0382  0.4209
 2382W        W 5901   4.897   8.761   4.188  0.0439 -0.0402  0.0208
 2383W        W 5902   8.837   4.388  11.525 -0.1409  0.1929  0.0085
 2384W        W 5903   6.359   7.269   0.037  0.0972 -0.1252  0.0978
 2385W        W 5904   2.264   1.235   3.371  0.3212 -0.2611  0.3021
 2386W        W 5905   1.943   4.983   3.233  0.0104  0.3064  0.0280
 2387W        W 5906   5.699   4.252   8.496 -0.0783  0.0597 -0.0456
 2388W        W 5907   5.840   5.292  11.130 -0.0060 -0.2011 -0.1590
 2389W        W 5908   9.056   3.992  10.136  0.0368  0.0599  0.0003
 2390W        W 5909   5.354   1.484   0.997 -0.0864  0.0302  0.1567
 2391W        W 5910   5.626   4.013  10.281 -0.2190  0.2509  0.0061
 2392W        W 5911   6.375   8.632   0.979 -0.3842 -0.1184 -0.2548
 2393W        W 5912   9.263   2.151   0.174  0.4878  0.2573 -0.2655
 2394W        W 5913   1.505   7.646   3.656  0.4409  0.0151 -0.0847
 2395W        W 5914   0.899   9.142   0.895  0.0782  0.1580 -0.0107
 2396W        W 5915   1.045   0.722   0.589  0.0720 -0.0746  0.2525
 2397W        W 5916   6.340   5.794   2.054 -0.0463  0.1682 -0.1330
 2398W        W 5917   2.353   5.035   9.368 -0.2617 -0.1427  0.1654
 2399W        W 5918   8.263   5.688   1.956  0.1944 -0.0206  0.1753
 2400W        W 5919   3.276   6.406  10.165  0.2670  0.6482  0.2024
 2401W        W 5920   2.220   0.434   8.901  0.2023  0.1650 -0.2082
 2402W        W 5921   4.697   7.076  12.026  0.0695 -0.1791  0.2037
 2403W        W 5922   8.619   9.421   4.019 -0.1497  0.3615 -0.0133
 2404W        W 5923   7.879   2.144   7.716  0.1299  0.4157  0.3145
 2405W        W 5924   7.026   3.543  10.526 -0.2670  0.2505 -0.0939
 2406W        W 5925   7.604   5.492   8.117 -0.0434  0.0679 -0.0003
 2407W        W 5926   3.531   6.172  11.992  0.1364 -0.0130 -0.4061
 2408W        W 5927   8.284   2.480   3.909  0.1566 -0.1389  0.1005
 2409W        W 5928   8.157   1.233  11.325 -0.3718 -0.0018  0.0575
 2410W        W 5929   5.524   9.678   9.213 -0.5006 -0.0356  0.1062
 2411W        W 5930   5.518   5.953  12.437 -0.1767 -0.1543 -0.0070
 2412W        W 5931   9.561   3.521   8.752 -0.1018 -0.0836  0.1888
 2413W        W 5932   6.520   4.694   3.296  0.0100  0.2849  0.1266
 2414W        W 5933   9.171   6.377  12.006 -0.4422  0.1000  0.1050
 2415W        W 5934   7.120   4.441   2.651 -0.0934 -0.3613 -0.3021
 2416W        W 5935   4.889   3.294  12.088  0.0886 -0.1173  0.0026
 2417W        W 5936   9.502   1.207   3.640 -0.1552 -0.2513 -0.1793
 2418W        W 5937   8.256   1.828   0.474  0.1603 -0.3231 -0.0246
 2419W        W 5938   8.836   4.808   9.891 -0.3346  0.2354  0.0727
 2420W        W 5939   4.900   1.558   9.564  0.1058 -0.0376 -0.2684
 2421W        W 5940   8.151   6.222   0.656 -0.2326  0.0425 -0.0270
 2422W        W 5941   3.049   8.026  11.780  0.0763 -0.0670 -0.1933
 2423W        W 5942   7.355   9.055   4.411  0.0340  0.0030  0.0689
 2424W        W 5943   4.712   6.436   0.581 -0.0351 -0.1516 -0.0244
 2425W        W 5944   2.793   7.114   8.473  0.0283  0.3668  0.1285
 2426W        W 5945   3.992   6.624   1.154 -0.1421 -0.0295  0.0343
 2427W        W 5946   7.547   3.847   9.748 -0.0431  0.0222 -0.1683
 2428W        W 5947   5.820   2.224  10.277  0.2453 -0.1545 -0.3688
 2429W        W 5948   0.977   0.962   9.276  0.1750 -0.0503  0.2533
 2430W        W 5949   7.462   5.500   4.172 -0.1633  0.2845 -0.0742
 2431W        W 5950   1.564   1.408   1.608 -0.2383 -0.0196  0.1233
 2432W        W 5951   3.757   8.053   1.609  0.0737  0.3438  0.1179
 2433W        W 5952   0.856   3.479   9.620  0.4261 -0.0164 -0.3216
 2434W        W 5953   7.997   8.381  12.238  0.0567 -0.0708 -0.0786
 2435W        W 5954   7.665   8.362  10.707 -0.0989  0.0895 -0.1342
 2436W        W 5955   8.623   6.362  10.276 -0.2337 -0.0246  0.0237
 2437W        W 5956   3.977   1.979   3.887 -0.3232 -0.1035 -0.5800
 2438W        W 5957   0.607   7.948  11.650 -0.1870  0.2063 -0.0263
 2439W        W 5958   0.791   1.965   2.440 -0.0672 -0.2032 -0.3210
 2440W        W 5959   3.113   7.456  10.567  0.1832  0.1603  0.2250
 2441W        W 5960   2.612   4.231   1.356 -0.0910 -0.4296  0.1720
 2442W        W 5961   3.087   6.644   1.900 -0.1056  0.0793  0.0324
 2443W        W 5962   1.472   5.139   9.477 -0.0653  0.2968 -0.2082
 2444W        W 5963   6.922   3.000   9.901  0.3256 -0.0141 -0.0980
 2445W        W 5964   5.952   7.164   5.242  0.0898  0.1803  0.2427
 2446W        W 5965   8.799   5.307   8.886  0.2089 -0.1041 -0.0335
 2447W        W 5966   9.588   8.371   0.413  0.1175  0.3264  0.0670
 2448W        W 5967   2.732   7.190  12.243 -0.3178 -0.1944  0.1786
 2449W        W 5968   2.406   7.180   9.068  0.0721 -0.1518  0.0461
 2450W        W 5969   4.192   6.474  10.043 -0.3502 -0.0064 -0.1522
 2451W        W 5970   2.679   0.377  12.332  0.0874 -0.1242  0.1520
 2452W        W 5971   8.900   0.656  10.867  0.0664  0.0251  0.1459
 2453W        W 5972   5.122   4.235   3.638 -0.2549 -0.0968 -0.0182
 2454W        W 5973   6.773   8.949  11.259 -0.0191 -0.2494  0.0127
 2455W        W 5974   4.390   1.317   9.690  0.1040  0.1735  0.1255
 2456W        W 5975   0.347   3.752  10.340  0.0817  0.0347  0.0709
 2457W        W 5976   7.952   1.497   4.220 -0.0942 -0.3077 -0.0319
 2458W        W 5977   4.864   0.454   3.153  0.0819 -0.1033  0.4236
 2459W        W 5978   1.797   2.788   2.219 -0.1321  0.1767 -0.0406
 2460W        W 5979   6.664   6.191   4.378 -0.2811 -0.0307 -0.5079
 2461W        W 5980   8.133   7.557   3.170  0.0439 -0.0595  0.0235
 2462W        W 5981   4.000   7.825  11.320 -0.0579 -0.4971 -0.0632
 2463W        W 5982   2.392   0.304  11.795 -0.1325 -0.1720 -0.4464
 2464W        W 5983   3.234   3.267   0.332 -0.1197  0.4961  0.2107
 2465W        W 5984   0.196   8.940   3.393 -0.2340 -0.1120  0.0915
 2466W        W 5985   9.193   4.627  10.337 -0.0223 -0.0291  0.4685
 2467W        W 5986   4.711   8.808   1.312  0.2714 -0.0834 -0.2076
 2468W        W 5987   8.847   2.436   8.880 -0.0411 -0.0235 -0.0901
 2469W        W 5988   0.134   3.259  10.228 -0.1179 -0.0276  0.0246
 2470W        W 5989   0.382   2.891  10.452  0.0195 -0.1151 -0.1743
 2471W        W 5990   9.298   8.951   0.969  0.1113  0.2714  0.3077
 2472W        W 5991   0.574   4.055   2.007  0.0055  0.1186  0.1882
 2473W        W 5992   7.938   5.582   2.288 -0.1247 -0.0296  0.0646
 2474W        W 5993   3.202   7.142   0.234 -0.3212 -0.1873  0.2087
 2475W        W 5994   1.781   5.598   9.665 -0.1122 -0.1266  0.0996
 2476W        W 5995   6.475   0.884   9.994  0.0001  0.0936 -0.3186
 2477W        W 5996   8.589   4.402   1.278  0.0738  0.0353 -0.1450
 2478W        W 5997   2.984   6.382   2.632  0.2519 -0.1014 -0.2937
 2479W        W 5998   0.659   0.478   1.550 -0.0358  0.0376 -0.0658
 2480W        W 5999   2.492   4.612  10.496  0.2911 -0.0861 -0.0294
 2481W        W 6000   0.152   5.976   2.796 -0.0071 -0.1735  0.0386
 2482W        W 6001   7.670   4.439   4.157  0.1053  0.1636  0.2653
 2483W        W 6002   5.509   7.851   8.620 -0.2730 -0.3099  0.1493
 2484W        W 6003   0.054   1.271  12.267  0.0476  0.0016 -0.1694
 2485W        W 6004   3.612   3.856  10.093 -0.1528 -0.0664  0.0003
 2486W        W 6005   6.811   8.267   8.039 -0.0880 -0.0499 -0.0816
 2487W        W 6006   7.938   3.678   2.105  0.0868  0.1920 -0.3179
 2488W        W 6007   5.339   1.600  10.837 -0.4744  0.0466  0.0845
 2489W        W 6008   7.696   9.001   9.127 -0.1514  0.0307  0.1388
 2490W        W 6009   7.071   6.988   9.800 -0.3240 -0.0413 -0.0968
 2491W        W 6010   3.390   0.050   3.554  0.1035 -0.0789  0.3292
 2492W        W 6011   2.078   7.192   0.173 -0.1594  0.2545 -0.0497
 2493W        W 6012   4.098   9.176   0.462  0.2460 -0.0469  0.2422
 2494W        W 6013   3.911   9.196   4.267  0.1553 -0.3908  0.1006
 2495W        W 6014   4.179   0.553   0.376 -0.1204  0.1783 -0.2020
 2496W        W 6015   5.847   0.393  11.345 -0.0317 -0.2479  0.0629
 2497W        W 6016   5.544   6.752   9.353 -0.1271  0.0403 -0.0911
 2498W        W 6017   5.824   3.230   2.290 -0.1028  0.0568 -0.0211
 2499W        W 6018   6.935   9.065  12.172  0.0785 -0.0674 -0.1544
 2500W        W 6019   4.621   4.639   1.625  0.0846 -0.2138  0.0995
 2501W        W 6020   3.873   2.244   1.520  0.0849 -0.2058  0.0486
 2502W        W 6021   1.095   4.263   9.998 -0.2002  0.1151 -0.2853
 2503W        W 6022   1.985   7.630  10.124 -0.1255  0.0670  0.1631
 2504W        W 6023   7.166   6.729  11.317  0.1471 -0.0106  0.1122
 2505W        W 6024   7.075   2.372  12.404  0.1381 -0.3362 -0.0502
 2506W        W 6025   6.174   7.414   8.911 -0.1353  0.1643 -0.2949
 2507W        W 6026   1.622   2.992  11.873 -0.0604  0.3595  0.0740
 2508W        W 6027   9.534   0.596  11.919  0.2109 -0.1109 -0.1180
 2509W        W 6028   2.719   0.482   8.882 -0.0063 -0.1081  0.1389
 2510W        W 6029   6.986   6.449   3.172 -0.1857  0.1358  0.0903
 2511W        W 6030   4.573   5.579   0.520  0.0234 -0.3110 -0.0622
 2512W        W 6031   1.645   6.277  10.832  0.2214  0.1629  0.0620
 2513W        W 6032   7.271   1.533   9.959 -0.1751 -0.0349  0.1354
 2514W        W 6033   3.277   8.559   0.637 -0.0137  0.2024 -0.1411
 2515W        W 6034   1.296   6.979   0.665  0.0754 -0.0411 -0.1989
 2516W        W 6035   4.260   6.777   3.843 -0.0530 -0.2207  0.0846
 2517W        W 6036   1.783   1.621   9.473 -0.0027  0.0626  0.0036
 2518W        W 6037   0.794   5.030  12.502 -0.1261  0.1423  0.4052
 2519W        W 6038   8.554   3.870   2.519  0.2471 -0.1133  0.0870
 2520W        W 6039   5.982   3.907  12.326 -0.2043  0.1799 -0.0926
 2521W        W 6040   4.855   4.452  11.316 -0.0503  0.2284  0.0777
 2522W        W 6041   4.657   3.639  11.046 -0.1078 -0.0066  0.1688
 2523W        W 6042   2.139   8.445   0.691 -0.0699 -0.1893  0.2141
 2524W        W 6043   5.068   5.085   9.211  0.3955 -0.0280  0.0882
 2525W        W 6044   0.524   6.116  12.173 -0.1706 -0.0360  0.0591
 2526W        W 6045   8.717   3.183   1.831  0.0746  0.1193  0.0507
 2527W        W 6046   1.617   1.940   9.824  0.0072 -0.4269 -0.2062
 2528W        W 6047   5.289   6.770   2.756 -0.0698 -0.1274  0.1555
 2529W        W 6048   5.673   5.271   0.900 -0.0587  0.0841  0.1557
 2530W        W 6049   8.792   4.409  12.514 -0.2535 -0.0267 -0.0155
 2531W        W 6050   9.157   5.504  12.039  0.0750 -0.0061  0.0077
 2532W        W 6051   3.229   8.474   3.632 -0.0482  0.1439  0.4230
 2533W        W 6052   2.965   0.319   1.348  0.2761 -0.0442 -0.2549
 2534W        W 6053   7.098   3.001   3.716  0.1526 -0.3127  0.1536
 2535W        W 6054   6.714   6.162  10.221 -0.0222 -0.4076 -0.2230
 2536W        W 6055   9.106   6.155   2.202  0.2740 -0.0014  0.2279
 2537W        W 6056   2.356   0.812   3.083 -0.0255 -0.0869  0.1220
 2538W        W 6057   1.107   2.708   3.520  0.3350 -0.0480 -0.0894
 2539W        W 6058   7.460   1.448  11.933 -0.2707 -0.0335 -0.1135
 2540W        W 6059   8.528   7.346   1.458 -0.0664  0.1824  0.0995
 2541W        W 6060   3.521   2.221  10.137 -0.2039 -0.1513  0.1025
 2542W        W 6061   7.266   8.101   0.713  0.0376  0.3943  0.4493
 2543W        W 6062   4.054   7.507   0.185 -0.0562 -0.0394  0.0342
 2544W        W 6063   4.524   3.325   0.393  0.1627  0.1815 -0.2260
 2545W        W 6064   2.774   4.683   2.114 -0.0798 -0.1750 -0.1329
 2546W        W 6065   3.656   0.006  10.999 -0.1121  0.0214 -0.1250
 2547W        W 6066   3.074   4.387   0.378 -0.0353  0.3406 -0.0799
 2548W        W 6067   9.371   9.366   8.721  0.1764  0.3305  0.0159
 2549W        W 6068   1.693   0.110   0.430  0.2149 -0.1527  0.1692
 2550W        W 6069   3.157   5.452   9.944 -0.0136  0.1079  0.0107
 2551W        W 6070   8.025   8.958  10.242 -0.0109 -0.5383  0.2215
 2552W        W 6071   0.715   5.112   1.189 -0.2334  0.1331  0.4492
 2553W        W 6072   1.536   3.501   1.984  0.2676  0.1345 -0.3464
 2554W        W 6073   7.318   2.153   2.863 -0.1858  0.0548  0.0044
 2555W        W 6074   4.777   6.002   9.256  0.0731 -0.0136  0.2782
 2556W        W 6075   9.139   5.445  12.558  0.1311  0.3180 -0.1630
 2557W        W 6076   4.388   0.766   2.326  0.1771  0.4421 -0.0659
 2558W        W 6077   5.992   1.313   3.222  0.1546  0.0128 -0.2876
 2559W        W 6078   6.619   4.910  11.944 -0.0106 -0.1886 -0.3250
 2560W        W 6079   8.833   6.981   1.202 -0.1921 -0.0208 -0.0721
 2561W        W 6080   7.316   8.924   1.384 -0.0223 -0.1124 -0.0913
 2562W        W 6081   9.299   6.565   4.581 -0.1259  0.0656  0.2861
 2563W        W 6082   3.870   0.190   9.828  0.0949  0.3048 -0.1776
 2564W        W 6083   7.728   0.581   2.616 -0.1051  0.0562  0.1941
 2565W        W 6084   2.392   1.252   2.814  0.3381 -0.1214 -0.0043
 2566W        W 6085   0.628   7.396   2.277 -0.0984  0.0588 -0.1923
 2567W        W 6086   8.840   4.006   3.944 -0.1250  0.0561 -0.0854
 2568W        W 6087   0.572   7.666   7.205 -0.0040  0.1468 -0.0850
 2569W        W 6088   4.374   6.049   0.282  0.0511 -0.0596  0.1509
 2570W        W 6089   7.434   5.529   9.327  0.0861  0.0590  0.2534
 2571W        W 6090   7.075   2.258   9.040 -0.2431  0.3116 -0.1734
 2572W        W 6091   3.733   6.473  10.670 -0.0846  0.0560 -0.1082
 2573W        W 6092   9.319   5.677   8.234 -0.2044  0.0972 -0.2448
 2574W        W 6093   8.097   3.154   0.314  0.2614  0.5092  0.1048
 2575W        W 6094   5.923   9.453   0.987 -0.0281  0.0385 -0.1880
 2576W        W 6095   1.305   9.533   0.224 -0.0305 -0.2569 -0.0373
 2577W        W 6096   8.098   8.393   0.813 -0.0607  0.1599  0.0812
 2578W        W 6097   4.532   2.017  10.348  0.1974 -0.2519  0.0457
 2579W        W 6098   0.437   5.042   0.313  0.1494  0.0278 -0.1782
 2580W        W 6099   4.385   7.632   3.778 -0.0265  0.0122 -0.0302
 2581W        W 6100   4.734   3.803  10.052  0.0808  0.0384 -0.3222
 2582W        W 6101   5.288   6.152   3.313  0.1744  0.1248 -0.1633
 2583W        W 6102   8.388   4.627  11.643 -0.1628  0.0789 -0.1393
 2584W        W 6103   4.785   6.939   1.800 -0.0208 -0.0906 -0.0989
 2585W        W 6104   8.546   9.452  11.392 -0.1110 -0.1177 -0.1340
 2586W        W 6105   7.175   7.722  10.765 -0.0413 -0.0539 -0.2704
 2587W        W 6106   3.488   0.962   9.919 -0.1234 -0.1178  0.1640
 2588W        W 6107   1.442   0.263   1.410 -0.5492 -0.1692 -0.1099
 2589W        W 6108   2.486   7.540   3.016  0.0025  0.0442  0.2522
 2590W        W 6109   2.135   7.501   9.613 -0.0384 -0.4400 -0.3293
 2591W        W 6110   1.545   1.795   8.830 -0.2308 -0.1372  0.0919
 2592W        W 6111   5.482   1.224   0.503 -0.0164 -0.0905 -0.4099
 2593W        W 6112   9.249   1.531  12.147  0.1995  0.0920 -0.2034
 2594W        W 6113   8.874   9.334   3.595  0.1719  0.0854 -0.1079
 2595W        W 6114   8.394   9.186   3.531 -0.2402 -0.3295  0.0048
 2596W        W 6115   5.403   9.008   2.653 -0.2682  0.1658  0.3444
 2597W        W 6116   4.651   6.209   1.560 -0.1132 -0.0841  0.0548
 2598W        W 6117   5.813   0.093  10.849  0.1659  0.2373  0.0101
 2599W        W 6118   7.029   8.934   1.771 -0.0800  0.0884  0.0593
 2600W        W 6119   0.194   8.039  12.483 -0.0686  0.0809 -0.2689
 2601W        W 6120   4.271   2.506   0.224  0.4222 -0.2946  0.1149
 2602W        W 6121   5.543   9.373  10.747 -0.0531 -0.1456 -0.1618
 2603W        W 6122   2.527   0.321  11.072  0.3006  0.4921  0.0816
 2604W        W 6123   5.634   3.402  12.039 -0.0212  0.0591 -0.2165
 2605W        W 6124   5.013   4.424   1.480 -0.3016  0.2304  0.1082
 2606W        W 6125   1.727   2.647   2.780  0.3135 -0.0650 -0.0127
 2607W        W 6126   5.961   2.003   2.190  0.2935 -0.4927 -0.1732
 2608W        W 6127   1.570   3.408   3.823  0.1429  0.0766 -0.3215
 2609W        W 6128   7.895   6.070   0.146  0.0667  0.1018  0.1231
 2610W        W 6129   1.032   9.457   8.457  0.0356 -0.1711 -0.1351
 2611W        W 6130   0.486   0.116   9.833 -0.1504  0.2048  0.0379
 2612W        W 6131   3.604   2.091  11.298 -0.2515 -0.0699 -0.0362
 2613W        W 6132   2.488   5.439   2.352  0.0741 -0.0369  0.0637
 2614W        W 6133   0.356   2.216  12.163  0.2702 -0.1289  0.0209
 2615W        W 6134   6.177   0.193   1.053  0.0400  0.1287 -0.1523
 2616W        W 6135   6.021   6.758   8.815  0.0130  0.0374 -0.0565
 2617W        W 6136   6.978   5.945   8.190  0.0102 -0.0087 -0.0568
 2618W        W 6137   4.178   5.417  10.974 -0.0885 -0.0065  0.1412
 2619W        W 6138   5.224   9.055   3.837 -0.2178  0.3134  0.2222
 2620W        W 6139   9.673   6.012  12.279 -0.0007 -0.3338 -0.2847
 2621W        W 6140   1.544   1.623   2.774  0.0232 -0.0100  0.1272
 2622W        W 6141   3.655   8.222   3.326  0.0471 -0.1605 -0.0069
 2623W        W 6142   9.203   4.276   0.228 -0.1607 -0.1265 -0.0450
 2624W        W 6143   2.586   1.196   9.421  0.1472 -0.0919 -0.0031
 2625W        W 6144   5.720   8.191  10.730  0.1472 -0.0178 -0.1271
 2626W        W 6145   7.084   4.409  11.372  0.1684  0.4529 -0.0085
 2627W        W 6146   4.939   8.743  11.084 -0.1182 -0.0085  0.2270
 2628W        W 6147   2.542   9.352   9.597  0.2971 -0.1863 -0.0407
 2629W        W 6148   6.277   6.961   3.963  0.0115 -0.0440 -0.0543
 2630W        W 6149   6.222   6.901   0.595 -0.2923  0.1284  0.0227
 2631W        W 6150   1.976   0.058   8.538  0.1946 -0.0165  0.0706
 2632W        W 6151   5.671   7.707  12.132  0.0886 -0.1042  0.1743
 2633W        W 6152   2.239   5.311   0.470 -0.0239  0.1509  0.3161
 2634W        W 6153   6.483   7.728  10.210 -0.2454  0.0886 -0.0934
 2635W        W 6154   8.749   0.646   9.544  0.0663 -0.0591 -0.0095
 2636W        W 6155   8.557   9.460   9.679  0.0460 -0.3010 -0.2406
 2637W        W 6156   2.160   2.941   2.606 -0.0281 -0.1872 -0.0199
 2638W        W 6157   3.818   1.797  10.529  0.0017 -0.0340 -0.5571
 2639W        W 6158   1.649   6.103   9.733  0.3580 -0.2451 -0.1736
 2640W        W 6159   1.009   0.095   8.108  0.1621  0.0340  0.3623
 2641W        W 6160   0.667   1.948  11.856  0.0629 -0.1558 -0.1711
 2642W        W 6161   0.456   6.249   0.795  0.0880  0.1282 -0.1164
 2643W        W 6162   4.467   7.125   3.596 -0.2779  0.0786  0.0148
 2644W        W 6163   0.207   6.701   7.578 -0.3113  0.0589  0.0369
 2645W        W 6164   6.956   9.453  11.161  0.2456 -0.1630 -0.0919
 2646W        W 6165   2.234   4.038   9.844  0.2441 -0.1253  0.0924
 2647W        W 6166   6.204   1.075   1.961  0.1007  0.1827  0.0300
 2648W        W 6167   6.207   1.982  10.096  0.2714 -0.0421  0.1997
 2649W        W 6168   5.760   5.236  12.035 -0.1759  0.1235  0.2100
 2650W        W 6169   7.960   8.382  11.640 -0.5175 -0.2014 -0.3267
 2651W        W 6170   1.839   6.970   0.532 -0.4316 -0.0493 -0.2633
 2652W        W 6171   3.798   8.967   2.402 -0.2932 -0.0086  0.0509
 2653W        W 6172   4.928   8.574   2.712  0.0179  0.1001  0.1179
 2654W        W 6173   3.763   3.709   2.585 -0.1040 -0.1876  0.3354
 2655W        W 6174   4.476   4.613  12.324  0.3342  0.1430 -0.2452
 2656W        W 6175   3.982   7.567   9.079 -0.1481 -0.1031 -0.4442
 2657W        W 6176   8.528   0.192   3.003 -0.3180 -0.2074 -0.0222
 2658W        W 6177   8.826   2.417   7.914 -0.1800 -0.0141 -0.1176
 2659W        W 6178   1.227   9.219   4.273  0.2988 -0.0304  0.0187
 2660W        W 6179   8.719   5.635  10.466 -0.2079  0.1493 -0.2656
 2661W        W 6180   6.508   1.801   0.475  0.0355 -0.1433 -0.0227
 2662W        W 6181   7.444   7.464   0.061  0.3287  0.2396 -0.5483
 2663W        W 6182   9.359   1.913   9.737  0.0069  0.2258 -0.3050
 2664W        W 6183   1.313   3.324   1.521 -0.1342 -0.0066 -0.3249
 2665W        W 6184   0.586   7.590  10.513 -0.0447 -0.2116  0.0566
 2666W        W 6185   8.715   8.868   3.768 -0.2498 -0.1414 -0.1501
 2667W        W 6186   4.287   8.380  12.480  0.1296  0.0808  0.1282
 2668W        W 6187   1.897   1.806  12.074 -0.3117  0.1358  0.1929
 2669W        W 6188   1.647   4.694   0.405  0.1182 -0.0922  0.0475
 2670W        W 6189   1.545   5.705  10.068  0.2369 -0.0602  0.0950
 2671W        W 6190   8.647   0.702   2.826  0.0644  0.2667 -0.0330
 2672W        W 6191   7.399   0.703   4.081  0.0936  0.0301  0.0639
 2673W        W 6192   7.453   0.001  10.571 -0.0393  0.1038 -0.1199
 2674W        W 6193   8.751   3.166  12.059  0.0112  0.4105  0.1008
 2675W        W 6194   0.926   7.977   3.814  0.1848  0.0762 -0.0238
 2676W        W 6195   7.687   7.780  12.325 -0.2706 -0.0253  0.1712
 2677W        W 6196   3.579   5.554   1.612  0.1572 -0.0964 -0.2215
 2678W        W 6197   6.410   0.949   9.483  0.1922 -0.0773 -0.4432
 2679W        W 6198   3.826   8.284   0.566  0.1347  0.0001  0.0466
 2680W        W 6199   1.612   5.719  11.839  0.1112 -0.5717  0.2221
 2681W        W 6200   4.542   1.098   3.783  0.2394  0.1615  0.3093
 2682W        W 6201   7.826   8.883  11.514 -0.4754 -0.1241 -0.1519
 2683W        W 6202   3.495   7.247  10.113 -0.3783  0.2023 -0.4268
 2684W        W 6203   4.172   1.565   2.316  0.4061  0.3975 -0.0396
 2685W        W 6204   1.042   7.980  11.376  0.0432 -0.1691  0.1899
 2686W        W 6205   2.906   5.017  12.104 -0.4421  0.2521  0.1098
 2687W        W 6206   1.323   7.046   2.519  0.0236  0.1194 -0.2466
 2688W        W 6207   0.982   8.783  11.128 -0.3385  0.1788 -0.0238
 2689W        W 6208   7.281   6.245  11.663 -0.0075 -0.0183 -0.0771
 2690W        W 6209   6.551   3.369   9.546 -0.3681  0.0641  0.0442
 2691W        W 6210   8.043   5.811  11.922 -0.1910 -0.0333 -0.1198
 2692W        W 6211   5.410   1.205  11.815 -0.0112 -0.0065 -0.0273
 2693W        W 6212   4.013   7.487   1.326 -0.2883  0.2623 -0.0859
 2694W        W 6213   2.296   3.407   1.330 -0.0007 -0.4358  0.1037
 2695W        W 6214   5.009   2.851   1.292 -0.0641 -0.2559 -0.2688
 2696W        W 6215   4.596   6.405   8.952  0.2162  0.1295  0.0933
 2697W        W 6216   5.074   7.680   2.526  0.1328 -0.0681 -0.0826
 2698W        W 6217   3.080   2.281   1.407  0.0505 -0.2601  0.0948
 2699W        W 6218   3.218   3.908   0.236 -0.3070 -0.0065 -0.0059
 2700W        W 6219   1.229   5.266   2.725  0.2249  0.0562 -0.3969
 2701W        W 6220   7.841   4.113  12.452 -0.1727  0.0429 -0.0997
 2702W        W 6221   6.537   7.576   9.587  0.1816  0.1211 -0.1063
 2703W        W 6222   9.442   0.375   9.328  0.0167  0.0464 -0.2620
 2704W        W 6223   5.726   3.125   2.795 -0.1334 -0.4025 -0.1664
 2705W        W 6224   1.845   2.048   0.863  0.0639 -0.4974  0.0543
 2706W        W 6225   7.527   2.355   0.700  0.1095  0.1542  0.0018
 2707W        W 6226   4.313   0.690  11.655  0.0373 -0.1816  0.1713
 2708W        W 6227   1.412   5.870   8.451 -0.0224  0.0738  0.0813
 2709W        W 6228   8.870   2.879   8.633 -0.1031 -0.3116  0.1624
 2710W        W 6229   3.917   1.972   2.499 -0.0289 -0.1733 -0.2593
 2711W        W 6230   4.413   2.653  10.194  0.0071 -0.0132  0.0881
 2712W        W 6231   8.016   4.192   2.506 -0.0476 -0.0540  0.0091
 2713W        W 6232   7.181   5.844   1.935 -0.1616  0.1347 -0.1102
 2714W        W 6233   7.985   6.969   2.164 -0.0980  0.4284  0.0112
 2715W        W 6234   5.718   9.164   1.336  0.0228  0.0064  0.1552
 2716W        W 6235   1.511   0.756   0.906  0.2930  0.3570  0.1812
 2717W        W 6236   6.659   0.126   0.883  0.0467  0.1527  0.3240
 2718W        W 6237   2.483   6.212   2.618 -0.4834  0.1512  0.0062
 2719W        W 6238   8.613   2.024   0.841 -0.2082  0.0551 -0.2297
 2720W        W 6239   3.876   6.865   1.773 -0.4416 -0.1457  0.0316
 2721W        W 6240   8.423   3.741   0.512  0.0945 -0.0437 -0.0453
 2722W        W 6241   2.285   8.410   2.571  0.2850  0.0960  0.2989
 2723W        W 6242   6.865   1.841   2.150  0.0507  0.1676  0.0689
 2724W        W 6243   9.240   1.018  10.725 -0.3065 -0.3120 -0.1240
 2725W        W 6244   2.762   4.860  10.111  0.1004  0.2102  0.0411
 2726W        W 6245   4.645   2.832   0.144 -0.4021  0.0135 -0.0143
 2727W        W 6246   1.091   6.067   9.542  0.0307 -0.1198  0.0248
 2728W        W 6247   4.726   5.270   9.717 -0.0208 -0.1240 -0.2217
 2729W        W 6248   3.523   4.421   3.038  0.0206  0.1012  0.0475
 2730W        W 6249   6.947   6.188   9.793  0.1583  0.0257  0.2784
 2731W        W 6250   4.761   0.742  10.477  0.0866  0.0947  0.1288
 2732W        W 6251   6.324   7.346   0.807 -0.0821  0.0282 -0.0589
 2733W        W 6252   5.344   9.259   8.811 -0.1051 -0.0528 -0.0946
 2734W        W 6253   6.821   1.514   3.135  0.2239  0.1303 -0.0401
 2735W        W 6254   4.866   4.899  11.667  0.0233 -0.1692  0.1792
 2736W        W 6255   9.418   6.266  11.435  0.1605 -0.0804  0.2683
 2737W        W 6256   2.374   3.147   9.013 -0.0953 -0.2037  0.0273
 2738W        W 6257   9.560   9.654   2.241  0.0887  0.1955  0.1969
 2739W        W 6258   4.113   0.748   7.859  0.3906 -0.3311 -0.0582
 2740W        W 6259   3.528   8.619   8.048 -0.1808 -0.2164  0.0346
 2741W        W 6260   9.072   1.758   0.595 -0.0664  0.1316  0.2100
 2742W        W 6261   6.518   2.832   0.756  0.2538 -0.3541 -0.0951
 2743W        W 6262   2.994   2.344   2.239 -0.0714  0.1216  0.3405
 2744W        W 6263   4.402   7.022  12.454 -0.3081  0.0506 -0.0035
 2745W        W 6264   1.172   4.947   0.276 -0.0922  0.0173  0.2089
 2746W        W 6265   4.589   9.488   1.692  0.1394  0.0168  0.0322
 2747W        W 6266   2.728   8.889   1.222  0.0882  0.2305  0.1425
 2748W        W 6267   1.280   3.255   3.405  0.0213  0.1116 -0.0889
 2749W        W 6268   1.873   6.748  12.455  0.0487 -0.1324 -0.1990
 2750W        W 6269   3.070   9.406  11.669 -0.0873  0.0494 -0.3481
 2751W        W 6270   1.237   6.551   1.014 -0.0066  0.0309 -0.1051
 2752W        W 6271   3.578   7.323   4.337 -0.0093 -0.1259  0.2559
 2753W        W 6272   0.693   7.778   8.808  0.0476  0.1906 -0.2786
 2754W        W 6273   7.256   1.824   2.485  0.1017  0.2162  0.0644
 2755W        W 6274   7.910   9.452  10.884 -0.0621  0.0532 -0.1157
 2756W        W 6275   0.616   7.558   1.207  0.0591  0.3680  0.1673
 2757W        W 6276   7.351   7.945   2.833  0.0241 -0.0761 -0.2051
 2758W        W 6277   9.001   3.166   0.481  0.1598 -0.1535 -0.1518
 2759W        W 6278   2.427   8.519   9.326  0.1322 -0.1203 -0.3581
 2760W        W 6279   7.109   4.822   0.135 -0.1152 -0.0183  0.0472
 2761W        W 6280   6.283   1.784   1.850  0.5045 -0.1298 -0.2663
 2762W        W 6281   0.715   3.918  11.803 -0.1467 -0.1644 -0.2549
 2763W        W 6282   4.321   4.938  11.843  0.0645 -0.2309 -0.2925
 2764W        W 6283   7.169   5.575  12.491 -0.1968  0.2993 -0.2306
 2765W        W 6284   8.696   5.457   1.031 -0.2949  0.0286  0.0793
 2766W        W 6285   2.996   5.485   0.977 -0.0205 -0.0646 -0.2836
 2767W        W 6286   0.740   7.309   3.189 -0.0687  0.3357 -0.3823
 2768W        W 6287   8.002   4.084   9.494 -0.0286 -0.1041  0.1354
 2769W        W 6288   6.255   6.181  11.154 -0.0001  0.3723 -0.2307
 2770W        W 6289   3.925   6.465  11.814  0.0398 -0.4989  0.1445
 2771W        W 6290   8.823   0.292  10.020  0.0401 -0.0538  0.3658
 2772W        W 6291   3.666   6.509   3.481  0.1680  0.0305 -0.1903
 2773W        W 6292   4.417   2.839   0.648 -0.2166 -0.0386  0.0383
 2774W        W 6293   3.451   6.801  10.444  0.1733  0.0369 -0.0722
 2775W        W 6294   2.320   1.184  11.248  0.1612  0.0733 -0.0127
 2776W        W 6295   6.213   4.749  10.958  0.1102  0.0327  0.1546
 2777W        W 6296   8.550   2.424   2.874 -0.0881  0.2957 -0.1101
 2778W        W 6297   7.493   5.125   1.653  0.0728  0.1660 -0.2135
 2779W        W 6298   7.653   7.006   0.268 -0.0202  0.2610  0.1190
 2780W        W 6299   9.298   0.019   9.695 -0.3944  0.1413  0.0191
 2781W        W 6300   7.376   4.468   0.836 -0.1405 -0.2328 -0.0246
 2782W        W 6301   1.331   3.696   0.857 -0.1786  0.3068 -0.1335
 2783W        W 6302   3.546   2.215   1.146 -0.2426  0.0815  0.0614
 2784W        W 6303   3.672   4.458   2.011  0.0868 -0.2591 -0.1202
 2785W        W 6304   5.097   5.666  11.161 -0.0468  0.0968  0.1469
 2786W        W 6305   5.719   3.300   0.615 -0.3991  0.1374  0.0272
 2787W        W 6306   1.444   9.649   9.879  0.3464  0.0593  0.1999
 2788W        W 6307   9.378   3.888   3.612 -0.1962  0.0896 -0.2567
 2789W        W 6308   9.021   9.566   7.980 -0.0569 -0.0563 -0.0736
 2790W        W 6309   4.718   3.968   3.536  0.0852  0.3081  0.0512
 2791W        W 6310   0.668   8.982   9.199  0.1856  0.1152  0.0113
 2792W        W 6311   3.078   7.351  11.902  0.1180  0.1089  0.0512
 2793W        W 6312   6.003   6.882  10.534  0.1909 -0.0575 -0.2053
 2794W        W 6313   6.119   3.448  12.117 -0.0276 -0.1223 -0.0144
 2795W        W 6314   5.050   4.743   2.228  0.0808 -0.0978  0.1723
 2796W        W 6315   4.559   2.816   1.754  0.2492  0.1658 -0.0727
 2797W        W 6316   3.809   3.455   1.052  0.3315  0.1049 -0.0585
 2798W        W 6317   0.280   7.750   2.435 -0.1454  0.0004 -0.2072
 2799W        W 6318   9.552   2.421   0.452  0.0394 -0.0642 -0.0536
 2800W        W 6319   0.330   1.712   3.729 -0.0491  0.1129 -0.0711
 2801W        W 6320   0.094   0.510  11.443 -0.0133  0.2951 -0.3668
 2802W        W 6321   8.445   3.600  12.025 -0.0316  0.1061  0.2820
 2803W        W 6322   5.545   7.689  10.328  0.2337  0.2678  0.1703
 2804W        W 6323   4.392   8.065   9.517  0.3421  0.1425  0.0471
 2805W        W 6324   4.258   8.562   8.947  0.3138 -0.1606  0.3501
 2806W        W 6325   3.108   0.646  12.065  0.2578  0.1327 -0.1259
 2807W        W 6326   9.403   5.782   2.088  0.0626 -0.0343 -0.0260
 2808W        W 6327   0.397   5.784   1.206 -0.0034 -0.1638  0.1982
 2809W        W 6328   5.289   1.898   9.298 -0.0355 -0.2574 -0.1095
 2810W        W 6329   2.914   3.225   2.372 -0.0855  0.0761  0.0161
 2811W        W 6330   3.224   2.310   8.159  0.1905  0.1808 -0.0118
 2812W        W 6331   5.734   7.366   1.815 -0.2197  0.3951  0.2233
 2813W        W 6332   7.005   4.582   8.351 -0.0463  0.0427 -0.2571
 2814W        W 6333   8.242   8.887   3.989  0.0145  0.2775  0.2482
 2815W        W 6334   1.339   9.492  12.272 -0.1871  0.1060  0.0847
 2816W        W 6335   2.343   9.163  12.038  0.3454  0.1569  0.1642
 2817W        W 6336   1.729   3.512  12.084  0.3743 -0.4234 -0.0186
 2818W        W 6337   8.687   9.085   1.005 -0.1326  0.1417  0.1882
 2819W        W 6338   0.096   1.581   1.835 -0.0170 -0.0175 -0.1289
 2820W        W 6339   5.586   9.607  12.172 -0.2052 -0.3517 -0.0638
 2821W        W 6340   7.158   8.805  11.799  0.0357 -0.1632 -0.0163
 2822W        W 6341   4.427   5.558   1.881 -0.1144  0.1709  0.2866
 2823W        W 6342   9.253   2.976   2.357 -0.1451  0.4341 -0.1133
 2824W        W 6343   0.995   8.231   9.499 -0.1960 -0.0861  0.0329
 2825W        W 6344   9.428   6.220   9.982  0.4716 -0.2961 -0.0988
 2826W        W 6345   5.447   6.534  12.119 -0.2563  0.1919 -0.0617
 2827W        W 6346   8.931   3.571   2.103 -0.1856 -0.0614 -0.1634
 2828W        W 6347   2.556   3.184   0.508  0.2892  0.0008 -0.0135
 2829W        W 6348   1.856   1.900  10.727 -0.1828  0.3161  0.0266
 2830W        W 6349   7.797   5.125   1.185  0.0294  0.0061 -0.2754
 2831W        W 6350   3.588   6.527  11.386 -0.0895  0.1283 -0.0905
 2832W        W 6351   1.699   4.291   3.830 -0.0057  0.0967  0.0233
 2833W        W 6352   7.495   4.734  11.594 -0.1334 -0.0771  0.1621
 2834W        W 6353   0.710   8.338   1.373  0.4274  0.0804  0.0866
 2835W        W 6354   9.663   8.979   2.941 -0.2077  0.7640  0.4468
 2836W        W 6355   6.426   0.371   0.052  0.0905  0.2509  0.0183
 2837W        W 6356   3.707   1.719  10.981  0.0709 -0.0327  0.2259
 2838W        W 6357   5.972   7.521   9.450  0.1801 -0.1332 -0.1243
 2839W        W 6358   4.226   7.899   0.540  0.1654 -0.0517 -0.1047
 2840W        W 6359   2.784   6.262   8.793 -0.1148  0.1003 -0.0614
 2841W        W 6360   1.935   8.685   1.755  0.1792  0.0829  0.2883
 2842W        W 6361   5.463   7.230   9.316  0.0595 -0.0789 -0.0365
 2843W        W 6362   2.209   6.299  12.519  0.0745  0.1517  0.2141
 2844W        W 6363   5.458   4.190   2.747  0.0642  0.1587 -0.0670
 2845W        W 6364   1.479   4.698  11.448 -0.3512 -0.2666  0.0317
 2846W        W 6365   1.544   9.513   8.768 -0.0277 -0.1915 -0.0792
 2847W        W 6366   8.447   0.257  12.173  0.0352  0.3410 -0.1138
 2848W        W 6367   1.338   0.784   3.352  0.0644  0.2000  0.1794
 2849W        W 6368   7.710   5.126   2.105  0.0401 -0.1142 -0.0282
 2850W        W 6369   8.606   2.130   9.924  0.3125  0.0303  0.1319
 2851W        W 6370   0.003   0.983   7.390  0.1941 -0.1224 -0.0565
 2852W        W 6371   2.214   6.986   2.320 -0.0454  0.0754 -0.0930
 2853W        W 6372   2.122   1.370  10.476  0.0588  0.2043  0.1470
 2854W        W 6373   8.377   6.556  12.480 -0.1023  0.0915  0.2793
 2855W        W 6374   9.429   5.184   3.103 -0.1736 -0.2048  0.2645
 2856W        W 6375   8.947   0.088   0.539 -0.0171  0.0787  0.0950
 2857W        W 6376   1.844   0.670  10.565 -0.1749 -0.2190 -0.0330
 2858W        W 6377   6.089   3.613  10.892  0.0367  0.1690 -0.0462
 2859W        W 6378   7.519   6.503   8.526 -0.0132  0.1064 -0.1612
 2860W        W 6379   3.715   8.397   1.116  0.2255 -0.1940  0.4127
 2861W        W 6380   4.195   4.337   1.188  0.0200 -0.1893  0.3090
 2862W        W 6381   0.086   9.339  11.014  0.0291 -0.0148  0.0400
 2863W        W 6382   4.267   6.696  10.565  0.4893  0.0785  0.4113
 2864W        W 6383   2.208   8.244   3.529  0.0154 -0.0770  0.1527
 2865W        W 6384   4.288   4.187   1.995 -0.2031  0.1341 -0.0792
 2866W        W 6385   0.391   0.532  11.940 -0.0324  0.0686 -0.0701
 2867W        W 6386   9.201   7.818  10.041 -0.2866  0.0183 -0.0690
 2868W        W 6387   3.105   2.320   0.851 -0.0552  0.2252  0.0274
 2869W        W 6388   9.688   8.855   3.810 -0.0964  0.0699  0.0212
 2870W        W 6389   7.056   6.159   2.270  0.1884  0.0602  0.1208
 2871W        W 6390   3.659   8.519   9.823 -0.1543  0.1502 -0.0820
 2872W        W 6391   9.129   1.581   1.147  0.2068  0.0880 -0.2755
 2873W        W 6392   3.713   3.831   1.671 -0.2209  0.0371 -0.1053
 2874W        W 6393   7.759   0.113  11.471  0.0096  0.0166  0.0063
 2875W        W 6394   7.503   9.036  12.180 -0.0051  0.0639 -0.0761
 2876W        W 6395   0.412   8.643   8.900  0.0261 -0.0041  0.0451
 2877W        W 6396   3.132   2.714   3.306  0.0363 -0.1462  0.1085
 2878W        W 6397   9.642   2.677  11.630 -0.4067  0.1972 -0.0380
 2879W        W 6398   8.705   5.698  10.948 -0.0076  0.1317 -0.0676
 2880W        W 6399   3.562   6.229   9.730  0.0203 -0.1645 -0.0209
 2881W        W 6400   5.908   4.344  11.092 -0.3128 -0.0389  0.3600
 2882W        W 6401   7.341   7.185   3.858  0.2104 -0.3747  0.3115
 2883W        W 6402   5.335   9.101   2.057  0.0667  0.0881 -0.0026
 2884W        W 6403   4.668   7.265   2.358 -0.1694 -0.0155 -0.1350
 2885W        W 6404   2.559   2.068   0.034  0.0532 -0.3558  0.1031
 2886W        W 6405   9.593   9.421  10.113 -0.3784 -0.1301  0.0293
 2887W        W 6406   1.162   7.765   8.183  0.1839 -0.1241 -0.2576
 2888W        W 6407   8.360   9.636  10.088  0.3263 -0.0234  0.2282
 2889W        W 6408   2.389   3.902   2.585 -0.0871 -0.0115 -0.3710
 2890W        W 6409   3.816   5.038   3.073  0.2531  0.1922  0.1445
 2891W        W 6410   8.911   2.139   1.855  0.1323 -0.0644  0.3293
 2892W        W 6411   3.465   2.148   2.233  0.1526 -0.1726 -0.1920
 2893W        W 6412   8.423   5.714   0.620 -0.6161  0.2708 -0.2694
 2894W        W 6413   1.863   3.672  10.075 -0.0713 -0.0436  0.4560
 2895W        W 6414   6.494   8.477  11.717  0.1093  0.1554  0.0719
 2896W        W 6415   4.892   4.050   2.931  0.0531  0.0126 -0.0181
 2897W        W 6416   3.885   5.297   3.593 -0.3355  0.3993  0.0103
 2898W        W 6417   1.703   4.365  11.081  0.1552  0.0983  0.1105
 2899W        W 6418   9.680   3.053  10.767  0.0266 -0.0193  0.2638
 2900W        W 6419   2.542   6.490   1.174 -0.0677  0.0342 -0.0946
 2901W        W 6420   9.594   0.307   3.279  0.0685 -0.2038 -0.0838
 2902W        W 6421   0.084   6.083   1.844  0.1758  0.2390 -0.0203
 2903W        W 6422   1.351   1.259  11.602  0.2305 -0.1334 -0.2688
 2904W        W 6423   5.813   6.128   1.076  0.0339 -0.0704 -0.3558
 2905W        W 6424   5.702   0.305   1.051 -0.3531  0.0223  0.2538
 2906W        W 6425   9.521   2.560   0.905 -0.0286 -0.0792 -0.0257
 2907W        W 6426   1.717   3.025  12.356  0.0762  0.1213 -0.1423
 2908W        W 6427   5.784   8.896   2.222 -0.2039  0.3619  0.0883
 2909W        W 6428   4.181   8.797   0.878 -0.1007  0.4643 -0.0213
 2910W        W 6429   1.720   8.130   1.065 -0.0491  0.0253 -0.2282
 2911W        W 6430   0.824   7.125   0.484  0.0440 -0.1780  0.1038
 2912W        W 6431   1.114   4.111   2.254 -0.0557 -0.1849 -0.1352
 2913W        W 6432   1.816   9.262   1.501 -0.0732  0.0274  0.1055
 2914W        W 6433   4.637   3.815   2.067 -0.1652  0.2268 -0.0183
 2915W        W 6434   2.792   9.089  12.208 -0.0629  0.2951 -0.0628
 2916W        W 6435   3.187   2.350  11.457 -0.2306 -0.2390  0.4054
 2917W        W 6436   6.154   6.379   0.282 -0.1056 -0.3791  0.0600
 2918W        W 6437   9.330   2.498   8.943 -0.2627 -0.0152  0.0131
 2919W        W 6438   7.046   1.172   1.728  0.0976  0.1538  0.0816
 2920W        W 6439   7.892   8.421  10.137  0.1238 -0.1111  0.2344
 2921W        W 6440   5.895   8.279   0.831 -0.2388  0.1191 -0.2590
 2922W        W 6441   3.994   3.221  10.851  0.1004  0.1888 -0.0367
 2923W        W 6442   6.466   8.390   1.408 -0.2436 -0.0174 -0.0300
 2924W        W 6443   5.392   4.109   1.535 -0.0512 -0.0934  0.0404
 2925W        W 6444   3.083   0.397   3.649  0.1879  0.0174  0.1147
 2926W        W 6445   2.949   9.067   9.045  0.0823 -0.0514  0.1821
 2927W        W 6446   8.351   7.995   3.356 -0.1293 -0.3146  0.2167
 2928W        W 6447   6.811   1.923  12.191  0.0896 -0.1053 -0.0942
 2929W        W 6448   7.244   6.036  10.188 -0.1174 -0.0225  0.0551
 2930W        W 6449   0.075   0.870   3.428  0.0628  0.1511 -0.0175
 2931W        W 6450   0.894   2.908  12.190 -0.2716 -0.0370  0.1321
 2932W        W 6451   0.926   5.080   1.745 -0.1041 -0.0595 -0.3681
 2933W        W 6452   8.746   2.617  10.867  0.1152  0.0418 -0.0317
 2934W        W 6453   6.155   8.350   7.805 -0.0519 -0.0218  0.0109
 2935W        W 6454   5.747   7.415   0.831 -0.1575 -0.2770  0.0543
 2936W        W 6455   5.447   7.636   2.211 -0.1107 -0.1999  0.0078
 2937W        W 6456   3.080   4.572  10.509 -0.0551 -0.1079  0.0661
 2938W        W 6457   2.655   4.092   3.510 -0.2526  0.0334  0.4998
 2939W        W 6458   9.234   3.305  12.219  0.0783  0.1256 -0.0922
 2940W        W 6459   4.689   6.974  10.639  0.0975 -0.0637  0.1460
 2941W        W 6460   3.894   0.729   2.474  0.0901 -0.0163 -0.1091
 2942W        W 6461   1.026   1.101   0.179 -0.2303 -0.0181 -0.2568
 2943W        W 6462   4.312   5.809  11.528  0.1408  0.1463 -0.3375
 2944W        W 6463   0.363   1.034   9.513 -0.0310  0.0855  0.2903
 2945W        W 6464   7.736   1.647  12.259  0.0655  0.1254 -0.1547
 2946W        W 6465   4.985   6.522   3.125  0.1284  0.4037  0.3858
 2947W        W 6466   8.302   5.055   3.315  0.0933 -0.0587 -0.3625
 2948W        W 6467   3.094   0.490   2.385 -0.0402 -0.2025  0.3590
 2949W        W 6468   6.307   0.399   0.573  0.1192  0.2179  0.2448
 2950W        W 6469   5.111   8.278   0.714 -0.2527 -0.1457  0.0678
 2951W        W 6470   9.470   5.110   0.029  0.2019  0.0214  0.4913
 2952W        W 6471   7.868   6.058   1.931 -0.0284 -0.0871  0.1534
 2953W        W 6472   1.637   4.976  12.560 -0.3400  0.1554  0.1716
 2954W        W 6473   2.719   6.172  11.724  0.0601 -0.1266 -0.0727
 2955W        W 6474   7.548   3.713  10.458  0.0348  0.1083  0.2644
 2956W        W 6475   8.847   7.685  10.901  0.0177  0.0068  0.0436
 2957W        W 6476   5.727   9.322   1.846 -0.1297 -0.0353  0.0486
 2958W        W 6477   4.413   4.847   3.143  0.2223 -0.1554  0.3613
 2959W        W 6478   2.053   4.434   0.503  0.0199  0.1464  0.1762
 2960W        W 6479   5.164   0.315   0.679 -0.0901 -0.1630 -0.2426
 2961W        W 6480   0.529   3.407  12.470 -0.0743 -0.0232  0.0170
 2962W        W 6481   6.372   1.596  12.402  0.1467  0.0191  0.1602
 2963W        W 6482   2.220   2.098   1.198  0.1510 -0.0300 -0.0843
 2964W        W 6483   2.215   0.744  10.193 -0.1022  0.0158 -0.0593
 2965W        W 6484   5.384   2.164   3.098  0.1406  0.0024 -0.0473
 2966W        W 6485   8.813   0.604   0.388  0.3280 -0.0544 -0.0481
 2967W        W 6486   5.825   1.071  10.866 -0.0962  0.2159  0.0465
 2968W        W 6487   2.146   4.627  11.197  0.2293  0.2288 -0.3299
 2969W        W 6488   5.858   0.735   0.590 -0.1803 -0.0677  0.3459
 2970W        W 6489   2.282   0.708   0.983 -0.0226 -0.1494  0.0868
 2971W        W 6490   6.597   9.613   1.338  0.1249  0.0892  0.0846
 2972W        W 6491   3.543   5.480  11.710 -0.1990  0.0398 -0.0075
 2973W        W 6492   8.123   9.401   4.070 -0.0374 -0.1955  0.3828
 2974W        W 6493   0.036   0.452  12.393 -0.0164  0.0614  0.3587
 2975W        W 6494   3.064   7.322   3.688 -0.2646 -0.0502 -0.1132
 2976W        W 6495   1.362   2.934  10.133 -0.0431  0.1881 -0.0467
 2977W        W 6496   1.710   4.024   1.085 -0.2518 -0.0142 -0.2077
 2978W        W 6497   2.055   7.188   3.159  0.2317  0.1020  0.0245
 2979W        W 6498   3.128   1.744   1.299  0.1798 -0.0303 -0.1192
 2980W        W 6499   1.020   6.682  11.228  0.2018 -0.1604  0.2278
 2981W        W 6500   5.664   2.592  10.565  0.3734 -0.4779  0.0072
 2982W        W 6501   0.622   6.339   0.312 -0.2257  0.3490 -0.0591
 2983W        W 6502   8.586   3.667   3.051  0.1316  0.3889 -0.0557
 2984W        W 6503   0.612   6.055   3.070  0.2128  0.0500 -0.0212
 2985W        W 6504   8.434   2.717   9.588 -0.1010 -0.1492  0.1185
 2986W        W 6505   8.665   8.121  11.130 -0.1164  0.1764 -0.5244
 2987W        W 6506   3.041   6.413  12.108 -0.1755 -0.0858  0.2296
 2988W        W 6507   3.105   6.502   3.969  0.0746 -0.0480 -0.1705
 2989W        W 6508   3.792   9.299  11.338  0.1519  0.1553  0.2704
 2990W        W 6509   7.781   7.560   3.897  0.1592 -0.0397  0.0882
 2991W        W 6510   7.158   9.680   9.604 -0.0061  0.0837 -0.0252
 2992W        W 6511   6.562   1.526  11.950 -0.0010 -0.1039 -0.0579
 2993W        W 6512   6.861   7.977   2.259 -0.1973  0.2120  0.3083
 2994W        W 6513   6.204   8.333   3.754 -0.1340 -0.2544  0.1692
 2995W        W 6514   4.685   4.420  11.898  0.3562  0.0314 -0.0162
 2996W        W 6515   0.041   6.713   4.298  0.1265  0.2295  0.0643
 2997W        W 6516   4.846   5.348   3.262 -0.2312 -0.1253  0.0934
 2998W        W 6517   7.552   4.628   3.147  0.2513 -0.0332  0.4332
 2999W        W 6518   8.637   8.840   3.220 -0.1236  0.1416 -0.0115
 3000W        W 6519   0.908   0.789   1.824 -0.1380  0.1554 -0.0097
 3001W        W 6520   7.922   0.284  12.339  0.1159  0.1280 -0.1128
 3002W        W 6521   7.468   2.545   8.995  0.0421  0.2681  0.0230
 3003W        W 6522   4.270   5.246   2.400 -0.0138 -0.0342  0.0336
 3004W        W 6523   0.811   9.597   2.177 -0.0007  0.1262  0.2115
 3005W        W 6524   4.012   7.777   4.108 -0.0671 -0.0417 -0.0436
 3006W        W 6525   5.619   3.421  10.938  0.0536  0.0738  0.0168
 3007W        W 6526   9.603   0.134   3.835 -0.0586  0.1545 -0.1117
 3008W        W 6527   0.329   0.619   8.069 -0.0440 -0.0324  0.2107
 3009W        W 6528   8.510   9.595  10.885  0.1051  0.2044  0.1753
 3010W        W 6529   9.392   0.681  11.087  0.3769 -0.0534  0.0793
 3011W        W 6530   6.592   5.026   0.412  0.0467  0.0989 -0.1251
 3012W        W 6531   5.573   5.896   2.527 -0.1190 -0.1149 -0.0415
 3013W        W 6532   5.938   9.288   8.829  0.1832 -0.0981  0.1708
 3014W        W 6533   3.183   3.540  10.308  0.0279 -0.0656 -0.0471
 3015W        W 6534   7.841   8.003   3.044  0.0766  0.1290  0.0864
 3016W        W 6535   6.084   9.392   9.840  0.1693 -0.2645  0.0136
 3017W        W 6536   1.269   2.574  12.035  0.0865  0.0205  0.0269
 3018W        W 6537   1.152   8.283   1.653 -0.1185 -0.0486 -0.0124
 3019W        W 6538   0.789   1.246   9.703 -0.1473 -0.0816 -0.2041
 3020W        W 6539   5.180   0.819   3.216 -0.2632 -0.1304 -0.0076
 3021W        W 6540   1.223   4.334   0.307 -0.1637 -0.1200 -0.0345
 3022W        W 6541   8.608   6.230   3.128  0.0380  0.0714  0.0051
 3023W        W 6542   6.393   6.137   1.296 -0.0208 -0.3219 -0.1106
 3024W        W 6543   8.244   4.995   4.435 -0.0789  0.3272 -0.0094
 3025W        W 6544   7.661   1.288   8.813  0.0387  0.0680 -0.2131
 3026W        W 6545   4.613   3.269   3.489 -0.2401 -0.1100  0.0692
 3027W        W 6546   8.572   0.290   2.490  0.2412 -0.0290  0.4080
 3028W        W 6547   4.948   3.752   1.602 -0.2444 -0.0643 -0.1853
 3029W        W 6548   1.152   0.163  12.012  0.1611  0.1539 -0.2031
 3030W        W 6549   8.294   8.679   1.155 -0.1469  0.1350  0.2238
 3031W        W 6550   1.503   8.626  12.342  0.0572  0.2628 -0.0816
 3032W        W 6551   8.395   6.696  10.538  0.1495 -0.1018 -0.2177
 3033W        W 6552   7.865   1.879   1.760  0.1409 -0.1070 -0.2188
 3034W        W 6553   5.561   1.563   1.399  0.1494 -0.0978 -0.1451
 3035W        W 6554   3.110   8.432   1.947  0.1066 -0.1195 -0.1773
 3036W        W 6555   0.910   0.269   2.611  0.0022  0.1557 -0.1303
 3037W        W 6556   1.433   6.371   8.558 -0.1818  0.1402  0.1903
 3038W        W 6557   1.216   9.656  11.333 -0.1969  0.1595 -0.2391
 3039W        W 6558   8.348   9.454  11.948  0.0224 -0.0661  0.1133
 3040W        W 6559   6.277   2.341  11.584  0.1130  0.3281 -0.0578
 3041W        W 6560   3.951   5.780   0.184 -0.0044  0.1183  0.1352
 3042W        W 6561   5.913   3.792   0.744 -0.1815  0.0528  0.0673
 3043W        W 6562   4.292   7.554   2.712 -0.0148 -0.1920  0.1656
 3044W        W 6563   2.309   7.427  11.467  0.0685 -0.0002  0.2119
 3045W        W 6564   6.237   3.716   1.667  0.1016  0.1391  0.4603
 3046W        W 6565   6.996   1.499   9.350  0.0103 -0.0276 -0.0618
 3047W        W 6566   7.576   7.318   1.978  0.1494 -0.3440  0.3933
 3048W        W 6567   1.047   3.086   1.928 -0.1733 -0.0844 -0.0688
 3049W        W 6568   5.350   0.701   0.338  0.0073 -0.1134 -0.2430
 3050W        W 6569   0.599   8.701   3.143 -0.2199  0.2210 -0.0904
 3051W        W 6570   4.007   5.902   0.760  0.4835 -0.1164  0.0120
 3052W        W 6571   9.438   0.718   1.524 -0.1208  0.3045  0.1034
 3053W        W 6572   0.471   9.047   0.629 -0.0766  0.3550 -0.0798
 3054W        W 6573   1.408   7.361   4.476 -0.4579 -0.0525 -0.0307
 3055W        W 6574   7.459   6.458   2.337 -0.1450  0.1951  0.0346
 3056W        W 6575   1.255   2.532  11.046  0.3382 -0.1614  0.1711
 3057W        W 6576   5.863   8.938   9.613 -0.1751 -0.4939  0.0742
 3058W        W 6577   7.206   6.480   0.640 -0.0716  0.2595 -0.0503
 3059W        W 6578   5.604   7.169   0.129  0.0598  0.0788 -0.0752
 3060W        W 6579   6.236   5.175   0.102 -0.1941 -0.0022 -0.1727
 3061W        W 6580   1.096   8.360   0.575 -0.3114 -0.1543 -0.1350
 3062W        W 6581   9.484   9.622   8.287  0.0762  0.0313 -0.2624
 3063W        W 6582   0.305   3.002  11.528  0.0911  0.2114 -0.2811
 3064W        W 6583   8.801   4.840   1.327 -0.1557  0.0328 -0.1316
 3065W        W 6584   7.838   2.408   4.059  0.2823  0.0818  0.1065
 3066W        W 6585   8.831   0.362   2.085 -0.0438 -0.0152  0.0552
 3067W        W 6586   8.695   1.984   3.098  0.1705  0.0436  0.3985
 3068W        W 6587   5.345   8.779   1.239 -0.1883  0.2363  0.2514
 3069W        W 6588   3.456   1.032  11.880  0.6840 -0.1500  0.0040
 3070W        W 6589   9.497   5.045  12.059  0.0705  0.1061 -0.0245
 3071W        W 6590   9.249   9.280  12.312 -0.0600 -0.1709  0.1288
 3072W        W 6591   2.487   8.894   4.589 -0.1201 -0.1838 -0.1025
 3073W        W 6592   1.758   7.558  11.482  0.0162  0.1608 -0.1160
 3074W        W 6593   1.869   8.647   2.262  0.1841  0.3290 -0.1739
 3075W        W 6594   5.197   4.976   0.281 -0.0293 -0.0975 -0.1612
 3076W        W 6595   8.824   2.373  10.416  0.0904  0.2364  0.2449
 3077W        W 6596   8.601   8.001   3.851 -0.3050 -0.1262  0.1944
 3078W        W 6597   3.799   2.302   3.455  0.0043  0.3180 -0.1027
 3079W        W 6598   4.436   7.719   8.432  0.1650  0.1525 -0.0248
 3080W        W 6599   3.040   7.461   2.993  0.0660 -0.0393  0.1084
 3081W        W 6600   7.040   7.259  10.407  0.0587 -0.2526 -0.0817
 3082W        W 6601   3.126   4.065   2.952 -0.3980  0.4019  0.2116
 3083W        W 6602   2.661   2.175   0.653  0.0407  0.0328 -0.2938
 3084W        W 6603   1.624   7.030  11.413  0.3062 -0.2793  0.1029
 3085W        W 6604   6.511   6.122  12.214 -0.2374  0.3111  0.1779
 3086W        W 6605   4.310   8.617  11.621  0.0377  0.2139  0.0847
 3087W        W 6606   4.558   8.880   2.876  0.1603 -0.2967 -0.2960
 3088W        W 6607   8.497   8.786   0.626  0.0587  0.1291  0.0348
 3089W        W 6608   6.885   9.139   3.639  0.2222 -0.3216  0.1131
 3090W        W 6609   8.135   6.832   0.678  0.1969  0.1084 -0.1135
 3091W        W 6610   3.879   7.857   9.471 -0.3925 -0.0053 -0.0981
 3092W        W 6611   8.986   8.583   1.829 -0.3456 -0.1515 -0.2117
 3093W        W 6612   2.293   2.351   1.576  0.1775 -0.2861  0.0923
 3094W        W 6613   4.014   2.365  11.111 -0.0080  0.0993  0.0969
 3095W        W 6614   6.125   0.413   4.006 -0.0505  0.0066 -0.2502
 3096W        W 6615   2.121   5.988   9.175 -0.1750  0.0931 -0.2170
 3097W        W 6616   8.756   0.158   3.809  0.0717 -0.5527 -0.1864
 3098W        W 6617   5.748   2.453  11.517  0.1652  0.0318 -0.2019
 3099W        W 6618   4.570   6.791   2.408 -0.2018 -0.2121  0.3473
 3100W        W 6619   0.824   3.058  10.383  0.2371  0.1418  0.0280
 3101W        W 6620   5.679   4.758  11.987  0.1123  0.0711 -0.0783
 3102W        W 6621   7.215   8.105  11.092 -0.2737  0.1736 -0.1753
 3103W        W 6622   3.614   2.302   9.236  0.1434 -0.0780  0.4310
 3104W        W 6623   5.853   6.832   1.733  0.0287 -0.0549  0.1764
 3105W        W 6624   7.104   0.397   4.371 -0.1256  0.5320 -0.2263
 3106W        W 6625   8.879   7.394  11.771 -0.0249  0.2952 -0.2249
 3107W        W 6626   3.899   7.227   2.926  0.0869 -0.0989 -0.2883
 3108W        W 6627   8.652   0.476   8.139 -0.0202 -0.0889 -0.0587
 3109W        W 6628   2.473   7.914  12.562 -0.1180 -0.0167  0.0844
 3110W        W 6629   4.797   6.239  11.926  0.2637  0.3532  0.3705
 3111W        W 6630   5.921   3.628   2.565  0.1787  0.0186 -0.0122
 3112W        W 6631   8.640   4.016  12.229 -0.2415 -0.0435  0.2413
 3113W        W 6632   7.634   4.149   3.462 -0.0397  0.1885 -0.0556
 3114W        W 6633   2.384   5.087   1.773  0.0780  0.1377  0.3030
 3115W        W 6634   9.590   3.443   8.242 -0.0479 -0.2777  0.1223
 3116W        W 6635   8.339   8.731   9.920 -0.1498  0.1478 -0.2072
 3117W        W 6636   8.315   4.286   0.239  0.0766 -0.2046  0.0470
 3118W        W 6637   7.189   8.489   2.613  0.3356  0.0118 -0.2456
 3119W        W 6638   0.280   3.565  12.069 -0.3050 -0.1585  0.0155
 3120W        W 6639   7.414   6.373   1.163  0.1794 -0.0619  0.0475
 3121W        W 6640   8.752   6.870   4.063 -0.1080 -0.1004  0.1890
 3122W        W 6641   8.549   6.250   9.652 -0.2675 -0.0153  0.1518
 3123W        W 6642   9.320   7.420  10.879  0.1324 -0.0712  0.1233
 3124W        W 6643   6.035   1.446   1.630  0.5090  0.0762 -0.2702
 3125W        W 6644   5.134   1.569   4.230  0.0400  0.1594 -0.0189
 3126W        W 6645   7.721   5.568  12.578 -0.0308  0.0836 -0.0499
 3127W        W 6646   6.792   5.447  10.813 -0.1173 -0.2496  0.0048
 3128W        W 6647   8.463   3.567   7.952  0.0660 -0.0521 -0.3065
 3129W        W 6648   6.736   7.077   2.057 -0.1350  0.0062  0.3068
 3130W        W 6649   2.980   1.771  12.001 -0.2906 -0.0674  0.1429
 3131W        W 6650   2.034   6.504  11.104 -0.2702  0.0044 -0.1243
 3132W        W 6651   9.566   7.293   9.429  0.0257 -0.0788 -0.0106
 3133W        W 6652   9.402   1.335   0.699 -0.1386  0.1141  0.0345
 3134W        W 6653   2.821   8.669   0.556  0.1801  0.2891  0.2391
 3135W        W 6654   8.485   7.052   8.320  0.3130 -0.0683 -0.1036
 3136W        W 6655   2.821   5.049   1.150  0.0798  0.1348 -0.0666
 3137W        W 6656   1.354   8.845   2.503 -0.0907 -0.0968  0.1872
 3138W        W 6657   1.586   5.415   2.239  0.0308  0.3533  0.0306
 3139W        W 6658   0.509   0.859  12.297  0.1590  0.0159  0.2030
 3140W        W 6659   2.426   5.950   0.360 -0.2754  0.0237  0.1607
 3141W        W 6660   4.295   9.526   3.373 -0.0821 -0.0170  0.0727
 3142W        W 6661   8.927   7.639   3.671  0.0066 -0.0993 -0.0896
 3143W        W 6662   6.948   9.334   8.719 -0.1310 -0.2133  0.1804
 3144W        W 6663   0.854   3.419  11.866  0.0961  0.1863 -0.0428
 3145W        W 6664   2.185   0.821   9.291 -0.1307 -0.1982  0.0890
 3146W        W 6665   1.025   1.740   3.263 -0.2927 -0.0972 -0.1597
 3147W        W 6666   6.256   8.360   0.459 -0.0616 -0.1743 -0.2040
 3148W        W 6667   3.579   1.333   9.472  0.2956  0.1864  0.0323
 3149W        W 6668   7.942   9.174  11.951 -0.0632 -0.0785 -0.0184
 3150W        W 6669   0.734   1.693   9.874  0.3258 -0.2725 -0.1305
 3151W        W 6670   0.543   5.527  12.272  0.4040 -0.1758 -0.1243
 3152W        W 6671   0.955   2.983   3.116  0.1336 -0.3550 -0.0222
 3153W        W 6672   9.337   8.574   1.439  0.0497 -0.3292 -0.0177
 3154W        W 6673   7.313   2.339   4.523  0.1122  0.0625  0.0866
 3155W        W 6674   0.758   4.525   1.935  0.0805  0.1161 -0.1021
 3156W        W 6675   1.714   8.656  11.536  0.1699  0.0661 -0.4600
 3157W        W 6676   0.201   4.650  10.222  0.0208 -0.2543  0.2533
 3158W        W 6677   2.272   3.336  11.290  0.1793 -0.1945 -0.0579
 3159W        W 6678   4.123   5.319  11.503 -0.1140 -0.5158 -0.0590
 3160W        W 6679   2.033   8.496   1.180  0.0757  0.0993  0.0312
 3161W        W 6680   3.101   3.981  10.166 -0.1071  0.1136 -0.0834
 3162W        W 6681   8.377   6.853   8.856 -0.0598 -0.0001  0.2093
 3163W        W 6682   0.955   3.047   9.351  0.2264  0.0970 -0.2470
 3164W        W 6683   3.937   6.178  11.340  0.1459 -0.0700 -0.2120
 3165W        W 6684   6.586   7.524   1.730 -0.3767 -0.0513 -0.0821
 3166W        W 6685   4.315   3.176   1.391 -0.2196 -0.0874  0.1964
 3167W        W 6686   4.613   2.365  12.507 -0.2734 -0.2612 -0.3909
 3168W        W 6687   7.576   8.473   9.314 -0.0008  0.3387  0.0495
 3169W        W 6688   0.183   9.042   9.901  0.3447 -0.2244  0.0553
 3170W        W 6689   5.603   4.674   2.976 -0.1128 -0.0570 -0.3869
 3171W        W 6690   9.315   7.721   9.551 -0.4132 -0.2847 -0.0437
 3172W        W 6691   7.169   0.737   0.500  0.1576 -0.0322 -0.0554
 3173W        W 6692   0.322   0.117  11.608  0.1648 -0.3970 -0.0842
 3174W        W 6693   1.024   3.514  12.539  0.0947 -0.2543 -0.2193
 3175W        W 6694   7.533   0.834   3.019  0.1839 -0.1868  0.0077
 3176W        W 6695   4.068   6.608  11.084  0.2577  0.3071 -0.0745
 3177W        W 6696   8.509   6.732   2.158  0.4383  0.2292  0.0046
 3178W        W 6697   4.526   3.521   3.041  0.1727  0.1942 -0.1676
 3179W        W 6698   6.600   0.099   8.900  0.1859  0.1630  0.1978
 3180W        W 6699   9.069   1.115   9.483 -0.0242  0.1898 -0.1364
 3181W        W 6700   7.477   1.020   1.788 -0.1470 -0.1681 -0.1386
 3182W        W 6701   9.667   7.195  11.896 -0.2405 -0.0281  0.0839
 3183W        W 6702   1.279   9.683   2.999  0.0965 -0.1028  0.4791
 3184W        W 6703   9.626   2.987   0.611 -0.1778  0.0989  0.1462
 3185W        W 6704   0.582   9.459   8.245  0.2196  0.0963 -0.3193
 3186W        W 6705   9.493   1.168   4.461  0.1394  0.2737 -0.0145
 3187W        W 6706   0.136   9.226  10.504  0.0188  0.2338  0.1328
 3188W        W 6707   1.534   1.028   1.920  0.0035  0.0878  0.0470
 3189W        W 6708   4.794   5.927  11.545 -0.0703 -0.2867  0.1312
 3190W        W 6709   9.679   8.222   8.863 -0.0045  0.3634  0.3956
 3191W        W 6710   0.166   7.282   2.578  0.1139  0.1452  0.0940
 3192W        W 6711   7.628   5.106  10.392  0.1364 -0.1197 -0.1443
 3193W        W 6712   3.995   1.359  10.646  0.2272 -0.1290 -0.4336
 3194W        W 6713   2.829   4.750   9.529 -0.0547 -0.1576  0.3793
 3195W        W 6714   3.319   0.369   1.763  0.2712  0.0166  0.0505
 3196W        W 6715   2.613   2.777   2.649 -0.2744 -0.0753  0.1665
 3197W        W 6716   8.332   8.201  10.040  0.0444  0.0642 -0.2710
 3198W        W 6717   4.612   7.914   2.532 -0.1294 -0.0686 -0.3233
 3199W        W 6718   3.835   4.140  11.406 -0.0011  0.0257 -0.0932
 3200W        W 6719   9.680   5.292   1.349 -0.1560  0.3181 -0.2047
 3201W        W 6720   8.676   0.199  10.459  0.0983  0.3396  0.0333
 3202W        W 6721   5.742   2.742   0.534  0.3383  0.2185 -0.1368
 3203W        W 6722   5.333   5.310  12.516  0.1900 -0.1460  0.1879
 3204W        W 6723   8.403   2.756   2.578  0.0250  0.1417  0.0141
 3205W        W 6724   9.405   4.873   1.016 -0.2801 -0.2140 -0.1036
 3206W        W 6725   2.680   2.000  10.956 -0.1087  0.0899  0.0424
 3207W        W 6726   1.211   5.517   1.832 -0.1764  0.0396 -0.0242
 3208W        W 6727   0.899   0.764   8.765 -0.0879 -0.0390  0.0216
 3209W        W 6728   3.783   6.753   9.995 -0.4260  0.1937  0.1140
 3210W        W 6729   4.500   9.028   3.337  0.0070  0.1216  0.0883
 3211W        W 6730   3.407   7.744  12.078  0.0919 -0.2911  0.3761
 3212W        W 6731   1.267   4.439   3.202 -0.0766  0.1386  0.2640
 3213W        W 6732   1.135   0.237   0.497  0.1708  0.3509  0.0830
 3214W        W 6733   6.263   3.402   2.051 -0.0442  0.0625 -0.0535
 3215W        W 6734   4.053   5.457  10.073  0.4057 -0.1591  0.1260
 3216W        W 6735   9.289   7.123   8.204 -0.2711  0.3543  0.1105
 3217W        W 6736   6.034   4.398   9.134 -0.3065  0.1083 -0.5393
 3218W        W 6737   2.407   0.059   4.382 -0.2044  0.3397  0.0518
 3219W        W 6738   4.195   7.064  10.853 -0.1999  0.2345 -0.1888
 3220W        W 6739   4.050   1.462   1.128  0.1135 -0.0928  0.0266
 3221W        W 6740   0.757   5.741  11.891 -0.0411  0.0733  0.1992
 3222W        W 6741   8.609   7.560   1.942 -0.0899 -0.1737 -0.0570
 3223W        W 6742   9.409   4.782   4.568  0.3664  0.0727 -0.0144
 3224W        W 6743   2.854   5.674  11.261  0.1299  0.0474  0.1002
 3225W        W 6744   8.279   4.668   9.777  0.2146 -0.2300  0.1480
 3226W        W 6745   1.715   4.033   9.114  0.1817 -0.0915 -0.1632
 3227W        W 6746   7.026   0.747  11.468  0.3585 -0.0714 -0.0839
 3228W        W 6747   7.019   9.288   1.323  0.0604  0.0414  0.1623
 3229W        W 6748   3.954   1.350   9.026  0.1389 -0.0589 -0.1796
 3230W        W 6749   2.736   2.942  12.227  0.3994  0.0527 -0.1289
 3231W        W 6750   8.249   8.431  10.489 -0.2502  0.0057 -0.1321
 3232W        W 6751   8.732   2.625   9.989  0.0862  0.0472 -0.0745
 3233W        W 6752   6.590   7.548   2.324 -0.0583 -0.3615 -0.0845
 3234W        W 6753   7.787   0.738   8.122  0.3649  0.0747 -0.1860
 3235W        W 6754   3.135   3.038   0.810 -0.3271 -0.1137  0.0307
 3236W        W 6755   7.859   0.554  10.964  0.0378  0.2940  0.0843
 3237W        W 6756   1.210   7.663   4.068 -0.1640  0.1806  0.1238
 3238W        W 6757   9.022   1.046  11.171  0.0939 -0.0241 -0.0324
 3239W        W 6758   8.185   4.559   3.482 -0.3406  0.0238  0.0166
 3240W        W 6759   0.336   4.964   9.855  0.0796 -0.0472 -0.2002
 3241W        W 6760   1.424   2.954   3.030 -0.2352  0.2303 -0.2431
 3242W        W 6761   0.800   3.001   0.108  0.0770  0.2647 -0.1657
 3243W        W 6762   6.061   0.809   3.233  0.0411  0.1870  0.0154
 3244W        W 6763   3.906   0.282   1.495 -0.2551 -0.1076 -0.1415
 3245W        W 6764   3.202   7.185  11.110 -0.0800 -0.0161  0.0192
 3246W        W 6765   5.863   0.634   2.665  0.1656  0.0672  0.4291
 3247W        W 6766   2.762   5.350   9.217  0.1076 -0.0274  0.0178
 3248W        W 6767   5.731   1.003   1.695 -0.1706  0.1909 -0.0044
 3249W        W 6768   6.590   1.043  11.417 -0.3019 -0.1259  0.0132
 3250W        W 6769   1.411   2.420   9.929  0.3421 -0.0355 -0.0525
 3251W        W 6770   7.836   9.101   8.589  0.0659  0.5871 -0.3864
 3252W        W 6771   6.303   7.091   1.673 -0.0740  0.0000  0.1751
 3253W        W 6772   7.776   5.677  11.185  0.0831 -0.1043  0.0296
 3254W        W 6773   4.103   9.551   9.464 -0.1575 -0.2020  0.2015
 3255W        W 6774   6.863   5.658  10.048 -0.0235 -0.1408  0.0901
 3256W        W 6775   3.610   5.214  11.121 -0.1555 -0.2055 -0.1210
 3257W        W 6776   7.013   5.300   9.677  0.1796 -0.2221 -0.1145
 3258W        W 6777   6.228   8.161   1.836 -0.0638  0.2808 -0.0931
 3259W        W 6778   6.996   4.084   0.100 -0.0792  0.1871 -0.1638
 3260W        W 6779   1.631   7.483   9.810  0.0400 -0.1962 -0.0606
 3261W        W 6780   1.005   2.172  10.588 -0.1444  0.1545  0.0705
 3262W        W 6781   1.396   7.013   1.777 -0.0784  0.2074  0.4221
 3263W        W 6782   3.018   8.877   3.908 -0.0383  0.1983  0.1629
 3264W        W 6783   9.472   1.983   8.287  0.2757  0.1827  0.1162
 3265W        W 6784   6.539   1.248   1.615  0.2633 -0.0071  0.2317
 3266W        W 6785   7.678   7.111  12.350 -0.4203 -0.3806 -0.3195
 3267W        W 6786   5.300   2.464   0.664 -0.0176  0.1877  0.1922
 3268W        W 6787   4.986   0.012   0.304  0.4495 -0.1738 -0.1323
 3269W        W 6788   4.142   0.996   0.858  0.3189 -0.1646  0.2399
 3270W        W 6789   7.266   3.849  11.275 -0.1465 -0.1962  0.1154
 3271W        W 6790   3.424   2.881   2.861 -0.0026 -0.1308  0.1440
 3272W        W 6791   0.599   8.871  11.436  0.0651  0.0926  0.1259
 3273W        W 6792   9.484   3.152   0.165 -0.1568  0.1981 -0.1064
 3274W        W 6793   7.924   5.794   0.555 -0.0229  0.1339 -0.3129
 3275W        W 6794   6.165   3.314   2.844 -0.0083  0.2205  0.2378
 3276W        W 6795   9.063   4.539   4.219 -0.1521 -0.1242  0.0485
 3277W        W 6796   0.777   1.536   3.618 -0.0225 -0.1930  0.2095
 3278W        W 6797   3.763   0.375  11.820  0.0796 -0.0483 -0.0959
 3279W        W 6798   0.977   2.157   8.224 -0.0415  0.1185 -0.0163
 3280W        W 6799   6.906   2.266  11.326  0.2765 -0.1290  0.0388
 3281W        W 6800   4.155   6.082   4.332 -0.1165 -0.5649 -0.1629
 3282W        W 6801   8.073   4.046  11.987  0.1621 -0.0015 -0.2148
 3283W        W 6802   6.347   2.107   9.500  0.0565 -0.0696 -0.0312
 3284W        W 6803   3.034   2.912  11.484 -0.0883  0.2239 -0.3178
 3285W        W 6804   0.916   4.095   8.067 -0.1532  0.0825 -0.3595
 3286W        W 6805   6.417   6.629  10.539  0.0205 -0.1320  0.3740
 3287W        W 6806   5.988   9.100  10.549 -0.0427  0.0046  0.0508
 3288W        W 6807   0.731   5.446   0.217  0.2075 -0.0305 -0.0706
 3289W        W 6808   5.801   2.578   9.623 -0.2615 -0.0780 -0.1306
 3290W        W 6809   7.061   8.394  10.171 -0.0694 -0.0045  0.0691
 3291W        W 6810   7.938   5.305  11.943  0.0286 -0.1141 -0.1500
 3292W        W 6811   3.100   8.978   1.584 -0.0481 -0.1037 -0.0125
 3293W        W 6812   6.049   8.144   1.384 -0.0410  0.2037  0.0060
 3294W        W 6813   4.596   7.710  11.426 -0.1532  0.0112  0.0451
 3295W        W 6814   8.276   2.452  11.387 -0.1994  0.4198  0.2054
 3296W        W 6815   9.240   2.714   9.838  0.0232  0.4124  0.1904
 3297W        W 6816   8.619   2.517   2.031 -0.3813 -0.0892 -0.1282
 3298W        W 6817   7.845   2.844  12.049 -0.0229 -0.0328 -0.2366
 3299W        W 6818   8.355   3.567   9.599  0.1476 -0.2753 -0.0948
 3300W        W 6819   5.791   2.338   2.679  0.0205 -0.0354  0.2727
 3301W        W 6820   2.574   6.729   0.629 -0.0136  0.1666 -0.0817
 3302W        W 6821   4.058   9.078   3.612 -0.1899  0.0741 -0.1240
 3303W        W 6822   3.617   2.742   9.454 -0.1616  0.0218  0.0420
 3304W        W 6823   0.296   7.414   8.351  0.2523 -0.0110 -0.1881
 3305W        W 6824   4.806   2.296   2.604 -0.0204 -0.0437 -0.1566
 3306W        W 6825   0.724   8.970   3.583  0.4265 -0.1092  0.0900
 3307W        W 6826   7.757   3.840   1.216 -0.1061 -0.1413 -0.3363
 3308W        W 6827   7.526   6.819   0.724  0.0137  0.2282 -0.0755
 3309W        W 6828   4.981   3.201   0.032  0.0333 -0.1574  0.1173
 3310W        W 6829   1.280   5.984  10.521  0.0138 -0.0357 -0.0523
 3311W        W 6830   0.847   2.339   4.241  0.1027 -0.0185  0.0214
 3312W        W 6831   9.516   7.860   7.691 -0.1684  0.0388 -0.3400
 3313W        W 6832   1.909   2.057   8.611 -0.1276  0.0384 -0.1093
 3314W        W 6833   0.166   4.531   9.127 -0.0844  0.3971 -0.0880
 3315W        W 6834   9.526   0.774   2.008  0.0301 -0.0324  0.0508
 3316W        W 6835   7.552   4.966   2.560 -0.0062 -0.1145 -0.1103
 3317W        W 6836   7.126   0.281   0.731  0.1010  0.1103 -0.4895
 3318W        W 6837   6.745   4.921   9.388  0.0033 -0.0785 -0.0110
 3319W        W 6838   0.472   2.802   4.308  0.1000  0.1518  0.0571
 3320W        W 6839   8.864   8.579   2.588  0.1420 -0.0965 -0.3448
 3321W        W 6840   5.305   6.798  12.529 -0.2073 -0.0058  0.1238
 3322W        W 6841   1.796   5.273  10.296 -0.1178  0.1231 -0.1361
 3323W        W 6842   2.206   8.378   8.628  0.1539  0.2384 -0.1447
 3324W        W 6843   0.944   8.223  10.943 -0.0545 -0.2320 -0.1003
 3325W        W 6844   7.397   9.233   2.638 -0.0156 -0.3158 -0.3694
 3326W        W 6845   7.182   7.689   0.956 -0.0052  0.0427 -0.1184
 3327W        W 6846   1.001   1.561   1.038  0.1654 -0.0863  0.0713
 3328W        W 6847   0.394   0.110   1.292 -0.1799 -0.3460  0.1734
 3329W        W 6848   1.600   2.350   2.166 -0.0792 -0.0201 -0.4322
 3330W        W 6849   2.849   4.186   0.009  0.1365  0.3590  0.0890
 3331W        W 6850   6.774   7.362   0.465  0.1591  0.0293 -0.1197
 3332W        W 6851   8.061   1.619  10.342 -0.1319  0.0108 -0.0468
 3333W        W 6852   3.885   8.362  11.602 -0.0823  0.0909  0.0425
 3334W        W 6853   2.024   2.067  10.200  0.1485 -0.2821 -0.0756
 3335W        W 6854   2.638   2.847   9.916  0.2586  0.1469 -0.2477
 3336W        W 6855   3.070   9.474   9.782 -0.0198  0.1183 -0.3644
 3337W        W 6856   9.099   6.171   9.580  0.1572  0.1216 -0.0936
 3338W        W 6857   1.751   8.166  12.427 -0.0438  0.2662 -0.3569
 3339W        W 6858   7.194   3.968   9.205 -0.1259  0.0855 -0.1785
 3340W        W 6859   6.020   4.659   3.419 -0.1009  0.1836  0.2315
 3341W        W 6860   7.732   5.268   0.388 -0.0563 -0.1526  0.2267
 3342W        W 6861   2.554   6.529  10.922 -0.0733 -0.2499  0.0598
 3343W        W 6862   5.042   1.581   2.552 -0.0283  0.1514 -0.0518
 3344W        W 6863   8.332   9.061  11.620 -0.0697  0.2531  0.0875
 3345W        W 6864   5.110   8.229   3.538 -0.0699 -0.1285 -0.3578
 3346W        W 6865   7.776   3.119  11.622 -0.2609 -0.0018  0.1134
 3347W        W 6866   8.335   4.398  12.194 -0.0522 -0.1211  0.1120
 3348W        W 6867   7.531   6.810   1.367 -0.1190 -0.1010  0.0605
 3349W        W 6868   5.284   4.784   9.634 -0.2698 -0.0633  0.1577
 3350W        W 6869   7.203   9.115   8.280 -0.2478 -0.0509 -0.2407
 3351W        W 6870   6.224   7.400   3.215  0.0865  0.1245  0.0824
 3352W        W 6871   9.216   5.517  10.615 -0.0327 -0.2172 -0.1803
 3353W        W 6872   9.111   7.661   7.920 -0.0875  0.1322 -0.1961
 3354W        W 6873   8.352   6.268   1.884 -0.0412 -0.2408 -0.2425
 3355W        W 6874   2.250   6.096   1.249 -0.2734 -0.4160  0.1254
 3356W        W 6875   6.999   4.684   3.118 -0.1656 -0.1141 -0.0239
 3357W        W 6876   2.332   4.220  11.552 -0.3694 -0.1782 -0.2753
 3358W        W 6877   6.619   9.345   9.140  0.0717 -0.0411 -0.0758
 3359W        W 6878   2.868   3.011   8.900 -0.2517  0.4600 -0.3070
 3360W        W 6879   2.326   8.202   3.045 -0.0568  0.2581  0.0104
 3361W        W 6880   2.165   6.462   1.536  0.1037 -0.0319 -0.0466
 3362W        W 6881   7.535   3.003   4.025 -0.0145 -0.1235  0.1556
 3363W        W 6882   6.033   5.499   3.591 -0.2387 -0.1492 -0.3051
 3364W        W 6883   6.954   5.821  10.524 -0.1032  0.2749 -0.1897
 3365W        W 6884   4.572   9.070   2.052  0.1311  0.1530 -0.2689
 3366W        W 6885   4.312   1.042   9.267  0.0603  0.1934  0.2539
 3367W        W 6886   6.269   9.359  11.676 -0.1089 -0.2011 -0.0323
 3368W        W 6887   6.418   2.361  10.417 -0.1205  0.0147  0.4016
 3369W        W 6888   8.984   2.347  11.836 -0.1705 -0.3761  0.4013
 3370W        W 6889   6.227   5.725  10.944  0.3659  0.3008 -0.0471
 3371W        W 6890   8.775   2.927   2.264 -0.1460  0.4842 -0.1312
 3372W        W 6891   2.384   3.928  10.394 -0.0056  0.5953  0.2639
 3373W        W 6892   2.365   4.042   9.350  0.2333  0.0812  0.1313
 3374W        W 6893   0.040   7.739   8.711 -0.0612  0.2639  0.0492
 3375W        W 6894   4.546   9.581   8.576 -0.0999  0.0315 -0.0175
 3376W        W 6895   1.161   3.432   9.094 -0.1938 -0.1265 -0.0724
 3377W        W 6896   6.237   4.388  10.636 -0.2095 -0.2508 -0.1743
 3378W        W 6897   5.265   7.961   9.883  0.1985  0.1659  0.0439
 3379W        W 6898   1.732   0.939   3.666  0.0944 -0.1236  0.3755
 3380W        W 6899   0.676   6.452   3.554 -0.0962 -0.0287 -0.0858
 3381W        W 6900   6.361   4.772   9.176  0.0058  0.0667  0.1082
 3382W        W 6901   5.634   3.504  11.570  0.0940  0.2224  0.1449
 3383W        W 6902   2.382   8.882   0.353 -0.1612 -0.1406  0.2861
 3384W        W 6903   2.002   6.182   2.503  0.1743 -0.1364  0.3177
 3385W        W 6904   0.566   4.535  10.566 -0.0076  0.0371  0.1754
 3386W        W 6905   8.554   2.118  11.768 -0.0170 -0.2112  0.1509
 3387W        W 6906   7.730   8.748   7.882  0.1557 -0.0021  0.0566
 3388W        W 6907   7.232   6.905  12.382  0.0513  0.0949  0.3591
 3389W        W 6908   9.587   1.559   1.132 -0.2878 -0.1981 -0.0003
 3390W        W 6909   0.805   4.982   0.649 -0.0979 -0.0043  0.0676
 3391W        W 6910   5.398   9.020   4.337 -0.0197  0.1815 -0.0350
 3392W        W 6911   3.478   1.890   9.593  0.1554  0.1748 -0.0740
 3393W        W 6912   6.785   2.149  10.766 -0.0093 -0.1616 -0.0690
 3394W        W 6913   3.353   6.319   0.562  0.0416 -0.2871  0.0801
 3395W        W 6914   2.859   7.084   3.293  0.4571  0.1175  0.0771
 3396W        W 6915   2.742   9.340  11.238 -0.0182 -0.0643 -0.2905
 3397W        W 6916   8.238   0.179  11.691  0.1395  0.1818  0.2767
 3398W        W 6917   4.893   0.663   3.649  0.0765 -0.0301 -0.0338
 3399W        W 6918   7.995   2.602   1.926  0.1166  0.0540  0.1597
 3400W        W 6919   8.693   5.761   9.626 -0.0874  0.0107  0.0573
 3401W        W 6920   5.823   8.358   2.759 -0.2302 -0.1642  0.2329
 3402W        W 6921   6.691   3.277   3.938 -0.0536  0.0938 -0.0288
 3403W        W 6922   3.401   0.468   1.199  0.0603 -0.2946 -0.1537
 3404W        W 6923   6.775   1.913   9.226 -0.0225  0.1034 -0.0222
 3405W        W 6924   4.454   6.816   0.306  0.0671  0.2368  0.1143
 3406W        W 6925   2.374   5.035   3.596  0.0368  0.1590  0.0989
 3407W        W 6926   8.788   4.613  12.019 -0.2499  0.0620 -0.2940
 3408W        W 6927   3.448   0.021   1.438  0.1323  0.1201  0.1556
 3409W        W 6928   1.346   0.886   2.893  0.0356  0.1197 -0.0108
 3410W        W 6929   1.702   0.304   2.381 -0.0335 -0.0997  0.1467
 3411W        W 6930   6.401   9.451   4.578  0.0019  0.3180  0.0452
 3412W        W 6931   6.115   7.695   1.056  0.3382 -0.1506 -0.2699
 3413W        W 6932   3.147   1.319   2.132 -0.2005  0.1270  0.2155
 3414W        W 6933   8.076   5.781   2.799 -0.1224  0.0299 -0.1611
 3415W        W 6934   3.907   4.528   0.839  0.2439  0.2029  0.2167
 3416W        W 6935   4.076   6.717   3.024  0.1642  0.1995  0.1876
 3417W        W 6936   6.872   7.633  11.174  0.1804  0.2562  0.0680
 3418W        W 6937   2.760   0.876   2.257  0.0615  0.0692 -0.1658
 3419W        W 6938   7.208   2.837  10.395  0.0230  0.0226  0.1628
 3420W        W 6939   3.971   7.391  10.007  0.2978 -0.0750  0.4342
 3421W        W 6940   1.017   4.114   0.675  0.2302 -0.0542  0.0580
 3422W        W 6941   0.047   0.969   8.336  0.1686  0.1555 -0.0077
 3423W        W 6942   1.521   4.740   4.074  0.1652 -0.1457 -0.2205
 3424W        W 6943   5.220   1.679   3.401  0.1242 -0.3479  0.1267
 3425W        W 6944   0.494   2.779   3.288  0.4996  0.3621 -0.0538
 3426W        W 6945   2.194   2.070  11.057  0.3383 -0.0391 -0.2401
 3427W        W 6946   6.391   2.592   1.723 -0.1737 -0.1784 -0.0717
 3428W        W 6947   6.819   6.975   3.051  0.0610 -0.1729  0.1118
 3429W        W 6948   3.478   0.037  11.504 -0.0577 -0.0721 -0.1459
 3430W        W 6949   1.360   7.175   4.031 -0.2216  0.1145  0.2026
 3431W        W 6950   5.914   6.601  11.774 -0.1500  0.2197 -0.0552
 3432W        W 6951   2.440   3.102   1.731 -0.0803 -0.1230  0.1997
 3433W        W 6952   5.765   6.361   3.428  0.2910  0.4440  0.1403
 3434W        W 6953   5.882   4.999   3.710 -0.3184  0.1040 -0.1838
 3435W        W 6954   4.860   5.938   2.702  0.0839  0.0135  0.0375
 3436W        W 6955   8.675   4.803   2.251  0.0897  0.0956 -0.3089
 3437W        W 6956   0.056   2.361   1.311 -0.5166  0.0967  0.1068
 3438W        W 6957   8.355   1.695  11.771  0.2317  0.0717 -0.0477
 3439W        W 6958   7.795   1.339   1.052 -0.1906 -0.3268 -0.1562
 3440W        W 6959   3.247   7.501   1.089  0.0121  0.1242  0.1869
 3441W        W 6960   0.602   1.507   4.073 -0.2701  0.0297  0.1523
 3442W        W 6961   4.492   5.730   1.454 -0.1755 -0.0758  0.2309
 3443W        W 6962   8.402   5.521   9.279 -0.0340 -0.1751  0.1385
 3444W        W 6963   9.013   0.686   1.247 -0.3051 -0.2123 -0.1405
 3445W        W 6964   2.921   5.685   0.029  0.0600 -0.2009  0.1376
 3446W        W 6965   1.755   2.469  12.032  0.1785  0.0129 -0.2712
 3447W        W 6966   8.054   1.298   3.698 -0.2443  0.0517  0.0633
 3448W        W 6967   1.909   1.365  12.411  0.3330  0.0431  0.0533
 3449W        W 6968   2.289   8.521  10.782  0.2478 -0.0806 -0.1200
 3450W        W 6969   3.656   4.663  11.119  0.0757  0.2613  0.2728
 3451W        W 6970   7.433   7.680   7.993 -0.0138  0.3659 -0.0888
 3452W        W 6971   7.086   6.241  11.145 -0.2237 -0.1838  0.0585
 3453W        W 6972   1.063   1.686   4.292 -0.3486 -0.1377  0.4294
 3454W        W 6973   8.897   1.031  11.872 -0.1673 -0.1516 -0.2301
 3455W        W 6974   7.313   3.735   3.240 -0.0161  0.1512  0.2885
 3456W        W 6975   8.951   9.482  10.061 -0.0046 -0.0845  0.1378
 3457W        W 6976   0.627   1.999   2.920  0.0148 -0.1482 -0.1612
 3458W        W 6977   2.382   1.275   0.975  0.1381  0.2065  0.1623
 3459W        W 6978   2.717   2.681   1.712  0.2348  0.1498  0.2131
 3460W        W 6979   0.129   8.049  11.933 -0.1979  0.2344 -0.2243
 3461W        W 6980   9.166   3.729   1.143 -0.0055 -0.0474  0.0607
 3462W        W 6981   4.063   4.939  11.167  0.1376  0.0576 -0.1389
 3463W        W 6982   2.816   1.234  11.255  0.0924  0.1211 -0.0517
 3464W        W 6983   1.251   8.458   1.157  0.2051 -0.0743  0.1958
 3465W        W 6984   1.290   5.054  12.230 -0.4065 -0.3684 -0.2493
 3466W        W 6985   6.813   3.118  10.599 -0.0988  0.0885 -0.0432
 3467W        W 6986   9.081   4.838   0.094 -0.1926  0.0677  0.2446
 3468W        W 6987   7.614   3.230   0.378 -0.3213 -0.0367 -0.0674
 3469W        W 6988   1.240   2.646   1.011 -0.0960  0.0793  0.2011
 3470W        W 6989   7.599   6.146  11.288  0.0083  0.0733 -0.0202
 3471W        W 6990   4.410   2.397   0.851 -0.0449  0.3216  0.1056
 3472W        W 6991   4.156   2.910   8.558 -0.0584  0.0446 -0.1889
 3473W        W 6992   2.986   2.202   3.123 -0.0159 -0.1892 -0.2209
 3474W        W 6993   4.918   9.067   1.731 -0.1525 -0.2896 -0.0777
 3475W        W 6994   3.305   3.193   3.209 -0.2615 -0.2425 -0.0070
 3476W        W 6995   8.981   1.761   2.210  0.0930  0.0089  0.1761
 3477W        W 6996   3.420   3.862  11.456  0.0958 -0.2960  0.0805
 3478W        W 6997   2.530   5.858  10.341 -0.2832 -0.1771  0.0959
 3479W        W 6998   2.912   0.280   0.685  0.0953 -0.1570  0.0450
 3480W        W 6999   6.123   7.687   0.082 -0.0451  0.0440 -0.2285
 3481W        W 7000   1.458   5.096   8.962 -0.0192 -0.0694 -0.0262
 3482W        W 7001   6.543   2.360   3.532  0.1612 -0.2460  0.0396
 3483W        W 7002   0.680   7.765   8.320  0.0495  0.1894 -0.2958
 3484W        W 7003   0.064   2.795   3.100 -0.2758  0.1781 -0.1206
 3485W        W 7004   8.068   6.343  10.390 -0.2246  0.0001  0.1490
 3486W        W 7005   1.933   6.901   1.508  0.2191  0.0081  0.0815
 3487W        W 7006   1.966   1.908   3.394 -0.0436  0.0040 -0.2316
 3488W        W 7007   1.954   8.862  11.169  0.1747  0.1756 -0.2434
 3489W        W 7008   6.845   5.009   3.951 -0.0473 -0.2008 -0.1042
 3490W        W 7009   5.066   2.866   1.828  0.1784  0.0328 -0.0177
 3491W        W 7010   3.831   6.235   2.419  0.0329 -0.0266 -0.1664
 3492W        W 7011   3.387   8.883  11.417  0.3185 -0.1706  0.1040
 3493W        W 7012   0.287   5.788  11.836 -0.3053 -0.1724 -0.1281
 3494W        W 7013   0.052   8.133   2.668  0.1201  0.1237  0.0757
 3495W        W 7014   0.357   5.250   9.428 -0.0456 -0.1513 -0.1153
 3496W        W 7015   8.973   8.984  10.166 -0.3501  0.0176  0.0307
 3497W        W 7016   8.620   3.041  10.223  0.0306 -0.0517 -0.2538
 3498W        W 7017   5.939   1.812   3.214  0.2307  0.0485 -0.0566
 3499W        W 7018   7.545   8.336  12.409  0.0083  0.0829  0.0402
 3500W        W 7019   8.679   2.224   3.763  0.3926  0.1977 -0.0013
 3501W        W 7020   1.995   2.000   2.814  0.2376  0.1507 -0.3399
 3502W        W 7021   4.038   5.397  12.048  0.2429  0.1709  0.1623
 3503W        W 7022   6.978   1.754  11.275 -0.0569  0.2809 -0.2986
 3504W        W 7023   4.552   0.167   0.493  0.0290  0.0976 -0.2470
 3505W        W 7024   8.423   4.736   8.942 -0.0740 -0.0389 -0.1326
 3506W        W 7025   0.481   6.854  11.071 -0.0780 -0.2368  0.0401
 3507W        W 7026   0.089   4.672  12.235  0.1136 -0.0554 -0.0023
 3508W        W 7027   5.646   8.626  11.847  0.2169 -0.3025 -0.0337
 3509W        W 7028   7.633   1.555  10.473 -0.1800 -0.0172 -0.0295
 3510W        W 7029   7.049   4.548  12.319 -0.2274  0.1957 -0.0378
 3511W        W 7030   7.530   8.117   9.764  0.0572 -0.3368 -0.3347
 3512W        W 7031   7.033   8.192  12.392 -0.0757  0.0672 -0.0598
 3513W        W 7032   6.572   6.119   0.138  0.0877  0.1032  0.0689
 3514W        W 7033   0.780   5.921   3.552  0.3124  0.0059 -0.1179
 3515W        W 7034   3.168   5.457   0.517 -0.1054 -0.1073 -0.3551
 3516W        W 7035   9.425   7.694  11.785 -0.0477 -0.0899  0.0199
 3517W        W 7036   2.554   5.353   0.890 -0.1125  0.2636  0.0726
 3518W        W 7037   6.910   0.056  12.463 -0.2700 -0.0122 -0.0190
 3519W        W 7038   4.170   4.863   3.682 -0.1296 -0.2652  0.1164
 3520W        W 7039   1.207   6.103  10.028  0.0907 -0.0835  0.0870
 3521W        W 7040   1.878   7.114  10.049  0.2634 -0.1936 -0.1404
 3522W        W 7041   4.890   0.317   4.023 -0.0440  0.1056 -0.1555
 3523W        W 7042   8.608   1.443  11.432 -0.1316 -0.0631  0.1299
 3524W        W 7043   2.247   8.089   2.210 -0.6606 -0.0403 -0.0165
 3525W        W 7044   2.257   4.475  11.961 -0.1689  0.1137 -0.3108
 3526W        W 7045   7.009   8.411   9.591 -0.0096 -0.3226 -0.1806
 3527W        W 7046   1.496   8.133   0.265  0.1279 -0.0617  0.0263
 3528W        W 7047   1.564   8.841   9.432  0.2948 -0.0333 -0.1586
 3529W        W 7048   5.037   6.628   1.329 -0.1251 -0.2046 -0.1066
 3530W        W 7049   7.560   6.526   3.166  0.4190 -0.4562  0.1011
 3531W        W 7050   8.648   1.963   0.214 -0.0652  0.4666  0.3094
 3532W        W 7051   4.736   4.843   2.732 -0.1278  0.2443 -0.3340
 3533W        W 7052   9.265   3.273  10.535  0.0047 -0.4971 -0.2356
 3534W        W 7053   7.483   8.645   1.828  0.1377 -0.0468  0.0937
 3535W        W 7054   3.307   0.175  10.489 -0.5237  0.0621  0.0893
 3536W        W 7055   5.983   4.325   2.701  0.2440  0.1733  0.0860
 3537W        W 7056   6.347   8.165   0.013 -0.2315 -0.0329 -0.1615
 3538W        W 7057   9.316   7.156  12.412 -0.0067 -0.1632  0.1816
 3539W        W 7058   6.438   9.096  12.159 -0.0905 -0.0807  0.1807
 3540W        W 7059   6.059   7.643   1.554  0.3207  0.0691 -0.2719
 3541W        W 7060   2.329   7.810   1.686  0.0678 -0.1559 -0.0443
 3542W        W 7061   7.888   4.468  11.720  0.0549  0.0819  0.0984
 3543W        W 7062   1.909   6.984  10.968 -0.1446  0.2160  0.1332
 3544W        W 7063   4.093   5.412   0.583 -0.0002  0.0072 -0.0754
 3545W        W 7064   7.537   1.850   8.053 -0.0679 -0.1583 -0.0441
 3546W        W 7065   6.745   6.885   0.708  0.0332  0.0419  0.1332
 3547W        W 7066   2.384   1.899   8.590 -0.0467  0.0175 -0.1128
 3548W        W 7067   1.881   2.924   0.382  0.1242  0.0880 -0.1628
 3549W        W 7068   3.234   2.173  11.992 -0.1548  0.0242  0.0366
 3550W        W 7069   6.460   0.166   3.640 -0.2306 -0.3156  0.0185
 3551W        W 7070   4.016   8.904   9.523  0.0694  0.1117  0.0510
 3552W        W 7071   1.344   3.380   9.562 -0.1473  0.0692 -0.2096
 3553W        W 7072   5.366   6.406   0.954  0.2965  0.0573  0.0905
 3554W        W 7073   0.229   7.638  11.677 -0.3114  0.1205 -0.3820
 3555W        W 7074   8.342   2.872   3.578 -0.0745 -0.4703  0.0241
 3556W        W 7075   4.145   3.679  11.306  0.1896  0.1357 -0.1100
 3557W        W 7076   4.793   5.898   2.013  0.1022  0.0671 -0.1374
 3558W        W 7077   6.854   9.360  11.606 -0.1369  0.3298 -0.2830
 3559W        W 7078   4.681   1.520  10.126  0.1870 -0.2706 -0.2025
 3560W        W 7079   7.048   3.406   1.763  0.3626 -0.0166 -0.1221
 3561W        W 7080   6.979   8.372  11.903  0.0807 -0.2043  0.2859
 3562W        W 7081   0.487   7.412  11.036  0.1473 -0.1680  0.2488
 3563W        W 7082   1.507   5.989   0.568 -0.3479 -0.0226  0.3969
 3564W        W 7083   4.407   0.772   1.730 -0.1031 -0.0095  0.2692
 3565W        W 7084   0.507   2.529   0.343 -0.3163 -0.1594 -0.1620
 3566W        W 7085   7.352   5.008   4.229  0.1404  0.1291 -0.0549
 3567W        W 7086   6.845   1.111   0.661  0.1064  0.1389  0.1580
 3568W        W 7087   1.222   1.648   9.952 -0.2725  0.0288  0.0341
 3569W        W 7088   2.058   2.690   1.820  0.1216 -0.0576  0.3091
 3570W        W 7089   8.643   0.224  11.356 -0.2393 -0.1922 -0.0339
 3571W        W 7090   5.086   2.404  10.136 -0.2064  0.1145 -0.3934
 3572W        W 7091   6.414   1.669   3.370  0.3640  0.0544 -0.2351
 3573W        W 7092   4.064   1.082   3.565 -0.1030  0.0757 -0.1266
 3574W        W 7093   0.250   4.747   1.211  0.1626 -0.0527 -0.1289
 3575W        W 7094   2.370   4.869   1.337  0.0951  0.1528  0.0803
 3576W        W 7095   1.254   2.479   3.882 -0.1227  0.0866 -0.1646
 3577W        W 7096   6.633   0.851   1.932 -0.4631 -0.0332  0.1381
 3578W        W 7097   2.179   9.360   2.302  0.0585 -0.5128  0.1710
 3579W        W 7098   6.843   6.758  10.324 -0.1215 -0.2110 -0.2713
 3580W        W 7099   2.916   1.247  12.126 -0.1089  0.0064 -0.1343
 3581W        W 7100   3.252   7.673   0.406 -0.0940  0.2615 -0.0720
 3582W        W 7101   3.737   8.380   8.934  0.0852 -0.0427  0.0768
 3583W        W 7102   7.220   7.381   8.843  0.1955 -0.0396  0.3146
 3584W        W 7103   5.020   1.828   1.044  0.2373 -0.0725 -0.1838
 3585W        W 7104   0.220   0.976  11.368 -0.5430  0.1497 -0.1930
 3586W        W 7105   3.656   3.874  12.308  0.1702  0.2240 -0.0866
 3587W        W 7106   8.626   8.730   2.141  0.0732  0.1249 -0.1185
 3588W        W 7107   9.535   6.232   2.370 -0.2450  0.0225  0.1697
 3589W        W 7108   3.349   4.796   9.330  0.2841  0.0807 -0.2053
 3590W        W 7109   1.123   8.630  11.599 -0.3017  0.1073  0.2093
 3591W        W 7110   4.447   9.332  10.693  0.2551 -0.2393  0.2784
 3592W        W 7111   0.298   2.184   0.647 -0.2137 -0.0968 -0.1983
 3593W        W 7112   3.728   4.653   2.573 -0.1105  0.0971 -0.1118
 3594W        W 7113   4.670   4.209   2.403 -0.0150  0.0024  0.0559
 3595W        W 7114   3.450   6.071  10.551 -0.0684 -0.2405  0.0161
 3596W        W 7115   6.713   7.249   8.628  0.1992 -0.1259  0.3612
 3597W        W 7116   1.989   3.747   2.141 -0.1548  0.0958 -0.1959
 3598W        W 7117   8.042   7.135  10.904 -0.1247 -0.0443  0.0157
 3599W        W 7118   4.167   9.495  11.116  0.2614 -0.0338  0.2912
 3600W        W 7119   0.068   0.669   8.789 -0.1374 -0.0520  0.3414
 3601W        W 7120   2.712   3.308  10.216  0.2109  0.0062 -0.1510
 3602W        W 7121   4.275   8.900  12.496 -0.0442 -0.1144 -0.1791
 3603W        W 7122   9.690   7.972   9.922 -0.1194 -0.1920 -0.4091
 3604W        W 7123   2.389   0.719   1.916 -0.3742  0.0255 -0.1440
 3605W        W 7124   6.135   2.810  11.428  0.1622 -0.1078 -0.0470
 3606W        W 7125   7.986   2.887  10.210  0.2325  0.4077  0.2406
 3607W        W 7126   1.297   5.891   3.404 -0.0961 -0.0052 -0.1266
 3608W        W 7127   0.505   1.948   8.998 -0.0832  0.1825 -0.0530
 3609W        W 7128   2.102   8.873  12.525 -0.0078  0.2254  0.2782
 3610W        W 7129   0.962   1.529  11.873 -0.1392  0.2041 -0.3762
 3611W        W 7130   5.355   7.772   0.598  0.0351  0.1096 -0.1975
 3612W        W 7131   1.394   9.014   0.709 -0.1116  0.2470  0.1191
 3613W        W 7132   7.768   5.984   5.075  0.5112 -0.0899  0.1078
 3614W        W 7133   8.911   8.262   8.832 -0.1902  0.0327 -0.1199
 3615W        W 7134   1.817   2.403  11.159 -0.4090  0.1315  0.1255
 3616W        W 7135   0.320   1.444   9.786 -0.1856 -0.2279  0.1851
 3617W        W 7136   4.812   0.620  11.389  0.3053  0.1957 -0.0780
 3618W        W 7137   1.746   6.547   1.154  0.0194 -0.0447  0.0968
 3619W        W 7138   6.273   9.057   4.084 -0.0238 -0.2036 -0.1426
 3620W        W 7139   6.129   4.722   1.741  0.1605  0.1507  0.1140
 3621W        W 7140   5.274   1.912   0.591  0.0462 -0.4147 -0.0726
 3622W        W 7141   5.363   3.000   0.291  0.2862  0.2001 -0.2157
 3623W        W 7142   7.682   8.968  11.057 -0.1348  0.0507  0.2033
 3624W        W 7143   4.250   5.945  10.070  0.1585  0.0116 -0.2856
 3625W        W 7144   5.558   8.435   1.929  0.0736 -0.1200 -0.1293
 3626W        W 7145   3.150   5.112  10.363  0.0326  0.0919 -0.2197
 3627W        W 7146   7.712   8.343   2.116  0.2471  0.1339  0.0346
 3628W        W 7147   6.080   1.297   8.385 -0.0345  0.0524 -0.2664
 3629W        W 7148   7.061   2.026  10.129  0.1668 -0.1201 -0.1148
 3630W        W 7149   8.727   3.391   0.969 -0.0500  0.0204 -0.1607
 3631W        W 7150   5.515   2.540   1.623  0.2324  0.1789 -0.1681
 3632W        W 7151   0.972   0.125   1.716 -0.1602 -0.0293 -0.0743
 3633W        W 7152   9.416   8.884   8.391  0.0301 -0.0299 -0.0603
 3634W        W 7153   4.012   1.978   9.095  0.1031  0.0981  0.3919
 3635W        W 7154   2.021   4.805  11.682  0.1932 -0.2059 -0.0390
 3636W        W 7155   2.354   6.710   9.296 -0.0135  0.0464  0.2785
 3637W        W 7156   5.589   6.007  10.435 -0.0891  0.3919  0.1458
 3638W        W 7157   1.890   5.685  11.442  0.4123  0.1874 -0.1409
 3639W        W 7158   4.971   3.448   2.148  0.4016  0.0550 -0.4748
 3640W        W 7159   9.577   8.640   9.829  0.2555  0.2548  0.1085
 3641W        W 7160   3.886   0.287   3.369 -0.1485  0.0435 -0.0853
 3642W        W 7161   1.639   2.705   3.570 -0.0364 -0.2986  0.2181
 3643W        W 7162   6.079   9.663  11.259 -0.0497 -0.2057  0.4464
 3644W        W 7163   3.118   5.702  11.681  0.1150 -0.0535 -0.1408
 3645W        W 7164   4.246   6.158   1.217 -0.0829  0.1267  0.0356
 3646W        W 7165   6.455   4.580   0.585 -0.0525 -0.1388 -0.2851
 3647W        W 7166   5.529   0.596   7.977  0.3184  0.0021 -0.1811
 3648W        W 7167   8.855   5.152   8.169 -0.0775  0.0391  0.0064
 3649W        W 7168   1.332   8.897   3.289  0.1214 -0.0186 -0.1484
 3650W        W 7169   2.081   5.436   3.536  0.2065 -0.0704  0.1112
 3651W        W 7170   3.888   2.593  10.299  0.2992  0.0810  0.3135
 3652W        W 7171   5.245   5.627   0.728  0.0347 -0.0950  0.1538
 3653W        W 7172   7.067   1.191   8.146 -0.0381  0.2786 -0.0346
 3654W        W 7173   7.449   5.993  12.565 -0.0780  0.0480  0.0162
 3655W        W 7174   6.025   0.400   1.510  0.1801 -0.1469  0.0245
 3656W        W 7175   7.190   7.101   1.834 -0.4113  0.2970 -0.1142
 3657W        W 7176   2.458   9.604  10.754  0.1365  0.0668  0.1082
 3658W        W 7177   7.114   4.241   3.646 -0.2754 -0.1753 -0.0481
 3659W        W 7178   8.276   0.172   1.370  0.0313 -0.2371 -0.3010
 3660W        W 7179   2.931   0.151   3.269  0.1531 -0.0054  0.4355
 3661W        W 7180   4.883   9.128   2.396  0.1687 -0.1385 -0.0142
 3662W        W 7181   5.352   7.687   3.576  0.2435 -0.4379 -0.1820
 3663W        W 7182   6.659   5.865   0.850 -0.0704  0.1727  0.3365
 3664W        W 7183   7.247   4.166   1.370 -0.0032 -0.1208 -0.2397
 3665W        W 7184   6.538   1.320   0.262  0.0476 -0.1051  0.0844
 3666W        W 7185   0.481   6.067   4.142  0.0314 -0.2111  0.1863
 3667W        W 7186   1.361   7.524   0.573  0.1990 -0.1041 -0.0511
 3668W        W 7187   5.069   0.434  10.990 -0.0902  0.1441 -0.0870
 3669W        W 7188   2.936   9.168   2.020 -0.1336 -0.0423 -0.3405
 3670W        W 7189   4.794   3.271   1.708 -0.1362 -0.0395  0.3054
 3671W        W 7190   3.098   9.335   8.549 -0.0739  0.1169  0.0661
 3672W        W 7191   1.880   0.581   1.978  0.3057 -0.3071 -0.0083
 3673W        W 7192   4.803   4.124   0.122  0.2044  0.0144 -0.1609
 3674W        W 7193   0.165   9.449   2.675  0.2021  0.2479  0.1565
 3675W        W 7194   3.292   1.626  11.247  0.2222  0.4328  0.1843
 3676W        W 7195   1.011   6.657   0.442 -0.1327 -0.2040 -0.2734
 3677W        W 7196   5.782   7.498  11.331 -0.2343 -0.2215  0.0253
 3678W        W 7197   0.976   3.097   9.936 -0.0077 -0.2798  0.2128
 3679W        W 7198   0.104   1.178   8.833 -0.0100  0.1867 -0.1056
 3680W        W 7199   9.529   7.979   0.718 -0.2924  0.2050 -0.0809
 3681W        W 7200   8.880   6.099   9.146 -0.0844  0.0932  0.0526
 3682W        W 7201   6.993   1.076   0.205 -0.0255 -0.1984  0.3216
 3683W        W 7202   5.870   6.692   0.969 -0.1231  0.3657  0.3964
 3684W        W 7203   7.093   8.479   1.548  0.1200 -0.2144  0.0423
 3685W        W 7204   2.059   0.882  11.718 -0.4506 -0.3473  0.2262
 3686W        W 7205   3.641   9.267   9.386 -0.3814  0.1243  0.3378
 3687W        W 7206   0.929   5.876  12.337 -0.2331  0.4676 -0.0603
 3688W        W 7207   8.110   3.223   4.042  0.1089 -0.0661 -0.2972
 3689W        W 7208   1.225   1.725  10.536 -0.3418  0.2626  0.0490
 3690W        W 7209   8.281   9.322  10.535  0.1294 -0.2479 -0.2326
 3691W        W 7210   0.896   0.865  10.562 -0.0811 -0.2235  0.1515
 3692W        W 7211   0.227   7.080  10.209  0.1854  0.3322 -0.0166
 3693W        W 7212   6.773   8.786   1.248 -0.0999  0.0192  0.1283
 3694W        W 7213   0.359   9.252   3.768  0.0775  0.3646 -0.1402
 3695W        W 7214   0.764   0.151  11.224  0.0922 -0.1455  0.0651
 3696W        W 7215   4.411   8.856   8.501 -0.0901 -0.0686 -0.0350
 3697W        W 7216   2.283   2.913   0.050  0.0174 -0.1259 -0.1428
 3698W        W 7217   6.221   1.464  10.226 -0.2172 -0.3531  0.5198
 3699W        W 7218   6.136   8.833  11.870 -0.1397  0.1459 -0.1805
 3700W        W 7219   0.659   8.712   4.341 -0.0694  0.0482  0.5599
 3701W        W 7220   3.516   7.561   1.528 -0.0081  0.0416 -0.0866
 3702W        W 7221   9.432   3.427   2.296 -0.4065 -0.1187  0.0617
 3703W        W 7222   3.264   3.867   9.146 -0.2936 -0.0058 -0.0829
 3704W        W 7223   9.151   6.959  11.945  0.2839 -0.2355 -0.2774
 3705W        W 7224   8.584   1.840  12.235 -0.0795 -0.0697 -0.0545
 3706W        W 7225   6.140   7.866  12.230  0.0477 -0.2789 -0.1530
 3707W        W 7226   2.940   5.658   3.207 -0.0612  0.1116 -0.5549
 3708W        W 7227   2.716   3.599  10.656  0.0266  0.1830 -0.0541
 3709W        W 7228   6.448   7.807   3.451 -0.0547  0.0796 -0.1097
 3710W        W 7229   5.701   3.196   9.681 -0.1218  0.1514  0.0320
 3711W        W 7230   5.600   5.976   3.810  0.1123  0.0578  0.1187
 3712W        W 7231   1.817   7.922   1.527  0.0045  0.1756  0.1662
 3713W        W 7232   3.602   5.198  10.238 -0.2925  0.1420 -0.0703
 3714W        W 7233   7.310   3.373   0.912  0.0176 -0.0623 -0.1581
 3715W        W 7234   0.340   7.104   9.478 -0.2042  0.3175 -0.0856
 3716W        W 7235   4.650   3.515  11.545 -0.4636  0.2398  0.3008
 3717W        W 7236   4.260   1.176   8.099 -0.0580 -0.2787  0.2794
 3718W        W 7237   8.023   8.853  12.399 -0.1804  0.0346  0.1313
 3719W        W 7238   7.488   1.013   0.104  0.2383  0.2215 -0.3278
 3720W        W 7239   2.799   0.182   9.741  0.2013 -0.1200 -0.0171
 3721W        W 7240   4.305   4.124   3.346 -0.1561  0.0605 -0.0409
 3722W        W 7241   1.571   3.885   4.065  0.0219  0.0376 -0.1338
 3723W        W 7242   6.329   7.880  11.734 -0.0099 -0.0595  0.0574
 3724W        W 7243   0.881   9.297  11.453  0.2572  0.3576 -0.0773
 3725W        W 7244   7.313   0.404   2.267 -0.1463  0.0803 -0.2098
 3726W        W 7245   7.148   2.960   0.026 -0.2025 -0.0497 -0.0657
 3727W        W 7246   4.000   0.031   0.503 -0.3223 -0.1019 -0.3881
 3728W        W 7247   7.150   0.563   9.461 -0.2156 -0.1711 -0.0756
 3729W        W 7248   0.489   4.342   3.459  0.0530  0.5717 -0.0207
 3730W        W 7249   4.773   5.172   2.253  0.0893  0.1158  0.1461
 3731W        W 7250   5.823   6.467  11.291  0.0993  0.2047 -0.1730
 3732W        W 7251   3.144   5.696   2.068  0.0508  0.0754 -0.2551
 3733W        W 7252   7.839   4.789  12.065 -0.2574  0.2103  0.0785
 3734W        W 7253   1.669   6.817   8.642  0.2329 -0.3947 -0.2049
 3735W        W 7254   2.397   8.819   0.890  0.2532 -0.2374  0.2027
 3736W        W 7255   0.351   2.606   9.608 -0.2384  0.0652 -0.3124
 3737W        W 7256   4.236   7.962  12.226 -0.0986 -0.0431  0.1246
 3738W        W 7257   6.192   0.477   9.220 -0.1975  0.3021 -0.0414
 3739W        W 7258   1.597   3.137   2.511 -0.3781 -0.1280 -0.0654
 3740W        W 7259   7.915   2.134  11.545 -0.1901  0.1247  0.1441
 3741W        W 7260   7.896   2.827   3.780 -0.0769  0.0260  0.0549
 3742W        W 7261   1.746   3.434  11.304 -0.1386  0.0886 -0.0796
 3743W        W 7262   2.907   2.394  10.611  0.0256 -0.2656 -0.1892
 3744W        W 7263   7.820   5.226  11.034 -0.1466  0.2901  0.0541
 3745W        W 7264   3.454   3.064  11.084  0.3274 -0.0887  0.0298
 3746W        W 7265   7.770   4.024  11.500  0.2895 -0.1384 -0.2233
 3747W        W 7266   7.976   3.192   3.472 -0.3136 -0.1582  0.1007
 3748W        W 7267   1.860   7.895  11.898  0.0974 -0.0341 -0.0250
 3749W        W 7268   0.432   3.069  12.023 -0.1111 -0.2007  0.0472
 3750W        W 7269   7.037   8.390   4.143 -0.0683  0.0339 -0.1801
 3751W        W 7270   1.144   0.194   8.762  0.1555  0.0659  0.3077
 3752W        W 7271   0.828   5.938  10.800 -0.1080  0.1118  0.1433
 3753W        W 7272   3.234   5.601  10.449 -0.0105 -0.0728 -0.1034
 3754W        W 7273   0.424   3.687   2.738 -0.2758  0.2230  0.0601
 3755W        W 7274   7.108   0.798   2.029 -0.1084  0.0838 -0.0333
 3756W        W 7275   2.856   1.760   0.876 -0.0840  0.0281  0.1773
 3757W        W 7276   2.512   3.859  12.384  0.4032  0.1957 -0.2529
 3758W        W 7277   8.160   4.695   4.027  0.2707  0.4811 -0.4503
 3759W        W 7278   9.011   9.592   1.783 -0.0967  0.2433  0.3237
 3760W        W 7279   1.053   4.833   9.605 -0.0031 -0.1529  0.1521
 3761W        W 7280   7.764   3.337   1.104  0.0968 -0.1772 -0.0910
 3762W        W 7281   3.927   9.522   2.473 -0.1857  0.1847 -0.1621
 3763W        W 7282   8.958   9.456   0.143  0.1286 -0.0468 -0.2060
 3764W        W 7283   2.630   1.498  11.784 -0.4016  0.3623 -0.0759
 3765W        W 7284   8.408   8.145   7.621  0.2321  0.4840  0.3791
 3766W        W 7285   7.179   5.277   0.262  0.1604  0.1785  0.0073
 3767W        W 7286   8.991   4.499  10.784  0.2423  0.2334  0.1831
 3768W        W 7287   4.114   4.436  10.061  0.4319 -0.2087  0.0942
 3769W        W 7288   3.155   4.825   3.745  0.1130  0.1328 -0.0582
 3770W        W 7289   5.441   7.731   7.915 -0.1988 -0.1792  0.1937
 3771W        W 7290   5.208   4.414   3.170 -0.0317  0.1983  0.0541
 3772W        W 7291   5.651   7.911   1.012  0.1914  0.2682 -0.0956
 3773W        W 7292   1.514   3.263   0.315 -0.1530 -0.0649  0.0379
 3774W        W 7293   6.515   0.188   1.763  0.4060  0.1683  0.1391
 3775W        W 7294   7.354   4.650  10.400 -0.0596  0.1269 -0.0225
 3776W        W 7295   6.409   5.091  11.305  0.2105 -0.1383  0.1692
 3777W        W 7296   5.824   0.095   9.929  0.0972  0.0360  0.0404
 3778W        W 7297   3.230   7.939   1.963 -0.1349  0.0240 -0.0662
 3779W        W 7298   3.506   0.457  11.133  0.0269  0.0433 -0.2893
 3780W        W 7299   8.190   5.981   2.379  0.0853 -0.1776  0.0735
 3781W        W 7300   2.985   1.610  10.762  0.1461  0.0511 -0.0234
 3782W        W 7301   7.459   0.360   9.794 -0.0605 -0.0452 -0.0577
 3783W        W 7302   5.550   5.012   1.371  0.0723  0.2514 -0.1190
 3784W        W 7303   1.163   2.093   9.644  0.1225  0.2721 -0.0319
 3785W        W 7304   1.854   0.916   3.228 -0.1027 -0.2308 -0.0452
 3786W        W 7305   9.250   1.435   4.168  0.0129 -0.1638  0.2052
 3787W        W 7306   7.412   1.130   0.788 -0.0936 -0.0191  0.0951
 3788W        W 7307   6.155   7.315   2.102 -0.2369 -0.2475  0.1547
 3789W        W 7308   5.229   7.313   4.576  0.3193 -0.0195 -0.1685
 3790W        W 7309   0.302   1.910  10.093 -0.1554 -0.1020  0.0787
 3791W        W 7310   7.940   2.801   9.698 -0.0302  0.0238 -0.2779
 3792W        W 7311   5.010   0.116   2.795  0.2913 -0.1158  0.2811
 3793W        W 7312   7.203   0.294  10.230 -0.2261  0.0475 -0.0731
 3794W        W 7313   4.027   6.448   8.651  0.0768  0.2003  0.2657
 3795W        W 7314   2.510   0.627   7.895  0.0947 -0.2916  0.3847
 3796W        W 7315   3.712   1.507  11.611  0.0371 -0.0218 -0.0382
 3797W        W 7316   3.131   4.678   2.732 -0.1129  0.2065 -0.2695
 3798W        W 7317   4.875   8.790   3.643  0.0749 -0.2606 -0.2044
 3799W        W 7318   7.546   5.207   9.840  0.2599 -0.0595 -0.2805
 3800W        W 7319   0.567   6.923   8.423  0.0287 -0.0316  0.1439
 3801W        W 7320   7.096   3.883   1.807 -0.1324 -0.0982  0.0347
 3802W        W 7321   8.787   5.823   0.122  0.0774 -0.0982  0.0897
 3803W        W 7322   3.702   9.041   9.866 -0.1535  0.1447  0.3334
 3804W        W 7323   2.980   8.472  11.952 -0.1723  0.4297 -0.1530
 3805W        W 7324   5.829   1.436  10.522 -0.1216 -0.1734 -0.0056
 3806W        W 7325   7.381   4.474   9.846  0.1856  0.1542  0.2475
 3807W        W 7326   4.769   3.355   9.856 -0.0709 -0.0878  0.2294
 3808W        W 7327   8.978   5.769   1.840  0.1769  0.0505  0.0757
 3809W        W 7328   5.579   4.560   0.865 -0.2215 -0.0139 -0.2409
 3810W        W 7329   0.181   8.449   3.018 -0.0765 -0.0458  0.2752
 3811W        W 7330   1.007   5.235   9.266  0.1224 -0.2079  0.1745
 3812W        W 7331   3.848   8.843  11.690 -0.1292 -0.0690  0.0255
 3813W        W 7332   2.427   4.408   2.567  0.1072  0.1727 -0.0831
 3814W        W 7333   0.352   9.327  11.436  0.2335  0.4543  0.2805
 3815W        W 7334   7.646   2.348  11.934  0.2287 -0.0747 -0.1522
 3816W        W 7335   5.256   5.946   1.852  0.1747  0.0246  0.0530
 3817W        W 7336   5.437   7.991   2.649  0.0668 -0.5285 -0.1716
 3818W        W 7337   8.557   4.663   3.150  0.0099 -0.1668  0.2009
 3819W        W 7338   1.272   9.154   2.082  0.1160 -0.1629  0.0633
 3820W        W 7339   8.572   0.587   8.653  0.0974 -0.1399 -0.0034
 3821W        W 7340   0.401   7.674  12.180 -0.3913  0.3613 -0.1079
 3822W        W 7341   2.022   2.172   1.982 -0.2164 -0.1745  0.4433
 3823W        W 7342   8.162   3.593   4.445  0.3353  0.0866 -0.1856
 3824W        W 7343   5.540   8.597   0.786 -0.0622  0.0473  0.0227
 3825W        W 7344   2.377   8.830   9.786  0.0002 -0.1913 -0.2573
 3826W        W 7345   6.647   3.594   2.940 -0.1559 -0.1232 -0.1439
 3827W        W 7346   4.394   1.610   9.281  0.5236  0.1666 -0.3418
 3828W        W 7347   4.567   9.321   9.740 -0.0545  0.0739 -0.0308
 3829W        W 7348   6.262   5.728   3.110  0.1244  0.2282 -0.3319
 3830W        W 7349   7.869   8.334   2.635  0.1220 -0.2023  0.0583
 3831W        W 7350   1.070   7.436   8.783 -0.0235  0.0892 -0.1289
 3832W        W 7351   0.750   9.506   3.551  0.1802  0.4217  0.2012
 3833W        W 7352   7.273   1.648   3.628  0.0271  0.3825  0.1196
 3834W        W 7353   2.299   7.924  11.510  0.0524  0.4915  0.0496
 3835W        W 7354   5.051   1.053  11.480 -0.0930  0.0794 -0.0442
 3836W        W 7355   7.758   4.232   0.492 -0.0119 -0.2088  0.2288
 3837W        W 7356   3.668   3.968   1.095  0.0159  0.2918 -0.4313
 3838W        W 7357   8.467   6.230  10.750  0.2554 -0.1624 -0.2530
 3839W        W 7358   6.649   0.737   0.415  0.1948  0.1051 -0.0253
 3840W        W 7359   8.193   8.306   2.180 -0.0249  0.0082  0.0151
 3841W        W 7360   0.092   5.638   2.378 -0.2859 -0.0413 -0.2912
 3842W        W 7361   8.413   4.885   8.072  0.3055 -0.0525 -0.1663
 3843W        W 7362   4.333   7.664   2.192 -0.0298 -0.2550  0.0160
 3844W        W 7363   8.623   9.372   0.583 -0.2585  0.1853  0.3233
 3845W        W 7364   4.620   5.216   0.849  0.2753  0.0470 -0.0192
 3846W        W 7365   6.513   9.654  10.440  0.4030 -0.2250 -0.0157
 3847W        W 7366   7.546   1.957  10.143 -0.2170 -0.0442 -0.1398
 3848W        W 7367   0.627   8.180   0.618  0.2559  0.1038  0.1775
 3849W        W 7368   6.130   0.046  12.234 -0.0752 -0.1485  0.0445
 3850W        W 7369   7.071   9.235  10.026  0.1637  0.0214 -0.0787
 3851W        W 7370   4.240   2.859   2.251  0.0205 -0.1473  0.1178
 3852W        W 7371   3.598   5.816   0.540  0.1670 -0.1524  0.1069
 3853W        W 7372   7.708   9.677  11.979 -0.0727 -0.4233  0.0876
 3854W        W 7373   2.482   7.128  11.841  0.1076  0.1821  0.0292
 3855W        W 7374   3.471   8.506   1.513  0.1575 -0.0615  0.0770
 3856W        W 7375   4.207   7.942   1.266  0.1571 -0.1215  0.0060
 3857W        W 7376   1.476   0.400   9.658  0.1705 -0.3348  0.3047
 3858W        W 7377   5.749   4.917   1.940  0.3020 -0.0298  0.1798
 3859W        W 7378   3.162   8.401  11.463  0.1577  0.0263 -0.1274
 3860W        W 7379   6.098   1.792  11.628  0.1021 -0.0908 -0.0471
 3861W        W 7380   3.476   3.248   9.522  0.1850  0.0250  0.1050
 3862W        W 7381   7.908   5.791   4.143  0.0206  0.0138  0.2188
 3863W        W 7382   4.754   1.092  12.352  0.2117  0.1382  0.1014
 3864W        W 7383   2.427   6.772  10.130 -0.1759 -0.0306  0.0658
 3865W        W 7384   9.326   8.185   1.775  0.0379 -0.0880  0.3103
 3866W        W 7385   2.152   7.981  10.975  0.2568 -0.0804 -0.0847
 3867W        W 7386   7.172   7.677   1.994 -0.1931  0.1338  0.1420
 3868W        W 7387   4.693   3.214   2.630 -0.0401 -0.4269 -0.0121
 3869W        W 7388   8.685   7.026   9.253  0.2077 -0.0992  0.3330
 3870W        W 7389   7.886   7.078   1.062 -0.2767 -0.2382 -0.1235
 3871W        W 7390   5.168   8.929   9.094 -0.0782  0.1290  0.0551
 3872W        W 7391   6.339   0.917   2.815  0.1811  0.0371 -0.0088
 3873W        W 7392   3.151   9.294   1.253  0.2954 -0.1279  0.1222
 3874W        W 7393   3.517   2.707   0.989  0.1015 -0.1639 -0.2061
 3875W        W 7394   7.646   8.595  11.946  0.1241  0.0640  0.3964
 3876W        W 7395   6.432   3.784   3.314  0.3766  0.1192 -0.1286
 3877W        W 7396   8.752   8.634   9.185  0.0167 -0.1526  0.1048
 3878W        W 7397   1.575   7.550   8.925  0.2884  0.3918  0.1233
 3879W        W 7398   7.270   1.779   3.158  0.1347 -0.0848  0.0724
 3880W        W 7399   5.143   1.269   9.218 -0.4309  0.2246  0.0742
 3881W        W 7400   2.038   2.453  12.486 -0.0952 -0.1545 -0.0604
 3882W        W 7401   0.061   9.451   1.317 -0.0568 -0.1063 -0.1249
 3883W        W 7402   3.947   5.244  10.577  0.2886 -0.3398 -0.1921
 3884W        W 7403   7.236   4.006  10.688  0.0338  0.0281 -0.2676
 3885W        W 7404   4.805   6.568   0.112 -0.1937 -0.2192 -0.0027
 3886W        W 7405   5.426   1.706   9.803  0.1249  0.0944 -0.3516
 3887W        W 7406   5.124   1.598   2.009 -0.2914 -0.0309  0.2391
 3888W        W 7407   5.395   3.879   9.469  0.2647  0.4440  0.0842
 3889W        W 7408   5.376   4.035  11.651  0.3259  0.0882 -0.1234
 3890W        W 7409   4.913   7.684  10.076  0.1610 -0.0344 -0.1065
 3891W        W 7410   2.598   1.562   0.391 -0.0672  0.2015  0.2306
 3892W        W 7411   3.507   6.588   2.500  0.0871 -0.1846 -0.2840
 3893W        W 7412   3.021   7.636   1.599  0.1296 -0.0187 -0.1782
 3894W        W 7413   2.839   3.258   9.746 -0.0646 -0.1646  0.0018
 3895W        W 7414   8.960   9.401   9.400  0.1325 -0.0069  0.2788
 3896W        W 7415   0.455   0.667  10.512  0.0982  0.1132 -0.0533
 3897W        W 7416   1.350   8.652   0.256 -0.2206 -0.0336 -0.1517
 3898W        W 7417   5.673   0.590  10.919  0.0518 -0.1685  0.4463
 3899W        W 7418   3.483   0.096   9.458 -0.0639 -0.3223  0.1031
 3900W        W 7419   3.991   4.801  10.645  0.1039  0.1233  0.2376
 3901W        W 7420   6.974   0.974   9.174 -0.0084  0.1479 -0.4307
 3902W        W 7421   1.343   8.454   8.571  0.3254 -0.0409  0.3127
 3903W        W 7422   9.308   8.041   3.588 -0.1482  0.1358  0.0913
 3904W        W 7423   8.665   1.513   1.382 -0.0226  0.1569  0.2538
 3905W        W 7424   7.575   4.240  11.990  0.2107  0.1238  0.2610
 3906W        W 7425   9.523   1.600   2.308  0.0215 -0.0385 -0.0284
 3907W        W 7426   8.896   1.911  11.482  0.0772  0.1530  0.0218
 3908W        W 7427   2.691   6.382   1.662  0.2535 -0.2829 -0.0663
 3909W        W 7428   9.263   6.007   0.288 -0.0730  0.0634 -0.1603
 3910W        W 7429   7.565   5.875   3.078  0.0966  0.3233 -0.1761
 3911W        W 7430   9.529   4.223   8.747  0.2528  0.2221 -0.1851
 3912W        W 7431   6.264   0.877   0.142  0.2696 -0.1139 -0.0632
 3913W        W 7432   6.768   9.230   9.629 -0.2001 -0.1520  0.0815
 3914W        W 7433   4.038   4.317  10.935  0.0625  0.1698  0.1314
 3915W        W 7434   2.365   5.607  11.187  0.3407 -0.4124  0.2599
 3916W        W 7435   4.943   4.011   1.154  0.2668 -0.1490  0.0926
 3917W        W 7436   2.729   0.212   0.193  0.3012  0.1888 -0.3594
 3918W        W 7437   4.218   2.414   8.873  0.2881 -0.4092  0.0906
 3919W        W 7438   3.476   9.279   1.721 -0.0949  0.0804  0.1175
 3920W        W 7439   4.127   5.872   2.093  0.1275  0.3163 -0.3022
 3921W        W 7440   6.809   4.048   2.835 -0.2001 -0.1208 -0.0795
 3922W        W 7441   8.493   3.655  10.801  0.0936  0.0293  0.0696
 3923W        W 7442   6.671   8.922  11.739 -0.0097  0.0680  0.0682
 3924W        W 7443   9.077   2.166   8.507  0.0823 -0.1619 -0.0888
 3925W        W 7444   0.105   5.078   9.040  0.1658  0.1967 -0.3915
 3926W        W 7445   2.218   5.565  10.589  0.0697 -0.0181  0.2553
 3927W        W 7446   7.209   5.016   2.085  0.0447  0.0450 -0.0923
 3928W        W 7447   5.780   6.320   4.742 -0.4558  0.2577  0.0311
 3929W        W 7448   0.476   7.958  11.085 -0.1662  0.0895 -0.2501
 3930W        W 7449   3.464   7.636   9.702  0.2020 -0.0286  0.0477
 3931W        W 7450   6.090   4.916   1.284  0.0921  0.3996  0.2430
 3932W        W 7451   5.199   7.825   9.010 -0.0273  0.0957  0.0545
 3933W        W 7452   3.618   4.441  10.534  0.2632  0.1438  0.0689
 3934W        W 7453   4.512   0.978   1.278 -0.1738 -0.1382  0.0385
 3935W        W 7454   2.657   6.764   2.479  0.1045 -0.0044 -0.0721
 3936W        W 7455   4.804   2.117   3.376 -0.5207 -0.3154  0.0053
 3937W        W 7456   8.426   5.511  11.877 -0.1421 -0.2989  0.2052
 3938W        W 7457   5.783   1.937   1.649  0.1729 -0.1726 -0.0372
 3939W        W 7458   0.940   2.095   8.733 -0.1458  0.0581 -0.0160
 3940W        W 7459   2.184   7.404   1.409 -0.2330  0.2989 -0.1016
 3941W        W 7460   8.048   7.484   2.162  0.3652  0.2227 -0.0205
 3942W        W 7461   4.640   1.771   0.702 -0.1310  0.0412 -0.0542
 3943W        W 7462   2.905   8.336   1.403  0.3049  0.0763  0.0557
 3944W        W 7463   5.059   3.592   3.429  0.0993 -0.1420  0.1536
 3945W        W 7464   0.536   8.764  12.428  0.1483 -0.0878 -0.0011
 3946W        W 7465   4.769   0.722   9.218 -0.4587 -0.0807  0.0543
 3947W        W 7466   8.811   1.828   9.508 -0.0386 -0.0130 -0.2979
 3948W        W 7467   2.016   1.799   9.074 -0.1667  0.1663  0.1198
 3949W        W 7468   3.095   5.386   2.408  0.1567 -0.1744  0.1213
 3950W        W 7469   6.849   1.428   8.567 -0.1820 -0.0998 -0.2148
 3951W        W 7470   3.181   1.076   4.184 -0.2083 -0.1953 -0.0240
 3952W        W 7471   4.797   3.614   0.834  0.1624 -0.4732 -0.0358
 3953W        W 7472   7.767   6.994   4.908  0.4627  0.1345  0.0160
 3954W        W 7473   9.299   0.248  11.574  0.1575  0.0302  0.0319
 3955W        W 7474   9.516   5.380  11.638  0.1982 -0.1311 -0.2878
 3956W        W 7475   2.699   8.217   9.666  0.2990 -0.1193  0.4036
 3957W        W 7476   7.935   6.450   2.131  0.0489  0.2028 -0.1106
 3958W        W 7477   1.506   7.029   3.426  0.1466 -0.2981  0.2248
 3959W        W 7478   1.372   4.636   9.947 -0.2880 -0.1042 -0.1725
 3960W        W 7479   8.594   1.640  10.581  0.0135 -0.0798  0.2595
 3961W        W 7480   0.481   6.609   3.995  0.1645 -0.2243 -0.1373
 3962W        W 7481   7.662   9.085   3.979  0.2595 -0.0477  0.1783
 3963W        W 7482   8.605   4.468   4.055 -0.1331 -0.0078 -0.3111
 3964W        W 7483   8.456   9.133  12.298  0.4817 -0.2690  0.0280
 3965W        W 7484   7.213   4.018  11.712 -0.1905  0.3096 -0.0633
 3966W        W 7485   4.099   9.559  11.769 -0.0158 -0.0551  0.0159
 3967W        W 7486   6.171   6.204   4.393 -0.0796  0.1107  0.0849
 3968W        W 7487   7.199   2.264  10.948 -0.0185 -0.2652 -0.0330
 3969W        W 7488   4.730   5.398  10.867 -0.0599 -0.1471 -0.1402
 3970W        W 7489   1.585   5.748   2.674  0.0872 -0.2100  0.1777
 3971W        W 7490   9.060   1.133   0.067  0.0423 -0.1562  0.0782
 3972W        W 7491   7.132   3.651   2.315 -0.1201 -0.2861  0.0467
 3973W        W 7492   1.332   6.486  12.295  0.4424  0.0868  0.0975
 3974W        W 7493   2.585   8.620   3.306  0.1687 -0.2994  0.0790
 3975W        W 7494   6.071   4.688   0.270 -0.0708 -0.4640  0.1994
 3976W        W 7495   1.656   6.777  11.995  0.1644  0.1502  0.2118
 3977W        W 7496   3.420   8.145   0.276 -0.4704 -0.3058  0.2315
 3978W        W 7497   1.552   5.590   0.211  0.0315 -0.0949  0.1074
 3979W        W 7498   5.314   0.138  10.684 -0.0807  0.1801  0.0105
 3980W        W 7499   0.966   4.614   2.845  0.3692  0.0824 -0.2161
 3981W        W 7500   7.876   3.545   9.519  0.2389 -0.3212 -0.1427
 3982W        W 7501   1.323   3.707  11.303 -0.2052  0.3452 -0.0662
 3983W        W 7502   9.523   2.781   1.962  0.0731 -0.4428 -0.0978
 3984W        W 7503   7.577   4.032   2.287 -0.0638  0.0281 -0.1515
 3985W        W 7504   3.277   9.267   4.080  0.1018 -0.2901 -0.2164
 3986W        W 7505   3.918   9.467  10.468 -0.0320  0.0269  0.0940
 3987W        W 7506   9.390   5.766   9.624  0.0216  0.1065 -0.0643
 3988W        W 7507   0.831   6.040   1.159 -0.0508  0.3255  0.1985
 3989W        W 7508   0.308   0.065   3.463  0.3805  0.1006 -0.1842
 3990W        W 7509   5.357   4.300  11.202  0.0996  0.1917  0.2278
 3991W        W 7510   9.611   3.895   0.780 -0.0573 -0.0946 -0.1335
 3992W        W 7511   8.344   6.012   3.856  0.0807 -0.2178 -0.3222
 3993W        W 7512   8.006   0.968  11.726 -0.0975 -0.0604  0.1112
 3994W        W 7513   6.609   4.875   2.499 -0.1308 -0.0548 -0.1251
 3995W        W 7514   5.171   3.294  11.350 -0.3760  0.0003  0.0206
 3996W        W 7515   2.951   5.255   3.983 -0.0763  0.0841 -0.0351
 3997W        W 7516   8.999   3.407   3.188  0.1869 -0.0521 -0.0849
 3998W        W 7517   0.364   3.839   1.118 -0.0035  0.1266 -0.1284
 3999W        W 7518   7.276   0.657   8.315  0.0104  0.1914  0.1075
 4000W        W 7519   3.148   5.774   1.441 -0.5403  0.1351  0.0997
 4001W        W 7520   9.521   6.977   0.675 -0.0176  0.3754  0.2637
 4002W        W 7521   4.095   6.531   2.080 -0.2105  0.0739 -0.1292
 4003W        W 7522   7.318   2.549   3.194  0.1395  0.0306  0.2056
 4004W        W 7523   2.205   9.427   1.212 -0.2868 -0.1530 -0.0049
 4005W        W 7524   0.919   4.645   8.114 -0.0653  0.0910 -0.1295
 4006W        W 7525   5.355   0.914   2.621  0.0000 -0.0162  0.1040
 4007W        W 7526   3.865   0.472   0.834  0.2999 -0.0183  0.2011
 4008W        W 7527   8.573   2.531   0.957  0.0864  0.0280  0.0618
 4009W        W 7528   1.161   7.269   2.920 -0.1900 -0.0426 -0.0657
 4010W        W 7529   4.621   6.683  10.218  0.3147 -0.0358  0.0718
 4011W        W 7530   6.181   0.568   1.953 -0.2658 -0.0878  0.0177
 4012W        W 7531   9.091   2.037   3.498  0.0891 -0.1587  0.0418
 4013W        W 7532   6.887   5.299   4.403 -0.1213  0.2722  0.1253
 4014W        W 7533   2.928   3.252  11.109  0.2816 -0.0037  0.0318
 4015W        W 7534   5.441   5.508   1.565 -0.0643  0.1193  0.1675
 4016W        W 7535   1.132   7.559   3.328  0.2079 -0.1596 -0.0038
 4017W        W 7536   1.474   5.026   1.769 -0.1540  0.1537 -0.0366
 4018W        W 7537   0.741   5.379  11.512  0.2212 -0.0920  0.1557
 4019W        W 7538   8.096   0.997  10.822  0.2161 -0.0795 -0.1800
 4020W        W 7539   2.057   0.120  10.396 -0.3823  0.2333  0.0651
 4021W        W 7540   7.814   7.047   9.732  0.0405 -0.0966  0.3864
 4022W        W 7541   8.030   2.622   0.625  0.0559  0.0346 -0.1125
 4023W        W 7542   3.776   7.708   3.184  0.3057 -0.2627  0.0349
 4024W        W 7543   1.853   3.270  10.871  0.1824  0.3380 -0.1938
 4025W        W 7544   3.367   6.680   1.007 -0.2783  0.2536  0.2565
 4026W        W 7545   0.107   6.909   3.759  0.1601 -0.3353  0.0844
 4027W        W 7546   8.105   3.157   7.758 -0.0750 -0.0583  0.2003
 4028W        W 7547   7.541   0.191   9.287 -0.1678 -0.1492  0.2742
 4029W        W 7548   4.993   2.621   8.850  0.1311  0.0352 -0.0377
 4030W        W 7549   9.044   0.965   3.709 -0.1465 -0.0959  0.0125
 4031W        W 7550   1.025   1.657  12.345 -0.1303  0.0799 -0.0905
 4032W        W 7551   8.620   5.351  12.373  0.0509 -0.2884  0.3890
 4033W        W 7552   6.867   4.344   0.695 -0.0298  0.0952  0.1767
 4034W        W 7553   7.392   2.388  10.400  0.0361 -0.3101  0.0126
 4035W        W 7554   3.238   6.180   9.080  0.2303  0.1425 -0.0527
 4036W        W 7555   4.674   1.709   2.231  0.0493  0.2259  0.1348
 4037W        W 7556   5.917   7.856   0.577  0.2733  0.1033  0.1222
 4038W        W 7557   9.658   8.953   8.875  0.2516 -0.0597  0.0683
 4039W        W 7558   5.725   4.063   2.368  0.2296  0.3344 -0.3342
 4040W        W 7559   7.670   5.442   2.831 -0.0811 -0.1836 -0.0304
 4041W        W 7560   0.776   5.220   9.797  0.1742  0.1649  0.1662
 4042W        W 7561   4.219   6.475   0.679  0.1483 -0.1539 -0.1177
 4043W        W 7562   4.481   6.103   2.398  0.0683 -0.0886  0.3136
 4044W        W 7563   4.635   7.696   4.664 -0.0305  0.2110 -0.3028
 4045W        W 7564   5.315   9.016   9.682  0.0280 -0.1436 -0.1656
 4046W        W 7565   7.961   0.458   8.976 -0.1581  0.3060  0.2331
 4047W        W 7566   0.962   6.689   2.428 -0.4186 -0.2560  0.0650
 4048W        W 7567   5.733   1.234   4.564 -0.2421 -0.1103  0.4113
 4049W        W 7568   7.597   9.122  10.064  0.4434  0.0667 -0.0223
 4050W        W 7569   9.478   5.642   4.538 -0.0010  0.1626  0.1132
 4051W        W 7570   3.028   3.606   3.059  0.0233  0.1143 -0.0577
 4052W        W 7571   7.137   3.427   0.435  0.4107  0.0562  0.2406
 4053W        W 7572   4.397   4.521  11.488  0.2294 -0.1257 -0.2840
 4054W        W 7573   4.186   2.595   9.795  0.2312  0.2101  0.1749
 4055W        W 7574   7.433   4.016   3.975 -0.1655 -0.1384  0.0159
 4056W        W 7575   9.132   2.237   9.305  0.2693 -0.3156  0.2100
 4057W        W 7576   2.992   8.958  10.431  0.0073  0.0218  0.3189
 4058W        W 7577   5.589   9.182   9.252  0.0035  0.1083  0.1662
 4059W        W 7578   2.653   9.066   3.589 -0.0210  0.0238 -0.3010
 4060W        W 7579   2.061   8.680   4.492  0.0530 -0.1989  0.0171
 4061W        W 7580   6.535   1.850   8.293 -0.0344  0.0616  0.0933
 4062W        W 7581   2.953   0.301   9.297 -0.0869  0.0696  0.1739
 4063W        W 7582   4.605   2.082   1.301  0.1337 -0.1112  0.0501
 4064W        W 7583   2.202   0.459   5.148  0.1512 -0.1257  0.1041
 4065W        W 7584   6.072   6.147   9.106  0.1185 -0.0587  0.1001
 4066W        W 7585   4.479   8.014  10.024  0.0950  0.3568 -0.1408
 4067W        W 7586   5.808   5.124   3.249 -0.0813 -0.1341  0.1519
 4068W        W 7587   4.923   5.557   1.665 -0.2067 -0.0653  0.0002
 4069W        W 7588   3.833   1.255   2.634  0.2738 -0.0819 -0.1401
 4070W        W 7589   6.076   5.785   2.515 -0.3187  0.3382  0.1478
 4071W        W 7590   6.429   9.303  11.221  0.2501  0.2277  0.0873
 4072W        W 7591   8.995   4.308   3.604 -0.0627 -0.1944  0.1190
 4073W        W 7592   7.073   0.194   9.089 -0.3098  0.3753  0.0504
 4074W        W 7593   1.733   7.163   2.294  0.0571 -0.3087  0.0379
 4075W        W 7594   8.135   2.287   3.022  0.1164  0.2759 -0.0189
 4076W        W 7595   1.512   0.789   2.432 -0.2502 -0.1430 -0.0465
 4077W        W 7596   5.530   6.658   1.411  0.3797  0.3402  0.1345
 4078W        W 7597   2.565   1.711   2.747 -0.1267  0.0797  0.2728
 4079W        W 7598   2.324   0.628   0.053  0.1347  0.2707 -0.0328
 4080W        W 7599   5.057   1.270   8.673 -0.2254 -0.0027 -0.2496
 4081W        W 7600   1.650   2.303   8.938 -0.0123 -0.4669 -0.1807
 4082W        W 7601   5.383   5.051   3.515  0.4069  0.0337  0.3143
 4083W        W 7602   7.248   1.160  10.307 -0.1942  0.0154  0.1998
 4084W        W 7603   4.912   2.491   0.944  0.2667 -0.0239 -0.3390
 4085W        W 7604   5.125   8.575   0.318  0.0413 -0.2384  0.2284
 4086W        W 7605   6.983   2.840   0.977 -0.0578  0.1313  0.2363
 4087W        W 7606   5.161   2.694  11.852 -0.0882  0.0369  0.0675
 4088W        W 7607   1.253   5.140  11.661 -0.1517  0.1407  0.0993
 4089W        W 7608   8.959   1.139   4.528  0.0417 -0.2068  0.2159
 4090W        W 7609   4.195   3.602   3.551 -0.4314 -0.2390  0.1109
 4091W        W 7610   2.043   1.818   1.572 -0.0273 -0.1398 -0.0615
 4092W        W 7611   4.486   5.222  12.200  0.3153  0.0776  0.5688
 4093W        W 7612   7.589   6.936   3.441  0.0500 -0.0519  0.0838
 4094W        W 7613   9.316   3.079   9.537 -0.3665 -0.0708 -0.0676
 4095W        W 7614   5.454   3.401  10.438 -0.1749 -0.2304  0.2310
 4096W        W 7615   6.949   6.132   9.132 -0.0849  0.2631 -0.0376
 4097W        W 7616   9.239   2.123   2.454  0.0926  0.0583 -0.0975
 4098W        W 7617   8.814   6.284   1.807  0.1436  0.0920 -0.0918
 4099W        W 7618   4.663   5.684  11.987  0.2278  0.2161  0.1471
 4100W        W 7619   6.890   6.622   4.496 -0.2698 -0.3676  0.1239
 4101W        W 7620   3.346   4.073   1.839 -0.0374  0.1478 -0.0063
 4102W        W 7621   6.998   4.680   1.125  0.0460 -0.1693 -0.0749
 4103W        W 7622   3.770   1.297   0.574 -0.0137  0.3457  0.3068
 4104W        W 7623   9.232   0.170   1.350 -0.0998  0.1064  0.2438
 4105W        W 7624   6.060   5.997   3.546  0.0183 -0.2075  0.0146
 4106W        W 7625   7.111   0.720   3.196 -0.3059  0.3410 -0.3425
 4107W        W 7626   7.193   0.261   3.925 -0.0352 -0.1839 -0.0857
 4108W        W 7627   3.173   8.430  12.437 -0.2315 -0.1456 -0.0688
 4109W        W 7628   7.769   0.387   3.139 -0.0147 -0.2381  0.4279
 4110W        W 7629   7.774   0.475   7.705 -0.0958 -0.0114 -0.0178
 4111W        W 7630   8.624   3.293   0.249 -0.1176 -0.0174 -0.3260
 4112W        W 7631   3.793   9.398   3.334 -0.1928  0.0877  0.0319
 4113W        W 7632   6.315   1.950   0.908  0.1198 -0.1541  0.1394
 4114W        W 7633   7.003   0.113   1.232 -0.0461  0.0445 -0.0150
 4115W        W 7634   3.672   3.107  11.721 -0.1011 -0.2751 -0.3349
 4116W        W 7635   8.739   6.096   0.552 -0.2725  0.1875 -0.2075
 4117W        W 7636   1.825   5.655   1.262 -0.1616  0.1869 -0.1547
 4118W        W 7637   2.906   4.463   0.844  0.0531 -0.0875  0.0233
 4119W        W 7638   8.826   0.069  11.794 -0.0415  0.0268  0.2925
 4120W        W 7639   0.617   8.609  10.874 -0.1226 -0.1948  0.2748
 4121W        W 7640   3.285   1.028  10.401  0.2079  0.1732 -0.1707
 4122W        W 7641   4.180   7.070   1.062  0.0502  0.3083  0.2438
 4123W        W 7642   0.694   3.207   2.395  0.1600  0.0072  0.0442
 4124W        W 7643   0.343   1.912   2.209  0.5080  0.0336  0.2313
 4125W        W 7644   8.628   4.936   8.509  0.0719 -0.0536 -0.1663
 4126W        W 7645   2.876   7.720  12.177 -0.0041  0.3097 -0.0350
 4127W        W 7646   7.328   1.953  12.243 -0.1421  0.2194  0.1474
 4128W        W 7647   7.592   0.020   0.686 -0.2260 -0.0295 -0.1200
 4129W        W 7648   9.458   1.760  10.973 -0.2283 -0.0014 -0.1677
 4130W        W 7649   7.778   9.682   3.387 -0.0608 -0.1520 -0.0352
 4131W        W 7650   0.451   6.842   0.054  0.0370  0.3132 -0.1037
 4132W        W 7651   5.631   1.507   2.980  0.3190 -0.2004 -0.0025
 4133W        W 7652   6.284   1.102  12.200 -0.1470  0.0540 -0.4093
 4134W        W 7653   1.694   2.546   0.846 -0.1859 -0.0054  0.1226
 4135W        W 7654   8.547   1.427   3.277 -0.0965 -0.1467 -0.3417
 4136W        W 7655   4.602   0.253  10.532 -0.1150 -0.4137  0.2071
 4137W        W 7656   9.549   2.591  12.562 -0.0310  0.0862 -0.2256
 4138W        W 7657   5.998   8.420   8.374  0.5175  0.2080 -0.4301
 4139W        W 7658   6.070   6.576   9.287  0.2363 -0.1268  0.3375
 4140W        W 7659   9.577   4.908   1.694  0.0675 -0.0417 -0.0406
 4141W        W 7660   8.604   3.864   1.910  0.1779  0.0129 -0.0505
 4142W        W 7661   0.182   6.079  11.302  0.2827 -0.0159  0.2041
 4143W        W 7662   9.266   2.715   4.146 -0.1467 -0.4237  0.0898
 4144W        W 7663   5.064   8.176   8.631 -0.2141  0.1046 -0.0934
 4145W        W 7664   0.080   3.546  10.683 -0.0165  0.0349  0.1218
 4146W        W 7665   2.698   2.303  10.111  0.1223 -0.0858  0.0176
 4147W        W 7666   2.443   2.546  10.941 -0.0158  0.2870  0.0898
 4148W        W 7667   5.646   2.784  11.910  0.0284  0.0680 -0.0985
 4149W        W 7668   0.517   4.113   0.660 -0.0686 -0.1355  0.3836
 4150W        W 7669   6.049   6.463   1.388 -0.0196 -0.1023  0.0772
 4151W        W 7670   2.695   8.240   7.975  0.1716  0.2712  0.1017
 4152W        W 7671   9.447   5.860  10.913 -0.1479  0.0891  0.3211
 4153W        W 7672   7.361   7.299  11.902  0.2155 -0.1870 -0.2560
 4154W        W 7673   6.392   0.121   2.361  0.0185  0.1304  0.2647
 4155W        W 7674   0.585   4.769  12.153 -0.2674  0.0123  0.0434
 4156W        W 7675   3.102   7.958  12.525  0.1153 -0.1227  0.0960
 4157W        W 7676   6.149   9.465   1.473  0.2089 -0.1053 -0.0606
 4158W        W 7677   0.449   1.262  12.578  0.1931 -0.2445  0.2560
 4159W        W 7678   1.657   1.434   0.825 -0.1486 -0.1478  0.0412
 4160W        W 7679   6.452   9.513   0.025  0.2724  0.0207  0.0453
 4161W        W 7680   5.652   9.177  12.473  0.0633 -0.1725 -0.2509
 4162W        W 7681   0.839   5.579   3.093  0.3600 -0.2190  0.0354
 4163W        W 7682   0.479   5.151  11.118  0.3113  0.1831  0.0936
 4164W        W 7683   3.477   3.648   0.711 -0.3521  0.0081  0.0468
 4165W        W 7684   2.906   9.568   3.668  0.3541 -0.0810 -0.0678
 4166W        W 7685   1.514   5.335   1.389  0.3953 -0.1776  0.3857
 4167W        W 7686   6.953   8.531  11.416  0.1501 -0.1106 -0.1322
 4168W        W 7687   0.422   1.192   3.705 -0.2861  0.0990 -0.1983
 4169W        W 7688   1.536   8.781   8.869  0.0929 -0.0691  0.0256
 4170W        W 7689   3.075   0.933   3.688  0.1109 -0.0079  0.0770
 4171W        W 7690   0.062   1.435   3.278  0.3014 -0.3816  0.0672
 4172W        W 7691   7.373   3.509  10.876 -0.0632  0.0379  0.1400
 4173W        W 7692   4.974   7.347   3.672  0.2266 -0.1871 -0.1381
 4174W        W 7693   6.143   8.099  10.247  0.1394 -0.1104 -0.0730
 4175W        W 7694   5.660   8.822  10.759  0.0753  0.0859 -0.2175
 4176W        W 7695   6.729   6.263   2.793 -0.0515 -0.1387 -0.1644
 4177W        W 7696   8.076   4.857   0.872  0.0119  0.0744  0.0806
 4178W        W 7697   1.368   6.094   1.832  0.0455 -0.1928  0.1983
 4179W        W 7698   7.121   2.496   1.613 -0.0795  0.0097  0.0760
 4180W        W 7699   2.187   7.545  11.950 -0.1266  0.0978 -0.0506
 4181W        W 7700   1.604   6.826  10.562  0.1257 -0.2380  0.1191
 4182W        W 7701   7.066   8.867   0.304 -0.1446 -0.1704 -0.4226
 4183W        W 7702   2.156   0.403  12.201  0.1177  0.4062  0.0742
 4184W        W 7703   1.381   7.812   1.748  0.0272  0.1365 -0.0849
 4185W        W 7704   7.535   1.882  11.754  0.0731 -0.0198  0.2005
 4186W        W 7705   3.047   6.214   9.654  0.1217  0.0442  0.1350
 4187W        W 7706   2.777   5.856   2.377 -0.1878 -0.0680 -0.0151
 4188W        W 7707   6.016   4.814   4.223  0.1096  0.4495 -0.1139
 4189W        W 7708   2.143   6.623  11.924  0.1630  0.1194 -0.1100
 4190W        W 7709   8.829   7.736   9.654  0.1157  0.2552 -0.0972
 4191W        W 7710   0.403   4.136   9.327  0.1418 -0.1861 -0.0066
 4192W        W 7711   3.520   0.147   3.028  0.1377  0.2121  0.1324
 4193W        W 7712   7.973   5.547   3.278 -0.0301  0.1746 -0.0345
 4194W        W 7713   0.367   1.132   0.928  0.0118 -0.1003  0.1543
 4195W        W 7714   9.477   2.381   3.217  0.1503  0.0080  0.2075
 4196W        W 7715   2.261   2.529  10.089 -0.0928  0.0154  0.1611
 4197W        W 7716   7.361   8.176   8.853 -0.1664  0.0988 -0.0723
 4198W        W 7717   0.662   7.803   0.059 -0.3261 -0.1802  0.2488
 4199W        W 7718   6.670   4.711  11.474  0.1527  0.2147  0.0630
 4200W        W 7719   7.088   1.668  10.440  0.0463 -0.1669  0.1270
 4201W        W 7720   3.373   7.625   8.443 -0.3365  0.3117 -0.3291
 4202W        W 7721   5.360   7.691   1.713  0.0359 -0.0979 -0.1550
 4203W        W 7722   7.516   5.051  12.525  0.1257 -0.1914 -0.0413
 4204W        W 7723   5.682   0.510  11.858  0.2554  0.2810  0.0382
 4205W        W 7724   0.862   2.631  10.651  0.5401 -0.0848 -0.0124
 4206W        W 7725   8.083   3.462   3.075 -0.0878 -0.0837  0.1831
 4207W        W 7726   3.969   8.696   4.114  0.5009 -0.1374  0.1023
 4208W        W 7727   2.272   2.712   9.605  0.2527 -0.1512 -0.0550
 4209W        W 7728   2.959   0.916  11.683  0.3245  0.0472  0.0563
 4210W        W 7729   4.765   2.445  11.563  0.0500 -0.1372 -0.1182
 4211W        W 7730   2.335   6.458   2.144 -0.0404  0.3583  0.0094
 4212W        W 7731   0.162   2.222   0.141 -0.0750 -0.1913  0.1901
 4213W        W 7732   8.651   5.330   3.517 -0.1912 -0.3589  0.0409
 4214W        W 7733   1.675   5.906   2.220  0.3794  0.7163  0.0093
 4215W        W 7734   7.789   6.246   2.736 -0.0791  0.1723 -0.2181
 4216W        W 7735   3.117   0.148  10.975  0.0414  0.3741 -0.2305
 4217W        W 7736   2.624   5.206   0.012 -0.1513 -0.1204  0.1343
 4218W        W 7737   6.735   5.081   2.948  0.1193  0.3437  0.1642
 4219W        W 7738   1.829   6.890   9.183 -0.0070  0.2299 -0.0922
 4220W        W 7739   4.871   4.607   9.589  0.1364  0.1171 -0.3454
 4221W        W 7740   2.754   8.108   1.822 -0.1179  0.0321  0.1261
 4222W        W 7741   8.258   6.885   9.476  0.0368  0.1082  0.4044
 4223W        W 7742   6.238   7.044  11.059 -0.2496 -0.2120  0.1044
 4224W        W 7743   3.555   5.629   3.670 -0.1890  0.1897 -0.0434
 4225W        W 7744   6.089   0.912   8.898  0.3796  0.0430 -0.0451
 4226W        W 7745   0.362   2.633   0.971  0.0847  0.3970  0.2454
 4227W        W 7746   6.587   8.091  12.110  0.1535  0.2421 -0.2454
 4228W        W 7747   6.842   3.660   0.004  0.0128  0.0475  0.0330
 4229W        W 7748   5.426   9.415   2.918  0.0915  0.1236  0.1302
 4230W        W 7749   1.597   5.065   0.974 -0.0081  0.0335 -0.1662
 4231W        W 7750   3.426   0.293   8.273 -0.1903 -0.1829 -0.3432
 4232W        W 7751   5.028   8.165   2.457 -0.3363  0.1571 -0.1849
 4233W        W 7752   0.249   8.914   9.424  0.0000  0.0494  0.0865
 4234W        W 7753   2.445   9.216   9.122 -0.2593  0.0936 -0.1096
 4235W        W 7754   5.478   8.192   0.324 -0.0752 -0.0558  0.0632
 4236W        W 7755   0.066   8.252   7.273 -0.2791  0.0115 -0.1701
 4237W        W 7756   1.434   2.154  11.372 -0.0406  0.0269  0.0415
 4238W        W 7757   8.722   8.763  11.805 -0.3476  0.0150 -0.1768
 4239W        W 7758   4.285   1.134   2.661  0.0457 -0.0669 -0.0638
 4240W        W 7759   7.182   4.871  11.204  0.0721  0.0727 -0.0464
 4241W        W 7760   3.732   1.820  10.061  0.1393  0.0742 -0.1140
 4242W        W 7761   3.273   4.288  11.033  0.1592  0.0909  0.0129
 4243W        W 7762   2.679   3.768   9.973 -0.0130  0.0078  0.0451
 4244W        W 7763   9.560   1.861  12.405  0.2576  0.0110  0.0832
 4245W        W 7764   9.215   2.714   0.310  0.0971 -0.0594  0.0286
 4246W        W 7765   9.360   3.556  11.541  0.0777  0.2154  0.1411
 4247W        W 7766   2.250   1.254  11.998 -0.1092 -0.2280  0.0607
 4248W        W 7767   3.386   4.393  11.568  0.1803  0.2080  0.0529
 4249W        W 7768   6.800   4.286   4.672 -0.0854 -0.0672 -0.1305
 4250W        W 7769   4.244   2.282   9.351  0.1648 -0.2482 -0.0698
 4251W        W 7770   2.248   0.108   8.049  0.4409 -0.1394  0.0965
 4252W        W 7771   1.673   4.183  10.074 -0.0813 -0.2114  0.1026
 4253W        W 7772   4.976   6.473   8.518 -0.0851 -0.0455 -0.2287
 4254W        W 7773   4.867   7.742   1.536  0.1951 -0.1669  0.1520
 4255W        W 7774   0.344   2.810  11.029  0.0720  0.3894 -0.2738
 4256W        W 7775   0.174   2.129   1.832  0.2176 -0.4246  0.1764
 4257W        W 7776   4.557   5.223   1.347  0.0687 -0.0952  0.2043
 4258W        W 7777   1.244   3.499   2.369  0.2078  0.0128 -0.1064
 4259W        W 7778   3.956   0.768  12.571 -0.1137 -0.1937  0.1122
 4260W        W 7779   0.099   7.140  12.532  0.4095  0.2739 -0.2080
 4261W        W 7780   1.910   3.033   3.812  0.0684 -0.1794  0.0139
 4262W        W 7781   8.414   7.613  11.093  0.2657 -0.2902 -0.1904
 4263W        W 7782   9.406   7.250  11.488  0.0605 -0.1809 -0.0186
 4264W        W 7783   3.732   9.417   3.827 -0.1586 -0.2347 -0.2841
 4265W        W 7784   2.836   6.149   3.125 -0.0193  0.2464 -0.2988
 4266W        W 7785   7.330   0.271   1.655 -0.0827  0.0849 -0.4850
 4267W        W 7786   5.174   0.737  11.894 -0.0694 -0.1188 -0.0917
 4268W        W 7787   4.606   6.754  11.140  0.0849 -0.1504 -0.3728
 4269W        W 7788   9.262   4.693  11.726  0.0311  0.0238 -0.2631
 4270W        W 7789   7.024   9.483   0.813  0.0138 -0.0711 -0.2498
 4271W        W 7790   3.032   6.946  10.711  0.0785 -0.2946 -0.0889
 4272W        W 7791   8.225   1.379   8.812  0.3000 -0.0186  0.2138
 4273W        W 7792   2.168   4.115   8.876  0.1365 -0.1689 -0.1646
 4274W        W 7793   0.999   1.107   8.424  0.3484  0.0121 -0.2862
 4275W        W 7794   8.194   6.823   2.578 -0.0076 -0.0387 -0.3135
 4276W        W 7795   6.310   4.034  11.030 -0.3036  0.1301  0.0824
 4277W        W 7796   5.621   5.523  10.121 -0.1403 -0.0244  0.4735
 4278W        W 7797   8.562   1.366   9.435 -0.0316  0.0284  0.0653
 4279W        W 7798   7.463   6.378  10.885 -0.2133 -0.3367  0.2518
 4280W        W 7799   3.656   4.822   1.323 -0.3411  0.0809  0.0063
 4281W        W 7800   5.959   9.267  12.088 -0.0632  0.1251  0.0902
 4282W        W 7801   8.232   3.585   3.719 -0.0390 -0.1000  0.1042
 4283W        W 7802   5.993   2.855  10.978 -0.1515  0.1918 -0.1165
 4284W        W 7803   5.532   6.742   3.219  0.0015  0.0173  0.3125
 4285W        W 7804   8.189   3.687   1.675  0.1069  0.2047  0.3163
 4286W        W 7805   4.546   0.254   2.657  0.0654  0.0789  0.1489
 4287W        W 7806   6.138   5.246   9.228 -0.0113 -0.3264  0.1251
 4288W        W 7807   1.666   1.414  10.707  0.1745  0.0121  0.0823
 4289W        W 7808   2.522   2.652  11.781  0.0260  0.1359 -0.0405
 4290W        W 7809   6.387   3.682   0.356 -0.1157  0.0038 -0.1034
 4291W        W 7810   6.012   8.694   1.719 -0.1771  0.1755 -0.0787
 4292W        W 7811   8.432   0.198   4.137  0.1613 -0.1721 -0.0630
 4293W        W 7812   6.351   8.472   9.993  0.1747 -0.0610  0.1330
 4294W        W 7813   8.052   0.284   0.970  0.5388  0.0800  0.0177
 4295W        W 7814   9.586   6.718  12.128  0.1146 -0.0315 -0.2307
 4296W        W 7815   7.108   4.674   1.630 -0.2149  0.2262 -0.2449
 4297W        W 7816   6.801   2.883   1.522  0.0368  0.1472  0.1041
 4298W        W 7817   5.937   1.584   9.824  0.3827  0.0845  0.3726
 4299W        W 7818   8.979   4.443   0.952 -0.0714 -0.1877 -0.0239
 4300W        W 7819   2.107   8.883   8.899  0.0540 -0.0895 -0.3942
 4301W        W 7820   0.762   3.753   1.526  0.1329 -0.1347  0.0350
 4302W        W 7821   3.540   7.582   2.726  0.3187  0.0937 -0.2548
 4303W        W 7822   9.289   5.330  11.183  0.0361  0.0414 -0.2882
 4304W        W 7823   7.542   9.482   9.001  0.0350 -0.4969  0.1581
 4305W        W 7824   4.932   7.706  11.001 -0.2819  0.1975 -0.0111
 4306W        W 7825   8.353   7.126   1.866  0.0256 -0.1304 -0.1042
 4307W        W 7826   0.648   4.927   2.114 -0.0797 -0.1937  0.1302
 4308W        W 7827   9.015   3.190  11.452  0.0869  0.0978 -0.2925
 4309W        W 7828   3.039   9.544  12.358  0.2247  0.4603 -0.0525
 4310W        W 7829   2.535   1.320   8.653  0.1333  0.0000 -0.2191
 4311W        W 7830   2.697   5.012   2.515  0.0237 -0.2736  0.1219
 4312W        W 7831   6.926   4.074  12.175  0.2877  0.0228  0.0879
 4313W        W 7832   0.855   5.693   9.053  0.3075  0.1708 -0.0601
 4314W        W 7833   8.503   8.825   1.615  0.0119 -0.2898  0.1015
 4315W        W 7834   1.448   8.922  11.871  0.0336  0.0974 -0.3817
 4316W        W 7835   6.675   5.194  10.364  0.2848 -0.1390  0.1669
 4317W        W 7836   2.019   3.406   0.601 -0.0407  0.3593 -0.0025
 4318W        W 7837   6.865   2.300   9.469  0.1533  0.0898 -0.0322
 4319W        W 7838   5.790   5.186   4.535 -0.2775 -0.0010 -0.1291
 4320W        W 7839   6.276   3.246  10.488  0.2931 -0.1473  0.0827
 4321W        W 7840   4.376   7.513  12.358  0.0808 -0.1824  0.1772
 4322W        W 7841   6.433   2.791  10.750  0.1910 -0.1309 -0.1331
 4323W        W 7842   3.320   0.161   9.940  0.1164 -0.0746 -0.2519
 4324W        W 7843   8.879   6.797  11.543 -0.1606  0.1636 -0.1593
 4325W        W 7844   1.566   0.335  11.213 -0.1640 -0.2740 -0.1031
 4326W        W 7845   9.601   9.287   0.140 -0.0724  0.1363 -0.4555
 4327W        W 7846   5.264   8.915  12.397  0.5055  0.2348  0.0671
 4328W        W 7847   3.615   1.404  10.281  0.1496  0.1064 -0.2942
 4329W        W 7848   7.512   8.816   2.292 -0.1561  0.1382  0.0490
 4330W        W 7849   5.394   1.566   8.875  0.1346 -0.4045 -0.1281
 4331W        W 7850   7.331   6.970   9.307  0.2122  0.0539  0.0884
 4332W        W 7851   7.158   0.580   1.225 -0.0430 -0.2307 -0.2530
 4333W        W 7852   0.302   8.561   0.553  0.0605 -0.3834  0.0392
 4334W        W 7853   8.988   5.102  10.424 -0.1922  0.2433 -0.1613
 4335W        W 7854   0.450   6.918   4.392 -0.2419 -0.1417 -0.4368
 4336W        W 7855   4.051   1.789  11.295 -0.2413  0.1197  0.2130
 4337W        W 7856   0.622   9.222   0.059  0.1437  0.0824 -0.0772
 4338W        W 7857   3.542   7.608  11.043  0.0977 -0.1858 -0.3667
 4339W        W 7858   3.336   7.100  11.581 -0.1662  0.0803 -0.1121
 4340W        W 7859   9.144   5.907   0.894 -0.1935 -0.2371  0.0694
 4341W        W 7860   6.812   8.093  11.464 -0.0028  0.1667 -0.1614
 4342W        W 7861   3.570   1.055   3.650 -0.0384 -0.0692  0.0573
 4343W        W 7862   4.465   7.079   9.276 -0.1820  0.0282 -0.1151
 4344W        W 7863   4.617   9.087   0.846  0.0267  0.0195 -0.0426
 4345W        W 7864   4.590   5.636   2.436  0.1642 -0.1577  0.3316
 4346W        W 7865   0.781   8.469  10.371 -0.0863  0.0268 -0.0969
 4347W        W 7866   1.227   3.144  11.235 -0.1401  0.0837  0.4467
 4348W        W 7867   6.667   7.172  10.004  0.2488 -0.0952 -0.0646
 4349W        W 7868   3.734   7.359   0.893 -0.0404  0.3665 -0.4048
 4350W        W 7869   0.325   1.693   0.312  0.0182  0.1051  0.0811
 4351W        W 7870   3.074   0.307   2.836 -0.0064  0.1293 -0.0158
 4352W        W 7871   1.466   3.494   2.855 -0.2027  0.0412 -0.1180
 4353W        W 7872   3.541   6.135  11.019  0.0959 -0.0789 -0.1987
 4354W        W 7873   9.166   9.373   2.222 -0.0826  0.0979  0.1738
 4355W        W 7874   9.328   8.529   3.836 -0.1349 -0.3056  0.0130
 4356W        W 7875   1.151   9.474   2.522 -0.0482  0.1338  0.5100
 4357W        W 7876   3.167   8.906  11.821  0.1053 -0.1263 -0.1751
 4358W        W 7877   7.770   2.583   1.061  0.0305  0.3531 -0.1821
 4359W        W 7878   4.043   2.164   2.946 -0.3606 -0.2639 -0.0592
 4360W        W 7879   7.909   6.092  10.824 -0.2312 -0.1918  0.1538
 4361W        W 7880   7.121   6.966   0.369  0.1533 -0.1298  0.4907
 4362W        W 7881   3.325   0.845   9.289 -0.2501  0.0869  0.1221
 4363W        W 7882   4.607   6.622   9.407 -0.0428 -0.0505  0.4246
 4364W        W 7883   8.052   4.753   1.472  0.2030 -0.1010  0.3051
 4365W        W 7884   8.381   8.022   8.647  0.2314 -0.2916  0.1018
 4366W        W 7885   6.451   3.040   1.193 -0.0421  0.0444  0.0374
 4367W        W 7886   3.718   8.904   0.681 -0.1772 -0.0084 -0.0226
 4368W        W 7887   6.409   6.089   3.927  0.1193 -0.1587 -0.1824
 4369W        W 7888   7.294   4.879   9.574 -0.0156  0.0796 -0.1283
 4370W        W 7889   2.668   9.344   8.720 -0.1209 -0.0573 -0.3857
 4371W        W 7890   2.617   5.984   3.750 -0.0403 -0.1854 -0.2139
 4372W        W 7891   4.337   4.675   0.220 -0.0203 -0.0571 -0.0008
 4373W        W 7892   4.759   0.983   3.262  0.2389  0.0436  0.1529
 4374W        W 7893   9.015   3.382   1.465  0.1638 -0.0250  0.0059
 4375W        W 7894   6.463   5.686   0.418 -0.0796  0.1276 -0.0471
 4376W        W 7895   7.493   5.218  11.482  0.1600  0.1866  0.1333
 4377W        W 7896   9.040   1.988  10.150 -0.2176 -0.1799  0.0084
 4378W        W 7897   4.934   7.841   3.872 -0.0669  0.1650  0.0301
 4379W        W 7898   1.313   9.282   1.264  0.3932 -0.0684 -0.0760
 4380W        W 7899   1.782   6.658   4.468 -0.2460  0.1170  0.1762
 4381W        W 7900   2.646   0.195   2.441 -0.1161  0.1433 -0.1490
 4382W        W 7901   8.686   7.155  12.217  0.2409 -0.0531 -0.0830
 4383W        W 7902   5.258   8.771  11.512  0.0752 -0.0408 -0.2423
 4384W        W 7903   1.584   6.344   7.934 -0.0002  0.1424 -0.2078
 4385W        W 7904   2.370   6.216   0.749  0.0676 -0.0626 -0.1163
 4386W        W 7905   4.486   7.949   4.189  0.0161  0.1123  0.1636
 4387W        W 7906   9.546   3.118  11.277  0.1642 -0.2404  0.0899
 4388W        W 7907   9.047   6.917   0.395 -0.3806  0.1356 -0.1206
 4389W        W 7908   7.977   7.390  10.122 -0.1978 -0.2327 -0.0601
 4390W        W 7909   6.373   1.238   3.798 -0.1100  0.2922 -0.0796
 4391W        W 7910   2.339   2.220   9.686 -0.0236  0.2072 -0.1324
 4392W        W 7911   4.357   4.317   0.588  0.0569  0.2692  0.0284
 4393W        W 7912   0.778   3.741   2.355  0.0008 -0.1662  0.2044
 4394W        W 7913   9.561   4.960  11.368  0.3206  0.0366  0.2803
 4395W        W 7914   8.793   9.275  10.544  0.2495 -0.0249 -0.3847
 4396W        W 7915   8.890   8.303   3.581 -0.0911 -0.0771 -0.3192
 4397W        W 7916   8.890   1.527   8.533 -0.0933  0.0035  0.0477
 4398W        W 7917   5.818   8.819  11.449  0.3299 -0.1459  0.2408
 4399W        W 7918   7.023   2.804   2.780  0.2804  0.0054  0.0192
 4400W        W 7919   6.538   3.613  10.688 -0.0913  0.1950  0.0793
 4401W        W 7920   1.888   5.659   8.651  0.1529  0.1067  0.0327
 4402W        W 7921   7.213   7.327   3.415  0.3749  0.1681 -0.5207
 4403W        W 7922   6.417   1.762   3.900  0.1368 -0.0818 -0.2223
 4404W        W 7923   6.249   4.388   9.658  0.0502  0.2368 -0.1396
 4405W        W 7924   3.553   6.130  12.570 -0.1094  0.0641  0.0340
 4406W        W 7925   4.718   8.143   9.078 -0.1434  0.0091  0.0320
 4407W        W 7926   0.610   9.385   9.570  0.0587 -0.1070 -0.0017
 4408W        W 7927   0.174   4.344   2.028  0.1908  0.0022 -0.0556
 4409W        W 7928   1.593   3.892  11.629  0.0723  0.2106 -0.2952
 4410W        W 7929   5.347   4.536  12.558  0.0036  0.0534  0.0190
 4411W        W 7930   4.817   6.159  10.185 -0.0531  0.2545  0.4782
 4412W        W 7931   5.047   8.887  11.960 -0.0561 -0.4355 -0.0074
 4413W        W 7932   0.928   0.760  10.101 -0.2160 -0.1892 -0.0247
 4414W        W 7933   6.457   5.765   3.590 -0.2246  0.1510 -0.0383
 4415W        W 7934   0.821   2.363   0.659  0.1621 -0.1763  0.1342
 4416W        W 7935   8.389   3.341   1.327  0.0187 -0.0265  0.0436
 4417W        W 7936   9.366   2.044  10.520 -0.1059 -0.0875 -0.0075
 4418W        W 7937   1.055   5.404   3.517  0.0352  0.4342 -0.1565
 4419W        W 7938   1.754   8.189   8.429 -0.4849 -0.4308 -0.2379
 4420W        W 7939   3.940   5.810  10.441  0.1917  0.0824 -0.2016
 4421W        W 7940   2.369   3.352  12.346  0.2733 -0.1574 -0.0316
 4422W        W 7941   0.623   5.459  10.716  0.3016  0.0174  0.1163
 4423W        W 7942   4.560   4.945  11.257 -0.2542 -0.2108  0.1544
 4424W        W 7943   2.288   3.563   1.787 -0.0853 -0.0709  0.3269
 4425W        W 7944   6.438   1.041  10.524  0.0590  0.2790 -0.0592
 4426W        W 7945   1.689   6.255   0.091 -0.1585 -0.1389 -0.1768
 4427W        W 7946   3.876   0.754   3.180 -0.3029 -0.0511  0.5952
 4428W        W 7947   6.978   8.708   3.407  0.0725 -0.0079 -0.3056
 4429W        W 7948   5.966   1.833   2.703 -0.4829 -0.1053  0.0048
 4430W        W 7949   5.287   7.915  10.737 -0.0430  0.2597 -0.1182
 4431W        W 7950   7.611   6.187  10.436 -0.3789 -0.3288  0.0664
 4432W        W 7951   4.413   1.941   2.667 -0.0995 -0.0226 -0.0021
 4433W        W 7952   6.123   6.849   0.071  0.2110  0.0534  0.1098
 4434W        W 7953   4.344   1.656  12.497  0.0258  0.4224  0.1431
 4435W        W 7954   9.098   7.599  11.319  0.0888  0.3073 -0.0824
 4436W        W 7955   6.679   0.994   8.768  0.1676 -0.2516 -0.0769
 4437W        W 7956   8.189   4.089   1.279 -0.2020  0.0431 -0.1542
 4438W        W 7957   4.374   2.746  11.448  0.0980  0.2541  0.1041
 4439W        W 7958   1.180   6.968   8.546  0.0377 -0.0201  0.0453
 4440W        W 7959   1.146   5.568   9.757 -0.1145 -0.1311 -0.0243
 4441W        W 7960   4.902   1.936   2.964 -0.0321 -0.4174  0.1819
 4442W        W 7961   9.411   7.343   3.794 -0.1430  0.2641 -0.1176
 4443W        W 7962   1.925   5.038  12.172 -0.0704 -0.1069  0.0219
 4444W        W 7963   7.877   9.451  10.228 -0.0596  0.0463 -0.2310
 4445W        W 7964   0.468   8.009   2.882  0.0428 -0.1927 -0.2593
 4446W        W 7965   6.298   8.779  11.369 -0.0564 -0.3142  0.0512
 4447W        W 7966   7.231   8.195   8.300 -0.1306 -0.2180 -0.0011
 4448W        W 7967   9.011   1.144   1.342  0.3502 -0.1440 -0.2634
 4449W        W 7968   1.958   2.962  11.313  0.1377  0.0926 -0.1494
 4450W        W 7969   3.835   6.949  11.727  0.5184  0.0219 -0.2105
 4451W        W 7970   5.651   6.440   8.947  0.2566  0.1322  0.0146
 4452W        W 7971   6.270   0.153   9.671  0.3619  0.0726  0.2235
 4453W        W 7972   2.677   7.598  11.729  0.2657 -0.3433  0.0226
 4454W        W 7973   8.353   2.114  10.384 -0.1039  0.0264  0.1308
 4455W        W 7974   9.124   5.332   3.516 -0.1635  0.1633  0.3894
 4456W        W 7975   0.265   0.306   8.548 -0.1208  0.2203 -0.2227
 4457W        W 7976   0.491   0.994   3.149  0.3259  0.4103 -0.0408
 4458W        W 7977   9.308   4.184   1.200  0.0194 -0.3392  0.1396
 4459W        W 7978   6.688   6.113   8.640  0.0913  0.2728 -0.0727
 4460W        W 7979   6.321   3.557   1.182 -0.0027 -0.1165  0.0277
 4461W        W 7980   7.188   9.464  12.067  0.1253  0.1514 -0.0208
 4462W        W 7981   3.218   1.489   3.922 -0.0001  0.1266  0.0199
 4463W        W 7982   5.219   3.896   8.897 -0.0601 -0.1875 -0.0944
 4464W        W 7983   2.825   6.328   2.160  0.0133 -0.1422  0.0396
 4465W        W 7984   7.946   4.027   3.863 -0.0244 -0.4253 -0.0145
 4466W        W 7985   1.405   2.895   9.615  0.3048 -0.0150 -0.1405
 4467W        W 7986   1.704   6.619   2.525 -0.2941 -0.3578 -0.3225
 4468W        W 7987   1.517   0.717  11.506 -0.1528  0.0175 -0.1731
 4469W        W 7988   7.162   0.053   8.519  0.0276  0.0234 -0.0585
 4470W        W 7989   9.534   1.320   9.704 -0.0130 -0.0310 -0.0994
 4471W        W 7990   3.128   4.784  11.001 -0.1992  0.4131  0.0521
 4472W        W 7991   7.085   2.503   0.576 -0.2060  0.2534  0.0847
 4473W        W 7992   6.669   0.937  12.456 -0.0703 -0.1163  0.1492
 4474W        W 7993   0.052   5.417   1.923 -0.1433 -0.0179 -0.0106
 4475W        W 7994   2.674   8.944   2.837  0.0702 -0.1267 -0.0429
 4476W        W 7995   6.694   6.287   0.545  0.0294  0.1399  0.2399
 4477W        W 7996   6.593   2.671   9.776 -0.1866 -0.1364  0.1836
 4478W        W 7997   5.279   0.631  10.605  0.1367 -0.2072 -0.1513
 4479W        W 7998   1.859   6.270   2.027 -0.0843 -0.0670  0.0286
 4480W        W 7999   9.580   9.502   3.111  0.2481  0.0755  0.0099
 4481W        W 8000   3.852   4.981   1.811  0.2934  0.3743 -0.1678
 4482W        W 8001   2.629   3.638  11.137 -0.0486 -0.5717 -0.0599
 4483W        W 8002   7.969   4.464   8.920 -0.2493 -0.3724 -0.4564
 4484W        W 8003   1.438   8.927   3.853 -0.0832  0.1334 -0.2574
 4485W        W 8004   5.727   4.987  11.492 -0.0360 -0.0850 -0.0804
 4486W        W 8005   1.800   3.696   8.710  0.1629 -0.1489  0.2722
 4487W        W 8006   2.228   8.127   9.095 -0.1025  0.0894 -0.2616
 4488W        W 8007   5.583   4.283  12.123 -0.0164 -0.0413 -0.1857
 4489W        W 8008   6.169   8.662   3.021 -0.1820 -0.0622 -0.0596
 4490W        W 8009   0.695   1.680   8.147  0.0466 -0.1064  0.0734
 4491W        W 8010   6.538   2.150   8.882  0.0331 -0.1702 -0.1881
 4492W        W 8011   5.049   7.344   1.949  0.1385  0.2343 -0.1822
 4493W        W 8012   8.660   5.627   4.714  0.6151  0.0278  0.0399
 4494W        W 8013   9.220   2.811   3.251 -0.1530 -0.0246  0.0659
 4495W        W 8014   1.144   5.864   2.871 -0.0182  0.4078  0.0151
 4496W        W 8015   7.002   6.307  10.642 -0.3320 -0.1430  0.0948
 4497W        W 8016   4.050   4.921  10.152  0.1631 -0.2463 -0.2577
 4498W        W 8017   1.713   6.208  10.348  0.3684  0.2944 -0.1040
 4499W        W 8018   9.379   3.518  11.043 -0.3247 -0.1677 -0.3639
 4500W        W 8019   7.717   7.614  11.718  0.2100 -0.0434  0.1551
 4501W        W 8020   2.737   0.302   4.021  0.6135 -0.1433 -0.1649
 4502W        W 8021   7.460   7.941   3.924 -0.2346  0.1006  0.0531
 4503W        W 8022   9.272   6.158   1.634 -0.0500 -0.0918  0.0005
 4504W        W 8023   4.888   6.360   2.449 -0.2608 -0.1320 -0.1262
 4505W        W 8024   0.364   0.055   2.303  0.0615 -0.1835 -0.4228
 4506W        W 8025   7.301   1.833   4.397 -0.0001 -0.3127 -0.0823
 4507W        W 8026   4.008   6.058  10.858  0.1097  0.1052  0.1520
 4508W        W 8027   7.088   7.214  10.942 -0.3177 -0.0035 -0.1584
 4509W        W 8028   3.199   8.683   1.092 -0.2011  0.0779 -0.0403
 4510W        W 8029   6.651   6.535  10.996  0.2739  0.3406  0.1073
 4511W        W 8030   2.874   2.761  10.980 -0.1503 -0.0389 -0.2097
 4512W        W 8031   9.616   9.571  11.500  0.0981  0.5132  0.3776
 4513W        W 8032   8.977   1.511   9.866 -0.2132 -0.3702 -0.1732
 4514W        W 8033   5.106   7.271   9.706 -0.3442  0.1560  0.1028
 4515W        W 8034   5.112   1.093   0.180  0.3667  0.1398  0.1537
 4516W        W 8035   4.121   7.329   9.542  0.3957  0.0432  0.0266
 4517W        W 8036   0.633   5.509   0.833  0.0118  0.3188  0.0720
 4518W        W 8037   7.273   0.096   0.320 -0.1013  0.1660 -0.1774
 4519W        W 8038   5.002   7.915   0.261  0.0811 -0.2403  0.3216
 4520W        W 8039   0.506   9.115  10.808  0.1639 -0.1122 -0.1237
 4521W        W 8040   0.453   9.351   3.134 -0.1563  0.0407 -0.3537
 4522W        W 8041   9.611   4.312  11.929  0.0488 -0.0581  0.0666
 4523W        W 8042   9.490   3.921   9.794 -0.2235 -0.3281 -0.0605
 4524W        W 8043   7.287   3.268  11.378 -0.2232  0.1585  0.2367
 4525W        W 8044   7.286   0.890   7.723  0.2863  0.2338 -0.0443
 4526W        W 8045   5.276   8.491   9.889 -0.1388 -0.0875  0.0079
 4527W        W 8046   1.990   4.692   2.597  0.0107 -0.0116  0.0831
 4528W        W 8047   8.722   0.326   1.538  0.1352 -0.1158  0.2682
 4529W        W 8048   0.923   4.192   8.563  0.2251 -0.0122  0.2179
 4530W        W 8049   5.641   1.197  10.100  0.0837  0.3038  0.0278
 4531W        W 8050   6.649   3.692   1.963 -0.0035 -0.0421  0.1766
 4532W        W 8051   4.806   9.158  12.311 -0.2302 -0.0172 -0.1344
 4533W        W 8052   8.230   5.887  10.483  0.0312  0.2270 -0.3268
 4534W        W 8053   5.619   2.928  11.399 -0.1504  0.2638  0.1055
 4535W        W 8054   1.101   1.697   8.423 -0.0579 -0.2380  0.2044
 4536W        W 8055   0.324   0.198   2.887 -0.0530  0.0827 -0.2839
 4537W        W 8056   0.201   8.771  10.658 -0.0010 -0.0212 -0.0526
 4538W        W 8057   9.083   8.228   0.507  0.3922  0.0181  0.0690
 4539W        W 8058   4.555   2.614   8.401  0.0785 -0.1124 -0.1915
 4540W        W 8059   5.933   2.993  12.269 -0.2011  0.2874  0.1688
 4541W        W 8060   9.406   1.313   1.560  0.2073 -0.0739 -0.0144
 4542W        W 8061   7.176   2.380   8.559 -0.2063 -0.0521  0.2727
 4543W        W 8062   4.895   4.100   0.644 -0.0875 -0.0735 -0.3136
 4544W        W 8063   5.772   5.938   2.016  0.0282 -0.3019 -0.1493
 4545W        W 8064   5.443   1.157  10.597  0.0042 -0.1778 -0.5206
 4546W        W 8065   2.512   7.663  11.090  0.1763 -0.0568 -0.2392
 4547W        W 8066   6.713   7.776  12.554 -0.3977 -0.0590  0.1374
 4548W        W 8067   8.087   6.059  11.452 -0.2148 -0.1656  0.0942
 4549W        W 8068   9.395   5.916  11.886 -0.1154  0.0963  0.4545
 4550W        W 8069   3.818   9.528  12.172  0.0588  0.2111 -0.3743
 4551W        W 8070   4.991   8.683   2.218 -0.0275 -0.3530  0.1247
 4552W        W 8071   4.007   8.034   0.124  0.1859 -0.0854 -0.4145
 4553W        W 8072   0.198   6.270  10.740 -0.0352 -0.1594  0.2027
 4554W        W 8073   8.906   5.338   9.928 -0.1158 -0.1985 -0.0892
 4555W        W 8074   2.795   8.435   2.823  0.2443  0.0311  0.2919
 4556W        W 8075   2.412   2.147   9.207 -0.1890  0.3725 -0.3345
 4557W        W 8076   0.603   6.718   0.686 -0.2999 -0.1683 -0.0163
 4558W        W 8077   6.120   4.807   2.782 -0.1511  0.1586  0.1037
 4559W        W 8078   8.672   4.133  11.119  0.1926 -0.0235  0.0988
 4560W        W 8079   8.375   2.292  10.881 -0.2258 -0.0033 -0.0544
 4561W        W 8080   1.548   1.716  11.655 -0.1736  0.1386 -0.0352
 4562W        W 8081   4.399   3.479  10.199 -0.3410 -0.0230  0.1936
 4563W        W 8082   1.315   9.373  10.441 -0.0841  0.0201 -0.2329
 4564W        W 8083   7.497   6.641   9.631  0.0792 -0.4110  0.1944
 4565W        W 8084   9.672   3.873  11.179  0.4798 -0.1150 -0.1271
 4566W        W 8085   4.306   7.922   7.942 -0.0130 -0.2970  0.1195
 4567W        W 8086   5.325   0.532  11.387 -0.2809  0.0141 -0.0015
 4568W        W 8087   2.184   3.373   8.606  0.0392  0.1816 -0.0213
 4569W        W 8088   1.779   6.605  11.514  0.1200 -0.0941 -0.1684
 4570W        W 8089   0.825   3.616   0.982 -0.0437  0.1750 -0.0180
 4571W        W 8090   2.021   7.163  10.543  0.1796 -0.2876  0.1789
 4572W        W 8091   1.616   3.890   2.398  0.3127  0.3048 -0.4100
 4573W        W 8092   8.046   9.293   9.821  0.2395  0.0046  0.1282
 4574W        W 8093   0.676   1.834  10.876 -0.0244 -0.0413 -0.0968
 4575W        W 8094   5.099   1.743  11.696  0.0228 -0.1086 -0.0241
 4576W        W 8095   1.321   7.426   9.418 -0.0259 -0.1882  0.0879
 4577W        W 8096   9.320   4.784   2.116  0.1347  0.3201  0.0395
 4578W        W 8097   8.289   4.196   0.763  0.0884 -0.2620  0.1470
 4579W        W 8098   7.617   1.415   0.492 -0.4485  0.3192  0.1177
 4580W        W 8099   0.332   2.885   0.075  0.0996 -0.0587 -0.0566
 4581W        W 8100   6.008   1.947   0.314 -0.0598 -0.0415 -0.0051
 4582W        W 8101   3.292   0.967   7.740  0.0359  0.2536 -0.2855
 4583W        W 8102   9.300   4.969   9.979  0.0321  0.0582 -0.0217
 4584W        W 8103   7.009   7.805   8.987 -0.2836 -0.2250  0.0301
 4585W        W 8104   2.379   9.685   3.509 -0.1975  0.0793 -0.1823
 4586W        W 8105   8.280   3.481   9.080 -0.1548  0.1676  0.1647
 4587W        W 8106   7.807   1.452   9.999  0.1225  0.2773  0.0721
 4588W        W 8107   1.596   4.716  11.998 -0.1305  0.2055  0.0610
 4589W        W 8108   8.374   9.213   8.711  0.1587 -0.2200  0.2059
 4590W        W 8109   9.140   4.374   9.082 -0.2027  0.0546  0.0615
 4591W        W 8110   4.420   6.598  12.075 -0.1392 -0.3289  0.1136
 4592W        W 8111   6.493   6.225   2.330  0.0695 -0.0427 -0.1816
 4593W        W 8112   8.558   3.345  11.612  0.0997 -0.2489 -0.0362
 4594W        W 8113   0.147   1.731   8.771  0.0221 -0.0930 -0.3362
 4595W        W 8114   2.284   3.362  10.429 -0.2910 -0.2319  0.2897
 4596W        W 8115   0.534   8.494   2.589  0.0928 -0.1293 -0.0169
 4597W        W 8116   2.075   8.902   9.405 -0.2984 -0.1472 -0.1144
 4598W        W 8117   3.482   4.287   0.108 -0.0492 -0.1215 -0.1207
 4599W        W 8118   0.182   7.597  10.256  0.3138 -0.3973 -0.0231
 4600W        W 8119   6.971   4.245   8.793 -0.0318  0.0039 -0.2169
 4601W        W 8120   8.371   5.124   1.183  0.0393 -0.2178  0.0496
 4602W        W 8121   3.047   9.590   1.737 -0.1860  0.0534  0.1128
 4603W        W 8122   8.782   9.474  12.276 -0.0713  0.2912 -0.1626
 4604W        W 8123   1.838   7.648   1.069  0.0758  0.2482  0.1482
 4605W        W 8124   4.715   2.980   2.213 -0.1303 -0.4485  0.3436
 4606W        W 8125   1.805   6.209  12.112  0.0674 -0.0931  0.0718
 4607W        W 8126   1.837   7.700   8.547 -0.0150 -0.0380  0.0935
 4608W        W 8127   4.644   7.182   0.765  0.4894  0.1545 -0.0067
 4609W        W 8128   8.202   3.133   9.389 -0.0477  0.1291  0.0341
 4610W        W 8129   2.207   2.459   0.795  0.1837  0.0419 -0.1930
 4611W        W 8130   0.304   1.627   2.662 -0.0479 -0.0683 -0.0827
 4612W        W 8131   4.811   7.264  11.108  0.1602  0.5124  0.1471
 4613W        W 8132   5.529   1.269   9.580 -0.1087  0.0606 -0.1095
 4614W        W 8133   8.100   6.689   1.732  0.2085  0.0718  0.0470
 4615W        W 8134   4.313   7.416   4.923 -0.1449 -0.0156  0.0107
 4616W        W 8135   6.731   3.806   1.442 -0.0874 -0.0482 -0.2895
 4617W        W 8136   1.032   6.912  12.525  0.0632 -0.1057  0.0949
 4618W        W 8137   0.522   0.606   2.715 -0.3695 -0.2351 -0.2663
 4619W        W 8138   0.772   0.300   8.442  0.3661 -0.3853 -0.3447
 4620W        W 8139   3.336   4.006   2.499 -0.1129 -0.1939  0.2461
 4621W        W 8140   8.814   5.138  11.163 -0.0914 -0.1009 -0.1642
 4622W        W 8141   3.767   6.257   0.994  0.1953  0.0014 -0.2899
 4623W        W 8142   1.801   4.525   0.948 -0.4090 -0.1708 -0.1547
 4624W        W 8143   5.640   6.790  10.158 -0.0671 -0.0301 -0.2970
 4625W        W 8144   9.520   1.703  10.133 -0.0497  0.1395  0.0554
 4626W        W 8145   0.673   2.615   7.720  0.0395 -0.3113  0.1459
 4627W        W 8146   6.592   9.101   1.539  0.0535  0.2491  0.1234
 4628W        W 8147   8.643   2.947  11.181  0.1077 -0.2752 -0.0829
 4629W        W 8148   1.296   1.731   0.685  0.2104 -0.1144  0.1131
 4630W        W 8149   0.295   6.611  11.532  0.0233  0.0123 -0.1740
 4631W        W 8150   2.060   1.038  10.802 -0.1350  0.2014  0.0211
 4632W        W 8151   0.246   6.405  12.490  0.3079  0.0346  0.0263
 4633W        W 8152   5.697   0.043   1.499 -0.2936 -0.2433 -0.2535
 4634W        W 8153   2.400   1.820   1.884  0.1366 -0.0523 -0.1518
 4635W        W 8154   5.792   0.845   0.043 -0.2982 -0.0178  0.1969
 4636W        W 8155   9.499   6.538   1.965  0.1333 -0.1492 -0.2617
 4637W        W 8156   3.386   5.216   1.913 -0.0767  0.0475 -0.2778
 4638W        W 8157   4.244   7.136   1.543 -0.0919  0.1438  0.1488
 4639W        W 8158   2.630   1.509   3.312 -0.1207 -0.1772  0.0584
 4640W        W 8159   2.146   9.272   0.687 -0.1148 -0.0410 -0.1465
 4641W        W 8160   9.259   9.330   1.367 -0.3111 -0.0721  0.0645
 4642W        W 8161   5.889   8.744   4.506 -0.0425 -0.2338  0.3341
 4643W        W 8162   6.726   4.516   0.171 -0.1944 -0.0446  0.3847
 4644W        W 8163   6.400   1.753   2.392  0.0468  0.0854  0.1516
 4645W        W 8164   1.778   1.270  11.228  0.0851  0.0528  0.3186
 4646W        W 8165   7.209   7.765   8.556 -0.0659 -0.1224  0.1915
 4647W        W 8166   5.345   5.098  10.769  0.0934 -0.0404  0.1711
 4648W        W 8167   2.780   7.275   2.518  0.1968 -0.3181  0.0999
 4649W        W 8168   0.036   3.372   9.231  0.2927 -0.0105  0.1301
 4650W        W 8169   0.954   6.519   9.312 -0.1757 -0.1414  0.1784
 4651W        W 8170   8.050   2.207   8.578 -0.0514 -0.0541 -0.1971
 4652W        W 8171   3.594   1.965  12.253 -0.2714  0.0581  0.0773
 4653W        W 8172   3.044   6.697   0.438  0.1960 -0.0484  0.1136
 4654W        W 8173   0.598   4.274  10.139 -0.1492  0.0725 -0.1327
 4655W        W 8174   1.103   6.355   1.475 -0.0368  0.1612 -0.1348
 4656W        W 8175   8.584   7.832   1.354 -0.1920  0.3285  0.1134
 4657W        W 8176   0.074   0.358   0.323 -0.1510 -0.1011 -0.2160
 4658W        W 8177   8.130   7.978  10.891 -0.0545  0.1101 -0.2319
 4659W        W 8178   7.596   0.663  12.278 -0.3920  0.0992 -0.0590
 4660W        W 8179   4.706   2.311   3.832  0.3198  0.1259 -0.0574
 4661W        W 8180   8.786   7.636  10.311 -0.1457 -0.0460 -0.2822
 4662W        W 8181   6.240   7.002   2.872 -0.0159 -0.0758 -0.2455
 4663W        W 8182   7.310   5.832   1.033  0.0454  0.0769 -0.0927
 4664W        W 8183   3.486   6.752   0.266 -0.0855 -0.0515  0.1343
 4665W        W 8184   1.428   8.910   1.710 -0.0494  0.0116  0.2643
 4666W        W 8185   3.476   8.852  10.858 -0.3666  0.1517 -0.2427
 4667W        W 8186   0.329   3.826   9.836 -0.0220  0.1922  0.1915
 4668W        W 8187   7.391   7.124   3.040  0.2622  0.1085  0.2547
 4669W        W 8188   3.121   7.997  10.417 -0.0516  0.0892 -0.0045
 4670W        W 8189   6.685   2.875   9.338 -0.1239  0.2832  0.0913
 4671W        W 8190   2.811   7.949  11.366  0.2662  0.2358  0.1425
 4672W        W 8191   4.221   6.485   2.596 -0.1021 -0.1250 -0.3762
 4673W        W 8192   5.157   0.972   8.208 -0.1746  0.0332 -0.1419
 4674W        W 8193   5.521   8.872   1.684  0.3625 -0.0187 -0.1826
 4675W        W 8194   9.387   3.450   0.587 -0.2940  0.0348 -0.1792
 4676W        W 8195   1.854   8.732   8.478  0.1353 -0.2073 -0.0418
 4677W        W 8196   6.013   7.954   9.241  0.2159  0.1193  0.0678
 4678W        W 8197   8.745   3.199  10.700 -0.0860 -0.4267  0.1642
 4679W        W 8198   4.942   5.066   1.757  0.0286  0.1462  0.3820
 4680W        W 8199   8.523   2.787  12.366  0.2205  0.0083 -0.0822
 4681W        W 8200   9.533   4.442   3.615 -0.0502 -0.1043 -0.2029
 4682W        W 8201   0.709   0.972  11.818 -0.0325  0.0218  0.3269
 4683W        W 8202   6.664   0.307   4.050 -0.1034  0.5805  0.0072
 4684W        W 8203   9.062   1.667  12.578  0.2633  0.0744  0.0087
 4685W        W 8204   4.175   0.054   3.774  0.2498 -0.1200  0.0213
 4686W        W 8205   3.547   1.610   2.370  0.3207 -0.0166 -0.1284
 4687W        W 8206   8.095   6.153  12.281  0.1463 -0.1238  0.1467
 4688W        W 8207   2.837   1.537  12.511 -0.2200 -0.1308  0.2433
 4689W        W 8208   9.074   8.043   1.069  0.1482 -0.0750  0.1017
 4690W        W 8209   9.053   7.292   9.462 -0.3851 -0.2416  0.0615
 4691W        W 8210   2.537   2.527  12.383  0.1267  0.4813  0.2075
 4692W        W 8211   1.940   0.833   8.848  0.0848  0.1470  0.0059
 4693W        W 8212   8.195   5.089   2.162 -0.5765 -0.2897  0.0225
 4694W        W 8213   5.357   5.099  11.802 -0.0146  0.0875  0.2545
 4695W        W 8214   1.610   4.382   2.292 -0.2321 -0.1286 -0.1123
 4696W        W 8215   5.614   7.663   0.175 -0.2357 -0.0640  0.0362
 4697W        W 8216   9.067   3.620   9.781 -0.1744  0.0737  0.0686
 4698W        W 8217   5.281   3.811  11.216  0.0694 -0.2890  0.0172
 4699W        W 8218   0.286   9.010   4.259 -0.2524  0.1567  0.3670
 4700W        W 8219   4.001   7.483   3.565 -0.1541 -0.3045  0.1055
 4701W        W 8220   2.776   8.662   9.995  0.0496 -0.2836 -0.0767
 4702W        W 8221   5.278   7.251   0.654 -0.0329 -0.1697  0.1056
 4703W        W 8222   5.457   7.044   3.682  0.1493  0.1184  0.0974
 4704W        W 8223   9.439   5.288   2.552  0.0351  0.1490  0.2258
 4705W        W 8224   8.600   2.350  12.207 -0.1982  0.1318  0.0780
 4706W        W 8225   7.564   5.444   0.850 -0.0459 -0.0653  0.2788
 4707W        W 8226   3.215   7.441   2.363 -0.2195 -0.2997 -0.1637
 4708W        W 8227   3.224   3.426  11.434 -0.2899  0.1162  0.0053
 4709W        W 8228   7.201   8.802   3.916  0.1293 -0.1087  0.0858
 4710W        W 8229   5.649   2.792  10.074 -0.0012  0.3046 -0.0648
 4711W        W 8230   0.209   1.241   2.279 -0.1275  0.1687  0.1975
 4712W        W 8231   5.249   9.475   2.466  0.0492 -0.3090 -0.0093
 4713W        W 8232   4.733   1.385  11.652  0.1609  0.0230 -0.1012
 4714W        W 8233   6.804   1.321  10.242  0.0102 -0.0690 -0.0686
 4715W        W 8234   1.917   5.099   8.203 -0.2058 -0.0483 -0.1718
 4716W        W 8235   6.651   3.559  12.030 -0.0438  0.0268  0.0342
 4717W        W 8236   5.293   2.387   2.660 -0.4183  0.1627 -0.1361
 4718W        W 8237   9.187   3.910  12.413 -0.1628  0.0990  0.0268
 4719W        W 8238   9.315   7.987   8.615 -0.2731  0.2696  0.1007
 4720W        W 8239   2.915   7.148  10.090 -0.1588  0.0688 -0.2143
 4721W        W 8240   8.422   2.777   0.282  0.0804  0.2131 -0.1428
 4722W        W 8241   5.586   1.066   3.022 -0.0396  0.1007 -0.2989
 4723W        W 8242   4.219   8.564   3.164  0.0041 -0.0087 -0.0584
 4724W        W 8243   5.305   4.723  11.439  0.1219  0.0649 -0.3002
 4725W        W 8244   8.795   2.463   0.154 -0.0248  0.2509  0.2005
 4726W        W 8245   1.876   7.099   1.027  0.1676 -0.1251  0.0194
 4727W        W 8246   9.043   7.359   4.203  0.2949 -0.0334  0.0385
 4728W        W 8247   9.167   7.706   1.405  0.1351  0.1870  0.1230
 4729W        W 8248   2.290   7.123   0.644  0.1800 -0.3692 -0.0035
 4730W        W 8249   4.343   4.789   0.799 -0.2787  0.0692 -0.2441
 4731W        W 8250   5.577   4.285   9.785  0.1007  0.0412  0.0665
 4732W        W 8251   7.537   4.847  10.826 -0.4961 -0.1267 -0.2881
 4733W        W 8252   6.017   6.864   3.295 -0.0466  0.3263 -0.3446
 4734W        W 8253   7.476   3.820   8.613  0.1091 -0.3717  0.1363
 4735W        W 8254   1.394   2.040  11.977  0.1973  0.1800 -0.2300
 4736W        W 8255   3.208   4.963   9.815 -0.2481  0.0634  0.0848
 4737W        W 8256   4.564   9.447   2.779  0.2670 -0.1653 -0.0904
 4738W        W 8257   0.089   1.064  10.208  0.1945 -0.2873  0.1244
 4739W        W 8258   2.568   7.753   4.306  0.0560  0.1532 -0.1216
 4740W        W 8259   8.127   6.965  11.354 -0.0707 -0.1739  0.0070
 4741W        W 8260   6.835   2.651   8.796  0.0532 -0.1319 -0.0030
 4742W        W 8261   6.416   8.952   4.497 -0.3815 -0.1295 -0.1077
 4743W        W 8262   5.688   1.604   8.465  0.5124 -0.1746 -0.3365
 4744W        W 8263   2.269   0.945   3.752  0.2351  0.1982  0.1559
 4745W        W 8264   4.454   9.091   4.067  0.0873  0.4366  0.0091
 4746W        W 8265   7.391   3.042   1.705  0.0967  0.1269  0.2807
 4747W        W 8266   4.268   1.145  12.356  0.3845 -0.0369 -0.1548
 4748W        W 8267   4.763   9.312   3.687 -0.1506  0.0875 -0.1304
 4749W        W 8268   8.398   9.478   2.686  0.0909  0.0329  0.5144
 4750W        W 8269   3.035   2.000   0.358 -0.2570 -0.1864  0.1678
 4751W        W 8270   5.308   0.609   2.186  0.0645 -0.4395  0.0334
 4752W        W 8271   0.648   1.407   8.648 -0.1197 -0.2042 -0.1830
 4753W        W 8272   2.723   8.896   9.454  0.1149 -0.2042 -0.0407
 4754W        W 8273   2.279   8.399  10.078  0.0157  0.0762 -0.1289
 4755W        W 8274   4.011   7.452   1.856  0.1902  0.1863  0.0584
 4756W        W 8275   1.814   4.783  10.766  0.2928  0.2217  0.0825
 4757W        W 8276   1.077   4.352   9.469  0.1899 -0.1302  0.2374
 4758W        W 8277   4.142   0.731   8.331  0.0125  0.1305  0.1317
 4759W        W 8278   0.863   4.187   3.198 -0.3095 -0.0326  0.1427
 4760W        W 8279   9.252   6.632   2.498  0.0592  0.0631 -0.1268
 4761W        W 8280   7.471   9.181   1.802  0.0558 -0.1068  0.0926
 4762W        W 8281   2.071   7.836  12.305 -0.3002  0.3325 -0.2803
 4763W        W 8282   3.347   1.170   8.857  0.1417 -0.1459  0.2291
 4764W        W 8283   9.570   2.753   3.657 -0.1720  0.1302  0.1075
 4765W        W 8284   0.853   4.338  12.045 -0.1145  0.2143 -0.0453
 4766W        W 8285   1.943   5.755   0.368 -0.0931  0.0313  0.1090
 4767W        W 8286   0.016   0.247   1.545  0.4637  0.0622 -0.2816
 4768W        W 8287   6.669   8.307  10.463  0.0303  0.2034  0.3973
 4769W        W 8288   2.704   3.185   1.071  0.0525  0.0266 -0.1049
 4770W        W 8289   5.363   1.930  12.250 -0.1816  0.3027 -0.1279
 4771W        W 8290   0.033   9.633   4.396  0.3438  0.1720 -0.0340
 4772W        W 8291   8.835   7.963   8.400  0.0727  0.0058  0.2757
 4773W        W 8292   0.845   5.187  11.988  0.0901 -0.1129 -0.0156
 4774W        W 8293   7.739   3.933   2.993  0.3590  0.2016 -0.0376
 4775W        W 8294   5.014   6.909   9.383 -0.1260 -0.1768  0.0301
 4776W        W 8295   5.994   0.872  10.305 -0.0234  0.1996 -0.3350
 4777W        W 8296   5.621   6.957  11.066 -0.0516 -0.1664 -0.2454
 4778W        W 8297   1.063   2.141  10.151 -0.1013  0.1545  0.2060
 4779W        W 8298   8.683   3.984   0.938  0.0721 -0.0580 -0.4215
 4780W        W 8299   2.922   6.732  10.316  0.2932  0.1020 -0.1230
 4781W        W 8300   0.241   2.635   1.669  0.0807 -0.3045  0.0563
 4782W        W 8301   3.188   6.329  11.638  0.1230 -0.0271 -0.1208
 4783W        W 8302   6.836   0.444   2.826 -0.0852  0.1700  0.0298
 4784W        W 8303   1.453   2.108  10.867 -0.2570 -0.2099 -0.0057
 4785W        W 8304   5.220   3.715  10.087 -0.0449  0.0429 -0.0889
 4786W        W 8305   0.914   6.607   8.344  0.2988 -0.1235  0.2600
 4787W        W 8306   0.919   7.744   9.953 -0.1153 -0.1110 -0.5643
 4788W        W 8307   1.984   7.141  11.828  0.0080  0.1565 -0.0659
 4789W        W 8308   4.256   8.478   1.352 -0.0025 -0.3647  0.0151
 4790W        W 8309   1.307   2.043   9.195 -0.1005 -0.1558  0.1129
 4791W        W 8310   1.596   8.847   1.242 -0.1293  0.3229 -0.2057
 4792W        W 8311   5.468   3.002   9.210  0.1171 -0.0126 -0.0236
 4793W        W 8312   9.116   9.076   9.037 -0.1561  0.0746  0.1511
 4794W        W 8313   5.140   7.838   4.558 -0.2016 -0.1013  0.0906
 4795W        W 8314   2.307   1.191   0.007 -0.2929  0.0167 -0.3856
 4796W        W 8315   7.121   9.070  10.889 -0.0677  0.2426 -0.1401
 4797W        W 8316   4.342   3.343   2.097  0.2423 -0.0468  0.0568
 4798W        W 8317   5.082   7.488  11.520  0.3277 -0.1097  0.1300
 4799W        W 8318   5.867   5.243   9.668  0.0945  0.0443  0.2322
 4800W        W 8319   5.048   9.359   9.418 -0.1571  0.0718 -0.0787
 4801W        W 8320   5.809   0.814   1.189  0.1028  0.0222  0.2169
 4802W        W 8321   7.734   0.448   3.736 -0.2073  0.0014  0.2693
 4803W        W 8322   2.881   8.271   0.857 -0.0947 -0.1772  0.1077
 4804W        W 8323   0.695   1.487   2.308 -0.5206  0.0679  0.3878
 4805W        W 8324   3.935   7.895   2.122 -0.2419 -0.0468  0.0997
 4806W        W 8325   4.685   2.054   9.434 -0.0662  0.0890 -0.0569
 4807W        W 8326   9.488   9.515   1.731 -0.1146  0.1588  0.0729
 4808W        W 8327   0.736   1.794   0.606 -0.0985  0.0066 -0.0182
 4809W        W 8328   9.064   8.400  12.078  0.1554 -0.1591 -0.2321
 4810W        W 8329   8.249   5.519   1.403 -0.2340 -0.2146  0.1316
 4811W        W 8330   7.347   0.299   3.413 -0.4614 -0.0306  0.0321
 4812W        W 8331   0.966   1.298  10.191  0.0024 -0.2978 -0.1489
 4813W        W 8332   2.844   2.980   0.137 -0.3783  0.1805 -0.0129
 4814W        W 8333   7.987   8.551   1.671  0.1052  0.1416  0.0990
 4815W        W 8334   1.368   3.921   3.112 -0.1088 -0.1232  0.0983
 4816W        W 8335   1.699   4.762   1.379  0.1697 -0.0483 -0.1539
 4817W        W 8336   0.533   1.126   4.378 -0.1784 -0.2520 -0.0276
 4818W        W 8337   2.215   2.401   3.461 -0.1279  0.2970  0.1275
 4819W        W 8338   1.906   0.289  10.842  0.0951 -0.2215 -0.2297
 4820W        W 8339   7.936   0.562   9.838  0.2874  0.1249 -0.6594
 4821W        W 8340   7.952   8.086   0.149 -0.0482 -0.2175 -0.0682
 4822W        W 8341   7.994   1.123   9.210 -0.1631  0.1094 -0.0795
 4823W        W 8342   4.603   2.345  11.117 -0.0304 -0.0465 -0.0059
 4824W        W 8343   3.537   7.078   2.647 -0.0178 -0.0311 -0.1574
 4825W        W 8344   6.221   2.560   1.106 -0.0276  0.1847 -0.0327
 4826W        W 8345   5.538   8.143   3.154 -0.0713 -0.2110  0.1511
 4827W        W 8346   9.256   9.290  10.465  0.2323  0.0121 -0.0864
 4828W        W 8347   0.593   2.118   1.093 -0.3059  0.1250  0.2546
 4829W        W 8348   3.662   5.279   0.352  0.1258  0.2196 -0.1575
 4830W        W 8349   8.820   9.117   2.492 -0.1243 -0.0833 -0.0695
 4831W        W 8350   2.330   6.701   0.154  0.3292 -0.0700  0.4544
 4832W        W 8351   6.310   4.918  10.450  0.0723 -0.0473  0.1511
 4833W        W 8352   7.566   0.508   0.694 -0.1071  0.1725 -0.1681
 4834W        W 8353   1.332   6.611   2.132  0.0642 -0.2009  0.0638
 4835W        W 8354   0.625   0.112   9.296  0.1221 -0.0172 -0.1047
 4836W        W 8355   5.081   2.205   1.369 -0.0750  0.2427 -0.2060
 4837W        W 8356   9.591   1.842   0.508  0.1065  0.2457 -0.0912
 4838W        W 8357   5.278   6.214   2.767  0.1640 -0.2855  0.0930
 4839W        W 8358   7.378   3.468   1.401  0.0242 -0.0656  0.1079
 4840W        W 8359   9.139   3.733  10.633  0.3893  0.0700  0.0766
 4841W        W 8360   6.915   7.704   3.719  0.1740  0.2888 -0.3223
 4842W        W 8361   8.993   4.088   1.594  0.0669  0.0570 -0.2379
 4843W        W 8362   1.846   7.296   3.679 -0.0186  0.0750 -0.1643
 4844W        W 8363   9.374   2.632   2.760  0.1829 -0.2223  0.2084
 4845W        W 8364   6.315   8.723   8.105  0.1213 -0.2576 -0.0543
 4846W        W 8365   8.688   5.658   3.893 -0.0318  0.1726 -0.0196
 4847W        W 8366   0.375   4.139  11.310  0.1237  0.2256  0.0634
 4848W        W 8367   8.174   6.950  12.219  0.0164  0.3362  0.2186
 4849W        W 8368   4.745   0.932  10.956 -0.0711  0.1192 -0.3505
 4850W        W 8369   8.166   0.202  10.617 -0.3217 -0.0679  0.1758
 4851W        W 8370   8.966   5.593  11.528 -0.1006  0.2578 -0.3090
 4852W        W 8371   6.446   7.386   1.276  0.0391  0.0291 -0.1613
 4853W        W 8372   6.445   5.323   3.770  0.1852 -0.0668  0.0688
 4854W        W 8373   2.098   7.721   3.505  0.3514  0.1355 -0.3071
 4855W        W 8374   6.711   7.370   3.331 -0.2062 -0.0839 -0.1950
 4856W        W 8375   0.118   3.856   1.878  0.4620 -0.3728 -0.6491
 4857W        W 8376   0.167   2.665  12.113 -0.0726 -0.1562  0.0206
 4858W        W 8377   9.254   8.036  10.964  0.0540 -0.4344 -0.0617
 4859W        W 8378   7.902   7.945   9.349 -0.1138  0.2561 -0.2107
 4860W        W 8379   4.845   5.147  12.505 -0.1843  0.2364  0.1889
 4861W        W 8380   9.683   5.360  10.918 -0.0639  0.1442 -0.0003
 4862W        W 8381   6.879   0.233  10.658 -0.0179 -0.1959  0.1148
 4863W        W 8382   8.499   6.431   4.071 -0.3554 -0.0591  0.1420
 4864W        W 8383   2.016   0.658   9.724 -0.0390 -0.1061  0.1315
 4865W        W 8384   4.584   4.659   2.154  0.0747 -0.0667 -0.0652
 4866W        W 8385   2.911   3.857   9.488  0.0077  0.0205 -0.0772
 4867W        W 8386   9.235   8.830   9.437  0.1063  0.2674 -0.1161
 4868W        W 8387   0.331   9.605   0.377 -0.3273  0.1221  0.0749
 4869W        W 8388   5.443   2.393  12.290  0.0313 -0.0479 -0.4042
 4870W        W 8389   4.808   5.921  10.663 -0.0017 -0.1282 -0.0031
 4871W        W 8390   9.020   1.328   8.042  0.4711  0.1593 -0.0401
 4872W        W 8391   0.504   6.297   8.660  0.0112 -0.1007 -0.0124
 4873W        W 8392   5.911   7.341  10.390  0.1388  0.0008  0.2440
 4874W        W 8393   5.547   9.340   3.507  0.2065  0.2524 -0.2023
 4875W        W 8394   8.169   8.623   7.482  0.0997 -0.2461 -0.2458
 4876W        W 8395   0.622   1.998   3.450 -0.0014  0.2034 -0.1433
 4877W        W 8396   7.739   5.593   1.299 -0.2379  0.0974  0.0862
 4878W        W 8397   4.977   0.240  10.084  0.2206  0.1077  0.0584
 4879W        W 8398   7.822   0.519  11.831  0.0725  0.1359 -0.0872
 4880W        W 8399   6.096   0.805  11.723 -0.2770  0.2402  0.2231
 4881W        W 8400   0.833   4.536   0.460 -0.0023  0.1306 -0.0074
 4882W        W 8401   6.359   6.712   2.111 -0.0514  0.1308 -0.0050
 4883W        W 8402   0.594   3.382   1.886 -0.0086 -0.3276 -0.1712
 4884W        W 8403   1.724   1.832   8.205 -0.3285  0.1523 -0.1443
 4885W        W 8404   1.383   7.089   9.019 -0.3029 -0.2916  0.0004
 4886W        W 8405   9.610   6.574   3.366  0.0164  0.0759 -0.0709
 4887W        W 8406   1.086   0.282   3.424  0.1465 -0.1052 -0.0898
 4888W        W 8407   5.621   2.506   9.064  0.0490  0.0039 -0.0922
 4889W        W 8408   9.412   4.202   4.017 -0.2493  0.1778  0.1947
 4890W        W 8409   7.917   6.573   0.313  0.3034  0.1478 -0.4119
 4891W        W 8410   1.229   5.947   4.820 -0.0237 -0.0801  0.1836
 4892W        W 8411   5.075   9.543  11.038 -0.3187 -0.1908 -0.2312
 4893W        W 8412   4.480   9.618   2.262 -0.1894  0.2073  0.4024
 4894W        W 8413   8.866   7.143   1.798 -0.0923  0.0824  0.0688
 4895W        W 8414   1.122   0.766   1.345 -0.1863  0.2546  0.0611
 4896W        W 8415   4.148   4.401  11.988 -0.0163  0.0444  0.1332
 4897W        W 8416   1.786   7.689   2.067 -0.0446  0.1367 -0.1754
 4898W        W 8417   4.241   3.491   2.619 -0.4268  0.0456 -0.1591
 4899W        W 8418   5.475   5.402   2.529  0.2298  0.1219  0.2843
 4900W        W 8419   3.302   4.079  10.576  0.0563  0.0426  0.1795
 4901W        W 8420   0.523   6.853   2.727 -0.1188  0.0155 -0.1219
 4902W        W 8421   5.815   2.219   0.712 -0.0767 -0.0733  0.3174
 4903W        W 8422   9.452   1.054   1.145 -0.0711  0.1100 -0.0797
 4904W        W 8423   6.793   8.810   9.338  0.0889  0.0371  0.2598
 4905W        W 8424   8.618   2.284   9.448 -0.1593 -0.3867  0.1431
 4906W        W 8425   8.394   8.347   2.603 -0.3235 -0.0475 -0.0156
 4907W        W 8426   0.729   3.118   1.527  0.0512 -0.0116 -0.2064
 4908W        W 8427   2.994   9.402   0.346  0.2917 -0.0050  0.1207
 4909W        W 8428   9.044   4.457   2.471 -0.0794 -0.2104 -0.2639
 4910W        W 8429   2.035   6.105  11.689 -0.2292  0.0123  0.1708
 4911W        W 8430   2.067   3.789  11.437 -0.3909  0.2591  0.2268
 4912W        W 8431   5.148   5.551   8.857 -0.2107 -0.0249  0.1492
 4913W        W 8432   5.018   1.710  10.364  0.0141  0.0665 -0.2148
 4914W        W 8433   6.300   2.153   1.446 -0.0204 -0.0083  0.1411
 4915W        W 8434   5.537   9.095  11.973 -0.4200  0.0519  0.0302
 4916W        W 8435   8.219   0.751  12.150  0.2720 -0.0325  0.2520
 4917W        W 8436   0.330   2.808   3.840 -0.4820 -0.2054 -0.0674
 4918W        W 8437   4.620   6.127  12.405  0.0597  0.1430 -0.2073
 4919W        W 8438   3.790   0.476  10.624  0.0121  0.3069  0.3082
 4920W        W 8439   9.257   2.538  10.635  0.0760 -0.1705 -0.0110
 4921W        W 8440   5.352   6.931   1.849  0.0935  0.4430 -0.1273
 4922W        W 8441   0.174   6.008   8.943 -0.1732  0.0133 -0.0517
 4923W        W 8442   5.589   3.631   1.036  0.0179  0.2118  0.0007
 4924W        W 8443   1.322   7.902   2.319 -0.1095  0.2126 -0.1339
 4925W        W 8444   6.379   2.613   3.043 -0.0285 -0.3027  0.0399
 4926W        W 8445   8.364   3.464   2.088  0.2028  0.4323 -0.3748
 4927W        W 8446   1.827   8.182   1.971 -0.1030  0.1960 -0.0157
 4928W        W 8447   6.319   1.219   7.602  0.0643 -0.3344 -0.0158
 4929W        W 8448   5.522   2.353   2.113 -0.0535  0.0107  0.2453
 4930W        W 8449   5.444   3.542   2.420 -0.0315  0.0219  0.2125
 4931W        W 8450   7.519   4.169  10.283 -0.3188  0.1712  0.2017
 4932W        W 8451   8.770   1.662   3.691 -0.0828  0.0677 -0.1413
 4933W        W 8452   6.040   1.098   9.802  0.0957  0.0466 -0.0807
 4934W        W 8453   6.727   0.808  11.987  0.0348 -0.2762  0.0656
 4935W        W 8454   9.203   5.644   3.890 -0.0502 -0.1725  0.1754
 4936W        W 8455   9.130   0.112  10.636  0.2130 -0.1408  0.0422
 4937W        W 8456   6.076   3.052   0.258 -0.0471 -0.0723 -0.0018
 4938W        W 8457   6.395   1.442   9.703  0.2211  0.0937  0.0817
 4939W        W 8458   8.396   6.140   0.178 -0.3770  0.2285 -0.0679
 4940W        W 8459   0.417   9.645  10.872 -0.1530 -0.0096  0.1251
 4941W        W 8460   4.966   4.150  10.935 -0.0977 -0.1720 -0.1201
 4942W        W 8461   6.801   8.669   2.917  0.2500  0.2102  0.3064
 4943W        W 8462   8.921   6.487   0.269 -0.1827 -0.2112  0.3256
 4944W        W 8463   2.328   1.422   1.494 -0.2410 -0.0118 -0.2085
 4945W        W 8464   8.890   5.908  11.986 -0.1702  0.1905 -0.2980
 4946W        W 8465   9.126   7.534  12.134  0.0369  0.0607  0.1733
 4947W        W 8466   3.902   2.679   0.604 -0.0464 -0.5071  0.2412
 4948W        W 8467   9.498   0.506  10.646  0.1197  0.0265 -0.0112
 4949W        W 8468   8.475   5.110   3.986 -0.0125 -0.2250 -0.0834
 4950W        W 8469   2.699   2.839  10.468  0.0340  0.0358  0.1773
 4951W        W 8470   1.120   2.994   2.629 -0.0674 -0.3430  0.2938
 4952W        W 8471   7.638   3.943  10.929 -0.3549  0.0075  0.2836
 4953W        W 8472   1.145   6.270   0.161  0.3027 -0.0980 -0.1796
 4954W        W 8473   5.204   6.454  11.695 -0.0315  0.2142 -0.3248
 4955W        W 8474   8.622   7.238   3.763  0.0506 -0.4370 -0.0021
 4956W        W 8475   1.558   6.551   1.707 -0.2380 -0.0535 -0.1118
 4957W        W 8476   1.864   1.115  10.164  0.0614  0.1214  0.1191
 4958W        W 8477   2.853   9.530   9.303  0.2151  0.0620  0.0099
 4959W        W 8478   8.081   1.148   2.363 -0.0405  0.2052 -0.0485
 4960W        W 8479   8.745   9.245  11.813  0.0640 -0.0513  0.0884
 4961W        W 8480   7.683   2.989   9.066  0.1546 -0.0803  0.1222
 4962W        W 8481   4.327   0.289   3.120  0.1395  0.0044 -0.1787
 4963W        W 8482   4.980   9.208   1.174  0.2876 -0.1466  0.1826
 4964W        W 8483   4.100   8.712   2.113 -0.1510 -0.0258 -0.0829
 4965W        W 8484   7.201   2.269   1.097  0.0489  0.0525 -0.1153
 4966W        W 8485   2.852   4.253   9.223 -0.2073 -0.1348 -0.2344
 4967W        W 8486   1.425   6.306   4.293 -0.2690  0.4089 -0.0334
 4968W        W 8487   8.972   1.566  11.086  0.2018  0.0761 -0.2337
 4969W        W 8488   9.355   7.457   1.814  0.0035 -0.1124  0.1472
 4970W        W 8489   1.524   7.922   2.941 -0.0355  0.2275 -0.0191
 4971W        W 8490   9.173   2.042   1.001 -0.3422  0.0524 -0.1764
 4972W        W 8491   7.997   6.428   9.239  0.2453 -0.1962  0.0196
 4973W        W 8492   9.673   4.436   1.496 -0.1693 -0.1357 -0.1982
 4974W        W 8493   5.571   1.581   0.194 -0.0860 -0.0779 -0.0041
 4975W        W 8494   4.664   1.980  11.857 -0.3939  0.3046 -0.0969
 4976W        W 8495   4.539   4.565  10.919  0.0153 -0.0260 -0.0107
 4977W        W 8496   2.940   3.682   2.623  0.0835  0.3883  0.0698
 4978W        W 8497   0.453   5.914   0.014 -0.1687  0.2225  0.2039
 4979W        W 8498   2.815   1.324   1.251  0.2151 -0.1555 -0.0272
 4980W        W 8499   9.166   6.769   9.398 -0.2972  0.0393 -0.1446
 4981W        W 8500   5.391   5.372   9.510  0.2483 -0.0357  0.1174
 4982W        W 8501   1.902   4.549   1.806 -0.0675 -0.2397  0.1684
 4983W        W 8502   6.977   4.906   0.673 -0.3955  0.2653  0.1171
 4984W        W 8503   8.778   5.168   9.407 -0.0069  0.3506  0.1461
 4985W        W 8504   0.824   1.402  10.661  0.0164 -0.1333  0.2322
 4986W        W 8505   3.769   4.183   2.681 -0.0546  0.2112 -0.0156
 4987W        W 8506   6.714   5.404   0.117 -0.3483  0.1414  0.2581
 4988W        W 8507   2.431   9.036   1.909 -0.0933  0.0369 -0.1412
 4989W        W 8508   5.774   4.528  10.609  0.0621 -0.1974 -0.0350
 4990W        W 8509   8.660   8.331   3.074 -0.2054 -0.3142  0.0270
 4991W        W 8510   3.793   6.230  10.161  0.1594 -0.0577 -0.3764
 4992W        W 8511   1.306   4.266  11.923 -0.1731 -0.2469  0.3620
 4993W        W 8512   6.836   0.947   3.543  0.2699 -0.2169  0.0356
 4994W        W 8513   9.120   9.446  11.539  0.0937 -0.0236 -0.0319
 4995W        W 8514   7.901   0.814   3.349  0.0506 -0.0952  0.1261
 4996W        W 8515   0.474   8.003  10.123  0.0836  0.3354 -0.0845
 4997W        W 8516   9.477   6.728  11.616  0.2259  0.1816  0.0784
 4998W        W 8517   7.811   5.070   3.958 -0.0188  0.0182  0.0802
 4999W        W 8518   0.906   8.372   2.229 -0.2852  0.0067 -0.1362
 5000W        W 8519   1.289   3.885   9.335  0.2418 -0.0587  0.1044
 5001W        W 8520   6.678   6.645   9.886  0.0909 -0.0992 -0.0837
 5002W        W 8521   6.995   6.560   8.852  0.0274  0.1152 -0.0219
 5003W        W 8522   1.343   0.572  10.618 -0.1937  0.2141  0.0749
 5004W        W 8523   6.905   0.291  11.741  0.1384 -0.0841 -0.2729
 5005W        W 8524   3.494   0.537   2.704 -0.0992 -0.1947 -0.2519
 5006W        W 8525   5.190   7.356   8.721  0.1594 -0.0688  0.0496
 5007W        W 8526   3.321   5.046  11.580  0.2314  0.1025  0.2678
 5008W        W 8527   5.516   0.010  11.284  0.0903  0.2357 -0.4035
 5009W        W 8528   0.897   4.898  10.644  0.3454  0.1447 -0.0267
 5010W        W 8529   3.140   8.536   9.664  0.3297  0.0450 -0.3562
 5011W        W 8530   4.040   5.881   1.555 -0.0005  0.2722 -0.1385
 5012W        W 8531   5.771   6.588   2.772 -0.1283 -0.0522 -0.0882
 5013W        W 8532   1.985   8.923  10.651 -0.0241 -0.2237  0.1567
 5014W        W 8533   0.950   6.200   0.646 -0.2305  0.0530  0.0249
 5015W        W 8534   1.526   2.551   0.049  0.3249  0.2324  0.0111
 5016W        W 8535   2.035   1.082   8.458 -0.0935  0.1289  0.1035
 5017W        W 8536   5.398   0.507   8.524  0.0343 -0.1600 -0.0252
 5018W        W 8537   2.294   4.747   3.001 -0.0438 -0.1988 -0.0374
 5019W        W 8538   7.229   1.551  10.874  0.1629 -0.0383 -0.1980
 5020W        W 8539   1.587   7.324  10.365  0.1583 -0.0400 -0.2591
 5021W        W 8540   3.939   4.857   0.480 -0.0182 -0.2203  0.2320
 5022W        W 8541   4.600   8.789   7.913  0.1044  0.0742 -0.0654
 5023W        W 8542   4.516   2.411   3.012 -0.0670  0.2864  0.3195
 5024W        W 8543   7.787   0.263  10.260 -0.0301 -0.2811  0.1699
 5025W        W 8544   3.647   1.550   4.366  0.1480 -0.0978 -0.1797
 5026W        W 8545   9.385   6.363  12.551  0.1395  0.1016 -0.0961
 5027W        W 8546   3.003   1.016  10.857  0.0950  0.0962  0.3235
 5028W        W 8547   0.555   2.539   8.216 -0.0151  0.0121 -0.0153
 5029W        W 8548   2.181   0.133   2.611 -0.0310 -0.1008  0.1902
 5030W        W 8549   6.415   3.230   1.613  0.1128  0.2962 -0.2153
 5031W        W 8550   4.171   1.105   0.316  0.0278 -0.0158  0.4419
 5032W        W 8551   6.608   6.902   0.233 -0.0089 -0.0648  0.1282
 5033W        W 8552   9.261   1.291   2.031  0.1582 -0.0028 -0.1457
 5034W        W 8553   8.390   8.431   3.639 -0.0090  0.3727  0.2453
 5035W        W 8554   5.135   4.472   0.967  0.1037 -0.1352  0.0687
 5036W        W 8555   0.522   8.938   4.744  0.1494  0.0902  0.2094
 5037W        W 8556   7.241   6.782   4.769  0.2326 -0.0300  0.2892
 5038W        W 8557   3.202   0.933   2.612 -0.2436 -0.1229 -0.2335
 5039W        W 8558   7.208   2.002   1.536  0.1405  0.2571  0.1832
 5040W        W 8559   6.169   4.753  12.354 -0.2405 -0.2113 -0.1114
 5041W        W 8560   1.853   6.695   3.095 -0.0885  0.2149  0.0955
 5042W        W 8561   5.098   3.181   3.657  0.1588  0.1474 -0.2909
 5043W        W 8562   2.986   0.536  10.196  0.0096  0.1991 -0.4046
 5044W        W 8563   3.992   0.338   2.765  0.1418  0.0547  0.0703
 5045W        W 8564   9.076   1.624   1.660  0.3748  0.3183  0.5047
 5046W        W 8565   0.541   5.880   0.508 -0.0567  0.2685 -0.1319
 5047W        W 8566   0.210   7.941   8.236 -0.0279 -0.0677  0.4121
 5048W        W 8567   4.276   6.477  12.537  0.2689 -0.4369 -0.1392
 5049W        W 8568   1.634   2.791  10.902  0.2438 -0.0501 -0.3521
 5050W        W 8569   1.017   4.841   4.265  0.1847  0.1289  0.1394
 5051W        W 8570   1.042   7.817   9.155 -0.2378 -0.0956 -0.4143
 5052W        W 8571   9.676   3.937   1.393 -0.0038 -0.2842 -0.2181
 5053W        W 8572   3.324   7.135   0.755 -0.0265  0.0101  0.0450
 5054W        W 8573   8.564   0.783   1.993 -0.2924 -0.4981 -0.3832
 5055W        W 8574   8.610   4.824  10.615 -0.1863 -0.0102 -0.2290
 5056W        W 8575   2.627   0.886  10.483 -0.1127 -0.1119  0.0866
 5057W        W 8576   7.388   7.643  11.175 -0.0715 -0.0646  0.3021
 5058W        W 8577   5.938   6.407  10.427  0.0289 -0.1546 -0.0694
 5059W        W 8578   4.666   8.590  10.710 -0.2568  0.0031 -0.0664
 5060W        W 8579   4.260   8.326  10.521 -0.1285 -0.2359 -0.0766
 5061W        W 8580   2.269   4.738   2.206  0.0618  0.2598 -0.0357
 5062W        W 8581   2.492   1.516   2.277 -0.0496 -0.3019 -0.2514
 5063W        W 8582   6.486   5.707  10.427  0.1820 -0.0148 -0.0522
 5064W        W 8583   4.407   0.214   1.438  0.2170  0.1680  0.1067
 5065W        W 8584   1.519   8.795  10.865 -0.2472 -0.1615 -0.1313
 5066W        W 8585   8.277   3.332  11.102  0.2747  0.1866  0.3464
 5067W        W 8586   0.837   4.664   3.407 -0.0368  0.3426  0.0147
 5068W        W 8587   0.466   5.494  10.022  0.4539 -0.1960 -0.0589
 5069W        W 8588   1.012   0.803   2.533  0.0710  0.1810 -0.0584
 5070W        W 8589   2.252   5.743   0.801  0.4106  0.1392  0.0998
 5071W        W 8590   8.146   1.575   9.657  0.3066  0.1190 -0.0666
 5072W        W 8591   4.691   9.004   9.240  0.2648  0.1271 -0.0298
 5073W        W 8592   7.679   5.615   1.826  0.3290  0.1818  0.1902
 5074W        W 8593   2.696   2.724   0.833  0.2355  0.2724  0.0433
 5075W        W 8594   7.607   7.132  11.402  0.0330  0.0571  0.1871
 5076W        W 8595   6.841   4.634   3.624 -0.0077 -0.0542  0.0110
 5077W        W 8596   1.561   4.307  10.568 -0.3675 -0.1968  0.0984
 5078W        W 8597   9.164   0.118   3.442 -0.0268 -0.1268 -0.0317
 5079W        W 8598   2.255   2.268  12.079 -0.1230  0.1120 -0.0434
 5080W        W 8599   6.479   6.925   3.467  0.1062  0.0186  0.0152
 5081W        W 8600   2.341   3.993   0.265  0.2671  0.1104 -0.3056
 5082W        W 8601   0.042   1.524   9.252 -0.0761  0.0734 -0.0322
 5083W        W 8602   0.211   5.461   0.524  0.0006 -0.1904 -0.0054
 5084W        W 8603   6.449   7.065   2.450  0.0543  0.2291  0.0340
 5085W        W 8604   4.012   7.868  10.245 -0.1436 -0.0548  0.2468
 5086W        W 8605   8.612   6.751   1.625  0.1918  0.0366 -0.1786
 5087W        W 8606   3.298   4.166  12.204  0.1192 -0.1652  0.0217
 5088W        W 8607   3.603   3.059  10.492  0.1278 -0.1288 -0.1336
 5089W        W 8608   5.610   2.740   2.433 -0.1878 -0.1711  0.2861
 5090W        W 8609   1.547   1.993   1.760 -0.0368 -0.0090  0.0459
 5091W        W 8610   1.298   6.454  10.409  0.1877 -0.0770 -0.1553
 5092W        W 8611   5.869   8.203   4.128 -0.0448 -0.1244 -0.1982
 5093W        W 8612   2.854   6.534   3.541 -0.1318  0.1617 -0.0329
 5094W        W 8613   2.454   4.568   9.160  0.1883  0.0183 -0.0118
 5095W        W 8614   6.554   5.434   9.611  0.0874 -0.1731 -0.1192
 5096W        W 8615   6.490   3.607   2.510 -0.2649  0.1569 -0.0200
 5097W        W 8616   2.666   2.310   3.608  0.3037  0.2534 -0.4123
 5098W        W 8617   1.025   9.000  10.616  0.2455  0.0856  0.3915
 5099W        W 8618   2.518   8.423  11.647  0.0909  0.2656  0.1291
 5100W        W 8619   4.248   8.914  10.505  0.0135 -0.1193 -0.1004
 5101W        W 8620   1.956   3.393   0.093  0.2793  0.0065 -0.2294
 5102W        W 8621   6.469   8.522   8.989  0.0295 -0.0467  0.0700
 5103W        W 8622   3.669   0.292   0.260 -0.1351  0.2000 -0.1414
 5104W        W 8623   8.470   1.147   2.827  0.1159 -0.0430  0.0328
 5105W        W 8624   0.173   2.433   9.139 -0.0267 -0.1071 -0.1692
 5106W        W 8625   6.754   4.447   9.779  0.1852 -0.5672 -0.0648
 5107W        W 8626   9.590   6.427   9.518  0.0880  0.1962  0.0676
 5108W        W 8627   5.432   5.932   0.366 -0.1257  0.2145 -0.0946
 5109W        W 8628   5.377   0.141   8.238 -0.0083  0.5332  0.0844
 5110W        W 8629   3.358   2.657  10.600  0.0774  0.0038 -0.2709
 5111W        W 8630   8.926   2.746   9.482  0.0106  0.0248  0.3525
 5112W        W 8631   3.119   5.855  10.819 -0.1124  0.0356 -0.1662
 5113W        W 8632   8.927   5.063   3.099 -0.1890  0.0014 -0.1581
 5114W        W 8633   8.474   5.832  12.332  0.1559 -0.2889  0.1028
 5115W        W 8634   4.697   5.647  10.140  0.1195 -0.0921 -0.3524
 5116W        W 8635   5.866   8.575   3.420 -0.1688  0.1638 -0.4409
 5117W        W 8636   1.055   5.823   0.337 -0.1854  0.0435  0.1825
 5118W        W 8637   7.363   8.115   1.787  0.5503 -0.0219  0.1783
 5119W        W 8638   5.900   7.747   3.034  0.1108  0.0389  0.1030
 5120W        W 8639   1.417   0.704   9.006  0.2748 -0.4282  0.0097
 5121W        W 8640   2.502   8.898   4.081 -0.3779 -0.3490 -0.1739
 5122W        W 8641   5.870   0.273   2.267  0.1165 -0.2457 -0.5143
 5123W        W 8642   0.084   6.684   2.375 -0.0330  0.1968  0.1148
 5124W        W 8643   5.744   7.609   3.927  0.2859 -0.1588  0.2929
 5125W        W 8644   0.510   2.961   8.601 -0.1603 -0.5100  0.0867
 5126W        W 8645   0.311   3.392   1.396  0.0800  0.2594 -0.2884
 5127W        W 8646   3.657   5.608  10.759 -0.1889 -0.1684  0.0304
 5128W        W 8647   2.491   7.988  11.997  0.0384  0.0923 -0.1036
 5129W        W 8648   5.203   1.501   8.266  0.3337  0.0694 -0.1900
 5130W        W 8649   5.628   2.565   3.449 -0.0025 -0.0867 -0.0679
 5131W        W 8650   3.835   0.858   9.011 -0.0801  0.3695 -0.0228
 5132W        W 8651   7.192   7.728  11.627 -0.0774 -0.0634 -0.0100
 5133W        W 8652   1.240   9.503   0.817  0.1901 -0.0471  0.2741
 5134W        W 8653   3.450   2.845  12.145  0.0766  0.3001  0.0269
 5135W        W 8654   3.111   8.621   9.206 -0.1624  0.2104 -0.1632
 5136W        W 8655   5.281   3.082   2.272  0.1633 -0.0528  0.5878
 5137W        W 8656   1.278   5.461  10.515 -0.1076  0.0489 -0.3528
 5138W        W 8657   1.882   6.084   0.910 -0.0336  0.0822 -0.0856
 5139W        W 8658   2.222   6.041   1.731 -0.0721 -0.0138  0.0424
 5140W        W 8659   3.989   1.181   9.937  0.0183 -0.0951 -0.0735
 5141W        W 8660   0.288   7.417   3.087  0.0108  0.2889  0.0522
 5142W        W 8661   1.318   0.578   2.042  0.3669  0.2343  0.0978
 5143W        W 8662   6.699   4.097  10.674  0.0841  0.4011  0.3386
 5144W        W 8663   8.026   0.084   9.339  0.2288 -0.1863  0.1977
 5145W        W 8664   3.350   1.864  10.578 -0.0882 -0.1837  0.2230
 5146W        W 8665   7.679   9.364   9.515 -0.0794  0.1802 -0.0143
 5147W        W 8666   0.074   8.280   3.828  0.2586 -0.0267  0.0069
 5148W        W 8667   6.562   8.846  10.365 -0.0512  0.2973  0.1241
 5149W        W 8668   4.137   5.775   2.558 -0.3022  0.0466  0.0396
 5150W        W 8669   9.485   8.859  12.150  0.3406 -0.2856  0.3850
 5151W        W 8670   7.636   1.626   2.824 -0.1157  0.3715  0.1699
 5152W        W 8671   4.288   1.644   8.773 -0.2550  0.1192 -0.0262
 5153W        W 8672   3.214   0.538   8.733  0.0473 -0.1049  0.0728
 5154W        W 8673   9.368   7.041   9.000 -0.1201 -0.2743 -0.0488
 5155W        W 8674   2.096   1.508  10.956 -0.0931  0.1810 -0.0789
 5156W        W 8675   4.797   2.357  10.640 -0.3002 -0.1463 -0.2563
 5157W        W 8676   2.843   0.762   9.244 -0.0076 -0.1438  0.1874
 5158W        W 8677   4.548   8.184   8.584  0.0145 -0.0706 -0.0658
 5159W        W 8678   4.275   7.406  11.265 -0.1305  0.0371  0.0101
 5160W        W 8679   7.420   6.698   3.892 -0.3873 -0.1077 -0.0346
 5161W        W 8680   3.706   2.617   8.871 -0.2615  0.1366  0.1011
 5162W        W 8681   0.767   9.006  11.885 -0.2460 -0.0897  0.0630
 5163W        W 8682   7.072   7.750   0.407 -0.1445  0.1793  0.1997
 5164W        W 8683   8.280   5.480   7.916  0.3459  0.1582 -0.3610
 5165W        W 8684   7.471   8.644   9.918 -0.2177  0.0728  0.1622
 5166W        W 8685   5.224   0.166  12.341  0.0785 -0.2169  0.1157
 5167W        W 8686   4.168   7.244  11.918  0.0505 -0.2281  0.1486
 5168W        W 8687   4.948   4.854  10.076  0.2102 -0.1282 -0.4270
 5169W        W 8688   6.173   0.549  12.208 -0.0557  0.2091  0.0465
 5170W        W 8689   4.076   8.136   2.949 -0.1246 -0.0582  0.0458
 5171W        W 8690   7.895   4.211   1.977 -0.3552  0.1489 -0.1351
 5172W        W 8691   4.899   4.564  10.569 -0.0229  0.0420 -0.0126
 5173W        W 8692   6.382   8.991   2.698  0.0846  0.0831 -0.2440
 5174W        W 8693   5.155   2.717  11.373 -0.0783 -0.0568 -0.0880
 5175W        W 8694   0.603   2.861   2.792 -0.1518 -0.0634 -0.2477
 5176W        W 8695   8.596   7.514   3.235  0.0156 -0.5178 -0.0476
 5177W        W 8696   9.528   9.368   3.580 -0.2682 -0.0992 -0.1895
 5178W        W 8697   1.811   5.862   3.213  0.0841  0.1192 -0.2283
 5179W        W 8698   8.137   9.399   8.262 -0.1824  0.1273 -0.1459
 5180W        W 8699   4.707   2.894  10.482 -0.0805 -0.0345  0.1740
 5181W        W 8700   7.377   5.850   3.646 -0.2970 -0.0809  0.0565
 5182W        W 8701   4.137   4.575   1.706  0.0463 -0.1285  0.2607
 5183W        W 8702   9.524   5.899  10.399  0.1104  0.1225  0.0886
 5184W        W 8703   7.328   4.860  12.075 -0.1091 -0.1647  0.0719
 5185W        W 8704   4.178   1.614   0.487 -0.4363 -0.0448  0.1923
 5186W        W 8705   8.361   6.324   8.884  0.1294 -0.2721  0.0472
 5187W        W 8706   4.672   1.281   9.000 -0.2562  0.3087 -0.2679
 5188W        W 8707   4.681   9.445  11.320 -0.3165  0.0841  0.4746
 5189W        W 8708   1.502   5.416   3.170  0.0772  0.2629  0.3730
 5190W        W 8709   8.689   6.601  12.032  0.2106 -0.0509  0.0687
 5191W        W 8710   5.500   7.359  11.730  0.3304 -0.0659 -0.1647
 5192W        W 8711   0.259   3.556   2.250  0.2378 -0.0528 -0.2097
 5193W        W 8712   8.400   5.518   2.423 -0.0583 -0.1375 -0.3249
 5194W        W 8713   1.253   3.091  10.675  0.1811  0.3120  0.1390
 5195W        W 8714   8.448   5.047   1.714 -0.2260 -0.1329 -0.2050
 5196W        W 8715   2.854   1.529   9.807  0.3874 -0.2436  0.0625
 5197W        W 8716   6.221   6.197   2.847  0.3392  0.1270 -0.0741
 5198W        W 8717   2.187   0.546   1.466  0.0298 -0.0296  0.0419
 5199W        W 8718   1.477   7.759  12.194 -0.0139  0.0075  0.1141
 5200W        W 8719   8.888   1.190  10.351 -0.0120 -0.1433  0.1708
 5201W        W 8720   3.516   0.547   9.677  0.0690 -0.3962  0.0778
 5202W        W 8721   6.188   7.552  10.854 -0.3317 -0.1211  0.2797
 5203W        W 8722   9.046   2.875  10.341  0.5252 -0.4262  0.0243
 5204W        W 8723   2.736   9.219  10.079 -0.1610 -0.2745  0.0746
 5205W        W 8724   0.224   7.397   1.548 -0.3884  0.0058  0.1891
 5206W        W 8725   4.488   7.673   9.196  0.0324 -0.1637 -0.1391
 5207W        W 8726   8.067   7.616   1.455 -0.0479 -0.0949  0.0299
 5208W        W 8727   2.695   6.181  10.006  0.1548 -0.0916 -0.0505
 5209W        W 8728   4.105   1.637   2.906  0.0463  0.0227  0.6011
 5210W        W 8729   7.062   5.002  11.687 -0.0833  0.0078  0.0331
 5211W        W 8730   4.016   4.862  12.270 -0.0802 -0.2493  0.0059
 5212W        W 8731   3.135   5.693   9.021 -0.0275 -0.1554 -0.2925
 5213W        W 8732   6.929   5.742   9.465  0.0636 -0.1426 -0.1746
 5214W        W 8733   8.216   0.353   3.343  0.0293  0.2740 -0.0450
 5215W        W 8734   1.334   0.083  10.830  0.1461 -0.2314  0.0315
 5216W        W 8735   6.500   9.189   0.960 -0.1094  0.0926 -0.1903
 5217W        W 8736   4.532   7.803   0.193  0.1374 -0.5027  0.2399
 5218W        W 8737   8.904   3.507  11.062  0.0937 -0.1718 -0.2785
 5219W        W 8738   7.567   9.089   3.140  0.0176  0.1259 -0.4935
 5220W        W 8739   5.169   3.338   0.633  0.1688 -0.0696 -0.0926
 5221W        W 8740   6.835   2.105   0.779 -0.0068 -0.0917 -0.0456
 5222W        W 8741   1.066   4.700   9.071 -0.2307 -0.1705  0.1238
 5223W        W 8742   1.843   3.710   9.550 -0.2124  0.3877 -0.0319
 5224W        W 8743   0.725   4.061   9.637  0.3323 -0.0283 -0.0160
 5225W        W 8744   7.726   5.018   3.435  0.0569 -0.1866 -0.2594
 5226W        W 8745   2.720   7.683   3.482 -0.1390  0.0234 -0.0364
 5227W        W 8746   7.271   4.420   0.367 -0.3217 -0.0270 -0.1689
 5228W        W 8747   2.737   4.422   3.007  0.1490 -0.0770 -0.0534
 5229W        W 8748   6.509   0.552  11.442 -0.1204  0.0726  0.1163
 5230W        W 8749   5.673   9.237  10.027 -0.0247  0.0748 -0.4051
 5231W        W 8750   7.209   6.517  10.061 -0.1650  0.1655 -0.0973
 5232W        W 8751   9.477   9.045  11.374  0.1462  0.3957  0.0238
 5233W        W 8752   6.539   5.359   2.232  0.1191  0.1086 -0.2289
 5234W        W 8753   1.344   2.762   0.508  0.0409  0.2127  0.1429
 5235W        W 8754   8.584   1.429   0.298 -0.1576 -0.2565 -0.2287
 5236W        W 8755   4.801   0.329  11.890 -0.0890 -0.1050 -0.0252
 5237W        W 8756   1.691   9.484   2.296  0.0228  0.1269  0.2626
 5238W        W 8757   3.626   5.662   2.378 -0.1156  0.0683  0.0308
 5239W        W 8758   0.623   0.579   1.078  0.2868 -0.1043  0.0173
 5240W        W 8759   5.095   8.217  10.300  0.0463 -0.0900 -0.2204
 5241W        W 8760   2.201   4.133   3.895 -0.3214 -0.1130 -0.0393
 5242W        W 8761   7.956   3.169   2.596 -0.2347  0.2853 -0.0962
 5243W        W 8762   5.998   7.764   2.093  0.1133  0.0695  0.1986
 5244W        W 8763   8.230   9.169   0.873 -0.2957 -0.2630 -0.0246
 5245W        W 8764   0.495   3.711  10.934  0.1371 -0.1826 -0.0806
 5246W        W 8765   6.544   0.035  11.428 -0.0164 -0.0478 -0.1692
 5247W        W 8766   4.448   8.652   9.566 -0.2238  0.1722 -0.3195
 5248W        W 8767   4.127   3.003   0.236  0.0838 -0.3702  0.2325
 5249W        W 8768   5.722   7.565   9.026  0.2192  0.0190  0.0191
 5250W        W 8769   0.985   6.907   1.493  0.1016 -0.1949  0.1237
 5251W        W 8770   6.494   5.919   9.820 -0.0891  0.2159  0.0150
 5252W        W 8771   2.841   3.359   1.887  0.0038  0.1155 -0.0449
 5253W        W 8772   9.401   2.309  10.112 -0.2936 -0.1112 -0.5491
 5254W        W 8773   5.967   7.409  11.882  0.0021 -0.3435 -0.2674
 5255W        W 8774   2.165   2.866  12.122  0.0920  0.1148  0.2828
 5256W        W 8775   5.873   6.288   2.348 -0.2544  0.1956 -0.0227
 5257W        W 8776   2.684   5.502   0.409 -0.0102  0.0222 -0.1041
 5258W        W 8777   2.189   5.223   9.862 -0.0682 -0.1249 -0.0521
 5259W        W 8778   7.793   6.892   8.405 -0.1234  0.0412  0.0019
 5260W        W 8779   2.608   2.592   9.071 -0.2600 -0.2172  0.2011
 5261W        W 8780   6.646   2.189   9.973  0.5973 -0.0328 -0.1001
 5262W        W 8781   7.125   2.923   2.145 -0.2625  0.1286  0.3824
 5263W        W 8782   8.091   0.765   2.868  0.1060  0.2845  0.1794
 5264W        W 8783   8.473   8.372   1.768  0.0117  0.1613 -0.2723
 5265W        W 8784   8.439   0.100   8.598 -0.1371 -0.2195 -0.1289
 5266W        W 8785   5.813   8.642   0.365  0.0270 -0.0225  0.2452
 5267W        W 8786   5.656   6.922   0.599  0.2909  0.4393  0.1083
 5268W        W 8787   2.339   4.866   0.791 -0.1188 -0.1090  0.4175
 5269W        W 8788   2.031   5.749  10.164 -0.0131 -0.2468  0.2847
 5270W        W 8789   4.457   3.215  11.156 -0.0313 -0.0821 -0.0839
 5271W        W 8790   7.771   0.914   0.508  0.2536  0.0193  0.0164
 5272W        W 8791   7.495   1.123  10.821 -0.0614  0.0519  0.3768
 5273W        W 8792   4.299   3.502   0.888  0.0792 -0.0098  0.0381
 5274W        W 8793   5.598   5.562  11.640 -0.1824 -0.1793  0.0420
 5275W        W 8794   3.655   3.130   0.623  0.0603  0.2041 -0.2242
 5276W        W 8795   1.977   7.735   3.016  0.1411 -0.0158  0.2329
 5277W        W 8796   2.950   1.006  10.047  0.1096 -0.2414  0.1714
 5278W        W 8797   2.798   2.735   3.802 -0.3493 -0.2737  0.2041
 5279W        W 8798   5.967   1.626  11.123 -0.2307 -0.1772  0.0880
 5280W        W 8799   3.698   3.478  11.211  0.0590 -0.1545  0.1726
 5281W        W 8800   9.034   5.750   1.364 -0.0342 -0.1469  0.1404
 5282W        W 8801   1.043   5.710   3.897 -0.2570 -0.1268 -0.2037
 5283W        W 8802   3.987   3.431   0.465 -0.2243 -0.4157  0.2587
 5284W        W 8803   5.677   0.502   1.844  0.0723  0.4749  0.1437
 5285W        W 8804   4.815   2.991  11.552  0.0897 -0.1633 -0.3008
 5286W        W 8805   0.005   4.176  10.184 -0.2543 -0.0448 -0.1714
 5287W        W 8806   1.449   6.578   9.070 -0.0718  0.1710  0.1115
 5288W        W 8807   7.132   2.619   4.060  0.2487 -0.1373 -0.0347
 5289W        W 8808   7.815   7.805   2.504  0.2732 -0.0919 -0.1032
 5290W        W 8809   9.425   9.688  12.556  0.1740 -0.1914  0.3411
 5291W        W 8810   5.023   2.489   3.061  0.0246 -0.1586 -0.0969
 5292W        W 8811   6.372   7.288  10.447 -0.1101 -0.0919  0.0619
 5293W        W 8812   9.462   8.442   0.903  0.3319 -0.0466 -0.0565
 5294W        W 8813   6.717   4.226   3.276 -0.2650 -0.4079  0.0712
 5295W        W 8814   3.634   4.677  12.048  0.0271 -0.4394 -0.0248
 5296W        W 8815   4.855   4.266   1.913 -0.1674  0.0226 -0.0073
 5297W        W 8816   1.143   8.683   8.184  0.0625 -0.1579 -0.1484
 5298W        W 8817   5.605   7.513   2.675  0.0982  0.2237 -0.0607
 5299W        W 8818   9.284   1.645   3.723 -0.0334 -0.2205  0.6132
 5300W        W 8819   5.950   8.874   0.785 -0.1847 -0.0472  0.2768
 5301W        W 8820   8.180   5.009   0.336  0.2772 -0.1101  0.0604
 5302W        W 8821   2.601   0.459   3.533  0.1466  0.0426  0.4504
 5303W        W 8822   0.978   2.590   9.671 -0.1527 -0.0481 -0.2436
 5304W        W 8823   0.205   9.115   1.751 -0.1954 -0.0979  0.0415
 5305W        W 8824   9.647   7.604  12.308 -0.0002  0.0124 -0.0924
 5306W        W 8825   8.268   3.262  12.428 -0.2308  0.1660  0.0353
 5307W        W 8826   2.157   6.650   2.714 -0.0905  0.2121 -0.4122
 5308W        W 8827   4.352   2.768  10.932  0.1088 -0.0682  0.0899
 5309W        W 8828   1.608   7.406   1.460  0.3475  0.2656 -0.0836
 5310W        W 8829   1.870   0.364  11.630  0.3181  0.1330 -0.1177
 5311W        W 8830   0.451   8.680   2.021 -0.5701 -0.0086  0.3134
 5312W        W 8831   7.829   2.010   4.453 -0.4206  0.0309 -0.0787
 5313W        W 8832   7.426   0.142  12.414 -0.3261 -0.3972 -0.0889
 5314W        W 8833   5.174   7.206   2.454  0.0415 -0.2310 -0.1616
 5315W        W 8834   4.472   3.299   8.356 -0.1233 -0.2234  0.2454
 5316W        W 8835   8.222   4.232  11.386  0.0549  0.1496  0.1630
 5317W        W 8836   2.886   0.938   8.627  0.0925  0.0259  0.1638
 5318W        W 8837   5.741   6.266   0.548 -0.2055 -0.2360 -0.2838
 5319W        W 8838   4.461   3.237  12.388  0.0586  0.3852 -0.2418
 5320W        W 8839   3.044   3.168   1.442 -0.0225 -0.1831 -0.4104
 5321W        W 8840   0.916   6.283   2.743  0.2235  0.0508  0.1047
 5322W        W 8841   4.983   3.287   3.072  0.0975 -0.2035 -0.0277
 5323W        W 8842   5.577   0.776   9.843  0.0147  0.4781  0.1739
 5324W        W 8843   8.307   2.261   0.034  0.0321 -0.2133  0.0798
 5325W        W 8844   9.610   8.983   1.411  0.1160  0.1120 -0.0466
 5326W        W 8845   8.312   0.414   0.020 -0.0705 -0.3175 -0.5401
 5327W        W 8846   8.363   0.891   3.262 -0.0126  0.1593  0.0945
 5328W        W 8847   9.210   7.198   1.433 -0.2098  0.1422  0.2969
 5329W        W 8848   0.480   0.025   1.784 -0.0092  0.0121  0.3644
 5330W        W 8849   9.510   1.455   0.205 -0.0390 -0.0793 -0.1527
 5331W        W 8850   6.751   9.419   2.703 -0.0227 -0.0123 -0.1670
 5332W        W 8851   1.596   6.532   0.644 -0.1749  0.1108 -0.1602
 5333W        W 8852   2.278   8.888   1.466  0.0163  0.2698  0.2511
 5334W        W 8853   7.755   0.783   8.653 -0.1412 -0.0483  0.4054
 5335W        W 8854   8.446   5.116  11.475  0.3571  0.2084 -0.1909
 5336W        W 8855   9.280   7.914   0.087  0.0916 -0.1006  0.0046
 5337W        W 8856   8.612   3.964   9.465 -0.1553 -0.2272 -0.0187
 5338W        W 8857   6.921   5.229  12.162 -0.1647 -0.2998  0.0629
 5339W        W 8858   8.128   3.973   3.371 -0.4589 -0.4422 -0.0623
 5340W        W 8859   8.857   1.631  11.868  0.1349 -0.3324 -0.0531
 5341W        W 8860   5.751   7.989   1.760 -0.0223 -0.0926 -0.1354
 5342W        W 8861   9.332   3.725   1.782  0.2769  0.0695  0.2709
 5343W        W 8862   6.468   5.133   8.796 -0.0624  0.1111 -0.1053
 5344W        W 8863   2.994   6.915   2.808 -0.2256  0.0010 -0.0900
 5345W        W 8864   3.953   2.054   0.003  0.0590  0.3608  0.1691
 5346W        W 8865   3.536   0.843   1.522  0.0384 -0.2671  0.0939
 5347W        W 8866   8.186   2.299   2.298 -0.2267 -0.2995 -0.2395
 5348W        W 8867   6.348   4.793   3.757 -0.2397 -0.0258  0.1524
 5349W        W 8868   9.381   8.523   2.762 -0.0669 -0.1677  0.0850
 5350W        W 8869   1.949   2.564   1.299  0.1833  0.2425 -0.0341
 5351W        W 8870   0.044   0.332   9.742  0.1613  0.0838  0.1427
 5352W        W 8871   6.294   2.217   8.124 -0.0190 -0.0557  0.3171
 5353W        W 8872   4.879   7.759   3.402 -0.4323  0.1372  0.1723
 5354W        W 8873   4.054   3.844   8.918  0.0090  0.1103  0.0826
 5355W        W 8874   1.551   9.631  11.672 -0.2819  0.3739 -0.2000
 5356W        W 8875   1.946   9.273   8.612 -0.0799  0.0197  0.1494
 5357W        W 8876   5.628   8.808   8.843  0.0320  0.0615 -0.1469
 5358W        W 8877   5.818   3.993  10.750 -0.1408 -0.0815 -0.0641
 5359W        W 8878   9.404   3.664   3.173 -0.0112  0.0772  0.0862
 5360W        W 8879   3.660   4.293   9.833 -0.2454  0.1561  0.0320
 5361W        W 8880   0.195   2.489  10.093 -0.1775  0.4882 -0.0301
 5362W        W 8881   7.591   0.883  10.065  0.0915  0.1771  0.1760
 5363W        W 8882   3.154   5.240   0.041  0.2907 -0.0447 -0.1285
 5364W        W 8883   4.441   4.105  11.129  0.2980 -0.2756 -0.3047
 5365W        W 8884   5.030   7.469  10.556  0.2008  0.2078  0.1763
 5366W        W 8885   7.532   1.514   9.553  0.2814  0.1146 -0.0965
 5367W        W 8886   8.898   4.992   0.898 -0.2608  0.1672 -0.1894
 5368W        W 8887   7.275   9.010  11.337  0.1216  0.1212  0.1559
 5369W        W 8888   5.544   7.167  10.625  0.3711  0.1748 -0.1491
 5370W        W 8889   4.247   0.606  10.547  0.0618 -0.0508 -0.2548
 5371W        W 8890   1.156   2.822   1.514  0.3313  0.1054  0.2675
 5372W        W 8891   0.620   6.145   9.196 -0.2224 -0.0933  0.0747
 5373W        W 8892   6.645   2.620  11.678  0.2667 -0.0279  0.0108
 5374W        W 8893   8.017   0.648  10.466 -0.0715 -0.4251 -0.1426
 5375W        W 8894   6.531   3.235  11.587 -0.0563  0.0544 -0.1154
 5376W        W 8895   8.911   8.907  12.259 -0.0024  0.1213 -0.0132
 5377W        W 8896   3.020   7.649  11.027  0.1459 -0.0657 -0.2223
 5378W        W 8897   5.974   8.444   8.875  0.2536 -0.0864  0.0758
 5379W        W 8898   7.684   4.649   8.416 -0.0699 -0.0541  0.0230
 5380W        W 8899   5.580   7.170   2.243  0.1454  0.0103  0.0325
 5381W        W 8900   2.191   7.985   1.223  0.2167  0.2162 -0.1357
 5382W        W 8901   4.098   9.456   9.962  0.0611 -0.2487 -0.2236
 5383W        W 8902   8.535   3.846  10.180  0.1089 -0.1976 -0.0134
 5384W        W 8903   7.835   2.279  11.049 -0.1593 -0.1992 -0.3661
 5385W        W 8904   7.777   0.965  11.249  0.1855  0.1232 -0.0865
 5386W        W 8905   9.067   2.781   0.801 -0.0931  0.2770 -0.0485
 5387W        W 8906   8.049   0.180   2.753  0.1011 -0.3091 -0.0172
 5388W        W 8907   0.668   8.734   0.945 -0.3386  0.2018  0.1269
 5389W        W 8908   8.422   9.598   1.803  0.0251  0.1051 -0.1872
 5390W        W 8909   9.645   4.467  11.453  0.2047  0.0528  0.5226
 5391W        W 8910   3.560   3.478   9.049  0.2495  0.0864 -0.2441
 5392W        W 8911   3.766   9.100  12.517  0.1649  0.2534 -0.2135
 5393W        W 8912   1.434   5.660   9.326 -0.1189 -0.0067 -0.0988
 5394W        W 8913   8.549   9.192   8.063  0.0490  0.0398  0.0016
 5395W        W 8914   4.439   5.038  10.723 -0.0740  0.2250  0.2941
 5396W        W 8915   5.139   8.807   8.586  0.1622  0.2598 -0.0017
 5397W        W 8916   8.534   7.820   2.359  0.1865 -0.1892  0.1487
 5398W        W 8917   4.976   6.924   0.413  0.4746 -0.0311  0.1426
 5399W        W 8918   5.703   6.122   2.946 -0.0925  0.0156  0.1839
 5400W        W 8919   5.336   4.569  10.768  0.2605 -0.1822 -0.2160
 5401W        W 8920   5.530   1.348   2.376 -0.0867  0.0062  0.0167
 5402W        W 8921   8.557   6.429   0.897  0.1702 -0.1575 -0.2570
 5403W        W 8922   4.431   0.610   3.921 -0.1395 -0.1400 -0.0415
 5404W        W 8923   1.854   7.407  12.353 -0.3493 -0.0694 -0.1169
 5405W        W 8924   4.856   8.495  11.627 -0.0527  0.0971  0.1390
 5406W        W 8925   9.060   0.631   8.530 -0.1155  0.1147  0.2030
 5407W        W 8926   8.309   6.010   9.267  0.1650  0.2501 -0.2261
 5408W        W 8927   1.870   4.961   9.285  0.2396 -0.1422 -0.2677
 5409W        W 8928   5.818   2.099   8.018 -0.0698  0.1309 -0.2524
 5410W        W 8929   4.431   2.036   0.248  0.0804 -0.3508  0.0403
 5411W        W 8930   5.232   7.837  11.915 -0.1524  0.2186  0.0630
 5412W        W 8931   8.777   3.528  12.369  0.1410 -0.2403 -0.1597
 5413W        W 8932   0.482   2.412  11.405  0.2142  0.2566  0.0322
 5414W        W 8933   6.314   8.826   9.663 -0.1030 -0.3798 -0.0887
 5415W        W 8934   3.498   7.917   2.376 -0.0512  0.0800 -0.2274
 5416W        W 8935   8.590   6.796  11.145  0.0970 -0.0483 -0.0133
 5417W        W 8936   7.482   3.232  12.049  0.0624 -0.1502  0.0740
 5418W        W 8937   2.796   5.197   2.009  0.0312  0.1069 -0.0268
 5419W        W 8938   6.552   6.108   3.212 -0.1813  0.0813  0.0131
 5420W        W 8939   1.779   8.096   9.997 -0.3874 -0.0450  0.1562
 5421W        W 8940   5.620   8.255   3.707  0.0919 -0.0525  0.1007
 5422W        W 8941   6.155   4.991  11.801 -0.2293 -0.1454 -0.0567
 5423W        W 8942   4.465   6.350  10.928  0.2221 -0.2068 -0.0232
 5424W        W 8943   6.671   0.663  10.940 -0.1389 -0.1416 -0.0771
 5425W        W 8944   2.476   0.040   9.077  0.0342  0.3146 -0.0188
 5426W        W 8945   5.222   0.297   3.451  0.1025 -0.0985  0.1333
 5427W        W 8946   2.302   5.573   9.456  0.3863  0.2769 -0.1639
 5428W        W 8947   0.734   7.843   4.326  0.0540  0.0103  0.0995
 5429W        W 8948   9.250   3.231  10.052  0.0139  0.0141  0.1980
 5430W        W 8949   3.073   1.586   9.370 -0.2091  0.0864  0.0211
 5431W        W 8950   5.820   0.036  11.748  0.1026  0.1541  0.1053
 5432W        W 8951   4.158   7.575   0.863 -0.1381  0.0485  0.1557
 5433W        W 8952   9.559   1.416  10.611 -0.2493  0.1674  0.1094
 5434W        W 8953   2.418   8.066   0.685  0.0500  0.0583  0.1507
 5435W        W 8954   8.547   1.215   9.936 -0.0072 -0.1877 -0.1827
 5436W        W 8955   8.386   1.832   9.278 -0.0496  0.1430  0.1450
 5437W        W 8956   8.202   6.678   3.164  0.1266 -0.1776 -0.0249
 5438W        W 8957   5.461   1.847   2.721  0.0094  0.1306 -0.3981
 5439W        W 8958   4.840   5.530   9.257  0.0868 -0.0569 -0.0507
 5440W        W 8959   3.709   7.274   8.168 -0.1841 -0.0017  0.1290
 5441W        W 8960   8.263   7.893   1.852 -0.0006 -0.2796  0.1247
 5442W        W 8961   6.693   4.951   9.896  0.0517  0.0935  0.3129
 5443W        W 8962   3.267   7.026   8.351  0.2354 -0.0990 -0.0813
 5444W        W 8963   4.660   0.275   0.988 -0.1863 -0.2941  0.1704
 5445W        W 8964   6.271   3.326   9.129 -0.1930 -0.1407 -0.0735
 5446W        W 8965   2.722   8.314  12.353  0.3288  0.2923  0.1766
 5447W        W 8966   5.156   0.320   1.822  0.3186 -0.0023  0.0366
 5448W        W 8967   4.802   1.805   8.527 -0.1474 -0.1918  0.0349
 5449W        W 8968   4.332   6.116  11.887  0.1160  0.0365 -0.2277
 5450W        W 8969   2.927   6.830  11.858 -0.0790 -0.1388  0.0531
 5451W        W 8970   2.672   0.213   4.873  0.0026 -0.1365 -0.0750
 5452W        W 8971   1.344   2.084   4.182  0.0987 -0.1097 -0.0880
 5453W        W 8972   0.894   1.776   9.342  0.1872 -0.0014  0.1578
 5454W        W 8973   1.065   0.389   1.062 -0.0539 -0.2141 -0.1837
 5455W        W 8974   4.141   8.639   2.702 -0.0097  0.1349  0.3148
 5456W        W 8975   0.701   4.164   1.148 -0.0756  0.1809 -0.0624
 5457W        W 8976   9.352   8.281   4.248  0.0803  0.0000  0.0245
 5458W        W 8977   9.289   7.997   2.545 -0.1469  0.2399  0.3406
 5459W        W 8978   0.121   8.294   1.775 -0.4120 -0.1295 -0.1282
 5460W        W 8979   4.831   1.053   2.735 -0.0844  0.0373 -0.0144
 5461W        W 8980   4.527   8.315   2.900  0.3582 -0.0847  0.2510
 5462W        W 8981   3.183   0.803   1.992  0.0327 -0.2736  0.3066
 5463W        W 8982   7.124   2.558   9.830  0.1036  0.2197 -0.1755
 5464W        W 8983   3.271   3.714  11.920 -0.0490 -0.2988 -0.2812
 5465W        W 8984   4.328   2.138   4.165 -0.0941  0.0431 -0.2748
 5466W        W 8985   3.368   1.858  11.672 -0.0584  0.2002 -0.0864
 5467W        W 8986   4.349   0.740   3.388  0.2406  0.1380  0.4293
 5468W        W 8987   2.127   4.313  10.234 -0.1345  0.0827 -0.0577
 5469W        W 8988   7.815   8.075   1.553 -0.1104 -0.1720  0.0714
 5470W        W 8989   0.491   3.118   0.477  0.2119  0.0865 -0.2599
 5471W        W 8990   2.893   6.881   1.060  0.2263 -0.1027  0.4309
 5472W        W 8991   2.438   7.035   2.872 -0.1201 -0.0231  0.0822
 5473W        W 8992   9.497   5.788  11.394  0.1268 -0.0810 -0.1370
 5474W        W 8993   8.831   1.222   1.838  0.0410 -0.2109 -0.1010
 5475W        W 8994   5.120   1.577  12.559 -0.0442  0.1696  0.0770
 5476W        W 8995   5.403   5.818   9.758  0.1576  0.0534 -0.2041
 5477W        W 8996   1.572   8.284   2.495  0.1939  0.0569  0.4017
 5478W        W 8997   3.435   0.077   8.729 -0.0559 -0.0895 -0.1042
 5479W        W 8998   6.224   3.906   2.235 -0.1113 -0.1505 -0.1617
 5480W        W 8999   4.657   3.619   8.722  0.2444 -0.1642  0.0405
 5481W        W 9000   0.562   1.063  10.196 -0.1467  0.1706  0.0117
 5482W        W 9001   0.356   8.002   1.418  0.1722  0.0070  0.0813
 5483W        W 9002   4.165   8.418   9.884  0.1045 -0.1320  0.2712
 5484W        W 9003   1.731   4.535   2.967 -0.0353  0.2411 -0.1849
 5485W        W 9004   3.759   1.755   0.861  0.0974  0.1593 -0.1564
 5486W        W 9005   4.409   1.928   3.216 -0.0141 -0.0573  0.2311
 5487W        W 9006   6.670   0.122   9.408  0.1743 -0.0745 -0.2599
 5488W        W 9007   8.654   3.803   3.582  0.2190 -0.0780 -0.0576
 5489W        W 9008   8.284   8.360   4.102  0.0469  0.2249 -0.4025
 5490W        W 9009   5.028   5.474  11.638  0.0841 -0.0794 -0.3645
 5491W        W 9010   8.056   2.029   9.975 -0.0540 -0.0437 -0.0508
 5492W        W 9011   5.772   1.689   9.327  0.1187  0.2129 -0.2257
 5493W        W 9012   4.984   5.255   3.873  0.1638 -0.3412 -0.0872
 5494W        W 9013   0.368   8.947   2.645  0.0504  0.1082 -0.1111
 5495W        W 9014   9.635   2.882   4.350 -0.2536 -0.1368  0.2628
 5496W        W 9015   1.505   3.632  12.519 -0.1002 -0.3949 -0.1124
 5497W        W 9016   9.551   0.522   8.311 -0.1684 -0.0120  0.0975
 5498W        W 9017   4.201   0.052   0.973 -0.1491  0.0239  0.0361
 5499W        W 9018   5.561   6.682   2.349  0.1569 -0.2118  0.2299
 5500W        W 9019   8.800   0.919   8.234 -0.0044 -0.0078 -0.1034
 5501W        W 9020   6.223   9.474  10.745  0.1210  0.0281 -0.0223
 5502W        W 9021   7.187   2.778   9.384  0.2239 -0.0599  0.0392
 5503W        W 9022   0.854   7.067   9.214  0.0383 -0.0609  0.1249
 5504W        W 9023   4.932   0.213   2.306 -0.2127 -0.2268 -0.0352
 5505W        W 9024   1.049   2.411  11.607 -0.0336  0.3777  0.0511
 5506W        W 9025   6.338   4.589  10.099 -0.0017 -0.1302  0.0378
 5507W        W 9026   8.479   7.130   2.968  0.0108  0.0430  0.1677
 5508W        W 9027   8.350   0.910   9.580  0.1634 -0.2848  0.2296
 5509W        W 9028   1.260   9.351   3.610  0.1662 -0.0083 -0.2070
 5510W        W 9029   7.061   7.862  10.306  0.1053  0.1057  0.1516
 5511W        W 9030   3.896   7.458   7.694  0.1867  0.2087 -0.0774
 5512W        W 9031   7.978   4.983  11.581 -0.0546 -0.2362 -0.2315
 5513W        W 9032   3.195   3.632   9.863 -0.0499  0.1236  0.3070
 5514W        W 9033   2.892   8.070   0.394  0.1974  0.1031 -0.1021
 5515W        W 9034   5.877   5.466   1.350 -0.2862 -0.2180 -0.0621
 5516W        W 9035   5.183   6.800  10.329  0.0571 -0.1160 -0.0116
 5517W        W 9036   4.199   1.640   4.127  0.3194  0.2941 -0.1349
 5518W        W 9037   9.416   8.464  12.478 -0.3371  0.1766  0.4415
 5519W        W 9038   8.184   2.946   3.064  0.2291  0.2382 -0.2256
 5520W        W 9039   5.087   7.155   1.504  0.0893  0.1682 -0.1826
 5521W        W 9040   1.704   7.277   7.867  0.1069  0.3503 -0.0808
 5522W        W 9041   5.180   0.845  10.154  0.0107  0.2006 -0.1496
 5523W        W 9042   3.700   6.763   3.973  0.1259  0.0742  0.2442
 5524W        W 9043   4.806   9.561   3.214 -0.0677 -0.0106  0.1132
 5525W        W 9044   1.719   9.320   0.966  0.1638 -0.0402 -0.1374
 5526W        W 9045   8.164   1.316   0.627 -0.1045  0.0579 -0.1890
 5527W        W 9046   4.041   0.644  10.019 -0.1460 -0.2772  0.1145
 5528W        W 9047   5.847   1.232   0.873 -0.0184 -0.1847  0.0738
 5529W        W 9048   2.341   5.081  10.435  0.2342  0.1710  0.1628
 5530W        W 9049   9.208   9.059   1.822  0.1556  0.0748 -0.0396
 5531W        W 9050   9.356   2.411   1.626 -0.1837  0.2113 -0.0967
 5532W        W 9051   1.813   2.348   3.176 -0.0670  0.2740  0.0332
 5533W        W 9052   0.948   7.695   1.973 -0.0288  0.0350  0.0298
 5534W        W 9053   3.104   2.585  12.450  0.0539  0.0067 -0.1861
 5535W        W 9054   1.590   2.499   1.658 -0.0526 -0.0387 -0.1889
 5536W        W 9055   7.680   8.590   8.799 -0.1265 -0.1637  0.0703
 5537W        W 9056   1.239   0.490   8.377  0.2314  0.2277  0.1776
 5538W        W 9057   1.116   4.461  10.463  0.0400  0.1753  0.0671
 5539W        W 9058   6.104   2.758  10.378 -0.2051  0.3477 -0.1333
 5540W        W 9059   5.628   4.556   8.917  0.1585  0.0301  0.1220
 5541W        W 9060   9.484   9.682   0.444 -0.2972 -0.0182  0.0922
 5542W        W 9061   5.592   2.843   1.960 -0.2355  0.2120  0.1109
 5543W        W 9062   4.839   0.522   1.483  0.0711  0.0974 -0.0387
 5544W        W 9063   5.851   6.785   3.786 -0.3521  0.0954 -0.0336
 5545W        W 9064   3.659   0.932   1.038 -0.2875  0.0378  0.3239
 5546W        W 9065   1.405   6.073   1.065 -0.1822 -0.2062  0.0254
 5547W        W 9066   4.824   1.980   1.787  0.0686 -0.2726 -0.1163
 5548W        W 9067   3.733   0.802   0.489  0.4412 -0.4886  0.0097
 5549W        W 9068   5.621   0.075   3.338 -0.0733 -0.1273  0.0828
 5550W        W 9069   5.196   9.347   0.058 -0.2836 -0.1786  0.2498
 5551W        W 9070   9.529   0.909   0.502  0.1134  0.2915 -0.4658
 5552W        W 9071   9.000   7.218   3.116  0.2026  0.1449 -0.1423
 5553W        W 9072   9.051   3.731   2.737  0.1639 -0.2339 -0.4005
 5554W        W 9073   6.066   5.375   0.512  0.1908  0.1440 -0.0406
 5555W        W 9074   0.278   8.355   0.994 -0.0308  0.0968  0.1020
 5556W        W 9075   3.224   0.095   4.057  0.1613 -0.0542  0.4262
 5557W        W 9076   8.236   0.781   0.736  0.2232 -0.0417 -0.2546
 5558W        W 9077   2.772   4.967  10.643 -0.0260  0.2675  0.0201
 5559W        W 9078   0.693   1.350   0.447  0.1227 -0.1775 -0.1003
 5560W        W 9079   5.889   3.230   1.716  0.0907 -0.1244  0.0815
 5561W        W 9080   9.680   5.505  12.120 -0.3832 -0.2401  0.0473
 5562W        W 9081   2.521   8.854  11.273 -0.1306  0.0146 -0.3139
 5563W        W 9082   5.994   3.192  10.089 -0.1962  0.0064  0.2026
 5564W        W 9083   4.765   1.902  12.365  0.2452  0.0770  0.1083
 5565W        W 9084   6.587   0.545  10.396 -0.0792  0.1848 -0.0657
 5566W        W 9085   8.876   3.049   3.519  0.0346  0.1063 -0.0181
 5567W        W 9086   8.593   1.790   1.856 -0.3526  0.1991 -0.0702
 5568W        W 9087   0.098   8.083   4.339 -0.2872  0.1508  0.0627
 5569W        W 9088   2.830   7.574   0.219  0.3606  0.0611  0.4033
 5570W        W 9089   2.097   8.502   8.135 -0.1918  0.1632 -0.1014
 5571W        W 9090   3.304   6.138   2.318  0.2556 -0.2961 -0.2498
 5572W        W 9091   3.743   1.762   1.442  0.2650 -0.0406  0.0691
 5573W        W 9092   8.773   1.318   4.139 -0.0814  0.0903  0.0732
 5574W        W 9093   5.377   3.955   3.219 -0.1521  0.0202  0.1450
 5575W        W 9094   5.170   2.379   3.576 -0.2412 -0.1206 -0.2644
 5576W        W 9095   3.620   8.570   2.921 -0.0076  0.0567 -0.1921
 5577W        W 9096   7.613   8.516   1.341 -0.2286  0.2050  0.1001
 5578W        W 9097   3.222   5.437  12.086 -0.0749 -0.0094 -0.0451
 5579W        W 9098   3.951   5.452   1.971  0.0780 -0.0183  0.1234
 5580W        W 9099   0.034   6.302  11.804  0.2250  0.1356 -0.2373
 5581W        W 9100   6.317   3.019   4.177 -0.1912 -0.0656  0.0351
 5582W        W 9101   5.940   8.470  11.055 -0.1278 -0.0429  0.2471
 5583W        W 9102   3.324   4.932   0.950  0.3235  0.2246  0.0917
 5584W        W 9103   2.908   1.842  11.501  0.0894 -0.0714  0.0559
 5585W        W 9104   5.424   9.507   0.474 -0.2597 -0.2602  0.0232
 5586W        W 9105   8.125   7.562  10.623  0.2607 -0.0660 -0.0001
 5587W        W 9106   5.703   6.055  11.919  0.1664 -0.5047 -0.0641
 5588W        W 9107   7.490   4.354   8.776  0.1043 -0.0236 -0.0489
 5589W        W 9108   6.162   3.094   8.570  0.2049 -0.1040 -0.3618
 5590W        W 9109   2.665   0.964   3.441  0.2441 -0.1893  0.0876
 5591W        W 9110   5.775   3.371  12.529  0.0515  0.1174 -0.3112
 5592W        W 9111   7.234   1.038   8.621 -0.0335  0.0861 -0.0894
 5593W        W 9112   2.486   5.251   3.098 -0.0903  0.3994 -0.0064
 5594W        W 9113   4.889   4.879   1.173 -0.0569 -0.0038  0.0146
 5595W        W 9114   1.380   9.518   1.697 -0.0005 -0.0887 -0.2545
 5596W        W 9115   4.968   0.602   2.699  0.1158  0.1623  0.0574
 5597W        W 9116   0.579   6.160  11.638 -0.0247  0.0068 -0.4619
 5598W        W 9117   0.361   1.421  11.021  0.1652 -0.3457 -0.2047
 5599W        W 9118   4.272   9.075   9.019 -0.2030 -0.4765  0.2051
 5600W        W 9119   0.446   8.701   3.902  0.0051 -0.5200  0.0435
 5601W        W 9120   7.339   5.906  12.039  0.0082 -0.3039  0.3622
 5602W        W 9121   8.403   4.297   1.715  0.0543  0.2264 -0.0336
 5603W        W 9122   6.350   3.508  12.498  0.1333 -0.0952 -0.1091
 5604W        W 9123   3.873   1.516  12.552  0.0194  0.0026 -0.5014
 5605W        W 9124   7.465   0.522   0.186 -0.3066  0.2558  0.2539
 5606W        W 9125   1.854   0.433   0.009  0.1326  0.0852  0.1681
 5607W        W 9126   0.823   3.890   9.169  0.0334 -0.1764 -0.0645
 5608W        W 9127   0.055   9.480   9.629 -0.1002 -0.4231  0.0257
 5609W        W 9128   7.264   9.661  11.587  0.1707  0.0111  0.1316
 5610W        W 9129   1.128   7.470  12.526  0.0820  0.0595 -0.2535
 5611W        W 9130   1.898   8.515   3.310 -0.0423 -0.1912 -0.0176
 5612W        W 9131   6.778   7.881   4.187  0.2681 -0.3113  0.1229
 5613W        W 9132   6.240   7.437   9.938  0.1251 -0.0217  0.0828
 5614W        W 9133   4.208   8.540   0.437  0.3185 -0.1306  0.0521
 5615W        W 9134   7.096   9.298   9.244 -0.0369 -0.1083 -0.0692
 5616W        W 9135   5.615   1.101   8.613  0.2496 -0.3275 -0.0707
 5617W        W 9136   4.679   9.075  10.227 -0.2575 -0.1549 -0.0648
 5618W        W 9137   6.851   8.073   2.772  0.2541  0.3177 -0.0519
 5619W        W 9138   0.557   2.821   9.190 -0.0215  0.3886  0.1092
 5620W        W 9139   9.341   6.843  10.754 -0.0983  0.2715 -0.0941
 5621W        W 9140   5.326   6.379   9.963  0.1201 -0.0313 -0.1633
 5622W        W 9141   1.846   4.674  10.290 -0.0857  0.1901 -0.1267
 5623W        W 9142   5.169   6.864   4.103 -0.3089 -0.1045 -0.0887
 5624W        W 9143   9.039   6.713  12.397  0.0441 -0.1037 -0.2904
 5625W        W 9144   6.625   8.624  12.197  0.1271  0.0512 -0.2957
 5626W        W 9145   3.717   0.620   8.564  0.0088  0.2791 -0.0726
 5627W        W 9146   2.313   8.337   1.624  0.0450  0.1841  0.1045
 5628W        W 9147   9.252   6.694  11.180  0.3091 -0.1413 -0.0004
 5629W        W 9148   1.423   0.927  12.460  0.0733 -0.1470  0.0058
 5630W        W 9149   5.565   7.474   1.300  0.2499  0.3113 -0.1839
 5631W        W 9150   5.750   5.000   2.444 -0.0728 -0.1208 -0.2069
 5632W        W 9151   5.370   4.543  10.225 -0.0646 -0.2776 -0.0658
 5633W        W 9152   8.091   0.842   1.866  0.1769  0.0588  0.1639
 5634W        W 9153   5.931   1.248   2.663 -0.0679  0.2621 -0.0048
 5635W        W 9154   5.813   8.024   8.190 -0.1084  0.2709  0.2429
 5636W        W 9155   7.895   8.537  11.133 -0.1305  0.2070  0.3625
 5637W        W 9156   6.054   9.070   3.562  0.0499  0.1703 -0.0848
 5638W        W 9157   3.524   5.966  11.531  0.5308 -0.0196 -0.0049
 5639W        W 9158   7.151   9.234   2.220  0.1478  0.2763 -0.1195
 5640W        W 9159   6.965   7.288   0.038 -0.2875 -0.3920  0.0920
 5641W        W 9160   1.820   2.651   9.771  0.0409  0.1854 -0.0825
 5642W        W 9161   5.167   9.587   3.933 -0.1315 -0.1454 -0.1636
 5643W        W 9162   0.205   2.396   3.494 -0.0889  0.3465 -0.2571
 5644W        W 9163   7.977   3.538  10.730  0.0414 -0.0550  0.0259
 5645W        W 9164   5.482   1.120   4.156  0.1484 -0.1861 -0.2549
 5646W        W 9165   1.652   7.760   8.005  0.1536  0.6335 -0.1771
 5647W        W 9166   0.518   0.392   0.008  0.0278 -0.1947  0.0111
 5648W        W 9167   8.773   7.792   8.899 -0.3977 -0.2274  0.5107
 5649W        W 9168   3.034   7.855   2.592 -0.1011 -0.0689 -0.2803
 5650W        W 9169   1.543   1.293   9.799  0.2427 -0.0453  0.2261
 5651W        W 9170   4.252   2.393  10.576  0.1119  0.0214  0.0352
 5652W        W 9171   1.109   1.478   7.467  0.3813 -0.2004  0.0075
 5653W        W 9172   6.777   1.734   9.728 -0.1617  0.1805  0.0831
 5654W        W 9173   2.511   0.330   2.965  0.1341  0.1227  0.2622
 5655W        W 9174   8.902   3.864  11.487 -0.0165  0.1405  0.0820
 5656W        W 9175   1.194   5.521  11.964 -0.3338 -0.1392 -0.0449
 5657W        W 9176   8.218   2.917   1.139 -0.1859  0.0318  0.0116
 5658W        W 9177   5.978   2.993   9.302  0.0815  0.2677  0.1508
 5659W        W 9178   5.880   0.778   8.325 -0.0365  0.0356 -0.1144
 5660W        W 9179   0.996   5.107   8.816  0.0898  0.2373 -0.2051
 5661W        W 9180   8.755   8.830   8.743 -0.2172  0.1507 -0.0814
 5662W        W 9181   4.179   8.272   1.814 -0.0756 -0.1314 -0.1127
 5663W        W 9182   2.555   6.060   9.415 -0.0105  0.0000  0.1950
 5664W        W 9183   8.704   4.653   9.461 -0.1244  0.4612  0.1279
 5665W        W 9184   3.540   1.192   0.168  0.0967 -0.1176  0.2106
 5666W        W 9185   9.663   3.422   9.777 -0.1138 -0.1711  0.0170
 5667W        W 9186   1.996   8.962  10.127  0.1065  0.2728 -0.2454
 5668W        W 9187   7.586   5.810   8.967  0.3423  0.2617  0.2552
 5669W        W 9188   2.698   0.725   2.752 -0.5230 -0.1756 -0.0616
 5670W        W 9189   7.743   2.439  10.039 -0.1017 -0.1031 -0.1851
 5671W        W 9190   5.373   1.048   1.283 -0.3099 -0.0012 -0.1476
 5672W        W 9191   7.698   0.581   1.585 -0.3416 -0.0054 -0.0320
 5673W        W 9192   6.203   5.739   9.389  0.0188 -0.2573 -0.1354
 5674W        W 9193   8.117   7.882   4.102 -0.0100  0.1871  0.0701
 5675W        W 9194   3.585   5.208  12.314  0.0855 -0.2355  0.0457
 5676W        W 9195   2.474   1.854  10.006 -0.0896  0.1324 -0.1874
 5677W        W 9196   8.391   4.370  10.757  0.0976  0.1203 -0.0487
 5678W        W 9197   6.766   1.993   1.238 -0.0835 -0.0358  0.1194
 5679W        W 9198   6.873   2.159   0.289  0.1284 -0.1796  0.0074
 5680W        W 9199   0.518   1.908  11.334  0.0517  0.0647 -0.0734
 5681W        W 9200   1.843   3.911  10.485  0.1968 -0.1549 -0.2596
 5682W        W 9201   4.431   0.714   2.833 -0.0711  0.0356  0.1170
 5683W        W 9202   7.415   0.886  11.817  0.0632  0.0943  0.0410
 5684W        W 9203   5.467   9.155   0.803 -0.0070  0.0976 -0.0682
 5685W        W 9204   3.984   6.372   1.601 -0.1270 -0.0470  0.1024
 5686W        W 9205   5.486   2.174   9.916  0.1373 -0.1352 -0.0760
 5687W        W 9206   6.908   5.404   1.921 -0.2105 -0.0644 -0.1682
 5688W        W 9207   4.613   5.038   9.326 -0.1999  0.0920  0.0835
 5689W        W 9208   1.705   9.201  12.205  0.0909 -0.0686 -0.4173
 5690W        W 9209   8.412   6.397   3.527  0.0326 -0.0005  0.0170
 5691W        W 9210   2.757   7.356   1.172  0.3832  0.1935 -0.3174
 5692W        W 9211   7.916   7.138  11.812  0.1379  0.0153  0.1687
 5693W        W 9212   7.057   9.377  10.492  0.1926  0.3051 -0.1636
 5694W        W 9213   0.085   5.851   9.939  0.1120  0.2392 -0.1864
 5695W        W 9214   8.994   8.761   0.491 -0.0247 -0.0046 -0.0829
 5696W        W 9215   0.584   1.343   1.817  0.0209 -0.0362  0.1439
 5697W        W 9216   2.204   8.679   2.952  0.2245  0.2531 -0.0184
 5698W        W 9217   0.685   9.348   2.640  0.0506  0.0530  0.1559
 5699W        W 9218   5.426   0.712   0.859 -0.4170 -0.2772  0.2483
 5700W        W 9219   5.612   8.116   9.030 -0.0526 -0.0155  0.0583
 5701W        W 9220   8.389   7.380   0.475  0.1039  0.1270 -0.2089
 5702W        W 9221   3.612   9.084   1.113 -0.0372  0.1239 -0.0948
 5703W        W 9222   3.583   8.812   9.150  0.0133  0.1017  0.0146
 5704W        W 9223   1.296   7.925   8.702  0.0967  0.2233  0.1732
 5705W        W 9224   3.441   8.731   8.668 -0.2063 -0.0042 -0.0484
 5706W        W 9225   6.043   1.444  11.954  0.2011 -0.1582  0.1619
 5707W        W 9226   4.945   8.216  10.992  0.2917  0.0010  0.2509
 5708W        W 9227   6.525   0.608   3.193  0.0834  0.2406  0.2919
 5709W        W 9228   7.378   8.577  11.037 -0.2758 -0.4216  0.2646
 5710W        W 9229   1.169   5.598   8.103  0.0963  0.0211 -0.1757
 5711W        W 9230   4.485   5.156   0.322  0.1957  0.1719 -0.0312
 5712W        W 9231   8.932   0.930   2.282 -0.1712  0.1818 -0.0260
 5713W        W 9232   2.565   9.484  11.698 -0.0893 -0.3117 -0.1045
 5714W        W 9233   7.206   4.507   4.015 -0.4525  0.4464  0.1295
 5715W        W 9234   1.422   2.143   8.522 -0.2667 -0.2030 -0.1695
 5716W        W 9235   4.568   4.097   1.477 -0.1543  0.0866 -0.1181
 5717W        W 9236   1.448   2.707   8.610 -0.1397  0.0397 -0.1039
 5718W        W 9237   2.301   1.756   9.489  0.1091 -0.1113 -0.3542
 5719W        W 9238   7.835   5.966   9.394 -0.3844  0.1300 -0.0013
 5720W        W 9239   6.557   1.676  10.823 -0.1964 -0.1502 -0.1646
 5721W        W 9240   6.982   3.547   9.724  0.2549 -0.0964 -0.0843
 5722W        W 9241   4.959   5.415   2.752  0.0935 -0.0486  0.1053
 5723W        W 9242   2.805   0.171  11.453  0.3410  0.0424  0.3842
 5724W        W 9243   3.522   1.595   8.579  0.0117  0.0446 -0.2669
 5725W        W 9244   1.609   8.367   1.497  0.3822  0.0009 -0.0399
 5726W        W 9245   7.869   2.137   9.150  0.1600 -0.2727 -0.1351
 5727W        W 9246   4.019   9.077  12.055  0.0980 -0.3617  0.0185
 5728W        W 9247   9.330   3.158   2.842 -0.1221 -0.0742  0.1063
 5729W        W 9248   8.920   6.692   8.941 -0.1495 -0.1408 -0.0841
 5730W        W 9249   5.016   1.513   0.502 -0.0466 -0.0172  0.2374
 5731W        W 9250   9.468   6.128   8.648  0.2716 -0.3027  0.1592
 5732W        W 9251   9.492   6.814   0.155  0.0150  0.0728 -0.0559
 5733W        W 9252   9.146   9.020   3.938 -0.2410 -0.0802 -0.4432
 5734W        W 9253   1.462   7.386   8.436 -0.2478  0.0665 -0.0779
 5735W        W 9254   0.557   0.833   0.245  0.0231  0.0673 -0.1183
 5736W        W 9255   1.432   7.645  10.687  0.1431  0.2088  0.2778
 5737W        W 9256   4.622   1.271   0.198  0.0684 -0.0251 -0.0423
 5738W        W 9257   2.675   8.209   8.554  0.0875  0.1994 -0.0553
 5739W        W 9258   0.691   8.382  11.399 -0.1622  0.0069  0.0413
 5740W        W 9259   7.609   4.535   2.266 -0.0668  0.0109  0.0680
 5741W        W 9260   3.807   3.371   1.578  0.1710  0.2254 -0.1143
 5742W        W 9261   4.084   0.263   2.302 -0.0718 -0.0755  0.0980
 5743W        W 9262   5.245   5.018   0.799  0.2369 -0.2907 -0.2227
 5744W        W 9263   2.465   2.030  11.683  0.1688  0.1052 -0.0709
 5745W        W 9264   0.696   5.825  11.303 -0.1096 -0.1744 -0.2924
 5746W        W 9265   8.367   0.291   9.679 -0.0047  0.0051  0.4726
 5747W        W 9266   9.170   8.605  11.563 -0.1926 -0.1275 -0.1419
 5748W        W 9267   6.413   2.124   0.019  0.1089 -0.2192  0.0897
 5749W        W 9268   6.163   5.387  10.278 -0.1911 -0.1283  0.1578
 5750W        W 9269   7.852   1.362   1.942  0.0301  0.0030  0.0249
 5751W        W 9270   7.109   5.677   8.954  0.0163 -0.2060 -0.0483
 5752W        W 9271   8.530   4.992   2.758  0.2037 -0.1548 -0.1668
 5753W        W 9272   4.904   1.049   9.582 -0.0248  0.2231 -0.0438
 5754W        W 9273   7.078   8.461   2.130 -0.1683  0.3995  0.4730
 5755W        W 9274   5.584   5.685  11.038  0.3108 -0.0333  0.0353
 5756W        W 9275   2.021   0.548   8.426 -0.0780 -0.1944 -0.0617
 5757W        W 9276   0.078   3.925  11.658  0.0068  0.1670  0.0785
 5758W        W 9277   2.710   5.354  10.248  0.1380  0.0947 -0.0446
 5759W        W 9278   6.476   7.962   9.263  0.0345 -0.2354 -0.1824
 5760W        W 9279   2.172   6.125  10.638  0.0400  0.1741  0.1435
 5761W        W 9280   9.441   9.674   0.921  0.1519  0.1482 -0.2848
 5762W        W 9281   4.207   1.953   0.981  0.0015  0.1207 -0.2066
 5763W        W 9282   3.913   9.445   1.455  0.0977 -0.0607 -0.2086
 5764W        W 9283   3.450   7.316   3.354  0.2252 -0.3415  0.1562
 5765W        W 9284   6.400   1.640   1.321  0.2000  0.1423 -0.0371
 5766W        W 9285   9.017   7.226  10.500 -0.2463 -0.1679  0.1152
 5767W        W 9286   1.251   4.757   0.722  0.1953  0.1605  0.2573
 5768W        W 9287   1.952   6.472   9.393  0.0662  0.1644 -0.0809
 5769W        W 9288   4.996   6.811   0.873 -0.2427 -0.0006  0.2138
 5770W        W 9289   4.866   1.903  10.905 -0.0512  0.2032  0.0900
 5771W        W 9290   1.096   1.609   0.251 -0.2274  0.2790  0.0107
 5772W        W 9291   8.818   8.410   1.418 -0.0049  0.2128 -0.1611
 5773W        W 9292   9.025   6.154   2.805 -0.1373  0.2746 -0.0321
 5774W        W 9293   0.946   4.327  10.925 -0.5171  0.3003 -0.0009
 5775W        W 9294   0.616   0.958  11.015 -0.0132 -0.0236  0.1879
 5776W        W 9295   0.216   0.347   7.664  0.4800  0.3853 -0.0646
 5777W        W 9296   3.623   8.256   3.879 -0.2498 -0.3303 -0.1307
 5778W        W 9297   6.392   0.230  10.918  0.1685 -0.1294 -0.2159
 5779W        W 9298   7.283   2.926   8.773  0.1243  0.1508 -0.2142
 5780W        W 9299   2.429   2.841   1.315 -0.0285 -0.1143  0.0516
 5781W        W 9300   8.863   8.802   8.193  0.3779 -0.0126  0.3108
 5782W        W 9301   7.083   5.953   3.209  0.1878  0.3448 -0.0486
 5783W        W 9302   7.166   3.045   3.192 -0.1277  0.1574 -0.0674
 5784W        W 9303   3.967   2.977   3.661  0.0416 -0.0871 -0.1506
 5785W        W 9304   7.459   9.181   0.979 -0.3730  0.0272 -0.3597
 5786W        W 9305   5.144   6.254  12.441 -0.0709 -0.2581 -0.1620
 5787W        W 9306   7.802   4.686  10.199  0.0915 -0.0699  0.3038
 5788W        W 9307   1.175   4.028  12.448 -0.3928 -0.2728  0.1953
 5789W        W 9308   5.066   2.269   9.145  0.0269  0.1396  0.0693
 5790W        W 9309   7.549   4.907   0.798  0.2415  0.2256 -0.1523
 5791W        W 9310   2.494   5.743  11.634  0.0028 -0.0183  0.1122
 5792W        W 9311   6.118   2.652  11.941  0.0826 -0.0736  0.1219
 5793W        W 9312   9.301   5.137   9.036 -0.1363 -0.2109  0.2673
 5794W        W 9313   5.728   5.738   9.323  0.0841 -0.2386  0.0227
 5795W        W 9314   2.425   9.663  12.196 -0.2222 -0.0667  0.1638
 5796W        W 9315   1.310   1.174   1.226  0.1953 -0.1398  0.1950
 5797W        W 9316   6.556   9.139   3.225 -0.1050 -0.1491  0.2017
 5798W        W 9317   7.173   8.296  10.651 -0.2186 -0.0145 -0.3346
 5799W        W 9318   5.517   1.830   2.236  0.0735 -0.3033  0.0260
 5800W        W 9319   1.556   6.682  11.045  0.1689  0.0549 -0.3070
 5801W        W 9320   1.748   3.660   3.353 -0.2055  0.0474 -0.1612
 5802W        W 9321   8.921   4.798   8.865  0.0069  0.1439  0.2477
 5803W        W 9322   2.770   0.324   1.960  0.0829  0.0016 -0.2978
 5804W        W 9323   3.188   0.960   1.194 -0.1463 -0.0773 -0.0836
 5805W        W 9324   6.684   7.669   0.868  0.1013 -0.3529 -0.1512
 5806W        W 9325   7.687   7.425   9.266  0.3575 -0.2293  0.0415
 5807W        W 9326   4.989   9.513   2.010 -0.0663 -0.2212  0.3095
 5808W        W 9327   7.147   5.035  10.128 -0.1852  0.0020 -0.0849
 5809W        W 9328   9.509   8.480  11.198 -0.1679 -0.2845  0.4168
 5810W        W 9329   3.317   1.609   0.000 -0.3780  0.2996  0.2041
 5811W        W 9330   8.072   5.456  11.483  0.1817 -0.4020  0.1536
 5812W        W 9331   4.165   0.094  10.731 -0.1419 -0.1413 -0.1913
 5813W        W 9332   0.706   2.670   1.838  0.3009 -0.0805 -0.3539
 5814W        W 9333   6.759   2.690   0.158 -0.1040  0.0411  0.1176
 5815W        W 9334   7.111   6.630   2.057  0.1958  0.5496  0.1445
 5816W        W 9335   5.684   6.515   0.085 -0.2273 -0.0775  0.0211
 5817W        W 9336   2.293   8.108  10.536 -0.0135 -0.0859  0.1227
 5818W        W 9337   1.317   3.868   1.358 -0.0269  0.1383  0.2421
 5819W        W 9338   3.121   6.454   1.342 -0.1003  0.1796  0.1779
 5820W        W 9339   1.511   1.895   3.203  0.0071  0.1053  0.0492
 5821W        W 9340   2.767   4.137  10.680  0.2703 -0.1533 -0.0718
 5822W        W 9341   4.907   1.751   9.065  0.0197 -0.1877 -0.2064
 5823W        W 9342   1.696   9.431   3.191 -0.1840 -0.1917 -0.2314
 5824W        W 9343   3.202   8.414  10.109 -0.0490  0.2584 -0.3110
 5825W        W 9344   4.498   8.893  11.995  0.1050 -0.1297  0.1356
 5826W        W 9345   5.346   5.192  11.238  0.0149 -0.1345 -0.2820
 5827W        W 9346   4.504   5.567   0.022  0.1519  0.1717  0.1271
 5828W        W 9347   0.397   6.844  12.051  0.0830  0.0775 -0.1931
 5829W        W 9348   7.073   6.733  10.849  0.2699 -0.0150  0.3253
 5830W        W 9349   4.970   2.050   0.196  0.3495 -0.0328  0.1285
 5831W        W 9350   8.735   0.705  12.434  0.1950  0.0801  0.0715
 5832W        W 9351   8.143   7.217   9.129  0.2173 -0.0684  0.0599
 5833W        W 9352   0.494   2.911   9.977  0.1451 -0.0684 -0.0349
 5834W        W 9353   8.629   9.074  10.983  0.0148 -0.1884 -0.0727
 5835W        W 9354   1.791   8.960   3.463  0.1610 -0.0853 -0.1187
 5836W        W 9355   8.312   9.159   2.279  0.2863 -0.0201 -0.1102
 5837W        W 9356   4.591   2.334   9.911 -0.2112 -0.0835 -0.1815
 5838W        W 9357   1.358   3.909  10.340  0.3778 -0.0772 -0.1471
 5839W        W 9358   8.950   8.515   0.933  0.0379 -0.0050 -0.4081
 5840W        W 9359   3.742   9.635   0.974 -0.0105 -0.2220 -0.0879
 5841W        W 9360   2.173   3.899   1.296 -0.5731 -0.0932 -0.1636
 5842W        W 9361   4.745   7.961  10.528 -0.0061 -0.3595  0.1378
 5843W        W 9362   2.213   8.444  11.249  0.2058  0.1646 -0.0725
 5844W        W 9363   4.815   8.525   8.311  0.0320  0.0800  0.1817
 5845W        W 9364   5.438   9.626  10.224 -0.2143  0.0135  0.2441
 5846W        W 9365   7.812   6.140   8.671 -0.5095 -0.0206 -0.0834
 5847W        W 9366   2.683   7.091   0.324 -0.0991  0.2924 -0.2143
 5848W        W 9367   5.338   3.783  10.751  0.1458 -0.4033 -0.2342
 5849W        W 9368   9.384   7.662   9.033 -0.0085  0.0424 -0.1560
 5850W        W 9369   8.388   4.153   3.747  0.2293  0.0343 -0.0185
 5851W        W 9370   7.448   2.151   3.529  0.0624  0.2922  0.2594
 5852W        W 9371   2.097   7.355   2.672  0.0448 -0.0186  0.0102
 5853W        W 9372   9.186   5.912  12.363 -0.1055  0.1013 -0.0655
 5854W        W 9373   4.007   6.819  12.203  0.4859 -0.0071  0.0134
 5855W        W 9374   5.688   8.964   3.126  0.3887 -0.2303  0.1457
 5856W        W 9375   8.432   5.659  10.073 -0.1456 -0.0658  0.1170
 5857W        W 9376   5.609   6.136   1.528 -0.0519 -0.0403 -0.0032
 5858W        W 9377   2.945   6.676  11.258 -0.1109 -0.0713 -0.3099
 5859W        W 9378   7.907   1.210   8.414  0.0456 -0.1933 -0.0439
 5860W        W 9379   1.922   8.600   9.772 -0.0126  0.0914  0.1092
 5861W        W 9380   3.263   2.894   2.359  0.0555  0.1576  0.3126
 5862W        W 9381   3.170   4.040   0.825 -0.0844 -0.1028  0.0413
 5863W        W 9382   5.253   7.432  12.205 -0.1136 -0.1272  0.0705
 5864W        W 9383   2.553   8.649   8.897  0.1512 -0.0477  0.3473
 5865W        W 9384   9.449   3.202   3.383  0.4163  0.0479  0.0452
 5866W        W 9385   0.396   7.911   3.866 -0.0744  0.2433  0.1137
 5867W        W 9386   9.414   6.047   3.120  0.0565  0.2986  0.1644
 5868W        W 9387   0.526   3.152   1.035 -0.1714 -0.0149  0.1881
 5869W        W 9388   0.487   9.193   2.169  0.0643  0.0373  0.4853
 5870W        W 9389   7.738   1.123  12.210  0.0921  0.0979  0.2381
 5871W        W 9390   9.077   2.506   1.246 -0.3102 -0.1689  0.2577
 5872W        W 9391   8.207   7.820   0.998 -0.2509  0.2176  0.1177
 5873W        W 9392   0.132   4.948   2.195  0.1420 -0.1937  0.2305
 5874W        W 9393   7.227   3.034  10.894 -0.0749  0.0406  0.3425
 5875W        W 9394   8.528   4.897  12.441  0.0684  0.1869 -0.0247
 5876W        W 9395   1.430   8.471   2.042 -0.1729 -0.1432 -0.0109
 5877W        W 9396   1.615   7.890  11.064  0.1666 -0.1073 -0.2755
 5878W        W 9397   6.667   6.983  12.320 -0.0125  0.0385  0.0288
 5879W        W 9398   1.035   1.196  12.256 -0.2700  0.1960  0.1071
 5880W        W 9399   6.234   9.119   1.874 -0.5006 -0.3764  0.3419
 5881W        W 9400   3.807   1.843   1.958  0.0130 -0.1108  0.0795
 5882W        W 9401   9.463   5.224   4.179 -0.0461 -0.1318  0.1985
 5883W        W 9402   6.190   7.947   9.759  0.0260  0.2102  0.1284
 5884W        W 9403   7.825   5.621  10.677  0.3445  0.2635 -0.3359
 5885W        W 9404   9.306   1.032  12.157  0.0574  0.0852 -0.1196
 5886W        W 9405   2.311   7.885   8.573  0.3177  0.0280  0.0297
 5887W        W 9406   6.322   0.911   8.155 -0.1229 -0.3864 -0.0476
 5888W        W 9407   7.295   1.239   2.307 -0.1943 -0.0472  0.1211
 5889W        W 9408   8.199   9.010  11.178 -0.1082  0.1165 -0.1408
 5890W        W 9409   4.737   1.563   3.425 -0.1308  0.2942 -0.0669
 5891W        W 9410   1.483   0.582   0.337 -0.1545  0.0772 -0.0205
 5892W        W 9411   8.979   5.609   2.361  0.0683  0.1212  0.3108
 5893W        W 9412   5.548   1.761  10.312 -0.1533 -0.0162  0.2250
 5894W        W 9413   5.602   4.325   3.488  0.0612 -0.0645  0.1152
 5895W        W 9414   2.555   0.762  11.962  0.0318 -0.2025 -0.1636
 5896W        W 9415   5.254   4.499   0.481  0.5126  0.2638  0.0469
 5897W        W 9416   2.394   2.449   0.285  0.0511  0.0541 -0.3058
 5898W        W 9417   9.395   0.929  11.560 -0.0332  0.2631  0.1052
 5899W        W 9418   7.468   6.759  11.818 -0.1140 -0.0095 -0.0590
 5900W        W 9419   8.704   8.500  10.226 -0.1026 -0.2531 -0.0651
 5901W        W 9420   6.351   5.281  12.201 -0.1672 -0.1527  0.0315
 5902W        W 9421   8.904   0.260  12.567  0.3418 -0.1087 -0.0907
 5903W        W 9422   9.498   4.469   0.758  0.2962  0.1932 -0.0830
 5904W        W 9423   8.979   5.033   1.781 -0.0684  0.4965  0.1944
 5905W        W 9424   6.581   6.302   9.430 -0.2527 -0.0221 -0.1234
 5906W        W 9425   1.260   3.938  10.853  0.1199 -0.2134 -0.0922
 5907W        W 9426   9.128   2.495   2.157  0.0772 -0.1180  0.0218
 5908W        W 9427   8.933   9.441   7.292 -0.0622 -0.2554  0.0665
 5909W        W 9428   3.327   9.316  11.133 -0.0504 -0.1882  0.0907
 5910W        W 9429   7.529   2.856   9.949  0.0559 -0.0298 -0.2605
 5911W        W 9430   1.431   0.869   4.141 -0.3162 -0.2436  0.0512
 5912W        W 9431   7.598   3.834   1.749  0.1254  0.1140  0.2934
 5913W        W 9432   3.120   4.509   9.925 -0.1196  0.0241 -0.3382
 5914W        W 9433   6.070   5.856   1.625 -0.1066  0.1065  0.1455
 5915W        W 9434   3.102   3.995   1.336  0.0502  0.1213 -0.0624
 5916W        W 9435   5.963   0.387   0.184  0.1154 -0.0053 -0.0449
 5917W        W 9436   6.257   3.000   9.699  0.0045 -0.1061 -0.0846
 5918W        W 9437   4.523   9.347   0.318  0.0222 -0.2264  0.0982
 5919W        W 9438   7.170   5.821  11.348  0.0098  0.2781  0.1123
 5920W        W 9439   0.761   2.638   1.224 -0.0183  0.0694 -0.0429
 5921W        W 9440   2.470   4.497   1.756  0.1100 -0.0035  0.0307
 5922W        W 9441   6.664   4.944  12.492  0.1128  0.2839  0.0736
 5923W        W 9442   7.235   5.102   2.949 -0.0396  0.3769 -0.1804
 5924W        W 9443   9.531   6.406   2.808 -0.3189  0.1293  0.0434
 5925W        W 9444   3.710   5.784   1.145  0.1009 -0.1483 -0.1924
 5926W        W 9445   8.149   5.802   8.729  0.1354  0.2169  0.1997
 5927W        W 9446   3.183   9.071   0.738  0.1638 -0.0634 -0.3576
 5928W        W 9447   9.407   7.561  10.390 -0.1601  0.3886 -0.3631
 5929W        W 9448   1.719   4.177  12.131  0.0743  0.1556 -0.0589
 5930W        W 9449   8.449   8.586  10.906 -0.2757  0.0602 -0.0387
 5931W        W 9450   5.129   3.955   2.366 -0.0907 -0.0253 -0.2307
 5932W        W 9451   3.305   6.811   9.920 -0.0252  0.0250  0.2337
 5933W        W 9452   3.701   5.867   2.860 -0.1160 -0.2266  0.0393
 5934W        W 9453   6.880   3.867   0.526 -0.1564 -0.0301  0.1002
 5935W        W 9454   2.560   7.383   1.675 -0.0434 -0.0228  0.1164
 5936W        W 9455   1.049   8.985   8.881 -0.0785 -0.3251 -0.0527
 5937W        W 9456   8.920   7.965   3.257  0.2360 -0.0032  0.1355
 5938W        W 9457   4.976   0.141  11.459 -0.1031  0.1027 -0.0967
 5939W        W 9458   7.667   4.726   0.303  0.1966 -0.0024 -0.1576
 5940W        W 9459   0.629   7.056  10.619  0.1005 -0.0748  0.0332
 5941W        W 9460   7.232   1.981   0.571  0.0799  0.3070  0.2627
 5942W        W 9461   0.174   1.033  11.849  0.0869  0.0750  0.1492
 5943W        W 9462   5.123   5.690   2.335 -0.1174  0.0274 -0.0046
 5944W        W 9463   4.268   7.003  10.065  0.3141 -0.0788  0.0031
 5945W        W 9464   8.321   0.422  10.156  0.1449  0.1004  0.1445
 5946W        W 9465   4.585   2.473   2.145 -0.0728  0.0208 -0.0347
 5947W        W 9466   4.465   9.575  10.212  0.0479 -0.1339 -0.0607
 5948W        W 9467   4.180   3.943  12.248 -0.1775 -0.2119 -0.0350
 5949W        W 9468   5.300   7.720   3.104  0.1194 -0.0504 -0.0665
 5950W        W 9469   8.477   9.665   9.166 -0.4008 -0.1128  0.0806
 5951W        W 9470   7.961   5.570   9.748 -0.0121 -0.1772  0.2222
 5952W        W 9471   8.583   5.918   2.711 -0.0117 -0.2436  0.0235
 5953W        W 9472   6.468   0.002   3.122 -0.1249 -0.4966  0.1125
 5954W        W 9473   6.392   7.743   0.480  0.1593 -0.0695  0.0328
 5955W        W 9474   5.854   5.439  12.465 -0.2121 -0.0677  0.4136
 5956W        W 9475   4.155   0.638   1.228  0.0343  0.0122 -0.0362
 5957W        W 9476   0.936   8.219   8.355  0.1052  0.2222  0.0449
 5958W        W 9477   1.366   9.091  11.386  0.1030  0.0217  0.2853
 5959W        W 9478   7.548   6.183   3.988  0.4032 -0.1402  0.1090
 5960W        W 9479   2.634   1.862   1.356  0.2884  0.0893 -0.1662
 5961W        W 9480   5.005   9.545   8.405  0.0986  0.4379  0.2779
 5962W        W 9481   6.004   4.459   2.180 -0.0559 -0.0322 -0.1837
 5963W        W 9482   7.453   9.531   1.450 -0.0006  0.0145  0.0517
 5964W        W 9483   7.756   6.634  10.109 -0.2702  0.0885 -0.3285
 5965W        W 9484   8.211   8.018  11.379 -0.3654  0.1834  0.1259
 5966W        W 9485   4.162   0.031   1.850  0.0960 -0.2676  0.4853
 5967W        W 9486   7.566   3.193   7.927  0.0845 -0.0587 -0.1280
 5968W        W 9487   7.625   6.175   0.599  0.0236 -0.0625  0.0947
 5969W        W 9488   2.758   7.688   2.159 -0.0997 -0.0493  0.5195
 5970W        W 9489   5.366   0.931  12.371  0.3260 -0.3259 -0.0224
 5971W        W 9490   3.289   6.041   1.010 -0.2858  0.0190  0.0035
 5972W        W 9491   3.956   8.578   8.506  0.2866  0.0657  0.0140
 5973W        W 9492   8.839   8.014   1.724 -0.2119 -0.1630 -0.0070
 5974W        W 9493   0.179   8.472  12.237 -0.4519  0.2896 -0.1480
 5975W        W 9494   1.016   7.166   3.615 -0.0773  0.3018 -0.0851
 5976W        W 9495   3.208   8.944   9.991 -0.0666  0.0152  0.2145
 5977W        W 9496   3.201   9.422   3.172  0.3344  0.2295  0.0651
 5978W        W 9497   7.243   8.349   3.096  0.0825  0.0027  0.1299
 5979W        W 9498   3.157   8.162  11.020 -0.2354  0.1019 -0.2192
 5980W        W 9499   3.409   6.718  11.862 -0.1940  0.2165 -0.1077
 5981W        W 9500   1.436   7.162  10.912 -0.0081  0.2003 -0.0241
 5982W        W 9501   8.271   2.966   2.130  0.2402  0.2122  0.1588
 5983W        W 9502   1.027   9.114   9.546 -0.3823 -0.5230  0.3925
 5984W        W 9503   8.843   0.177   9.551  0.0755  0.0003  0.1360
 5985W        W 9504   3.051   0.580  11.219 -0.0255 -0.0929  0.2120
 5986W        W 9505   6.315   5.219   3.305 -0.2363 -0.0212  0.2529
 5987W        W 9506   4.073   4.810   2.187  0.1594 -0.2173 -0.1095
 5988W        W 9507   6.008   3.290  11.266  0.0975 -0.0880 -0.0987
 5989W        W 9508   6.982   3.048  11.698  0.2085  0.1037  0.1757
 5990W        W 9509   6.610   3.854   8.735 -0.7609 -0.2422  0.2765
 5991W        W 9510   2.221   9.262  11.325 -0.0720 -0.0789 -0.0883
 5992W        W 9511   5.297   6.908   8.957 -0.5451  0.3279 -0.0255
 5993W        W 9512   5.838   6.117  10.861  0.2116  0.2924 -0.3652
 5994W        W 9513   8.224   1.428  12.186 -0.3029  0.1998  0.0019
 5995W        W 9514   3.780   1.371   1.783  0.0858  0.2638  0.0126
 5996W        W 9515   8.236   8.192   1.344  0.1723 -0.0907  0.0903
 5997W        W 9516   5.774   5.791   0.704  0.5217  0.3914 -0.3729
 5998W        W 9517   3.051   7.979   9.867 -0.1339  0.1521 -0.0423
 5999W        W 9518   7.333   7.513   2.484 -0.1474 -0.0191  0.1309
 6000W        W 9519   3.921   5.825   9.677 -0.1018  0.0577  0.1423
 6001W        W 9520   3.108   5.237  10.957  0.1936  0.0214 -0.1125
 6002W        W 9521   9.567   3.586  12.460 -0.0565 -0.0703 -0.0459
 6003W        W 9522   1.206   1.215  10.967  0.0015  0.2187  0.1137
 6004W        W 9523   2.513   5.680   9.873 -0.0052 -0.1149  0.1161
 6005W        W 9524   0.401   3.189   9.594 -0.0845 -0.4404 -0.0112
 6006W        W 9525   5.976   7.986  11.206 -0.2236  0.1958  0.0244
 6007W        W 9526   0.543   0.426   8.944  0.1302  0.1710 -0.0660
 6008W        W 9527   2.399   5.216   4.142  0.0086  0.1257 -0.0841
 6009W        W 9528   3.882   7.006   3.498  0.3178 -0.0155  0.0377
 6010W        W 9529   1.906   8.756  12.051  0.1460 -0.2060  0.0569
 6011W        W 9530   0.832   0.837   3.474  0.2047 -0.2779 -0.0116
 6012W        W 9531   2.501   3.087  10.825  0.0882  0.1344  0.0869
 6013W        W 9532   2.314   5.948   2.225  0.1761 -0.2828 -0.2290
 6014W        W 9533   6.871   0.435   3.584 -0.3868  0.1195  0.2525
 6015W        W 9534   6.538   6.910   1.204  0.0160 -0.1080  0.2584
 6016W        W 9535   4.313   3.088   9.892 -0.1147  0.0059  0.0716
 6017W        W 9536   5.710   1.706   0.645 -0.0471  0.1500  0.1483
 6018W        W 9537   8.072   6.503   9.741  0.0952  0.1596  0.1062
 6019W        W 9538   8.524   4.016  11.734 -0.0434 -0.1824  0.1524
 6020W        W 9539   2.678   5.836   9.010  0.3159  0.2164  0.1854
 6021W        W 9540   7.828   4.397   0.936 -0.0460 -0.0154  0.0333
 6022W        W 9541   8.094   6.031   9.836  0.1724  0.1138 -0.0729
 6023W        W 9542   6.700   7.571  10.689 -0.1438 -0.0179 -0.0848
 6024W        W 9543   1.427   8.158  10.663  0.1032 -0.1529 -0.4564
 6025W        W 9544   2.364   3.378   9.811  0.0053 -0.1603 -0.1138
 6026W        W 9545   0.635   2.663  11.842  0.0180  0.0985  0.0803
 6027W        W 9546   5.931   0.416   8.669 -0.1605 -0.2849  0.0043
 6028W        W 9547   4.452   3.681   9.664 -0.0293 -0.0793 -0.2851
 6029W        W 9548   8.902   1.818   2.684 -0.2124  0.0281 -0.0498
 6030W        W 9549   0.623   0.887   2.265 -0.0215  0.1722 -0.2174
 6031W        W 9550   8.856   7.495   1.060  0.0861  0.0680 -0.0142
 6032W        W 9551   2.105   5.900   3.647  0.0688 -0.1642  0.0447
 6033W        W 9552   7.198   7.550   4.243 -0.2040 -0.0942  0.0016
 6034W        W 9553   3.389   0.054  12.070  0.0648 -0.2067  0.2311
 6035W        W 9554   4.890   8.281   1.270 -0.1404 -0.0048 -0.0144
 6036W        W 9555   5.143   2.540   0.064  0.3217 -0.1837 -0.2356
 6037W        W 9556   8.084   7.203   8.643  0.3207 -0.0829  0.0412
 6038W        W 9557   6.429   4.262   3.680  0.0033 -0.2004 -0.0100
 6039W        W 9558   3.568   2.615  11.714 -0.3127 -0.1213 -0.3257
 6040W        W 9559   5.629   1.458  12.324  0.2860  0.2052 -0.1091
 6041W        W 9560   0.282   7.132   0.431 -0.1488  0.0526  0.1325
 6042W        W 9561   7.921   1.712   8.579 -0.0727  0.0032  0.2041
 6043W        W 9562   2.717   2.394  11.345 -0.2206  0.0806  0.1024
 6044W        W 9563   7.608   5.842   4.591  0.2710  0.0639 -0.1143
 6045W        W 9564   5.018   1.896   3.825  0.2188  0.0212  0.0328
 6046W        W 9565   3.368   9.230  12.268 -0.3213  0.2189 -0.1257
 6047W        W 9566   6.824   5.538   1.148  0.1763 -0.3294  0.2026
 6048W        W 9567   0.979   7.069   2.107  0.0773 -0.0374 -0.2080
 6049W        W 9568   0.919   1.973   3.877  0.0397  0.3990  0.1463
 6050W        W 9569   6.483   7.836   8.789  0.5072  0.2684  0.2129
 6051W        W 9570   4.824   2.892  11.020 -0.2212 -0.3101  0.2473
 6052W        W 9571   5.772   0.337   9.493 -0.0203  0.4992 -0.4136
 6053W        W 9572   1.197   4.895   1.299  0.2802 -0.0406 -0.1382
 6054W        W 9573   4.828   3.096   8.803  0.1330  0.0356  0.2536
 6055W        W 9574   2.934   5.713   9.550 -0.1220  0.0738 -0.0035
 6056W        W 9575   8.337   7.611   4.531  0.0725  0.0510 -0.0065
 6057W        W 9576   4.065   9.049   3.045 -0.2093 -0.1814  0.0703
 6058W        W 9577   0.104   4.871  10.852 -0.0612  0.0422  0.0360
 6059W        W 9578   0.556   2.256   1.551 -0.2890 -0.1141 -0.1008
 6060W        W 9579   1.812   9.087   2.007 -0.0987 -0.1520  0.1875
 6061W        W 9580   8.974   8.937   1.395  0.2772  0.1890  0.3014
 6062W        W 9581   3.559   1.941   2.959  0.1218 -0.0778  0.1038
 6063W        W 9582   9.182   5.141   0.492  0.2107 -0.3473  0.2207
 6064W        W 9583   4.844   7.517   4.257 -0.3062  0.0008 -0.1417
 6065W        W 9584   5.954   7.882   2.557 -0.1347 -0.2301  0.2248
 6066W        W 9585   5.993   2.138  11.270  0.1429 -0.0140  0.2134
 6067W        W 9586   0.601   7.550   2.748  0.1557  0.0228 -0.3151
 6068W        W 9587   0.715   3.855  12.318  0.0581  0.1163 -0.1178
 6069W        W 9588   0.623   2.559  12.386  0.2249  0.2167  0.2012
 6070W        W 9589   4.913   0.593  12.348  0.1408 -0.0587  0.1849
 6071W        W 9590   6.851   8.602  10.904  0.0942  0.2629 -0.2266
 6072W        W 9591   0.107   7.275   8.993 -0.1060  0.0960  0.0220
 6073W        W 9592   1.040   0.587   0.025 -0.0036 -0.0962 -0.0822
 6074W        W 9593   1.534   3.527  10.631  0.1312  0.0652  0.2226
 6075W        W 9594   1.570   1.211   0.346  0.0080 -0.0717 -0.5008
 6076W        W 9595   6.687   4.908  10.846 -0.1856 -0.0634 -0.2315
 6077W        W 9596   6.095   3.499   9.625  0.0969  0.0216 -0.2400
 6078W        W 9597   1.282   2.074   0.147  0.1518 -0.0794  0.2166
 6079W        W 9598   6.697   9.425   2.217 -0.2506  0.0937 -0.2207
 6080W        W 9599   1.064   7.321  10.519  0.0753 -0.2640  0.1149
 6081W        W 9600   8.735   7.501   2.744 -0.1871 -0.1446  0.0080
 6082W        W 9601   2.747   7.048   2.049  0.2852  0.3057 -0.0419
 6083W        W 9602   7.685   2.169   2.119 -0.1930 -0.1478  0.4307
 6084W        W 9603   2.850   1.151   0.272  0.0195 -0.1946 -0.1875
 6085W        W 9604   6.146   8.377  12.101  0.0604  0.4686 -0.1442
 6086W        W 9605   1.802   6.225   8.890 -0.2416  0.0351 -0.1387
 6087W        W 9606   9.665   0.644   2.894  0.1445 -0.0128  0.0799
 6088W        W 9607   2.797   1.983   9.592 -0.0801 -0.1196  0.0858
 6089W        W 9608   3.579   0.482   2.163 -0.1847  0.0434 -0.2185
 6090W        W 9609   5.005   9.030   3.162 -0.1371  0.0295  0.0648
 6091W        W 9610   1.806   4.169   3.345  0.0183  0.2011 -0.5958
 6092W        W 9611   8.969   0.113   8.445  0.0587 -0.0648 -0.1079
 6093W        W 9612   6.239   2.581   9.417 -0.0832 -0.4014 -0.1156
 6094W        W 9613   8.764   4.072  10.594  0.2846  0.1464 -0.3245
 6095W        W 9614   3.173   2.153  10.999 -0.0038  0.0128 -0.0973
 6096W        W 9615   3.468   1.338   1.353 -0.0741  0.0911  0.0785
 6097W        W 9616   8.463   6.570   0.435  0.1777 -0.0610  0.1631
 6098W        W 9617   5.934   9.168  11.091 -0.4120  0.4006  0.3550
 6099W        W 9618   7.547   1.996  10.632  0.2448 -0.0633 -0.0218
 6100W        W 9619   8.470   7.226   9.810 -0.1899  0.1672  0.1493
 6101W        W 9620   3.571   6.572   8.308 -0.0173 -0.1701 -0.2111
 6102W        W 9621   4.889   8.516   9.403 -0.0909  0.0016  0.1898
 6103W        W 9622   9.224   9.259   0.523 -0.1719  0.2765  0.0762
 6104W        W 9623   1.817   3.705   1.576 -0.0125  0.2377  0.0952
 6105W        W 9624   5.129   3.397   1.212  0.2898 -0.1222 -0.0963
 6106W        W 9625   2.135   0.020   3.972 -0.0495  0.3856 -0.0906
 6107W        W 9626   2.490   8.333   1.108 -0.1124  0.0309  0.0969
 6108W        W 9627   3.536   8.138  12.365 -0.1532 -0.0107  0.1226
 6109W        W 9628   4.401   0.203  11.579 -0.0713 -0.0169  0.1344
 6110W        W 9629   8.459   9.555   0.137 -0.0714 -0.0001 -0.4573
 6111W        W 9630   4.964   2.433   9.614 -0.3742 -0.0991 -0.2956
 6112W        W 9631   8.593   9.296   3.103  0.0312 -0.1780  0.0809
 6113W        W 9632   1.841   1.061   2.666 -0.0029 -0.3475  0.1964
 6114W        W 9633   3.082   8.515   8.197  0.2109 -0.0226 -0.1488
 6115W        W 9634   6.886   5.954   3.698  0.1689  0.0622  0.0500
 6116W        W 9635   9.579   8.538   3.393  0.1883  0.1865 -0.1472
 6117W        W 9636   3.529   2.551  11.150 -0.0566  0.1184  0.0903
 6118W        W 9637   4.792   0.832   8.536  0.1683 -0.3189 -0.1034
 6119W        W 9638   7.297   3.865   2.751 -0.0523 -0.0325 -0.2386
 6120W        W 9639   3.828   6.074   3.424  0.2101 -0.0071  0.0097
 6121W        W 9640   1.059   5.106   8.335 -0.2629  0.1203  0.1136
 6122W        W 9641   0.631   4.599   9.441  0.5017  0.0387  0.0249
 6123W        W 9642   2.065   0.064   0.846 -0.0654 -0.0841  0.2914
 6124W        W 9643   5.588   1.446   1.875 -0.2348 -0.0725  0.0356
 6125W        W 9644   6.078   0.038   9.060 -0.2542 -0.2149  0.0154
 6126W        W 9645   8.678   6.732   9.719 -0.3164  0.0313  0.0536
 6127W        W 9646   6.407   6.927   9.056 -0.2212 -0.4004  0.2832
 6128W        W 9647   4.391   7.087   2.778  0.1264 -0.0106  0.0760
 6129W        W 9648   9.552   3.987  10.668 -0.0168  0.0473  0.1307
 6130W        W 9649   2.951   0.071   8.731  0.4114  0.1781 -0.0265
 6131W        W 9650   0.798   7.911   2.446 -0.1945 -0.2267  0.3359
 6132W        W 9651   1.419   3.018   9.102 -0.0565 -0.2516  0.2423
 6133W        W 9652   7.660   5.465   3.705  0.0874 -0.3711 -0.0517
 6134W        W 9653   2.099   8.074   9.598  0.3533  0.1371  0.0628
 6135W        W 9654   6.366   8.309   2.783 -0.4001  0.0445 -0.0340
 6136W        W 9655   7.107   8.818  10.463 -0.1780  0.1876 -0.1604
 6137W        W 9656   0.691   2.286   9.304 -0.5273  0.0141 -0.0402
 6138W        W 9657   4.426   6.173   3.895  0.0516 -0.2009 -0.0668
 6139W        W 9658   1.763   1.446   3.555  0.2191  0.1840  0.1080
 6140W        W 9659   7.453   7.218  10.097  0.3505 -0.1423  0.1172
 6141W        W 9660   6.661   9.590   8.358 -0.0327 -0.3310  0.2058
 6142W        W 9661   0.107   4.572   2.540 -0.0765 -0.0241  0.5435
 6143W        W 9662   5.771   7.183   9.833  0.2087 -0.1941 -0.4109
 6144W        W 9663   7.533   8.859   0.103 -0.4862  0.0962 -0.0676
 6145W        W 9664   4.514   3.724  12.544  0.3571  0.0624  0.1724
 6146W        W 9665   3.904   3.462  10.426  0.1666 -0.1744  0.0242
 6147W        W 9666   3.059   1.812   2.182  0.0159 -0.2708  0.1546
 6148W        W 9667   6.998   7.621   1.440 -0.2537 -0.4292 -0.4180
 6149W        W 9668   9.250   8.121   9.265  0.2833 -0.2615  0.5459
 6150W        W 9669   7.537   9.225  11.670 -0.2145  0.0252 -0.1705
 6151W        W 9670   6.763   4.153   8.374 -0.0514 -0.0748 -0.1471
 6152W        W 9671   1.122   2.559   7.896 -0.3143  0.2170 -0.1408
 6153W        W 9672   3.622   7.123  12.446  0.0531  0.1177 -0.1386
 6154W        W 9673   2.808   1.244   2.603 -0.0190 -0.2251 -0.1437
 6155W        W 9674   3.198   7.595  11.492  0.4161  0.1846  0.1931
 6156W        W 9675   2.555   0.081   7.661 -0.1283 -0.1641 -0.2205
 6157W        W 9676   8.120   4.758   2.550  0.1172  0.3368  0.2258
 6158W        W 9677   0.121   9.273   8.175 -0.0366  0.0161  0.0670
 6159W        W 9678   1.628   6.244   2.953  0.2988  0.0520  0.0373
 6160W        W 9679   4.425   0.730   9.607  0.0133 -0.0935  0.0662
 6161W        W 9680   4.646   6.490   2.025 -0.1401 -0.0256  0.2821
 6162W        W 9681   5.860   2.107   9.627  0.3949 -0.2581  0.3623
 6163W        W 9682   3.104   2.555  10.128 -0.1853  0.3443  0.3082
 6164W        W 9683   5.712   4.812  11.034 -0.3068  0.0765 -0.0729
 6165W        W 9684   6.701   8.157   3.693  0.0667 -0.3659 -0.0870
 6166W        W 9685   0.506   8.338   3.537  0.3502  0.2775 -0.0556
 6167W        W 9686   2.633   3.909   3.004  0.0331  0.0839 -0.0862
 6168W        W 9687   5.461   7.680   9.546  0.0496  0.2226  0.0288
 6169W        W 9688   0.887   0.969   0.984 -0.0307  0.1648 -0.0185
 6170W        W 9689   4.778   7.524   2.899  0.3568 -0.3564  0.1779
 6171W        W 9690   8.575   8.201   0.910  0.1992 -0.1267 -0.3172
 6172W        W 9691   8.500   5.057  10.205  0.0627  0.0815  0.0889
 6173W        W 9692   2.465   0.064   8.582  0.0129 -0.0626 -0.3822
 6174W        W 9693   2.814   6.933   3.856  0.2505  0.0232  0.1728
 6175W        W 9694   5.070   1.612   1.540 -0.0791  0.1495 -0.1451
 6176W        W 9695   7.603   3.348   3.008  0.2571 -0.1116  0.1817
 6177W        W 9696   4.203   8.061   9.101  0.2225 -0.3413 -0.0099
 6178W        W 9697   8.547   3.191   8.849  0.1260  0.0026 -0.0047
 6179W        W 9698   1.741   8.033   8.888 -0.3566  0.3549 -0.1410
 6180W        W 9699   1.585   7.249   0.230  0.1503  0.1227 -0.2117
 6181W        W 9700   3.186   7.230   9.646 -0.1925 -0.2795  0.0434
 6182W        W 9701   0.222   1.435   8.329 -0.1951  0.0306  0.1154
 6183W        W 9702   8.938   6.749   8.160 -0.0976  0.2286 -0.2700
 6184W        W 9703   7.548   9.361  12.547 -0.0201  0.1624 -0.0777
 6185W        W 9704   0.639   8.523  11.860  0.3925 -0.0274 -0.0953
 6186W        W 9705   2.330   2.017   2.339 -0.2431  0.3952  0.0069
 6187W        W 9706   8.139   0.656  11.391 -0.0119  0.1433 -0.0676
 6188W        W 9707   9.430   5.562   0.500  0.2924  0.1996  0.0948
 6189W        W 9708   7.411   2.276  11.371  0.0544 -0.0820  0.0358
 6190W        W 9709   0.591   4.920  11.599  0.2262 -0.1716 -0.1727
 6191W        W 9710   2.411   6.998   1.148  0.0539 -0.2533 -0.1040
 6192W        W 9711   2.876   1.275   9.032 -0.3655  0.4947 -0.2383
 6193W        W 9712   6.760   5.559   3.210  0.0459 -0.2521  0.0217
 6194W        W 9713   8.633   7.742   0.669  0.1802  0.0079 -0.0543
 6195W        W 9714   3.450   5.528   3.022  0.1377  0.1673 -0.1217
 6196W        W 9715   7.784   0.784   0.998  0.2231 -0.3122 -0.2500
 6197W        W 9716   8.008   4.933  10.598  0.1404  0.1272  0.0458
 6198W        W 9717   2.392   2.904   8.576 -0.1262  0.0570  0.1370
 6199W        W 9718   7.449   7.998  11.969 -0.1080 -0.1198  0.1416
 6200W        W 9719   7.418   9.617   2.047  0.0716 -0.0430  0.0461
 6201W        W 9720   8.570   1.556   2.396  0.0444 -0.0277  0.0484
 6202W        W 9721   0.352   8.214   2.237 -0.0294  0.1947  0.3711
 6203W        W 9722   2.690   9.163   0.669 -0.3042  0.0723  0.0374
 6204W        W 9723   3.697   7.119   1.340 -0.0632  0.0475  0.2102
 6205W        W 9724   8.859   6.553  10.816  0.0742 -0.0308  0.0337
 6206W        W 9725   7.118   5.153   9.150  0.4657 -0.0225  0.0506
 6207W        W 9726   0.002   0.030  10.626  0.1206 -0.1460 -0.0232
 6208W        W 9727   0.054   0.974  10.791 -0.2133 -0.1417 -0.0438
 6209W        W 9728   6.331   3.923   2.802 -0.0387 -0.0679 -0.0123
 6210W        W 9729   4.990   1.964   9.907  0.0829 -0.0076  0.0333
 6211W        W 9730   0.116   3.442   0.924 -0.0987 -0.1667 -0.2194
 6212W        W 9731   7.221   2.135   3.994  0.1122 -0.2141  0.1146
 6213W        W 9732   1.655   1.587  10.277 -0.0422  0.0784 -0.1117
 6214W        W 9733   4.967   8.120   3.046  0.1653  0.1001  0.0129
 6215W        W 9734   6.395   2.008   4.352  0.0300  0.0429 -0.0696
 6216W        W 9735   3.527   2.834   9.963  0.1384  0.0191  0.0569
 6217W        W 9736   4.783   8.575   3.221 -0.4011  0.2188 -0.0837
 6218W        W 9737   6.165   1.509   0.598  0.0150  0.1230 -0.1527
 6219W        W 9738   8.626   1.494   0.846 -0.2643  0.1528  0.1628
 6220W        W 9739   9.557   4.623   0.129  0.1441 -0.1907  0.2807
 6221W        W 9740   9.284   9.662   9.120 -0.0459  0.0394  0.0348
 6222W        W 9741   6.374   8.013   2.355  0.0113 -0.3250  0.0797
 6223W        W 9742   7.792   2.647  11.524 -0.0901 -0.0220  0.1647
 6224W        W 9743   6.849   8.075   8.602 -0.0120  0.0596 -0.2703
 6225W        W 9744   2.853   2.830   2.135 -0.0859 -0.2403 -0.0149
 6226W        W 9745   2.667   1.435  10.300  0.1706 -0.0028  0.0725
 6227W        W 9746   4.355   6.014   3.405 -0.1395  0.0092  0.2447
 6228W        W 9747   3.624   8.379  11.171  0.3442  0.1343  0.1068
 6229W        W 9748   3.298   1.398   3.379 -0.1807  0.0127  0.0983
 6230W        W 9749   5.148   2.215  11.246  0.1812 -0.2675  0.0143
 6231W        W 9750   8.165   5.803   1.017 -0.3925 -0.1604  0.2128
 6232W        W 9751   1.441   8.379  11.203 -0.5421  0.4075 -0.1035
 6233W        W 9752   2.340   2.835   2.169 -0.0037 -0.2134  0.2176
 6234W        W 9753   8.235   3.963   2.892 -0.0064  0.1132 -0.2971
 6235W        W 9754   7.917   8.158   8.891 -0.1106  0.1215  0.2006
 6236W        W 9755   4.270   4.002  11.698  0.1758  0.4960  0.1039
 6237W        W 9756   7.023   0.703  10.532 -0.1541 -0.0392  0.3256
 6238W        W 9757   3.803   9.012   8.287  0.3610  0.1718  0.1294
 6239W        W 9758   9.301   3.108   8.506  0.0286  0.1348 -0.0347
 6240W        W 9759   5.209   5.849  10.195 -0.1421  0.1418 -0.0044
 6241W        W 9760   8.944   9.682   2.619  0.2603  0.2634  0.2576
 6242W        W 9761   0.611   9.657   8.738  0.0673 -0.0387 -0.1267
 6243W        W 9762   4.952   1.246   1.188 -0.0340 -0.1069  0.1059
 6244W        W 9763   2.692   9.455   3.066  0.1816  0.0717  0.2147
 6245W        W 9764   4.068   1.108   2.173  0.0723 -0.1407  0.3624
 6246W        W 9765   5.604   1.659  11.832 -0.1520 -0.0284 -0.2054
 6247W        W 9766   9.022   2.352   0.578  0.3032  0.5551  0.0552
 6248W        W 9767   4.095   2.721   9.294 -0.3022  0.1449  0.0615
 6249W        W 9768   6.092   7.381   2.563 -0.2533  0.2356  0.1049
 6250W        W 9769   9.655   2.396   2.193  0.5135  0.0359 -0.1416
 6251W        W 9770   0.064   2.991   1.227  0.3267 -0.0914  0.3758
 6252W        W 9771   9.091   0.419   2.499 -0.2453 -0.1872 -0.1940
 6253W        W 9772   7.379   1.430  12.563 -0.3126 -0.1413  0.0208
 6254W        W 9773   1.206   7.349   9.966 -0.3087 -0.1626 -0.0848
 6255W        W 9774   7.064   2.884   7.902 -0.0814 -0.1194  0.0280
 6256W        W 9775   9.399   6.059   3.651 -0.3306 -0.0713  0.1956
 6257W        W 9776   5.989   6.890   2.419  0.0187 -0.0743  0.1848
 6258W        W 9777   7.336   5.683   9.832 -0.0723 -0.2940 -0.1389
 6259W        W 9778   4.936   4.818  12.142 -0.3243  0.0005 -0.1914
 6260W        W 9779   6.956   1.579   0.499  0.0414 -0.2173  0.0890
 6261W        W 9780   2.741   2.207  12.029  0.2555 -0.0494 -0.3042
 6262W        W 9781   0.411   4.564   0.090  0.1187  0.1775 -0.0685
 6263W        W 9782   6.613   4.485   4.088  0.2148  0.0713  0.1071
 6264W        W 9783   9.378   6.459   0.531 -0.2250  0.1098  0.1522
 6265W        W 9784   8.119   1.872  10.844 -0.0640  0.4110 -0.0599
 6266W        W 9785   3.491   0.078   2.468  0.1532  0.1696  0.2895
 6267W        W 9786   6.505   1.578  11.437 -0.1002  0.1514  0.0475
 6268W        W 9787   5.778   5.541   2.866  0.1316 -0.1184 -0.1173
 6269W        W 9788   6.684   6.046   1.852  0.1506  0.1448 -0.2232
 6270W        W 9789   4.596   0.318   1.918 -0.0821 -0.2815  0.0361
 6271W        W 9790   9.512   0.211   2.673  0.0517  0.1933  0.2296
 6272W        W 9791   8.725   5.398   1.529 -0.3048  0.1594  0.1506
 6273W        W 9792   0.846   2.408   2.662  0.2002 -0.0725 -0.3434
 6274W        W 9793   3.929   7.075  10.436 -0.1059 -0.1668  0.0408
 6275W        W 9794   6.161   0.298  10.200  0.0329  0.1867  0.1102
 6276W        W 9795   4.683   2.185   8.888  0.2787  0.1279  0.0401
 6277W        W 9796   3.533   8.931  10.364  0.0608  0.0319 -0.1822
 6278W        W 9797   5.477   8.499   2.450  0.1447  0.3333 -0.0222
 6279W        W 9798   7.662   1.609   2.313  0.1005  0.0864 -0.1423
 6280W        W 9799   0.098   1.650  11.405  0.0519 -0.1153 -0.0983
 6281W        W 9800   3.812   6.911   8.587 -0.2718 -0.2337 -0.3101
 6282W        W 9801   3.119   7.781   8.879  0.1014  0.0409  0.2072
 6283W        W 9802   7.537   2.933   2.403 -0.1141 -0.2542  0.4531
 6284W        W 9803   4.310   1.977  10.902 -0.2363 -0.1091 -0.2352
 6285W        W 9804   1.262   4.379   1.056 -0.0530 -0.1123  0.0887
 6286W        W 9805   8.684   1.918   4.168 -0.4011  0.3068 -0.5446
 6287W        W 9806   7.914   0.059   9.835  0.3296 -0.2658 -0.3844
 6288W        W 9807   2.305   8.147   7.472  0.2010 -0.1734  0.1812
 6289W        W 9808   1.341   0.414   2.722  0.0725 -0.1013  0.1062
 6290W        W 9809   8.592   0.842   1.480 -0.1223 -0.0291 -0.0252
 6291W        W 9810   4.535   7.449   1.155  0.1832  0.0957 -0.0655
 6292W        W 9811   4.159   7.188   0.538 -0.2240  0.0379  0.0058
 6293W        W 9812   0.171   2.550   7.838 -0.0939  0.2043  0.0921
 6294W        W 9813   7.979   9.477  12.359 -0.0217 -0.0523 -0.0869
 6295W        W 9814   4.521   2.724   1.255 -0.0067  0.0563 -0.1788
 6296W        W 9815   7.920   6.182   3.204 -0.0329 -0.2737 -0.1262
 6297W        W 9816   3.117   3.034  10.151  0.0720 -0.0906 -0.1336
 6298W        W 9817   9.047   4.437   4.791  0.0604  0.0213  0.2509
 6299W        W 9818   7.587   2.322   8.176  0.0736 -0.3121  0.1233
 6300W        W 9819   8.069   9.156   1.812 -0.1696 -0.1354  0.3156
 6301W        W 9820   8.532   2.792   9.137  0.0760 -0.0809  0.4262
 6302W        W 9821   6.173   8.985   1.284  0.1921  0.1576 -0.0816
 6303W        W 9822   0.204   7.505   9.764  0.3505  0.0215  0.1558
 6304W        W 9823   4.861   5.104  10.506  0.0555 -0.2078  0.0911
 6305W        W 9824   6.683   3.891  10.180 -0.1188  0.0215  0.0321
 6306W        W 9825   5.753   9.433   2.425  0.2398  0.2065  0.2010
 6307W        W 9826   8.977   3.576  11.929 -0.0675  0.2663  0.0598
 6308W        W 9827   7.224   1.386   2.810  0.0350  0.0002 -0.5092
 6309W        W 9828   5.321   2.023   1.799  0.0528 -0.0508 -0.0118
 6310W        W 9829   2.152   6.917  11.433 -0.2849 -0.1546  0.0617
 6311W        W 9830   6.323   4.227   1.609  0.2754 -0.2154  0.0005
 6312W        W 9831   0.414   5.283   2.395 -0.0007 -0.0225 -0.0308
 6313W        W 9832   1.542   7.555   2.631 -0.1327  0.2956 -0.1081
 6314W        W 9833   2.348   6.399   8.912  0.4644  0.1420 -0.0308
 6315W        W 9834   4.001   3.889   0.731 -0.0734  0.1988 -0.0989
 6316W        W 9835   4.505   1.521  11.129  0.2645 -0.1299  0.0053
 6317W        W 9836   7.902   9.326   2.698  0.0268 -0.2853  0.0429
 6318W        W 9837   1.939   4.489   9.745  0.3021  0.0200  0.3092
 6319W        W 9838   2.607   6.540   2.974 -0.0059  0.0889  0.2094
 6320W        W 9839   3.816   8.366  10.271  0.0715  0.1071 -0.0787
 6321W        W 9840   5.262   8.494   3.945 -0.1294  0.1287  0.2458
 6322W        W 9841   6.545   1.306   9.174  0.2182 -0.0965 -0.1011
 6323W        W 9842   4.542   8.634   1.768 -0.0282 -0.0507  0.1270
 6324W        W 9843   4.801   1.137   1.669  0.2899 -0.1425 -0.0230
 6325W        W 9844   1.425   1.318   8.670 -0.3037  0.0055 -0.1905
 6326W        W 9845   1.144   5.373   0.497 -0.1706 -0.1260  0.0302
 6327W        W 9846   8.537   1.682  10.096 -0.3694  0.0877  0.2041
 6328W        W 9847   0.790   0.104   3.089  0.2200  0.0884 -0.2281
 6329W        W 9848   2.437   1.957   3.158  0.1591 -0.2350 -0.1323
 6330W        W 9849   3.798   3.658  11.777 -0.2073  0.1293 -0.6791
 6331W        W 9850   8.488   0.609  11.754  0.0571 -0.1460 -0.0025
 6332W        W 9851   4.554   3.346  10.612 -0.1153  0.1006  0.0844
 6333W        W 9852   6.868   7.920   9.540  0.1375 -0.1057 -0.1947
 6334W        W 9853   2.298   9.558  10.021 -0.1751 -0.1376  0.1331
 6335W        W 9854   7.819   6.628  10.666  0.1868 -0.0016  0.0476
 6336W        W 9855   6.097   6.602   5.145  0.2988  0.0148  0.0076
 6337W        W 9856   9.574   9.327  11.941 -0.2409 -0.1619 -0.2353
 6338W        W 9857   2.035   2.636  11.662 -0.1960  0.1671  0.2505
 6339W        W 9858   0.531   6.430   2.448 -0.0511  0.2641 -0.0083
 6340W        W 9859   5.154   5.314  10.184  0.1332 -0.0768  0.2123
 6341W        W 9860   6.136   1.834  10.615 -0.0764  0.0504  0.2286
 6342W        W 9861   3.906   1.642   9.641  0.1576  0.3003  0.1055
 6343W        W 9862   9.337   9.367   2.662  0.1395  0.0210 -0.1354
 6344W        W 9863   5.776   3.926  11.865 -0.0821  0.2322 -0.0024
 6345W        W 9864   2.476   8.390   0.302 -0.2325  0.1275 -0.2268
 6346W        W 9865   6.540   5.612   1.605  0.0576  0.0185  0.2457
 6347W        W 9866   8.226   4.005   8.911  0.1957  0.0026 -0.3483
 6348W        W 9867   2.341   0.972   4.748 -0.0506 -0.0258  0.1143
 6349W        W 9868   6.744   5.876  11.033 -0.0553 -0.1179 -0.0405
 6350W        W 9869   3.358   1.605   1.760  0.1369 -0.0834  0.2522
 6351W        W 9870   0.250   0.707   0.653  0.0701 -0.1673 -0.3345
 6352W        W 9871   0.452   0.884   8.531  0.2047 -0.2107 -0.2332
 6353W        W 9872   9.376   1.524   2.787 -0.1442  0.1997 -0.1934
 6354W        W 9873   7.012   2.384  11.865  0.1330  0.0629 -0.0152
 6355W        W 9874   8.086   9.653   2.206  0.1575 -0.0485 -0.2196
 6356W        W 9875   5.170   3.336   9.543 -0.1451  0.1852 -0.1574
 6357W        W 9876   8.239   7.495   2.662 -0.0187 -0.2442  0.2318
 6358W        W 9877   0.461   6.646   9.423  0.0575 -0.1194 -0.0281
 6359W        W 9878   5.460   5.592  12.093  0.0409 -0.0468  0.1366
 6360W        W 9879   0.570   7.789   3.340 -0.1945  0.0214  0.1206
 6361W        W 9880   4.959   6.816   3.548  0.0602 -0.0063 -0.2381
 6362W        W 9881   5.154   9.371  11.518  0.1694  0.3697  0.0518
 6363W        W 9882   7.849   9.181   4.406 -0.2637 -0.1490 -0.1386
 6364W        W 9883   5.165   6.892  10.873 -0.0476 -0.0619 -0.0730
 6365W        W 9884   1.664   0.683  11.992  0.0504  0.1778 -0.1041
 6366W        W 9885   8.966   5.156   3.975  0.4062 -0.0919 -0.0288
 6367W        W 9886   3.425   1.509  12.116  0.1530  0.1480  0.2325
 6368W        W 9887   4.154   4.368   2.453  0.0798  0.0053 -0.0340
 6369W        W 9888   2.614   1.158   1.877  0.0432 -0.3710  0.1616
 6370W        W 9889   2.777   0.895  12.419  0.0413  0.2523  0.2261
 6371W        W 9890   0.965   5.406  11.065  0.1282 -0.2133  0.0536
 6372W        W 9891   3.836   7.781   8.203  0.1008 -0.2028 -0.0745
 6373W        W 9892   9.663   7.813   1.710 -0.1867  0.1422 -0.0329
 6374W        W 9893   5.816   4.693   9.662 -0.0818 -0.0255 -0.0604
 6375W        W 9894   3.609   8.351   2.019  0.0214  0.0152 -0.4837
 6376W        W 9895   5.317   3.160  10.005  0.0508 -0.2050 -0.1955
 6377W        W 9896   3.520   4.963  10.722  0.0655 -0.1939 -0.0508
 6378W        W 9897   8.964   8.812  10.648 -0.2549  0.1147 -0.1736
 6379W        W 9898   1.669   0.165  12.105  0.0729  0.2005  0.3447
 6380W        W 9899   6.449   6.546  12.460 -0.0671  0.2276 -0.1369
 6381W        W 9900   1.580   0.851  10.982 -0.1564  0.1582 -0.2282
 6382W        W 9901   2.648   4.312  10.146 -0.3545  0.0574  0.2250
 6383W        W 9902   0.325   4.119   2.450 -0.1003  0.1509  0.3359
 6384W        W 9903   3.140   1.910   9.989 -0.1100 -0.1584  0.2006
 6385W        W 9904   3.638   7.789   3.689  0.1558  0.1013  0.3772
 6386W        W 9905   4.109   3.014  10.381  0.1552 -0.1156 -0.3498
 6387W        W 9906   6.508   6.588   1.590  0.1076 -0.1488 -0.1390
 6388W        W 9907   4.475   5.262   2.883 -0.1853  0.1893 -0.1532
 6389W        W 9908   3.045   8.839   3.251  0.0195  0.0960  0.3103
 6390W        W 9909   2.778   5.696  12.084  0.1768 -0.2687  0.3487
 6391W        W 9910   5.269   4.019   0.141  0.0939  0.2116 -0.2895
 6392W        W 9911   3.630   2.547   2.431 -0.4342 -0.1828 -0.3969
 6393W        W 9912   3.315   9.471   9.079  0.2325  0.1387  0.0572
 6394W        W 9913   0.875   5.935   1.714  0.1558 -0.0078 -0.1704
 6395W        W 9914   7.426   0.800   3.559 -0.0531 -0.0336  0.2434
 6396W        W 9915   1.288   4.694  10.959  0.0714 -0.0086  0.0024
 6397W        W 9916   5.323   2.205  11.807  0.2468  0.0071 -0.0386
 6398W        W 9917   2.850   2.074   1.793  0.2046 -0.3090  0.0236
 6399W        W 9918   6.482   2.483  11.144  0.3505  0.0985 -0.0190
 6400W        W 9919   8.438   1.953  11.234  0.0860 -0.1820  0.0914
 6401W        W 9920   3.570   9.448  10.118  0.1131 -0.0744  0.0562
 6402W        W 9921   0.844   2.730   2.317  0.2386 -0.2734 -0.0596
 6403W        W 9922   5.837   8.730   3.930  0.0634  0.2157  0.1205
 6404W        W 9923   6.857   2.485  10.381 -0.0885 -0.1834 -0.1248
 6405W        W 9924   4.894   7.797   9.470 -0.1976 -0.2125  0.0103
 6406W        W 9925   1.777   1.858   2.303  0.0426  0.0120  0.0260
 6407W        W 9926   8.807   4.527   8.197  0.0024 -0.0964  0.4169
 6408W        W 9927   0.901   4.513  12.550  0.2590 -0.2567  0.1181
 6409W        W 9928   9.396   7.025   2.210  0.2345  0.1703 -0.2070
 6410W        W 9929   8.978   2.399   3.178 -0.0114  0.1039 -0.0525
 6411W        W 9930   0.065   7.931   3.415 -0.3853  0.0212 -0.0716
 6412W        W 9931   1.094   3.173   1.080  0.1368 -0.0228 -0.3031
 6413W        W 9932   4.377   1.454   1.845  0.0854 -0.0107 -0.4269
 6414W        W 9933   7.489   3.481   8.934 -0.3648 -0.0463 -0.3032
 6415W        W 9934   6.904   0.444   8.671 -0.0522  0.3286 -0.3621
 6416W        W 9935   9.256   0.447   0.328 -0.0267  0.2222 -0.1766
 6417W        W 9936   2.945   1.146   3.044  0.0184  0.1178 -0.0265
 6418W        W 9937   0.193   5.429   8.240 -0.3190  0.2625  0.1937
 6419W        W 9938   6.519   7.033  11.743 -0.1292 -0.1286 -0.0756
 6420W        W 9939   6.475   7.841   1.414  0.0938 -0.1591  0.3874
 6421W        W 9940   8.560   5.850   1.605  0.0255  0.2122  0.4597
 6422W        W 9941   7.008   6.880   3.528 -0.3202  0.0268  0.1640
 6423W        W 9942   8.785   6.234  12.340  0.0784 -0.0208 -0.0054
 6424W        W 9943   4.168   3.230  11.577  0.1287 -0.3659 -0.1742
 6425W        W 9944   0.777   7.396   9.628 -0.1758  0.2252 -0.1137
 6426W        W 9945   0.072   3.139   2.554  0.0066  0.1103 -0.2329
 6427W        W 9946   7.899   2.539   2.663 -0.1159 -0.5030 -0.0427
 6428W        W 9947   8.442   0.282   0.496 -0.0974 -0.0536 -0.0700
 6429W        W 9948   4.426   3.840   0.444  0.0111 -0.0385 -0.1603
 6430W        W 9949   6.420   5.785  11.478 -0.1023 -0.0756 -0.1825
 6431W        W 9950   5.159   6.476   1.755 -0.4148  0.1859 -0.1598
 6432W        W 9951   9.243   1.966   3.007 -0.1781 -0.1932  0.1426
 6433W        W 9952   5.860   8.508   9.903 -0.0013  0.0596 -0.1974
 6434W        W 9953   1.318   2.468   3.118  0.1414  0.1125  0.2788
 6435W        W 9954   7.297   6.073   9.453 -0.1041 -0.0628 -0.0371
 6436W        W 9955   4.341   7.400   3.184 -0.3293  0.2337 -0.0270
 6437W        W 9956   4.833   7.183   3.244  0.1385  0.1502 -0.1118
 6438W        W 9957   6.289   7.363  11.456 -0.2027  0.2028 -0.0486
 6439W        W 9958   0.943   8.291   8.880 -0.0759  0.0124  0.0900
 6440W        W 9959   4.096   8.263  11.152  0.0110 -0.0154 -0.0559
 6441W        W 9960   4.225   8.253   2.386 -0.1047  0.3227  0.2231
 6442W        W 9961   5.371   5.288   3.052 -0.2925  0.0943  0.1177
 6443W        W 9962   2.728   3.593   0.147  0.0545  0.3249 -0.1595
 6444W        W 9963   7.345   0.389   2.849 -0.0509 -0.0670  0.0476
 6445W        W 9964   0.525   3.376  10.601  0.1174  0.0862 -0.2363
 6446W        W 9965   5.296   7.405   4.075  0.1100 -0.0148  0.1278
 6447W        W 9966   6.443   1.988  11.229 -0.3156  0.1095  0.1794
 6448W        W 9967   3.972   7.149   4.024 -0.0945 -0.0805 -0.4894
 6449W        W 9968   0.922   3.951  11.277  0.2286 -0.0689  0.1147
 6450W        W 9969   7.153   6.727   2.776 -0.0494 -0.1373  0.1040
 6451W        W 9970   3.792   2.854   1.952 -0.1559 -0.0984  0.1243
 6452W        W 9971   2.351   7.464  12.471 -0.2127  0.0790 -0.0376
 6453W        W 9972   0.732   0.637   9.578 -0.2053  0.0540  0.3240
 6454W        W 9973   1.862   6.783   2.001 -0.2939 -0.0726 -0.1772
 6455W        W 9974   6.756   2.228   1.678 -0.0829 -0.2001  0.1867
 6456W        W 9975   8.015   1.720  11.323  0.1296 -0.3936 -0.0998
 6457W        W 9976   6.152   4.254   3.174 -0.1199  0.3552 -0.2357
 6458W        W 9977   2.307   9.258  10.394  0.2068 -0.1851 -0.0139
 6459W        W 9978   7.094   6.753   1.046  0.0332 -0.1541 -0.1854
 6460W        W 9979   6.595   3.106   2.931 -0.0377  0.1224 -0.3306
 6461W        W 9980   9.192   9.057  11.795 -0.0196  0.1617  0.0314
 6462W        W 9981   9.330   8.588   8.879  0.0943  0.1498  0.1012
 6463W        W 9982   0.189   7.367   2.060 -0.0731  0.1005  0.1788
 6464W        W 9983   9.033   5.586   9.267  0.1111 -0.2702  0.1831
 6465W        W 9984   5.328   2.023   8.232  0.3243  0.0476 -0.1019
 6466W        W 9985   4.238   9.097   2.528  0.2875  0.2834 -0.2048
 6467W        W 9986   8.335   1.239  10.443 -0.1727 -0.0757 -0.2386
 6468W        W 9987   6.274   0.232  11.794 -0.2683  0.2772  0.3241
 6469W        W 9988   4.215   2.758  12.371 -0.2801  0.2959 -0.2466
 6470W        W 9989   6.645   3.023   1.964  0.1527 -0.0380 -0.1328
 6471W        W 9990   9.535   8.702   1.883  0.1916  0.1376  0.1795
 6472W        W 9991   1.748   1.271   9.101 -0.2112  0.0962  0.2935
 6473W        W 9992   5.507   3.012   1.384 -0.2930  0.2576  0.2193
 6474W        W 9993   0.439   5.164   1.623 -0.0893  0.3418 -0.0698
 6475W        W 9994   5.420   2.968  10.923 -0.1459  0.0280 -0.3382
 6476W        W 9995   3.244   8.438   4.208 -0.1058  0.1246 -0.0243
 6477W        W 9996   3.106   6.910   2.317 -0.0446  0.0533  0.0950
 6478W        W 9997   2.717   1.270   3.851  0.1967 -0.1014 -0.1032
 6479W        W 9998   7.189   3.832  10.177  0.1748  0.2142 -0.0638
 6480W        W 9999   0.843   6.928   4.131 -0.1646 -0.2355 -0.0148
 6481W        W10000   4.272   7.725  11.774 -0.0901 -0.0985  0.3807
 6482W        W10001   5.215   4.961   2.718 -0.0228  0.0328 -0.1434
 6483W        W10002   5.113   8.774   0.814  0.0077  0.2515  0.3231
 6484W        W10003   0.850   9.374  12.235  0.0866 -0.1621  0.1681
 6485W        W10004   8.415   1.201  11.772  0.1196  0.2822 -0.4050
 6486W        W10005   7.058   5.514   0.700  0.0632  0.3698  0.0237
 6487W        W10006   5.153   7.890   1.111 -0.0444 -0.0135  0.0404
 6488W        W10007   5.328   3.367   1.765  0.0567 -0.0938 -0.2640
 6489W        W10008   6.289   7.058   8.438 -0.0075  0.3120 -0.2050
 6490W        W10009   2.471   1.791  12.152 -0.0714  0.0416  0.1290
 6491W        W10010   5.720   7.918  11.643  0.0438  0.0834  0.0211
 6492W        W10011   0.140   3.473   0.394  0.1150  0.0364 -0.0751
 6493W        W10012   6.013   8.349  11.586 -0.0597 -0.0313 -0.2766
 6494W        W10013   8.726   0.746  10.011  0.4385 -0.0033  0.1550
 6495W        W10014   7.523   7.630   1.624  0.0112  0.3913  0.0001
 6496W        W10015   1.041   7.075  12.070  0.0482  0.3189 -0.1629
 6497W        W10016   8.307   1.240   1.128  0.1484  0.1336 -0.1434
 6498W        W10017   5.781   4.280   0.038  0.0983 -0.2325 -0.1965
 6499W        W10018   5.841   8.736  12.269 -0.1008  0.1128  0.0985
 6500W        W10019   7.731   7.835   2.011 -0.7588 -0.1466 -0.0664
 6501W        W10020   4.832   7.747   2.063 -0.0217 -0.3183  0.1616
 6502W        W10021   2.260   5.567   1.953  0.1936  0.2092  0.1445
 6503W        W10022   8.470   0.480   9.115 -0.1855 -0.0448 -0.0563
 6504W        W10023   2.402   3.023   3.043  0.1933  0.1684  0.0583
 6505W        W10024   3.175   3.171  12.438  0.0531 -0.1946 -0.2999
 6506W        W10025   4.410   1.052  11.309  0.1330  0.3254  0.0339
 6507W        W10026   0.953   8.689   1.832 -0.2817  0.4247 -0.1822
 6508W        W10027   1.886   8.225   2.839  0.0314 -0.0243 -0.4379
 6509W        W10028   5.604   0.632   9.002 -0.0287 -0.0469 -0.2944
 6510W        W10029   8.405   4.227   9.824  0.0956  0.1557 -0.0265
 6511W        W10030   1.057   4.306   1.476 -0.0284  0.1080 -0.0088
 6512W        W10031   3.206   9.009   9.474  0.0706 -0.0347  0.0391
 6513W        W10032   9.675   8.515   9.344 -0.1501  0.3109  0.1997
 6514W        W10033   4.155   6.510   9.152  0.1556 -0.0053 -0.1182
 6515W        W10034   6.602   9.127  10.783  0.2427 -0.0357 -0.1413
 6516W        W10035   5.803   0.938  12.104 -0.1105 -0.3128  0.0309
 6517W        W10036   0.204   8.307  10.946 -0.0235 -0.1165  0.1324
 6518W        W10037   5.308   7.375  11.052 -0.3447  0.1740 -0.0731
 6519W        W10038   4.979   9.117  10.749  0.2196 -0.1095  0.0004
 6520W        W10039   0.726   6.602   1.163 -0.0228  0.2043 -0.0143
 6521W        W10040   8.505   4.669   0.865 -0.1448  0.2200  0.1286
 6522W        W10041   7.807   2.660   8.670  0.3624 -0.0798  0.1228
 6523W        W10042   5.077   1.398  12.091  0.2207 -0.1350 -0.0841
 6524W        W10043   4.337   7.820   1.730 -0.2287  0.2742  0.1557
 6525W        W10044   5.913   3.602  10.426 -0.3218 -0.1872  0.1451
 6526W        W10045   6.219   3.360   0.757 -0.0100  0.2593 -0.1552
 6527W        W10046   5.023   7.438   1.063 -0.2399 -0.0693 -0.3056
 6528W        W10047   7.955   6.501   1.077 -0.0421  0.1956 -0.2108
 6529W        W10048   2.160   9.241   3.757  0.1856 -0.3269 -0.0303
 6530W        W10049   1.730   8.013   3.439  0.0017 -0.4349 -0.0915
 6531W        W10050   8.199   5.487   0.171  0.0397  0.1391 -0.1438
 6532W        W10051   8.204   3.126  10.652 -0.3222  0.1640  0.0081
 6533W        W10052   7.902   4.979   8.133  0.2228  0.0785  0.1190
 6534W        W10053   7.558   3.434   2.522  0.0004 -0.1176 -0.1880
 6535W        W10054   9.665   9.140   2.215 -0.1710  0.1312  0.0382
 6536W        W10055   7.463   2.646   3.664  0.1139 -0.2910  0.2469
 6537W        W10056   2.788   0.718   1.607  0.1431 -0.1646 -0.1974
 6538W        W10057   3.718   8.314   2.490 -0.1049  0.2905  0.0337
 6539W        W10058   6.330   2.221   2.628  0.0293 -0.2006  0.0591
 6540W        W10059   6.035   1.312   9.348 -0.0468 -0.0412 -0.0261
 6541W        W10060   8.813   8.028   2.710 -0.1060  0.0169  0.0041
 6542W        W10061   6.313   2.644  12.419 -0.3576 -0.2980 -0.0176
 6543W        W10062   1.726   5.178   2.701 -0.2219  0.0185 -0.2824
 6544W        W10063   6.665   8.489   2.381  0.1727 -0.0089  0.1541
 6545W        W10064   5.558   2.439  11.078 -0.0845 -0.1769  0.0343
 6546W        W10065   5.162   8.407  12.039  0.0111 -0.2245 -0.1323
 6547W        W10066   5.030   5.784  12.338 -0.2507 -0.3099 -0.0714
 6548W        W10067   5.412   8.583   2.934  0.1374 -0.2685 -0.1081
 6549W        W10068   8.173   0.597   2.348  0.0471 -0.2081  0.3130
 6550W        W10069   9.069   8.782   4.504 -0.1909 -0.1214 -0.0096
 6551W        W10070   1.440   9.416   9.414 -0.0052  0.1780 -0.0164
 6552W        W10071   9.207   6.787   3.070 -0.0778  0.1883 -0.1020
 6553W        W10072   4.923   3.701   0.328 -0.2003  0.1937 -0.3759
 6554W        W10073   1.732   9.657   2.759  0.0428 -0.1932 -0.0271
 6555W        W10074   8.953   4.292   9.762 -0.1651  0.2777 -0.2908
 6556W        W10075   7.613   7.086   8.907  0.3825 -0.1084  0.0236
 6557W        W10076   5.353   6.875   4.620  0.4116 -0.1110  0.1474
 6558W        W10077   1.720   8.481   4.114 -0.2069  0.0428 -0.0095
 6559W        W10078   6.275   2.401   3.960 -0.2262  0.0659 -0.2494
 6560W        W10079   2.084   4.419   1.346 -0.1700 -0.2168  0.3945
 6561W        W10080   0.012   6.855   2.920 -0.1166 -0.1974 -0.0130
 6562W        W10081   8.002   5.139   9.999  0.0854  0.1414  0.0584
 6563W        W10082   5.661   6.437   1.951 -0.0618  0.1862  0.0632
 6564W        W10083   6.964   0.558   0.050  0.0267  0.4329  0.0074
 6565W        W10084   5.382   6.050  11.443  0.2546 -0.0432  0.0177
 6566W        W10085   0.078   2.351   8.286  0.0513 -0.0820  0.1558
 6567W        W10086   5.465   3.437   3.142  0.0684  0.1114  0.2824
 6568W        W10087   1.141   8.279   2.689  0.0806 -0.1771 -0.1007
 6569W        W10088   1.072   5.743   0.832 -0.1999  0.0515 -0.3543
 6570W        W10089   9.515   2.322  12.068  0.1274  0.0849 -0.0413
 6571W        W10090   2.066   6.326   3.915  0.3700 -0.2245  0.1351
 6572W        W10091   2.704   8.251   2.328 -0.1995  0.2997  0.0232
 6573W        W10092   5.845   0.140   2.848  0.2613  0.0368  0.3163
 6574W        W10093   6.354   6.510   0.928 -0.0082  0.3366  0.1917
 6575W        W10094   9.624   6.602  10.256  0.0537 -0.0074  0.1555
 6576W        W10095   4.808   8.629  12.361  0.0240 -0.0304  0.3022
 6577W        W10096   0.087   7.578  11.233  0.1872  0.0055 -0.1106
 6578W        W10097   8.022   3.955  10.463  0.0764  0.1330  0.2427
 6579W        W10098   9.543   8.140   1.269  0.1322  0.2814 -0.0128
 6580W        W10099   4.398   6.642   1.529 -0.1632 -0.0229 -0.0121
 6581W        W10100   2.947   8.813   8.601 -0.2091  0.1573 -0.2377
 6582W        W10101   4.826   2.855   9.991  0.0246 -0.1332 -0.1759
 6583W        W10102   4.971   5.310  12.092  0.0661 -0.0241  0.2640
 6584W        W10103   0.394   4.346  11.776 -0.0004  0.0718 -0.2878
 6585W        W10104   3.207   8.884   2.713  0.0163 -0.1963  0.1216
 6586W        W10105   5.011   4.857   3.197 -0.0358  0.2735 -0.1540
 6587W        W10106   6.707   7.051   9.419 -0.0698 -0.3357  0.1258
 6588W        W10107   3.532   9.566  12.580  0.1979  0.0773 -0.4498
 6589W        W10108   6.350   1.522   2.880  0.1428 -0.0052  0.3698
 6590W        W10109   7.368   5.434  10.907 -0.1505  0.1359 -0.0341
 6591W        W10110   9.346   2.584   8.404  0.1025 -0.1499 -0.1998
 6592W        W10111   8.611   2.482   1.421 -0.0339  0.1996 -0.0584
 6593W        W10112   6.705   0.506   9.753 -0.0766 -0.1772  0.0554
 6594W        W10113   6.427   8.334  11.219 -0.0693 -0.2109 -0.2219
 6595W        W10114   1.919   1.489   3.068  0.2457  0.0547  0.0378
 6596W        W10115   5.914   4.029   9.500  0.0623 -0.1715  0.0133
 6597W        W10116   9.515   0.957   9.248 -0.2370  0.1409 -0.1302
 6598W        W10117   4.759   6.679  11.705  0.0634 -0.2974 -0.0034
 6599W        W10118   0.916   7.002   1.004 -0.5180  0.1017 -0.3366
 6600W        W10119   6.801   7.030   1.557 -0.0767  0.0038 -0.2273
 6601W        W10120   0.822   2.754  11.326 -0.1103 -0.0245 -0.3928
 6602W        W10121   5.411   8.444  11.100  0.1281  0.1256  0.3780
 6603W        W10122   6.104   6.574  10.888  0.0778  0.3666 -0.1138
 6604W        W10123   0.340   8.818   8.343  0.0343 -0.0067  0.1812
 6605W        W10124   8.282   2.445   8.091 -0.1109  0.0733  0.1850
 6606W        W10125   3.671   6.363   2.868 -0.0926  0.3400 -0.2640
 6607W        W10126   2.045   0.706  11.171  0.1222  0.1520  0.1018
 6608W        W10127   3.760   1.150  12.244 -0.1639  0.2531  0.0272
 6609W        W10128   6.038   2.153   9.110 -0.0309  0.1729 -0.1925
 6610W        W10129   6.300   6.582   2.600 -0.0154 -0.1320  0.2438
 6611W        W10130   9.682   6.846   9.793  0.0775 -0.3596  0.0159
 6612W        W10131   7.574   4.390   9.315  0.0769 -0.0540  0.2082
 6613W        W10132   7.748   6.223  11.897  0.2443  0.1984 -0.2197
 6614W        W10133   7.098   3.412   9.229 -0.1422 -0.3756  0.1768
 6615W        W10134   6.313   8.900   0.493 -0.0581  0.0005  0.0937
 6616W        W10135   9.138   0.736   0.783 -0.2998 -0.0945  0.1875
 6617W        W10136   0.380   7.877   0.934  0.0813  0.1406  0.3607
 6618W        W10137   2.138   4.330  10.718 -0.1477 -0.1711  0.4806
 6619W        W10138   6.472   4.033  12.457  0.3916 -0.0226  0.1340
 6620W        W10139   7.486   7.921   0.181 -0.1055 -0.3782 -0.1043
 6621W        W10140   2.803   3.603  11.604 -0.0666  0.1302 -0.0169
 6622W        W10141   8.980   6.682   2.062  0.1058  0.3697 -0.3943
 6623W        W10142   2.002   7.245   1.884 -0.0356 -0.1322 -0.0354
 6624W        W10143   5.152   3.645   2.790  0.0171 -0.0959 -0.1539
 6625W        W10144   7.836   7.030  10.377 -0.2580 -0.3719 -0.0871
 6626W        W10145   5.294   4.667   1.787 -0.3593 -0.0964  0.3129
 6627W        W10146   7.957   8.660   0.389  0.0372  0.0230  0.2533
 6628W        W10147   9.497   3.436   1.379  0.1029  0.0376 -0.2901
 6629W        W10148   2.436   8.700  12.133 -0.0190 -0.0390 -0.0501
 6630W        W10149   0.051   7.008   8.460  0.0290 -0.1596  0.1357
 6631W        W10150   3.737   7.865   1.044 -0.0321  0.3183 -0.2383
 6632W        W10151   1.697   2.129  12.434  0.3645  0.2111  0.0847
 6633W        W10152   4.481   3.864   9.196 -0.0529  0.0460  0.1627
 6634W        W10153   6.110   3.627  11.650  0.2060  0.0627  0.0135
 6635W        W10154   8.636   0.971   9.147  0.0137  0.0070 -0.0044
 6636W        W10155   4.046   2.992   0.942  0.1180  0.1651 -0.0708
 6637W        W10156   4.935   6.697  12.204 -0.1931 -0.1997 -0.0017
 6638W        W10157   9.596   6.324   1.028  0.1403  0.1469 -0.0384
 6639W        W10158   9.163   9.540   3.953  0.0361 -0.0849  0.1146
 6640W        W10159   4.392   1.809   9.793 -0.1865  0.1803  0.4808
 6641W        W10160   3.571   6.449   1.929  0.1628  0.0322 -0.0562
 6642W        W10161   0.201   0.223   0.849 -0.1116 -0.1863 -0.0732
 6643W        W10162   3.774   3.050   2.440  0.0644 -0.2776  0.0729
 6644W        W10163   2.615   2.264   2.719  0.1283  0.0394 -0.1775
 6645W        W10164   0.371   1.493  10.389  0.1513  0.2733  0.0245
 6646W        W10165   5.912   8.238   2.242 -0.1255 -0.5347 -0.0186
 6647W        W10166   3.973   2.457   1.077  0.0624  0.0666 -0.2781
 6648W        W10167   6.791   8.777   9.910  0.0598 -0.0953  0.4221
 6649W        W10168   3.041   2.763   1.215  0.0151 -0.2685  0.1417
 6650W        W10169   5.279   2.221  10.684 -0.4266 -0.3335 -0.1367
 6651W        W10170   1.869   6.301   3.436 -0.2151 -0.0131 -0.1627
 6652W        W10171   4.891   8.851   9.833 -0.0997  0.0077  0.0780
 6653W        W10172   1.262   2.624   1.986 -0.1212 -0.0005 -0.0375
 6654W        W10173   1.338   4.243  11.362  0.0237  0.4193  0.2007
 6655W        W10174   9.243   3.033   9.006  0.2387 -0.0418 -0.0899
 6656W        W10175   7.181   5.675   2.789  0.2647 -0.0948  0.0445
 6657W        W10176   2.942   4.628  11.404  0.3579  0.0807 -0.5239
 6658W        W10177   7.991   1.168   7.842  0.0977  0.2465 -0.2701
 6659W        W10178   4.287   7.065   2.106  0.3569 -0.0626 -0.2051
 6660W        W10179   1.814   7.903  10.486 -0.2868  0.0480  0.0867
 6661W        W10180   6.686   8.919   8.823 -0.0245  0.0937 -0.1090
 6662W        W10181   8.732   6.690   2.881 -0.0655 -0.2682  0.0857
 6663W        W10182   1.821   9.164  11.609 -0.6140 -0.0383  0.0744
 6664W        W10183   4.698   4.314   3.910 -0.2589 -0.0561 -0.0836
 6665W        W10184   4.570   8.475  11.188  0.2450  0.1584 -0.1067
 6666W        W10185   6.339   1.302  11.043 -0.0412 -0.1973  0.4720
 6667W        W10186   4.932   6.478  10.686 -0.3259 -0.1585 -0.1753
 6668W        W10187   9.305   4.080  11.507  0.0931 -0.2624 -0.0256
 6669W        W10188   2.627   6.027  10.836  0.1748 -0.0647 -0.0853
 6670W        W10189   5.382   6.540   3.724  0.0668  0.1952 -0.3072
 6671W        W10190   1.927   6.563   8.358  0.2578 -0.2366 -0.1067
 6672W        W10191   2.637   9.356   2.492 -0.0700 -0.2319  0.1894
 6673W        W10192   5.856   5.467   2.170 -0.0548 -0.3284  0.1805
 6674W        W10193   8.367   4.386   9.274 -0.0606  0.0644  0.2562
 6675W        W10194   0.383   3.295  11.085  0.2358  0.0294  0.1479
 6676W        W10195   1.992   6.781   3.619 -0.0088  0.0750 -0.1884
 6677W        W10196   4.807   0.738   2.020 -0.1991 -0.1058 -0.3159
 6678W        W10197   1.825   2.892   9.328  0.1976  0.1574 -0.1371
 6679W        W10198   6.020   6.436  12.254  0.0996 -0.0383 -0.0801
 6680W        W10199   3.139   7.861   3.862 -0.0006  0.0351 -0.0037
 6681W        W10200   4.103   3.995   9.619  0.2260  0.3058 -0.2303
 6682W        W10201   7.845   1.628   9.147  0.3969 -0.0143 -0.2513
 6683W        W10202   0.946   2.989   8.854  0.2642 -0.0378  0.1296
 6684W        W10203   0.180   2.022  10.559 -0.0969  0.1840 -0.2348
 6685W        W10204   0.009   9.311   0.698 -0.1538 -0.0250 -0.1354
 6686W        W10205   2.350   5.583   1.397 -0.0778 -0.0039 -0.1105
 6687W        W10206   7.842   3.594  12.161 -0.1538  0.0868  0.0588
 6688W        W10207   0.311   6.439   2.947  0.0941 -0.0811  0.0518
 6689W        W10208   0.189   3.095   3.495 -0.3834 -0.1202 -0.0282
 6690W        W10209   8.586   6.526   9.259 -0.0321 -0.0335  0.1896
 6691W        W10210   4.353   9.442   4.559  0.2372 -0.0439 -0.1160
 6692W        W10211   2.412   7.172  11.071  0.0028 -0.2877  0.1234
 6693W        W10212   2.808   6.666   9.749  0.0701 -0.2334  0.2544
 6694W        W10213   7.082   7.199  11.476  0.2156 -0.2916 -0.2686
 6695W        W10214   9.252   0.607  12.418 -0.1159 -0.0222  0.1289
 6696W        W10215   3.969   0.689   1.908 -0.3731  0.2803 -0.0564
 6697W        W10216   0.512   1.759  12.392 -0.0356  0.0035  0.3764
 6698W        W10217   8.192   3.909   8.307  0.1792 -0.0901 -0.0361
 6699W        W10218   8.906   9.034   7.774  0.1451  0.1091  0.2844
 6700W        W10219   6.008   3.499   3.299 -0.0458  0.0239  0.0107
 6701W        W10220   8.980   7.059  11.079 -0.0996  0.0372 -0.2888
 6702W        W10221   6.912   6.511  12.141  0.2257 -0.2109 -0.2880
 6703W        W10222   6.726   4.283   1.847 -0.0595  0.0551  0.3278
 6704W        W10223   0.119   7.553   0.197 -0.1218  0.1771  0.2604
 6705ION    NA+10224   5.628   2.041   3.572 -0.1090  0.2814  0.1884
 6706ION    NA+10225   4.531   6.763   3.203 -0.0696  0.0277 -0.2617
 6707ION    NA+10226   6.807   0.987   2.401 -0.2769  0.1235  0.0547
 6708ION    NA+10227   5.852   5.795   4.631  0.1564 -0.0211 -0.2928
 6709ION    NA+10228   0.762   1.782   7.632 -0.0000 -0.1280 -0.2818
 6710ION    NA+10229   5.586   5.925   8.915  0.0046  0.2455  0.1344
 6711ION    NA+10230   7.189   2.205   2.013  0.1926  0.1177 -0.0088
 6712ION    NA+10231   6.418   7.843  11.218 -0.0601 -0.0226 -0.3080
 6713ION    NA+10232   9.000   7.946  11.870  0.0139  0.1213 -0.0200
 6714ION    NA+10233   0.871   6.589   1.906  0.4031 -0.0845  0.0521
 6715ION    NA+10234   0.548   9.621   7.761 -0.5142  0.1136 -0.1660
 6716ION    NA+10235   7.515   0.315   8.743 -0.0399  0.0208 -0.1460
 6717ION    NA+10236   1.459   5.459  11.341  0.2652  0.1614  0.0102
 6718ION    NA+10237   0.514   9.407   4.409  0.3847 -0.0709  0.1603
 6719ION    NA+10238   1.163   1.271   0.652 -0.1845 -0.1485 -0.2405
 6720ION    NA+10239   4.260   3.951  10.131 -0.6241  0.0385 -0.0720
 6721ION    NA+10240   0.101   1.924   3.181  0.1450  0.1762  0.1294
 6722ION    NA+10241   0.678   7.290  12.384 -0.2727 -0.1600 -0.0186
 6723ION    NA+10242   7.752   3.305   9.978 -0.1481 -0.2661  0.2801
 6724ION    NA+10243   5.856   9.259   0.489  0.0119  0.0672 -0.1772
 6725ION    NA+10244   0.031   6.569  11.102  0.0742  0.1420  0.1235
 6726ION    NA+10245   6.925   5.127   8.540 -0.1168  0.1502  0.0419
 6727ION    NA+10246   3.111   0.184   4.517 -0.2781  0.0334  0.2382
 6728ION    NA+10247   7.821   8.787   0.928 -0.0045  0.0728  0.2300
 6729ION    NA+10248   8.808   4.552   1.765 -0.2775  0.2558  0.0924
 6730ION    NA+10249   8.913   1.169   0.558  0.0456  0.0650  0.1331
 6731ION    NA+10250   5.698   0.922   2.165 -0.1550 -0.0035  0.2379
 6732ION    NA+10251   3.128   9.402   2.620 -0.0566  0.2944  0.3453
 6733ION    NA+10252   7.884   9.237   3.527 -0.2087  0.1443  0.2443
 6734ION    NA+10253   6.371   7.826   2.953  0.3037 -0.1583  0.0686
 6735ION    NA+10254   9.059   0.695   9.132  0.2193 -0.0087  0.3063
 6736ION    NA+10255   1.051   8.903  10.151 -0.3262 -0.2156  0.3008
 6737ION    NA+10256   2.401   2.247  10.509 -0.1340 -0.2595 -0.0860
 6738ION    NA+10257   0.615   4.598   4.309  0.0229  0.1603  0.1666
 6739ION    NA+10258   2.347   0.229   9.466 -0.0884  0.1550  0.1374
 6740ION    NA+10259   5.062   4.209   9.858  0.0161  0.0801  0.0176
 6741ION    NA+10260   2.308   7.598  10.570 -0.1461  0.1537 -0.2173
 6742ION    NA+10261   9.035   2.303   9.756 -0.3793 -0.1817 -0.2027
 6743ION    NA+10262   5.661   0.901  11.404  0.0376 -0.4374 -0.0066
 6744ION    NA+10263   2.266   5.812   2.749  0.5681 -0.1743 -0.2908
 6745ION    NA+10264   7.716   7.369   3.358  0.1403  0.0836 -0.0243
 6746ION    NA+10265   5.669   1.949  10.858  0.0711 -0.2601 -0.1938
 6747ION    NA+10266   0.741   5.782   2.566  0.0162  0.1607  0.1097
 6748ION    NA+10267   1.346   1.741   3.646 -0.0473  0.0932 -0.1533
 6749ION    NA+10268   1.333   1.249   2.577 -0.0538  0.0812 -0.1928
 6750ION    NA+10269   4.221   8.272   0.878 -0.1142  0.6248 -0.3905
 6751ION    NA+10270   2.219   2.049   3.829  0.2372 -0.1914 -0.1125
 6752ION    NA+10271   2.402   8.591   2.083 -0.0156 -0.0020  0.1757
 6753ION    NA+10272   5.455   9.550   4.329 -0.0404  0.1083 -0.1723
 6754ION    NA+10273   1.053   1.769   1.449 -0.2057 -0.3349  0.1146
 6755ION    NA+10274   8.456   6.120   8.409  0.3850  0.0736 -0.0975
 6756ION    NA+10275   4.634   9.381  11.819 -0.0282 -0.2831 -0.1410
 6757ION    NA+10276   7.604   3.700   4.659 -0.0906  0.0174  0.2417
 6758ION    NA+10277   5.872   2.166  11.901 -0.1025  0.0102 -0.1450
 6759ION    NA+10278   3.948   6.298   3.901  0.1048 -0.0529  0.2844
 6760ION    NA+10279   8.490   8.578  12.360  0.1235 -0.1776  0.2810
 6761ION    NA+10280   2.004   3.450   2.537 -0.3822 -0.3508  0.0873
 6762ION    NA+10281   2.777   2.219   8.794  0.1582 -0.0939 -0.2483
 6763ION    NA+10282   2.552   6.377  10.477  0.1426  0.2129 -0.1812
 6764ION    NA+10283   6.879   7.230   1.002  0.3090 -0.3331 -0.5676
 6765ION    NA+10284   1.398   3.416  10.178 -0.0099  0.0361  0.0008
 6766ION    NA+10285   8.437   7.499  12.515 -0.3033 -0.2141  0.2211
 6767ION    NA+10286   4.724   0.897   8.057 -0.0222 -0.0754  0.4198
 6768ION    NA+10287   5.239   2.840  10.433  0.1621 -0.5582 -0.0756
 6769ION    NA+10288   4.061   7.587  10.813 -0.0152  0.1896  0.1669
 6770ION    NA+10289   0.048   2.143   2.622 -0.0487  0.3110  0.3602
 6771ION    NA+10290   7.512   0.554  11.428  0.0200  0.0047  0.0720
 6772ION    NA+10291   0.296   7.160  11.448 -0.1181  0.1336 -0.1229
 6773ION    NA+10292   5.949   3.933   1.304  0.0109 -0.1224 -0.0338
 6774ION    NA+10293   6.412   2.230   2.161 -0.5419 -0.4107  0.3834
 6775ION    NA+10294   7.810   0.009   0.244 -0.0522  0.2669 -0.0166
 6776ION    CL-10295   7.926   7.091   2.988 -0.0173 -0.2072  0.3156
 6777ION    CL-10296   5.967   1.487   2.200 -0.0819  0.0071 -0.1228
 6778ION    CL-10297   7.308   0.672   8.955  0.0776 -0.0726 -0.2336
 6779ION    CL-10298   9.650   7.078  11.108 -0.0760 -0.1602  0.6048
 6780ION    CL-10299   4.604   2.743   2.619  0.1111 -0.0296  0.1312
 6781ION    CL-10300   8.695   6.897   3.395  0.4185  0.1607  0.0661
 6782ION    CL-10301   6.305   3.916   9.225  0.2097 -0.0917  0.2157
 6783ION    CL-10302   7.813   9.165   0.566 -0.2208  0.0954 -0.0244
 6784ION    CL-10303   2.412   5.818   3.220 -0.1806 -0.2981  0.2706
 6785ION    CL-10304   4.188   6.483   3.454 -0.2654  0.1884  0.1185
 6786ION    CL-10305   3.771   7.755   0.573 -0.1632  0.1096 -0.0944
 6787ION    CL-10306   1.540   1.458   2.142 -0.2934  0.1447  0.1855
 6788ION    CL-10307   9.645   4.847   9.519 -0.1897 -0.0402  0.0544
 6789ION    CL-10308   4.860   0.312   8.760  0.3700 -0.5109  0.0938
 6790ION    CL-10309   4.249   3.752  10.766  0.2903 -0.0904  0.2997
 6791ION    CL-10310   2.204   6.237  10.152 -0.2910  0.0481  0.1714
 6792ION    CL-10311   6.048   2.521   2.310 -0.0145  0.3539  0.0021
 6793ION    CL-10312   1.461   9.105   9.918  0.1150  0.2450 -0.1922
 6794ION    CL-10313   2.377   6.773   3.350 -0.0397  0.1243 -0.1819
 6795ION    CL-10314   1.750   3.153  10.388 -0.0766 -0.1590 -0.0069
 6796ION    CL-10315   6.816   1.430   2.545 -0.2258 -0.0694 -0.0974
 6797ION    CL-10316   9.208   4.626   1.442 -0.2187  0.0156  0.0747
 6798ION    CL-10317   4.633   8.532   0.923 -0.1656  0.2945  0.1083
 6799ION    CL-10318   2.644   2.586   3.131  0.0542  0.1597 -0.2878
 6800ION    CL-10319   8.451   8.218  11.934 -0.0072 -0.2278  0.0567
 6801ION    CL-10320   7.503   1.976   8.658  0.1001  0.1106  0.2597
 6802ION    CL-10321   9.468   0.645   3.730 -0.3063  0.1537  0.1548
 6803ION    CL-10322   2.152   3.637   2.967  0.1038  0.4053 -0.2088
 6804ION    CL-10323   4.012   8.749  11.241 -0.1766 -0.3019 -0.0740
 6805ION    CL-10324   6.916   2.212   2.465 -0.1578  0.3251 -0.1420
 6806ION    CL-10325   7.625   9.543   3.846 -0.3106 -0.1314  0.0488
 6807ION    CL-10326   5.887   7.889   3.529  0.0357 -0.0463  0.0714
 6808ION    CL-10327   5.973   1.267  11.522  0.1178 -0.1721  0.1320
 6809ION    CL-10328   6.737   0.114   0.385  0.1307 -0.0580 -0.1025
 6810ION    CL-10329   5.229   5.668   3.564  0.1920  0.0983 -0.1451
 6811ION    CL-10330   5.050   3.335  10.821 -0.0261 -0.0320  0.0267
 6812ION    CL-10331   0.942   6.128   2.278  0.1422  0.0040  0.0133
 6813ION    CL-10332   1.971   2.836   3.223  0.2771 -0.0880  0.0325
 6814ION    CL-10333   3.056   9.655   2.204 -0.4426 -0.0903 -0.0674
 6815ION    CL-10334   7.800   6.849   9.289 -0.1513 -0.0175  0.4788
 6816ION    CL-10335   5.509   1.249   3.465  0.2586  0.0557  0.0229
 6817ION    CL-10336   1.599   4.128   9.607  0.1768  0.0361  0.1004
 6818ION    CL-10337   1.457   3.993   1.895 -0.0708 -0.3180 -0.0936
 6819ION    CL-10338   8.724   1.082   8.664  0.2896 -0.1432 -0.0082
 6820ION    CL-10339   0.311   2.344   3.008  0.1627 -0.1405  0.0889
 6821ION    CL-10340   2.350   1.777  10.536 -0.0865 -0.0041 -0.0850
 6822ION    CL-10341   0.555   7.237   8.782  0.1176  0.3496 -0.1006
 6823ION    CL-10342   5.839   4.442   1.387  0.1142  0.1442  0.2085
 6824ION    CL-10343   1.224   4.951   3.196  0.2849 -0.2396  0.2020
 6825ION    CL-10344   7.830   7.007   3.821 -0.3049  0.0664 -0.2166
 6826ION    CL-10345   7.979   0.432   0.391  0.0815 -0.1847 -0.0470
 6827ION    CL-10346   1.818   5.088  11.313 -0.1369  0.1496  0.2235
 6828ION    CL-10347   0.655   1.839   1.823 -0.1610 -0.2166  0.0289
 6829ION    CL-10348   2.699   8.291  10.307  0.0257 -0.0555 -0.2014
 6830ION    CL-10349   5.440   2.461   1.144  0.0775  0.0397  0.0654
 6831ION    CL-10350   7.207   8.597   1.031  0.1205  0.2993  0.2843
 6832ION    CL-10351   8.910   0.294   8.912 -0.3945 -0.0324  0.2984
 6833ION    CL-10352   0.587   7.295  11.851  0.0925  0.0138  0.0048
 6834ION    CL-10353   4.522   7.566   9.771 -0.3560  0.1879 -0.0151
 6835ION    CL-10354   9.622   3.909   9.183  0.1558  0.0464 -0.1093
 6836ION    CL-10355   5.548   1.845  11.373  0.1103  0.4772  0.1645
 6837ION    CL-10356   0.556   6.345  11.152  0.1096 -0.2100 -0.0527
 6838ION    CL-10357   8.858   1.846   9.020 -0.0565  0.0410 -0.1534
 6839ION    CL-10358   6.951   7.191   2.503  0.3406  0.2127 -0.2367
 6840ION    CL-10359   3.879   2.724  10.788 -0.0848 -0.0507  0.0135
 6841ION    CL-10360   6.480   6.930   4.423 -0.2588  0.2544 -0.1616
 6842ION    CL-10361   8.906   8.017  12.357  0.1780 -0.1490  0.0643
 6843ION    CL-10362   6.815   1.890   3.576 -0.1464 -0.2481 -0.2345
 6844ION    CL-10363   3.207   5.919  12.249  0.0210  0.0439 -0.0200
 6845ION    CL-10364   8.728   8.960   0.137 -0.2597 -0.2731  0.0927
 6846ION    CL-10365   8.775   2.726   3.872  0.1139 -0.1444  0.1356
   9.69010   9.69010  12.58047
