Protein in INSANE! Membrane UpperLeaflet>POPC=1.0 LowerLeaflet>POPC=1.0
12676
    1AU     AUC    1   5.731   5.858   6.019
    1AU     AUC    2   5.995   5.857   5.868
    1AU     AUC    3   5.980   5.840   6.177
    1AU     AUC    4   5.480   5.873   5.855
    1AU     AUC    5   5.478   5.883   6.168
    1AU     AUC    6   5.592   6.127   6.022
    1AU     AUC    7   5.906   6.103   6.015
    1AU     AUC    8   5.567   5.607   6.022
    1AU     AUC    9   5.859   5.595   6.038
    1AU     AUC   10   5.715   5.706   6.278
    1AU     AUC   11   5.740   6.029   6.280
    1AU     AUC   12   5.729   5.699   5.761
    1AU     AUC   13   5.731   6.000   5.758
    1AU     AUC   14   6.250   5.844   5.706
    1AU     AUC   15   6.251   5.842   6.019
    1AU     AUC   16   6.242   5.823   6.323
    1AU     AUC   17   5.219   5.866   5.703
    1AU     AUC   18   5.213   5.883   6.005
    1AU     AUC   19   5.220   5.900   6.325
    1AU     AUC   20   5.458   6.396   6.022
    1AU     AUC   21   5.772   6.379   6.019
    1AU     AUC   22   6.062   6.367   6.015
    1AU     AUC   23   5.380   5.357   6.020
    1AU     AUC   24   5.693   5.336   6.007
    1AU     AUC   25   6.008   5.323   6.033
    1AU     AUC   26   5.687   5.554   6.528
    1AU     AUC   27   5.726   5.863   6.548
    1AU     AUC   28   5.753   6.175   6.534
    1AU     AUC   29   5.728   5.535   5.506
    1AU     AUC   30   5.741   5.847   5.499
    1AU     AUC   31   5.732   6.154   5.494
    1AU     AUC   32   5.984   5.688   6.442
    1AU     AUC   33   6.008   5.987   6.441
    1AU     AUC   34   6.002   5.688   5.604
    1AU     AUC   35   6.015   5.992   5.594
    1AU     AUC   36   5.459   5.727   6.444
    1AU     AUC   37   5.494   6.049   6.446
    1AU     AUC   38   5.477   5.711   5.585
    1AU     AUC   39   5.474   6.018   5.597
    1AU     AUC   40   6.159   6.115   5.850
    1AU     AUC   41   6.169   6.085   6.166
    1AU     AUC   42   5.323   6.130   5.875
    1AU     AUC   43   5.346   6.163   6.184
    1AU     AUC   44   6.134   5.585   5.873
    1AU     AUC   45   6.132   5.572   6.184
    1AU     AUC   46   5.299   5.617   5.854
    1AU     AUC   47   5.302   5.631   6.197
    1AU     AUC   48   5.602   6.291   6.284
    1AU     AUC   49   5.920   6.273   6.269
    1AU     AUC   50   5.534   5.441   6.267
    1AU     AUC   51   5.853   5.438   6.295
    1AU     AUC   52   5.587   6.273   5.755
    1AU     AUC   53   5.907   6.255   5.748
    1AU     AUC   54   5.547   5.458   5.747
    1AU     AUC   55   5.873   5.430   5.778
    1AU    AUSL   56   6.081   5.766   6.571
    1AU    AUSL   57   5.991   5.352   6.648
    1AU     AUL   58   6.229   5.392   6.908
    1AU       S   59   6.251   5.020   6.556
    1AU     LIG   60   6.112   4.783   6.882
    1AU     LIG   61   6.339   4.531   7.182
    1AU     LIG   62   6.582   4.213   7.434
    1AU     LIG   63   6.680   3.972   7.838
    1AU     LIG   64   6.705   3.825   8.300
    1AU     LIG   65   6.906   3.620   8.679
    1AU       S   66   6.142   5.773   7.187
    1AU     LIG   67   6.416   5.493   7.404
    1AU     LIG   68   6.627   5.424   7.824
    1AU     LIG   69   6.962   5.517   8.154
    1AU     LIG   70   7.357   5.495   8.419
    1AU     LIG   71   7.709   5.617   8.699
    1AU     LIG   72   7.923   5.575   9.109
    1AU    AUSL   73   5.811   5.667   6.870
    1AU    AUSL   74   5.666   6.064   6.792
    1AU     AUL   75   5.741   6.016   7.222
    1AU       S   76   5.875   5.654   7.002
    1AU     LIG   77   5.921   5.316   7.317
    1AU     LIG   78   6.168   5.153   7.724
    1AU     LIG   79   6.259   4.965   8.184
    1AU     LIG   80   6.270   4.753   8.640
    1AU     LIG   81   6.397   4.629   9.094
    1AU     LIG   82   6.530   4.807   9.517
    1AU       S   83   5.388   5.741   7.150
    1AU     LIG   84   5.258   5.660   7.615
    1AU     LIG   85   5.040   5.583   8.033
    1AU     LIG   86   4.990   5.720   8.489
    1AU     LIG   87   5.065   6.019   8.870
    1AU     LIG   88   4.966   6.286   9.254
    1AU     LIG   89   4.703   6.481   9.605
    1AU    AUSL   90   6.068   6.088   6.827
    1AU    AUSL   91   6.401   6.020   6.505
    1AU     AUL   92   6.371   5.820   6.796
    1AU       S   93   6.101   6.155   6.979
    1AU     LIG   94   6.290   6.225   7.392
    1AU     LIG   95   6.462   6.450   7.787
    1AU     LIG   96   6.540   6.657   8.221
    1AU     LIG   97   6.548   6.815   8.694
    1AU     LIG   98   6.660   6.871   9.176
    1AU     LIG   99   6.616   6.828   9.656
    1AU       S  100   6.707   6.085   6.605
    1AU     LIG  101   7.008   6.256   6.919
    1AU     LIG  102   7.210   6.441   7.311
    1AU     LIG  103   7.520   6.688   7.573
    1AU     LIG  104   7.852   6.743   7.924
    1AU     LIG  105   8.268   6.800   8.180
    1AU     LIG  106   8.651   6.986   8.409
    1AU    AUSL  107   6.258   5.878   5.412
    1AU    AUSL  108   6.078   6.276   5.339
    1AU     AUL  109   6.343   6.086   5.084
    1AU       S  110   6.317   5.605   4.898
    1AU     LIG  111   6.646   5.729   4.697
    1AU     LIG  112   6.704   5.518   4.300
    1AU     LIG  113   6.864   5.469   3.877
    1AU     LIG  114   7.290   5.548   3.666
    1AU     LIG  115   7.648   5.682   3.383
    1AU     LIG  116   7.754   5.734   2.916
    1AU       S  117   6.487   6.509   5.237
    1AU     LIG  118   6.631   6.785   4.939
    1AU     LIG  119   6.886   6.811   4.551
    1AU     LIG  120   7.131   6.835   4.159
    1AU     LIG  121   7.298   7.135   3.846
    1AU     LIG  122   7.486   7.531   3.691
    1AU     LIG  123   7.483   7.998   3.572
    1AU    AUSL  124   6.009   5.591   5.230
    1AU    AUSL  125   6.364   5.501   5.539
    1AU     AUL  126   6.480   5.683   5.316
    1AU       S  127   6.579   5.212   5.297
    1AU     LIG  128   6.758   4.867   5.028
    1AU     LIG  129   6.894   4.477   4.807
    1AU     LIG  130   7.107   4.260   4.441
    1AU     LIG  131   7.491   4.323   4.156
    1AU     LIG  132   7.837   4.446   3.850
    1AU     LIG  133   8.210   4.300   3.597
    1AU       S  134   5.980   5.398   5.032
    1AU     LIG  135   6.089   5.185   4.663
    1AU     LIG  136   6.299   5.177   4.250
    1AU     LIG  137   6.365   5.174   3.775
    1AU     LIG  138   6.342   5.039   3.300
    1AU     LIG  139   6.375   5.003   2.808
    1AU     LIG  140   6.599   4.991   2.367
    1AU    AUSL  141   5.849   5.951   5.425
    1AU    AUSL  142   5.615   5.692   5.181
    1AU     AUL  143   5.930   5.909   5.044
    1AU       S  144   5.571   5.694   4.839
    1AU     LIG  145   5.566   5.390   4.481
    1AU     LIG  146   5.295   5.204   4.127
    1AU     LIG  147   5.092   4.932   3.769
    1AU     LIG  148   4.997   4.781   3.314
    1AU     LIG  149   4.830   4.903   2.879
    1AU     LIG  150   4.691   5.128   2.467
    1AU       S  151   6.073   5.492   5.119
    1AU     LIG  152   5.985   5.674   4.572
    1AU     LIG  153   6.229   5.673   4.134
    1AU     LIG  154   6.417   5.677   3.676
    1AU     LIG  155   6.510   5.829   3.220
    1AU     LIG  156   6.719   6.164   2.936
    1AU     LIG  157   6.827   6.393   2.536
    1AU    AUSL  158   5.269   5.957   6.757
    1AU    AUSL  159   5.417   6.362   6.662
    1AU     AUL  160   5.477   6.282   6.967
    1AU       S  161   5.225   5.934   7.174
    1AU     LIG  162   4.915   5.564   7.247
    1AU     LIG  163   4.752   5.360   7.657
    1AU     LIG  164   4.559   5.331   8.126
    1AU     LIG  165   4.243   5.296   8.526
    1AU     LIG  166   4.014   5.442   8.950
    1AU     LIG  167   3.665   5.725   9.182
    1AU       S  168   5.050   6.380   6.775
    1AU     LIG  169   5.115   6.643   7.169
    1AU     LIG  170   5.029   6.906   7.561
    1AU     LIG  171   4.830   6.981   7.991
    1AU     LIG  172   4.744   7.200   8.416
    1AU     LIG  173   4.577   7.580   8.661
    1AU     LIG  174   4.341   8.004   8.691
    1AU    AUSL  175   5.556   5.731   6.558
    1AU    AUSL  176   5.081   5.670   6.529
    1AU     AUL  177   5.088   5.776   6.762
    1AU       S  178   4.892   5.350   6.778
    1AU     LIG  179   4.470   5.167   6.596
    1AU     LIG  180   4.076   4.911   6.676
    1AU     LIG  181   3.865   4.629   7.005
    1AU     LIG  182   3.721   4.335   7.355
    1AU     LIG  183   3.462   4.156   7.706
    1AU     LIG  184   3.166   4.259   8.071
    1AU       S  185   5.403   5.644   7.098
    1AU     LIG  186   5.328   5.251   7.315
    1AU     LIG  187   5.209   5.150   7.764
    1AU     LIG  188   5.013   5.085   8.197
    1AU     LIG  189   4.847   4.878   8.599
    1AU     LIG  190   4.834   4.739   9.058
    1AU     LIG  191   4.728   4.916   9.478
    1AU    AUSL  192   5.326   5.843   5.434
    1AU    AUSL  193   5.451   5.415   5.434
    1AU     AUL  194   5.275   5.537   5.159
    1AU       S  195   5.329   5.861   4.825
    1AU     LIG  196   5.101   5.596   4.524
    1AU     LIG  197   4.832   5.427   4.163
    1AU     LIG  198   4.633   5.210   3.782
    1AU     LIG  199   4.273   5.107   3.471
    1AU     LIG  200   3.977   5.186   3.101
    1AU     LIG  201   3.810   5.531   2.807
    1AU       S  202   5.001   5.158   5.297
    1AU     LIG  203   4.721   4.798   5.263
    1AU     LIG  204   4.411   4.534   5.055
    1AU     LIG  205   4.164   4.301   4.726
    1AU     LIG  206   4.227   4.090   4.284
    1AU     LIG  207   4.311   3.809   3.888
    1AU     LIG  208   4.152   3.467   3.588
    1AU    AUSL  209   5.559   6.122   5.184
    1AU    AUSL  210   5.063   6.160   5.499
    1AU     AUL  211   5.142   6.002   5.222
    1AU       S  212   4.950   6.432   5.276
    1AU     LIG  213   4.608   6.572   4.978
    1AU     LIG  214   4.515   6.710   4.531
    1AU     LIG  215   4.454   6.875   4.082
    1AU     LIG  216   4.127   7.026   3.775
    1AU     LIG  217   3.671   7.140   3.725
    1AU     LIG  218   3.433   7.526   3.635
    1AU       S  219   5.502   6.023   4.909
    1AU     LIG  220   5.528   5.910   4.387
    1AU     LIG  221   5.254   5.729   4.036
    1AU     LIG  222   5.079   5.833   3.593
    1AU     LIG  223   5.118   6.076   3.167
    1AU     LIG  224   5.115   6.244   2.707
    1AU     LIG  225   4.920   6.301   2.271
    1AU    AUSL  226   6.369   6.458   5.962
    1AU    AUSL  227   6.409   6.204   5.615
    1AU     AUL  228   6.462   6.670   5.735
    1AU       S  229   6.608   6.295   5.407
    1AU     LIG  230   6.872   6.301   5.007
    1AU     LIG  231   7.188   6.413   4.671
    1AU     LIG  232   7.509   6.518   4.339
    1AU     LIG  233   7.943   6.559   4.145
    1AU     LIG  234   8.298   6.827   3.986
    1AU     LIG  235   8.473   7.040   3.588
    1AU       S  236   6.842   6.400   5.836
    1AU     LIG  237   7.345   6.453   5.820
    1AU     LIG  238   7.835   6.523   5.924
    1AU     LIG  239   8.322   6.602   5.987
    1AU     LIG  240   8.742   6.891   6.012
    1AU     LIG  241   9.004   7.320   6.004
    1AU     LIG  242   9.226   7.728   6.171
    1AU    AUSL  243   6.589   5.878   5.787
    1AU    AUSL  244   6.546   5.719   6.202
    1AU     AUL  245   6.819   5.900   6.160
    1AU       S  246   6.843   5.984   5.699
    1AU     LIG  247   7.282   5.946   5.883
    1AU     LIG  248   7.773   6.027   5.806
    1AU     LIG  249   8.261   6.134   5.729
    1AU     LIG  250   8.757   6.080   5.671
    1AU     LIG  251   9.203   6.278   5.638
    1AU     LIG  252   9.559   6.600   5.483
    1AU       S  253   6.897   5.435   6.058
    1AU     LIG  254   7.244   5.102   6.121
    1AU     LIG  255   7.660   4.847   6.160
    1AU     LIG  256   8.060   4.596   6.217
    1AU     LIG  257   8.488   4.420   6.215
    1AU     LIG  258   8.862   4.333   6.468
    1AU     LIG  259   9.186   4.406   6.815
    1AU    AUSL  260   6.361   6.065   6.093
    1AU    AUSL  261   6.300   6.405   6.370
    1AU     AUL  262   6.572   6.315   6.212
    1AU       S  263   6.492   6.272   6.651
    1AU     LIG  264   6.816   6.613   6.603
    1AU     LIG  265   7.051   6.802   6.980
    1AU     LIG  266   7.326   7.093   7.260
    1AU     LIG  267   7.561   7.543   7.270
    1AU     LIG  268   7.830   7.957   7.331
    1AU     LIG  269   8.058   8.348   7.508
    1AU       S  270   6.855   6.252   5.850
    1AU     LIG  271   7.116   6.289   6.255
    1AU     LIG  272   7.594   6.203   6.262
    1AU     LIG  273   8.095   6.163   6.211
    1AU     LIG  274   8.594   6.180   6.148
    1AU     LIG  275   9.075   6.312   6.144
    1AU     LIG  276   9.427   6.556   6.391
    1AU    AUSL  277   5.070   6.404   6.101
    1AU    AUSL  278   5.233   6.109   6.380
    1AU     AUL  279   4.998   6.557   6.297
    1AU       S  280   4.918   6.240   6.651
    1AU     LIG  281   4.654   6.442   7.054
    1AU     LIG  282   4.576   6.677   7.473
    1AU     LIG  283   4.372   6.738   7.925
    1AU     LIG  284   4.033   6.827   8.282
    1AU     LIG  285   3.600   7.044   8.399
    1AU     LIG  286   3.210   7.289   8.548
    1AU       S  287   4.600   6.398   6.119
    1AU     LIG  288   4.579   6.880   6.196
    1AU     LIG  289   4.328   7.315   6.122
    1AU     LIG  290   3.982   7.666   6.096
    1AU     LIG  291   3.548   7.888   6.029
    1AU     LIG  292   3.115   8.126   6.141
    1AU     LIG  293   2.698   8.151   6.420
    1AU    AUSL  294   5.167   6.076   5.879
    1AU    AUSL  295   5.259   6.526   5.748
    1AU     AUL  296   4.994   6.425   5.752
    1AU       S  297   4.585   6.438   5.945
    1AU     LIG  298   4.527   6.673   5.503
    1AU     LIG  299   4.134   6.961   5.331
    1AU     LIG  300   3.618   7.007   5.290
    1AU     LIG  301   3.093   6.930   5.241
    1AU     LIG  302   2.597   6.756   5.199
    1AU     LIG  303   2.126   6.903   5.094
    1AU       S  304   5.057   6.701   5.376
    1AU     LIG  305   4.869   6.991   5.087
    1AU     LIG  306   4.810   7.346   4.795
    1AU     LIG  307   4.507   7.679   4.818
    1AU     LIG  308   4.385   8.083   4.623
    1AU     LIG  309   4.079   8.368   4.414
    1AU     LIG  310   3.821   8.739   4.261
    1AU    AUSL  311   4.880   6.020   6.205
    1AU    AUSL  312   4.887   5.779   5.835
    1AU     AUL  313   4.763   6.035   5.827
    1AU       S  314   4.567   5.593   5.973
    1AU     LIG  315   4.194   5.495   6.295
    1AU     LIG  316   3.710   5.399   6.365
    1AU     LIG  317   3.300   5.159   6.251
    1AU     LIG  318   2.904   5.023   5.949
    1AU     LIG  319   2.408   5.010   5.900
    1AU     LIG  320   2.004   4.915   5.647
    1AU       S  321   4.662   6.109   6.281
    1AU     LIG  322   4.485   6.492   6.575
    1AU     LIG  323   4.055   6.677   6.696
    1AU     LIG  324   3.556   6.722   6.718
    1AU     LIG  325   3.064   6.787   6.665
    1AU     LIG  326   2.657   7.041   6.730
    1AU     LIG  327   2.213   6.911   6.805
    1AU    AUSL  328   6.415   5.333   6.073
    1AU    AUSL  329   6.359   5.485   6.479
    1AU     AUL  330   6.654   5.530   6.450
    1AU       S  331   6.705   5.207   6.114
    1AU     LIG  332   6.829   4.791   6.072
    1AU     LIG  333   7.243   4.555   6.040
    1AU     LIG  334   7.679   4.353   5.957
    1AU     LIG  335   8.128   4.149   5.951
    1AU     LIG  336   8.478   3.895   6.173
    1AU     LIG  337   8.855   3.814   6.496
    1AU       S  338   6.352   5.168   6.520
    1AU     LIG  339   6.626   4.864   6.837
    1AU     LIG  340   6.863   4.553   7.143
    1AU     LIG  341   7.101   4.301   7.490
    1AU     LIG  342   7.464   4.220   7.808
    1AU     LIG  343   7.805   4.265   8.165
    1AU     LIG  344   8.241   4.260   8.393
    1AU    AUSL  345   6.258   5.673   5.890
    1AU    AUSL  346   6.175   5.186   5.766
    1AU     AUL  347   6.450   5.301   5.738
    1AU       S  348   6.820   5.483   5.901
    1AU     LIG  349   6.995   5.095   5.672
    1AU     LIG  350   7.456   4.863   5.684
    1AU     LIG  351   7.955   4.727   5.730
    1AU     LIG  352   8.408   4.513   5.700
    1AU     LIG  353   8.831   4.416   5.496
    1AU     LIG  354   9.203   4.692   5.535
    1AU       S  355   6.458   4.929   5.459
    1AU     LIG  356   6.519   4.490   5.279
    1AU     LIG  357   6.643   4.091   5.040
    1AU     LIG  358   6.876   3.739   4.797
    1AU     LIG  359   7.106   3.290   4.817
    1AU     LIG  360   7.519   3.041   4.733
    1AU     LIG  361   8.004   3.088   4.633
    1AU    AUSL  362   5.003   5.377   5.974
    1AU    AUSL  363   5.084   5.542   5.572
    1AU     AUL  364   4.799   5.629   5.554
    1AU       S  365   4.994   5.213   5.523
    1AU     LIG  366   4.516   5.196   5.516
    1AU     LIG  367   4.219   5.020   5.226
    1AU     LIG  368   3.977   4.775   4.929
    1AU     LIG  369   3.693   4.515   4.683
    1AU     LIG  370   3.424   4.448   4.306
    1AU     LIG  371   3.158   4.468   3.909
    1AU       S  372   4.724   5.370   5.931
    1AU     LIG  373   4.401   5.099   6.042
    1AU     LIG  374   3.985   5.023   6.166
    1AU     LIG  375   3.617   4.767   6.294
    1AU     LIG  376   3.151   4.644   6.202
    1AU     LIG  377   2.733   4.394   6.099
    1AU     LIG  378   2.498   4.010   5.932
    1AU    AUSL  379   5.165   5.729   6.140
    1AU    AUSL  380   5.232   5.340   6.325
    1AU     AUL  381   4.895   5.496   6.336
    1AU       S  382   4.969   5.163   6.656
    1AU     LIG  383   4.836   4.972   6.281
    1AU     LIG  384   4.432   4.693   6.357
    1AU     LIG  385   4.194   4.397   6.686
    1AU     LIG  386   3.911   4.076   6.955
    1AU     LIG  387   3.689   3.738   7.255
    1AU     LIG  388   3.588   3.258   7.371
    1AU       S  389   4.606   5.647   6.021
    1AU     LIG  390   4.143   5.453   5.788
    1AU     LIG  391   3.676   5.350   5.851
    1AU     LIG  392   3.191   5.459   5.870
    1AU     LIG  393   2.864   5.421   6.245
    1AU     LIG  394   2.385   5.367   6.315
    1AU     LIG  395   1.954   5.257   6.507
    1AU    AUSL  396   5.780   6.532   6.543
    1AU    AUSL  397   5.448   6.438   6.263
    1AU     AUL  398   5.471   6.714   6.556
    1AU       S  399   5.136   6.442   6.705
    1AU     LIG  400   4.855   6.832   6.754
    1AU     LIG  401   4.758   7.095   7.150
    1AU     LIG  402   4.711   7.542   7.379
    1AU     LIG  403   4.616   8.039   7.405
    1AU     LIG  404   4.342   8.430   7.482
    1AU     LIG  405   3.908   8.548   7.626
    1AU       S  406   5.904   6.928   6.507
    1AU     LIG  407   6.025   7.251   6.817
    1AU     LIG  408   6.082   7.667   7.021
    1AU     LIG  409   6.139   7.916   7.427
    1AU     LIG  410   6.091   8.175   7.832
    1AU     LIG  411   5.915   8.512   8.125
    1AU     LIG  412   5.844   8.972   8.232
    1AU    AUSL  413   5.636   6.762   6.124
    1AU    AUSL  414   5.966   6.692   5.803
    1AU     AUL  415   5.531   6.938   5.909
    1AU       S  416   5.849   6.964   6.263
    1AU     LIG  417   5.794   7.423   6.389
    1AU     LIG  418   5.686   7.807   6.670
    1AU     LIG  419   5.491   8.234   6.814
    1AU     LIG  420   5.375   8.704   6.901
    1AU     LIG  421   5.342   9.186   7.037
    1AU     LIG  422   5.171   9.634   7.071
    1AU       S  423   6.017   6.901   5.782
    1AU     LIG  424   6.363   7.181   5.613
    1AU     LIG  425   6.448   7.629   5.382
    1AU     LIG  426   6.710   8.082   5.319
    1AU     LIG  427   6.834   8.576   5.258
    1AU     LIG  428   6.889   9.062   5.207
    1AU     LIG  429   6.856   9.531   5.114
    1AU    AUSL  430   5.962   6.505   6.170
    1AU    AUSL  431   5.963   6.175   6.448
    1AU     AUL  432   6.097   6.520   6.612
    1AU       S  433   6.505   6.274   6.772
    1AU     LIG  434   6.608   6.526   7.106
    1AU     LIG  435   6.804   6.719   7.463
    1AU     LIG  436   7.090   6.889   7.778
    1AU     LIG  437   7.207   7.071   8.201
    1AU     LIG  438   7.259   7.414   8.529
    1AU     LIG  439   7.398   7.819   8.739
    1AU       S  440   6.110   6.832   6.250
    1AU     LIG  441   6.294   7.265   6.377
    1AU     LIG  442   6.409   7.708   6.595
    1AU     LIG  443   6.694   8.142   6.665
    1AU     LIG  444   6.858   8.631   6.704
    1AU     LIG  445   6.694   9.085   6.667
    1AU     LIG  446   6.792   9.546   6.782
    1AU    AUSL  447   5.662   5.303   6.411
    1AU    AUSL  448   6.038   5.392   6.231
    1AU     AUL  449   5.832   5.150   6.676
    1AU       S  450   5.727   4.727   6.538
    1AU     LIG  451   5.809   4.338   6.741
    1AU     LIG  452   5.485   4.013   6.784
    1AU     LIG  453   5.345   3.585   6.874
    1AU     LIG  454   5.335   3.265   7.230
    1AU     LIG  455   5.384   3.082   7.678
    1AU     LIG  456   5.490   2.773   8.030
    1AU       S  457   6.325   4.993   6.375
    1AU     LIG  458   6.370   4.535   6.511
    1AU     LIG  459   6.590   4.245   6.832
    1AU     LIG  460   6.923   4.000   7.099
    1AU     LIG  461   7.240   3.651   7.272
    1AU     LIG  462   7.535   3.247   7.336
    1AU     LIG  463   7.942   2.983   7.380
    1AU    AUSL  464   5.472   5.069   6.135
    1AU    AUSL  465   5.402   5.393   6.715
    1AU     AUL  466   5.390   5.064   6.488
    1AU       S  467   5.598   4.652   6.416
    1AU     LIG  468   5.421   4.263   6.249
    1AU     LIG  469   5.296   3.808   6.347
    1AU     LIG  470   5.020   3.443   6.482
    1AU     LIG  471   4.746   3.049   6.514
    1AU     LIG  472   4.618   2.681   6.771
    1AU     LIG  473   4.639   2.238   6.858
    1AU       S  474   5.171   5.297   6.829
    1AU     LIG  475   4.850   5.032   7.141
    1AU     LIG  476   4.453   4.750   7.031
    1AU     LIG  477   4.248   4.357   7.221
    1AU     LIG  478   4.083   3.985   7.478
    1AU     LIG  479   4.003   3.682   7.843
    1AU     LIG  480   4.034   3.629   8.318
    1AU    AUSL  481   5.897   5.008   6.205
    1AU    AUSL  482   5.445   5.061   5.722
    1AU     AUL  483   5.448   4.841   6.030
    1AU       S  484   5.507   4.730   5.588
    1AU     LIG  485   5.239   4.425   5.767
    1AU     LIG  486   5.182   3.953   5.746
    1AU     LIG  487   5.119   3.512   5.540
    1AU     LIG  488   4.855   3.090   5.450
    1AU     LIG  489   4.643   2.682   5.267
    1AU     LIG  490   4.570   2.237   5.122
    1AU       S  491   5.845   4.848   6.289
    1AU     LIG  492   5.946   4.380   6.214
    1AU     LIG  493   5.807   3.950   6.383
    1AU     LIG  494   5.726   3.493   6.514
    1AU     LIG  495   5.950   3.041   6.531
    1AU     LIG  496   6.077   2.600   6.706
    1AU     LIG  497   6.227   2.247   6.981
    1AU    AUSL  498   5.755   6.499   5.472
    1AU    AUSL  499   6.047   6.288   5.769
    1AU     AUL  500   6.092   6.555   5.463
    1AU       S  501   5.828   6.935   5.396
    1AU     LIG  502   6.180   7.047   5.155
    1AU     LIG  503   6.206   7.465   4.930
    1AU     LIG  504   6.115   7.716   4.520
    1AU     LIG  505   6.075   8.065   4.194
    1AU     LIG  506   6.042   8.484   3.990
    1AU     LIG  507   5.998   8.815   3.662
    1AU       S  508   6.507   6.281   5.502
    1AU     LIG  509   6.930   6.645   5.407
    1AU     LIG  510   7.143   6.809   5.013
    1AU     LIG  511   7.341   7.138   4.720
    1AU     LIG  512   7.584   7.576   4.681
    1AU     LIG  513   7.794   8.005   4.561
    1AU     LIG  514   7.817   8.427   4.313
    1AU    AUSL  515   5.639   6.440   5.874
    1AU    AUSL  516   5.469   6.223   5.563
    1AU     AUL  517   5.490   6.653   5.550
    1AU       S  518   5.902   6.935   5.651
    1AU     LIG  519   5.945   7.418   5.450
    1AU     LIG  520   5.953   7.855   5.211
    1AU     LIG  521   5.769   8.316   5.083
    1AU     LIG  522   5.458   8.716   4.980
    1AU     LIG  523   5.421   9.200   4.844
    1AU     LIG  524   5.008   9.405   4.728
    1AU       S  525   5.247   6.481   5.198
    1AU     LIG  526   5.081   6.638   4.774
    1AU     LIG  527   4.959   6.893   4.366
    1AU     LIG  528   4.917   7.017   3.896
    1AU     LIG  529   4.896   7.381   3.590
    1AU     LIG  530   4.602   7.719   3.444
    1AU     LIG  531   4.286   7.934   3.151
    1AU    AUSL  532   5.784   5.178   5.458
    1AU    AUSL  533   5.386   5.441   5.847
    1AU     AUL  534   5.450   5.154   5.414
    1AU       S  535   5.001   5.064   5.629
    1AU     LIG  536   4.694   4.784   5.777
    1AU     LIG  537   4.291   4.634   5.554
    1AU     LIG  538   3.963   4.384   5.260
    1AU     LIG  539   3.712   4.070   4.981
    1AU     LIG  540   3.425   3.658   4.909
    1AU     LIG  541   3.246   3.318   4.627
    1AU       S  542   5.723   4.800   5.567
    1AU     LIG  543   5.631   4.445   5.223
    1AU     LIG  544   5.325   4.096   5.239
    1AU     LIG  545   5.369   3.649   5.104
    1AU     LIG  546   5.372   3.348   4.724
    1AU     LIG  547   5.358   3.160   4.271
    1AU     LIG  548   5.457   2.850   3.920
    1AU    AUSL  549   5.789   5.226   5.880
    1AU    AUSL  550   5.942   5.517   5.615
    1AU     AUL  551   6.037   5.138   5.489
    1AU       S  552   5.826   4.818   5.770
    1AU     LIG  553   5.740   4.311   5.736
    1AU     LIG  554   5.651   3.863   5.552
    1AU     LIG  555   5.700   3.394   5.447
    1AU     LIG  556   6.027   3.015   5.448
    1AU     LIG  557   6.281   2.626   5.322
    1AU     LIG  558   6.484   2.235   5.122
    1AU       S  559   6.394   5.170   5.214
    1AU     LIG  560   6.210   4.832   5.023
    1AU     LIG  561   6.374   4.471   4.775
    1AU     LIG  562   6.601   4.141   4.523
    1AU     LIG  563   6.760   3.927   4.142
    1AU     LIG  564   6.944   3.712   3.774
    1AU     LIG  565   7.234   3.558   3.453
    2POPC   NC3  566   1.389   2.512   7.946
    2POPC   PO4  567   1.120   3.081   8.153
    2POPC   GL1  568   1.224   2.975   7.735
    2POPC   GL2  569   0.895   2.816   7.686
    2POPC   C1A  570   1.275   2.718   7.336
    2POPC   D2A  571   1.507   2.698   6.959
    2POPC   C3A  572   1.365   2.751   6.559
    2POPC   C4A  573   1.655   2.967   6.301
    2POPC   C1B  574   0.898   3.048   7.288
    2POPC   C2B  575   0.994   3.069   6.848
    2POPC   C3B  576   0.867   2.862   6.464
    2POPC   C4B  577   1.132   2.752   6.091
    3POPC   NC3  578   2.745   1.953   8.103
    3POPC   PO4  579   3.219   2.296   7.720
    3POPC   GL1  580   3.013   1.895   7.599
    3POPC   GL2  581   2.679   1.737   7.645
    3POPC   C1A  582   3.059   1.893   7.168
    3POPC   D2A  583   3.176   1.983   6.775
    3POPC   C3A  584   3.000   1.886   6.461
    3POPC   C4A  585   3.055   1.964   6.087
    3POPC   C1B  586   2.587   1.991   7.291
    3POPC   C2B  587   2.624   2.125   6.861
    3POPC   C3B  588   2.505   2.038   6.447
    3POPC   C4B  589   2.597   2.161   6.009
    4POPC   NC3  590   8.561   5.237   8.190
    4POPC   PO4  591   9.050   5.494   8.246
    4POPC   GL1  592   8.938   5.291   7.819
    4POPC   GL2  593   8.950   4.927   7.698
    4POPC   C1A  594   8.966   5.292   7.326
    4POPC   D2A  595   9.205   5.176   6.915
    4POPC   C3A  596   9.073   5.236   6.456
    4POPC   C4A  597   8.810   5.285   6.068
    4POPC   C1B  598   8.987   4.786   7.214
    4POPC   C2B  599   8.874   4.816   6.745
    4POPC   C3B  600   8.834   4.811   6.297
    4POPC   C4B  601   8.919   4.537   5.971
    5POPC   NC3  602   1.392   0.510   8.115
    5POPC   PO4  603   0.821   0.810   7.989
    5POPC   GL1  604   0.983   0.431   7.742
    5POPC   GL2  605   1.227   0.152   7.793
    5POPC   C1A  606   0.907   0.302   7.312
    5POPC   D2A  607   0.827   0.501   6.911
    5POPC   C3A  608   0.837   0.181   6.608
    5POPC   C4A  609   0.866  11.480   6.234
    5POPC   C1B  610   1.424   0.363   7.417
    5POPC   C2B  611   1.344   0.523   6.982
    5POPC   C3B  612   1.236   0.492   6.538
    5POPC   C4B  613   1.283   0.271   6.158
    6POPC   NC3  614   8.009   2.508   7.966
    6POPC   PO4  615   7.613   3.081   7.981
    6POPC   GL1  616   7.555   2.745   7.657
    6POPC   GL2  617   7.239   2.576   7.756
    6POPC   C1A  618   7.535   2.714   7.179
    6POPC   D2A  619   7.389   2.851   6.740
    6POPC   C3A  620   7.597   2.762   6.323
    6POPC   C4A  621   7.639   2.896   5.871
    6POPC   C1B  622   7.172   2.399   7.361
    6POPC   C2B  623   7.169   2.407   6.910
    6POPC   C3B  624   7.099   2.505   6.462
    6POPC   C4B  625   7.270   2.473   6.044
    7POPC   NC3  626   2.142   5.671   8.165
    7POPC   PO4  627   1.668   6.087   8.069
    7POPC   GL1  628   1.667   5.912   7.671
    7POPC   GL2  629   2.023   5.898   7.673
    7POPC   C1A  630   1.627   6.094   7.249
    7POPC   D2A  631   1.854   6.063   6.867
    7POPC   C3A  632   1.683   6.058   6.450
    7POPC   C4A  633   1.746   5.680   6.231
    7POPC   C1B  634   1.924   5.686   7.281
    7POPC   C2B  635   2.074   5.608   6.866
    7POPC   C3B  636   2.145   5.826   6.485
    7POPC   C4B  637   2.213   5.763   6.033
    8POPC   NC3  638   0.379   5.468   8.168
    8POPC   PO4  639   0.029   4.877   8.143
    8POPC   GL1  640   0.205   5.022   7.818
    8POPC   GL2  641   0.537   5.068   7.863
    8POPC   C1A  642   0.093   4.823   7.401
    8POPC   D2A  643   0.157   4.601   6.997
    8POPC   C3A  644   0.011   4.772   6.602
    8POPC   C4A  645   0.209   4.848   6.239
    8POPC   C1B  646   0.514   5.149   7.443
    8POPC   C2B  647   0.463   5.010   7.030
    8POPC   C3B  648   0.440   5.144   6.567
    8POPC   C4B  649   0.632   5.131   6.148
    9POPC   NC3  650  11.169   5.298   8.142
    9POPC   PO4  651  11.008   4.753   8.408
    9POPC   GL1  652  11.083   4.870   7.871
    9POPC   GL2  653  11.243   5.148   7.685
    9POPC   C1A  654  11.049   4.839   7.374
    9POPC   D2A  655  11.024   5.100   6.972
    9POPC   C3A  656  10.963   4.926   6.572
    9POPC   C4A  657  11.087   4.830   6.172
    9POPC   C1B  658  11.386   5.276   7.295
    9POPC   C2B  659   0.028   5.200   6.868
    9POPC   C3B  660  11.402   5.249   6.387
    9POPC   C4B  661  11.190   5.288   5.945
   10POPC   NC3  662  11.389   8.058   8.053
   10POPC   PO4  663  10.691   8.308   8.098
   10POPC   GL1  664  10.953   8.299   7.710
   10POPC   GL2  665  11.314   8.385   7.659
   10POPC   C1A  666  10.812   8.390   7.286
   10POPC   D2A  667  10.922   8.508   6.875
   10POPC   C3A  668  11.045   8.197   6.610
   10POPC   C4A  669  10.979   8.052   6.206
   10POPC   C1B  670  11.268   8.109   7.294
   10POPC   C2B  671  11.472   8.087   6.886
   10POPC   C3B  672  11.471   7.966   6.479
   10POPC   C4B  673  11.414   8.285   6.208
   11POPC   NC3  674   3.521   2.424   8.048
   11POPC   PO4  675   4.178   2.535   8.309
   11POPC   GL1  676   3.952   2.532   7.827
   11POPC   GL2  677   3.616   2.763   7.678
   11POPC   C1A  678   3.832   2.434   7.383
   11POPC   D2A  679   3.640   2.685   7.094
   11POPC   C3A  680   3.759   2.539   6.704
   11POPC   C4A  681   3.755   2.807   6.376
   11POPC   C1B  682   3.228   2.853   7.375
   11POPC   C2B  683   3.121   2.945   6.928
   11POPC   C3B  684   3.202   2.845   6.467
   11POPC   C4B  685   3.416   3.166   6.200
   12POPC   NC3  686   4.783   7.967   8.042
   12POPC   PO4  687   5.168   7.573   7.964
   12POPC   GL1  688   5.069   7.870   7.599
   12POPC   GL2  689   5.093   8.220   7.706
   12POPC   C1A  690   5.011   7.872   7.110
   12POPC   D2A  691   5.139   7.877   6.661
   12POPC   C3A  692   4.793   7.956   6.357
   12POPC   C4A  693   4.412   8.088   6.123
   12POPC   C1B  694   5.185   8.316   7.258
   12POPC   C2B  695   4.992   8.362   6.827
   12POPC   C3B  696   5.173   8.310   6.386
   12POPC   C4B  697   5.248   7.942   6.106
   13POPC   NC3  698   8.470   0.944   8.020
   13POPC   PO4  699   7.765   1.101   8.135
   13POPC   GL1  700   8.014   1.113   7.757
   13POPC   GL2  701   7.835   1.359   7.546
   13POPC   C1A  702   8.075   0.907   7.354
   13POPC   D2A  703   7.935   1.027   6.917
   13POPC   C3A  704   8.244   0.967   6.589
   13POPC   C4A  705   8.284   1.103   6.171
   13POPC   C1B  706   8.168   1.399   7.213
   13POPC   C2B  707   8.225   1.454   6.775
   13POPC   C3B  708   7.928   1.355   6.443
   13POPC   C4B  709   7.756   1.657   6.147
   14POPC   NC3  710   1.128   9.578   8.115
   14POPC   PO4  711   0.864  10.190   8.140
   14POPC   GL1  712   1.039   9.942   7.767
   14POPC   GL2  713   1.410   9.870   7.777
   14POPC   C1A  714   0.891   9.962   7.348
   14POPC   D2A  715   1.139   9.938   6.975
   14POPC   C3A  716   1.077   9.667   6.617
   14POPC   C4A  717   1.155   9.878   6.231
   14POPC   C1B  718   1.332   9.674   7.387
   14POPC   C2B  719   1.514   9.553   6.993
   14POPC   C3B  720   1.587   9.634   6.592
   14POPC   C4B  721   1.470   9.485   6.195
   15POPC   NC3  722   1.276  10.564   8.198
   15POPC   PO4  723   0.733  10.696   7.842
   15POPC   GL1  724   0.977  10.432   7.651
   15POPC   GL2  725   1.343  10.398   7.701
   15POPC   C1A  726   1.072  10.426   7.235
   15POPC   D2A  727   1.335  10.494   6.904
   15POPC   C3A  728   1.154  10.287   6.557
   15POPC   C4A  729   0.937  10.342   6.175
   15POPC   C1B  730   1.518  10.183   7.318
   15POPC   C2B  731   1.625  10.054   6.878
   15POPC   C3B  732   1.622  10.120   6.413
   15POPC   C4B  733   1.438  10.321   6.062
   16POPC   NC3  734   3.603   9.371   8.264
   16POPC   PO4  735   3.068   9.213   7.979
   16POPC   GL1  736   3.439   9.466   7.772
   16POPC   GL2  737   3.662   9.774   7.829
   16POPC   C1A  738   3.462   9.565   7.326
   16POPC   D2A  739   3.330   9.739   6.915
   16POPC   C3A  740   3.303   9.569   6.460
   16POPC   C4A  741   3.194   9.523   6.015
   16POPC   C1B  742   3.727   9.993   7.393
   16POPC   C2B  743   3.817   9.960   6.920
   16POPC   C3B  744   3.794   9.739   6.488
   16POPC   C4B  745   3.667   9.734   6.028
   17POPC   NC3  746  10.453   1.269   8.349
   17POPC   PO4  747  10.345   1.789   7.986
   17POPC   GL1  748  10.280   1.493   7.665
   17POPC   GL2  749  10.391   1.152   7.736
   17POPC   C1A  750  10.539   1.380   7.281
   17POPC   D2A  751  10.684   1.235   6.880
   17POPC   C3A  752  10.622   1.569   6.628
   17POPC   C4A  753  10.527   1.581   6.221
   17POPC   C1B  754  10.096   1.126   7.362
   17POPC   C2B  755  10.215   1.054   6.951
   17POPC   C3B  756  10.235   1.216   6.535
   17POPC   C4B  757  10.229   1.053   6.096
   18POPC   NC3  758   3.823  11.334   8.165
   18POPC   PO4  759   3.283   0.050   7.847
   18POPC   GL1  760   3.637  11.389   7.684
   18POPC   GL2  761   3.554  11.046   7.688
   18POPC   C1A  762   3.771  11.335   7.278
   18POPC   D2A  763   3.731  11.033   6.955
   18POPC   C3A  764   3.675  11.179   6.576
   18POPC   C4A  765   3.738   0.005   6.292
   18POPC   C1B  766   3.299  11.058   7.287
   18POPC   C2B  767   3.238  10.920   6.840
   18POPC   C3B  768   3.261  10.994   6.381
   18POPC   C4B  769   3.591  10.997   6.061
   19POPC   NC3  770  11.368   6.278   8.157
   19POPC   PO4  771  11.218   6.935   7.968
   19POPC   GL1  772  11.259   6.717   7.631
   19POPC   GL2  773  11.240   6.384   7.695
   19POPC   C1A  774  11.213   6.801   7.208
   19POPC   D2A  775  11.097   6.979   6.792
   19POPC   C3A  776  11.198   6.809   6.323
   19POPC   C4A  777  10.893   6.959   5.938
   19POPC   C1B  778  11.272   6.298   7.257
   19POPC   C2B  779  11.033   6.467   6.887
   19POPC   C3B  780  11.047   6.326   6.466
   19POPC   C4B  781  11.450   6.233   6.272
   20POPC   NC3  782  10.381   0.276   8.440
   20POPC   PO4  783  10.905   0.143   8.075
   20POPC   GL1  784  10.672   0.259   7.702
   20POPC   GL2  785  10.302   0.332   7.731
   20POPC   C1A  786  10.520   0.215   7.260
   20POPC   D2A  787  10.480  11.477   6.896
   20POPC   C3A  788  10.543   0.237   6.544
   20POPC   C4A  789  10.702   0.181   6.123
   20POPC   C1B  790  10.330   0.662   7.373
   20POPC   C2B  791  10.458   0.611   6.920
   20POPC   C3B  792  10.253   0.687   6.515
   20POPC   C4B  793  10.228   0.411   6.182
   21POPC   NC3  794   6.948   1.155   7.982
   21POPC   PO4  795   6.252   1.194   8.056
   21POPC   GL1  796   6.504   0.982   7.711
   21POPC   GL2  797   6.288   0.757   7.518
   21POPC   C1A  798   6.848   1.044   7.370
   21POPC   D2A  799   6.807   1.207   6.970
   21POPC   C3A  800   6.556   0.965   6.709
   21POPC   C4A  801   6.533   1.183   6.335
   21POPC   C1B  802   6.345   1.093   7.205
   21POPC   C2B  803   6.311   1.441   6.897
   21POPC   C3B  804   6.364   1.666   6.486
   21POPC   C4B  805   6.219   1.497   6.091
   22POPC   NC3  806   8.919  11.020   7.934
   22POPC   PO4  807   9.309  10.493   7.920
   22POPC   GL1  808   9.200  10.813   7.566
   22POPC   GL2  809   9.110  11.222   7.533
   22POPC   C1A  810   8.956  10.868   7.192
   22POPC   D2A  811   8.657  10.785   6.850
   22POPC   C3A  812   8.649  11.012   6.491
   22POPC   C4A  813   8.974  11.014   6.258
   22POPC   C1B  814   8.694  11.269   7.334
   22POPC   C2B  815   8.795  11.301   6.900
   22POPC   C3B  816   8.709   0.030   6.521
   22POPC   C4B  817   8.740  11.452   6.079
   23POPC   NC3  818   0.459   1.064   7.845
   23POPC   PO4  819   0.791   1.610   7.987
   23POPC   GL1  820   0.624   1.491   7.623
   23POPC   GL2  821   0.242   1.502   7.671
   23POPC   C1A  822   0.571   1.558   7.198
   23POPC   D2A  823   0.489   1.317   6.838
   23POPC   C3A  824   0.471   1.598   6.499
   23POPC   C4A  825   0.286   1.546   6.093
   23POPC   C1B  826   0.129   1.272   7.285
   23POPC   C2B  827  11.467   1.095   6.927
   23POPC   C3B  828   0.079   1.241   6.514
   23POPC   C4B  829   0.459   1.074   6.316
   24POPC   NC3  830   4.235   8.599   8.198
   24POPC   PO4  831   4.048   9.215   8.178
   24POPC   GL1  832   4.043   9.019   7.793
   24POPC   GL2  833   4.355   8.884   7.738
   24POPC   C1A  834   4.038   8.944   7.326
   24POPC   D2A  835   4.164   8.611   7.020
   24POPC   C3A  836   4.134   8.696   6.549
   24POPC   C4A  837   4.079   8.491   6.144
   24POPC   C1B  838   4.537   8.885   7.290
   24POPC   C2B  839   4.423   9.012   6.844
   24POPC   C3B  840   4.537   8.969   6.394
   24POPC   C4B  841   4.702   9.166   6.035
   25POPC   NC3  842   3.537   1.349   8.185
   25POPC   PO4  843   3.214   0.697   8.060
   25POPC   GL1  844   3.261   0.875   7.650
   25POPC   GL2  845   3.533   1.117   7.561
   25POPC   C1A  846   3.151   1.017   7.238
   25POPC   D2A  847   3.344   1.093   6.834
   25POPC   C3A  848   3.142   1.125   6.428
   25POPC   C4A  849   3.160   1.476   6.131
   25POPC   C1B  850   3.832   1.395   7.292
   25POPC   C2B  851   3.999   1.517   6.866
   25POPC   C3B  852   3.904   1.459   6.429
   25POPC   C4B  853   3.614   1.181   6.327
   26POPC   NC3  854   5.583   9.643   8.309
   26POPC   PO4  855   6.100   9.931   8.231
   26POPC   GL1  856   6.001   9.737   7.782
   26POPC   GL2  857   5.673   9.572   7.794
   26POPC   C1A  858   6.014   9.858   7.304
   26POPC   D2A  859   6.209   9.742   6.884
   26POPC   C3A  860   5.979   9.862   6.508
   26POPC   C4A  861   6.001   9.893   6.062
   26POPC   C1B  862   5.617   9.528   7.340
   26POPC   C2B  863   5.666   9.647   6.891
   26POPC   C3B  864   5.530   9.562   6.447
   26POPC   C4B  865   5.700   9.483   6.010
   27POPC   NC3  866  11.085  10.451   8.047
   27POPC   PO4  867  10.751   9.926   7.801
   27POPC   GL1  868  11.110  10.116   7.632
   27POPC   GL2  869  11.123  10.486   7.545
   27POPC   C1A  870  11.192  10.040   7.212
   27POPC   D2A  871  10.937  10.097   6.845
   27POPC   C3A  872  11.196  10.303   6.578
   27POPC   C4A  873  11.268  10.102   6.175
   27POPC   C1B  874  10.825  10.763   7.312
   27POPC   C2B  875  11.017  10.693   6.925
   27POPC   C3B  876  11.099  10.852   6.523
   27POPC   C4B  877  11.317  10.636   6.223
   28POPC   NC3  878   5.448   0.139   7.929
   28POPC   PO4  879   5.004   0.594   8.235
   28POPC   GL1  880   5.211   0.554   7.784
   28POPC   GL2  881   5.125   0.283   7.554
   28POPC   C1A  882   5.375   0.615   7.300
   28POPC   D2A  883   5.096   0.374   7.006
   28POPC   C3A  884   5.168   0.362   6.570
   28POPC   C4A  885   5.283   0.662   6.286
   28POPC   C1B  886   4.881   0.661   7.405
   28POPC   C2B  887   4.642   0.699   7.040
   28POPC   C3B  888   4.767   0.708   6.602
   28POPC   C4B  889   4.801   0.977   6.253
   29POPC   NC3  890   8.713   2.613   8.039
   29POPC   PO4  891   8.237   2.919   8.012
   29POPC   GL1  892   8.535   2.884   7.626
   29POPC   GL2  893   8.784   2.580   7.531
   29POPC   C1A  894   8.844   3.041   7.308
   29POPC   D2A  895   8.964   3.338   6.964
   29POPC   C3A  896   8.989   3.183   6.532
   29POPC   C4A  897   8.697   3.025   6.175
   29POPC   C1B  898   9.106   2.619   7.179
   29POPC   C2B  899   9.011   2.667   6.741
   29POPC   C3B  900   9.068   2.708   6.311
   29POPC   C4B  901   9.049   2.580   5.878
   30POPC   NC3  902   7.357  10.643   8.260
   30POPC   PO4  903   7.640  10.813   7.695
   30POPC   GL1  904   7.356  10.525   7.562
   30POPC   GL2  905   7.432  10.252   7.790
   30POPC   C1A  906   7.280  10.395   7.148
   30POPC   D2A  907   6.988  10.475   6.828
   30POPC   C3A  908   7.173  10.646   6.481
   30POPC   C4A  909   7.506  10.635   6.203
   30POPC   C1B  910   7.709  10.158   7.440
   30POPC   C2B  911   7.635  10.074   7.007
   30POPC   C3B  912   7.515  10.262   6.614
   30POPC   C4B  913   7.472  10.116   6.187
   31POPC   NC3  914  10.315   4.509   7.604
   31POPC   PO4  915  10.229   4.028   7.957
   31POPC   GL1  916  10.072   4.066   7.537
   31POPC   GL2  917   9.734   4.100   7.548
   31POPC   C1A  918  10.065   4.227   7.071
   31POPC   D2A  919  10.171   4.621   6.786
   31POPC   C3A  920  10.058   4.584   6.342
   31POPC   C4A  921   9.774   4.257   6.204
   31POPC   C1B  922   9.535   4.082   7.132
   31POPC   C2B  923   9.318   3.898   6.769
   31POPC   C3B  924   9.313   4.123   6.391
   31POPC   C4B  925   9.317   4.585   6.339
   32POPC   NC3  926   0.367   2.048   8.000
   32POPC   PO4  927   0.965   2.359   7.924
   32POPC   GL1  928   0.791   2.015   7.640
   32POPC   GL2  929   0.446   1.948   7.529
   32POPC   C1A  930   0.769   2.129   7.211
   32POPC   D2A  931   0.482   1.983   6.904
   32POPC   C3A  932   0.719   2.062   6.563
   32POPC   C4A  933   0.850   1.924   6.171
   32POPC   C1B  934   0.130   1.815   7.279
   32POPC   C2B  935   0.082   1.622   6.885
   32POPC   C3B  936  11.487   1.779   6.466
   32POPC   C4B  937   0.310   2.038   6.262
   33POPC   NC3  938   9.460   5.663   8.293
   33POPC   PO4  939   9.916   6.068   8.157
   33POPC   GL1  940   9.971   5.844   7.748
   33POPC   GL2  941  10.154   6.071   7.573
   33POPC   C1A  942   9.904   5.709   7.303
   33POPC   D2A  943   9.845   5.826   6.858
   33POPC   C3A  944   9.747   5.607   6.485
   33POPC   C4A  945   9.870   5.681   6.074
   33POPC   C1B  946  10.010   6.209   7.162
   33POPC   C2B  947   9.836   6.325   6.733
   33POPC   C3B  948   9.708   6.108   6.348
   33POPC   C4B  949   9.439   5.939   6.030
   34POPC   NC3  950   5.057   1.081   8.183
   34POPC   PO4  951   5.652   0.741   8.148
   34POPC   GL1  952   5.422   0.999   7.776
   34POPC   GL2  953   5.152   1.259   7.718
   34POPC   C1A  954   5.391   1.110   7.308
   34POPC   D2A  955   5.097   0.937   6.987
   34POPC   C3A  956   5.193   1.062   6.581
   34POPC   C4A  957   5.258   1.181   6.133
   34POPC   C1B  958   4.892   1.267   7.327
   34POPC   C2B  959   4.781   1.374   6.888
   34POPC   C3B  960   4.898   1.450   6.444
   34POPC   C4B  961   5.021   1.640   6.040
   35POPC   NC3  962   7.732   9.236   8.078
   35POPC   PO4  963   8.449   9.259   8.048
   35POPC   GL1  964   8.341   9.147   7.635
   35POPC   GL2  965   8.027   9.086   7.691
   35POPC   C1A  966   8.214   8.820   7.300
   35POPC   D2A  967   8.088   8.711   6.840
   35POPC   C3A  968   8.348   8.675   6.423
   35POPC   C4A  969   8.328   8.778   5.970
   35POPC   C1B  970   7.849   9.171   7.286
   35POPC   C2B  971   7.999   9.213   6.864
   35POPC   C3B  972   8.003   9.060   6.416
   35POPC   C4B  973   7.859   9.005   5.951
   36POPC   NC3  974   8.896  10.397   8.112
   36POPC   PO4  975   8.457  11.012   7.983
   36POPC   GL1  976   8.629  10.675   7.640
   36POPC   GL2  977   8.888  10.383   7.614
   36POPC   C1A  978   8.599  10.456   7.214
   36POPC   D2A  979   8.615  10.266   6.801
   36POPC   C3A  980   8.378  10.549   6.475
   36POPC   C4A  981   8.552  10.723   6.074
   36POPC   C1B  982   9.125  10.377   7.222
   36POPC   C2B  983   9.128  10.591   6.811
   36POPC   C3B  984   8.890  10.523   6.435
   36POPC   C4B  985   8.981  10.138   6.267
   37POPC   NC3  986   7.101   8.851   7.946
   37POPC   PO4  987   7.769   8.668   8.174
   37POPC   GL1  988   7.742   8.668   7.747
   37POPC   GL2  989   7.552   8.908   7.697
   37POPC   C1A  990   7.719   8.666   7.274
   37POPC   D2A  991   7.594   8.907   6.900
   37POPC   C3A  992   7.413   8.692   6.567
   37POPC   C4A  993   7.742   8.632   6.279
   37POPC   C1B  994   7.332   9.011   7.323
   37POPC   C2B  995   7.133   9.119   6.932
   37POPC   C3B  996   7.165   9.142   6.488
   37POPC   C4B  997   7.390   9.018   6.141
   38POPC   NC3  998   0.579  11.043   8.088
   38POPC   PO4  999   1.134  10.981   8.482
   38POPC   GL1 1000   1.175  10.985   7.940
   38POPC   GL2 1001   0.945  11.206   7.751
   38POPC   C1A 1002   1.260  10.866   7.454
   38POPC   D2A 1003   1.224  11.036   7.001
   38POPC   C3A 1004   1.181  10.879   6.562
   38POPC   C4A 1005   0.939  10.903   6.166
   38POPC   C1B 1006   1.198  11.374   7.385
   38POPC   C2B 1007   1.432   0.012   7.018
   38POPC   C3B 1008   1.318  11.473   6.589
   38POPC   C4B 1009   1.318  11.274   6.187
   39POPC   NC3 1010   9.369   8.510   8.085
   39POPC   PO4 1011   9.293   7.843   8.097
   39POPC   GL1 1012   9.556   8.061   7.743
   39POPC   GL2 1013   9.746   8.375   7.736
   39POPC   C1A 1014   9.707   8.056   7.285
   39POPC   D2A 1015   9.843   7.771   6.921
   39POPC   C3A 1016   9.674   7.772   6.465
   39POPC   C4A 1017   9.711   7.795   6.015
   39POPC   C1B 1018   9.656   8.567   7.350
   39POPC   C2B 1019   9.535   8.443   6.936
   39POPC   C3B 1020   9.691   8.454   6.516
   39POPC   C4B 1021   9.548   8.229   6.172
   40POPC   NC3 1022   1.140   1.284   8.001
   40POPC   PO4 1023   1.712   0.855   8.107
   40POPC   GL1 1024   1.515   0.886   7.738
   40POPC   GL2 1025   1.574   1.216   7.664
   40POPC   C1A 1026   1.618   0.844   7.289
   40POPC   D2A 1027   1.757   0.813   6.838
   40POPC   C3A 1028   1.418   0.966   6.544
   40POPC   C4A 1029   1.016   0.957   6.302
   40POPC   C1B 1030   1.397   1.343   7.271
   40POPC   C2B 1031   1.324   1.382   6.823
   40POPC   C3B 1032   0.938   1.377   6.570
   40POPC   C4B 1033   0.799   1.414   6.145
   41POPC   NC3 1034   7.996   3.311   8.036
   41POPC   PO4 1035   8.290   3.816   7.946
   41POPC   GL1 1036   8.334   3.419   7.682
   41POPC   GL2 1037   7.995   3.459   7.537
   41POPC   C1A 1038   8.393   3.267   7.262
   41POPC   D2A 1039   8.461   3.545   6.905
   41POPC   C3A 1040   8.528   3.410   6.495
   41POPC   C4A 1041   8.316   3.360   6.116
   41POPC   C1B 1042   7.948   3.421   7.068
   41POPC   C2B 1043   8.043   3.285   6.629
   41POPC   C3B 1044   7.820   3.238   6.227
   41POPC   C4B 1045   7.481   3.380   5.946
   42POPC   NC3 1046  11.139   9.779   8.034
   42POPC   PO4 1047  10.834   9.221   7.850
   42POPC   GL1 1048  11.004   9.544   7.572
   42POPC   GL2 1049  11.356   9.658   7.582
   42POPC   C1A 1050  10.797   9.683   7.194
   42POPC   D2A 1051  10.632   9.477   6.824
   42POPC   C3A 1052  10.704   9.748   6.482
   42POPC   C4A 1053  10.868   9.792   6.048
   42POPC   C1B 1054  11.373   9.565   7.162
   42POPC   C2B 1055  11.133   9.597   6.810
   42POPC   C3B 1056  11.187   9.582   6.395
   42POPC   C4B 1057  11.351   9.584   6.018
   43POPC   NC3 1058  10.967   7.178   8.268
   43POPC   PO4 1059  11.097   7.716   7.867
   43POPC   GL1 1060  11.166   7.288   7.603
   43POPC   GL2 1061  10.903   7.077   7.520
   43POPC   C1A 1062  11.456   7.233   7.250
   43POPC   D2A 1063   0.101   6.955   6.911
   43POPC   C3A 1064  11.490   7.171   6.527
   43POPC   C4A 1065  11.341   7.528   6.278
   43POPC   C1B 1066  10.931   7.450   7.212
   43POPC   C2B 1067  11.043   7.768   6.915
   43POPC   C3B 1068  10.891   7.670   6.518
   43POPC   C4B 1069  10.932   7.237   6.376
   44POPC   NC3 1070   1.485   8.043   8.197
   44POPC   PO4 1071   0.822   8.104   8.205
   44POPC   GL1 1072   1.128   8.197   7.833
   44POPC   GL2 1073   1.112   8.559   7.704
   44POPC   C1A 1074   1.387   8.160   7.428
   44POPC   D2A 1075   1.499   8.324   6.989
   44POPC   C3A 1076   1.588   8.208   6.572
   44POPC   C4A 1077   1.354   8.116   6.201
   44POPC   C1B 1078   0.937   8.390   7.330
   44POPC   C2B 1079   1.042   8.130   7.033
   44POPC   C3B 1080   1.074   8.196   6.636
   44POPC   C4B 1081   0.865   8.271   6.255
   45POPC   NC3 1082   3.313   3.402   8.048
   45POPC   PO4 1083   2.669   3.237   8.076
   45POPC   GL1 1084   2.663   3.179   7.656
   45POPC   GL2 1085   2.450   3.471   7.623
   45POPC   C1A 1086   2.869   3.283   7.242
   45POPC   D2A 1087   2.764   3.355   6.787
   45POPC   C3A 1088   2.943   3.370   6.363
   45POPC   C4A 1089   2.962   3.825   6.170
   45POPC   C1B 1090   2.315   3.269   7.266
   45POPC   C2B 1091   2.126   3.483   6.947
   45POPC   C3B 1092   2.342   3.615   6.616
   45POPC   C4B 1093   2.414   3.278   6.372
   46POPC   NC3 1094  10.778   8.849   8.107
   46POPC   PO4 1095  11.320   9.367   8.199
   46POPC   GL1 1096  11.341   9.178   7.771
   46POPC   GL2 1097  11.222   8.858   7.830
   46POPC   C1A 1098  11.498   9.105   7.354
   46POPC   D2A 1099  11.285   9.086   6.938
   46POPC   C3A 1100  11.486   9.151   6.528
   46POPC   C4A 1101  11.201   9.077   6.195
   46POPC   C1B 1102  11.113   8.779   7.390
   46POPC   C2B 1103  11.391   8.589   7.062
   46POPC   C3B 1104  11.356   8.626   6.591
   46POPC   C4B 1105  11.009   8.588   6.266
   47POPC   NC3 1106   0.622   3.005   8.104
   47POPC   PO4 1107   0.175   2.454   8.104
   47POPC   GL1 1108   0.375   2.693   7.787
   47POPC   GL2 1109   0.525   2.440   7.657
   47POPC   C1A 1110   0.442   2.833   7.348
   47POPC   D2A 1111   0.498   3.004   6.951
   47POPC   C3A 1112   0.211   2.987   6.626
   47POPC   C4A 1113   0.407   2.953   6.225
   47POPC   C1B 1114   0.302   2.346   7.276
   47POPC   C2B 1115   0.334   2.508   6.883
   47POPC   C3B 1116   0.354   2.503   6.474
   47POPC   C4B 1117   0.685   2.441   6.212
   48POPC   NC3 1118   5.404   0.410   8.364
   48POPC   PO4 1119   5.964   0.242   7.952
   48POPC   GL1 1120   5.710   0.362   7.602
   48POPC   GL2 1121   5.765   0.632   7.632
   48POPC   C1A 1122   5.556   0.152   7.230
   48POPC   D2A 1123   5.659   0.360   6.859
   48POPC   C3A 1124   5.622   0.116   6.525
   48POPC   C4A 1125   5.383  11.432   6.220
   48POPC   C1B 1126   6.025   0.421   7.245
   48POPC   C2B 1127   6.192   0.659   6.960
   48POPC   C3B 1128   6.100   0.716   6.572
   48POPC   C4B 1129   5.847   0.490   6.241
   49POPC   NC3 1130  10.645   4.901   8.190
   49POPC   PO4 1131  10.765   5.543   8.096
   49POPC   GL1 1132  10.725   5.237   7.736
   49POPC   GL2 1133  10.434   5.025   7.741
   49POPC   C1A 1134  10.617   5.063   7.274
   49POPC   D2A 1135  10.502   5.057   6.839
   49POPC   C3A 1136  10.449   4.922   6.435
   49POPC   C4A 1137  10.657   5.091   6.124
   49POPC   C1B 1138  10.265   5.364   7.458
   49POPC   C2B 1139  10.190   5.426   6.981
   49POPC   C3B 1140  10.197   5.360   6.509
   49POPC   C4B 1141   9.874   5.173   6.196
   50POPC   NC3 1142   8.037  10.689   7.908
   50POPC   PO4 1143   8.496  10.253   7.952
   50POPC   GL1 1144   8.391  10.188   7.568
   50POPC   GL2 1145   8.148  10.470   7.467
   50POPC   C1A 1146   8.211  10.069   7.183
   50POPC   D2A 1147   8.069  10.265   6.823
   50POPC   C3A 1148   8.245  10.023   6.564
   50POPC   C4A 1149   8.465  10.114   6.221
   50POPC   C1B 1150   7.805  10.558   7.150
   50POPC   C2B 1151   7.568  10.732   6.848
   50POPC   C3B 1152   7.862  10.685   6.550
   50POPC   C4B 1153   7.943  10.329   6.286
   51POPC   NC3 1154   9.895   1.708   8.031
   51POPC   PO4 1155   9.282   1.576   8.297
   51POPC   GL1 1156   9.421   1.892   7.856
   51POPC   GL2 1157   9.716   2.134   7.754
   51POPC   C1A 1158   9.441   1.930   7.358
   51POPC   D2A 1159   9.705   1.880   6.951
   51POPC   C3A 1160   9.519   1.950   6.531
   51POPC   C4A 1161   9.334   1.794   6.133
   51POPC   C1B 1162   9.833   2.255   7.310
   51POPC   C2B 1163   9.525   2.375   6.968
   51POPC   C3B 1164   9.507   2.468   6.514
   51POPC   C4B 1165   9.843   2.258   6.247
   52POPC   NC3 1166  10.466   2.224   8.179
   52POPC   PO4 1167  10.768   1.652   8.354
   52POPC   GL1 1168  10.809   2.005   7.872
   52POPC   GL2 1169  10.448   2.103   7.640
   52POPC   C1A 1170  10.838   2.132   7.369
   52POPC   D2A 1171  10.605   1.913   7.007
   52POPC   C3A 1172  10.551   2.078   6.549
   52POPC   C4A 1173  10.568   2.082   6.079
   52POPC   C1B 1174  10.168   1.854   7.334
   52POPC   C2B 1175  10.142   1.567   6.979
   52POPC   C3B 1176  10.117   1.731   6.570
   52POPC   C4B 1177  10.120   1.850   6.145
   53POPC   NC3 1178   2.872   5.788   8.296
   53POPC   PO4 1179   3.270   6.162   8.103
   53POPC   GL1 1180   2.907   5.987   7.816
   53POPC   GL2 1181   2.609   5.697   7.740
   53POPC   C1A 1182   2.905   5.888   7.378
   53POPC   D2A 1183   2.941   6.033   6.966
   53POPC   C3A 1184   3.053   5.764   6.609
   53POPC   C4A 1185   3.107   5.880   6.167
   53POPC   C1B 1186   2.456   5.669   7.245
   53POPC   C2B 1187   2.579   5.598   6.759
   53POPC   C3B 1188   2.619   5.832   6.342
   53POPC   C4B 1189   2.454   6.199   6.218
   54POPC   NC3 1190   8.950   9.279   8.118
   54POPC   PO4 1191   8.927   9.946   8.205
   54POPC   GL1 1192   8.813   9.876   7.740
   54POPC   GL2 1193   8.774   9.515   7.703
   54POPC   C1A 1194   8.763   9.961   7.278
   54POPC   D2A 1195   8.970   9.850   6.856
   54POPC   C3A 1196   8.702   9.740   6.480
   54POPC   C4A 1197   8.672   9.630   6.010
   54POPC   C1B 1198   9.081   9.548   7.354
   54POPC   C2B 1199   9.166   9.333   6.966
   54POPC   C3B 1200   9.154   9.342   6.532
   54POPC   C4B 1201   9.126   9.652   6.208
   55POPC   NC3 1202   9.716   0.220   7.965
   55POPC   PO4 1203   9.189  11.383   8.045
   55POPC   GL1 1204   9.266   0.177   7.716
   55POPC   GL2 1205   9.422   0.520   7.640
   55POPC   C1A 1206   9.493   0.111   7.322
   55POPC   D2A 1207   9.464   0.364   6.957
   55POPC   C3A 1208   9.337   0.133   6.605
   55POPC   C4A 1209   9.326   0.292   6.192
   55POPC   C1B 1210   9.812   0.528   7.340
   55POPC   C2B 1211   9.887   0.657   6.877
   55POPC   C3B 1212   9.748   0.461   6.475
   55POPC   C4B 1213   9.770   0.486   6.013
   56POPC   NC3 1214   0.408   8.272   8.287
   56POPC   PO4 1215   0.272   7.789   7.901
   56POPC   GL1 1216   0.285   8.171   7.709
   56POPC   GL2 1217   0.619   8.280   7.716
   56POPC   C1A 1218   0.294   8.152   7.272
   56POPC   D2A 1219   0.557   8.170   6.925
   56POPC   C3A 1220   0.394   8.252   6.548
   56POPC   C4A 1221   0.363   8.069   6.160
   56POPC   C1B 1222   0.732   7.914   7.391
   56POPC   C2B 1223   0.771   7.704   6.933
   56POPC   C3B 1224   0.731   7.843   6.471
   56POPC   C4B 1225   0.751   7.860   5.941
   57POPC   NC3 1226   0.562   4.100   7.958
   57POPC   PO4 1227   0.389   3.417   8.103
   57POPC   GL1 1228   0.471   3.580   7.726
   57POPC   GL2 1229   0.598   3.258   7.631
   57POPC   C1A 1230   0.448   3.784   7.332
   57POPC   D2A 1231   0.678   3.839   6.935
   57POPC   C3A 1232   0.498   3.849   6.547
   57POPC   C4A 1233   0.646   3.712   6.127
   57POPC   C1B 1234   0.252   3.310   7.319
   57POPC   C2B 1235   0.321   3.476   6.903
   57POPC   C3B 1236   0.566   3.350   6.531
   57POPC   C4B 1237   0.214   3.456   6.236
   58POPC   NC3 1238   5.196  10.959   8.137
   58POPC   PO4 1239   4.981   0.063   7.993
   58POPC   GL1 1240   4.839  11.362   7.635
   58POPC   GL2 1241   4.982  11.069   7.689
   58POPC   C1A 1242   5.073  11.381   7.242
   58POPC   D2A 1243   5.260  11.385   6.833
   58POPC   C3A 1244   4.918  11.419   6.526
   58POPC   C4A 1245   4.889  11.484   6.098
   58POPC   C1B 1246   5.154  10.884   7.328
   58POPC   C2B 1247   5.197  10.806   6.882
   58POPC   C3B 1248   5.211  11.005   6.464
   58POPC   C4B 1249   5.207  10.988   5.997
   59POPC   NC3 1250   2.932   0.280   8.081
   59POPC   PO4 1251   2.461   0.808   7.941
   59POPC   GL1 1252   2.779   0.631   7.693
   59POPC   GL2 1253   2.578   0.333   7.689
   59POPC   C1A 1254   2.994   0.529   7.312
   59POPC   D2A 1255   2.899   0.296   6.931
   59POPC   C3A 1256   2.693   0.434   6.544
   59POPC   C4A 1257   2.873   0.248   6.182
   59POPC   C1B 1258   2.475   0.430   7.252
   59POPC   C2B 1259   2.301   0.687   6.906
   59POPC   C3B 1260   2.213   0.768   6.480
   59POPC   C4B 1261   2.497   0.732   6.074
   60POPC   NC3 1262   8.976   1.253   8.153
   60POPC   PO4 1263   8.325   1.366   8.095
   60POPC   GL1 1264   8.670   1.339   7.734
   60POPC   GL2 1265   8.894   1.074   7.666
   60POPC   C1A 1266   8.674   1.322   7.255
   60POPC   D2A 1267   8.878   1.272   6.821
   60POPC   C3A 1268   8.621   1.394   6.454
   60POPC   C4A 1269   8.672   1.346   5.969
   60POPC   C1B 1270   9.136   1.116   7.260
   60POPC   C2B 1271   9.200   0.838   6.933
   60POPC   C3B 1272   9.249   1.011   6.564
   60POPC   C4B 1273   9.084   1.298   6.261
   61POPC   NC3 1274   2.334  10.409   7.946
   61POPC   PO4 1275   1.731  10.689   8.131
   61POPC   GL1 1276   1.854  10.529   7.728
   61POPC   GL2 1277   1.861  10.148   7.741
   61POPC   C1A 1278   1.742  10.662   7.307
   61POPC   D2A 1279   1.691  10.870   6.911
   61POPC   C3A 1280   1.906  10.716   6.547
   61POPC   C4A 1281   1.860  10.652   6.105
   61POPC   C1B 1282   2.054  10.245   7.342
   61POPC   C2B 1283   1.990  10.391   6.936
   61POPC   C3B 1284   2.118  10.188   6.547
   61POPC   C4B 1285   2.066  10.217   6.112
   62POPC   NC3 1286   0.316   4.564   8.331
   62POPC   PO4 1287   0.063   4.106   8.032
   62POPC   GL1 1288   0.101   4.403   7.736
   62POPC   GL2 1289   0.358   4.551   7.787
   62POPC   C1A 1290   0.266   4.260   7.349
   62POPC   D2A 1291   0.227   4.062   6.963
   62POPC   C3A 1292   0.157   4.260   6.587
   62POPC   C4A 1293   0.215   4.047   6.195
   62POPC   C1B 1294   0.574   4.644   7.415
   62POPC   C2B 1295   0.667   4.500   6.993
   62POPC   C3B 1296   0.513   4.628   6.610
   62POPC   C4B 1297   0.534   4.442   6.206
   63POPC   NC3 1298   1.177   8.882   8.097
   63POPC   PO4 1299   1.569   9.481   8.116
   63POPC   GL1 1300   1.396   9.286   7.734
   63POPC   GL2 1301   1.060   9.120   7.672
   63POPC   C1A 1302   1.360   9.168   7.286
   63POPC   D2A 1303   1.113   9.232   6.931
   63POPC   C3A 1304   1.349   9.159   6.588
   63POPC   C4A 1305   1.187   9.083   6.196
   63POPC   C1B 1306   0.941   8.893   7.301
   63POPC   C2B 1307   1.172   8.713   6.938
   63POPC   C3B 1308   1.110   8.683   6.498
   63POPC   C4B 1309   0.794   8.752   6.159
   64POPC   NC3 1310   9.807  10.853   8.098
   64POPC   PO4 1311  10.125   0.039   8.135
   64POPC   GL1 1312   9.966  11.241   7.819
   64POPC   GL2 1313   9.604  11.247   7.706
   64POPC   C1A 1314   9.969  10.997   7.420
   64POPC   D2A 1315   9.950  11.196   6.981
   64POPC   C3A 1316   9.905  11.054   6.547
   64POPC   C4A 1317   9.847  10.747   6.235
   64POPC   C1B 1318   9.499  11.088   7.252
   64POPC   C2B 1319   9.312  11.104   6.823
   64POPC   C3B 1320   9.429  11.185   6.381
   64POPC   C4B 1321   9.249  11.330   5.972
   65POPC   NC3 1322   0.716   7.634   8.011
   65POPC   PO4 1323   1.383   7.650   7.970
   65POPC   GL1 1324   1.105   7.557   7.688
   65POPC   GL2 1325   1.117   7.214   7.820
   65POPC   C1A 1326   1.176   7.683   7.274
   65POPC   D2A 1327   1.426   7.811   6.951
   65POPC   C3A 1328   1.226   7.709   6.603
   65POPC   C4A 1329   1.124   7.644   6.215
   65POPC   C1B 1330   1.201   7.172   7.367
   65POPC   C2B 1331   0.970   7.119   6.953
   65POPC   C3B 1332   1.010   7.201   6.496
   65POPC   C4B 1333   1.453   7.267   6.337
   66POPC   NC3 1334   8.901   0.255   8.142
   66POPC   PO4 1335   9.168   0.828   8.098
   66POPC   GL1 1336   8.904   0.578   7.743
   66POPC   GL2 1337   8.709   0.244   7.676
   66POPC   C1A 1338   8.855   0.695   7.299
   66POPC   D2A 1339   8.655   0.827   6.891
   66POPC   C3A 1340   8.732   0.908   6.404
   66POPC   C4A 1341   8.626   0.822   5.930
   66POPC   C1B 1342   8.965   0.195   7.311
   66POPC   C2B 1343   8.879   0.336   6.919
   66POPC   C3B 1344   9.006   0.519   6.571
   66POPC   C4B 1345   8.812   0.443   6.207
   67POPC   NC3 1346   4.283   2.995   8.255
   67POPC   PO4 1347   3.662   3.121   8.071
   67POPC   GL1 1348   4.026   3.064   7.773
   67POPC   GL2 1349   4.340   2.831   7.720
   67POPC   C1A 1350   4.015   2.939   7.337
   67POPC   D2A 1351   4.144   2.771   6.937
   67POPC   C3A 1352   4.233   2.927   6.506
   67POPC   C4A 1353   4.402   3.083   6.111
   67POPC   C1B 1354   4.327   2.481   7.352
   67POPC   C2B 1355   4.142   2.273   6.952
   67POPC   C3B 1356   4.232   2.410   6.528
   67POPC   C4B 1357   4.570   2.577   6.269
   68POPC   NC3 1358   9.949   9.322   8.134
   68POPC   PO4 1359   9.802   8.704   8.105
   68POPC   GL1 1360   9.722   8.927   7.731
   68POPC   GL2 1361   9.345   8.942   7.711
   68POPC   C1A 1362   9.964   9.005   7.338
   68POPC   D2A 1363   9.926   8.759   6.916
   68POPC   C3A 1364   9.878   8.923   6.457
   68POPC   C4A 1365  10.002   9.189   6.062
   68POPC   C1B 1366   9.331   8.933   7.233
   68POPC   C2B 1367   9.429   8.928   6.763
   68POPC   C3B 1368   9.382   8.868   6.353
   68POPC   C4B 1369   9.164   8.473   6.387
   69POPC   NC3 1370  11.465   3.650   8.129
   69POPC   PO4 1371  10.790   3.477   7.956
   69POPC   GL1 1372  10.859   3.548   7.549
   69POPC   GL2 1373  11.195   3.437   7.595
   69POPC   C1A 1374  10.909   3.759   7.176
   69POPC   D2A 1375  10.936   3.640   6.751
   69POPC   C3A 1376  10.745   3.875   6.432
   69POPC   C4A 1377  10.979   3.722   6.051
   69POPC   C1B 1378  11.246   3.132   7.285
   69POPC   C2B 1379  11.320   3.251   6.856
   69POPC   C3B 1380  11.257   3.252   6.395
   69POPC   C4B 1381  11.013   2.984   6.116
   70POPC   NC3 1382   1.227   5.950   7.947
   70POPC   PO4 1383   0.848   5.450   8.110
   70POPC   GL1 1384   0.976   5.583   7.696
   70POPC   GL2 1385   1.328   5.511   7.706
   70POPC   C1A 1386   0.858   5.459   7.259
   70POPC   D2A 1387   0.659   5.476   6.869
   70POPC   C3A 1388   0.915   5.375   6.483
   70POPC   C4A 1389   1.059   5.446   6.045
   70POPC   C1B 1390   1.279   5.734   7.297
   70POPC   C2B 1391   1.198   5.584   6.870
   70POPC   C3B 1392   1.260   5.742   6.444
   70POPC   C4B 1393   1.338   5.906   6.046
   71POPC   NC3 1394   9.834   6.556   8.068
   71POPC   PO4 1395  10.448   6.392   7.834
   71POPC   GL1 1396  10.552   6.385   7.476
   71POPC   GL2 1397  10.842   6.495   7.425
   71POPC   C1A 1398  10.512   6.295   7.091
   71POPC   D2A 1399  10.577   6.324   6.707
   71POPC   C3A 1400  10.263   6.538   6.520
   71POPC   C4A 1401   9.950   6.560   6.252
   71POPC   C1B 1402  10.707   6.773   7.159
   71POPC   C2B 1403  10.620   6.812   6.775
   71POPC   C3B 1404  10.705   6.728   6.366
   71POPC   C4B 1405  10.401   6.762   6.056
   72POPC   NC3 1406   2.865   1.015   8.025
   72POPC   PO4 1407   3.063   1.593   8.086
   72POPC   GL1 1408   3.009   1.349   7.673
   72POPC   GL2 1409   2.681   1.176   7.600
   72POPC   C1A 1410   2.873   1.429   7.222
   72POPC   D2A 1411   2.719   1.642   6.886
   72POPC   C3A 1412   2.769   1.454   6.523
   72POPC   C4A 1413   2.634   1.646   6.165
   72POPC   C1B 1414   2.627   0.936   7.251
   72POPC   C2B 1415   2.836   0.820   6.877
   72POPC   C3B 1416   2.687   0.944   6.495
   72POPC   C4B 1417   2.399   1.202   6.298
   73POPC   NC3 1418   9.687   7.602   8.060
   73POPC   PO4 1419   9.660   6.977   8.025
   73POPC   GL1 1420   9.597   7.311   7.644
   73POPC   GL2 1421   9.797   7.640   7.562
   73POPC   C1A 1422   9.464   7.458   7.202
   73POPC   D2A 1423   9.517   7.376   6.735
   73POPC   C3A 1424   9.339   7.086   6.381
   73POPC   C4A 1425   9.340   6.857   5.955
   73POPC   C1B 1426   9.960   7.353   7.229
   73POPC   C2B 1427  10.038   7.313   6.775
   73POPC   C3B 1428   9.851   7.227   6.365
   73POPC   C4B 1429   9.864   6.990   5.980
   74POPC   NC3 1430  10.676   3.908   8.080
   74POPC   PO4 1431  10.681   4.572   7.869
   74POPC   GL1 1432  10.777   4.378   7.495
   74POPC   GL2 1433  10.664   4.060   7.595
   74POPC   C1A 1434  10.789   4.276   7.095
   74POPC   D2A 1435  10.672   4.572   6.817
   74POPC   C3A 1436  10.637   4.462   6.425
   74POPC   C4A 1437  10.643   4.608   6.011
   74POPC   C1B 1438  10.448   3.923   7.257
   74POPC   C2B 1439  10.487   3.926   6.863
   74POPC   C3B 1440  10.264   4.143   6.589
   74POPC   C4B 1441  10.312   4.159   6.190
   75POPC   NC3 1442   4.904  10.355   8.174
   75POPC   PO4 1443   5.461   9.974   8.026
   75POPC   GL1 1444   5.225  10.219   7.706
   75POPC   GL2 1445   5.043  10.551   7.719
   75POPC   C1A 1446   5.103  10.151   7.241
   75POPC   D2A 1447   5.046  10.239   6.777
   75POPC   C3A 1448   4.973   9.949   6.382
   75POPC   C4A 1449   4.962   9.950   5.876
   75POPC   C1B 1450   4.757  10.525   7.357
   75POPC   C2B 1451   4.660  10.637   6.908
   75POPC   C3B 1452   4.875  10.617   6.489
   75POPC   C4B 1453   5.048  10.391   6.121
   76POPC   NC3 1454   7.592   8.247   8.033
   76POPC   PO4 1455   7.021   8.406   7.876
   76POPC   GL1 1456   7.252   8.534   7.532
   76POPC   GL2 1457   7.483   8.292   7.532
   76POPC   C1A 1458   7.250   8.551   7.075
   76POPC   D2A 1459   7.208   8.238   6.753
   76POPC   C3A 1460   7.082   8.335   6.355
   76POPC   C4A 1461   7.071   8.624   6.025
   76POPC   C1B 1462   7.339   8.035   7.212
   76POPC   C2B 1463   7.532   7.857   6.836
   76POPC   C3B 1464   7.413   7.906   6.379
   76POPC   C4B 1465   7.508   7.787   5.925
   77POPC   NC3 1466   2.439  11.240   8.491
   77POPC   PO4 1467   3.056  11.388   8.311
   77POPC   GL1 1468   2.778  11.383   7.828
   77POPC   GL2 1469   2.531  11.119   7.812
   77POPC   C1A 1470   2.798   0.006   7.362
   77POPC   D2A 1471   2.908  11.293   6.957
   77POPC   C3A 1472   2.723  11.425   6.552
   77POPC   C4A 1473   2.453  11.442   6.194
   77POPC   C1B 1474   2.709  11.004   7.390
   77POPC   C2B 1475   2.687  10.849   6.971
   77POPC   C3B 1476   2.790  10.932   6.557
   77POPC   C4B 1477   2.656  10.944   6.140
   78POPC   NC3 1478   7.819   0.665   8.010
   78POPC   PO4 1479   8.494   0.495   8.110
   78POPC   GL1 1480   8.301   0.573   7.730
   78POPC   GL2 1481   8.123   0.305   7.753
   78POPC   C1A 1482   8.395   0.488   7.321
   78POPC   D2A 1483   8.206   0.579   6.947
   78POPC   C3A 1484   8.441   0.479   6.581
   78POPC   C4A 1485   8.227   0.581   6.219
   78POPC   C1B 1486   7.878   0.397   7.387
   78POPC   C2B 1487   7.867   0.196   7.003
   78POPC   C3B 1488   7.847   0.417   6.598
   78POPC   C4B 1489   7.722   0.149   6.286
   79POPC   NC3 1490   2.028   0.507   7.998
   79POPC   PO4 1491   2.448   0.065   8.176
   79POPC   GL1 1492   2.169   0.024   7.796
   79POPC   GL2 1493   1.917   0.229   7.580
   79POPC   C1A 1494   2.262  11.429   7.364
   79POPC   D2A 1495   2.438  11.497   6.964
   79POPC   C3A 1496   2.196   0.120   6.603
   79POPC   C4A 1497   2.165   0.357   6.216
   79POPC   C1B 1498   1.897   0.363   7.136
   79POPC   C2B 1499   1.734   0.314   6.710
   79POPC   C3B 1500   1.716   0.584   6.347
   79POPC   C4B 1501   1.703   0.438   5.939
   80POPC   NC3 1502  10.813   3.383   8.396
   80POPC   PO4 1503  10.169   3.337   8.256
   80POPC   GL1 1504  10.328   3.342   7.755
   80POPC   GL2 1505  10.370   3.639   7.656
   80POPC   C1A 1506  10.635   3.082   7.454
   80POPC   D2A 1507  10.801   3.264   7.080
   80POPC   C3A 1508  10.814   3.115   6.655
   80POPC   C4A 1509  10.734   3.380   6.326
   80POPC   C1B 1510  10.322   3.429   7.243
   80POPC   C2B 1511  10.223   3.495   6.812
   80POPC   C3B 1512  10.280   3.651   6.389
   80POPC   C4B 1513  10.487   3.728   6.001
   81POPC   NC3 1514  10.790   6.711   7.876
   81POPC   PO4 1515  10.587   7.346   8.098
   81POPC   GL1 1516  10.436   7.177   7.714
   81POPC   GL2 1517  10.102   7.296   7.778
   81POPC   C1A 1518  10.466   7.205   7.238
   81POPC   D2A 1519  10.649   7.306   6.816
   81POPC   C3A 1520  10.409   7.157   6.460
   81POPC   C4A 1521  10.526   7.268   6.089
   81POPC   C1B 1522  10.303   7.622   7.484
   81POPC   C2B 1523  10.344   7.652   7.015
   81POPC   C3B 1524  10.369   7.673   6.557
   81POPC   C4B 1525  10.142   7.583   6.165
   82POPC   NC3 1526   0.553   9.931   7.920
   82POPC   PO4 1527   0.805   9.241   8.095
   82POPC   GL1 1528   0.707   9.478   7.739
   82POPC   GL2 1529   0.328   9.493   7.738
   82POPC   C1A 1530   0.857   9.462   7.308
   82POPC   D2A 1531   0.672   9.702   6.938
   82POPC   C3A 1532   0.522   9.536   6.545
   82POPC   C4A 1533   0.817   9.473   6.213
   82POPC   C1B 1534   0.363   9.651   7.342
   82POPC   C2B 1535   0.211   9.957   7.051
   82POPC   C3B 1536   0.019   9.906   6.656
   82POPC   C4B 1537   0.215   9.852   6.255
   83POPC   NC3 1538   3.323   1.959   7.999
   83POPC   PO4 1539   3.914   1.637   8.246
   83POPC   GL1 1540   3.640   1.603   7.756
   83POPC   GL2 1541   3.527   1.938   7.522
   83POPC   C1A 1542   3.350   1.521   7.367
   83POPC   D2A 1543   3.486   1.630   6.987
   83POPC   C3A 1544   3.392   1.561   6.587
   83POPC   C4A 1545   3.522   1.827   6.262
   83POPC   C1B 1546   3.457   2.204   7.135
   83POPC   C2B 1547   3.274   2.460   6.818
   83POPC   C3B 1548   3.395   2.324   6.410
   83POPC   C4B 1549   3.809   2.314   6.236
   84POPC   NC3 1550   6.676  10.746   7.916
   84POPC   PO4 1551   7.089  10.261   8.181
   84POPC   GL1 1552   6.899  10.303   7.740
   84POPC   GL2 1553   6.503  10.304   7.706
   84POPC   C1A 1554   6.807  10.509   7.320
   84POPC   D2A 1555   6.484  10.552   6.991
   84POPC   C3A 1556   6.560  10.465   6.547
   84POPC   C4A 1557   6.696  10.797   6.325
   84POPC   C1B 1558   6.471  10.115   7.274
   84POPC   C2B 1559   6.622  10.056   6.837
   84POPC   C3B 1560   6.482   9.970   6.389
   84POPC   C4B 1561   6.492   9.966   5.911
   85POPC   NC3 1562   9.699   2.686   7.968
   85POPC   PO4 1563   9.111   2.443   7.912
   85POPC   GL1 1564   9.262   2.790   7.649
   85POPC   GL2 1565   9.474   2.545   7.522
   85POPC   C1A 1566   9.352   3.073   7.259
   85POPC   D2A 1567   9.451   2.886   6.845
   85POPC   C3A 1568   9.490   3.005   6.422
   85POPC   C4A 1569   9.495   2.777   6.057
   85POPC   C1B 1570   9.729   2.752   7.239
   85POPC   C2B 1571   9.969   2.644   6.882
   85POPC   C3B 1572   9.960   2.711   6.446
   85POPC   C4B 1573   9.959   2.990   6.122
   86POPC   NC3 1574   0.218   9.164   8.102
   86POPC   PO4 1575   0.080   8.552   8.124
   86POPC   GL1 1576   0.256   8.717   7.728
   86POPC   GL2 1577   0.622   8.831   7.781
   86POPC   C1A 1578   0.470   8.622   7.318
   86POPC   D2A 1579   0.670   8.669   6.906
   86POPC   C3A 1580   0.371   8.766   6.591
   86POPC   C4A 1581   0.306   8.601   6.183
   86POPC   C1B 1582   0.501   9.116   7.434
   86POPC   C2B 1583   0.587   9.177   6.977
   86POPC   C3B 1584   0.771   9.089   6.560
   86POPC   C4B 1585   0.442   9.114   6.213
   87POPC   NC3 1586   6.222   2.435   8.178
   87POPC   PO4 1587   6.821   2.407   8.025
   87POPC   GL1 1588   6.755   2.255   7.614
   87POPC   GL2 1589   6.425   2.390   7.559
   87POPC   C1A 1590   6.720   2.248   7.145
   87POPC   D2A 1591   6.644   2.462   6.748
   87POPC   C3A 1592   6.582   2.341   6.327
   87POPC   C4A 1593   6.788   2.618   6.024
   87POPC   C1B 1594   6.438   2.690   7.175
   87POPC   C2B 1595   6.452   2.934   6.764
   87POPC   C3B 1596   6.379   2.806   6.328
   87POPC   C4B 1597   6.141   2.932   5.959
   88POPC   NC3 1598   5.861  10.189   7.937
   88POPC   PO4 1599   5.355  10.538   8.276
   88POPC   GL1 1600   5.526  10.631   7.831
   88POPC   GL2 1601   5.823  10.653   7.664
   88POPC   C1A 1602   5.478  10.497   7.343
   88POPC   D2A 1603   5.601  10.412   6.891
   88POPC   C3A 1604   5.387  10.523   6.475
   88POPC   C4A 1605   5.494  10.573   5.996
   88POPC   C1B 1606   6.026  10.401   7.320
   88POPC   C2B 1607   6.102  10.244   6.909
   88POPC   C3B 1608   6.029  10.475   6.570
   88POPC   C4B 1609   5.782  10.288   6.286
   89POPC   NC3 1610   1.131   1.917   7.999
   89POPC   PO4 1611   1.574   2.330   8.337
   89POPC   GL1 1612   1.587   2.077   7.855
   89POPC   GL2 1613   1.282   2.186   7.586
   89POPC   C1A 1614   1.660   1.990   7.382
   89POPC   D2A 1615   1.372   2.183   7.069
   89POPC   C3A 1616   1.484   2.201   6.635
   89POPC   C4A 1617   1.155   2.309   6.350
   89POPC   C1B 1618   1.159   1.801   7.350
   89POPC   C2B 1619   0.986   1.759   6.936
   89POPC   C3B 1620   1.181   1.819   6.555
   89POPC   C4B 1621   1.269   1.593   6.212
   90POPC   NC3 1622   6.107   0.751   8.017
   90POPC   PO4 1623   6.862   0.681   7.983
   90POPC   GL1 1624   6.768   0.543   7.581
   90POPC   GL2 1625   6.926   0.241   7.463
   90POPC   C1A 1626   6.675   0.627   7.149
   90POPC   D2A 1627   6.602   0.417   6.786
   90POPC   C3A 1628   6.819   0.577   6.454
   90POPC   C4A 1629   6.693   0.774   6.071
   90POPC   C1B 1630   6.498   0.168   7.310
   90POPC   C2B 1631   6.365  11.471   6.931
   90POPC   C3B 1632   6.138   0.213   6.653
   90POPC   C4B 1633   6.355   0.363   6.303
   91POPC   NC3 1634   4.217   2.071   8.316
   91POPC   PO4 1635   3.772   2.047   7.937
   91POPC   GL1 1636   4.025   2.019   7.591
   91POPC   GL2 1637   4.135   1.696   7.565
   91POPC   C1A 1638   3.873   1.912   7.165
   91POPC   D2A 1639   3.733   2.003   6.721
   91POPC   C3A 1640   4.073   1.933   6.421
   91POPC   C4A 1641   4.289   2.172   6.064
   91POPC   C1B 1642   4.377   1.875   7.214
   91POPC   C2B 1643   4.424   1.786   6.778
   91POPC   C3B 1644   4.571   1.832   6.345
   91POPC   C4B 1645   4.544   1.753   5.896
   92POPC   NC3 1646   7.552  11.206   7.914
   92POPC   PO4 1647   6.827  11.203   7.968
   92POPC   GL1 1648   7.077  10.974   7.626
   92POPC   GL2 1649   7.311  11.222   7.476
   92POPC   C1A 1650   7.131  10.881   7.152
   92POPC   D2A 1651   7.248  11.124   6.793
   92POPC   C3A 1652   7.055  11.141   6.408
   92POPC   C4A 1653   7.075  10.862   6.003
   92POPC   C1B 1654   7.624  11.199   7.144
   92POPC   C2B 1655   7.790  11.204   6.743
   92POPC   C3B 1656   7.595  11.117   6.362
   92POPC   C4B 1657   7.354  11.328   6.044
   93POPC   NC3 1658   0.487  10.485   8.164
   93POPC   PO4 1659   0.097   9.930   7.940
   93POPC   GL1 1660   0.140  10.118   7.551
   93POPC   GL2 1661   0.440  10.326   7.606
   93POPC   C1A 1662   0.039  10.420   7.215
   93POPC   D2A 1663   0.210  10.602   6.819
   93POPC   C3A 1664   0.286  10.314   6.493
   93POPC   C4A 1665   0.670  10.034   6.506
   93POPC   C1B 1666   0.548  10.584   7.244
   93POPC   C2B 1667   0.801  10.738   6.919
   93POPC   C3B 1668   0.721  10.603   6.543
   93POPC   C4B 1669   0.521  10.628   6.162
   94POPC   NC3 1670   4.557   0.562   8.092
   94POPC   PO4 1671   4.039   0.159   7.891
   94POPC   GL1 1672   4.282   0.364   7.569
   94POPC   GL2 1673   4.614   0.317   7.660
   94POPC   C1A 1674   4.164   0.458   7.112
   94POPC   D2A 1675   3.857   0.317   6.740
   94POPC   C3A 1676   4.009   0.448   6.299
   94POPC   C4A 1677   4.376   0.705   6.163
   94POPC   C1B 1678   4.649   0.195   7.236
   94POPC   C2B 1679   4.589   0.249   6.794
   94POPC   C3B 1680   4.487   0.199   6.372
   94POPC   C4B 1681   4.405  11.345   6.097
   95POPC   NC3 1682   7.116   2.059   7.957
   95POPC   PO4 1683   7.770   2.101   8.097
   95POPC   GL1 1684   7.566   2.167   7.662
   95POPC   GL2 1685   7.412   1.845   7.542
   95POPC   C1A 1686   7.589   2.163   7.177
   95POPC   D2A 1687   7.429   1.975   6.778
   95POPC   C3A 1688   7.506   2.138   6.370
   95POPC   C4A 1689   7.446   2.002   5.948
   95POPC   C1B 1690   7.111   1.921   7.173
   95POPC   C2B 1691   6.921   2.003   6.712
   95POPC   C3B 1692   6.997   2.050   6.242
   95POPC   C4B 1693   6.733   2.124   5.881
   96POPC   NC3 1694  11.252   4.475   8.131
   96POPC   PO4 1695  11.061   3.779   8.345
   96POPC   GL1 1696  11.126   3.880   7.839
   96POPC   GL2 1697  11.146   4.177   7.743
   96POPC   C1A 1698  11.360   3.887   7.374
   96POPC   D2A 1699  11.228   4.069   6.912
   96POPC   C3A 1700  11.249   3.965   6.433
   96POPC   C4A 1701  10.946   4.207   6.127
   96POPC   C1B 1702  11.268   4.389   7.340
   96POPC   C2B 1703  11.162   4.592   6.945
   96POPC   C3B 1704  11.132   4.443   6.543
   96POPC   C4B 1705  11.400   4.440   6.181
   97POPC   NC3 1706   7.999   1.690   8.049
   97POPC   PO4 1707   8.511   2.201   8.017
   97POPC   GL1 1708   8.532   1.851   7.730
   97POPC   GL2 1709   8.269   1.621   7.649
   97POPC   C1A 1710   8.519   1.819   7.282
   97POPC   D2A 1711   8.274   1.949   6.934
   97POPC   C3A 1712   8.425   1.883   6.502
   97POPC   C4A 1713   8.268   1.638   6.181
   97POPC   C1B 1714   7.965   1.844   7.396
   97POPC   C2B 1715   7.803   1.703   7.008
   97POPC   C3B 1716   7.893   1.837   6.597
   97POPC   C4B 1717   8.030   2.098   6.257
   98POPC   NC3 1718  11.037   5.894   8.201
   98POPC   PO4 1719   0.107   6.021   7.848
   98POPC   GL1 1720  11.294   5.883   7.589
   98POPC   GL2 1721  11.113   5.636   7.734
   98POPC   C1A 1722  11.322   5.770   7.158
   98POPC   D2A 1723  11.195   5.550   6.778
   98POPC   C3A 1724  11.228   5.758   6.384
   98POPC   C4A 1725  11.024   5.990   6.048
   98POPC   C1B 1726  10.916   5.490   7.341
   98POPC   C2B 1727  10.709   5.519   6.950
   98POPC   C3B 1728  10.758   5.393   6.533
   98POPC   C4B 1729  10.801   5.562   6.137
   99POPC   NC3 1730   1.523   6.482   8.270
   99POPC   PO4 1731   0.921   6.303   7.997
   99POPC   GL1 1732   1.185   6.381   7.673
   99POPC   GL2 1733   1.265   6.720   7.750
   99POPC   C1A 1734   1.146   6.243   7.248
   99POPC   D2A 1735   1.308   6.098   6.836
   99POPC   C3A 1736   1.179   6.263   6.426
   99POPC   C4A 1737   1.476   6.394   6.109
   99POPC   C1B 1738   0.997   6.718   7.336
   99POPC   C2B 1739   1.153   6.626   6.893
   99POPC   C3B 1740   1.292   6.769   6.465
   99POPC   C4B 1741   1.072   6.702   6.088
  100POPC   NC3 1742   1.355   4.392   8.045
  100POPC   PO4 1743   0.715   4.612   8.121
  100POPC   GL1 1744   0.918   4.418   7.697
  100POPC   GL2 1745   1.259   4.173   7.600
  100POPC   C1A 1746   0.842   4.148   7.327
  100POPC   D2A 1747   1.107   4.078   6.957
  100POPC   C3A 1748   0.862   4.218   6.590
  100POPC   C4A 1749   0.986   4.134   6.167
  100POPC   C1B 1750   1.296   4.450   7.270
  100POPC   C2B 1751   1.219   4.552   6.841
  100POPC   C3B 1752   1.330   4.365   6.462
  100POPC   C4B 1753   1.399   4.539   6.084
  101POPC   NC3 1754   7.311   9.858   8.121
  101POPC   PO4 1755   7.291   9.274   7.925
  101POPC   GL1 1756   7.553   9.418   7.616
  101POPC   GL2 1757   7.534   9.741   7.682
  101POPC   C1A 1758   7.464   9.487   7.153
  101POPC   D2A 1759   7.542   9.414   6.725
  101POPC   C3A 1760   7.285   9.658   6.429
  101POPC   C4A 1761   7.117   9.459   6.074
  101POPC   C1B 1762   7.254   9.920   7.341
  101POPC   C2B 1763   7.145   9.965   6.861
  101POPC   C3B 1764   7.000  10.122   6.425
  101POPC   C4B 1765   7.016   9.954   5.974
  102POPC   NC3 1766   2.121   8.568   7.989
  102POPC   PO4 1767   1.476   8.515   8.118
  102POPC   GL1 1768   1.643   8.524   7.732
  102POPC   GL2 1769   1.725   8.878   7.765
  102POPC   C1A 1770   1.501   8.683   7.336
  102POPC   D2A 1771   1.670   8.903   6.942
  102POPC   C3A 1772   1.653   8.724   6.503
  102POPC   C4A 1773   1.760   8.458   6.125
  102POPC   C1B 1774   1.993   8.802   7.405
  102POPC   C2B 1775   2.189   8.850   7.043
  102POPC   C3B 1776   2.139   8.883   6.641
  102POPC   C4B 1777   2.123   8.840   6.227
  103POPC   NC3 1778   2.991   6.503   8.059
  103POPC   PO4 1779   2.469   5.999   8.134
  103POPC   GL1 1780   2.453   6.174   7.674
  103POPC   GL2 1781   2.648   6.449   7.664
  103POPC   C1A 1782   2.506   6.172   7.215
  103POPC   D2A 1783   2.474   6.088   6.765
  103POPC   C3A 1784   2.870   6.235   6.510
  103POPC   C4A 1785   2.935   6.388   6.089
  103POPC   C1B 1786   2.593   6.670   7.259
  103POPC   C2B 1787   2.623   6.552   6.838
  103POPC   C3B 1788   2.613   6.648   6.408
  103POPC   C4B 1789   2.833   6.908   6.113
  104POPC   NC3 1790   7.708   1.427   8.456
  104POPC   PO4 1791   7.169   1.582   7.971
  104POPC   GL1 1792   7.304   1.329   7.599
  104POPC   GL2 1793   7.472   1.014   7.725
  104POPC   C1A 1794   7.356   1.461   7.138
  104POPC   D2A 1795   7.472   1.470   6.667
  104POPC   C3A 1796   7.257   1.603   6.245
  104POPC   C4A 1797   7.430   1.492   5.795
  104POPC   C1B 1798   7.560   0.996   7.284
  104POPC   C2B 1799   7.265   0.991   6.935
  104POPC   C3B 1800   7.106   1.087   6.528
  104POPC   C4B 1801   7.478   1.146   6.259
  105POPC   NC3 1802   3.731  10.276   8.037
  105POPC   PO4 1803   3.268   9.840   8.158
  105POPC   GL1 1804   3.270  10.108   7.792
  105POPC   GL2 1805   3.257  10.493   7.811
  105POPC   C1A 1806   3.216  10.041   7.353
  105POPC   D2A 1807   3.357  10.243   6.971
  105POPC   C3A 1808   3.226  10.093   6.565
  105POPC   C4A 1809   3.503  10.159   6.251
  105POPC   C1B 1810   3.510  10.497   7.413
  105POPC   C2B 1811   3.769  10.530   7.028
  105POPC   C3B 1812   3.610  10.621   6.590
  105POPC   C4B 1813   3.841  10.561   6.200
  106POPC   NC3 1814   0.642   6.696   7.985
  106POPC   PO4 1815   0.291   6.290   8.351
  106POPC   GL1 1816   0.208   6.511   7.861
  106POPC   GL2 1817   0.480   6.334   7.654
  106POPC   C1A 1818   0.174   6.620   7.371
  106POPC   D2A 1819   0.150   6.425   6.939
  106POPC   C3A 1820   0.240   6.630   6.533
  106POPC   C4A 1821   0.261   6.610   6.085
  106POPC   C1B 1822   0.611   6.393   7.219
  106POPC   C2B 1823   0.617   6.726   6.910
  106POPC   C3B 1824   0.790   6.676   6.519
  106POPC   C4B 1825   0.690   6.361   6.240
  107POPC   NC3 1826   5.822  10.598   8.301
  107POPC   PO4 1827   5.609  11.242   8.121
  107POPC   GL1 1828   5.499  11.140   7.705
  107POPC   GL2 1829   5.735  11.359   7.613
  107POPC   C1A 1830   5.677  10.977   7.300
  107POPC   D2A 1831   5.958  10.812   7.001
  107POPC   C3A 1832   5.697  10.872   6.669
  107POPC   C4A 1833   5.671  10.972   6.249
  107POPC   C1B 1834   6.021  11.388   7.308
  107POPC   C2B 1835   5.851  11.336   6.920
  107POPC   C3B 1836   5.992  11.252   6.542
  107POPC   C4B 1837   5.967  11.448   6.202
  108POPC   NC3 1838   9.974   3.647   7.979
  108POPC   PO4 1839   9.891   3.061   7.818
  108POPC   GL1 1840   9.880   3.267   7.479
  108POPC   GL2 1841   9.875   3.603   7.465
  108POPC   C1A 1842   9.844   3.234   7.073
  108POPC   D2A 1843   9.885   3.123   6.713
  108POPC   C3A 1844   9.824   3.416   6.392
  108POPC   C4A 1845   9.642   3.387   5.987
  108POPC   C1B 1846   9.490   3.569   7.184
  108POPC   C2B 1847   9.428   3.399   6.752
  108POPC   C3B 1848   9.304   3.587   6.334
  108POPC   C4B 1849   9.465   3.861   5.986
  109POPC   NC3 1850   2.033   4.595   8.071
  109POPC   PO4 1851   2.018   3.993   8.150
  109POPC   GL1 1852   1.778   4.148   7.788
  109POPC   GL2 1853   2.104   4.175   7.647
  109POPC   C1A 1854   1.713   4.138   7.309
  109POPC   D2A 1855   1.611   4.183   6.847
  109POPC   C3A 1856   1.835   4.403   6.478
  109POPC   C4A 1857   1.903   4.750   6.156
  109POPC   C1B 1858   2.179   3.896   7.280
  109POPC   C2B 1859   2.115   4.011   6.848
  109POPC   C3B 1860   2.277   4.117   6.413
  109POPC   C4B 1861   1.999   4.143   6.051
  110POPC   NC3 1862  10.177   8.413   8.071
  110POPC   PO4 1863  10.358   9.095   8.192
  110POPC   GL1 1864  10.242   8.844   7.795
  110POPC   GL2 1865  10.529   8.626   7.730
  110POPC   C1A 1866  10.167   8.550   7.394
  110POPC   D2A 1867  10.417   8.552   6.980
  110POPC   C3A 1868  10.258   8.594   6.545
  110POPC   C4A 1869  10.253   8.756   6.107
  110POPC   C1B 1870  10.573   8.858   7.369
  110POPC   C2B 1871  10.769   8.995   7.015
  110POPC   C3B 1872  10.712   8.878   6.598
  110POPC   C4B 1873  10.695   8.995   6.187
  111POPC   NC3 1874   0.460   0.566   8.153
  111POPC   PO4 1875   0.311  11.416   8.117
  111POPC   GL1 1876   0.514   0.079   7.721
  111POPC   GL2 1877   0.483   0.453   7.609
  111POPC   C1A 1878   0.454   0.020   7.264
  111POPC   D2A 1879   0.373   0.260   6.871
  111POPC   C3A 1880   0.364   0.053   6.433
  111POPC   C4A 1881   0.465   0.138   5.967
  111POPC   C1B 1882   0.329   0.764   7.254
  111POPC   C2B 1883   0.360   0.804   6.796
  111POPC   C3B 1884   0.541   0.580   6.485
  111POPC   C4B 1885   0.828   0.498   6.189
  112POPC   NC3 1886  10.619   9.566   8.055
  112POPC   PO4 1887   9.934   9.774   8.226
  112POPC   GL1 1888  10.190   9.737   7.845
  112POPC   GL2 1889  10.306   9.368   7.726
  112POPC   C1A 1890  10.218   9.789   7.401
  112POPC   D2A 1891  10.046   9.625   7.019
  112POPC   C3A 1892  10.202   9.644   6.598
  112POPC   C4A 1893  10.003   9.702   6.168
  112POPC   C1B 1894  10.392   9.324   7.280
  112POPC   C2B 1895  10.267   9.124   6.895
  112POPC   C3B 1896  10.314   9.173   6.465
  112POPC   C4B 1897  10.457   9.462   6.137
  113POPC   NC3 1898   9.573  10.012   8.392
  113POPC   PO4 1899   9.296   9.575   7.994
  113POPC   GL1 1900   9.657   9.683   7.778
  113POPC   GL2 1901   9.815   9.431   7.653
  113POPC   C1A 1902   9.678   9.842   7.343
  113POPC   D2A 1903   9.528   9.714   6.932
  113POPC   C3A 1904   9.746   9.896   6.586
  113POPC   C4A 1905   9.539   9.922   6.192
  113POPC   C1B 1906   9.579   9.352   7.324
  113POPC   C2B 1907   9.744   9.242   6.953
  113POPC   C3B 1908   9.773   9.390   6.578
  113POPC   C4B 1909   9.566   9.385   6.234
  114POPC   NC3 1910  10.216  10.306   8.118
  114POPC   PO4 1911  10.862  10.123   8.282
  114POPC   GL1 1912  10.654  10.402   7.803
  114POPC   GL2 1913  10.367  10.234   7.645
  114POPC   C1A 1914  10.722  10.280   7.291
  114POPC   D2A 1915  10.523  10.424   6.927
  114POPC   C3A 1916  10.701  10.532   6.545
  114POPC   C4A 1917  10.779  10.216   6.302
  114POPC   C1B 1918  10.315  10.594   7.374
  114POPC   C2B 1919  10.083  10.687   6.987
  114POPC   C3B 1920  10.200  10.609   6.556
  114POPC   C4B 1921  10.376  10.466   6.127
  115POPC   NC3 1922  10.661   7.823   8.016
  115POPC   PO4 1923   9.984   7.973   8.026
  115POPC   GL1 1924  10.134   8.070   7.642
  115POPC   GL2 1925  10.468   8.125   7.653
  115POPC   C1A 1926  10.212   8.086   7.213
  115POPC   D2A 1927  10.013   8.255   6.888
  115POPC   C3A 1928  10.063   8.081   6.509
  115POPC   C4A 1929  10.083   8.277   6.146
  115POPC   C1B 1930  10.692   7.907   7.307
  115POPC   C2B 1931  10.619   8.066   6.881
  115POPC   C3B 1932  10.556   8.182   6.463
  115POPC   C4B 1933  10.508   7.922   6.107
  116POPC   NC3 1934  11.473   7.437   7.949
  116POPC   PO4 1935   0.629   7.153   7.966
  116POPC   GL1 1936   0.390   7.349   7.661
  116POPC   GL2 1937   0.172   7.040   7.666
  116POPC   C1A 1938   0.329   7.591   7.250
  116POPC   D2A 1939   0.067   7.578   6.848
  116POPC   C3A 1940   0.314   7.569   6.453
  116POPC   C4A 1941   0.658   7.433   6.174
  116POPC   C1B 1942   0.462   7.051   7.277
  116POPC   C2B 1943   0.492   7.267   6.870
  116POPC   C3B 1944   0.489   7.077   6.489
  116POPC   C4B 1945   0.654   6.950   6.087
  117POPC   NC3 1946   8.459   9.802   8.093
  117POPC   PO4 1947   7.741   9.676   8.203
  117POPC   GL1 1948   8.049   9.577   7.834
  117POPC   GL2 1949   8.030   9.888   7.736
  117POPC   C1A 1950   8.367   9.622   7.430
  117POPC   D2A 1951   8.470   9.657   6.946
  117POPC   C3A 1952   8.244   9.515   6.533
  117POPC   C4A 1953   8.159   9.720   6.172
  117POPC   C1B 1954   7.888   9.693   7.331
  117POPC   C2B 1955   7.955   9.719   6.897
  117POPC   C3B 1956   7.778   9.811   6.495
  117POPC   C4B 1957   7.720   9.437   6.220
  118POPC   NC3 1958   3.596   0.383   7.931
  118POPC   PO4 1959   3.802   1.033   7.973
  118POPC   GL1 1960   3.821   0.699   7.613
  118POPC   GL2 1961   3.788   0.343   7.466
  118POPC   C1A 1962   3.563   0.717   7.217
  118POPC   D2A 1963   3.343   0.562   6.851
  118POPC   C3A 1964   3.584   0.718   6.513
  118POPC   C4A 1965   3.638   0.750   6.050
  118POPC   C1B 1966   3.421   0.216   7.239
  118POPC   C2B 1967   3.386  11.442   6.914
  118POPC   C3B 1968   3.239   0.015   6.515
  118POPC   C4B 1969   3.363   0.361   6.250
  119POPC   NC3 1970  11.247   2.323   8.191
  119POPC   PO4 1971  10.701   2.641   8.225
  119POPC   GL1 1972  10.889   2.519   7.827
  119POPC   GL2 1973  11.234   2.689   7.847
  119POPC   C1A 1974  10.986   2.671   7.406
  119POPC   D2A 1975  10.835   2.753   7.025
  119POPC   C3A 1976  10.911   2.410   6.775
  119POPC   C4A 1977  10.920   2.394   6.322
  119POPC   C1B 1978  11.477   2.692   7.479
  119POPC   C2B 1979  11.393   2.708   7.035
  119POPC   C3B 1980  11.218   2.790   6.647
  119POPC   C4B 1981  11.419   2.731   6.291
  120POPC   NC3 1982   8.094  11.430   8.117
  120POPC   PO4 1983   7.748  10.901   8.214
  120POPC   GL1 1984   8.011  11.141   7.725
  120POPC   GL2 1985   7.838  11.406   7.554
  120POPC   C1A 1986   8.100  11.007   7.263
  120POPC   D2A 1987   8.288  11.119   6.853
  120POPC   C3A 1988   8.151  11.075   6.388
  120POPC   C4A 1989   8.001  10.809   6.056
  120POPC   C1B 1990   8.232  11.496   7.370
  120POPC   C2B 1991   8.397   0.105   6.979
  120POPC   C3B 1992   8.181   0.043   6.605
  120POPC   C4B 1993   8.246   0.063   6.200
  121POPC   NC3 1994   5.992   1.572   8.109
  121POPC   PO4 1995   5.331   1.584   8.083
  121POPC   GL1 1996   5.679   1.426   7.738
  121POPC   GL2 1997   5.910   1.114   7.693
  121POPC   C1A 1998   5.913   1.443   7.325
  121POPC   D2A 1999   5.783   1.335   6.917
  121POPC   C3A 2000   5.968   1.347   6.511
  121POPC   C4A 2001   5.742   1.327   6.093
  121POPC   C1B 2002   5.857   0.929   7.250
  121POPC   C2B 2003   5.600   0.865   6.868
  121POPC   C3B 2004   5.675   0.950   6.430
  121POPC   C4B 2005   6.087   0.980   6.154
  122POPC   NC3 2006  10.721   1.515   7.920
  122POPC   PO4 2007  11.334   1.878   8.098
  122POPC   GL1 2008  11.332   2.143   7.718
  122POPC   GL2 2009  11.209   1.828   7.569
  122POPC   C1A 2010  11.308   2.255   7.274
  122POPC   D2A 2011  11.484   2.126   6.901
  122POPC   C3A 2012  11.383   2.301   6.563
  122POPC   C4A 2013  11.377   2.245   6.152
  122POPC   C1B 2014  11.129   1.791   7.115
  122POPC   C2B 2015  11.035   1.929   6.695
  122POPC   C3B 2016  10.995   1.841   6.265
  122POPC   C4B 2017  10.901   1.649   5.852
  123POPC   NC3 2018   1.285   3.500   8.059
  123POPC   PO4 2019   1.028   4.070   8.034
  123POPC   GL1 2020   0.970   3.744   7.701
  123POPC   GL2 2021   1.321   3.626   7.566
  123POPC   C1A 2022   0.902   3.556   7.292
  123POPC   D2A 2023   1.148   3.561   6.916
  123POPC   C3A 2024   0.998   3.706   6.530
  123POPC   C4A 2025   1.145   3.650   6.123
  123POPC   C1B 2026   1.365   3.254   7.271
  123POPC   C2B 2027   1.491   3.193   6.809
  123POPC   C3B 2028   1.255   3.244   6.415
  123POPC   C4B 2029   1.332   3.191   5.929
  124POPC   NC3 2030   9.284  10.027   7.887
  124POPC   PO4 2031   9.780  10.409   8.260
  124POPC   GL1 2032   9.836  10.472   7.772
  124POPC   GL2 2033   9.865  10.140   7.729
  124POPC   C1A 2034   9.630  10.567   7.330
  124POPC   D2A 2035   9.581  10.234   6.970
  124POPC   C3A 2036   9.443  10.306   6.527
  124POPC   C4A 2037   9.356  10.690   6.350
  124POPC   C1B 2038   9.995  10.228   7.290
  124POPC   C2B 2039  10.124  10.113   6.887
  124POPC   C3B 2040  10.271  10.114   6.471
  124POPC   C4B 2041   9.935  10.236   6.221
  125POPC   NC3 2042  11.023   0.607   7.968
  125POPC   PO4 2043   0.118   0.874   8.074
  125POPC   GL1 2044  11.500   0.547   7.736
  125POPC   GL2 2045  11.298   0.220   7.734
  125POPC   C1A 2046   0.051   0.350   7.306
  125POPC   D2A 2047  11.418   0.553   6.926
  125POPC   C3A 2048   0.045   0.473   6.520
  125POPC   C4A 2049  11.484   0.249   6.157
  125POPC   C1B 2050  11.045   0.306   7.350
  125POPC   C2B 2051  10.933   0.241   6.927
  125POPC   C3B 2052  11.063   0.286   6.514
  125POPC   C4B 2053  11.066   0.543   6.200
  126POPC   NC3 2054   0.518   6.028   8.060
  126POPC   PO4 2055  11.445   5.651   8.223
  126POPC   GL1 2056   0.120   5.518   7.741
  126POPC   GL2 2057   0.474   5.639   7.716
  126POPC   C1A 2058   0.293   5.576   7.273
  126POPC   D2A 2059   0.315   5.881   6.973
  126POPC   C3A 2060   0.203   5.645   6.622
  126POPC   C4A 2061   0.389   5.595   6.242
  126POPC   C1B 2062   0.694   5.918   7.413
  126POPC   C2B 2063   0.833   5.945   6.986
  126POPC   C3B 2064   0.754   5.882   6.551
  126POPC   C4B 2065   0.821   5.878   6.120
  127POPC   NC3 2066  10.369   5.988   8.032
  127POPC   PO4 2067  10.907   6.353   8.171
  127POPC   GL1 2068  10.834   6.068   7.766
  127POPC   GL2 2069  10.609   5.765   7.662
  127POPC   C1A 2070  10.873   6.000   7.310
  127POPC   D2A 2071  10.952   5.978   6.875
  127POPC   C3A 2072  10.744   5.903   6.509
  127POPC   C4A 2073  10.579   6.220   6.217
  127POPC   C1B 2074  10.419   5.802   7.260
  127POPC   C2B 2075  10.350   5.888   6.852
  127POPC   C3B 2076  10.187   6.021   6.502
  127POPC   C4B 2077  10.336   5.770   6.245
  128POPC   NC3 2078   2.081   6.315   7.984
  128POPC   PO4 2079   1.756   6.843   8.101
  128POPC   GL1 2080   1.781   6.723   7.648
  128POPC   GL2 2081   1.695   6.409   7.661
  128POPC   C1A 2082   1.623   6.608   7.188
  128POPC   D2A 2083   1.641   6.499   6.723
  128POPC   C3A 2084   1.818   6.796   6.407
  128POPC   C4A 2085   2.244   6.964   6.302
  128POPC   C1B 2086   2.046   6.338   7.363
  128POPC   C2B 2087   2.144   6.450   6.982
  128POPC   C3B 2088   2.151   6.431   6.552
  128POPC   C4B 2089   1.986   6.379   6.141
  129POPC   NC3 2090  10.351   2.962   8.054
  129POPC   PO4 2091  10.021   2.361   8.097
  129POPC   GL1 2092  10.287   2.545   7.803
  129POPC   GL2 2093  10.048   2.625   7.595
  129POPC   C1A 2094  10.506   2.544   7.394
  129POPC   D2A 2095  10.430   2.408   6.966
  129POPC   C3A 2096  10.482   2.623   6.548
  129POPC   C4A 2097  10.301   2.520   6.125
  129POPC   C1B 2098  10.199   2.918   7.269
  129POPC   C2B 2099  10.372   3.002   6.902
  129POPC   C3B 2100  10.320   3.117   6.473
  129POPC   C4B 2101  10.491   2.992   6.110
  130POPC   NC3 2102   4.357  10.525   7.921
  130POPC   PO4 2103   3.726  10.723   8.057
  130POPC   GL1 2104   3.915  10.675   7.699
  130POPC   GL2 2105   3.985  10.367   7.601
  130POPC   C1A 2106   4.005  10.889   7.365
  130POPC   D2A 2107   4.235  10.951   7.008
  130POPC   C3A 2108   4.117  10.736   6.661
  130POPC   C4A 2109   4.364  10.640   6.296
  130POPC   C1B 2110   4.237  10.446   7.246
  130POPC   C2B 2111   4.233  10.281   6.847
  130POPC   C3B 2112   4.554  10.247   6.556
  130POPC   C4B 2113   4.582  10.186   6.130
  131POPC   NC3 2114   0.979   4.995   8.113
  131POPC   PO4 2115   1.615   4.777   8.029
  131POPC   GL1 2116   1.248   4.810   7.661
  131POPC   GL2 2117   1.004   5.090   7.629
  131POPC   C1A 2118   0.986   4.839   7.211
  131POPC   D2A 2119   0.893   4.961   6.787
  131POPC   C3A 2120   0.968   4.728   6.422
  131POPC   C4A 2121   1.117   4.962   6.132
  131POPC   C1B 2122   1.308   5.213   7.301
  131POPC   C2B 2123   1.396   5.029   6.905
  131POPC   C3B 2124   1.483   4.883   6.492
  131POPC   C4B 2125   1.480   5.268   6.286
  132POPC   NC3 2126   5.314   2.038   8.047
  132POPC   PO4 2127   5.954   2.059   8.150
  132POPC   GL1 2128   5.934   1.899   7.702
  132POPC   GL2 2129   5.584   1.911   7.633
  132POPC   C1A 2130   5.878   1.932   7.215
  132POPC   D2A 2131   5.944   1.809   6.768
  132POPC   C3A 2132   6.129   2.131   6.493
  132POPC   C4A 2133   6.019   2.461   6.205
  132POPC   C1B 2134   5.409   1.613   7.331
  132POPC   C2B 2135   5.288   1.445   6.912
  132POPC   C3B 2136   5.476   1.515   6.488
  132POPC   C4B 2137   5.816   1.797   6.249
  133POPC   NC3 2138   0.004  11.245   7.810
  133POPC   PO4 2139   0.199  10.854   8.299
  133POPC   GL1 2140   0.238  10.795   7.764
  133POPC   GL2 2141   0.448  11.067   7.609
  133POPC   C1A 2142   0.135  10.915   7.258
  133POPC   D2A 2143  11.467  11.044   6.827
  133POPC   C3A 2144   0.174  10.932   6.396
  133POPC   C4A 2145   0.151  10.800   5.885
  133POPC   C1B 2146   0.761  11.087   7.297
  133POPC   C2B 2147   0.780  11.278   6.909
  133POPC   C3B 2148   0.644  11.117   6.523
  133POPC   C4B 2149   0.513  11.145   6.078
  134POPC   NC3 2150   2.278   3.613   8.099
  134POPC   PO4 2151   1.672   3.268   8.003
  134POPC   GL1 2152   1.903   3.310   7.614
  134POPC   GL2 2153   1.949   3.662   7.666
  134POPC   C1A 2154   1.838   3.099   7.191
  134POPC   D2A 2155   1.969   2.998   6.771
  134POPC   C3A 2156   1.917   3.346   6.490
  134POPC   C4A 2157   1.640   3.504   6.166
  134POPC   C1B 2158   1.729   3.623   7.248
  134POPC   C2B 2159   1.655   3.678   6.808
  134POPC   C3B 2160   1.839   3.861   6.449
  134POPC   C4B 2161   2.164   3.678   6.152
  135POPC   NC3 2162   1.606   2.886   8.241
  135POPC   PO4 2163   2.196   2.468   8.056
  135POPC   GL1 2164   1.882   2.480   7.780
  135POPC   GL2 2165   1.766   2.824   7.736
  135POPC   C1A 2166   1.727   2.484   7.362
  135POPC   D2A 2167   1.859   2.325   6.975
  135POPC   C3A 2168   1.835   2.546   6.575
  135POPC   C4A 2169   1.613   2.468   6.181
  135POPC   C1B 2170   2.141   2.771   7.428
  135POPC   C2B 2171   2.326   2.502   7.065
  135POPC   C3B 2172   2.338   2.508   6.610
  135POPC   C4B 2173   2.165   2.825   6.306
  136POPC   NC3 2174   2.764   8.879   8.030
  136POPC   PO4 2175   2.493   8.420   7.781
  136POPC   GL1 2176   2.446   8.887   7.609
  136POPC   GL2 2177   2.746   9.118   7.572
  136POPC   C1A 2178   2.363   9.241   7.279
  136POPC   D2A 2179   2.487   9.246   6.824
  136POPC   C3A 2180   2.567   9.057   6.399
  136POPC   C4A 2181   2.591   8.854   5.958
  136POPC   C1B 2182   2.685   8.848   7.166
  136POPC   C2B 2183   2.582   8.639   6.739
  136POPC   C3B 2184   2.855   8.643   6.360
  136POPC   C4B 2185   3.070   9.038   6.206
  137POPC   NC3 2186   2.000   2.060   8.186
  137POPC   PO4 2187   1.495   1.594   8.015
  137POPC   GL1 2188   1.826   1.654   7.724
  137POPC   GL2 2189   2.069   1.920   7.714
  137POPC   C1A 2190   1.874   1.547   7.302
  137POPC   D2A 2191   1.649   1.761   6.936
  137POPC   C3A 2192   1.683   1.655   6.516
  137POPC   C4A 2193   1.740   1.952   6.171
  137POPC   C1B 2194   2.130   2.156   7.386
  137POPC   C2B 2195   2.161   1.914   6.988
  137POPC   C3B 2196   2.016   2.052   6.581
  137POPC   C4B 2197   2.116   2.296   6.198
  138POPC   NC3 2198   1.764  11.112   8.359
  138POPC   PO4 2199   1.686   0.183   8.033
  138POPC   GL1 2200   1.650  11.300   7.781
  138POPC   GL2 2201   1.935  11.062   7.826
  138POPC   C1A 2202   1.708  11.189   7.341
  138POPC   D2A 2203   1.935  11.332   6.970
  138POPC   C3A 2204   1.787  11.245   6.560
  138POPC   C4A 2205   1.748   0.041   6.252
  138POPC   C1B 2206   2.175  10.924   7.464
  138POPC   C2B 2207   2.189  10.870   7.016
  138POPC   C3B 2208   2.297  11.099   6.642
  138POPC   C4B 2209   2.157  11.045   6.226
  139POPC   NC3 2210   4.505  11.486   8.060
  139POPC   PO4 2211   4.724  10.781   8.058
  139POPC   GL1 2212   4.472  10.980   7.713
  139POPC   GL2 2213   4.139  11.150   7.790
  139POPC   C1A 2214   4.648  11.017   7.300
  139POPC   D2A 2215   4.655  11.257   6.946
  139POPC   C3A 2216   4.543  11.043   6.586
  139POPC   C4A 2217   4.747  11.009   6.228
  139POPC   C1B 2218   4.283  11.349   7.389
  139POPC   C2B 2219   4.177  11.466   6.982
  139POPC   C3B 2220   4.152  11.367   6.568
  139POPC   C4B 2221   4.049  11.042   6.267
  140POPC   NC3 2222   9.468   1.182   8.081
  140POPC   PO4 2223  10.059   1.283   8.120
  140POPC   GL1 2224   9.775   1.326   7.701
  140POPC   GL2 2225   9.511   1.051   7.602
  140POPC   C1A 2226   9.676   1.469   7.263
  140POPC   D2A 2227   9.361   1.460   6.895
  140POPC   C3A 2228   9.518   1.448   6.469
  140POPC   C4A 2229   9.882   1.423   6.227
  140POPC   C1B 2230   9.629   0.976   7.182
  140POPC   C2B 2231   9.751   1.142   6.790
  140POPC   C3B 2232   9.764   0.958   6.377
  140POPC   C4B 2233   9.402   0.814   6.133
  141POPC   NC3 2234   2.871  10.052   8.284
  141POPC   PO4 2235   2.727  10.674   8.053
  141POPC   GL1 2236   2.739  10.578   7.663
  141POPC   GL2 2237   2.794  10.233   7.624
  141POPC   C1A 2238   2.472  10.527   7.308
  141POPC   D2A 2239   2.486  10.362   6.912
  141POPC   C3A 2240   2.414  10.599   6.577
  141POPC   C4A 2241   2.532  10.411   6.223
  141POPC   C1B 2242   2.975  10.482   7.227
  141POPC   C2B 2243   2.964  10.493   6.756
  141POPC   C3B 2244   3.031  10.533   6.328
  141POPC   C4B 2245   2.961  10.178   6.108
  142POPC   NC3 2246   6.945   0.207   7.971
  142POPC   PO4 2247   7.699   0.164   7.996
  142POPC   GL1 2248   7.422   0.208   7.650
  142POPC   GL2 2249   7.297   0.525   7.734
  142POPC   C1A 2250   7.358   0.149   7.188
  142POPC   D2A 2251   7.441   0.091   6.730
  142POPC   C3A 2252   7.211   0.203   6.358
  142POPC   C4A 2253   7.398   0.314   5.914
  142POPC   C1B 2254   7.192   0.640   7.314
  142POPC   C2B 2255   7.128   0.500   6.884
  142POPC   C3B 2256   7.376   0.643   6.540
  142POPC   C4B 2257   7.203   0.720   6.156
  143POPC   NC3 2258   2.963   9.636   7.860
  143POPC   PO4 2259   2.437   9.978   8.104
  143POPC   GL1 2260   2.338   9.920   7.674
  143POPC   GL2 2261   2.496   9.598   7.608
  143POPC   C1A 2262   2.519   9.993   7.265
  143POPC   D2A 2263   2.869  10.033   6.968
  143POPC   C3A 2264   2.694  10.037   6.537
  143POPC   C4A 2265   2.433   9.880   6.169
  143POPC   C1B 2266   2.788   9.552   7.217
  143POPC   C2B 2267   2.867   9.576   6.757
  143POPC   C3B 2268   2.775   9.543   6.332
  143POPC   C4B 2269   2.721   9.329   5.961
  144POPC   NC3 2270   1.657   7.290   8.013
  144POPC   PO4 2271   1.924   7.828   8.352
  144POPC   GL1 2272   1.847   7.853   7.870
  144POPC   GL2 2273   2.022   8.133   7.736
  144POPC   C1A 2274   1.760   7.813   7.381
  144POPC   D2A 2275   1.906   7.944   6.924
  144POPC   C3A 2276   1.743   7.734   6.509
  144POPC   C4A 2277   1.764   7.858   6.055
  144POPC   C1B 2278   1.896   8.312   7.316
  144POPC   C2B 2279   1.963   8.449   6.861
  144POPC   C3B 2280   2.155   8.378   6.454
  144POPC   C4B 2281   2.224   8.103   6.085
  145POPC   NC3 2282   2.582   2.768   8.061
  145POPC   PO4 2283   3.083   2.319   8.221
  145POPC   GL1 2284   2.827   2.549   7.705
  145POPC   GL2 2285   2.511   2.467   7.588
  145POPC   C1A 2286   2.886   2.419   7.209
  145POPC   D2A 2287   2.791   2.591   6.822
  145POPC   C3A 2288   2.882   2.382   6.465
  145POPC   C4A 2289   3.037   2.466   6.078
  145POPC   C1B 2290   2.624   2.841   7.276
  145POPC   C2B 2291   2.471   2.963   6.829
  145POPC   C3B 2292   2.676   2.857   6.379
  145POPC   C4B 2293   2.512   3.011   5.935
  146POPC   NC3 2294  11.201   1.499   8.331
  146POPC   PO4 2295  10.791   1.038   8.089
  146POPC   GL1 2296  10.990   1.132   7.667
  146POPC   GL2 2297  11.365   1.103   7.690
  146POPC   C1A 2298  11.081   1.285   7.212
  146POPC   D2A 2299  11.142   1.438   6.742
  146POPC   C3A 2300  10.962   1.297   6.381
  146POPC   C4A 2301  10.673   0.970   6.420
  146POPC   C1B 2302  11.270   0.812   7.349
  146POPC   C2B 2303  10.985   0.806   6.979
  146POPC   C3B 2304  11.169   0.869   6.571
  146POPC   C4B 2305  11.457   0.864   6.210
  147POPC   NC3 2306   1.903   1.285   8.066
  147POPC   PO4 2307   2.329   1.729   8.119
  147POPC   GL1 2308   2.274   1.438   7.723
  147POPC   GL2 2309   2.112   1.103   7.646
  147POPC   C1A 2310   2.376   1.462   7.270
  147POPC   D2A 2311   2.410   1.246   6.848
  147POPC   C3A 2312   2.236   1.584   6.563
  147POPC   C4A 2313   2.017   1.536   6.148
  147POPC   C1B 2314   2.071   1.061   7.205
  147POPC   C2B 2315   1.900   1.302   6.861
  147POPC   C3B 2316   1.890   1.166   6.465
  147POPC   C4B 2317   1.613   1.218   6.139
  148POPC   NC3 2318  11.486  11.244   8.416
  148POPC   PO4 2319  11.249  10.867   7.897
  148POPC   GL1 2320  11.180  11.048   7.499
  148POPC   GL2 2321  10.966  11.308   7.672
  148POPC   C1A 2322  11.341  11.384   7.209
  148POPC   D2A 2323  11.410   0.054   6.801
  148POPC   C3A 2324  11.339  11.329   6.408
  148POPC   C4A 2325   0.044  11.275   6.004
  148POPC   C1B 2326  10.828  11.319   7.272
  148POPC   C2B 2327  10.976  11.221   6.896
  148POPC   C3B 2328  10.845  11.327   6.537
  148POPC   C4B 2329  10.892  11.165   6.172
  149POPC   NC3 2330   5.203   8.766   8.013
  149POPC   PO4 2331   4.640   8.413   8.081
  149POPC   GL1 2332   4.806   8.643   7.688
  149POPC   GL2 2333   4.851   9.019   7.723
  149POPC   C1A 2334   5.041   8.792   7.301
  149POPC   D2A 2335   4.920   8.952   6.898
  149POPC   C3A 2336   4.988   8.773   6.512
  149POPC   C4A 2337   4.678   8.462   6.384
  149POPC   C1B 2338   4.869   9.279   7.335
  149POPC   C2B 2339   4.724   9.412   6.930
  149POPC   C3B 2340   4.828   9.397   6.492
  149POPC   C4B 2341   5.104   9.513   6.121
  150POPC   NC3 2342   4.380   9.516   8.075
  150POPC   PO4 2343   4.472  10.115   8.073
  150POPC   GL1 2344   4.175   9.904   7.739
  150POPC   GL2 2345   4.082   9.528   7.666
  150POPC   C1A 2346   4.227   9.898   7.267
  150POPC   D2A 2347   4.537   9.877   6.911
  150POPC   C3A 2348   4.319   9.815   6.500
  150POPC   C4A 2349   4.076  10.086   6.229
  150POPC   C1B 2350   4.333   9.378   7.306
  150POPC   C2B 2351   4.203   9.477   6.881
  150POPC   C3B 2352   4.173   9.330   6.452
  150POPC   C4B 2353   4.126   9.530   6.051
  151POPC   NC3 2354   8.944   2.016   8.015
  151POPC   PO4 2355   9.205   1.444   7.801
  151POPC   GL1 2356   8.997   1.717   7.567
  151POPC   GL2 2357   8.986   2.093   7.530
  151POPC   C1A 2358   9.011   1.706   7.162
  151POPC   D2A 2359   8.769   1.758   6.847
  151POPC   C3A 2360   9.021   1.715   6.536
  151POPC   C4A 2361   8.820   1.777   6.167
  151POPC   C1B 2362   8.850   2.190   7.129
  151POPC   C2B 2363   9.111   2.159   6.771
  151POPC   C3B 2364   9.088   2.201   6.328
  151POPC   C4B 2365   8.692   2.308   6.140
  152POPC   NC3 2366  10.569  11.307   8.021
  152POPC   PO4 2367  10.262  10.765   8.016
  152POPC   GL1 2368  10.454  10.994   7.639
  152POPC   GL2 2369  10.394  11.343   7.569
  152POPC   C1A 2370  10.409  11.053   7.181
  152POPC   D2A 2371  10.569  10.922   6.867
  152POPC   C3A 2372  10.408  11.084   6.578
  152POPC   C4A 2373  10.429  10.947   6.212
  152POPC   C1B 2374  10.039   0.025   7.387
  152POPC   C2B 2375  10.021   0.198   6.995
  152POPC   C3B 2376  10.048   0.060   6.578
  152POPC   C4B 2377  10.244  11.414   6.226
  153POPC   NC3 2378   2.022   9.532   8.183
  153POPC   PO4 2379   2.326   8.985   8.086
  153POPC   GL1 2380   2.087   9.254   7.729
  153POPC   GL2 2381   1.879   9.590   7.707
  153POPC   C1A 2382   1.850   9.270   7.313
  153POPC   D2A 2383   1.975   9.330   6.887
  153POPC   C3A 2384   1.882   9.256   6.433
  153POPC   C4A 2385   2.238   9.354   6.151
  153POPC   C1B 2386   1.845   9.784   7.319
  153POPC   C2B 2387   2.107   9.858   6.968
  153POPC   C3B 2388   2.202   9.673   6.577
  153POPC   C4B 2389   1.928   9.743   6.235
  154POPC   NC3 2390   6.074  11.287   7.972
  154POPC   PO4 2391   6.196  10.651   7.988
  154POPC   GL1 2392   6.253  10.939   7.610
  154POPC   GL2 2393   6.473  11.247   7.615
  154POPC   C1A 2394   6.411  11.018   7.185
  154POPC   D2A 2395   6.693  11.023   6.832
  154POPC   C3A 2396   6.327  10.906   6.636
  154POPC   C4A 2397   6.158  10.856   6.228
  154POPC   C1B 2398   6.833  11.284   7.276
  154POPC   C2B 2399   6.922   0.017   6.887
  154POPC   C3B 2400   6.731   0.038   6.468
  154POPC   C4B 2401   6.444  11.272   6.270
  155POPC   NC3 2402   8.381   8.805   8.110
  155POPC   PO4 2403   9.003   8.799   8.146
  155POPC   GL1 2404   8.800   8.944   7.774
  155POPC   GL2 2405   8.584   8.686   7.647
  155POPC   C1A 2406   8.794   9.089   7.352
  155POPC   D2A 2407   8.615   8.856   7.007
  155POPC   C3A 2408   8.472   9.096   6.685
  155POPC   C4A 2409   8.680   9.241   6.323
  155POPC   C1B 2410   8.974   8.604   7.404
  155POPC   C2B 2411   9.057   8.619   6.942
  155POPC   C3B 2412   8.927   8.874   6.589
  155POPC   C4B 2413   8.808   8.775   6.155
  156POPC   NC3 2414   4.119   1.357   7.941
  156POPC   PO4 2415   4.638   1.003   7.976
  156POPC   GL1 2416   4.474   1.178   7.620
  156POPC   GL2 2417   4.411   0.861   7.478
  156POPC   C1A 2418   4.363   1.345   7.228
  156POPC   D2A 2419   4.354   1.093   6.875
  156POPC   C3A 2420   4.392   1.332   6.548
  156POPC   C4A 2421   4.440   1.342   6.163
  156POPC   C1B 2422   4.040   0.942   7.252
  156POPC   C2B 2423   3.847   1.014   6.862
  156POPC   C3B 2424   4.047   0.950   6.469
  156POPC   C4B 2425   4.031   1.070   6.041
  157POPC   NC3 2426   0.893   8.127   3.980
  157POPC   PO4 2427   1.445   7.759   3.952
  157POPC   GL1 2428   1.307   8.001   4.304
  157POPC   GL2 2429   1.237   8.347   4.311
  157POPC   C1A 2430   1.345   7.989   4.747
  157POPC   D2A 2431   1.272   7.644   5.019
  157POPC   C3A 2432   1.292   7.874   5.378
  157POPC   C4A 2433   1.332   7.755   5.785
  157POPC   C1B 2434   0.920   8.245   4.646
  157POPC   C2B 2435   0.881   7.985   5.013
  157POPC   C3B 2436   0.835   8.100   5.439
  157POPC   C4B 2437   1.079   8.194   5.783
  158POPC   NC3 2438   3.611   1.787   4.077
  158POPC   PO4 2439   4.142   2.266   3.897
  158POPC   GL1 2440   3.831   2.198   4.350
  158POPC   GL2 2441   3.512   2.021   4.518
  158POPC   C1A 2442   3.848   2.247   4.791
  158POPC   D2A 2443   3.536   2.039   5.066
  158POPC   C3A 2444   3.560   2.188   5.480
  158POPC   C4A 2445   3.465   2.212   5.900
  158POPC   C1B 2446   3.466   1.619   4.742
  158POPC   C2B 2447   3.582   1.425   5.129
  158POPC   C3B 2448   3.721   1.666   5.460
  158POPC   C4B 2449   3.358   1.761   5.722
  159POPC   NC3 2450   0.734   5.651   3.944
  159POPC   PO4 2451   0.903   6.265   3.923
  159POPC   GL1 2452   0.597   6.133   4.239
  159POPC   GL2 2453   0.385   5.856   4.233
  159POPC   C1A 2454   0.634   5.967   4.672
  159POPC   D2A 2455   0.783   5.844   5.098
  159POPC   C3A 2456   0.515   5.783   5.453
  159POPC   C4A 2457   0.619   5.538   5.799
  159POPC   C1B 2458   0.336   5.570   4.628
  159POPC   C2B 2459   0.181   5.716   5.050
  159POPC   C3B 2460   0.036   5.565   5.480
  159POPC   C4B 2461  11.477   5.730   5.920
  160POPC   NC3 2462   1.990   4.572   4.105
  160POPC   PO4 2463   1.656   4.181   3.771
  160POPC   GL1 2464   1.583   4.050   4.223
  160POPC   GL2 2465   1.893   4.006   4.436
  160POPC   C1A 2466   1.477   4.267   4.618
  160POPC   D2A 2467   1.727   4.462   4.914
  160POPC   C3A 2468   1.652   4.335   5.336
  160POPC   C4A 2469   1.752   4.455   5.742
  160POPC   C1B 2470   2.164   3.734   4.752
  160POPC   C2B 2471   2.258   3.775   5.217
  160POPC   C3B 2472   2.138   4.098   5.559
  160POPC   C4B 2473   2.275   4.495   5.818
  161POPC   NC3 2474   0.474   1.463   4.179
  161POPC   PO4 2475   0.434   0.983   3.710
  161POPC   GL1 2476   0.412   0.950   4.241
  161POPC   GL2 2477   0.560   1.120   4.547
  161POPC   C1A 2478   0.125   0.909   4.672
  161POPC   D2A 2479   0.255   1.174   5.022
  161POPC   C3A 2480   0.389   1.057   5.423
  161POPC   C4A 2481   0.230   1.084   5.848
  161POPC   C1B 2482   0.595   1.510   4.836
  161POPC   C2B 2483   0.561   1.534   5.286
  161POPC   C3B 2484   0.579   1.430   5.697
  161POPC   C4B 2485   0.727   0.985   5.856
  162POPC   NC3 2486   2.276   1.556   4.098
  162POPC   PO4 2487   2.559   0.953   3.896
  162POPC   GL1 2488   2.421   1.067   4.315
  162POPC   GL2 2489   2.071   1.098   4.323
  162POPC   C1A 2490   2.381   0.896   4.747
  162POPC   D2A 2491   2.106   0.884   5.121
  162POPC   C3A 2492   2.218   1.011   5.532
  162POPC   C4A 2493   2.071   1.011   5.990
  162POPC   C1B 2494   1.969   1.253   4.748
  162POPC   C2B 2495   1.846   1.307   5.206
  162POPC   C3B 2496   1.853   1.356   5.653
  162POPC   C4B 2497   1.563   1.622   5.813
  163POPC   NC3 2498   1.219   3.251   4.006
  163POPC   PO4 2499   0.799   3.669   3.716
  163POPC   GL1 2500   0.844   3.494   4.289
  163POPC   GL2 2501   1.170   3.422   4.459
  163POPC   C1A 2502   0.851   3.418   4.810
  163POPC   D2A 2503   0.986   3.570   5.237
  163POPC   C3A 2504   0.926   3.428   5.684
  163POPC   C4A 2505   0.853   3.220   6.105
  163POPC   C1B 2506   1.459   3.261   4.702
  163POPC   C2B 2507   1.491   3.450   5.067
  163POPC   C3B 2508   1.498   3.364   5.466
  163POPC   C4B 2509   1.370   3.698   5.690
  164POPC   NC3 2510   9.622   7.530   3.819
  164POPC   PO4 2511   9.813   7.003   3.997
  164POPC   GL1 2512   9.791   7.261   4.356
  164POPC   GL2 2513   9.965   7.557   4.368
  164POPC   C1A 2514   9.643   7.281   4.794
  164POPC   D2A 2515   9.354   7.508   5.107
  164POPC   C3A 2516   9.382   7.343   5.548
  164POPC   C4A 2517   9.510   7.345   5.974
  164POPC   C1B 2518  10.167   7.401   4.764
  164POPC   C2B 2519  10.112   7.072   5.090
  164POPC   C3B 2520   9.842   7.094   5.448
  164POPC   C4B 2521   9.926   7.467   5.694
  165POPC   NC3 2522  11.197   3.056   3.981
  165POPC   PO4 2523  10.875   2.404   3.971
  165POPC   GL1 2524  11.010   2.503   4.359
  165POPC   GL2 2525  11.322   2.698   4.354
  165POPC   C1A 2526  11.143   2.431   4.772
  165POPC   D2A 2527  10.897   2.573   5.099
  165POPC   C3A 2528  11.105   2.454   5.440
  165POPC   C4A 2529  11.241   2.625   5.825
  165POPC   C1B 2530  11.492   2.834   4.776
  165POPC   C2B 2531  11.298   2.908   5.174
  165POPC   C3B 2532  11.277   3.081   5.562
  165POPC   C4B 2533   0.012   3.055   5.930
  166POPC   NC3 2534  11.140   8.769   3.676
  166POPC   PO4 2535  10.899   9.082   4.272
  166POPC   GL1 2536  10.987   8.709   4.474
  166POPC   GL2 2537  11.225   8.664   4.270
  166POPC   C1A 2538  11.141   8.671   4.901
  166POPC   D2A 2539  11.231   9.018   5.157
  166POPC   C3A 2540  10.888   9.077   5.424
  166POPC   C4A 2541  10.926   8.810   5.786
  166POPC   C1B 2542  11.410   8.384   4.589
  166POPC   C2B 2543   0.028   8.350   5.069
  166POPC   C3B 2544  11.489   8.651   5.445
  166POPC   C4B 2545  11.400   8.699   5.905
  167POPC   NC3 2546   8.840   5.409   3.917
  167POPC   PO4 2547   8.543   5.963   3.937
  167POPC   GL1 2548   8.695   5.708   4.313
  167POPC   GL2 2549   9.053   5.624   4.332
  167POPC   C1A 2550   8.768   5.626   4.769
  167POPC   D2A 2551   8.714   5.392   5.167
  167POPC   C3A 2552   8.733   5.540   5.601
  167POPC   C4A 2553   8.470   5.707   5.951
  167POPC   C1B 2554   9.266   5.803   4.710
  167POPC   C2B 2555   9.117   5.751   5.157
  167POPC   C3B 2556   9.195   5.758   5.614
  167POPC   C4B 2557   8.972   5.770   6.028
  168POPC   NC3 2558   8.367   3.532   4.037
  168POPC   PO4 2559   8.094   3.963   4.234
  168POPC   GL1 2560   8.173   3.580   4.522
  168POPC   GL2 2561   8.465   3.341   4.501
  168POPC   C1A 2562   8.268   3.432   4.959
  168POPC   D2A 2563   8.555   3.543   5.296
  168POPC   C3A 2564   8.351   3.653   5.703
  168POPC   C4A 2565   7.944   3.664   5.943
  168POPC   C1B 2566   8.520   2.999   4.818
  168POPC   C2B 2567   8.492   3.011   5.288
  168POPC   C3B 2568   8.226   3.108   5.675
  168POPC   C4B 2569   8.142   2.865   6.069
  169POPC   NC3 2570   9.001   9.084   4.102
  169POPC   PO4 2571   8.453   9.191   3.697
  169POPC   GL1 2572   8.549   8.867   4.183
  169POPC   GL2 2573   8.810   8.644   4.283
  169POPC   C1A 2574   8.602   8.879   4.689
  169POPC   D2A 2575   8.723   8.651   5.097
  169POPC   C3A 2576   8.634   8.755   5.541
  169POPC   C4A 2577   8.679   9.111   5.785
  169POPC   C1B 2578   9.073   8.683   4.676
  169POPC   C2B 2579   9.232   8.630   5.111
  169POPC   C3B 2580   9.134   8.832   5.507
  169POPC   C4B 2581   9.241   8.682   5.907
  170POPC   NC3 2582  10.497   1.268   3.838
  170POPC   PO4 2583   9.929   0.717   3.856
  170POPC   GL1 2584  10.075   1.136   4.129
  170POPC   GL2 2585  10.386   1.117   4.318
  170POPC   C1A 2586  10.049   1.476   4.483
  170POPC   D2A 2587  10.205   1.396   4.887
  170POPC   C3A 2588  10.145   1.486   5.316
  170POPC   C4A 2589   9.995   1.409   5.733
  170POPC   C1B 2590  10.616   1.173   4.704
  170POPC   C2B 2591  10.519   1.110   5.168
  170POPC   C3B 2592  10.458   1.214   5.609
  170POPC   C4B 2593  10.695   1.200   5.949
  171POPC   NC3 2594   8.220   8.788   3.823
  171POPC   PO4 2595   8.527   9.359   4.184
  171POPC   GL1 2596   8.204   9.166   4.409
  171POPC   GL2 2597   8.043   8.911   4.267
  171POPC   C1A 2598   8.161   9.100   4.817
  171POPC   D2A 2599   8.297   8.929   5.199
  171POPC   C3A 2600   8.202   9.104   5.585
  171POPC   C4A 2601   8.275   9.275   6.022
  171POPC   C1B 2602   8.186   8.625   4.591
  171POPC   C2B 2603   8.238   8.471   5.001
  171POPC   C3B 2604   8.227   8.460   5.469
  171POPC   C4B 2605   7.964   8.455   5.854
  172POPC   NC3 2606   6.579   0.353   3.698
  172POPC   PO4 2607   7.149   0.620   3.854
  172POPC   GL1 2608   6.949   0.309   4.160
  172POPC   GL2 2609   6.583   0.308   4.194
  172POPC   C1A 2610   6.860   0.247   4.629
  172POPC   D2A 2611   6.885   0.409   5.083
  172POPC   C3A 2612   6.772   0.303   5.528
  172POPC   C4A 2613   6.873   0.313   5.997
  172POPC   C1B 2614   6.351   0.429   4.569
  172POPC   C2B 2615   6.362   0.522   5.019
  172POPC   C3B 2616   6.279   0.422   5.465
  172POPC   C4B 2617   6.244   0.607   5.865
  173POPC   NC3 2618   3.473   8.239   3.526
  173POPC   PO4 2619   2.999   8.108   3.944
  173POPC   GL1 2620   2.989   8.337   4.379
  173POPC   GL2 2621   3.348   8.315   4.405
  173POPC   C1A 2622   3.140   8.411   4.854
  173POPC   D2A 2623   3.353   8.159   5.222
  173POPC   C3A 2624   3.447   8.252   5.673
  173POPC   C4A 2625   3.568   8.406   6.093
  173POPC   C1B 2626   3.411   7.973   4.728
  173POPC   C2B 2627   3.648   7.758   5.091
  173POPC   C3B 2628   3.780   7.792   5.543
  173POPC   C4B 2629   3.995   8.096   5.808
  174POPC   NC3 2630   9.510   9.908   3.934
  174POPC   PO4 2631  10.019   9.474   3.819
  174POPC   GL1 2632   9.823   9.576   4.222
  174POPC   GL2 2633   9.726   9.291   4.406
  174POPC   C1A 2634   9.810   9.860   4.600
  174POPC   D2A 2635   9.829  10.029   5.034
  174POPC   C3A 2636   9.599   9.935   5.405
  174POPC   C4A 2637   9.793  10.022   5.770
  174POPC   C1B 2638   9.635   9.421   4.824
  174POPC   C2B 2639   9.870   9.514   5.203
  174POPC   C3B 2640   9.873   9.515   5.655
  174POPC   C4B 2641   9.451   9.592   5.793
  175POPC   NC3 2642   9.142   0.283   3.973
  175POPC   PO4 2643   8.606   0.623   3.742
  175POPC   GL1 2644   8.841   0.522   4.271
  175POPC   GL2 2645   8.715   0.210   4.323
  175POPC   C1A 2646   8.824   0.744   4.729
  175POPC   D2A 2647   8.650   0.761   5.164
  175POPC   C3A 2648   8.912   0.647   5.506
  175POPC   C4A 2649   9.377   0.695   5.640
  175POPC   C1B 2650   8.748   0.013   4.741
  175POPC   C2B 2651   8.844   0.208   5.122
  175POPC   C3B 2652   8.629   0.190   5.496
  175POPC   C4B 2653   8.470   0.342   5.844
  176POPC   NC3 2654   8.132   9.449   3.899
  176POPC   PO4 2655   7.743   8.905   3.837
  176POPC   GL1 2656   7.742   9.310   4.182
  176POPC   GL2 2657   8.021   9.629   4.338
  176POPC   C1A 2658   7.752   9.357   4.639
  176POPC   D2A 2659   7.753   9.295   5.054
  176POPC   C3A 2660   7.786   9.641   5.326
  176POPC   C4A 2661   7.969   9.552   5.722
  176POPC   C1B 2662   8.154   9.653   4.784
  176POPC   C2B 2663   8.261   9.445   5.178
  176POPC   C3B 2664   8.478   9.530   5.538
  176POPC   C4B 2665   8.364   9.905   5.744
  177POPC   NC3 2666   2.996   0.319   4.054
  177POPC   PO4 2667   2.452   0.145   3.806
  177POPC   GL1 2668   2.528   0.260   4.241
  177POPC   GL2 2669   2.658   0.611   4.312
  177POPC   C1A 2670   2.431   0.332   4.686
  177POPC   D2A 2671   2.247   0.415   5.059
  177POPC   C3A 2672   2.503   0.498   5.402
  177POPC   C4A 2673   2.541   0.290   5.807
  177POPC   C1B 2674   2.859   0.651   4.753
  177POPC   C2B 2675   2.976   0.634   5.220
  177POPC   C3B 2676   2.887   0.751   5.673
  177POPC   C4B 2677   3.014   0.725   6.132
  178POPC   NC3 2678   2.142  11.319   3.912
  178POPC   PO4 2679   1.598  10.954   3.688
  178POPC   GL1 2680   1.589  11.162   4.141
  178POPC   GL2 2681   1.920  11.108   4.317
  178POPC   C1A 2682   1.594  11.361   4.588
  178POPC   D2A 2683   1.884  11.201   4.949
  178POPC   C3A 2684   1.786  11.221   5.423
  178POPC   C4A 2685   1.787  11.116   5.894
  178POPC   C1B 2686   2.262  11.322   4.560
  178POPC   C2B 2687   2.394  11.383   4.968
  178POPC   C3B 2688   2.359  11.113   5.305
  178POPC   C4B 2689   2.374  11.167   5.751
  179POPC   NC3 2690  10.703   8.733   4.050
  179POPC   PO4 2691  10.073   8.524   3.980
  179POPC   GL1 2692  10.152   8.890   4.254
  179POPC   GL2 2693  10.406   8.787   4.444
  179POPC   C1A 2694  10.014   9.006   4.696
  179POPC   D2A 2695  10.199   8.877   5.081
  179POPC   C3A 2696  10.030   8.913   5.495
  179POPC   C4A 2697  10.093   8.478   5.675
  179POPC   C1B 2698  10.629   8.809   4.796
  179POPC   C2B 2699  10.694   8.694   5.163
  179POPC   C3B 2700  10.506   8.732   5.535
  179POPC   C4B 2701  10.436   9.106   5.766
  180POPC   NC3 2702   2.417  10.248   3.953
  180POPC   PO4 2703   3.047   9.934   3.872
  180POPC   GL1 2704   2.879  10.122   4.248
  180POPC   GL2 2705   2.721  10.403   4.317
  180POPC   C1A 2706   2.849  10.009   4.670
  180POPC   D2A 2707   3.048  10.176   5.053
  180POPC   C3A 2708   2.849  10.167   5.466
  180POPC   C4A 2709   2.463  10.188   5.744
  180POPC   C1B 2710   2.852  10.505   4.690
  180POPC   C2B 2711   2.571  10.399   5.028
  180POPC   C3B 2712   2.506  10.589   5.424
  180POPC   C4B 2713   2.807  10.569   5.801
  181POPC   NC3 2714  11.312   4.242   4.007
  181POPC   PO4 2715  11.254   4.909   3.800
  181POPC   GL1 2716  11.255   4.717   4.252
  181POPC   GL2 2717  11.030   4.440   4.370
  181POPC   C1A 2718  11.418   4.613   4.668
  181POPC   D2A 2719  11.176   4.445   5.027
  181POPC   C3A 2720  11.359   4.491   5.433
  181POPC   C4A 2721  11.087   4.499   5.762
  181POPC   C1B 2722  11.224   4.133   4.639
  181POPC   C2B 2723  11.368   3.941   5.035
  181POPC   C3B 2724  11.221   3.998   5.445
  181POPC   C4B 2725  11.334   4.035   5.855
  182POPC   NC3 2726   2.734  11.079   3.498
  182POPC   PO4 2727   2.947  10.495   3.870
  182POPC   GL1 2728   2.814  10.888   4.225
  182POPC   GL2 2729   2.636  11.233   4.195
  182POPC   C1A 2730   2.759  11.004   4.681
  182POPC   D2A 2731   2.856  10.814   5.103
  182POPC   C3A 2732   2.833  10.998   5.513
  182POPC   C4A 2733   3.105  10.967   5.899
  182POPC   C1B 2734   2.781  11.491   4.577
  182POPC   C2B 2735   2.838   0.163   5.000
  182POPC   C3B 2736   2.705  11.500   5.416
  182POPC   C4B 2737   2.821  11.375   5.855
  183POPC   NC3 2738   9.060   8.258   3.939
  183POPC   PO4 2739   8.468   8.396   3.921
  183POPC   GL1 2740   8.669   8.167   4.304
  183POPC   GL2 2741   9.005   8.005   4.371
  183POPC   C1A 2742   8.775   8.272   4.752
  183POPC   D2A 2743   8.598   8.148   5.166
  183POPC   C3A 2744   8.720   8.244   5.584
  183POPC   C4A 2745   8.571   8.332   6.008
  183POPC   C1B 2746   9.163   7.914   4.799
  183POPC   C2B 2747   9.052   7.906   5.244
  183POPC   C3B 2748   9.097   7.782   5.667
  183POPC   C4B 2749   8.750   7.808   5.976
  184POPC   NC3 2750   1.013  10.348   4.000
  184POPC   PO4 2751   1.669  10.278   3.856
  184POPC   GL1 2752   1.558  10.294   4.268
  184POPC   GL2 2753   1.427  10.627   4.213
  184POPC   C1A 2754   1.598  10.172   4.719
  184POPC   D2A 2755   1.619  10.375   5.151
  184POPC   C3A 2756   1.518  10.091   5.504
  184POPC   C4A 2757   1.570   9.873   5.887
  184POPC   C1B 2758   1.197  10.462   4.597
  184POPC   C2B 2759   1.102  10.587   5.003
  184POPC   C3B 2760   1.166  10.465   5.399
  184POPC   C4B 2761   1.078  10.610   5.768
  185POPC   NC3 2762   4.437   8.822   3.649
  185POPC   PO4 2763   4.223   9.242   3.990
  185POPC   GL1 2764   4.238   9.196   4.423
  185POPC   GL2 2765   4.278   8.848   4.481
  185POPC   C1A 2766   4.076   9.210   4.845
  185POPC   D2A 2767   4.206   9.397   5.240
  185POPC   C3A 2768   4.052   9.232   5.637
  185POPC   C4A 2769   4.152   9.008   6.045
  185POPC   C1B 2770   4.545   9.001   4.824
  185POPC   C2B 2771   4.553   8.983   5.239
  185POPC   C3B 2772   4.476   8.955   5.639
  185POPC   C4B 2773   4.518   8.640   5.942
  186POPC   NC3 2774  11.163   9.339   3.999
  186POPC   PO4 2775  10.721   9.995   3.903
  186POPC   GL1 2776  10.878   9.945   4.354
  186POPC   GL2 2777  11.073   9.633   4.406
  186POPC   C1A 2778  10.776   9.767   4.796
  186POPC   D2A 2779  10.838   9.596   5.230
  186POPC   C3A 2780  11.007   9.860   5.541
  186POPC   C4A 2781  11.417   9.959   5.690
  186POPC   C1B 2782  11.160   9.413   4.804
  186POPC   C2B 2783  11.384   9.525   5.179
  186POPC   C3B 2784  11.241   9.414   5.557
  186POPC   C4B 2785  10.909   9.332   5.859
  187POPC   NC3 2786   2.363   5.997   3.717
  187POPC   PO4 2787   3.036   6.179   3.845
  187POPC   GL1 2788   2.730   6.080   4.173
  187POPC   GL2 2789   2.515   5.769   4.162
  187POPC   C1A 2790   2.906   5.961   4.595
  187POPC   D2A 2791   3.148   6.000   5.002
  187POPC   C3A 2792   2.924   5.926   5.419
  187POPC   C4A 2793   2.725   5.990   5.839
  187POPC   C1B 2794   2.424   5.793   4.616
  187POPC   C2B 2795   2.295   5.866   5.065
  187POPC   C3B 2796   2.409   5.769   5.490
  187POPC   C4B 2797   2.593   5.492   5.822
  188POPC   NC3 2798  11.400   8.017   3.988
  188POPC   PO4 2799  10.712   8.257   3.848
  188POPC   GL1 2800  10.962   8.234   4.214
  188POPC   GL2 2801  11.036   7.905   4.340
  188POPC   C1A 2802  10.915   8.247   4.679
  188POPC   D2A 2803  10.788   8.187   5.090
  188POPC   C3A 2804  11.039   8.406   5.382
  188POPC   C4A 2805  11.090   8.319   5.796
  188POPC   C1B 2806  11.345   7.901   4.669
  188POPC   C2B 2807  11.219   7.897   5.068
  188POPC   C3B 2808  11.332   7.992   5.459
  188POPC   C4B 2809  11.329   7.870   5.887
  189POPC   NC3 2810   1.791   9.857   4.098
  189POPC   PO4 2811   1.194   9.950   3.814
  189POPC   GL1 2812   1.180   9.930   4.240
  189POPC   GL2 2813   1.350   9.657   4.315
  189POPC   C1A 2814   1.089   9.953   4.665
  189POPC   D2A 2815   1.212  10.061   5.066
  189POPC   C3A 2816   0.911   9.999   5.392
  189POPC   C4A 2817   1.089  10.086   5.769
  189POPC   C1B 2818   1.596   9.632   4.695
  189POPC   C2B 2819   1.534   9.441   5.086
  189POPC   C3B 2820   1.416   9.572   5.496
  189POPC   C4B 2821   1.108   9.580   5.811
  190POPC   NC3 2822   1.267   7.311   3.900
  190POPC   PO4 2823   1.546   6.795   3.707
  190POPC   GL1 2824   1.483   6.919   4.154
  190POPC   GL2 2825   1.160   6.832   4.287
  190POPC   C1A 2826   1.501   7.010   4.630
  190POPC   D2A 2827   1.657   7.166   5.050
  190POPC   C3A 2828   1.453   7.349   5.441
  190POPC   C4A 2829   1.650   7.366   5.864
  190POPC   C1B 2830   0.967   6.957   4.704
  190POPC   C2B 2831   0.829   7.043   5.150
  190POPC   C3B 2832   0.905   6.984   5.604
  190POPC   C4B 2833   1.113   7.206   5.947
  191POPC   NC3 2834   9.835   5.500   3.874
  191POPC   PO4 2835   9.274   5.255   3.981
  191POPC   GL1 2836   9.527   5.442   4.383
  191POPC   GL2 2837   9.811   5.689   4.382
  191POPC   C1A 2838   9.666   5.485   4.853
  191POPC   D2A 2839   9.611   5.692   5.279
  191POPC   C3A 2840   9.625   5.474   5.684
  191POPC   C4A 2841   9.404   5.433   6.100
  191POPC   C1B 2842   9.881   5.950   4.788
  191POPC   C2B 2843   9.893   6.117   5.218
  191POPC   C3B 2844   9.699   6.104   5.622
  191POPC   C4B 2845   9.596   6.404   5.942
  192POPC   NC3 2846   2.812   2.276   3.894
  192POPC   PO4 2847   3.440   2.214   4.050
  192POPC   GL1 2848   3.110   1.920   4.221
  192POPC   GL2 2849   2.834   2.120   4.366
  192POPC   C1A 2850   3.007   1.756   4.645
  192POPC   D2A 2851   2.924   2.061   4.938
  192POPC   C3A 2852   3.076   1.951   5.316
  192POPC   C4A 2853   3.025   2.189   5.645
  192POPC   C1B 2854   2.534   1.925   4.649
  192POPC   C2B 2855   2.504   1.816   5.076
  192POPC   C3B 2856   2.578   1.953   5.501
  192POPC   C4B 2857   2.850   1.664   5.717
  193POPC   NC3 2858   1.935   2.370   3.751
  193POPC   PO4 2859   1.832   1.678   4.054
  193POPC   GL1 2860   1.909   2.118   4.218
  193POPC   GL2 2861   2.269   2.117   4.267
  193POPC   C1A 2862   2.001   2.345   4.654
  193POPC   D2A 2863   2.256   2.251   5.020
  193POPC   C3A 2864   2.158   2.290   5.447
  193POPC   C4A 2865   1.816   2.275   5.755
  193POPC   C1B 2866   2.046   1.844   4.643
  193POPC   C2B 2867   1.988   1.792   5.076
  193POPC   C3B 2868   1.899   1.847   5.495
  193POPC   C4B 2869   2.181   1.907   5.847
  194POPC   NC3 2870   8.221   1.901   3.882
  194POPC   PO4 2871   7.705   2.339   3.861
  194POPC   GL1 2872   7.968   2.204   4.233
  194POPC   GL2 2873   8.076   1.872   4.363
  194POPC   C1A 2874   8.106   2.283   4.672
  194POPC   D2A 2875   7.970   2.177   5.104
  194POPC   C3A 2876   8.103   2.395   5.479
  194POPC   C4A 2877   8.261   2.392   5.892
  194POPC   C1B 2878   8.139   1.771   4.822
  194POPC   C2B 2879   8.104   1.512   5.185
  194POPC   C3B 2880   7.839   1.635   5.521
  194POPC   C4B 2881   7.943   1.974   5.769
  195POPC   NC3 2882   0.871   1.096   3.603
  195POPC   PO4 2883   0.871   1.652   4.021
  195POPC   GL1 2884   0.966   1.284   4.265
  195POPC   GL2 2885   1.329   1.230   4.306
  195POPC   C1A 2886   1.015   1.249   4.719
  195POPC   D2A 2887   1.050   1.507   5.096
  195POPC   C3A 2888   0.994   1.258   5.460
  195POPC   C4A 2889   1.192   1.211   5.861
  195POPC   C1B 2890   1.433   0.965   4.660
  195POPC   C2B 2891   1.291   1.003   5.085
  195POPC   C3B 2892   1.464   1.035   5.449
  195POPC   C4B 2893   1.655   0.892   5.758
  196POPC   NC3 2894  11.021  10.329   4.014
  196POPC   PO4 2895  10.937  10.908   3.830
  196POPC   GL1 2896  10.909  10.787   4.244
  196POPC   GL2 2897  11.266  10.711   4.244
  196POPC   C1A 2898  10.830  10.659   4.674
  196POPC   D2A 2899  10.856  10.828   5.105
  196POPC   C3A 2900  10.872  10.669   5.531
  196POPC   C4A 2901  10.841  10.672   6.036
  196POPC   C1B 2902  11.308  10.483   4.618
  196POPC   C2B 2903  11.075  10.325   4.970
  196POPC   C3B 2904  11.198  10.309   5.374
  196POPC   C4B 2905  11.250  10.442   5.780
  197POPC   NC3 2906   7.283   0.998   4.057
  197POPC   PO4 2907   7.802   1.488   3.910
  197POPC   GL1 2908   7.688   1.232   4.253
  197POPC   GL2 2909   7.403   1.375   4.400
  197POPC   C1A 2910   7.587   0.978   4.646
  197POPC   D2A 2911   7.211   1.028   4.913
  197POPC   C3A 2912   7.300   0.984   5.352
  197POPC   C4A 2913   7.403   0.999   5.786
  197POPC   C1B 2914   7.314   1.514   4.820
  197POPC   C2B 2915   7.227   1.505   5.283
  197POPC   C3B 2916   6.961   1.275   5.603
  197POPC   C4B 2917   6.986   1.198   6.037
  198POPC   NC3 2918   9.767   9.078   3.942
  198POPC   PO4 2919   9.243   8.677   4.031
  198POPC   GL1 2920   9.430   8.881   4.329
  198POPC   GL2 2921   9.707   8.688   4.336
  198POPC   C1A 2922   9.515   8.913   4.769
  198POPC   D2A 2923   9.287   9.136   5.096
  198POPC   C3A 2924   9.543   9.173   5.428
  198POPC   C4A 2925   9.567   9.084   5.828
  198POPC   C1B 2926   9.923   8.517   4.701
  198POPC   C2B 2927   9.783   8.580   5.138
  198POPC   C3B 2928   9.607   8.651   5.549
  198POPC   C4B 2929   9.752   8.662   6.015
  199POPC   NC3 2930   8.827  10.622   4.076
  199POPC   PO4 2931   9.043   9.970   3.908
  199POPC   GL1 2932   9.065  10.194   4.278
  199POPC   GL2 2933   8.718  10.148   4.362
  199POPC   C1A 2934   9.017  10.343   4.729
  199POPC   D2A 2935   8.928  10.153   5.134
  199POPC   C3A 2936   9.060  10.403   5.493
  199POPC   C4A 2937   9.067  10.621   5.922
  199POPC   C1B 2938   8.539  10.033   4.764
  199POPC   C2B 2939   8.446   9.932   5.190
  199POPC   C3B 2940   8.532  10.265   5.442
  199POPC   C4B 2941   8.724  10.275   5.838
  200POPC   NC3 2942   1.492   8.891   4.043
  200POPC   PO4 2943   0.898   8.595   3.992
  200POPC   GL1 2944   1.090   8.828   4.356
  200POPC   GL2 2945   1.147   9.174   4.307
  200POPC   C1A 2946   1.284   8.630   4.768
  200POPC   D2A 2947   1.200   8.392   5.176
  200POPC   C3A 2948   1.057   8.641   5.564
  200POPC   C4A 2949   1.272   8.621   5.991
  200POPC   C1B 2950   1.154   9.133   4.790
  200POPC   C2B 2951   1.339   8.975   5.229
  200POPC   C3B 2952   1.284   9.092   5.675
  200POPC   C4B 2953   0.851   9.136   5.839
  201POPC   NC3 2954   9.729   4.055   3.855
  201POPC   PO4 2955   9.775   3.375   3.881
  201POPC   GL1 2956   9.764   3.665   4.263
  201POPC   GL2 2957   9.432   3.796   4.361
  201POPC   C1A 2958   9.776   3.780   4.740
  201POPC   D2A 2959   9.552   3.845   5.150
  201POPC   C3A 2960   9.766   3.971   5.563
  201POPC   C4A 2961   9.971   3.835   5.982
  201POPC   C1B 2962   9.410   3.418   4.658
  201POPC   C2B 2963   9.460   3.298   5.087
  201POPC   C3B 2964   9.483   3.468   5.498
  201POPC   C4B 2965   9.160   3.566   5.731
  202POPC   NC3 2966   5.898   1.047   3.934
  202POPC   PO4 2967   5.418   1.548   3.866
  202POPC   GL1 2968   5.432   1.525   4.280
  202POPC   GL2 2969   5.533   1.192   4.285
  202POPC   C1A 2970   5.628   1.433   4.698
  202POPC   D2A 2971   5.460   1.366   5.079
  202POPC   C3A 2972   5.765   1.485   5.353
  202POPC   C4A 2973   5.955   1.669   5.713
  202POPC   C1B 2974   5.449   0.951   4.691
  202POPC   C2B 2975   5.501   0.840   5.113
  202POPC   C3B 2976   5.496   1.058   5.501
  202POPC   C4B 2977   5.951   1.132   5.678
  203POPC   NC3 2978   9.561   2.757   3.835
  203POPC   PO4 2979  10.129   2.441   3.831
  203POPC   GL1 2980   9.889   2.383   4.219
  203POPC   GL2 2981   9.616   2.620   4.330
  203POPC   C1A 2982   9.976   2.471   4.659
  203POPC   D2A 2983   9.872   2.266   5.035
  203POPC   C3A 2984   9.926   2.512   5.399
  203POPC   C4A 2985   9.882   2.567   5.838
  203POPC   C1B 2986   9.524   2.763   4.766
  203POPC   C2B 2987   9.417   2.539   5.141
  203POPC   C3B 2988   9.459   2.650   5.554
  203POPC   C4B 2989   9.720   3.017   5.653
  204POPC   NC3 2990  11.364   5.198   4.141
  204POPC   PO4 2991  10.766   4.833   4.193
  204POPC   GL1 2992  10.827   4.890   4.538
  204POPC   GL2 2993  10.953   5.239   4.470
  204POPC   C1A 2994  10.737   4.721   4.951
  204POPC   D2A 2995  10.982   4.804   5.317
  204POPC   C3A 2996  10.878   4.963   5.676
  204POPC   C4A 2997  10.715   5.345   5.695
  204POPC   C1B 2998  11.175   5.041   4.842
  204POPC   C2B 2999  11.471   4.901   5.116
  204POPC   C3B 3000  11.420   5.043   5.502
  204POPC   C4B 3001  11.452   4.823   5.823
  205POPC   NC3 3002  10.304   3.629   3.854
  205POPC   PO4 3003  10.923   3.974   3.925
  205POPC   GL1 3004  10.637   3.674   4.256
  205POPC   GL2 3005  10.283   3.538   4.340
  205POPC   C1A 3006  10.620   3.401   4.691
  205POPC   D2A 3007  10.554   3.593   5.119
  205POPC   C3A 3008  10.515   3.320   5.475
  205POPC   C4A 3009  10.766   3.311   5.820
  205POPC   C1B 3010  10.294   3.802   4.708
  205POPC   C2B 3011  10.112   3.880   5.125
  205POPC   C3B 3012  10.237   3.748   5.552
  205POPC   C4B 3013  10.169   3.371   5.865
  206POPC   NC3 3014   3.695   1.043   3.764
  206POPC   PO4 3015   3.539   1.585   3.671
  206POPC   GL1 3016   3.425   1.391   4.288
  206POPC   GL2 3017   3.465   1.025   4.250
  206POPC   C1A 3018   3.694   1.176   4.687
  206POPC   D2A 3019   3.825   0.927   5.097
  206POPC   C3A 3020   3.712   1.101   5.544
  206POPC   C4A 3021   3.666   1.411   5.899
  206POPC   C1B 3022   3.345   0.818   4.626
  206POPC   C2B 3023   3.315   0.990   5.037
  206POPC   C3B 3024   3.210   1.146   5.438
  206POPC   C4B 3025   3.288   1.061   5.868
  207POPC   NC3 3026   5.657   9.820   3.885
  207POPC   PO4 3027   5.466   9.268   4.164
  207POPC   GL1 3028   5.664   9.517   4.474
  207POPC   GL2 3029   5.652   9.856   4.401
  207POPC   C1A 3030   5.782   9.585   4.928
  207POPC   D2A 3031   5.743   9.474   5.392
  207POPC   C3A 3032   6.125   9.546   5.704
  207POPC   C4A 3033   6.323   9.513   6.151
  207POPC   C1B 3034   5.343   9.785   4.767
  207POPC   C2B 3035   5.246   9.572   5.201
  207POPC   C3B 3036   5.349   9.671   5.669
  207POPC   C4B 3037   5.448   9.927   6.090
  208POPC   NC3 3038   0.510  11.401   4.010
  208POPC   PO4 3039   0.797  10.767   3.891
  208POPC   GL1 3040   0.555  10.953   4.239
  208POPC   GL2 3041   0.183  11.040   4.204
  208POPC   C1A 3042   0.660  11.092   4.663
  208POPC   D2A 3043   0.787  11.244   5.074
  208POPC   C3A 3044   0.907  10.932   5.362
  208POPC   C4A 3045   0.624  10.841   5.687
  208POPC   C1B 3046   0.225  10.820   4.651
  208POPC   C2B 3047   0.369  10.880   5.138
  208POPC   C3B 3048   0.270  11.180   5.518
  208POPC   C4B 3049   0.103   0.117   5.610
  209POPC   NC3 3050   3.320  10.285   3.654
  209POPC   PO4 3051   3.760   9.936   4.032
  209POPC   GL1 3052   3.713   9.839   4.424
  209POPC   GL2 3053   3.824   9.503   4.378
  209POPC   C1A 3054   3.334   9.837   4.712
  209POPC   D2A 3055   3.273   9.689   5.110
  209POPC   C3A 3056   3.467   9.779   5.496
  209POPC   C4A 3057   3.287   9.993   5.797
  209POPC   C1B 3058   3.609   9.426   4.801
  209POPC   C2B 3059   3.660   9.354   5.263
  209POPC   C3B 3060   3.556   9.324   5.719
  209POPC   C4B 3061   3.680   9.252   6.175
  210POPC   NC3 3062   0.196   7.990   3.386
  210POPC   PO4 3063   0.301   7.797   4.060
  210POPC   GL1 3064   0.249   8.031   4.374
  210POPC   GL2 3065   0.531   8.218   4.314
  210POPC   C1A 3066   0.404   7.907   4.772
  210POPC   D2A 3067   0.236   7.777   5.140
  210POPC   C3A 3068   0.346   7.976   5.535
  210POPC   C4A 3069   0.134   8.280   5.757
  210POPC   C1B 3070   0.401   8.399   4.690
  210POPC   C2B 3071   0.561   8.370   5.057
  210POPC   C3B 3072   0.492   8.486   5.429
  210POPC   C4B 3073   0.622   8.384   5.830
  211POPC   NC3 3074   7.804  10.394   3.910
  211POPC   PO4 3075   8.420  10.751   3.867
  211POPC   GL1 3076   8.194  10.572   4.235
  211POPC   GL2 3077   8.187  10.192   4.205
  211POPC   C1A 3078   8.110  10.694   4.699
  211POPC   D2A 3079   7.891  10.753   5.119
  211POPC   C3A 3080   8.158  10.621   5.472
  211POPC   C4A 3081   8.234  10.396   5.855
  211POPC   C1B 3082   8.060  10.173   4.623
  211POPC   C2B 3083   8.134  10.299   5.051
  211POPC   C3B 3084   7.998  10.123   5.457
  211POPC   C4B 3085   7.888  10.020   5.893
  212POPC   NC3 3086   1.660   5.397   4.034
  212POPC   PO4 3087   1.860   6.009   3.785
  212POPC   GL1 3088   1.778   5.937   4.211
  212POPC   GL2 3089   1.998   5.724   4.335
  212POPC   C1A 3090   1.609   5.968   4.613
  212POPC   D2A 3091   1.655   5.988   5.043
  212POPC   C3A 3092   1.920   6.045   5.381
  212POPC   C4A 3093   1.786   5.957   5.811
  212POPC   C1B 3094   1.939   5.616   4.759
  212POPC   C2B 3095   1.934   5.536   5.191
  212POPC   C3B 3096   1.998   5.509   5.636
  212POPC   C4B 3097   1.962   5.275   6.007
  213POPC   NC3 3098   5.534  11.450   3.448
  213POPC   PO4 3099   6.140   0.181   3.789
  213POPC   GL1 3100   6.105   0.078   4.241
  213POPC   GL2 3101   5.881  11.305   4.251
  213POPC   C1A 3102   5.987   0.064   4.703
  213POPC   D2A 3103   6.086  11.252   5.038
  213POPC   C3A 3104   6.089  11.436   5.421
  213POPC   C4A 3105   6.142  11.220   5.800
  213POPC   C1B 3106   5.807  11.081   4.629
  213POPC   C2B 3107   5.657  10.944   5.038
  213POPC   C3B 3108   5.730  11.094   5.434
  213POPC   C4B 3109   5.644  11.235   5.829
  214POPC   NC3 3110   0.237   4.907   3.814
  214POPC   PO4 3111   0.868   4.557   3.895
  214POPC   GL1 3112   0.726   4.800   4.269
  214POPC   GL2 3113   0.388   4.901   4.315
  214POPC   C1A 3114   0.745   4.977   4.695
  214POPC   D2A 3115   0.749   4.824   5.114
  214POPC   C3A 3116   0.386   4.693   5.375
  214POPC   C4A 3117   0.465   4.792   5.806
  214POPC   C1B 3118   0.225   5.052   4.690
  214POPC   C2B 3119   0.412   5.238   5.050
  214POPC   C3B 3120   0.414   5.199   5.488
  214POPC   C4B 3121   0.200   5.257   5.900
  215POPC   NC3 3122   5.632   0.125   3.926
  215POPC   PO4 3123   5.459   0.835   3.941
  215POPC   GL1 3124   5.678   0.674   4.308
  215POPC   GL2 3125   5.682   0.317   4.371
  215POPC   C1A 3126   5.822   0.587   4.761
  215POPC   D2A 3127   5.871   0.383   5.154
  215POPC   C3A 3128   5.800   0.640   5.546
  215POPC   C4A 3129   5.616   0.832   5.933
  215POPC   C1B 3130   5.479   0.012   4.632
  215POPC   C2B 3131   5.611  11.442   5.065
  215POPC   C3B 3132   5.609   0.108   5.482
  215POPC   C4B 3133   5.906   0.220   5.799
  216POPC   NC3 3134   2.929   7.630   4.041
  216POPC   PO4 3135   2.340   7.989   3.998
  216POPC   GL1 3136   2.642   7.946   4.323
  216POPC   GL2 3137   2.494   8.189   4.469
  216POPC   C1A 3138   2.871   7.984   4.757
  216POPC   D2A 3139   2.849   8.202   5.203
  216POPC   C3A 3140   2.962   8.077   5.637
  216POPC   C4A 3141   2.700   7.856   5.969
  216POPC   C1B 3142   2.589   8.421   4.798
  216POPC   C2B 3143   2.385   8.375   5.193
  216POPC   C3B 3144   2.469   8.197   5.595
  216POPC   C4B 3145   2.656   8.359   5.968
  217POPC   NC3 3146   1.825   6.481   3.905
  217POPC   PO4 3147   2.433   6.409   3.873
  217POPC   GL1 3148   2.211   6.200   4.220
  217POPC   GL2 3149   2.038   6.487   4.361
  217POPC   C1A 3150   2.065   6.135   4.699
  217POPC   D2A 3151   2.218   6.397   5.048
  217POPC   C3A 3152   2.128   6.556   5.464
  217POPC   C4A 3153   1.762   6.443   5.690
  217POPC   C1B 3154   1.804   6.573   4.762
  217POPC   C2B 3155   1.705   6.579   5.193
  217POPC   C3B 3156   1.751   6.918   5.506
  217POPC   C4B 3157   2.010   6.865   5.872
  218POPC   NC3 3158   0.504   3.340   3.956
  218POPC   PO4 3159   0.116   3.899   3.944
  218POPC   GL1 3160   0.385   3.747   4.287
  218POPC   GL2 3161   0.376   3.430   4.429
  218POPC   C1A 3162   0.620   3.837   4.656
  218POPC   D2A 3163   0.392   3.792   5.054
  218POPC   C3A 3164   0.515   3.675   5.470
  218POPC   C4A 3165   0.278   3.774   5.792
  218POPC   C1B 3166   0.397   3.196   4.760
  218POPC   C2B 3167   0.505   3.289   5.148
  218POPC   C3B 3168   0.287   3.189   5.479
  218POPC   C4B 3169   0.449   3.288   5.828
  219POPC   NC3 3170  10.269   7.067   4.039
  219POPC   PO4 3171  10.912   7.348   3.964
  219POPC   GL1 3172  10.806   7.134   4.296
  219POPC   GL2 3173  10.524   7.323   4.394
  219POPC   C1A 3174  10.828   7.050   4.718
  219POPC   D2A 3175  10.694   6.907   5.117
  219POPC   C3A 3176  10.652   7.132   5.496
  219POPC   C4A 3177  10.275   7.105   5.701
  219POPC   C1B 3178  10.632   7.693   4.643
  219POPC   C2B 3179  10.457   7.785   5.048
  219POPC   C3B 3180  10.314   7.495   5.331
  219POPC   C4B 3181  10.471   7.586   5.710
  220POPC   NC3 3182  10.580   4.495   3.953
  220POPC   PO4 3183  10.124   4.002   4.072
  220POPC   GL1 3184  10.242   4.344   4.326
  220POPC   GL2 3185  10.533   4.473   4.458
  220POPC   C1A 3186  10.184   4.291   4.758
  220POPC   D2A 3187  10.428   4.295   5.078
  220POPC   C3A 3188  10.182   4.269   5.438
  220POPC   C4A 3189  10.080   4.401   5.826
  220POPC   C1B 3190  10.695   4.116   4.637
  220POPC   C2B 3191  10.862   4.020   5.044
  220POPC   C3B 3192  10.807   4.292   5.404
  220POPC   C4B 3193  10.564   4.194   5.760
  221POPC   NC3 3194   5.027   8.224   3.876
  221POPC   PO4 3195   4.782   7.701   4.138
  221POPC   GL1 3196   4.875   7.919   4.507
  221POPC   GL2 3197   4.864   8.228   4.359
  221POPC   C1A 3198   4.805   8.092   4.925
  221POPC   D2A 3199   4.547   8.282   5.246
  221POPC   C3A 3200   4.532   8.058   5.630
  221POPC   C4A 3201   4.720   7.722   5.896
  221POPC   C1B 3202   5.166   8.372   4.668
  221POPC   C2B 3203   5.269   8.220   5.097
  221POPC   C3B 3204   5.024   8.164   5.491
  221POPC   C4B 3205   4.882   8.265   5.935
  222POPC   NC3 3206   1.230   4.267   3.925
  222POPC   PO4 3207   1.210   3.711   4.065
  222POPC   GL1 3208   1.055   3.998   4.392
  222POPC   GL2 3209   1.056   4.389   4.372
  222POPC   C1A 3210   1.067   4.013   4.861
  222POPC   D2A 3211   1.310   3.962   5.242
  222POPC   C3A 3212   1.264   4.201   5.669
  222POPC   C4A 3213   1.498   4.039   6.066
  222POPC   C1B 3214   1.040   4.531   4.780
  222POPC   C2B 3215   1.124   4.434   5.193
  222POPC   C3B 3216   0.861   4.538   5.521
  222POPC   C4B 3217   0.922   4.567   5.912
  223POPC   NC3 3218   2.608   8.363   3.995
  223POPC   PO4 3219   2.618   9.031   3.880
  223POPC   GL1 3220   2.764   8.804   4.249
  223POPC   GL2 3221   2.466   8.694   4.369
  223POPC   C1A 3222   2.892   8.828   4.703
  223POPC   D2A 3223   2.744   8.772   5.137
  223POPC   C3A 3224   2.814   8.604   5.544
  223POPC   C4A 3225   3.106   8.591   5.904
  223POPC   C1B 3226   2.489   9.104   4.581
  223POPC   C2B 3227   2.533   9.242   5.038
  223POPC   C3B 3228   2.665   9.135   5.487
  223POPC   C4B 3229   3.074   9.064   5.691
  224POPC   NC3 3230  10.268   0.296   3.899
  224POPC   PO4 3231  10.734   0.089   4.269
  224POPC   GL1 3232  10.349   0.277   4.437
  224POPC   GL2 3233  10.249   0.618   4.336
  224POPC   C1A 3234  10.225   0.321   4.871
  224POPC   D2A 3235  10.366   0.513   5.237
  224POPC   C3A 3236  10.451   0.246   5.596
  224POPC   C4A 3237  10.077   0.117   5.772
  224POPC   C1B 3238  10.554   0.679   4.715
  224POPC   C2B 3239  10.836   0.700   5.106
  224POPC   C3B 3240  10.671   0.772   5.541
  224POPC   C4B 3241  10.616   0.693   6.003
  225POPC   NC3 3242   2.200   3.058   4.014
  225POPC   PO4 3243   1.765   2.793   3.675
  225POPC   GL1 3244   1.764   2.653   4.150
  225POPC   GL2 3245   2.075   2.614   4.238
  225POPC   C1A 3246   1.692   2.768   4.626
  225POPC   D2A 3247   1.617   2.934   5.064
  225POPC   C3A 3248   1.782   2.696   5.420
  225POPC   C4A 3249   1.722   2.840   5.829
  225POPC   C1B 3250   2.206   2.824   4.618
  225POPC   C2B 3251   2.117   2.851   5.054
  225POPC   C3B 3252   2.329   2.788   5.436
  225POPC   C4B 3253   2.188   2.635   5.829
  226POPC   NC3 3254   6.877   7.915   3.928
  226POPC   PO4 3255   6.996   8.453   3.834
  226POPC   GL1 3256   7.055   8.421   4.299
  226POPC   GL2 3257   7.352   8.255   4.403
  226POPC   C1A 3258   7.066   8.452   4.790
  226POPC   D2A 3259   7.282   8.337   5.196
  226POPC   C3A 3260   7.109   8.318   5.615
  226POPC   C4A 3261   7.038   8.017   5.958
  226POPC   C1B 3262   7.584   8.411   4.786
  226POPC   C2B 3263   7.787   8.313   5.200
  226POPC   C3B 3264   7.607   8.203   5.600
  226POPC   C4B 3265   7.476   8.281   6.035
  227POPC   NC3 3266   1.339   0.314   4.013
  227POPC   PO4 3267   1.164   0.948   3.909
  227POPC   GL1 3268   1.064   0.727   4.329
  227POPC   GL2 3269   0.967   0.355   4.419
  227POPC   C1A 3270   0.989   0.723   4.781
  227POPC   D2A 3271   0.785   0.898   5.129
  227POPC   C3A 3272   1.007   0.737   5.497
  227POPC   C4A 3273   1.212   0.701   5.903
  227POPC   C1B 3274   1.331   0.338   4.724
  227POPC   C2B 3275   1.233   0.401   5.153
  227POPC   C3B 3276   1.393   0.368   5.540
  227POPC   C4B 3277   1.502   0.006   5.767
  228POPC   NC3 3278  10.853   7.803   3.890
  228POPC   PO4 3279  11.451   7.688   3.657
  228POPC   GL1 3280  11.349   7.542   4.165
  228POPC   GL2 3281  11.325   7.210   4.244
  228POPC   C1A 3282  11.094   7.474   4.619
  228POPC   D2A 3283  10.854   7.429   5.066
  228POPC   C3A 3284  10.992   7.579   5.504
  228POPC   C4A 3285  10.902   7.598   5.983
  228POPC   C1B 3286  11.344   7.035   4.654
  228POPC   C2B 3287  11.206   6.894   5.047
  228POPC   C3B 3288  11.161   7.080   5.456
  228POPC   C4B 3289  11.262   7.277   5.854
  229POPC   NC3 3290   4.433   2.628   3.963
  229POPC   PO4 3291   3.994   2.957   4.016
  229POPC   GL1 3292   4.033   2.677   4.398
  229POPC   GL2 3293   4.290   2.385   4.378
  229POPC   C1A 3294   3.860   2.753   4.827
  229POPC   D2A 3295   3.647   2.636   5.225
  229POPC   C3A 3296   3.849   2.659   5.640
  229POPC   C4A 3297   4.120   2.657   6.030
  229POPC   C1B 3298   4.305   2.502   4.792
  229POPC   C2B 3299   4.141   2.514   5.203
  229POPC   C3B 3300   4.316   2.430   5.595
  229POPC   C4B 3301   4.595   2.730   5.785
  230POPC   NC3 3302   4.833  10.114   3.913
  230POPC   PO4 3303   5.466  10.239   3.927
  230POPC   GL1 3304   5.386  10.300   4.309
  230POPC   GL2 3305   5.274  10.645   4.290
  230POPC   C1A 3306   5.220  10.289   4.708
  230POPC   D2A 3307   4.969  10.415   5.066
  230POPC   C3A 3308   5.083  10.125   5.379
  230POPC   C4A 3309   5.383  10.186   5.671
  230POPC   C1B 3310   4.916  10.700   4.586
  230POPC   C2B 3311   4.803  10.910   4.983
  230POPC   C3B 3312   4.760  10.773   5.391
  230POPC   C4B 3313   5.105  10.613   5.632
  231POPC   NC3 3314  10.497   2.662   4.022
  231POPC   PO4 3315  10.771   3.282   3.908
  231POPC   GL1 3316  10.805   3.012   4.290
  231POPC   GL2 3317  10.491   2.978   4.437
  231POPC   C1A 3318  10.964   2.939   4.713
  231POPC   D2A 3319  10.818   3.100   5.123
  231POPC   C3A 3320  10.809   2.875   5.532
  231POPC   C4A 3321  10.737   2.598   5.883
  231POPC   C1B 3322  10.551   2.588   4.687
  231POPC   C2B 3323  10.405   2.375   5.072
  231POPC   C3B 3324  10.423   2.517   5.493
  231POPC   C4B 3325  10.255   2.887   5.683
  232POPC   NC3 3326   7.226  10.818   4.035
  232POPC   PO4 3327   6.851  11.399   3.829
  232POPC   GL1 3328   7.019  11.244   4.269
  232POPC   GL2 3329   7.352  11.105   4.430
  232POPC   C1A 3330   6.938  11.237   4.739
  232POPC   D2A 3331   6.994  11.417   5.175
  232POPC   C3A 3332   7.050  11.176   5.573
  232POPC   C4A 3333   6.850  11.312   5.971
  232POPC   C1B 3334   7.358  10.907   4.850
  232POPC   C2B 3335   7.452  11.191   5.179
  232POPC   C3B 3336   7.541  11.364   5.566
  232POPC   C4B 3337   7.530  10.940   5.790
  233POPC   NC3 3338   1.556   3.734   3.774
  233POPC   PO4 3339   1.682   3.156   4.064
  233POPC   GL1 3340   1.648   3.528   4.278
  233POPC   GL2 3341   1.997   3.526   4.288
  233POPC   C1A 3342   1.509   3.760   4.655
  233POPC   D2A 3343   1.750   3.953   4.967
  233POPC   C3A 3344   1.769   3.789   5.362
  233POPC   C4A 3345   1.878   3.662   5.746
  233POPC   C1B 3346   1.957   3.272   4.688
  233POPC   C2B 3347   1.980   3.348   5.129
  233POPC   C3B 3348   1.985   3.173   5.534
  233POPC   C4B 3349   2.040   3.211   5.989
  234POPC   NC3 3350   9.038   1.905   3.864
  234POPC   PO4 3351   8.464   2.309   4.001
  234POPC   GL1 3352   8.837   2.175   4.241
  234POPC   GL2 3353   8.747   1.849   4.272
  234POPC   C1A 3354   9.008   2.092   4.684
  234POPC   D2A 3355   8.972   2.298   5.070
  234POPC   C3A 3356   9.007   2.018   5.398
  234POPC   C4A 3357   9.004   2.075   5.812
  234POPC   C1B 3358   8.529   1.993   4.615
  234POPC   C2B 3359   8.590   1.864   5.044
  234POPC   C3B 3360   8.332   1.927   5.405
  234POPC   C4B 3361   8.484   1.939   5.823
  235POPC   NC3 3362   9.662   0.350   3.664
  235POPC   PO4 3363   9.276   0.742   4.005
  235POPC   GL1 3364   9.445   0.465   4.312
  235POPC   GL2 3365   9.803   0.358   4.193
  235POPC   C1A 3366   9.166   0.379   4.670
  235POPC   D2A 3367   9.187   0.600   5.066
  235POPC   C3A 3368   9.312   0.304   5.339
  235POPC   C4A 3369   9.512   0.199   5.704
  235POPC   C1B 3370   9.829   0.494   4.621
  235POPC   C2B 3371   9.722   0.426   5.048
  235POPC   C3B 3372   9.861   0.499   5.474
  235POPC   C4B 3373  10.195   0.653   5.740
  236POPC   NC3 3374   8.837   0.934   3.991
  236POPC   PO4 3375   8.570   1.600   3.832
  236POPC   GL1 3376   8.639   1.361   4.198
  236POPC   GL2 3377   9.024   1.412   4.158
  236POPC   C1A 3378   8.570   1.470   4.661
  236POPC   D2A 3379   8.590   1.323   5.098
  236POPC   C3A 3380   8.714   1.586   5.474
  236POPC   C4A 3381   9.082   1.572   5.738
  236POPC   C1B 3382   9.014   1.224   4.574
  236POPC   C2B 3383   9.099   1.118   5.007
  236POPC   C3B 3384   8.962   1.143   5.424
  236POPC   C4B 3385   9.066   1.047   5.828
  237POPC   NC3 3386   0.245   7.352   3.897
  237POPC   PO4 3387   0.882   7.014   3.909
  237POPC   GL1 3388   0.648   7.105   4.334
  237POPC   GL2 3389   0.318   7.256   4.373
  237POPC   C1A 3390   0.601   7.324   4.786
  237POPC   D2A 3391   0.344   7.239   5.188
  237POPC   C3A 3392   0.460   7.247   5.666
  237POPC   C4A 3393   0.199   7.145   6.061
  237POPC   C1B 3394   0.109   7.465   4.705
  237POPC   C2B 3395  11.370   7.406   5.093
  237POPC   C3B 3396   0.030   7.520   5.522
  237POPC   C4B 3397   0.259   7.633   5.925
  238POPC   NC3 3398   5.535   1.979   3.961
  238POPC   PO4 3399   5.928   2.385   4.064
  238POPC   GL1 3400   5.859   2.047   4.355
  238POPC   GL2 3401   5.918   1.704   4.263
  238POPC   C1A 3402   5.537   1.922   4.669
  238POPC   D2A 3403   5.347   1.862   5.102
  238POPC   C3A 3404   5.579   1.947   5.488
  238POPC   C4A 3405   5.821   2.150   5.836
  238POPC   C1B 3406   6.030   1.750   4.743
  238POPC   C2B 3407   6.032   1.910   5.195
  238POPC   C3B 3408   6.269   2.060   5.565
  238POPC   C4B 3409   6.274   1.994   6.027
  239POPC   NC3 3410   0.693   6.636   4.112
  239POPC   PO4 3411   0.100   6.900   3.958
  239POPC   GL1 3412   0.226   6.747   4.320
  239POPC   GL2 3413   0.155   6.395   4.258
  239POPC   C1A 3414   0.320   6.893   4.734
  239POPC   D2A 3415   0.442   6.729   5.090
  239POPC   C3A 3416   0.354   6.779   5.514
  239POPC   C4A 3417   0.650   6.569   5.768
  239POPC   C1B 3418   0.366   6.385   4.667
  239POPC   C2B 3419   0.445   6.213   5.089
  239POPC   C3B 3420   0.319   6.269   5.502
  239POPC   C4B 3421   0.381   6.084   5.918
  240POPC   NC3 3422  10.450   9.625   3.743
  240POPC   PO4 3423  10.846   9.107   3.734
  240POPC   GL1 3424  10.476   9.239   4.078
  240POPC   GL2 3425  10.612   9.537   4.208
  240POPC   C1A 3426  10.398   9.299   4.591
  240POPC   D2A 3427  10.548   9.241   5.027
  240POPC   C3A 3428  10.344   9.405   5.367
  240POPC   C4A 3429  10.548   9.652   5.669
  240POPC   C1B 3430  10.329   9.793   4.485
  240POPC   C2B 3431  10.257   9.746   4.952
  240POPC   C3B 3432  10.171   9.896   5.415
  240POPC   C4B 3433  10.289  10.033   5.878
  241POPC   NC3 3434   4.843  11.137   3.811
  241POPC   PO4 3435   5.588  11.166   3.812
  241POPC   GL1 3436   5.375  11.165   4.226
  241POPC   GL2 3437   5.018  11.236   4.292
  241POPC   C1A 3438   5.289  11.035   4.669
  241POPC   D2A 3439   5.131  11.298   4.994
  241POPC   C3A 3440   5.202  11.114   5.400
  241POPC   C4A 3441   5.194  11.427   5.709
  241POPC   C1B 3442   4.725  11.298   4.659
  241POPC   C2B 3443   4.622  11.444   5.086
  241POPC   C3B 3444   4.535  11.293   5.488
  241POPC   C4B 3445   4.785  11.122   5.750
  242POPC   NC3 3446  11.274   5.993   3.557
  242POPC   PO4 3447  10.984   5.616   4.037
  242POPC   GL1 3448  11.128   5.723   4.423
  242POPC   GL2 3449  11.439   5.655   4.324
  242POPC   C1A 3450  11.214   5.553   4.847
  242POPC   D2A 3451  11.063   5.364   5.274
  242POPC   C3A 3452  11.049   5.708   5.600
  242POPC   C4A 3453  10.903   6.130   5.549
  242POPC   C1B 3454   0.024   5.997   4.603
  242POPC   C2B 3455  11.259   6.072   4.935
  242POPC   C3B 3456  11.373   6.046   5.359
  242POPC   C4B 3457  11.385   6.220   5.775
  243POPC   NC3 3458   8.048  11.087   3.860
  243POPC   PO4 3459   7.660  10.754   4.198
  243POPC   GL1 3460   7.932  11.060   4.367
  243POPC   GL2 3461   8.320  11.085   4.285
  243POPC   C1A 3462   7.815  11.129   4.780
  243POPC   D2A 3463   7.951  11.267   5.171
  243POPC   C3A 3464   7.961  11.070   5.564
  243POPC   C4A 3465   7.870  11.293   5.960
  243POPC   C1B 3466   8.326  11.178   4.720
  243POPC   C2B 3467   8.379  10.977   5.111
  243POPC   C3B 3468   8.465  11.191   5.465
  243POPC   C4B 3469   8.354  11.166   5.898
  244POPC   NC3 3470   2.158   9.021   3.890
  244POPC   PO4 3471   1.579   9.336   3.988
  244POPC   GL1 3472   1.649   9.222   4.404
  244POPC   GL2 3473   1.891   9.005   4.331
  244POPC   C1A 3474   1.650   9.018   4.822
  244POPC   D2A 3475   1.808   8.740   5.170
  244POPC   C3A 3476   1.666   8.732   5.634
  244POPC   C4A 3477   1.664   8.973   6.035
  244POPC   C1B 3478   2.049   8.792   4.625
  244POPC   C2B 3479   2.272   8.808   4.954
  244POPC   C3B 3480   2.270   8.828   5.398
  244POPC   C4B 3481   2.143   9.031   5.761
  245POPC   NC3 3482   4.366   0.500   3.801
  245POPC   PO4 3483   4.160  11.373   3.901
  245POPC   GL1 3484   4.300   0.187   4.238
  245POPC   GL2 3485   4.238   0.529   4.338
  245POPC   C1A 3486   4.365   0.210   4.704
  245POPC   D2A 3487   4.150   0.285   5.087
  245POPC   C3A 3488   4.385   0.281   5.445
  245POPC   C4A 3489   4.353   0.282   5.880
  245POPC   C1B 3490   4.298   0.733   4.775
  245POPC   C2B 3491   4.526   0.720   5.188
  245POPC   C3B 3492   4.514   0.733   5.655
  245POPC   C4B 3493   4.049   0.664   5.741
  246POPC   NC3 3494   8.734   9.638   3.884
  246POPC   PO4 3495   9.384   9.353   4.023
  246POPC   GL1 3496   9.215   9.412   4.435
  246POPC   GL2 3497   8.965   9.655   4.332
  246POPC   C1A 3498   8.910   9.280   4.778
  246POPC   D2A 3499   8.772   9.159   5.231
  246POPC   C3A 3500   9.057   9.344   5.567
  246POPC   C4A 3501   9.117   9.186   6.022
  246POPC   C1B 3502   9.001   9.800   4.744
  246POPC   C2B 3503   8.873   9.650   5.163
  246POPC   C3B 3504   8.873   9.855   5.567
  246POPC   C4B 3505   9.196  10.033   5.819
  247POPC   NC3 3506   2.298   0.572   3.898
  247POPC   PO4 3507   1.777   0.162   3.990
  247POPC   GL1 3508   2.028   0.218   4.321
  247POPC   GL2 3509   2.133   0.575   4.370
  247POPC   C1A 3510   1.921   0.210   4.740
  247POPC   D2A 3511   1.775   0.157   5.147
  247POPC   C3A 3512   2.136   0.095   5.436
  247POPC   C4A 3513   2.055   0.046   5.845
  247POPC   C1B 3514   1.883   0.724   4.678
  247POPC   C2B 3515   1.662   0.650   5.047
  247POPC   C3B 3516   1.856   0.561   5.435
  247POPC   C4B 3517   2.135   0.565   5.747
  248POPC   NC3 3518  10.461   6.135   3.734
  248POPC   PO4 3519  10.611   6.752   3.965
  248POPC   GL1 3520  10.541   6.695   4.339
  248POPC   GL2 3521  10.419   6.363   4.242
  248POPC   C1A 3522  10.382   6.795   4.722
  248POPC   D2A 3523  10.236   6.539   5.046
  248POPC   C3A 3524  10.319   6.694   5.416
  248POPC   C4A 3525  10.032   6.584   5.729
  248POPC   C1B 3526  10.460   6.268   4.674
  248POPC   C2B 3527  10.363   6.015   5.012
  248POPC   C3B 3528  10.348   6.169   5.433
  248POPC   C4B 3529  10.506   6.374   5.757
  249POPC   NC3 3530   0.442   1.963   3.745
  249POPC   PO4 3531   0.091   2.262   4.160
  249POPC   GL1 3532   0.229   1.915   4.305
  249POPC   GL2 3533   0.556   1.971   4.261
  249POPC   C1A 3534   0.197   1.803   4.722
  249POPC   D2A 3535   0.358   1.945   5.091
  249POPC   C3A 3536   0.180   1.864   5.451
  249POPC   C4A 3537   0.008   2.218   5.645
  249POPC   C1B 3538   0.652   2.073   4.680
  249POPC   C2B 3539   0.671   2.330   5.048
  249POPC   C3B 3540   0.494   2.308   5.478
  249POPC   C4B 3541   0.507   1.971   5.805
  250POPC   NC3 3542   0.510   8.824   3.870
  250POPC   PO4 3543  11.423   8.449   3.825
  250POPC   GL1 3544   0.212   8.598   4.218
  250POPC   GL2 3545   0.555   8.734   4.352
  250POPC   C1A 3546   0.147   8.843   4.634
  250POPC   D2A 3547   0.316   8.833   5.063
  250POPC   C3A 3548   0.175   9.137   5.407
  250POPC   C4A 3549   0.056   9.160   5.847
  250POPC   C1B 3550   0.777   8.724   4.721
  250POPC   C2B 3551   0.872   8.792   5.099
  250POPC   C3B 3552   0.671   8.982   5.402
  250POPC   C4B 3553   0.433   8.853   5.762
  251POPC   NC3 3554  11.223  11.257   3.713
  251POPC   PO4 3555  10.708   0.141   3.772
  251POPC   GL1 3556  11.190   0.062   4.107
  251POPC   GL2 3557  11.182  11.228   4.216
  251POPC   C1A 3558  11.270   0.026   4.620
  251POPC   D2A 3559  11.054  11.300   5.001
  251POPC   C3A 3560  11.214  11.328   5.430
  251POPC   C4A 3561  11.119  11.485   5.856
  251POPC   C1B 3562  11.201  11.012   4.622
  251POPC   C2B 3563  11.350  10.825   5.004
  251POPC   C3B 3564  11.376  10.818   5.434
  251POPC   C4B 3565  11.179  10.972   5.806
  252POPC   NC3 3566   4.166   1.014   4.172
  252POPC   PO4 3567   4.648   1.411   3.841
  252POPC   GL1 3568   4.652   1.237   4.235
  252POPC   GL2 3569   4.398   1.427   4.368
  252POPC   C1A 3570   4.667   1.145   4.693
  252POPC   D2A 3571   4.551   1.208   5.106
  252POPC   C3A 3572   4.612   1.412   5.471
  252POPC   C4A 3573   4.792   1.239   5.822
  252POPC   C1B 3574   4.184   1.323   4.762
  252POPC   C2B 3575   4.083   1.354   5.198
  252POPC   C3B 3576   4.210   1.121   5.526
  252POPC   C4B 3577   4.154   1.464   5.762
  253POPC   NC3 3578   5.691  10.627   3.943
  253POPC   PO4 3579   6.035  10.060   3.943
  253POPC   GL1 3580   5.904  10.299   4.341
  253POPC   GL2 3581   6.018  10.666   4.355
  253POPC   C1A 3582   5.765  10.137   4.796
  253POPC   D2A 3583   5.564   9.970   5.198
  253POPC   C3A 3584   5.819   9.950   5.555
  253POPC   C4A 3585   5.875  10.286   5.789
  253POPC   C1B 3586   5.635  10.604   4.654
  253POPC   C2B 3587   5.499  10.469   5.095
  253POPC   C3B 3588   5.599  10.615   5.495
  253POPC   C4B 3589   5.931  10.774   5.780
  254POPC   NC3 3590   1.884  10.557   3.565
  254POPC   PO4 3591   2.431  10.925   3.823
  254POPC   GL1 3592   2.320  10.777   4.318
  254POPC   GL2 3593   1.977  10.606   4.462
  254POPC   C1A 3594   2.285  10.837   4.816
  254POPC   D2A 3595   1.984  10.739   5.169
  254POPC   C3A 3596   2.051  10.817   5.580
  254POPC   C4A 3597   2.301  10.672   5.880
  254POPC   C1B 3598   2.076  10.333   4.867
  254POPC   C2B 3599   2.169  10.174   5.283
  254POPC   C3B 3600   1.959  10.329   5.618
  254POPC   C4B 3601   1.603  10.582   5.647
  255POPC   NC3 3602   9.783  11.060   3.560
  255POPC   PO4 3603   9.283  11.479   3.662
  255POPC   GL1 3604   9.525  11.440   4.137
  255POPC   GL2 3605   9.617  11.167   4.392
  255POPC   C1A 3606   9.535   0.046   4.680
  255POPC   D2A 3607   9.462  11.349   5.149
  255POPC   C3A 3608   9.679  11.259   5.581
  255POPC   C4A 3609   9.739  11.430   6.078
  255POPC   C1B 3610   9.631  10.965   4.792
  255POPC   C2B 3611   9.325  10.824   5.105
  255POPC   C3B 3612   9.249  10.913   5.525
  255POPC   C4B 3613   9.507  10.903   5.900
  256POPC   NC3 3614   9.164   4.777   4.037
  256POPC   PO4 3615   8.624   5.007   3.928
  256POPC   GL1 3616   8.765   5.166   4.359
  256POPC   GL2 3617   9.106   5.117   4.435
  256POPC   C1A 3618   8.766   5.032   4.812
  256POPC   D2A 3619   8.748   4.862   5.250
  256POPC   C3A 3620   8.744   4.936   5.695
  256POPC   C4A 3621   8.418   4.920   6.020
  256POPC   C1B 3622   9.178   5.322   4.822
  256POPC   C2B 3623   9.192   5.250   5.263
  256POPC   C3B 3624   9.156   5.243   5.684
  256POPC   C4B 3625   9.227   4.954   6.001
  257POPC   NC3 3626   2.891   3.781   3.999
  257POPC   PO4 3627   2.668   3.173   3.942
  257POPC   GL1 3628   2.698   3.371   4.304
  257POPC   GL2 3629   2.411   3.269   4.448
  257POPC   C1A 3630   2.781   3.542   4.707
  257POPC   D2A 3631   2.955   3.374   5.079
  257POPC   C3A 3632   2.872   3.533   5.499
  257POPC   C4A 3633   3.123   3.435   5.863
  257POPC   C1B 3634   2.443   3.204   4.887
  257POPC   C2B 3635   2.465   3.263   5.306
  257POPC   C3B 3636   2.362   3.502   5.660
  257POPC   C4B 3637   2.624   3.507   5.980
  258POPC   NC3 3638   4.149  10.668   4.062
  258POPC   PO4 3639   4.439  10.102   4.141
  258POPC   GL1 3640   4.126  10.228   4.454
  258POPC   GL2 3641   3.823  10.347   4.336
  258POPC   C1A 3642   4.193  10.186   4.917
  258POPC   D2A 3643   4.555  10.094   5.209
  258POPC   C3A 3644   4.652  10.303   5.605
  258POPC   C4A 3645   4.678  10.642   5.894
  258POPC   C1B 3646   3.900  10.627   4.721
  258POPC   C2B 3647   3.881  10.530   5.157
  258POPC   C3B 3648   4.114  10.304   5.443
  258POPC   C4B 3649   4.220  10.432   5.858
  259POPC   NC3 3650   5.041   0.655   3.959
  259POPC   PO4 3651   5.154   0.033   3.713
  259POPC   GL1 3652   5.187   0.211   4.174
  259POPC   GL2 3653   4.832   0.241   4.305
  259POPC   C1A 3654   5.266   0.483   4.562
  259POPC   D2A 3655   5.346   0.367   5.009
  259POPC   C3A 3656   5.306   0.522   5.463
  259POPC   C4A 3657   5.399   0.358   5.897
  259POPC   C1B 3658   4.866   0.277   4.778
  259POPC   C2B 3659   4.878   0.368   5.234
  259POPC   C3B 3660   4.857   0.328   5.692
  259POPC   C4B 3661   4.834   0.478   6.126
  260POPC   NC3 3662   1.881   7.970   3.997
  260POPC   PO4 3663   1.895   8.652   3.967
  260POPC   GL1 3664   2.051   8.387   4.294
  260POPC   GL2 3665   1.738   8.266   4.413
  260POPC   C1A 3666   2.079   8.313   4.773
  260POPC   D2A 3667   1.768   8.223   5.112
  260POPC   C3A 3668   1.982   8.355   5.490
  260POPC   C4A 3669   2.183   8.540   5.830
  260POPC   C1B 3670   1.831   7.878   4.671
  260POPC   C2B 3671   1.770   7.697   5.104
  260POPC   C3B 3672   1.779   7.861   5.528
  260POPC   C4B 3673   1.564   8.221   5.717
  261POPC   NC3 3674   8.818   2.661   4.064
  261POPC   PO4 3675   9.332   2.997   4.143
  261POPC   GL1 3676   9.101   2.851   4.491
  261POPC   GL2 3677   9.112   2.536   4.477
  261POPC   C1A 3678   9.009   2.818   4.937
  261POPC   D2A 3679   8.968   2.734   5.383
  261POPC   C3A 3680   9.179   3.038   5.679
  261POPC   C4A 3681   9.176   3.174   6.063
  261POPC   C1B 3682   8.676   2.494   4.684
  261POPC   C2B 3683   8.465   2.355   5.079
  261POPC   C3B 3684   8.626   2.363   5.517
  261POPC   C4B 3685   8.595   2.760   5.754
  262POPC   NC3 3686   3.219  10.850   3.943
  262POPC   PO4 3687   3.322   0.013   3.986
  262POPC   GL1 3688   3.163  11.282   4.315
  262POPC   GL2 3689   3.449  11.125   4.343
  262POPC   C1A 3690   3.221  11.324   4.781
  262POPC   D2A 3691   3.249  11.127   5.185
  262POPC   C3A 3692   3.227  11.355   5.560
  262POPC   C4A 3693   3.318  11.420   6.006
  262POPC   C1B 3694   3.705  11.105   4.695
  262POPC   C2B 3695   3.738  11.021   5.120
  262POPC   C3B 3696   3.649  11.040   5.534
  262POPC   C4B 3697   3.812  10.691   5.706
  263POPC   NC3 3698  11.227   2.091   3.961
  263POPC   PO4 3699   0.116   1.573   3.909
  263POPC   GL1 3700  11.265   1.695   4.288
  263POPC   GL2 3701  10.948   1.960   4.336
  263POPC   C1A 3702  11.198   1.872   4.746
  263POPC   D2A 3703  11.335   2.068   5.113
  263POPC   C3A 3704  11.174   1.859   5.476
  263POPC   C4A 3705  11.389   1.806   5.903
  263POPC   C1B 3706  10.735   2.117   4.710
  263POPC   C2B 3707  10.822   2.070   5.134
  263POPC   C3B 3708  10.705   2.099   5.545
  263POPC   C4B 3709  11.001   2.161   5.850
  264POPC   NC3 3710   4.367   1.783   3.776
  264POPC   PO4 3711   3.865   1.366   4.072
  264POPC   GL1 3712   3.929   1.649   4.440
  264POPC   GL2 3713   4.178   1.864   4.254
  264POPC   C1A 3714   3.923   1.737   4.899
  264POPC   D2A 3715   4.040   2.027   5.204
  264POPC   C3A 3716   4.175   1.936   5.582
  264POPC   C4A 3717   3.891   1.881   5.926
  264POPC   C1B 3718   4.313   1.962   4.691
  264POPC   C2B 3719   4.445   1.736   5.094
  264POPC   C3B 3720   4.728   1.899   5.453
  264POPC   C4B 3721   4.741   2.221   5.809
  265POPC   NC3 3722   1.130   6.632   3.754
  265POPC   PO4 3723   1.490   6.422   4.205
  265POPC   GL1 3724   1.314   6.398   4.552
  265POPC   GL2 3725   0.993   6.377   4.443
  265POPC   C1A 3726   1.300   6.634   4.904
  265POPC   D2A 3727   1.286   6.869   5.258
  265POPC   C3A 3728   1.307   6.660   5.637
  265POPC   C4A 3729   1.524   6.881   5.985
  265POPC   C1B 3730   0.828   6.476   4.833
  265POPC   C2B 3731   0.867   6.534   5.268
  265POPC   C3B 3732   0.836   6.192   5.499
  265POPC   C4B 3733   1.036   6.254   5.872
  266POPC   NC3 3734   1.389   6.077   3.930
  266POPC   PO4 3735   1.190   5.444   3.943
  266POPC   GL1 3736   1.308   5.668   4.297
  266POPC   GL2 3737   1.051   5.889   4.288
  266POPC   C1A 3738   1.404   5.519   4.717
  266POPC   D2A 3739   1.259   5.668   5.127
  266POPC   C3A 3740   1.532   5.661   5.452
  266POPC   C4A 3741   1.515   5.482   5.822
  266POPC   C1B 3742   1.125   5.958   4.721
  266POPC   C2B 3743   1.192   6.186   5.090
  266POPC   C3B 3744   1.351   6.125   5.494
  266POPC   C4B 3745   1.068   5.759   5.638
  267POPC   NC3 3746   7.264   2.187   3.928
  267POPC   PO4 3747   7.098   1.586   3.603
  267POPC   GL1 3748   7.232   1.697   4.054
  267POPC   GL2 3749   7.566   1.845   4.187
  267POPC   C1A 3750   7.151   1.899   4.511
  267POPC   D2A 3751   7.184   1.977   4.988
  267POPC   C3A 3752   6.884   1.936   5.338
  267POPC   C4A 3753   7.034   1.768   5.728
  267POPC   C1B 3754   7.656   1.917   4.642
  267POPC   C2B 3755   7.656   1.786   5.074
  267POPC   C3B 3756   7.449   1.951   5.445
  267POPC   C4B 3757   7.161   2.258   5.607
  268POPC   NC3 3758  10.281   8.266   3.660
  268POPC   PO4 3759  10.045   7.717   3.887
  268POPC   GL1 3760  10.365   7.851   4.222
  268POPC   GL2 3761  10.429   8.228   4.287
  268POPC   C1A 3762  10.173   7.920   4.661
  268POPC   D2A 3763   9.946   8.096   5.003
  268POPC   C3A 3764  10.090   7.965   5.392
  268POPC   C4A 3765  10.130   7.945   5.783
  268POPC   C1B 3766  10.410   8.357   4.746
  268POPC   C2B 3767  10.316   8.372   5.198
  268POPC   C3B 3768  10.543   8.212   5.577
  268POPC   C4B 3769  10.610   8.414   5.985
  269POPC   NC3 3770   2.780   9.464   3.839
  269POPC   PO4 3771   2.194   9.832   3.833
  269POPC   GL1 3772   2.515   9.765   4.206
  269POPC   GL2 3773   2.865   9.616   4.315
  269POPC   C1A 3774   2.519   9.617   4.673
  269POPC   D2A 3775   2.758   9.709   5.071
  269POPC   C3A 3776   2.490   9.774   5.402
  269POPC   C4A 3777   2.341   9.476   5.663
  269POPC   C1B 3778   2.980   9.374   4.716
  269POPC   C2B 3779   3.041   9.247   5.162
  269POPC   C3B 3780   2.995   9.545   5.526
  269POPC   C4B 3781   2.793   9.800   5.823
  270POPC   NC3 3782   3.852  11.028   3.733
  270POPC   PO4 3783   4.531  10.774   3.810
  270POPC   GL1 3784   4.596  10.897   4.234
  270POPC   GL2 3785   4.509  11.216   4.221
  270POPC   C1A 3786   4.411  10.827   4.661
  270POPC   D2A 3787   4.380  10.628   5.070
  270POPC   C3A 3788   4.203  10.868   5.397
  270POPC   C4A 3789   4.275  10.943   5.820
  270POPC   C1B 3790   4.184  11.262   4.548
  270POPC   C2B 3791   4.177  11.234   4.992
  270POPC   C3B 3792   4.039  11.370   5.403
  270POPC   C4B 3793   3.946  11.341   5.848
  271POPC   NC3 3794   2.844   6.600   3.890
  271POPC   PO4 3795   2.916   7.172   4.011
  271POPC   GL1 3796   2.852   6.823   4.368
  271POPC   GL2 3797   2.559   6.610   4.322
  271POPC   C1A 3798   2.915   6.599   4.813
  271POPC   D2A 3799   3.026   6.432   5.267
  271POPC   C3A 3800   2.838   6.634   5.643
  271POPC   C4A 3801   2.457   6.610   5.908
  271POPC   C1B 3802   2.532   6.306   4.616
  271POPC   C2B 3803   2.673   6.182   5.012
  271POPC   C3B 3804   2.545   6.268   5.433
  271POPC   C4B 3805   2.247   6.173   5.753
  272POPC   NC3 3806   6.961   3.062   4.144
  272POPC   PO4 3807   6.812   2.391   3.979
  272POPC   GL1 3808   7.054   2.563   4.337
  272POPC   GL2 3809   7.410   2.589   4.280
  272POPC   C1A 3810   7.078   2.765   4.774
  272POPC   D2A 3811   7.296   2.839   5.194
  272POPC   C3A 3812   7.124   2.783   5.641
  272POPC   C4A 3813   7.165   2.969   6.089
  272POPC   C1B 3814   7.392   2.360   4.686
  272POPC   C2B 3815   7.483   2.360   5.135
  272POPC   C3B 3816   7.597   2.492   5.552
  272POPC   C4B 3817   7.764   2.415   5.966
  273POPC   NC3 3818   1.798   9.915   3.601
  273POPC   PO4 3819   2.099  10.143   4.266
  273POPC   GL1 3820   2.085   9.773   4.480
  273POPC   GL2 3821   2.093   9.467   4.241
  273POPC   C1A 3822   2.077   9.793   4.893
  273POPC   D2A 3823   1.765   9.887   5.116
  273POPC   C3A 3824   1.909   9.705   5.432
  273POPC   C4A 3825   2.072   9.866   5.768
  273POPC   C1B 3826   2.053   9.322   4.696
  273POPC   C2B 3827   2.025   9.242   5.124
  273POPC   C3B 3828   1.773   9.197   5.466
  273POPC   C4B 3829   1.818   9.418   5.845
  274POPC   NC3 3830   7.274   8.830   3.864
  274POPC   PO4 3831   7.071   9.406   4.126
  274POPC   GL1 3832   7.321   9.138   4.434
  274POPC   GL2 3833   7.430   8.791   4.346
  274POPC   C1A 3834   7.316   8.989   4.884
  274POPC   D2A 3835   7.337   8.839   5.306
  274POPC   C3A 3836   7.120   9.067   5.686
  274POPC   C4A 3837   6.817   9.062   6.076
  274POPC   C1B 3838   7.732   8.862   4.636
  274POPC   C2B 3839   7.823   8.792   5.042
  274POPC   C3B 3840   7.821   8.777   5.469
  274POPC   C4B 3841   7.499   8.693   5.760
  275POPC   NC3 3842   2.795   1.294   3.708
  275POPC   PO4 3843   2.637   1.830   3.982
  275POPC   GL1 3844   2.738   1.533   4.298
  275POPC   GL2 3845   2.905   1.242   4.229
  275POPC   C1A 3846   2.552   1.412   4.701
  275POPC   D2A 3847   2.349   1.318   5.082
  275POPC   C3A 3848   2.293   1.531   5.438
  275POPC   C4A 3849   2.365   1.411   5.821
  275POPC   C1B 3850   3.033   1.227   4.661
  275POPC   C2B 3851   2.813   1.105   5.058
  275POPC   C3B 3852   2.703   1.202   5.500
  275POPC   C4B 3853   2.789   1.168   5.973
  276POPC   NC3 3854   3.768   2.555   3.988
  276POPC   PO4 3855   3.191   2.473   3.667
  276POPC   GL1 3856   3.116   2.570   4.193
  276POPC   GL2 3857   3.457   2.570   4.429
  276POPC   C1A 3858   3.018   2.496   4.679
  276POPC   D2A 3859   3.198   2.430   5.139
  276POPC   C3A 3860   3.241   2.648   5.565
  276POPC   C4A 3861   3.472   2.702   5.982
  276POPC   C1B 3862   3.357   2.844   4.825
  276POPC   C2B 3863   3.392   3.097   5.219
  276POPC   C3B 3864   3.486   3.099   5.668
  276POPC   C4B 3865   3.865   3.093   5.955
  277POPC   NC3 3866   8.996  11.115   3.541
  277POPC   PO4 3867   9.181  10.924   4.156
  277POPC   GL1 3868   8.861  11.123   4.361
  277POPC   GL2 3869   9.105  11.408   4.397
  277POPC   C1A 3870   8.729  10.881   4.737
  277POPC   D2A 3871   8.804  10.643   5.119
  277POPC   C3A 3872   8.682  10.743   5.541
  277POPC   C4A 3873   8.836  11.056   5.784
  277POPC   C1B 3874   9.144  11.186   4.783
  277POPC   C2B 3875   8.915  11.164   5.174
  277POPC   C3B 3876   9.060  11.405   5.508
  277POPC   C4B 3877   9.026   0.260   5.790
  278POPC   NC3 3878   6.344   2.565   4.009
  278POPC   PO4 3879   6.536   3.178   4.103
  278POPC   GL1 3880   6.597   2.794   4.421
  278POPC   GL2 3881   6.559   2.410   4.438
  278POPC   C1A 3882   6.581   2.700   4.884
  278POPC   D2A 3883   6.777   2.896   5.244
  278POPC   C3A 3884   6.572   2.935   5.655
  278POPC   C4A 3885   6.660   3.128   6.057
  278POPC   C1B 3886   6.871   2.295   4.739
  278POPC   C2B 3887   6.970   2.425   5.158
  278POPC   C3B 3888   6.713   2.465   5.525
  278POPC   C4B 3889   6.352   2.483   5.825
  279POPC   NC3 3890   0.383   2.793   3.703
  279POPC   PO4 3891   0.127   3.083   4.169
  279POPC   GL1 3892   0.501   2.875   4.343
  279POPC   GL2 3893   0.497   2.484   4.376
  279POPC   C1A 3894   0.629   2.752   4.771
  279POPC   D2A 3895   0.506   2.791   5.180
  279POPC   C3A 3896   0.760   2.981   5.478
  279POPC   C4A 3897   0.694   2.788   5.836
  279POPC   C1B 3898   0.230   2.366   4.776
  279POPC   C2B 3899   0.094   2.489   5.184
  279POPC   C3B 3900   0.171   2.706   5.565
  279POPC   C4B 3901   0.259   2.531   5.960
  280POPC   NC3 3902  11.129   3.598   3.782
  280POPC   PO4 3903   0.000   3.110   3.638
  280POPC   GL1 3904  11.428   3.501   4.143
  280POPC   GL2 3905  11.107   3.462   4.276
  280POPC   C1A 3906  11.486   3.630   4.631
  280POPC   D2A 3907   0.018   3.379   5.032
  280POPC   C3A 3908   0.011   3.595   5.397
  280POPC   C4A 3909  11.354   3.514   5.813
  280POPC   C1B 3910  10.997   3.700   4.609
  280POPC   C2B 3911  11.050   3.537   4.989
  280POPC   C3B 3912  11.010   3.501   5.401
  280POPC   C4B 3913  10.766   3.781   5.577
  281POPC   NC3 3914   3.367  10.143   4.142
  281POPC   PO4 3915   3.684  10.755   4.083
  281POPC   GL1 3916   3.335  10.619   4.367
  281POPC   GL2 3917   3.359  10.350   4.596
  281POPC   C1A 3918   3.254  10.822   4.742
  281POPC   D2A 3919   3.379  10.618   5.092
  281POPC   C3A 3920   3.250  10.693   5.501
  281POPC   C4A 3921   3.359  10.523   5.922
  281POPC   C1B 3922   3.697  10.173   4.798
  281POPC   C2B 3923   3.539  10.136   5.141
  281POPC   C3B 3924   3.565  10.295   5.494
  281POPC   C4B 3925   3.782  10.182   5.825
  282POPC   NC3 3926   3.779   0.097   4.075
  282POPC   PO4 3927   3.954   0.696   3.904
  282POPC   GL1 3928   3.744   0.600   4.287
  282POPC   GL2 3929   3.432   0.468   4.250
  282POPC   C1A 3930   3.834   0.377   4.686
  282POPC   D2A 3931   3.697   0.031   4.992
  282POPC   C3A 3932   3.616   0.156   5.434
  282POPC   C4A 3933   3.701   0.288   5.858
  282POPC   C1B 3934   3.313   0.317   4.679
  282POPC   C2B 3935   3.484   0.512   5.068
  282POPC   C3B 3936   3.419   0.648   5.511
  282POPC   C4B 3937   3.177   0.348   5.766
  283POPC   NC3 3938   4.169   9.708   4.011
  283POPC   PO4 3939   4.847   9.615   3.852
  283POPC   GL1 3940   4.592   9.557   4.305
  283POPC   GL2 3941   4.292   9.746   4.475
  283POPC   C1A 3942   4.516   9.496   4.815
  283POPC   D2A 3943   4.726   9.473   5.225
  283POPC   C3A 3944   4.527   9.483   5.659
  283POPC   C4A 3945   4.608   9.663   6.103
  283POPC   C1B 3946   4.028   9.720   4.801
  283POPC   C2B 3947   3.893   9.803   5.182
  283POPC   C3B 3948   3.973   9.746   5.594
  283POPC   C4B 3949   4.310   9.937   5.782
  284POPC   NC3 3950  10.308  10.273   3.886
  284POPC   PO4 3951  10.088  10.929   3.886
  284POPC   GL1 3952  10.241  10.785   4.249
  284POPC   GL2 3953  10.462  10.516   4.323
  284POPC   C1A 3954  10.173  10.832   4.671
  284POPC   D2A 3955  10.405  10.607   4.963
  284POPC   C3A 3956  10.386  10.771   5.329
  284POPC   C4A 3957  10.434  10.787   5.736
  284POPC   C1B 3958  10.570  10.220   4.652
  284POPC   C2B 3959  10.559  10.133   5.095
  284POPC   C3B 3960  10.523  10.290   5.489
  284POPC   C4B 3961  10.782  10.230   5.805
  285POPC   NC3 3962   1.089   4.973   3.930
  285POPC   PO4 3963   0.432   5.309   3.992
  285POPC   GL1 3964   0.754   5.342   4.335
  285POPC   GL2 3965   1.102   5.190   4.391
  285POPC   C1A 3966   0.876   5.487   4.738
  285POPC   D2A 3967   1.110   5.197   4.998
  285POPC   C3A 3968   1.193   5.240   5.442
  285POPC   C4A 3969   0.885   5.065   5.698
  285POPC   C1B 3970   1.360   4.905   4.655
  285POPC   C2B 3971   1.430   4.820   5.118
  285POPC   C3B 3972   1.340   4.736   5.565
  285POPC   C4B 3973   1.543   4.978   5.868
  286POPC   NC3 3974   7.208   9.819   3.996
  286POPC   PO4 3975   7.915   9.889   3.891
  286POPC   GL1 3976   7.677   9.980   4.319
  286POPC   GL2 3977   7.462   9.683   4.405
  286POPC   C1A 3978   7.675   9.880   4.813
  286POPC   D2A 3979   7.343   9.888   5.148
  286POPC   C3A 3980   7.494  10.007   5.561
  286POPC   C4A 3981   7.494   9.713   5.873
  286POPC   C1B 3982   7.302   9.502   4.814
  286POPC   C2B 3983   7.314   9.381   5.273
  286POPC   C3B 3984   7.090   9.609   5.576
  286POPC   C4B 3985   6.695   9.505   5.784
  287POPC   NC3 3986   7.443   0.271   3.828
  287POPC   PO4 3987   7.723   0.905   3.874
  287POPC   GL1 3988   7.763   0.670   4.258
  287POPC   GL2 3989   7.444   0.528   4.272
  287POPC   C1A 3990   7.769   0.506   4.720
  287POPC   D2A 3991   7.792   0.300   5.202
  287POPC   C3A 3992   7.681   0.619   5.567
  287POPC   C4A 3993   7.717   0.703   6.071
  287POPC   C1B 3994   7.244   0.586   4.648
  287POPC   C2B 3995   7.380   0.562   5.061
  287POPC   C3B 3996   7.275   0.343   5.419
  287POPC   C4B 3997   7.069   0.659   5.677
  288POPC   NC3 3998   5.039   9.216   4.004
  288POPC   PO4 3999   4.833   8.620   3.747
  288POPC   GL1 4000   4.720   8.703   4.218
  288POPC   GL2 4001   4.736   9.038   4.355
  288POPC   C1A 4002   4.657   8.537   4.685
  288POPC   D2A 4003   4.919   8.582   5.078
  288POPC   C3A 4004   4.868   8.652   5.536
  288POPC   C4A 4005   5.011   8.763   5.982
  288POPC   C1B 4006   5.029   8.897   4.685
  288POPC   C2B 4007   5.038   9.066   5.136
  288POPC   C3B 4008   4.975   9.173   5.576
  288POPC   C4B 4009   5.334   9.155   5.850
  289POPC   NC3 4010   5.079   1.246   3.920
  289POPC   PO4 4011   4.613   0.748   4.089
  289POPC   GL1 4012   4.834   0.739   4.437
  289POPC   GL2 4013   5.078   0.975   4.364
  289POPC   C1A 4014   4.974   0.771   4.856
  289POPC   D2A 4015   5.050   1.070   5.095
  289POPC   C3A 4016   4.949   0.932   5.448
  289POPC   C4A 4017   5.090   0.803   5.832
  289POPC   C1B 4018   5.118   1.355   4.649
  289POPC   C2B 4019   4.940   1.554   5.045
  289POPC   C3B 4020   5.114   1.467   5.462
  289POPC   C4B 4021   5.438   1.517   5.753
  290POPC   NC3 4022   4.364   7.544   4.191
  290POPC   PO4 4023   3.795   7.586   4.249
  290POPC   GL1 4024   4.047   7.413   4.583
  290POPC   GL2 4025   4.191   7.112   4.451
  290POPC   C1A 4026   4.075   7.478   5.021
  290POPC   D2A 4027   4.259   7.804   5.273
  290POPC   C3A 4028   4.258   7.623   5.667
  290POPC   C4A 4029   3.967   7.287   5.727
  290POPC   C1B 4030   4.382   7.090   4.871
  290POPC   C2B 4031   4.508   7.327   5.252
  290POPC   C3B 4032   4.486   7.157   5.668
  290POPC   C4B 4033   4.196   6.840   5.862
  291POPC   NC3 4034   0.411   0.533   3.815
  291POPC   PO4 4035   0.112  11.476   3.805
  291POPC   GL1 4036   0.173   0.128   4.285
  291POPC   GL2 4037   0.437   0.394   4.288
  291POPC   C1A 4038   0.505   0.076   4.660
  291POPC   D2A 4039   0.760   0.265   4.995
  291POPC   C3A 4040   0.661   0.127   5.433
  291POPC   C4A 4041   0.934   0.267   5.762
  291POPC   C1B 4042   0.514   0.599   4.675
  291POPC   C2B 4043   0.331   0.639   5.109
  291POPC   C3B 4044   0.424   0.569   5.573
  291POPC   C4B 4045   0.371   0.632   6.020
  292POPC   NC3 4046  10.358   2.223   3.484
  292POPC   PO4 4047  10.198   1.644   3.865
  292POPC   GL1 4048  10.210   1.961   4.214
  292POPC   GL2 4049  10.483   2.170   4.255
  292POPC   C1A 4050  10.194   2.014   4.671
  292POPC   D2A 4051  10.346   1.874   5.057
  292POPC   C3A 4052  10.098   1.995   5.399
  292POPC   C4A 4053  10.162   2.170   5.768
  292POPC   C1B 4054  10.543   1.699   4.480
  292POPC   C2B 4055  10.749   1.627   4.883
  292POPC   C3B 4056  10.699   1.599   5.351
  292POPC   C4B 4057  10.411   1.714   5.719
  293POPC   NC3 4058   1.357   1.676   4.030
  293POPC   PO4 4059   1.485   2.229   3.746
  293POPC   GL1 4060   1.394   2.266   4.221
  293POPC   GL2 4061   1.058   2.116   4.226
  293POPC   C1A 4062   1.504   2.246   4.704
  293POPC   D2A 4063   1.678   2.238   5.163
  293POPC   C3A 4064   1.395   2.039   5.495
  293POPC   C4A 4065   1.315   2.052   5.948
  293POPC   C1B 4066   1.124   1.894   4.627
  293POPC   C2B 4067   1.096   2.053   5.044
  293POPC   C3B 4068   0.865   1.945   5.407
  293POPC   C4B 4069   1.017   1.692   5.748
  294POPC   NC3 4070   0.455  10.511   3.705
  294POPC   PO4 4071   0.665  10.055   4.049
  294POPC   GL1 4072   0.576  10.445   4.231
  294POPC   GL2 4073   0.246  10.521   4.208
  294POPC   C1A 4074   0.702  10.584   4.620
  294POPC   D2A 4075   0.725  10.272   4.939
  294POPC   C3A 4076   0.658  10.455   5.320
  294POPC   C4A 4077   0.655  10.352   5.745
  294POPC   C1B 4078   0.284  10.293   4.637
  294POPC   C2B 4079   0.151  10.410   5.067
  294POPC   C3B 4080   0.193  10.415   5.525
  294POPC   C4B 4081   0.204  10.282   5.974
  295POPC   NC3 4082   2.925   2.853   3.733
  295POPC   PO4 4083   2.392   2.483   3.857
  295POPC   GL1 4084   2.576   2.551   4.232
  295POPC   GL2 4085   2.666   2.839   4.322
  295POPC   C1A 4086   2.517   2.428   4.614
  295POPC   D2A 4087   2.564   2.645   4.955
  295POPC   C3A 4088   2.701   2.425   5.306
  295POPC   C4A 4089   2.699   2.576   5.727
  295POPC   C1B 4090   2.860   2.987   4.701
  295POPC   C2B 4091   2.946   2.877   5.153
  295POPC   C3B 4092   2.883   3.028   5.558
  295POPC   C4B 4093   3.013   2.956   5.980
  296POPC   NC3 4094   1.186  11.035   3.843
  296POPC   PO4 4095   0.899   0.135   3.965
  296POPC   GL1 4096   0.957  11.321   4.276
  296POPC   GL2 4097   1.070  10.969   4.350
  296POPC   C1A 4098   1.086  11.386   4.688
  296POPC   D2A 4099   1.355  11.372   5.051
  296POPC   C3A 4100   1.136  11.427   5.417
  296POPC   C4A 4101   0.926  11.254   5.782
  296POPC   C1B 4102   1.376  10.927   4.728
  296POPC   C2B 4103   1.466  10.884   5.200
  296POPC   C3B 4104   1.355  11.015   5.635
  296POPC   C4B 4105   1.410  10.817   6.069
  297POPC   NC3 4106   9.927   8.106   4.114
  297POPC   PO4 4107   9.319   7.872   3.890
  297POPC   GL1 4108   9.508   7.880   4.296
  297POPC   GL2 4109   9.456   8.247   4.288
  297POPC   C1A 4110   9.666   7.786   4.726
  297POPC   D2A 4111   9.845   7.599   5.140
  297POPC   C3A 4112   9.606   7.799   5.484
  297POPC   C4A 4113   9.686   8.178   5.686
  297POPC   C1B 4114   9.459   8.326   4.732
  297POPC   C2B 4115   9.469   8.178   5.167
  297POPC   C3B 4116   9.222   8.300   5.536
  297POPC   C4B 4117   9.079   8.203   5.961
  298POPC   NC3 4118   6.408  11.324   3.916
  298POPC   PO4 4119   6.479  10.727   3.925
  298POPC   GL1 4120   6.541  10.971   4.307
  298POPC   GL2 4121   6.539  11.332   4.395
  298POPC   C1A 4122   6.401  10.966   4.727
  298POPC   D2A 4123   6.590  11.068   5.104
  298POPC   C3A 4124   6.356  10.909   5.444
  298POPC   C4A 4125   6.528  10.909   5.871
  298POPC   C1B 4126   6.473  11.474   4.783
  298POPC   C2B 4127   6.506   0.059   5.166
  298POPC   C3B 4128   6.570  11.355   5.546
  298POPC   C4B 4129   6.425   0.114   5.877
  299POPC   NC3 4130  11.073   6.905   3.915
  299POPC   PO4 4131  10.922   6.218   3.747
  299POPC   GL1 4132  10.977   6.475   4.203
  299POPC   GL2 4133  11.213   6.688   4.326
  299POPC   C1A 4134  10.883   6.543   4.697
  299POPC   D2A 4135  10.735   6.394   5.129
  299POPC   C3A 4136  10.865   6.640   5.524
  299POPC   C4A 4137  10.969   6.475   5.966
  299POPC   C1B 4138  11.388   6.520   4.679
  299POPC   C2B 4139   0.015   6.478   5.078
  299POPC   C3B 4140  11.368   6.590   5.441
  299POPC   C4B 4141  11.367   6.776   5.830
  300POPC   NC3 4142  11.486   1.115   3.840
  300POPC   PO4 4143  10.831   0.952   3.899
  300POPC   GL1 4144  11.126   0.919   4.238
  300POPC   GL2 4145  11.391   1.170   4.318
  300POPC   C1A 4146  11.086   0.935   4.692
  300POPC   D2A 4147  11.009   1.237   5.047
  300POPC   C3A 4148  10.993   1.167   5.489
  300POPC   C4A 4149  11.078   0.910   5.854
  300POPC   C1B 4150  11.384   1.383   4.708
  300POPC   C2B 4151  11.421   1.553   5.127
  300POPC   C3B 4152  11.455   1.403   5.564
  300POPC   C4B 4153  11.311   1.328   6.017
  301POPC   NC3 4154  10.788   5.205   3.936
  301POPC   PO4 4155  10.259   4.809   3.781
  301POPC   GL1 4156  10.247   4.865   4.249
  301POPC   GL2 4157  10.422   5.169   4.396
  301POPC   C1A 4158  10.274   4.810   4.727
  301POPC   D2A 4159  10.147   4.713   5.158
  301POPC   C3A 4160  10.420   4.719   5.543
  301POPC   C4A 4161  10.225   4.880   5.944
  301POPC   C1B 4162  10.593   5.218   4.833
  301POPC   C2B 4163  10.560   5.131   5.249
  301POPC   C3B 4164  10.239   5.229   5.543
  301POPC   C4B 4165  10.271   5.390   5.946
  302POPC   NC3 4166   9.630   1.066   3.918
  302POPC   PO4 4167   9.437   1.668   3.907
  302POPC   GL1 4168   9.552   1.412   4.291
  302POPC   GL2 4169   9.451   1.045   4.387
  302POPC   C1A 4170   9.515   1.404   4.744
  302POPC   D2A 4171   9.727   1.239   5.094
  302POPC   C3A 4172   9.486   1.196   5.494
  302POPC   C4A 4173   9.485   1.334   5.937
  302POPC   C1B 4174   9.868   1.012   4.593
  302POPC   C2B 4175  10.095   0.866   4.961
  302POPC   C3B 4176  10.039   0.986   5.406
  302POPC   C4B 4177   9.799   0.952   5.822
  303POPC   NC3 4178   9.614  10.901   3.987
  303POPC   PO4 4179   9.851  10.228   3.899
  303POPC   GL1 4180   9.961  10.338   4.292
  303POPC   GL2 4181   9.771  10.636   4.399
  303POPC   C1A 4182  10.071  10.319   4.696
  303POPC   D2A 4183   9.884  10.553   5.026
  303POPC   C3A 4184  10.029  10.385   5.395
  303POPC   C4A 4185   9.991  10.531   5.799
  303POPC   C1B 4186   9.547  10.340   4.668
  303POPC   C2B 4187   9.413  10.324   5.107
  303POPC   C3B 4188   9.550  10.478   5.525
  303POPC   C4B 4189   9.517  10.395   5.975
  304POPC   NC3 4190   6.642   1.667   3.683
  304POPC   PO4 4191   6.338   1.157   3.880
  304POPC   GL1 4192   6.559   1.039   4.333
  304POPC   GL2 4193   6.890   0.799   4.338
  304POPC   C1A 4194   6.554   1.217   4.808
  304POPC   D2A 4195   6.707   1.473   5.197
  304POPC   C3A 4196   6.544   1.630   5.641
  304POPC   C4A 4197   6.705   1.636   6.091
  304POPC   C1B 4198   6.754   0.754   4.745
  304POPC   C2B 4199   6.792   0.901   5.179
  304POPC   C3B 4200   6.608   0.838   5.560
  304POPC   C4B 4201   6.470   1.156   5.825
  305POPC   NC3 4202  10.935   0.471   4.026
  305POPC   PO4 4203   0.051   0.678   4.054
  305POPC   GL1 4204  11.342   0.494   4.425
  305POPC   GL2 4205  10.976   0.457   4.528
  305POPC   C1A 4206  11.330   0.505   4.887
  305POPC   D2A 4207  11.348   0.876   5.124
  305POPC   C3A 4208  11.435   0.848   5.500
  305POPC   C4A 4209  11.436   0.564   5.787
  305POPC   C1B 4210  10.736   0.223   4.876
  305POPC   C2B 4211  10.822   0.164   5.259
  305POPC   C3B 4212  11.162   0.363   5.394
  305POPC   C4B 4213  10.951   0.425   5.734
  306POPC   NC3 4214   0.857   9.654   3.932
  306POPC   PO4 4215   0.318   9.236   3.908
  306POPC   GL1 4216   0.638   9.239   4.278
  306POPC   GL2 4217   0.823   9.555   4.432
  306POPC   C1A 4218   0.623   9.200   4.758
  306POPC   D2A 4219   0.473   9.441   5.118
  306POPC   C3A 4220   0.637   9.489   5.538
  306POPC   C4A 4221   0.390   9.519   5.913
  306POPC   C1B 4222   0.578   9.814   4.746
  306POPC   C2B 4223   0.388   9.957   5.164
  306POPC   C3B 4224   0.416   9.941   5.612
  306POPC   C4B 4225   0.670   9.922   6.007
  307POPC   NC3 4226  10.795   6.020   4.150
  307POPC   PO4 4227  10.186   5.800   3.895
  307POPC   GL1 4228  10.470   5.650   4.237
  307POPC   GL2 4229  10.300   5.875   4.415
  307POPC   C1A 4230  10.694   5.690   4.685
  307POPC   D2A 4231  10.841   5.826   5.094
  307POPC   C3A 4232  10.564   5.708   5.392
  307POPC   C4A 4233  10.552   5.856   5.806
  307POPC   C1B 4234  10.199   5.555   4.726
  307POPC   C2B 4235  10.105   5.589   5.176
  307POPC   C3B 4236  10.081   5.763   5.612
  307POPC   C4B 4237  10.098   6.124   5.957
  308POPC   NC3 4238  10.587  11.229   3.976
  308POPC   PO4 4239   9.915  11.491   3.784
  308POPC   GL1 4240  10.048  11.397   4.232
  308POPC   GL2 4241  10.331  11.262   4.387
  308POPC   C1A 4242  10.002  11.366   4.734
  308POPC   D2A 4243   9.988  11.500   5.197
  308POPC   C3A 4244  10.184  11.213   5.483
  308POPC   C4A 4245  10.044  11.067   5.892
  308POPC   C1B 4246  10.610  11.115   4.699
  308POPC   C2B 4247  10.539  11.238   5.098
  308POPC   C3B 4248  10.725  11.174   5.484
  308POPC   C4B 4249  10.541  11.292   5.839
  309POPC   NC3 4250   0.581   4.025   3.919
  309POPC   PO4 4251   0.175   4.527   4.052
  309POPC   GL1 4252   0.241   4.241   4.312
  309POPC   GL2 4253   0.569   4.285   4.345
  309POPC   C1A 4254   0.214   4.120   4.699
  309POPC   D2A 4255   0.166   4.356   5.047
  309POPC   C3A 4256   0.254   4.145   5.417
  309POPC   C4A 4257   0.216   4.362   5.791
  309POPC   C1B 4258   0.521   4.523   4.702
  309POPC   C2B 4259   0.658   4.292   5.057
  309POPC   C3B 4260   0.820   4.055   5.376
  309POPC   C4B 4261   0.663   4.113   5.786
  310POPC   NC3 4262   9.943   4.533   3.625
  310POPC   PO4 4263   9.383   4.356   3.949
  310POPC   GL1 4264   9.747   4.466   4.209
  310POPC   GL2 4265   9.778   4.169   4.406
  310POPC   C1A 4266   9.789   4.587   4.687
  310POPC   D2A 4267   9.792   4.310   5.093
  310POPC   C3A 4268   9.690   4.495   5.507
  310POPC   C4A 4269   9.705   4.739   5.933
  310POPC   C1B 4270   9.451   4.187   4.719
  310POPC   C2B 4271   9.240   4.248   5.134
  310POPC   C3B 4272   9.267   4.119   5.558
  310POPC   C4B 4273   9.379   4.347   5.897
  311POPC   NC3 4274   6.356  10.330   4.099
  311POPC   PO4 4275   6.969  10.214   3.900
  311POPC   GL1 4276   6.824  10.531   4.273
  311POPC   GL2 4277   6.497  10.496   4.536
  311POPC   C1A 4278   6.878  10.728   4.728
  311POPC   D2A 4279   6.652  10.569   5.126
  311POPC   C3A 4280   6.829  10.651   5.563
  311POPC   C4A 4281   6.762  10.422   5.994
  311POPC   C1B 4282   6.132  10.533   4.847
  311POPC   C2B 4283   6.064  10.496   5.305
  311POPC   C3B 4284   6.343  10.448   5.681
  311POPC   C4B 4285   6.268  10.372   6.126
  312POPC   NC3 4286   8.180   0.578   3.918
  312POPC   PO4 4287   7.842   0.010   3.844
  312POPC   GL1 4288   7.890   0.145   4.298
  312POPC   GL2 4289   8.214   0.307   4.339
  312POPC   C1A 4290   8.034   0.087   4.761
  312POPC   D2A 4291   8.341   0.060   5.108
  312POPC   C3A 4292   8.128   0.053   5.551
  312POPC   C4A 4293   7.946   0.301   5.855
  312POPC   C1B 4294   8.428   0.407   4.723
  312POPC   C2B 4295   8.199   0.549   5.019
  312POPC   C3B 4296   8.216   0.535   5.446
  312POPC   C4B 4297   8.126   0.805   5.772
  313POPC   NC3 4298   8.176   1.231   3.922
  313POPC   PO4 4299   8.448   0.793   4.224
  313POPC   GL1 4300   8.131   1.010   4.418
  313POPC   GL2 4301   8.152   1.376   4.402
  313POPC   C1A 4302   8.182   1.114   4.846
  313POPC   D2A 4303   8.194   0.994   5.252
  313POPC   C3A 4304   8.448   1.134   5.550
  313POPC   C4A 4305   8.266   1.483   5.709
  313POPC   C1B 4306   7.810   1.427   4.704
  313POPC   C2B 4307   7.671   1.250   5.094
  313POPC   C3B 4308   7.791   1.133   5.503
  313POPC   C4B 4309   7.862   1.219   5.923
  314POPC   NC3 4310   9.338   3.429   4.018
  314POPC   PO4 4311   8.617   3.136   4.026
  314POPC   GL1 4312   8.938   3.296   4.332
  314POPC   GL2 4313   8.940   3.637   4.400
  314POPC   C1A 4314   8.915   3.326   4.816
  314POPC   D2A 4315   8.975   3.242   5.271
  314POPC   C3A 4316   8.729   3.279   5.694
  314POPC   C4A 4317   8.806   3.523   6.078
  314POPC   C1B 4318   9.119   3.802   4.815
  314POPC   C2B 4319   9.039   3.757   5.260
  314POPC   C3B 4320   8.797   3.901   5.637
  314POPC   C4B 4321   8.966   4.026   6.030
  315POPC   NC3 4322   6.791  10.547   3.642
  315POPC   PO4 4323   7.446  10.604   3.699
  315POPC   GL1 4324   7.361  10.342   4.172
  315POPC   GL2 4325   7.292  10.570   4.474
  315POPC   C1A 4326   7.245  10.105   4.615
  315POPC   D2A 4327   7.137  10.362   5.004
  315POPC   C3A 4328   7.052  10.211   5.444
  315POPC   C4A 4329   7.234  10.396   5.831
  315POPC   C1B 4330   7.629  10.425   4.743
  315POPC   C2B 4331   7.633  10.298   5.128
  315POPC   C3B 4332   7.521  10.535   5.433
  315POPC   C4B 4333   7.738  10.476   5.784
  316POPC   NC3 4334   1.365   2.656   3.828
  316POPC   PO4 4335   0.814   2.972   3.926
  316POPC   GL1 4336   0.976   2.646   4.211
  316POPC   GL2 4337   1.288   2.786   4.315
  316POPC   C1A 4338   1.030   2.438   4.638
  316POPC   D2A 4339   1.233   2.563   5.044
  316POPC   C3A 4340   0.968   2.508   5.407
  316POPC   C4A 4341   0.908   2.296   5.793
  316POPC   C1B 4342   1.076   2.950   4.672
  316POPC   C2B 4343   1.117   3.078   5.113
  316POPC   C3B 4344   1.289   2.898   5.500
  316POPC   C4B 4345   1.370   2.506   5.711
  317POPC   NC3 4346   9.812   1.941   3.915
  317POPC   PO4 4347   9.227   2.360   3.867
  317POPC   GL1 4348   9.399   2.165   4.228
  317POPC   GL2 4349   9.277   1.857   4.343
  317POPC   C1A 4350   9.484   2.265   4.684
  317POPC   D2A 4351   9.413   2.013   5.060
  317POPC   C3A 4352   9.549   2.161   5.478
  317POPC   C4A 4353   9.457   2.271   5.930
  317POPC   C1B 4354   9.705   1.845   4.555
  317POPC   C2B 4355   9.846   1.749   4.975
  317POPC   C3B 4356   9.673   1.672   5.399
  317POPC   C4B 4357   9.732   1.833   5.825
  318POPC   NC3 4358   3.350   5.849   3.780
  318POPC   PO4 4359   3.591   5.348   3.804
  318POPC   GL1 4360   3.472   5.082   4.204
  318POPC   GL2 4361   3.147   4.887   4.244
  318POPC   C1A 4362   3.634   5.055   4.658
  318POPC   D2A 4363   3.739   5.217   5.097
  318POPC   C3A 4364   3.418   5.171   5.441
  318POPC   C4A 4365   3.412   4.904   5.820
  318POPC   C1B 4366   3.228   4.753   4.692
  318POPC   C2B 4367   3.490   4.762   5.096
  318POPC   C3B 4368   3.795   4.827   5.451
  318POPC   C4B 4369   3.874   4.635   5.857
  319W        W 4370  11.232  10.765   8.518
  320W        W 4371   8.599   4.374   3.141
  321W        W 4372   5.745   3.527   8.135
  322W        W 4373   6.759   6.823  11.799
  323W        W 4374   7.648   8.409   9.815
  324W        W 4375   2.184   9.605   8.683
  325W        W 4376   5.970   3.861   8.592
  326W        W 4377   0.941   5.088   2.224
  327W        W 4378   3.658   0.784   3.127
  328W        W 4379   9.277   0.746  11.240
  329W        W 4380   7.617   6.061   8.392
  330W        W 4381   8.699   5.495   8.647
  331W        W 4382  10.965   9.104   9.098
  332W        W 4383   9.785   9.394   9.116
  333W        W 4384  10.451   6.529   2.969
  334W        W 4385   7.782  10.872   2.246
  335W        W 4386  10.251   6.668  10.847
  336W        W 4387   7.489   1.366   0.141
  337W        W 4388   5.135   6.454   0.813
  338W        W 4389   0.740   4.367  11.637
  339W        W 4390   0.127   8.134  10.789
  340W        W 4391   8.017   2.307   2.933
  341W        W 4392   4.072  10.757  11.517
  342W        W 4393   3.165   7.627  10.000
  343W        W 4394   1.447   0.904   1.889
  344W        W 4395   9.695   6.589   9.998
  345W        W 4396   7.225   8.039   0.761
  346W        W 4397  11.004   5.441  10.565
  347W        W 4398   6.667   0.761   1.756
  348W        W 4399   3.276   7.036   1.769
  349W        W 4400   5.531   3.588   9.483
  350W        W 4401   1.853   9.486  11.773
  351W        W 4402   4.761   2.835   0.531
  352W        W 4403  10.028  11.355   3.146
  353W        W 4404   8.635   3.424   2.119
  354W        W 4405   1.521   7.585  10.014
  355W        W 4406   0.397   8.516  11.537
  356W        W 4407   1.025   6.926   8.260
  357W        W 4408   2.463   9.922   0.345
  358W        W 4409   6.402   3.610   8.758
  359W        W 4410   7.529   9.510   9.017
  360W        W 4411  10.643   5.092  11.965
  361W        W 4412   6.149   8.438  10.406
  362W        W 4413   1.090   1.391   9.793
  363W        W 4414   6.512   2.925  11.641
  364W        W 4415   2.297  10.849   1.395
  365W        W 4416   1.834   5.528   2.477
  366W        W 4417   9.427   8.856   3.005
  367W        W 4418   4.632  10.783   2.794
  368W        W 4419   5.204   5.460   1.813
  369W        W 4420   8.474   6.952   3.058
  370W        W 4421   7.622   6.566   9.487
  371W        W 4422   5.562   2.604   1.491
  372W        W 4423  11.159  10.538   2.915
  373W        W 4424   7.752   9.485   3.548
  374W        W 4425   5.574   6.651  10.533
  375W        W 4426   1.354   9.911   0.430
  376W        W 4427   9.845   4.721   0.740
  377W        W 4428   7.599   5.197  10.106
  378W        W 4429   2.232   3.696   2.325
  379W        W 4430   1.446   8.136   2.736
  380W        W 4431   3.754   3.737   1.268
  381W        W 4432   9.344   2.451   2.453
  382W        W 4433   5.145   3.228   1.341
  383W        W 4434   5.662   0.358  11.108
  384W        W 4435   5.397   6.066   9.835
  385W        W 4436   4.837   1.160   3.122
  386W        W 4437   9.413   4.623  11.947
  387W        W 4438   4.954  10.548  10.448
  388W        W 4439   8.640   9.882   2.584
  389W        W 4440  11.186   2.656   8.809
  390W        W 4441   2.672   5.918   1.836
  391W        W 4442   2.957   8.038   9.265
  392W        W 4443   2.719   1.974  11.772
  393W        W 4444   0.863   9.357   2.634
  394W        W 4445   5.384   4.447   3.928
  395W        W 4446   2.688   8.687   3.233
  396W        W 4447   1.698   7.905   3.531
  397W        W 4448   5.168   3.661   1.847
  398W        W 4449   6.930   7.552   1.324
  399W        W 4450   3.108   7.423   2.515
  400W        W 4451   3.783   0.472  10.686
  401W        W 4452  11.416   2.585  10.878
  402W        W 4453   5.370  10.836  10.587
  403W        W 4454   1.494   9.203   0.659
  404W        W 4455   8.693  10.523  11.723
  405W        W 4456   4.905   2.381   8.162
  406W        W 4457   3.130   6.609   1.479
  407W        W 4458   0.217   6.564  11.493
  408W        W 4459   3.312   4.760  11.051
  409W        W 4460  10.356   4.116   1.221
  410W        W 4461   3.577   5.544  11.289
  411W        W 4462   5.941  10.435  10.961
  412W        W 4463   7.604   5.084  11.924
  413W        W 4464   2.808   9.160   3.407
  414W        W 4465   6.479  10.146   3.619
  415W        W 4466   3.288   3.397   0.456
  416W        W 4467   8.209   9.054  11.262
  417W        W 4468   2.325   2.272   9.142
  418W        W 4469   9.006   5.397  11.559
  419W        W 4470   5.260   2.623  10.779
  420W        W 4471   9.994   6.635   2.760
  421W        W 4472   6.952   4.634  10.753
  422W        W 4473   4.285   6.999   0.728
  423W        W 4474  11.310   6.065  10.392
  424W        W 4475   1.287   6.460   0.173
  425W        W 4476   9.058   8.877   0.517
  426W        W 4477   6.441   4.039   9.150
  427W        W 4478   2.299   9.662  11.941
  428W        W 4479  10.991   7.455   1.427
  429W        W 4480  10.024  10.753  10.404
  430W        W 4481   3.936   0.154  11.112
  431W        W 4482   7.068   7.506   0.304
  432W        W 4483   7.837   0.867   2.615
  433W        W 4484   7.062   0.259  11.529
  434W        W 4485   8.617   2.236  11.875
  435W        W 4486   4.223   5.711   0.343
  436W        W 4487   4.259   3.754   1.386
  437W        W 4488   5.534   1.955   9.457
  438W        W 4489   8.442   7.132   1.654
  439W        W 4490   7.595   1.694   3.416
  440W        W 4491  10.018  10.813   1.314
  441W        W 4492   8.016   4.098   1.185
  442W        W 4493   5.628   9.627   9.438
  443W        W 4494   1.279   6.512   1.133
  444W        W 4495   9.454   7.924   2.862
  445W        W 4496   6.980  11.280   2.801
  446W        W 4497   5.435   4.139   2.233
  447W        W 4498   2.242   2.792   8.936
  448W        W 4499   0.946  10.891   9.855
  449W        W 4500   2.862   7.638   1.742
  450W        W 4501   4.272  11.125   3.462
  451W        W 4502   4.731   0.777  11.939
  452W        W 4503   7.663   3.648  10.453
  453W        W 4504  10.874   8.834   1.466
  454W        W 4505  10.419   0.567   1.403
  455W        W 4506   3.190   8.109   9.754
  456W        W 4507   3.146   1.648   2.477
  457W        W 4508   9.314   7.544  10.790
  458W        W 4509   2.964  11.211   2.221
  459W        W 4510   7.765   9.279  11.717
  460W        W 4511   9.543   2.586   0.456
  461W        W 4512   7.054   1.699   0.203
  462W        W 4513   4.142   8.739   8.956
  463W        W 4514   0.908   1.393   0.040
  464W        W 4515   7.180   8.882   3.159
  465W        W 4516   3.131   5.662   9.441
  466W        W 4517  10.015   7.100   0.485
  467W        W 4518   5.526   8.384   9.957
  468W        W 4519   0.651   0.952   0.274
  469W        W 4520   1.113   9.455   0.387
  470W        W 4521   7.091   4.312   0.875
  471W        W 4522   2.779  10.806   1.990
  472W        W 4523   4.332  10.779   0.032
  473W        W 4524   9.235  10.061  11.058
  474W        W 4525   3.197   6.463   8.901
  475W        W 4526   5.982   5.732  11.369
  476W        W 4527   5.922   6.040   9.805
  477W        W 4528   2.158   4.840   3.284
  478W        W 4529   9.572   1.062   9.611
  479W        W 4530  10.712   0.888  11.396
  480W        W 4531   4.713   0.637  11.046
  481W        W 4532   2.286   7.618   8.046
  482W        W 4533   2.458   4.837   8.330
  483W        W 4534   7.987   9.593   9.314
  484W        W 4535   3.756   2.558   8.698
  485W        W 4536   4.556   7.144  11.793
  486W        W 4537   3.824   9.022   8.590
  487W        W 4538   0.905   8.395   1.774
  488W        W 4539   9.453   6.512  10.432
  489W        W 4540   3.062   7.127   9.518
  490W        W 4541   5.071  10.721   9.964
  491W        W 4542   7.045   1.823  10.847
  492W        W 4543   5.106   2.315   3.213
  493W        W 4544   2.288   7.174   9.878
  494W        W 4545   3.062   1.747   3.744
  495W        W 4546   7.965   6.083   3.233
  496W        W 4547  11.471   3.433   2.736
  497W        W 4548   5.958   6.456   0.418
  498W        W 4549   4.082  11.286   2.155
  499W        W 4550   0.941   2.708   1.204
  500W        W 4551   5.508   2.726   3.274
  501W        W 4552   4.859   4.341   0.871
  502W        W 4553   9.721   3.353  10.688
  503W        W 4554   5.131   9.824   2.215
  504W        W 4555   6.117  10.814  10.015
  505W        W 4556   1.444   3.333   1.490
  506W        W 4557   7.236   0.847   9.298
  507W        W 4558   0.841   6.524   1.390
  508W        W 4559   9.871   8.464   0.658
  509W        W 4560   1.661   4.030   9.666
  510W        W 4561   4.488   5.307  11.224
  511W        W 4562  10.531  10.069   2.244
  512W        W 4563  11.411   4.711  11.877
  513W        W 4564   8.202   5.486   8.482
  514W        W 4565  10.863   9.344   1.569
  515W        W 4566   1.228   2.806   2.956
  516W        W 4567   7.430   6.546   8.519
  517W        W 4568   0.049   4.822   0.352
  518W        W 4569   2.745   8.562   0.347
  519W        W 4570   2.627   4.658   1.943
  520W        W 4571   4.654  10.232   0.927
  521W        W 4572   3.888   1.738   2.162
  522W        W 4573   7.592   2.400   2.675
  523W        W 4574   2.333   6.959  10.809
  524W        W 4575   6.337   9.537   9.702
  525W        W 4576   6.180   5.071  10.851
  526W        W 4577   3.160   8.638   9.878
  527W        W 4578   8.263   4.805   3.617
  528W        W 4579   8.869   8.552  11.251
  529W        W 4580   3.304   8.096   0.354
  530W        W 4581   7.453   2.658   1.837
  531W        W 4582   6.744   0.811   9.237
  532W        W 4583   9.742   7.552   1.318
  533W        W 4584   8.462   6.083   3.429
  534W        W 4585   0.906   5.597   9.573
  535W        W 4586   1.795  11.004  10.281
  536W        W 4587   4.950   0.082  10.319
  537W        W 4588   8.534   6.638   2.174
  538W        W 4589   1.299   7.471  10.886
  539W        W 4590   0.349   1.683   0.784
  540W        W 4591   5.666   2.811  11.018
  541W        W 4592   5.551   2.319   3.586
  542W        W 4593   6.661   8.760  11.221
  543W        W 4594   3.538   1.009   1.266
  544W        W 4595   7.404   1.316   0.913
  545W        W 4596   7.380   6.167   0.330
  546W        W 4597   0.930   8.549   8.457
  547W        W 4598  11.424   5.193   3.391
  548W        W 4599   9.085   6.040   8.254
  549W        W 4600   3.902  10.780  11.007
  550W        W 4601   0.842   7.875   1.959
  551W        W 4602  10.526   9.928   1.262
  552W        W 4603   5.583   7.165   1.678
  553W        W 4604   7.617  10.081   0.105
  554W        W 4605   2.640   7.563   0.270
  555W        W 4606   9.882   6.489   2.287
  556W        W 4607  10.958   6.484   9.624
  557W        W 4608  10.050   3.296   1.360
  558W        W 4609   1.504  11.344  11.995
  559W        W 4610   7.750   1.919   2.551
  560W        W 4611   9.434   7.032  10.737
  561W        W 4612   0.413   1.176   0.703
  562W        W 4613   5.662   7.945   2.795
  563W        W 4614   6.098  11.317   2.697
  564W        W 4615   1.188   6.565   0.649
  565W        W 4616  10.795  11.301   1.163
  566W        W 4617   4.602   7.106   9.847
  567W        W 4618  11.459   2.585   3.160
  568W        W 4619   5.552   4.164   8.684
  569W        W 4620   2.433   8.924   2.839
  570W        W 4621   2.496   8.157  11.834
  571W        W 4622   9.058  10.506  10.825
  572W        W 4623   1.008   1.886   0.009
  573W        W 4624   1.332   8.660   1.932
  574W        W 4625   6.487   7.188   3.093
  575W        W 4626   4.877   2.013   1.391
  576W        W 4627   9.886   9.770  10.354
  577W        W 4628   9.611   6.783   9.215
  578W        W 4629   1.131   5.670   0.492
  579W        W 4630   5.826  10.443   9.458
  580W        W 4631   7.999   0.582  11.434
  581W        W 4632   9.243   2.112   3.428
  582W        W 4633   6.412   5.730   2.222
  583W        W 4634   1.820   2.206   9.281
  584W        W 4635   9.429   3.230   3.509
  585W        W 4636   4.333   2.603  11.116
  586W        W 4637   5.694   8.677   9.578
  587W        W 4638  10.874   6.759  11.970
  588W        W 4639   8.202  10.969   0.756
  589W        W 4640   1.307   8.990  11.499
  590W        W 4641   2.165   1.822   2.668
  591W        W 4642   2.681   0.353   2.841
  592W        W 4643   3.240   3.728   0.050
  593W        W 4644   4.622   6.181   3.490
  594W        W 4645   9.408   4.360   9.880
  595W        W 4646   4.292   7.946  10.343
  596W        W 4647   0.818   8.947   1.346
  597W        W 4648   7.382   3.136   9.472
  598W        W 4649   5.122   9.498   9.441
  599W        W 4650   3.035   6.057  11.939
  600W        W 4651   0.500   8.575   2.002
  601W        W 4652   4.290   7.190   8.872
  602W        W 4653   9.900   1.962   1.684
  603W        W 4654   0.820   3.526   3.121
  604W        W 4655   2.742   9.333   9.903
  605W        W 4656   7.386   4.849  10.497
  606W        W 4657   4.812   6.594   1.211
  607W        W 4658   7.384   1.696  11.778
  608W        W 4659   9.415   3.170  11.502
  609W        W 4660   8.703   9.907   0.310
  610W        W 4661  10.307   9.459  10.023
  611W        W 4662   2.432   2.318  10.115
  612W        W 4663  10.768   9.531   8.823
  613W        W 4664   7.001   9.961   3.227
  614W        W 4665   3.501   5.107   3.347
  615W        W 4666   5.581   9.716   1.909
  616W        W 4667   5.562   2.444   9.227
  617W        W 4668   8.582  11.339   2.256
  618W        W 4669   6.293   7.046  10.472
  619W        W 4670   2.310   7.675  11.850
  620W        W 4671   1.402   2.835   1.940
  621W        W 4672   0.210   2.224   1.456
  622W        W 4673   4.113   6.356   8.617
  623W        W 4674   6.680   7.201  11.425
  624W        W 4675   0.231   5.356   1.488
  625W        W 4676   0.299   4.292   3.083
  626W        W 4677   3.789  10.228   0.176
  627W        W 4678   8.826   4.340   0.114
  628W        W 4679   1.376   1.005   2.779
  629W        W 4680   2.398   9.586  10.150
  630W        W 4681   7.848   9.313   0.734
  631W        W 4682  11.424   5.642  11.712
  632W        W 4683   5.688   8.500   1.372
  633W        W 4684   7.191  10.193   1.413
  634W        W 4685   2.798   9.563  11.536
  635W        W 4686   6.016   6.893   1.800
  636W        W 4687  10.984   7.431  11.371
  637W        W 4688   1.395   6.667   2.169
  638W        W 4689   3.595  10.390  10.472
  639W        W 4690   3.658   9.496   3.279
  640W        W 4691   0.715   6.740   9.047
  641W        W 4692   9.009   6.834   9.542
  642W        W 4693   8.681   6.662   1.662
  643W        W 4694  11.433   5.765   1.117
  644W        W 4695   3.614   1.830   2.646
  645W        W 4696  10.474   0.724   0.927
  646W        W 4697   1.815  10.175  11.281
  647W        W 4698   4.143   5.685  11.840
  648W        W 4699  11.284   7.450  11.782
  649W        W 4700   8.565   0.557  10.215
  650W        W 4701   6.240   9.750   0.364
  651W        W 4702   1.780   7.304   0.253
  652W        W 4703   4.077   0.449   1.417
  653W        W 4704   5.198   1.669  11.732
  654W        W 4705   8.115   7.117   9.954
  655W        W 4706   8.418   1.177  10.862
  656W        W 4707   5.096   4.460  11.211
  657W        W 4708   7.138   7.131   1.119
  658W        W 4709   0.795   1.854   2.363
  659W        W 4710   7.966   0.319   0.262
  660W        W 4711   5.178  10.024   3.126
  661W        W 4712   0.702   8.897  11.090
  662W        W 4713   5.179   1.832   3.124
  663W        W 4714   2.618   5.225   3.663
  664W        W 4715   5.740   3.149   2.139
  665W        W 4716   3.615   4.841   0.620
  666W        W 4717   8.931   3.762   0.736
  667W        W 4718   7.612   9.191   3.093
  668W        W 4719   7.453   8.172   2.065
  669W        W 4720   1.294  11.361  11.019
  670W        W 4721   0.998   3.051   9.678
  671W        W 4722   9.054   0.269  11.456
  672W        W 4723   5.808   5.781  11.865
  673W        W 4724   4.950  10.228  10.046
  674W        W 4725   3.574   7.017   9.611
  675W        W 4726   6.572  11.079  10.969
  676W        W 4727   9.609   5.516   9.465
  677W        W 4728   2.106   4.193  10.572
  678W        W 4729   7.449   4.220   1.926
  679W        W 4730   0.890   7.622   9.370
  680W        W 4731   2.467  10.359  10.076
  681W        W 4732   7.101  10.533   8.716
  682W        W 4733   7.177  11.125   0.382
  683W        W 4734   0.804   3.370  10.045
  684W        W 4735   4.705   6.176   0.806
  685W        W 4736   3.649   2.368  11.803
  686W        W 4737   2.200   6.249   2.974
  687W        W 4738   8.328   5.284   2.804
  688W        W 4739   8.819   3.781   9.109
  689W        W 4740  10.752   4.831   3.621
  690W        W 4741   5.850  10.549   0.179
  691W        W 4742   2.341  11.333   9.074
  692W        W 4743   5.697   1.791   1.004
  693W        W 4744   8.146   8.259   2.243
  694W        W 4745   2.297   1.727  11.923
  695W        W 4746   1.428   5.187   2.646
  696W        W 4747   5.489   2.657   0.956
  697W        W 4748   3.123   9.488   9.176
  698W        W 4749   2.992   4.139   0.226
  699W        W 4750   4.727   7.232   0.548
  700W        W 4751   9.914   0.732   3.363
  701W        W 4752  10.597   5.189   2.273
  702W        W 4753   8.081   4.604   9.461
  703W        W 4754   1.673   2.334   2.310
  704W        W 4755   9.276   3.261  10.928
  705W        W 4756   7.124   0.933  11.312
  706W        W 4757   9.590   8.990   0.883
  707W        W 4758   4.345   9.943  10.664
  708W        W 4759  10.658   3.217   0.675
  709W        W 4760   4.897   1.289   1.218
  710W        W 4761   1.255   9.768   9.831
  711W        W 4762   6.547   9.975   9.628
  712W        W 4763   2.180   8.656   1.647
  713W        W 4764   1.876   8.560  10.003
  714W        W 4765   9.316   9.448   2.220
  715W        W 4766   2.762   2.191   0.263
  716W        W 4767   3.132   3.178   1.793
  717W        W 4768  10.069   9.631   3.082
  718W        W 4769   0.231   0.585   0.117
  719W        W 4770   4.143   9.525  10.957
  720W        W 4771   5.082   9.399  11.084
  721W        W 4772   9.195   6.580  10.869
  722W        W 4773   8.133  10.063   9.073
  723W        W 4774   7.923   0.358  10.975
  724W        W 4775   8.092   1.445   1.872
  725W        W 4776   1.123   7.978  11.598
  726W        W 4777   7.172   3.663   1.238
  727W        W 4778   0.513   7.696   1.465
  728W        W 4779  10.334   0.225   1.016
  729W        W 4780   6.330   1.667   2.276
  730W        W 4781   2.579   5.577   3.306
  731W        W 4782   3.498   8.367  11.303
  732W        W 4783   0.666  10.442   1.349
  733W        W 4784   3.707   7.898  11.507
  734W        W 4785   5.199   3.061  11.582
  735W        W 4786   6.489   2.798   3.456
  736W        W 4787   0.719   0.690   3.240
  737W        W 4788   7.023   8.409   1.892
  738W        W 4789   5.602   7.792   9.880
  739W        W 4790   5.867  10.531   2.116
  740W        W 4791   0.495  11.027   0.664
  741W        W 4792   8.283   6.354  10.996
  742W        W 4793  11.457   7.636   9.635
  743W        W 4794   1.539   7.935  10.902
  744W        W 4795   2.201   1.256   1.007
  745W        W 4796   5.674   5.530   2.718
  746W        W 4797  10.008   8.165   1.074
  747W        W 4798   3.255  10.813   0.859
  748W        W 4799  10.846   8.685   8.809
  749W        W 4800   6.685   3.207   8.929
  750W        W 4801   2.741   4.212  11.205
  751W        W 4802  10.336   5.584   1.894
  752W        W 4803  11.432   4.545   1.688
  753W        W 4804   5.011   2.053   9.548
  754W        W 4805   8.556   7.210  11.171
  755W        W 4806  10.910   4.685   1.681
  756W        W 4807   4.804   2.675  10.974
  757W        W 4808   0.936   9.022   9.201
  758W        W 4809   7.136   4.262   9.996
  759W        W 4810   9.037  11.492   9.553
  760W        W 4811  11.444   5.684  10.745
  761W        W 4812   5.694   1.127   1.803
  762W        W 4813   0.693   0.321  10.957
  763W        W 4814  10.863   7.020   1.688
  764W        W 4815  10.142   4.485   9.895
  765W        W 4816   6.671   9.099  11.656
  766W        W 4817   2.061   6.853   3.644
  767W        W 4818   7.611   0.716   2.041
  768W        W 4819  10.024   5.689  10.644
  769W        W 4820   2.608   1.803   1.748
  770W        W 4821   4.196   1.744   3.085
  771W        W 4822   6.783   5.156   0.452
  772W        W 4823   1.953   0.684   0.198
  773W        W 4824   8.560   8.937   2.742
  774W        W 4825   5.070   6.692  10.328
  775W        W 4826   7.016   1.049   3.605
  776W        W 4827   9.670   4.912   3.853
  777W        W 4828   6.266   5.734   1.202
  778W        W 4829   0.841   5.072   1.710
  779W        W 4830   7.797   4.639  10.740
  780W        W 4831   0.040   8.586   9.467
  781W        W 4832   5.939  10.106  10.490
  782W        W 4833   4.807   5.669   2.088
  783W        W 4834  10.817   0.887   1.322
  784W        W 4835   6.677   2.601   9.362
  785W        W 4836   6.036   2.087   2.208
  786W        W 4837  10.296   0.225  10.712
  787W        W 4838  10.518   5.645  10.486
  788W        W 4839   9.306   7.606   3.415
  789W        W 4840   2.839   8.548   2.765
  790W        W 4841   1.195   9.636   1.754
  791W        W 4842   5.802  10.058   0.363
  792W        W 4843   6.593   3.184  11.169
  793W        W 4844   7.451   7.629   1.259
  794W        W 4845   5.578   1.806   3.445
  795W        W 4846   6.372  10.602  11.191
  796W        W 4847   7.422   7.710   2.301
  797W        W 4848   7.554   6.729  11.430
  798W        W 4849  10.545   6.581  10.375
  799W        W 4850   8.561   9.894   8.765
  800W        W 4851   9.124   8.973  11.146
  801W        W 4852  11.447   5.594   1.860
  802W        W 4853   0.875  10.076   0.369
  803W        W 4854   2.717   6.604  10.950
  804W        W 4855  10.346   5.108   3.146
  805W        W 4856   9.991   1.702  10.270
  806W        W 4857   6.432   3.783   9.598
  807W        W 4858   1.337   5.464   3.200
  808W        W 4859   0.060  11.350  10.672
  809W        W 4860   9.565   0.218   0.541
  810W        W 4861   5.076   0.465   0.786
  811W        W 4862   3.643   2.337   1.207
  812W        W 4863  10.011   0.254   0.277
  813W        W 4864   4.571   2.201   0.979
  814W        W 4865   2.541   8.333   0.792
  815W        W 4866   0.577   9.209   0.790
  816W        W 4867   5.918   7.822  11.975
  817W        W 4868   6.481   5.092   1.860
  818W        W 4869   4.774   8.320   1.535
  819W        W 4870   3.200   1.393   2.034
  820W        W 4871  10.424   0.606   9.400
  821W        W 4872   3.853   0.379   9.685
  822W        W 4873   6.323   7.226   9.510
  823W        W 4874   2.234   5.257   9.492
  824W        W 4875   5.454   0.798   9.861
  825W        W 4876   0.900   8.354   3.523
  826W        W 4877   5.636   9.927  11.831
  827W        W 4878   2.183   3.378   2.787
  828W        W 4879  11.379   7.024  10.521
  829W        W 4880   2.717   4.500   0.951
  830W        W 4881   1.441   9.906   9.375
  831W        W 4882   7.051   4.828   0.750
  832W        W 4883   1.824   8.149   1.383
  833W        W 4884   7.850   4.189   8.695
  834W        W 4885  10.933   2.093   2.241
  835W        W 4886  11.311   9.918   0.762
  836W        W 4887   1.131   0.536   2.913
  837W        W 4888   7.792  10.667   0.796
  838W        W 4889   0.725   8.890   2.801
  839W        W 4890  10.019   5.651   0.954
  840W        W 4891   8.078  10.755   1.230
  841W        W 4892   6.319   9.171   3.165
  842W        W 4893   1.518   6.247   9.883
  843W        W 4894   6.436   0.293  11.663
  844W        W 4895   0.960   8.409   9.860
  845W        W 4896   6.682   9.411   1.073
  846W        W 4897  10.837   2.168   1.739
  847W        W 4898   4.207  10.793   2.461
  848W        W 4899   2.658   3.682   2.043
  849W        W 4900   7.865   0.372   2.688
  850W        W 4901   6.526   8.109  11.352
  851W        W 4902   0.670   2.155   1.728
  852W        W 4903   0.789   0.806   0.754
  853W        W 4904   1.292   3.129  11.576
  854W        W 4905  11.348   4.024   3.512
  855W        W 4906   2.368   2.464   0.463
  856W        W 4907   8.371   7.497   2.309
  857W        W 4908   1.197   9.406   9.465
  858W        W 4909   4.269  11.278  11.372
  859W        W 4910   1.754   5.082   1.676
  860W        W 4911   3.820   9.271   0.434
  861W        W 4912   3.496  11.387  11.972
  862W        W 4913   7.503   5.006   0.939
  863W        W 4914   2.544   4.632  11.776
  864W        W 4915   7.738   1.424   0.562
  865W        W 4916   7.905   1.930   0.710
  866W        W 4917   0.929   2.702   8.441
  867W        W 4918   3.161   7.495   1.075
  868W        W 4919   2.709   4.095   1.259
  869W        W 4920   6.985   0.315   2.763
  870W        W 4921   2.533   8.055   8.180
  871W        W 4922   4.919   2.856   4.018
  872W        W 4923   4.289   3.363  11.482
  873W        W 4924   2.255   3.801   1.325
  874W        W 4925  11.147   7.724   0.739
  875W        W 4926   0.991   8.899   0.419
  876W        W 4927   8.461   1.788   3.233
  877W        W 4928   1.365  10.022  11.748
  878W        W 4929   9.933   8.968   9.372
  879W        W 4930   0.351   2.732   0.049
  880W        W 4931   9.838   7.435   8.538
  881W        W 4932   3.924   2.155   2.893
  882W        W 4933   6.953   5.847  10.356
  883W        W 4934   4.222   2.172   3.380
  884W        W 4935   4.316   0.843   2.202
  885W        W 4936   7.736  10.180   0.596
  886W        W 4937   0.489   6.274   1.663
  887W        W 4938   0.280   1.900  10.305
  888W        W 4939  11.407   4.666  10.558
  889W        W 4940   3.602   0.468   2.717
  890W        W 4941   5.701   1.325   0.767
  891W        W 4942   1.135  10.453   9.514
  892W        W 4943  10.863  10.427   9.269
  893W        W 4944   6.275  10.232   0.213
  894W        W 4945   4.529  11.153   9.199
  895W        W 4946   4.174   4.714   2.815
  896W        W 4947   6.638   9.489  10.481
  897W        W 4948  11.322   7.650   9.124
  898W        W 4949  10.308   9.563  10.547
  899W        W 4950   3.903   6.161  10.650
  900W        W 4951   4.108   4.144   9.296
  901W        W 4952   1.679   9.506   8.613
  902W        W 4953   1.330   8.675   1.068
  903W        W 4954   0.848   6.366   2.938
  904W        W 4955   3.606  11.434   9.547
  905W        W 4956   4.832   8.401   2.845
  906W        W 4957   8.335  10.227   2.772
  907W        W 4958   5.560  10.607   2.964
  908W        W 4959   7.579   8.449  10.352
  909W        W 4960   0.142   1.508  11.917
  910W        W 4961   5.984   3.157   0.092
  911W        W 4962   0.641   7.065   9.489
  912W        W 4963   3.402   8.869   1.957
  913W        W 4964  11.277   8.020   3.066
  914W        W 4965   1.704   7.345   2.926
  915W        W 4966   3.076   5.299   8.254
  916W        W 4967   8.148   2.810  11.292
  917W        W 4968   9.282   0.455   2.743
  918W        W 4969   8.634   1.077   2.615
  919W        W 4970   9.366   2.155   0.283
  920W        W 4971  10.956  10.576   0.777
  921W        W 4972   2.273   9.094   9.986
  922W        W 4973   6.634   1.998   1.465
  923W        W 4974   5.764   1.661   1.906
  924W        W 4975   4.286   0.726  11.369
  925W        W 4976   6.132   3.821   0.394
  926W        W 4977   4.745   6.277  10.315
  927W        W 4978   0.296   2.238  10.871
  928W        W 4979   8.018   7.989   1.356
  929W        W 4980   6.591  10.451  10.750
  930W        W 4981   2.125   4.293   0.512
  931W        W 4982   3.175   5.530  10.508
  932W        W 4983   4.488   8.843   9.331
  933W        W 4984  10.387   2.412  10.931
  934W        W 4985   9.704   4.125   1.857
  935W        W 4986   1.518   6.338   3.508
  936W        W 4987   5.132   1.995   3.620
  937W        W 4988   3.324  10.185   2.689
  938W        W 4989   8.556   3.356   3.075
  939W        W 4990   6.179   1.379   2.684
  940W        W 4991  11.013   3.646   1.422
  941W        W 4992   8.566   6.154   9.171
  942W        W 4993  11.120   8.091   3.548
  943W        W 4994   8.045  11.458   8.939
  944W        W 4995   5.940  10.413   2.630
  945W        W 4996   3.574   6.376   2.696
  946W        W 4997   3.664   3.715   3.049
  947W        W 4998   9.425  10.538  10.281
  948W        W 4999   0.426   7.013   2.544
  949W        W 5000   2.125   9.852   2.834
  950W        W 5001   9.767   3.272  11.866
  951W        W 5002   7.607   2.228  10.919
  952W        W 5003   9.019  11.074   0.405
  953W        W 5004   9.295   5.102   1.452
  954W        W 5005   6.733   8.929   9.208
  955W        W 5006   8.267   9.170  11.753
  956W        W 5007   5.724   3.769   1.626
  957W        W 5008   1.333   3.771   2.874
  958W        W 5009   5.232   8.030   9.667
  959W        W 5010   0.986   1.684   1.473
  960W        W 5011   0.295   9.513   1.480
  961W        W 5012  10.402   3.252   2.180
  962W        W 5013   2.626  10.920   8.952
  963W        W 5014   5.770   7.192  11.268
  964W        W 5015   1.371   0.456   3.404
  965W        W 5016   8.605   5.902  10.970
  966W        W 5017   5.166   4.636  11.749
  967W        W 5018   1.028   0.630   1.737
  968W        W 5019   5.579   7.549  10.954
  969W        W 5020   2.091   5.967  10.949
  970W        W 5021   9.457   5.169   3.430
  971W        W 5022   3.757   8.027   8.912
  972W        W 5023   4.146   7.665   9.043
  973W        W 5024   7.162   2.318   3.010
  974W        W 5025   8.740   4.951  10.779
  975W        W 5026   0.814   0.194   1.856
  976W        W 5027   4.365   1.323   1.365
  977W        W 5028   6.994   2.757   8.995
  978W        W 5029   7.653   3.844   3.271
  979W        W 5030   0.004   4.265   0.136
  980W        W 5031   2.674   8.519   1.696
  981W        W 5032  10.882  10.367   0.316
  982W        W 5033   3.138   2.910   9.161
  983W        W 5034   1.413   2.771  10.994
  984W        W 5035   3.273   9.863   8.848
  985W        W 5036   5.048   5.871  11.365
  986W        W 5037   5.093   9.595   8.100
  987W        W 5038  10.944   8.109   2.676
  988W        W 5039   6.472   9.117   1.857
  989W        W 5040   5.663  10.134   8.485
  990W        W 5041   7.048   8.402   9.053
  991W        W 5042   6.004   5.526   9.666
  992W        W 5043   8.880   5.515  10.578
  993W        W 5044   7.456   3.600   0.773
  994W        W 5045   6.303   2.641   2.854
  995W        W 5046   8.094   5.527   0.688
  996W        W 5047   1.431   6.261   9.001
  997W        W 5048   6.680   0.062  10.847
  998W        W 5049   8.085   6.434   0.288
  999W        W 5050  10.566   4.493   9.619
 1000W        W 5051   9.594   3.563   2.649
 1001W        W 5052   4.165   2.825  10.041
 1002W        W 5053   0.349   4.546   9.805
 1003W        W 5054  10.000   9.079  11.528
 1004W        W 5055   2.625   6.591   2.927
 1005W        W 5056   3.317  10.448   3.173
 1006W        W 5057   9.926   1.684   3.450
 1007W        W 5058   9.432   5.556  11.757
 1008W        W 5059   7.984   9.962   3.277
 1009W        W 5060   1.237   4.549   9.859
 1010W        W 5061   9.031   9.375  11.479
 1011W        W 5062   3.599   0.412   0.037
 1012W        W 5063   3.055   3.090   8.399
 1013W        W 5064   0.241   9.123   0.063
 1014W        W 5065   8.166   8.957   0.578
 1015W        W 5066   9.718   6.691   0.501
 1016W        W 5067   9.320   9.378   9.931
 1017W        W 5068   5.238   1.938   0.718
 1018W        W 5069   3.151   2.386   2.151
 1019W        W 5070   9.319   5.911   1.939
 1020W        W 5071   0.936   1.534  11.096
 1021W        W 5072   2.880   1.628  10.497
 1022W        W 5073   3.782   0.275   9.184
 1023W        W 5074   0.397   6.458   3.283
 1024W        W 5075   1.854   3.621   9.404
 1025W        W 5076   9.868   9.975   3.430
 1026W        W 5077   5.952   0.503   9.289
 1027W        W 5078  11.371   7.028   1.696
 1028W        W 5079   7.660   2.610  11.940
 1029W        W 5080   8.421   0.260   0.480
 1030W        W 5081   5.764  10.891   9.201
 1031W        W 5082   8.434   8.104   9.097
 1032W        W 5083   0.286   5.173   3.008
 1033W        W 5084   4.809   8.876   0.901
 1034W        W 5085   0.526   3.994  11.885
 1035W        W 5086   0.395   6.273   9.747
 1036W        W 5087   8.742   1.462  11.770
 1037W        W 5088  11.234  11.156  10.290
 1038W        W 5089   2.608   8.132   2.082
 1039W        W 5090   3.630   8.414   9.731
 1040W        W 5091   7.861   6.973   2.583
 1041W        W 5092   9.571   2.381  11.108
 1042W        W 5093   6.920   0.817   1.293
 1043W        W 5094   6.272   6.402   8.565
 1044W        W 5095   2.186   8.321  10.711
 1045W        W 5096   0.930   1.357   9.114
 1046W        W 5097   2.073   6.836   9.530
 1047W        W 5098   9.760  10.280   8.984
 1048W        W 5099  11.069   7.722  10.495
 1049W        W 5100   1.187   1.974   0.703
 1050W        W 5101   8.598   9.942   1.148
 1051W        W 5102   6.059   8.175   3.047
 1052W        W 5103  11.041   9.840   0.343
 1053W        W 5104   4.800   9.808   2.616
 1054W        W 5105   6.134   1.385   1.152
 1055W        W 5106   1.766  11.243  11.100
 1056W        W 5107   9.421   6.648   0.093
 1057W        W 5108   8.274   0.238   2.990
 1058W        W 5109   2.444   0.709   0.311
 1059W        W 5110   2.578   6.114  11.034
 1060W        W 5111   3.775   0.070   0.379
 1061W        W 5112   8.007   8.965   1.579
 1062W        W 5113   6.644   8.897   0.349
 1063W        W 5114   0.899   3.417  11.426
 1064W        W 5115   0.854   6.785  10.904
 1065W        W 5116   8.187   6.679   1.759
 1066W        W 5117   2.433   4.840   1.187
 1067W        W 5118   9.403   2.428  10.644
 1068W        W 5119   5.094   2.643   1.296
 1069W        W 5120   0.890   3.649  10.891
 1070W        W 5121   7.560   7.222   0.315
 1071W        W 5122  10.142   7.920   0.667
 1072W        W 5123   6.710   9.321   9.993
 1073W        W 5124   9.862  10.136   1.809
 1074W        W 5125   2.199   4.668   0.161
 1075W        W 5126   2.221   7.945   2.385
 1076W        W 5127  11.175   6.482  11.259
 1077W        W 5128  10.922   9.996  10.057
 1078W        W 5129   1.599   2.366   1.448
 1079W        W 5130   6.514   1.707   1.005
 1080W        W 5131   1.928   1.339   9.407
 1081W        W 5132  11.396   7.271   0.807
 1082W        W 5133   9.861  10.833   9.923
 1083W        W 5134   1.175   9.576   0.873
 1084W        W 5135   0.737   2.340  11.307
 1085W        W 5136   9.510  10.361   0.034
 1086W        W 5137   9.331   7.629   1.014
 1087W        W 5138  10.879   7.198   3.059
 1088W        W 5139   6.590   1.490   1.477
 1089W        W 5140   5.526   6.694   1.817
 1090W        W 5141   9.412   1.902  11.057
 1091W        W 5142   9.296   1.429  11.832
 1092W        W 5143   4.711   7.755   2.944
 1093W        W 5144   6.547   3.730  10.906
 1094W        W 5145   5.175   8.015   3.004
 1095W        W 5146   9.521   8.879  10.797
 1096W        W 5147   9.491   1.632   1.511
 1097W        W 5148   2.930   9.514   2.171
 1098W        W 5149  11.298   5.115   2.877
 1099W        W 5150   7.615   9.322  10.498
 1100W        W 5151   2.874   0.936  11.425
 1101W        W 5152   2.197   4.388   9.824
 1102W        W 5153   3.772   7.976  11.010
 1103W        W 5154   5.154   6.658  10.846
 1104W        W 5155   9.742   7.013   0.933
 1105W        W 5156   0.190   2.824   8.983
 1106W        W 5157   3.745  10.362   2.901
 1107W        W 5158   3.206  11.367  10.626
 1108W        W 5159  11.007  10.858   2.533
 1109W        W 5160  10.847   6.353   2.739
 1110W        W 5161  11.135  11.116  11.529
 1111W        W 5162   0.380   6.020  10.758
 1112W        W 5163   8.183   2.785   1.241
 1113W        W 5164   7.501   2.659   9.045
 1114W        W 5165   7.098   7.007   2.072
 1115W        W 5166   0.344   9.053   3.099
 1116W        W 5167   9.856   1.815   1.180
 1117W        W 5168   2.907   5.494   0.715
 1118W        W 5169   7.943   8.363  11.329
 1119W        W 5170   7.933   0.646   3.114
 1120W        W 5171   9.009   8.692   2.757
 1121W        W 5172   2.079   0.890   0.659
 1122W        W 5173   8.016   3.854  10.098
 1123W        W 5174   9.372   7.417   9.844
 1124W        W 5175   0.841   0.487   8.854
 1125W        W 5176   4.762   4.355   2.936
 1126W        W 5177   7.035   5.028  11.328
 1127W        W 5178  11.008   4.063   0.613
 1128W        W 5179   4.409   1.285   2.756
 1129W        W 5180   2.487   4.212  10.206
 1130W        W 5181   6.425   2.783   1.666
 1131W        W 5182   3.330   0.453   9.441
 1132W        W 5183   7.031   2.979   9.842
 1133W        W 5184   5.176   4.032   8.372
 1134W        W 5185   0.054   2.881  11.265
 1135W        W 5186   6.837  10.743   0.584
 1136W        W 5187   2.693  10.809   9.921
 1137W        W 5188   4.560   2.210  11.954
 1138W        W 5189   7.092   6.517  11.425
 1139W        W 5190  10.269   4.042  10.423
 1140W        W 5191   7.880   5.019   1.465
 1141W        W 5192   6.325   3.300   3.272
 1142W        W 5193   4.290   4.220   2.654
 1143W        W 5194  11.357   7.502   3.176
 1144W        W 5195   1.240   6.673   9.762
 1145W        W 5196   9.463   4.048   2.826
 1146W        W 5197   4.733   4.100   8.638
 1147W        W 5198  10.029   8.605   1.939
 1148W        W 5199   0.895   7.712  10.664
 1149W        W 5200   8.981   5.628   0.968
 1150W        W 5201   0.930   0.230  10.215
 1151W        W 5202   1.218  10.194   2.753
 1152W        W 5203  10.110   3.052  10.551
 1153W        W 5204  11.019   1.175   0.558
 1154W        W 5205   4.593   2.254   2.389
 1155W        W 5206   7.344   1.483   9.082
 1156W        W 5207   3.817   0.392  10.196
 1157W        W 5208   2.472   1.790   8.815
 1158W        W 5209   6.703  10.902   8.737
 1159W        W 5210   3.825   4.616  11.362
 1160W        W 5211   6.203   2.971  10.316
 1161W        W 5212   3.042   5.536   8.825
 1162W        W 5213   0.271   3.152  10.839
 1163W        W 5214   2.442   4.628  11.272
 1164W        W 5215   0.114   1.801   8.883
 1165W        W 5216   4.218   5.053   9.555
 1166W        W 5217  10.041   1.804   2.686
 1167W        W 5218   9.072   4.285   2.580
 1168W        W 5219  11.263   3.116  10.876
 1169W        W 5220   8.362   1.749   0.868
 1170W        W 5221   1.272   8.455  11.540
 1171W        W 5222   6.927   6.208   9.166
 1172W        W 5223  11.390   3.191   1.347
 1173W        W 5224  10.687   1.818   3.916
 1174W        W 5225   1.169  10.285  10.428
 1175W        W 5226   9.090   9.021   1.983
 1176W        W 5227   8.991   1.891  11.938
 1177W        W 5228   4.290   9.943   2.779
 1178W        W 5229   8.953   6.922   1.203
 1179W        W 5230   6.868   3.095   9.386
 1180W        W 5231   6.223   8.518  11.278
 1181W        W 5232   9.430   3.605   3.124
 1182W        W 5233   8.560   2.052   1.281
 1183W        W 5234   8.514   8.018   2.729
 1184W        W 5235   9.850   9.297  10.643
 1185W        W 5236   7.479   2.775   2.332
 1186W        W 5237   8.956   7.129  10.859
 1187W        W 5238  10.814   9.794   1.892
 1188W        W 5239   4.707   9.478   8.492
 1189W        W 5240   8.161   1.795   2.264
 1190W        W 5241   8.014   6.436  11.441
 1191W        W 5242   7.585   5.309  10.611
 1192W        W 5243   7.035   9.059   0.004
 1193W        W 5244   7.119  10.989   9.044
 1194W        W 5245   8.866   4.561   8.651
 1195W        W 5246   4.165   2.582   3.022
 1196W        W 5247   5.674   3.850   0.721
 1197W        W 5248   1.252   6.538  11.271
 1198W        W 5249   8.521   9.015   3.235
 1199W        W 5250   4.157   0.452   8.851
 1200W        W 5251   8.717  10.920   0.970
 1201W        W 5252   6.553   8.443   9.704
 1202W        W 5253   2.322   8.648  10.337
 1203W        W 5254   0.494   1.140  11.819
 1204W        W 5255   0.427   4.397   1.708
 1205W        W 5256   0.429   0.474   2.067
 1206W        W 5257  11.289  10.781   0.406
 1207W        W 5258  10.531   4.812  10.018
 1208W        W 5259   1.834   1.747  10.110
 1209W        W 5260   6.470   4.749   0.387
 1210W        W 5261   1.210   4.981   3.234
 1211W        W 5262  10.328   6.285  11.238
 1212W        W 5263   6.139   9.642  10.562
 1213W        W 5264  10.958   7.846   1.762
 1214W        W 5265   3.296   8.334   8.930
 1215W        W 5266   2.283   6.181   9.313
 1216W        W 5267   9.847   5.493   8.688
 1217W        W 5268  10.415   2.131   9.599
 1218W        W 5269   1.841   0.257   2.732
 1219W        W 5270   3.378   1.283   8.788
 1220W        W 5271   7.193   7.295  10.083
 1221W        W 5272   8.601  10.786   0.484
 1222W        W 5273   6.411   8.003   9.017
 1223W        W 5274   6.605   5.427   0.063
 1224W        W 5275   7.464   1.540   2.385
 1225W        W 5276   6.747   9.511   3.219
 1226W        W 5277   3.443   8.629  11.765
 1227W        W 5278   5.894   2.949   0.845
 1228W        W 5279  10.884   5.559  10.068
 1229W        W 5280   2.413   1.778  11.405
 1230W        W 5281   7.212  10.628   0.225
 1231W        W 5282   0.022  10.883   0.882
 1232W        W 5283   3.282   7.467   2.040
 1233W        W 5284   8.908   7.574  11.101
 1234W        W 5285   6.239  10.041  10.927
 1235W        W 5286   3.731  10.931  10.010
 1236W        W 5287  10.082   9.096   1.820
 1237W        W 5288   3.807   7.026   0.514
 1238W        W 5289   9.416   7.155   1.856
 1239W        W 5290   3.611   9.353   9.279
 1240W        W 5291   3.844   9.861   1.209
 1241W        W 5292   1.334   5.320   9.462
 1242W        W 5293  11.335   8.568   8.986
 1243W        W 5294   8.267   6.356   8.797
 1244W        W 5295   6.895  11.422   3.290
 1245W        W 5296   2.385   1.335   9.140
 1246W        W 5297   6.354   9.176  11.271
 1247W        W 5298   3.122   1.846   9.525
 1248W        W 5299   6.566   2.468  11.907
 1249W        W 5300   3.754   9.821   2.038
 1250W        W 5301   6.171  11.061  11.292
 1251W        W 5302   7.163   7.036   0.579
 1252W        W 5303   2.313   9.950   1.777
 1253W        W 5304   8.500   9.410  11.064
 1254W        W 5305   5.521   5.645   9.563
 1255W        W 5306   7.653   7.993  10.134
 1256W        W 5307   1.147   0.323  11.211
 1257W        W 5308   1.312   8.129   1.930
 1258W        W 5309   7.548  10.864  11.449
 1259W        W 5310   1.690   4.548   9.576
 1260W        W 5311   8.832   1.628   2.854
 1261W        W 5312   5.149   8.637   0.305
 1262W        W 5313   5.627  10.004   1.465
 1263W        W 5314   9.854  10.267  10.341
 1264W        W 5315   9.028   3.686   8.659
 1265W        W 5316   5.655   8.667   0.458
 1266W        W 5317   2.023  11.302  11.927
 1267W        W 5318   7.441   4.001  11.936
 1268W        W 5319   4.582   6.740   2.915
 1269W        W 5320   5.332   5.058   2.587
 1270W        W 5321   9.505   3.042   2.477
 1271W        W 5322   9.155   1.233  10.041
 1272W        W 5323   0.638   0.548  10.504
 1273W        W 5324   4.536  10.374   8.537
 1274W        W 5325   1.234   3.548   9.855
 1275W        W 5326   0.741   0.062  11.406
 1276W        W 5327   0.643   7.155   1.284
 1277W        W 5328  10.444  10.823  11.015
 1278W        W 5329   1.924   5.051   2.640
 1279W        W 5330   1.465   9.749   1.287
 1280W        W 5331   3.661   2.338   0.697
 1281W        W 5332   6.718   6.864   2.369
 1282W        W 5333   8.451   7.095   0.329
 1283W        W 5334   5.264   3.295   2.243
 1284W        W 5335   0.218   2.299   9.121
 1285W        W 5336   1.750   6.874   2.732
 1286W        W 5337   5.276   0.158   0.400
 1287W        W 5338   0.099  10.294   2.346
 1288W        W 5339   6.741  10.006  11.002
 1289W        W 5340   6.015   8.494  11.793
 1290W        W 5341   8.041   7.246  11.123
 1291W        W 5342   9.822   9.414   0.681
 1292W        W 5343   2.401  11.333   0.281
 1293W        W 5344   2.353   9.430   0.401
 1294W        W 5345   8.534   5.600   3.568
 1295W        W 5346   4.241   3.556   0.922
 1296W        W 5347   6.973   2.359  10.995
 1297W        W 5348   8.428   3.273   9.513
 1298W        W 5349   9.191  10.105   0.399
 1299W        W 5350  10.175   8.600  11.581
 1300W        W 5351  11.391   8.633   9.941
 1301W        W 5352   6.521   0.637   0.059
 1302W        W 5353   6.134  11.005   3.395
 1303W        W 5354   0.151   7.194   9.820
 1304W        W 5355   2.905   7.529   2.985
 1305W        W 5356   0.409   9.016   1.732
 1306W        W 5357  10.524   8.482  11.946
 1307W        W 5358   7.206   5.661   1.080
 1308W        W 5359   3.381   5.286   9.160
 1309W        W 5360   9.901   8.132   2.815
 1310W        W 5361   2.908   5.477   1.745
 1311W        W 5362   2.413   3.289   1.174
 1312W        W 5363   3.883   1.283   8.624
 1313W        W 5364   8.697   6.667  10.835
 1314W        W 5365  10.428   1.501  10.456
 1315W        W 5366   7.144   6.506   3.152
 1316W        W 5367  11.473   6.133   0.007
 1317W        W 5368   0.161   1.078   0.255
 1318W        W 5369  11.453   3.385  10.453
 1319W        W 5370   8.870   3.200   8.571
 1320W        W 5371   0.075   6.095   1.922
 1321W        W 5372   5.983   4.087   9.462
 1322W        W 5373   9.901   3.720   0.667
 1323W        W 5374   4.659   8.531   0.462
 1324W        W 5375  10.825   3.474   2.385
 1325W        W 5376   0.490  10.002   2.208
 1326W        W 5377   5.049  11.455   0.841
 1327W        W 5378   7.275   6.198  10.615
 1328W        W 5379   3.778  11.138  11.422
 1329W        W 5380   2.660   9.292  11.950
 1330W        W 5381  10.624   7.859   0.523
 1331W        W 5382   1.711   4.872  11.046
 1332W        W 5383   6.890  11.380   9.486
 1333W        W 5384   1.877   8.830   0.275
 1334W        W 5385   8.559   2.338   2.370
 1335W        W 5386   3.676   2.854   0.724
 1336W        W 5387  10.677  11.420   0.679
 1337W        W 5388   2.874   4.194   2.645
 1338W        W 5389   3.134   0.326   1.510
 1339W        W 5390   0.269   5.531   9.810
 1340W        W 5391   6.299  10.448  10.317
 1341W        W 5392   4.918   0.657   1.669
 1342W        W 5393   0.246   3.132   0.392
 1343W        W 5394   2.963   0.133  10.175
 1344W        W 5395   0.487   3.095  11.424
 1345W        W 5396   1.985   8.117  11.886
 1346W        W 5397   4.637   7.604  11.568
 1347W        W 5398   7.331   0.537   8.913
 1348W        W 5399   6.586   7.883   2.328
 1349W        W 5400   7.548   2.288   0.775
 1350W        W 5401   3.744   5.181   0.247
 1351W        W 5402   3.715   4.494   1.906
 1352W        W 5403   8.150   4.648   8.676
 1353W        W 5404   7.855   8.463  11.932
 1354W        W 5405   5.511   8.962   8.640
 1355W        W 5406   0.911   9.242   3.137
 1356W        W 5407   2.806   2.113  10.373
 1357W        W 5408   0.515   1.310   2.619
 1358W        W 5409   5.345  11.357   1.774
 1359W        W 5410  10.282   9.471  11.341
 1360W        W 5411  10.741  10.409   1.299
 1361W        W 5412   2.785   2.399   0.784
 1362W        W 5413   8.034   6.002   4.122
 1363W        W 5414   2.311  10.889  11.801
 1364W        W 5415   6.958   1.519   0.720
 1365W        W 5416   0.046   9.981   8.846
 1366W        W 5417   0.496   3.062   9.769
 1367W        W 5418  10.638   3.927   0.275
 1368W        W 5419   2.814   3.772   9.462
 1369W        W 5420   4.588   9.497  10.691
 1370W        W 5421   5.653   1.716   2.930
 1371W        W 5422   3.399   1.421   2.864
 1372W        W 5423   5.221   9.388   8.569
 1373W        W 5424   0.215   0.333  10.766
 1374W        W 5425  10.888  10.128  11.308
 1375W        W 5426   4.616  10.061   2.208
 1376W        W 5427   4.949   0.778   9.769
 1377W        W 5428   4.039   4.639   3.530
 1378W        W 5429  10.543   7.227  11.541
 1379W        W 5430   6.781   3.645   9.202
 1380W        W 5431   4.531   4.464   9.544
 1381W        W 5432   3.834   0.414  11.580
 1382W        W 5433  10.880   4.178   1.126
 1383W        W 5434   5.211   9.920   3.628
 1384W        W 5435   4.354   1.422   9.959
 1385W        W 5436   7.481   0.795   3.405
 1386W        W 5437   9.033   0.777   2.435
 1387W        W 5438   8.547   7.593   9.261
 1388W        W 5439   3.689   2.643   9.272
 1389W        W 5440   8.554   7.516   2.813
 1390W        W 5441   9.036   4.615   1.302
 1391W        W 5442   8.592   2.577   0.532
 1392W        W 5443   6.116   3.287   1.156
 1393W        W 5444   2.712   7.989   2.606
 1394W        W 5445   3.219  10.310   0.099
 1395W        W 5446  10.617   9.836  10.907
 1396W        W 5447   7.594   4.372   1.457
 1397W        W 5448   2.393   7.856  10.710
 1398W        W 5449   8.643   6.357  11.731
 1399W        W 5450   8.965   9.626  11.027
 1400W        W 5451   5.768   0.379   0.509
 1401W        W 5452   6.069   8.105   8.610
 1402W        W 5453   6.042   7.310   4.000
 1403W        W 5454   4.080  10.956   9.058
 1404W        W 5455   0.870   3.927  11.328
 1405W        W 5456   4.332   8.821   0.743
 1406W        W 5457   2.795   2.480  11.844
 1407W        W 5458   7.777   6.650   9.986
 1408W        W 5459   9.598   2.873   9.459
 1409W        W 5460  10.087   8.994   9.858
 1410W        W 5461   3.677   0.791   8.970
 1411W        W 5462   4.754   9.089  11.458
 1412W        W 5463   8.783  10.863   2.379
 1413W        W 5464   3.887   5.273  10.575
 1414W        W 5465   6.682   3.754   0.241
 1415W        W 5466   8.030   9.619   9.870
 1416W        W 5467   9.099   5.734   2.791
 1417W        W 5468   7.662   4.155  11.039
 1418W        W 5469  10.714   9.792  11.777
 1419W        W 5470   3.144   9.082  10.147
 1420W        W 5471   5.822   5.210  11.618
 1421W        W 5472   3.387   6.069  10.684
 1422W        W 5473   6.510   6.668   1.685
 1423W        W 5474   9.546   6.153  10.810
 1424W        W 5475   6.935  10.870  10.662
 1425W        W 5476   8.148   8.990   1.084
 1426W        W 5477   3.318   8.068  10.235
 1427W        W 5478   4.244   2.322  10.442
 1428W        W 5479  10.807   2.771   9.173
 1429W        W 5480   0.490  10.950   1.171
 1430W        W 5481   0.975  11.374   1.414
 1431W        W 5482   8.907   7.333   9.536
 1432W        W 5483   2.171   3.407   1.886
 1433W        W 5484   9.175   7.082  11.943
 1434W        W 5485   2.919   7.868  11.924
 1435W        W 5486   2.415   0.550   1.984
 1436W        W 5487   1.199   9.670   2.894
 1437W        W 5488   8.830   0.742  11.473
 1438W        W 5489   2.933   3.020   3.123
 1439W        W 5490   4.275   2.808   0.357
 1440W        W 5491   4.644   4.259   9.105
 1441W        W 5492   4.716   2.964   1.441
 1442W        W 5493   5.213   5.609  10.955
 1443W        W 5494   5.740  11.089   3.042
 1444W        W 5495  11.058   6.065   9.912
 1445W        W 5496   1.277   4.810   9.411
 1446W        W 5497   2.324   4.345   8.441
 1447W        W 5498   2.395   2.689  11.577
 1448W        W 5499   5.796   7.121  10.412
 1449W        W 5500   1.267   1.104  11.127
 1450W        W 5501   8.715   4.263   9.193
 1451W        W 5502   7.391   5.201   1.839
 1452W        W 5503   5.134   1.702  11.249
 1453W        W 5504   6.608   6.130  10.033
 1454W        W 5505   6.591   4.501   2.524
 1455W        W 5506   1.185   5.664   1.321
 1456W        W 5507  10.303   0.642   0.099
 1457W        W 5508   3.057   8.833   2.360
 1458W        W 5509   3.419  10.759  10.866
 1459W        W 5510   8.122   4.099   3.138
 1460W        W 5511   3.163   3.522   2.738
 1461W        W 5512   4.710  10.936   9.685
 1462W        W 5513   9.877   0.275  10.339
 1463W        W 5514   5.688   3.396   8.951
 1464W        W 5515   9.086   4.595  10.955
 1465W        W 5516  10.649   1.776   0.879
 1466W        W 5517   5.235   3.731   1.362
 1467W        W 5518   9.101   4.167   8.882
 1468W        W 5519   9.739   5.288   1.226
 1469W        W 5520   9.932   8.142   0.274
 1470W        W 5521  10.365  10.960   3.188
 1471W        W 5522  10.087   2.321   2.857
 1472W        W 5523   1.278   2.361   1.053
 1473W        W 5524   7.089   0.307   1.321
 1474W        W 5525   2.170   2.078  10.996
 1475W        W 5526   7.379   7.208   2.461
 1476W        W 5527   0.025   9.581   2.766
 1477W        W 5528   9.138   6.600   9.109
 1478W        W 5529   3.142   8.952   9.152
 1479W        W 5530   4.110   9.556  10.419
 1480W        W 5531   1.915   2.223   0.430
 1481W        W 5532   4.827  10.575   1.298
 1482W        W 5533   6.224   6.236   3.028
 1483W        W 5534   3.710   5.397  11.777
 1484W        W 5535   0.137   8.894   2.143
 1485W        W 5536   6.047   6.235  11.951
 1486W        W 5537   0.900   6.451   1.914
 1487W        W 5538   5.188   3.629  10.991
 1488W        W 5539   9.274   6.303  11.291
 1489W        W 5540   8.954   3.252  10.512
 1490W        W 5541   4.577   0.261  11.972
 1491W        W 5542   1.751   9.203  11.348
 1492W        W 5543   9.664   0.587   9.452
 1493W        W 5544   9.748   0.771  11.444
 1494W        W 5545  10.340  11.376   1.944
 1495W        W 5546  10.815   1.310  11.109
 1496W        W 5547   3.733   3.358  10.926
 1497W        W 5548   0.464   3.827   2.308
 1498W        W 5549   4.592   0.747   0.761
 1499W        W 5550   9.037   8.098  10.173
 1500W        W 5551  10.815   0.314   1.011
 1501W        W 5552  10.154  10.402   9.961
 1502W        W 5553   8.549  11.231   0.181
 1503W        W 5554   1.038  10.570   2.452
 1504W        W 5555   4.979  11.312   2.653
 1505W        W 5556   5.442   4.044   3.581
 1506W        W 5557   1.983   9.890   9.388
 1507W        W 5558   4.907   1.187   2.611
 1508W        W 5559   6.642   2.673  10.388
 1509W        W 5560   5.171   3.972   4.005
 1510W        W 5561   9.132   6.337   8.677
 1511W        W 5562   8.908   7.420   1.227
 1512W        W 5563  10.598   4.304  10.107
 1513W        W 5564   2.180   9.132  11.983
 1514W        W 5565   8.086   5.031   4.046
 1515W        W 5566   7.634   7.141   1.242
 1516W        W 5567   1.666   6.919   3.240
 1517W        W 5568   0.059   5.964   9.943
 1518W        W 5569   4.433  10.411  11.375
 1519W        W 5570   9.513   9.881   1.239
 1520W        W 5571   5.532   9.641  11.340
 1521W        W 5572   2.633   1.072   1.278
 1522W        W 5573   3.360   2.233   9.262
 1523W        W 5574  11.056   9.429  11.730
 1524W        W 5575   2.304   2.229   0.905
 1525W        W 5576   9.051   6.786   1.974
 1526W        W 5577   7.800   5.728   9.863
 1527W        W 5578  11.090   4.477  10.897
 1528W        W 5579   8.006   4.698   2.189
 1529W        W 5580   7.360   4.711  11.032
 1530W        W 5581   4.244  11.379   2.631
 1531W        W 5582   3.686   6.587   0.285
 1532W        W 5583   5.933   0.934   8.539
 1533W        W 5584  10.855   8.197   0.220
 1534W        W 5585  10.787   1.848  10.457
 1535W        W 5586   9.402   2.652   1.995
 1536W        W 5587   1.625   1.347   9.831
 1537W        W 5588   0.527  10.545   2.316
 1538W        W 5589   9.336  11.366  11.215
 1539W        W 5590   9.976  11.447   9.540
 1540W        W 5591   2.910   5.355   0.212
 1541W        W 5592   3.385   2.550  10.663
 1542W        W 5593   4.409   3.840  11.238
 1543W        W 5594   6.566   2.224   0.953
 1544W        W 5595   2.135   1.776   9.204
 1545W        W 5596   2.181  11.415  11.431
 1546W        W 5597   4.364   0.804   0.303
 1547W        W 5598   9.579   8.036  10.080
 1548W        W 5599   4.895   8.597  10.905
 1549W        W 5600   0.591   5.912   0.705
 1550W        W 5601   3.227   4.298  11.303
 1551W        W 5602   2.199   8.537   3.070
 1552W        W 5603   1.830   0.260   9.498
 1553W        W 5604   6.381   4.019  10.466
 1554W        W 5605   4.112  11.249  10.840
 1555W        W 5606   6.042   6.154   0.872
 1556W        W 5607   0.276   1.654   9.857
 1557W        W 5608   1.462  10.254   1.347
 1558W        W 5609   3.748   6.603   9.384
 1559W        W 5610   1.137   1.831   8.986
 1560W        W 5611   7.954   0.429   1.772
 1561W        W 5612   6.279   8.797  10.000
 1562W        W 5613   8.004   4.167  11.424
 1563W        W 5614   8.599   8.410   1.996
 1564W        W 5615   8.205   6.535   3.241
 1565W        W 5616   9.630   6.950   2.288
 1566W        W 5617   0.698  11.380   0.995
 1567W        W 5618   8.790   8.753   3.752
 1568W        W 5619  11.456   9.148  10.758
 1569W        W 5620   1.295   5.971   0.052
 1570W        W 5621   8.895   6.111   0.532
 1571W        W 5622   8.517   3.419   8.890
 1572W        W 5623   4.704   8.117  11.620
 1573W        W 5624  11.280   9.671   1.735
 1574W        W 5625   6.776   8.067   9.398
 1575W        W 5626   7.140  10.479   9.229
 1576W        W 5627  10.967  10.630  11.457
 1577W        W 5628   5.487   6.139   2.306
 1578W        W 5629   6.371   6.156   2.536
 1579W        W 5630   3.280   8.574  10.404
 1580W        W 5631   2.702   5.547   2.809
 1581W        W 5632   0.283   9.461  11.326
 1582W        W 5633   3.166   6.222   3.377
 1583W        W 5634   0.558   1.474   3.669
 1584W        W 5635   0.304   7.074  11.783
 1585W        W 5636   3.687   3.853  11.816
 1586W        W 5637   9.837   0.005   1.836
 1587W        W 5638  10.390   1.282  11.369
 1588W        W 5639   6.256   7.899   0.367
 1589W        W 5640  10.999  10.011   1.469
 1590W        W 5641  10.821   1.352   9.626
 1591W        W 5642  10.446   6.497  11.993
 1592W        W 5643   0.703   1.216   3.129
 1593W        W 5644   0.915   3.791   2.556
 1594W        W 5645   9.617   2.084   2.651
 1595W        W 5646   3.158   2.080  10.754
 1596W        W 5647   4.531   0.958  10.106
 1597W        W 5648   1.361   2.335   1.922
 1598W        W 5649   8.855   4.592   2.216
 1599W        W 5650   5.804   9.018   9.955
 1600W        W 5651  11.011   9.886   2.350
 1601W        W 5652   8.860   1.717   1.017
 1602W        W 5653   8.011   7.478   1.314
 1603W        W 5654   9.032   7.666   2.899
 1604W        W 5655  10.015   7.009   8.996
 1605W        W 5656   3.385   3.393   1.396
 1606W        W 5657   9.171   7.585  11.945
 1607W        W 5658  10.649   3.618   9.660
 1608W        W 5659   8.093  10.307  11.877
 1609W        W 5660  10.121   8.790   8.918
 1610W        W 5661   6.968   4.619  11.739
 1611W        W 5662   6.562   1.131   9.592
 1612W        W 5663   6.248   8.973   2.694
 1613W        W 5664  10.008   8.951  11.013
 1614W        W 5665   8.322   6.828   0.762
 1615W        W 5666   2.830  11.403   8.820
 1616W        W 5667   2.502   0.068  10.371
 1617W        W 5668   6.645  10.928   1.360
 1618W        W 5669   4.579   9.053  11.929
 1619W        W 5670   9.405   2.874   0.881
 1620W        W 5671   5.010   2.823   3.165
 1621W        W 5672   0.163  10.345   1.422
 1622W        W 5673   9.827   4.806   2.306
 1623W        W 5674  10.091   0.386   9.746
 1624W        W 5675   3.309   9.956   1.307
 1625W        W 5676  10.937   6.473   1.314
 1626W        W 5677   6.096   3.656   1.990
 1627W        W 5678   4.121   4.260  11.186
 1628W        W 5679   0.764  10.805   3.390
 1629W        W 5680   9.387   8.044   1.830
 1630W        W 5681   0.433   6.193  11.769
 1631W        W 5682   4.264  10.119   3.294
 1632W        W 5683   9.484   3.931   2.294
 1633W        W 5684   2.894   2.594  10.504
 1634W        W 5685   0.766   4.206   0.701
 1635W        W 5686   1.802   0.926   8.662
 1636W        W 5687   3.837   3.616  11.370
 1637W        W 5688   2.180   5.701   9.117
 1638W        W 5689   8.109   5.846  10.985
 1639W        W 5690   4.959   9.536   8.968
 1640W        W 5691   3.784   7.536   3.250
 1641W        W 5692   5.607   3.656   2.095
 1642W        W 5693   5.053   3.541   2.777
 1643W        W 5694   0.055   6.706   2.400
 1644W        W 5695  10.479   3.235   2.698
 1645W        W 5696   5.657   7.635   1.939
 1646W        W 5697   7.360   0.920   8.473
 1647W        W 5698   7.973   4.997  10.411
 1648W        W 5699   4.440   1.083  11.050
 1649W        W 5700   2.665   3.301   0.219
 1650W        W 5701   0.430   0.226   3.385
 1651W        W 5702   3.169   3.647  10.579
 1652W        W 5703   3.184   6.052   9.801
 1653W        W 5704   9.884   2.838   1.114
 1654W        W 5705   0.397   8.617  10.055
 1655W        W 5706   7.088   2.824   0.476
 1656W        W 5707   8.078  10.056   2.364
 1657W        W 5708   0.836   8.361  11.276
 1658W        W 5709   6.185   5.296   2.408
 1659W        W 5710   1.890   2.282   1.857
 1660W        W 5711   3.223   5.314   2.476
 1661W        W 5712   5.811   5.056   0.401
 1662W        W 5713   5.152   9.748  11.708
 1663W        W 5714   1.376   5.748   1.783
 1664W        W 5715   2.158   9.053   8.900
 1665W        W 5716  10.523   6.973   9.087
 1666W        W 5717   5.526   7.962   8.704
 1667W        W 5718   4.730   0.960   3.633
 1668W        W 5719   6.420   2.121   9.308
 1669W        W 5720   1.252   7.665   9.011
 1670W        W 5721  11.225   2.810   1.711
 1671W        W 5722   3.418   2.245   3.021
 1672W        W 5723  10.878   3.655   0.928
 1673W        W 5724  11.005   6.159   0.543
 1674W        W 5725   0.865   8.646  10.286
 1675W        W 5726   2.669   0.522  11.236
 1676W        W 5727  11.465   8.078   2.584
 1677W        W 5728   7.298  10.775   2.137
 1678W        W 5729  10.415   0.470   8.918
 1679W        W 5730   5.492   6.664   0.380
 1680W        W 5731   2.692   0.246   0.240
 1681W        W 5732   3.514   4.009   2.012
 1682W        W 5733   9.634   2.921  11.070
 1683W        W 5734   4.622   9.361   9.396
 1684W        W 5735   8.710   5.114   0.343
 1685W        W 5736   5.056   4.020   0.080
 1686W        W 5737   1.681   9.489   9.615
 1687W        W 5738   4.779   1.469  11.528
 1688W        W 5739   5.677   9.375  11.755
 1689W        W 5740   1.806   0.469   1.200
 1690W        W 5741   2.748   3.629   3.056
 1691W        W 5742   9.985   4.849   1.280
 1692W        W 5743   9.012   4.820   2.653
 1693W        W 5744   0.092   9.460   3.283
 1694W        W 5745   4.550   4.822   0.464
 1695W        W 5746  10.759   5.741   3.590
 1696W        W 5747   7.059   9.851   2.255
 1697W        W 5748   6.129   4.881  10.398
 1698W        W 5749  10.977   0.767   0.851
 1699W        W 5750   8.457  10.033  10.363
 1700W        W 5751   2.704   3.659   1.538
 1701W        W 5752   3.839  10.260   0.688
 1702W        W 5753  11.139   0.042  11.805
 1703W        W 5754   4.456   9.311   1.270
 1704W        W 5755   4.664  10.798   1.744
 1705W        W 5756   9.067  11.369  10.556
 1706W        W 5757   4.232   7.762  10.939
 1707W        W 5758   5.482  10.762   1.176
 1708W        W 5759   7.913   3.205  11.621
 1709W        W 5760   5.520   6.805  10.052
 1710W        W 5761  10.139   5.183  10.522
 1711W        W 5762   6.243   3.173   2.138
 1712W        W 5763   8.433   5.180   3.322
 1713W        W 5764  10.807   0.758   0.349
 1714W        W 5765  10.103   6.302  11.687
 1715W        W 5766   8.925   3.557   9.966
 1716W        W 5767   4.827   6.971   2.473
 1717W        W 5768   3.363   8.128  11.804
 1718W        W 5769   1.082   7.930  11.092
 1719W        W 5770   2.241   0.974   3.157
 1720W        W 5771   4.210   8.413   9.479
 1721W        W 5772   8.131   7.844   3.041
 1722W        W 5773   7.869  11.482  10.382
 1723W        W 5774   1.466   3.751   1.188
 1724W        W 5775   7.284   4.472   8.224
 1725W        W 5776   6.188  11.193   9.097
 1726W        W 5777   7.860   5.471   1.736
 1727W        W 5778   5.567   1.695   8.965
 1728W        W 5779   2.767   2.681   1.984
 1729W        W 5780   0.422   4.081   0.366
 1730W        W 5781   2.412   8.582   8.812
 1731W        W 5782   3.857  11.132   8.629
 1732W        W 5783   8.407  10.933  11.783
 1733W        W 5784   9.510   0.100   9.369
 1734W        W 5785   5.506   7.994   3.628
 1735W        W 5786   8.998   9.978   3.010
 1736W        W 5787   0.414   0.337   1.028
 1737W        W 5788   6.316   8.027   0.881
 1738W        W 5789   6.215   4.063   8.154
 1739W        W 5790   5.186   2.569  11.779
 1740W        W 5791   3.203   8.282   3.033
 1741W        W 5792   3.062   5.563   1.225
 1742W        W 5793   0.733  10.455  10.642
 1743W        W 5794   5.326   6.942   3.540
 1744W        W 5795   5.988   4.171   3.626
 1745W        W 5796   8.875   5.071   1.128
 1746W        W 5797   6.195   4.320   0.988
 1747W        W 5798   4.702   3.758  10.774
 1748W        W 5799   6.592   7.977   8.533
 1749W        W 5800   0.916   2.941   0.747
 1750W        W 5801   1.685   3.259   1.918
 1751W        W 5802  10.953   5.543   2.176
 1752W        W 5803   9.443   4.253  10.895
 1753W        W 5804   3.665   6.177   9.658
 1754W        W 5805   3.612   3.527   9.886
 1755W        W 5806   6.315   5.373  10.442
 1756W        W 5807   9.902   4.669   8.920
 1757W        W 5808  10.799   7.668   9.031
 1758W        W 5809   4.248   5.591  10.867
 1759W        W 5810   5.726  10.482   8.876
 1760W        W 5811   5.907   3.796   2.860
 1761W        W 5812   7.205  10.129   0.438
 1762W        W 5813   3.279   9.543   3.635
 1763W        W 5814  11.446   8.053   1.876
 1764W        W 5815   5.700   4.113   0.267
 1765W        W 5816   4.198   6.640   0.344
 1766W        W 5817   6.909   0.755  10.309
 1767W        W 5818  10.457  10.537   0.573
 1768W        W 5819   2.918   2.966  11.915
 1769W        W 5820  10.028   2.543  11.293
 1770W        W 5821   4.440   6.674   3.566
 1771W        W 5822   1.310   8.929   2.394
 1772W        W 5823   2.175   3.315  10.489
 1773W        W 5824   7.930   9.164   9.679
 1774W        W 5825   3.274   4.001   2.879
 1775W        W 5826  11.149   9.488   9.530
 1776W        W 5827   2.749   3.737   8.960
 1777W        W 5828   9.099   8.049   2.292
 1778W        W 5829   7.830   2.835   2.800
 1779W        W 5830   7.499   3.147  10.908
 1780W        W 5831   8.502   0.618   1.203
 1781W        W 5832   6.549   0.789  11.556
 1782W        W 5833   6.448   2.284   2.454
 1783W        W 5834   9.659   8.690  11.318
 1784W        W 5835   3.349   9.759   2.337
 1785W        W 5836   4.588   0.354   1.416
 1786W        W 5837   6.716   1.098  11.963
 1787W        W 5838   5.227   1.013   3.489
 1788W        W 5839   4.478   5.379  10.435
 1789W        W 5840   1.003   8.532   9.375
 1790W        W 5841  10.779   8.465  10.897
 1791W        W 5842   7.076   9.736   1.213
 1792W        W 5843   1.953   2.235   9.997
 1793W        W 5844   6.521   8.354   0.241
 1794W        W 5845   3.369   9.107  11.523
 1795W        W 5846   5.985   7.877  11.030
 1796W        W 5847   6.231   6.472   9.836
 1797W        W 5848   1.229   0.979   0.924
 1798W        W 5849   1.443   3.093   9.905
 1799W        W 5850   1.705   4.537   3.329
 1800W        W 5851   4.038   6.742   2.861
 1801W        W 5852   6.026   1.839   9.508
 1802W        W 5853  10.803   9.125   2.953
 1803W        W 5854   9.767   8.429   8.960
 1804W        W 5855   1.489   8.024   0.022
 1805W        W 5856   9.376   6.673   1.023
 1806W        W 5857   9.343   4.658   3.553
 1807W        W 5858   0.665   6.715  11.797
 1808W        W 5859   2.613  10.546  11.460
 1809W        W 5860   3.808   2.162   9.030
 1810W        W 5861  10.888  10.909   9.952
 1811W        W 5862  10.931   6.666   3.157
 1812W        W 5863   8.028  10.074  10.090
 1813W        W 5864   4.711  10.883   3.331
 1814W        W 5865   1.463   9.609   0.047
 1815W        W 5866   9.503   2.663   1.468
 1816W        W 5867   4.290  10.814  10.622
 1817W        W 5868   9.241   5.165  10.716
 1818W        W 5869   3.222   3.841  11.541
 1819W        W 5870   5.715   4.225   9.934
 1820W        W 5871   4.055  10.060  10.253
 1821W        W 5872   1.317   9.165   2.845
 1822W        W 5873   2.511  10.107   3.065
 1823W        W 5874   6.633   9.443   9.271
 1824W        W 5875   1.629   5.538   0.461
 1825W        W 5876   8.870   4.185   9.674
 1826W        W 5877   9.940   7.149   2.648
 1827W        W 5878   2.505   5.341   1.015
 1828W        W 5879   4.184   3.071  11.064
 1829W        W 5880   1.391   5.798   9.636
 1830W        W 5881   1.096   2.944   3.486
 1831W        W 5882   1.719   6.618  10.998
 1832W        W 5883   1.144  10.969   9.368
 1833W        W 5884   4.132   5.225  11.558
 1834W        W 5885   0.561  10.219   8.878
 1835W        W 5886   5.018   5.818   9.586
 1836W        W 5887   1.371   3.803   1.831
 1837W        W 5888   0.235   3.518   9.871
 1838W        W 5889   9.957   0.487   8.688
 1839W        W 5890   9.519   1.940   9.010
 1840W        W 5891   4.625   3.227   0.249
 1841W        W 5892   9.178   0.474   9.548
 1842W        W 5893   3.585   4.202   3.269
 1843W        W 5894   8.526   5.382  10.949
 1844W        W 5895   5.668   8.712   1.857
 1845W        W 5896  10.099   2.758   9.423
 1846W        W 5897  10.232   3.415  10.887
 1847W        W 5898   7.989   9.452   8.806
 1848W        W 5899   0.793   8.246   2.295
 1849W        W 5900   0.741   8.105   9.242
 1850W        W 5901   9.091   6.655   2.905
 1851W        W 5902   8.535  10.375   0.178
 1852W        W 5903   6.576   2.654  11.189
 1853W        W 5904   0.254   5.871   1.471
 1854W        W 5905   1.823   2.799   1.199
 1855W        W 5906   3.458   8.431   1.636
 1856W        W 5907   3.835   4.812  10.880
 1857W        W 5908   8.078   2.678   8.463
 1858W        W 5909   1.534  11.027   0.857
 1859W        W 5910   6.719   9.902   0.363
 1860W        W 5911   5.840   6.230  11.476
 1861W        W 5912   4.615  11.266   2.997
 1862W        W 5913   7.161   9.391   1.965
 1863W        W 5914  10.658  11.404  11.786
 1864W        W 5915   2.003   6.279  11.869
 1865W        W 5916   7.473   3.327   1.581
 1866W        W 5917   5.744   4.129   3.186
 1867W        W 5918   8.083  10.838   1.733
 1868W        W 5919   2.469  10.882  10.905
 1869W        W 5920  11.270   4.273   2.997
 1870W        W 5921   7.167   2.646   9.484
 1871W        W 5922   9.265   0.670   1.777
 1872W        W 5923   7.160   3.260   3.034
 1873W        W 5924   2.217   3.699   3.252
 1874W        W 5925  10.327   3.401   9.979
 1875W        W 5926   1.322   9.188   1.953
 1876W        W 5927   3.731   2.088   8.459
 1877W        W 5928  10.290   3.938   9.902
 1878W        W 5929   6.911   5.349   2.025
 1879W        W 5930   4.554   2.733   0.993
 1880W        W 5931   6.213   3.680   1.486
 1881W        W 5932   8.359  10.840   9.531
 1882W        W 5933   4.737   5.246   0.761
 1883W        W 5934   7.106   4.521   1.707
 1884W        W 5935  11.026  11.345   0.273
 1885W        W 5936   9.736   5.954  11.718
 1886W        W 5937   6.702  10.442   9.477
 1887W        W 5938   5.298  10.956   8.993
 1888W        W 5939   6.297   2.364   1.374
 1889W        W 5940   4.672   0.631   2.509
 1890W        W 5941   0.511   2.781  10.560
 1891W        W 5942  10.923   2.004   2.733
 1892W        W 5943   6.546   6.156   0.962
 1893W        W 5944   1.884  10.149   1.998
 1894W        W 5945   1.153   0.850   9.120
 1895W        W 5946   3.484   9.623   9.694
 1896W        W 5947  10.379   2.805   2.455
 1897W        W 5948   1.242   8.046   9.374
 1898W        W 5949   0.340   0.844   2.425
 1899W        W 5950   1.706   5.553   1.424
 1900W        W 5951   3.235   8.863   3.224
 1901W        W 5952  10.058   4.994  10.048
 1902W        W 5953   2.090   1.822   1.744
 1903W        W 5954   8.438   3.264  10.429
 1904W        W 5955   3.792   3.100  11.379
 1905W        W 5956   9.063   6.081   9.097
 1906W        W 5957  11.178   5.734  11.220
 1907W        W 5958   1.757   4.592   1.496
 1908W        W 5959   8.767   2.513   2.834
 1909W        W 5960  11.341  10.566  11.110
 1910W        W 5961  10.060   2.608  10.325
 1911W        W 5962   8.239   0.915  10.401
 1912W        W 5963   5.470   2.068   2.581
 1913W        W 5964   5.619   0.382   9.638
 1914W        W 5965  10.957   5.208  11.505
 1915W        W 5966  10.144   3.623   9.512
 1916W        W 5967   0.269   7.269   2.963
 1917W        W 5968   3.339  11.362   1.406
 1918W        W 5969   6.719   6.147   8.699
 1919W        W 5970   1.486   7.060   8.469
 1920W        W 5971  11.310   5.730   9.196
 1921W        W 5972  10.126   6.047   2.212
 1922W        W 5973   5.047  10.317   2.307
 1923W        W 5974   0.448   9.850   3.441
 1924W        W 5975   9.188   9.585   0.327
 1925W        W 5976   9.001  10.447   2.197
 1926W        W 5977   1.765   8.931   1.812
 1927W        W 5978   2.240   2.790  10.048
 1928W        W 5979   4.107   4.242   1.540
 1929W        W 5980   2.199   1.950   3.784
 1930W        W 5981   4.096   3.333  10.014
 1931W        W 5982   0.189   1.475   1.691
 1932W        W 5983   8.452  10.737   2.764
 1933W        W 5984   4.638   3.863   2.809
 1934W        W 5985   6.640   8.440  10.239
 1935W        W 5986   2.993  10.438  10.107
 1936W        W 5987   3.191   1.776   9.011
 1937W        W 5988   9.575  10.766   1.014
 1938W        W 5989   3.495   8.004   0.926
 1939W        W 5990   5.411   7.826   9.209
 1940W        W 5991   4.047   2.560   2.528
 1941W        W 5992   7.701  11.040   0.464
 1942W        W 5993   3.612   2.097   0.250
 1943W        W 5994   6.591   1.274   9.066
 1944W        W 5995   8.084   8.318   2.751
 1945W        W 5996   0.885   0.383   2.372
 1946W        W 5997   6.901   3.313   0.575
 1947W        W 5998   4.172   9.067   1.687
 1948W        W 5999   3.466   0.509   3.725
 1949W        W 6000   3.667   3.562   1.785
 1950W        W 6001   9.922   4.766  10.777
 1951W        W 6002   7.239   1.892   2.673
 1952W        W 6003   8.674   3.695  11.306
 1953W        W 6004  11.419   9.908   9.333
 1954W        W 6005   9.816   0.076   0.992
 1955W        W 6006   1.464   5.113   2.117
 1956W        W 6007   2.428   6.130   8.820
 1957W        W 6008   3.369   9.494   0.396
 1958W        W 6009   8.615   5.258  11.854
 1959W        W 6010   5.985   6.063  10.984
 1960W        W 6011  10.493   3.446   0.263
 1961W        W 6012   3.107  11.348  11.126
 1962W        W 6013   8.623   8.793   1.221
 1963W        W 6014   1.783   5.979   2.205
 1964W        W 6015   1.650  10.810   9.283
 1965W        W 6016  11.292   9.759  11.367
 1966W        W 6017   5.285   8.953   0.689
 1967W        W 6018  10.590  11.325  10.944
 1968W        W 6019  11.436   7.564   1.699
 1969W        W 6020   9.909   5.601   0.024
 1970W        W 6021   1.393   1.408   3.113
 1971W        W 6022   4.774   1.705  11.983
 1972W        W 6023   6.526   7.571   0.994
 1973W        W 6024   4.976   6.547   3.587
 1974W        W 6025   3.841   3.169   1.485
 1975W        W 6026   7.127   8.847  11.055
 1976W        W 6027   3.268   2.688   1.749
 1977W        W 6028   2.249   7.932   1.183
 1978W        W 6029   3.678   0.284   3.200
 1979W        W 6030   4.160  11.193  10.294
 1980W        W 6031  10.417   5.182  11.482
 1981W        W 6032   2.839   8.795   0.783
 1982W        W 6033  10.854   3.299   9.297
 1983W        W 6034   3.936   7.137   9.264
 1984W        W 6035   3.851   3.379  11.820
 1985W        W 6036  11.393   3.126  10.005
 1986W        W 6037   2.208   8.922  11.311
 1987W        W 6038   6.209  10.811  10.735
 1988W        W 6039   2.195   2.217  11.492
 1989W        W 6040   3.263   9.064  10.638
 1990W        W 6041   1.292   5.281   1.637
 1991W        W 6042   9.753   4.597  10.209
 1992W        W 6043   3.906   8.200   8.361
 1993W        W 6044   8.105  10.457   2.043
 1994W        W 6045   6.961   8.429   0.552
 1995W        W 6046   5.539   2.362   9.746
 1996W        W 6047   0.696   5.985   1.220
 1997W        W 6048   1.674   6.703  11.982
 1998W        W 6049   6.079   8.920   1.629
 1999W        W 6050   0.630   1.840   9.056
 2000W        W 6051   2.761   1.124  10.441
 2001W        W 6052   6.050   0.423   2.257
 2002W        W 6053   8.582   9.721   1.626
 2003W        W 6054  11.425   0.907  11.849
 2004W        W 6055   7.221   7.815   9.956
 2005W        W 6056   8.636  10.013  11.099
 2006W        W 6057   3.346   2.243   9.781
 2007W        W 6058   1.797   6.441   1.930
 2008W        W 6059   3.640   8.903   9.041
 2009W        W 6060   2.257   3.678  11.279
 2010W        W 6061  10.065   0.197   1.438
 2011W        W 6062   8.266   1.553  11.297
 2012W        W 6063   2.898   1.858  11.235
 2013W        W 6064   8.376   9.599   0.020
 2014W        W 6065   0.326   7.963   9.548
 2015W        W 6066   2.690   3.463   8.535
 2016W        W 6067   1.365   9.427   3.357
 2017W        W 6068  10.832   7.030  10.844
 2018W        W 6069   3.845   7.486   0.245
 2019W        W 6070   1.994   7.696   3.163
 2020W        W 6071   1.854   1.379   1.943
 2021W        W 6072   9.392   9.350  11.876
 2022W        W 6073   1.608  10.529   1.771
 2023W        W 6074   7.998  11.429   0.912
 2024W        W 6075   8.597   0.570   2.280
 2025W        W 6076   4.269   4.587  11.685
 2026W        W 6077   2.432   7.481   4.077
 2027W        W 6078   9.525   9.829   9.037
 2028W        W 6079   8.047   5.307   3.615
 2029W        W 6080   9.649  10.969  11.289
 2030W        W 6081   8.901   3.630  10.846
 2031W        W 6082   6.129   9.486   0.776
 2032W        W 6083   2.620  10.880   0.210
 2033W        W 6084  10.520   0.516   3.161
 2034W        W 6085   1.556   2.426   0.098
 2035W        W 6086  10.888   1.184   8.619
 2036W        W 6087   9.076  11.246   2.193
 2037W        W 6088   8.165   7.535   1.827
 2038W        W 6089   3.135   1.453   3.330
 2039W        W 6090   2.218   4.926   3.795
 2040W        W 6091   0.134   6.783  10.144
 2041W        W 6092  10.357   7.009  11.972
 2042W        W 6093  10.814   6.108  11.201
 2043W        W 6094   1.656   2.792   3.198
 2044W        W 6095  10.112   2.782   8.900
 2045W        W 6096   4.815  10.066   1.366
 2046W        W 6097   5.696  11.336   8.949
 2047W        W 6098   2.779   4.566   1.462
 2048W        W 6099   4.496  11.260  11.959
 2049W        W 6100   8.961   9.487  10.293
 2050W        W 6101   3.038   7.808   0.709
 2051W        W 6102   5.680   8.172   1.818
 2052W        W 6103   6.414   3.333   9.363
 2053W        W 6104   1.117   2.195   1.500
 2054W        W 6105   5.554   5.705   0.458
 2055W        W 6106   8.911   5.929  11.416
 2056W        W 6107  11.481   6.758   0.866
 2057W        W 6108   6.737  10.422   1.487
 2058W        W 6109   4.367   6.542   0.981
 2059W        W 6110  10.770   5.157   1.385
 2060W        W 6111   0.400  10.335   9.908
 2061W        W 6112   6.959   3.751   2.269
 2062W        W 6113   4.026   7.930   0.967
 2063W        W 6114   5.501   3.302   1.709
 2064W        W 6115  11.257   0.403  11.088
 2065W        W 6116   1.812  10.410   2.795
 2066W        W 6117   1.008   9.989   1.343
 2067W        W 6118  10.455   8.957  11.290
 2068W        W 6119   9.664   8.156   9.568
 2069W        W 6120   1.907   2.525  11.758
 2070W        W 6121   5.972   6.177   8.918
 2071W        W 6122   0.654   1.649   1.885
 2072W        W 6123   2.223  11.331  10.921
 2073W        W 6124   4.196  10.287   2.387
 2074W        W 6125   5.222   9.771   4.149
 2075W        W 6126   2.943   8.385   8.114
 2076W        W 6127   2.853   2.936  10.899
 2077W        W 6128   7.385   2.999  11.755
 2078W        W 6129   5.454   4.663   0.362
 2079W        W 6130   1.877   0.277   3.268
 2080W        W 6131  10.899   5.979   2.415
 2081W        W 6132   6.945   9.920  11.480
 2082W        W 6133   5.749   4.766  10.055
 2083W        W 6134  11.471   5.068   1.840
 2084W        W 6135   8.118   2.873   8.963
 2085W        W 6136   4.113   3.028   2.735
 2086W        W 6137   3.602  11.057   0.398
 2087W        W 6138   2.194   8.988   3.357
 2088W        W 6139   1.679   1.880   0.773
 2089W        W 6140   0.298  10.068  10.643
 2090W        W 6141  10.460   5.474   9.379
 2091W        W 6142  10.798   9.673  10.442
 2092W        W 6143   1.385   1.771  11.285
 2093W        W 6144   9.257   3.898   1.804
 2094W        W 6145   2.625   3.189   1.795
 2095W        W 6146   8.594   1.822   9.554
 2096W        W 6147   8.198  11.094  10.456
 2097W        W 6148   8.227   5.065   0.474
 2098W        W 6149   2.410   5.331   0.026
 2099W        W 6150   3.162   7.968   1.315
 2100W        W 6151   3.657   7.578   9.210
 2101W        W 6152   1.317   9.440   2.405
 2102W        W 6153   7.620  10.370   9.005
 2103W        W 6154   0.085   0.524   9.826
 2104W        W 6155  10.383   2.439   0.310
 2105W        W 6156  11.042   5.987  11.647
 2106W        W 6157   1.951   3.169   9.149
 2107W        W 6158  10.021   6.164   9.898
 2108W        W 6159   6.152  10.821   2.874
 2109W        W 6160  11.452   2.754   2.175
 2110W        W 6161   7.151   7.023  11.541
 2111W        W 6162   0.050   3.366  11.390
 2112W        W 6163   5.730   0.824   2.205
 2113W        W 6164   0.201   3.176  11.861
 2114W        W 6165   3.890   1.050  11.386
 2115W        W 6166   1.896   0.238  10.872
 2116W        W 6167   6.019   4.390  10.309
 2117W        W 6168   9.350   7.595   8.801
 2118W        W 6169   3.312   5.120   9.650
 2119W        W 6170   3.394   3.263   3.145
 2120W        W 6171   3.589   9.329  10.241
 2121W        W 6172  10.183   0.297   2.867
 2122W        W 6173   3.993   8.898   9.435
 2123W        W 6174   5.531   8.293   4.044
 2124W        W 6175   2.158   8.393   2.124
 2125W        W 6176  10.410   6.507   2.421
 2126W        W 6177   8.112   9.974   0.264
 2127W        W 6178  11.324   3.912   1.021
 2128W        W 6179   0.845   7.416   1.741
 2129W        W 6180  10.536   6.788   1.323
 2130W        W 6181   1.940   9.687  11.311
 2131W        W 6182   3.297   2.229  10.281
 2132W        W 6183   8.547   2.658   3.629
 2133W        W 6184   4.611   2.403   9.579
 2134W        W 6185   3.165   9.415  11.920
 2135W        W 6186   2.114   5.605   0.337
 2136W        W 6187  10.056   1.287   2.569
 2137W        W 6188   1.037   3.651   1.482
 2138W        W 6189   9.610   9.802  10.802
 2139W        W 6190   0.792   6.136  10.396
 2140W        W 6191  10.042   0.811   9.097
 2141W        W 6192   9.153   1.267   3.187
 2142W        W 6193   9.253   8.347  11.472
 2143W        W 6194   1.887   1.936   1.274
 2144W        W 6195   4.368   4.397   0.174
 2145W        W 6196   8.653   1.749   0.435
 2146W        W 6197   9.757   6.717   1.844
 2147W        W 6198   1.676   9.419   1.634
 2148W        W 6199   4.494   8.373  10.059
 2149W        W 6200   3.760   9.663   8.865
 2150W        W 6201   3.648   0.263   2.254
 2151W        W 6202   0.459   8.859   9.302
 2152W        W 6203   2.460   3.236   3.197
 2153W        W 6204   5.047   2.978  10.022
 2154W        W 6205   5.231   8.619   3.076
 2155W        W 6206   1.440   1.741  11.787
 2156W        W 6207   9.993  10.506  11.817
 2157W        W 6208   4.551   4.191   3.388
 2158W        W 6209   4.123   2.553   0.773
 2159W        W 6210   8.286   3.695   1.857
 2160W        W 6211   0.536  10.349   1.827
 2161W        W 6212   7.870   4.098   9.335
 2162W        W 6213   0.800   3.661   9.061
 2163W        W 6214   7.055   3.371  11.060
 2164W        W 6215   1.617  10.540  10.385
 2165W        W 6216   6.621   4.543   0.842
 2166W        W 6217   5.256   1.159   9.561
 2167W        W 6218   0.127   7.092   1.247
 2168W        W 6219   2.136  11.289   2.337
 2169W        W 6220   7.060   0.388   9.439
 2170W        W 6221   2.755   5.646  11.773
 2171W        W 6222   5.560   9.440   2.327
 2172W        W 6223   0.840   4.829  10.934
 2173W        W 6224   1.750   8.064  10.067
 2174W        W 6225   2.504   9.044   1.547
 2175W        W 6226   9.634   8.445   1.636
 2176W        W 6227   8.439   2.336   3.206
 2177W        W 6228   7.025   9.732   0.723
 2178W        W 6229   9.586   7.461  11.640
 2179W        W 6230  11.261   6.076   1.484
 2180W        W 6231  10.590   6.118   2.047
 2181W        W 6232   7.714   0.677   9.286
 2182W        W 6233   1.520   9.504  10.995
 2183W        W 6234  10.007   1.739   2.143
 2184W        W 6235   3.218   6.059   1.266
 2185W        W 6236   3.789   9.277  11.264
 2186W        W 6237   5.098   5.573   0.255
 2187W        W 6238   8.648   3.746  10.396
 2188W        W 6239   0.917   9.767  11.418
 2189W        W 6240   9.892   8.867   2.359
 2190W        W 6241  11.058   3.158   0.968
 2191W        W 6242   9.796   7.494   9.044
 2192W        W 6243  10.824   7.536  10.900
 2193W        W 6244   5.461   4.075   9.533
 2194W        W 6245   7.111   7.459  11.276
 2195W        W 6246   1.769   0.511   1.724
 2196W        W 6247   9.259   0.777  10.743
 2197W        W 6248   3.727   3.282   1.002
 2198W        W 6249   8.381   6.319   0.780
 2199W        W 6250   1.786   9.030   9.801
 2200W        W 6251   3.130   0.248   0.002
 2201W        W 6252   1.356   7.098   0.074
 2202W        W 6253   2.856   7.919  10.939
 2203W        W 6254  10.523  11.464   3.072
 2204W        W 6255   0.786   9.899  10.043
 2205W        W 6256   6.453   9.971   1.833
 2206W        W 6257   6.563   0.867   3.381
 2207W        W 6258   7.662   6.341   1.170
 2208W        W 6259   7.910   5.576   0.201
 2209W        W 6260   9.402   3.755  10.819
 2210W        W 6261  10.434   6.971   2.681
 2211W        W 6262   2.264   8.457   0.191
 2212W        W 6263   5.109   7.024   1.863
 2213W        W 6264   8.464  11.321  11.209
 2214W        W 6265   5.579  10.255   3.423
 2215W        W 6266  10.456   2.756  11.886
 2216W        W 6267   6.648   0.921  11.049
 2217W        W 6268  11.045   1.369   2.894
 2218W        W 6269   7.594   3.054   3.214
 2219W        W 6270   8.900   4.232  11.642
 2220W        W 6271   1.601  10.256   0.157
 2221W        W 6272  10.638   3.550   1.816
 2222W        W 6273  11.121   9.952  10.893
 2223W        W 6274   7.531   6.249  11.523
 2224W        W 6275   4.588   9.306   0.739
 2225W        W 6276  10.277  11.134   9.263
 2226W        W 6277   5.423   3.752   3.058
 2227W        W 6278   5.622   4.847   0.826
 2228W        W 6279   0.519   0.740  10.027
 2229W        W 6280   1.468   8.687   0.562
 2230W        W 6281   7.392   5.764  11.518
 2231W        W 6282   0.457   3.557  11.645
 2232W        W 6283  10.233   3.659   3.345
 2233W        W 6284   1.396   3.536   8.970
 2234W        W 6285  10.651   7.493  10.321
 2235W        W 6286  10.810   9.071   9.593
 2236W        W 6287   3.531   4.654   0.141
 2237W        W 6288  10.634  10.558   2.304
 2238W        W 6289   6.609   6.337   9.533
 2239W        W 6290   6.218   0.635   0.473
 2240W        W 6291   6.493   7.509  10.527
 2241W        W 6292   5.152   3.540   9.155
 2242W        W 6293   4.636   2.464   1.420
 2243W        W 6294   4.041   4.765   0.294
 2244W        W 6295  10.933   6.906  11.482
 2245W        W 6296   8.092   5.917   1.557
 2246W        W 6297  10.460   4.097  11.414
 2247W        W 6298   6.740   9.812  10.090
 2248W        W 6299   8.407   3.514   9.986
 2249W        W 6300   3.300   9.327   1.311
 2250W        W 6301   8.248   1.176   9.971
 2251W        W 6302   9.755   6.053  10.343
 2252W        W 6303   2.682   1.205   3.236
 2253W        W 6304   4.243   7.171   0.222
 2254W        W 6305   3.725   1.820  10.982
 2255W        W 6306   1.781   3.715   2.616
 2256W        W 6307   7.927   9.794   0.876
 2257W        W 6308  11.283   7.279  10.966
 2258W        W 6309  10.501   7.842   2.682
 2259W        W 6310   9.406   8.500  10.434
 2260W        W 6311   6.684  10.303   9.995
 2261W        W 6312   7.101   5.159  11.803
 2262W        W 6313   2.435   9.540   2.089
 2263W        W 6314   4.338   8.581   2.902
 2264W        W 6315  10.409   7.983   0.069
 2265W        W 6316   5.558   7.129   2.180
 2266W        W 6317   2.906   7.263  10.290
 2267W        W 6318   3.819   4.568   9.065
 2268W        W 6319   0.369   0.994  10.519
 2269W        W 6320  11.209   3.662   9.996
 2270W        W 6321   6.205   3.130   2.750
 2271W        W 6322   1.170   8.749  11.937
 2272W        W 6323   3.567   8.468   2.227
 2273W        W 6324   0.074  10.105  11.104
 2274W        W 6325   0.355   6.392   9.258
 2275W        W 6326   3.736  10.515   2.429
 2276W        W 6327   1.949   4.312  11.915
 2277W        W 6328   7.907   1.406   2.624
 2278W        W 6329   2.222  10.791  10.099
 2279W        W 6330   1.236  10.929  11.854
 2280W        W 6331   7.560   4.507   0.971
 2281W        W 6332   4.597   0.695   8.957
 2282W        W 6333   7.719   8.472  10.854
 2283W        W 6334   3.399   1.748  10.429
 2284W        W 6335   8.540   8.176  10.436
 2285W        W 6336   3.368   0.290   8.376
 2286W        W 6337   6.217   7.000  11.400
 2287W        W 6338   0.444   8.140   1.714
 2288W        W 6339   4.458   0.396   3.310
 2289W        W 6340   6.316   6.969   2.660
 2290W        W 6341   2.452   6.620   0.178
 2291W        W 6342   2.946   5.115  10.016
 2292W        W 6343   5.936  10.920   0.957
 2293W        W 6344   8.974   9.100   0.045
 2294W        W 6345   0.577  11.479   2.286
 2295W        W 6346   8.721   0.383   3.218
 2296W        W 6347   4.570  10.404  10.856
 2297W        W 6348   4.253   7.630   2.707
 2298W        W 6349   1.676   8.999   8.736
 2299W        W 6350   5.497   0.184   0.899
 2300W        W 6351   5.318   6.877  11.282
 2301W        W 6352  10.287   9.884   2.650
 2302W        W 6353   2.577   8.527  11.496
 2303W        W 6354  10.894   4.349  11.350
 2304W        W 6355   1.402   2.837   0.887
 2305W        W 6356   3.133  11.356   9.701
 2306W        W 6357   7.537   7.532   9.379
 2307W        W 6358   6.631   1.969   0.043
 2308W        W 6359   8.382   5.528   1.679
 2309W        W 6360   2.177   9.997  10.367
 2310W        W 6361   2.794   7.043   0.159
 2311W        W 6362   2.386   7.605   2.764
 2312W        W 6363  11.398   7.702   2.222
 2313W        W 6364   2.730   6.031   9.556
 2314W        W 6365   6.134   0.898   2.507
 2315W        W 6366   0.055   2.703   1.307
 2316W        W 6367   7.324   0.349  11.970
 2317W        W 6368   4.533  10.461   9.829
 2318W        W 6369   9.485   5.565   1.592
 2319W        W 6370   5.602   9.939   9.992
 2320W        W 6371  10.886   0.253   8.910
 2321W        W 6372   6.201   8.455   2.636
 2322W        W 6373   6.950   6.028   1.695
 2323W        W 6374   8.455   9.471   9.032
 2324W        W 6375   6.734   8.963   8.298
 2325W        W 6376   8.371  11.210   1.196
 2326W        W 6377   6.503   3.648   0.707
 2327W        W 6378   5.589   6.927   3.094
 2328W        W 6379   8.018   6.603   2.241
 2329W        W 6380   9.499  11.494   2.299
 2330W        W 6381   1.968   4.608  11.455
 2331W        W 6382   6.477   2.791   1.150
 2332W        W 6383   1.940   7.614   1.449
 2333W        W 6384   4.498   8.250  11.150
 2334W        W 6385  10.609   9.199   1.004
 2335W        W 6386   6.428   4.337  11.421
 2336W        W 6387   3.216   1.825   0.424
 2337W        W 6388   9.008   6.726   3.789
 2338W        W 6389   1.745   8.659   1.371
 2339W        W 6390   7.477   4.674   0.499
 2340W        W 6391   3.005   0.460   1.995
 2341W        W 6392   0.728   6.748   3.503
 2342W        W 6393   8.005   5.093   0.952
 2343W        W 6394   3.689   3.059  10.114
 2344W        W 6395   9.709   6.209   0.683
 2345W        W 6396   7.779   3.757   8.968
 2346W        W 6397   2.976   9.720   9.603
 2347W        W 6398   8.154  10.881   0.234
 2348W        W 6399  10.416   5.787   1.272
 2349W        W 6400   6.107   0.410   0.924
 2350W        W 6401   0.045   2.304   0.971
 2351W        W 6402   5.697   0.894   0.010
 2352W        W 6403   9.792   4.259   0.008
 2353W        W 6404   0.237   6.773   2.940
 2354W        W 6405   0.180  10.950   9.483
 2355W        W 6406   5.464   3.225  10.771
 2356W        W 6407   2.147   6.827  11.268
 2357W        W 6408   4.076   0.467   2.942
 2358W        W 6409   2.775   5.568   2.283
 2359W        W 6410  10.888   6.489   2.245
 2360W        W 6411   8.381   2.408  10.593
 2361W        W 6412   6.288   5.215   0.539
 2362W        W 6413   8.972   7.942   1.283
 2363W        W 6414  10.852   7.249  11.964
 2364W        W 6415   5.105   2.251   8.607
 2365W        W 6416   5.875   6.732  11.989
 2366W        W 6417   3.627   5.589   1.181
 2367W        W 6418   2.908   9.983   2.475
 2368W        W 6419   7.663   9.957   1.337
 2369W        W 6420   8.130   5.792   2.074
 2370W        W 6421   7.628   2.903  10.428
 2371W        W 6422   9.097   4.096   1.332
 2372W        W 6423   6.191   4.109  10.977
 2373W        W 6424   7.795   3.454   2.930
 2374W        W 6425   6.056   9.623  11.333
 2375W        W 6426  10.401   1.158  10.840
 2376W        W 6427   7.742   4.372   3.344
 2377W        W 6428   6.255   6.481   1.259
 2378W        W 6429  10.969   2.811   3.045
 2379W        W 6430   7.247   6.594  11.891
 2380W        W 6431   7.971   2.097   3.422
 2381W        W 6432   0.378   3.183  10.262
 2382W        W 6433   0.079  11.318   2.335
 2383W        W 6434   1.617   1.781   8.529
 2384W        W 6435   4.097   3.952   0.126
 2385W        W 6436   8.507   4.681   1.863
 2386W        W 6437   9.716   2.039   3.143
 2387W        W 6438   0.893   5.544   0.930
 2388W        W 6439   7.942   3.255  10.646
 2389W        W 6440   3.231   7.864   2.725
 2390W        W 6441   1.797   5.524   1.953
 2391W        W 6442   2.944  10.459   2.344
 2392W        W 6443   5.444   3.747   9.985
 2393W        W 6444   0.082   6.983   0.407
 2394W        W 6445   1.587   7.549   8.639
 2395W        W 6446   6.667   2.414   3.182
 2396W        W 6447   8.501   1.287   0.212
 2397W        W 6448   1.852   2.777   1.709
 2398W        W 6449   3.612   1.792   0.844
 2399W        W 6450   4.567  11.325   1.923
 2400W        W 6451   0.945   5.513   1.945
 2401W        W 6452   5.300   7.087   2.660
 2402W        W 6453   7.098  10.846  11.696
 2403W        W 6454  10.736   8.514  11.414
 2404W        W 6455   9.820   7.085  11.076
 2405W        W 6456   4.662   1.696  11.076
 2406W        W 6457  10.006   6.563   0.905
 2407W        W 6458   2.929   5.088   9.084
 2408W        W 6459  10.785   4.636  10.466
 2409W        W 6460   0.313   6.281  10.260
 2410W        W 6461   3.277   6.915   0.309
 2411W        W 6462   6.183   1.448   0.646
 2412W        W 6463   1.833   7.149  11.785
 2413W        W 6464   0.756   9.373   1.695
 2414W        W 6465   4.020   1.770   9.757
 2415W        W 6466   7.402  10.805  10.921
 2416W        W 6467   0.661   0.435   0.358
 2417W        W 6468  11.156   6.908   2.165
 2418W        W 6469   5.249   2.629  11.283
 2419W        W 6470   6.542  10.496  11.760
 2420W        W 6471   9.898   6.918   8.481
 2421W        W 6472   3.348   3.630   0.940
 2422W        W 6473   7.933   1.837   9.594
 2423W        W 6474   1.301   9.928   2.313
 2424W        W 6475   9.882   7.102   9.973
 2425W        W 6476   5.383   1.197   0.310
 2426W        W 6477   6.979  10.844  11.182
 2427W        W 6478   5.471   4.329  10.389
 2428W        W 6479   1.823   7.061  10.780
 2429W        W 6480   2.222   8.069   3.449
 2430W        W 6481   5.372   2.274   0.318
 2431W        W 6482   9.024   0.080   0.512
 2432W        W 6483   8.992   5.555  11.077
 2433W        W 6484   1.846   1.201   2.905
 2434W        W 6485   2.805   5.945   0.954
 2435W        W 6486   4.334   3.911   1.862
 2436W        W 6487  10.543   9.318  10.928
 2437W        W 6488  10.134   1.433   3.061
 2438W        W 6489   8.869  10.778   9.978
 2439W        W 6490  10.921   9.956   9.525
 2440W        W 6491  10.079   4.780   1.849
 2441W        W 6492   0.585   0.430   2.802
 2442W        W 6493   8.176   9.740   2.770
 2443W        W 6494   2.225   6.678  10.050
 2444W        W 6495   0.929  10.875   1.436
 2445W        W 6496   2.707   1.452  10.003
 2446W        W 6497   9.968   9.194   8.644
 2447W        W 6498   6.504   7.843   1.437
 2448W        W 6499   0.268   4.768   3.328
 2449W        W 6500   8.360   9.180  10.612
 2450W        W 6501   3.214   3.147   0.895
 2451W        W 6502  10.926  11.482  10.017
 2452W        W 6503   8.588   5.517   9.564
 2453W        W 6504  10.574   8.999  10.021
 2454W        W 6505   1.285   1.490   0.908
 2455W        W 6506   8.506  10.406   2.341
 2456W        W 6507  11.169   5.623   3.192
 2457W        W 6508   6.003   6.700  10.222
 2458W        W 6509   7.324   3.221   1.081
 2459W        W 6510   9.540   4.643   9.279
 2460W        W 6511   3.592   5.059  11.395
 2461W        W 6512   2.934  10.552   0.503
 2462W        W 6513   6.201   1.049  11.281
 2463W        W 6514   5.682   8.788   3.271
 2464W        W 6515   2.744   0.467   0.692
 2465W        W 6516   8.490   7.651   1.418
 2466W        W 6517   3.166   4.269   1.708
 2467W        W 6518   0.090   0.376   2.989
 2468W        W 6519   8.309   5.502   4.025
 2469W        W 6520   1.720   9.495   2.722
 2470W        W 6521  10.696   1.250   0.145
 2471W        W 6522   6.587   5.035   0.915
 2472W        W 6523   2.203   9.483   9.675
 2473W        W 6524   1.306   6.156   2.990
 2474W        W 6525   1.948   4.610   2.889
 2475W        W 6526   8.948   5.898   9.835
 2476W        W 6527   2.210   6.665   2.637
 2477W        W 6528  11.046   8.722   3.163
 2478W        W 6529   8.499   4.171  11.315
 2479W        W 6530   3.156   4.994   2.999
 2480W        W 6531   3.598   9.846  10.229
 2481W        W 6532   7.780   0.275  11.784
 2482W        W 6533   6.196  10.801   9.475
 2483W        W 6534  10.545   8.200   2.320
 2484W        W 6535   5.193  11.499   2.236
 2485W        W 6536   0.532   5.028   0.241
 2486W        W 6537   3.338   4.223  11.857
 2487W        W 6538   3.880   1.700  10.275
 2488W        W 6539   3.667   0.245   0.852
 2489W        W 6540   3.224   9.762   0.836
 2490W        W 6541   7.455   8.914   9.689
 2491W        W 6542   5.251   8.764   1.158
 2492W        W 6543   2.308   0.023   2.766
 2493W        W 6544   9.029   3.131   2.292
 2494W        W 6545   1.401   0.756   1.388
 2495W        W 6546  10.875   0.022  11.330
 2496W        W 6547   8.022   1.767   2.982
 2497W        W 6548  11.284  11.230   9.266
 2498W        W 6549   9.910   5.248   0.380
 2499W        W 6550   5.524   5.369   0.034
 2500W        W 6551   3.150   9.227   9.627
 2501W        W 6552   3.634   4.954   2.251
 2502W        W 6553   1.784   7.667   9.134
 2503W        W 6554   9.334   8.456   9.890
 2504W        W 6555   8.981   6.381   0.117
 2505W        W 6556  10.615   8.956   1.910
 2506W        W 6557   3.268  11.438   0.477
 2507W        W 6558   1.105   9.375   1.332
 2508W        W 6559   5.295   0.497   3.542
 2509W        W 6560   7.123  10.806   2.626
 2510W        W 6561   2.086   7.228   3.303
 2511W        W 6562   1.710   5.044   3.098
 2512W        W 6563   5.691   5.672  10.064
 2513W        W 6564   0.093   3.588   2.043
 2514W        W 6565   0.892   7.180  11.854
 2515W        W 6566   9.684   7.991  10.934
 2516W        W 6567   1.330   3.635  11.200
 2517W        W 6568   8.276  10.929   2.306
 2518W        W 6569   1.768   4.726  10.564
 2519W        W 6570   9.824   5.671   1.982
 2520W        W 6571   3.460   8.040   9.336
 2521W        W 6572   2.624   4.120   3.089
 2522W        W 6573   6.261   1.151   9.994
 2523W        W 6574   5.498   3.745   2.562
 2524W        W 6575   3.070   8.643  11.419
 2525W        W 6576   9.509   5.744   1.116
 2526W        W 6577   8.344   4.173   9.527
 2527W        W 6578   2.252   0.272  11.976
 2528W        W 6579   6.512   4.020   3.658
 2529W        W 6580   4.715   9.727   0.986
 2530W        W 6581   2.760   6.223   1.409
 2531W        W 6582  10.998   6.546  10.708
 2532W        W 6583   1.698   4.089   0.350
 2533W        W 6584   2.923   0.307  10.711
 2534W        W 6585  10.448   9.443   1.882
 2535W        W 6586   2.747   7.571  11.315
 2536W        W 6587   0.410   3.113   1.380
 2537W        W 6588   4.693  10.387   3.161
 2538W        W 6589   0.044   9.640  10.881
 2539W        W 6590   5.638   6.203   1.817
 2540W        W 6591   6.234   8.087   9.490
 2541W        W 6592   2.640   5.113  11.272
 2542W        W 6593   6.059   2.014  11.377
 2543W        W 6594   1.346   4.171   0.001
 2544W        W 6595   6.586   7.605   1.898
 2545W        W 6596   3.751   9.431   3.841
 2546W        W 6597   0.883   7.219   9.063
 2547W        W 6598   7.554   2.278   2.189
 2548W        W 6599  11.333   6.984   3.141
 2549W        W 6600   7.125  10.512   9.863
 2550W        W 6601   8.914   9.207  10.720
 2551W        W 6602  10.333   2.777   0.835
 2552W        W 6603   8.738   6.837  11.952
 2553W        W 6604  11.084   8.997   1.017
 2554W        W 6605  10.441   0.816   9.858
 2555W        W 6606  10.415   3.685   0.712
 2556W        W 6607   1.857   5.858   9.864
 2557W        W 6608   9.818  10.577   2.691
 2558W        W 6609   9.768   0.921  11.940
 2559W        W 6610  10.861   3.494  10.821
 2560W        W 6611   8.815   5.650   9.121
 2561W        W 6612   5.738   3.659   3.433
 2562W        W 6613   3.756   9.861   8.363
 2563W        W 6614   7.483   9.201   0.235
 2564W        W 6615  10.288   5.291   3.917
 2565W        W 6616   0.183   5.651   3.257
 2566W        W 6617   1.693   5.100  11.506
 2567W        W 6618  10.401   8.109  11.462
 2568W        W 6619   6.832   7.207   3.594
 2569W        W 6620   9.665   5.062  10.383
 2570W        W 6621   0.250   1.928   0.343
 2571W        W 6622   7.064   9.488   0.282
 2572W        W 6623   3.026   4.686   9.643
 2573W        W 6624   6.421   4.727  10.022
 2574W        W 6625   4.764   0.490   9.402
 2575W        W 6626   4.897   4.383  10.346
 2576W        W 6627   7.067   1.791   3.138
 2577W        W 6628   8.936   6.321   9.535
 2578W        W 6629   9.851   9.626   2.606
 2579W        W 6630   4.613   8.355  10.559
 2580W        W 6631   4.842   5.705   1.559
 2581W        W 6632   2.212   2.070   9.604
 2582W        W 6633  11.222   5.298   8.918
 2583W        W 6634   6.475   2.711   2.174
 2584W        W 6635   9.357   8.520   0.756
 2585W        W 6636  10.323   3.112   3.700
 2586W        W 6637   2.911   2.455   9.982
 2587W        W 6638  10.582   3.683   2.960
 2588W        W 6639   3.598   7.563  10.250
 2589W        W 6640   1.752   8.428  10.475
 2590W        W 6641   4.994   3.512   0.933
 2591W        W 6642   0.977   2.630   1.738
 2592W        W 6643   3.821  10.938   9.494
 2593W        W 6644  11.395   2.144   3.459
 2594W        W 6645   8.923   5.100   9.808
 2595W        W 6646   0.025   5.558   3.766
 2596W        W 6647   7.344   6.439   0.758
 2597W        W 6648   1.195   0.929   3.249
 2598W        W 6649   3.145   0.193   2.411
 2599W        W 6650   2.734   6.897   9.917
 2600W        W 6651   8.048   3.818  11.042
 2601W        W 6652   9.707   5.227   2.552
 2602W        W 6653   7.227  10.035   8.972
 2603W        W 6654   2.281   5.762   9.605
 2604W        W 6655   3.598   1.773   9.364
 2605W        W 6656  10.974   4.809   9.371
 2606W        W 6657   8.517  11.229   3.737
 2607W        W 6658   3.902   9.323   1.327
 2608W        W 6659   8.035   9.200  10.186
 2609W        W 6660   0.950   5.349   9.097
 2610W        W 6661   0.360   7.684   1.980
 2611W        W 6662   1.642  11.363   2.461
 2612W        W 6663   9.321  10.366   1.351
 2613W        W 6664   0.858   4.844   9.100
 2614W        W 6665   3.262  10.291   0.856
 2615W        W 6666   7.205   2.255   9.166
 2616W        W 6667   9.512   1.500  10.327
 2617W        W 6668   3.791   5.076   1.236
 2618W        W 6669  10.349   7.915  10.304
 2619W        W 6670  11.000   9.333   2.071
 2620W        W 6671   1.806   0.434   0.672
 2621W        W 6672   2.858   9.921  11.957
 2622W        W 6673   0.503   3.210   2.718
 2623W        W 6674   3.901   5.606   1.603
 2624W        W 6675   9.225  10.617  11.703
 2625W        W 6676   2.177   1.740   0.863
 2626W        W 6677   2.236   6.178   2.461
 2627W        W 6678  10.959   7.521   3.482
 2628W        W 6679   7.258   5.665  10.737
 2629W        W 6680   2.937   9.039   2.857
 2630W        W 6681   1.347   5.477  11.143
 2631W        W 6682   5.631   0.726   8.934
 2632W        W 6683   0.405  11.001   2.125
 2633W        W 6684   9.495  10.598   9.341
 2634W        W 6685  10.331   2.294   1.671
 2635W        W 6686   3.132   1.658   0.918
 2636W        W 6687   4.524   3.648   9.905
 2637W        W 6688   7.925   7.111   1.660
 2638W        W 6689   2.051   4.229   8.856
 2639W        W 6690   0.415   4.771  10.264
 2640W        W 6691  10.745   8.634   0.904
 2641W        W 6692   5.403   2.819   1.917
 2642W        W 6693   3.135   7.467  11.006
 2643W        W 6694   5.584   4.099   1.221
 2644W        W 6695   4.570  11.317  10.582
 2645W        W 6696   0.976   9.758  11.957
 2646W        W 6697   3.945  10.623   1.519
 2647W        W 6698   5.067  10.324  10.990
 2648W        W 6699   4.179  10.630   3.408
 2649W        W 6700   4.729   4.293  10.819
 2650W        W 6701  10.812   1.184   2.059
 2651W        W 6702   2.480   7.592   3.289
 2652W        W 6703  10.358  10.358   9.152
 2653W        W 6704   4.696   8.847   1.406
 2654W        W 6705   4.736   3.912   1.522
 2655W        W 6706   7.726   3.987   2.791
 2656W        W 6707   6.997   3.806   0.758
 2657W        W 6708   4.235   3.281   2.295
 2658W        W 6709   5.755   7.141   0.691
 2659W        W 6710   9.501  10.570   0.499
 2660W        W 6711   9.517   1.013   0.805
 2661W        W 6712  10.329   8.364  10.590
 2662W        W 6713   0.436   6.930  11.235
 2663W        W 6714   7.969   1.712  10.084
 2664W        W 6715   8.425   5.060   8.652
 2665W        W 6716   9.848   7.627   9.911
 2666W        W 6717   1.538  10.405   3.226
 2667W        W 6718   0.857   0.997  10.321
 2668W        W 6719  10.321  11.318   3.559
 2669W        W 6720   6.209   9.925  10.069
 2670W        W 6721   9.097   8.909   1.047
 2671W        W 6722   9.816  10.350   1.235
 2672W        W 6723   6.128   2.955  11.222
 2673W        W 6724   8.894   1.022  11.011
 2674W        W 6725  11.222   0.231   2.229
 2675W        W 6726   2.801   5.082   2.671
 2676W        W 6727   8.384  11.266   2.755
 2677W        W 6728   3.224  11.007   1.785
 2678W        W 6729   1.449   3.304   9.455
 2679W        W 6730   9.515   3.674  11.651
 2680W        W 6731   9.819   2.157  10.505
 2681W        W 6732   7.333   8.966   2.170
 2682W        W 6733   7.593  11.217   8.994
 2683W        W 6734   5.789   7.775   3.253
 2684W        W 6735   7.995   0.474  10.475
 2685W        W 6736   6.957   0.475   2.275
 2686W        W 6737   1.013   9.239  11.878
 2687W        W 6738   4.745   0.976  11.467
 2688W        W 6739   7.437   0.074   2.636
 2689W        W 6740   6.945   6.692   0.904
 2690W        W 6741   6.087   7.435   2.699
 2691W        W 6742   6.613   2.665   0.661
 2692W        W 6743   6.675   3.057   2.989
 2693W        W 6744   7.172   8.953   2.648
 2694W        W 6745   6.568   8.351   1.398
 2695W        W 6746   4.775   2.912   8.699
 2696W        W 6747   8.497   6.069   0.203
 2697W        W 6748   3.808   9.872  10.716
 2698W        W 6749  10.429   1.576   1.351
 2699W        W 6750   2.370   6.062  10.496
 2700W        W 6751   0.291   4.512   8.906
 2701W        W 6752   8.440   7.126  11.653
 2702W        W 6753   1.408  10.073   1.829
 2703W        W 6754   5.629   1.464   9.406
 2704W        W 6755   3.747   0.847   9.480
 2705W        W 6756   9.785  11.256   1.386
 2706W        W 6757  10.575   2.646   9.612
 2707W        W 6758   8.117   0.520   0.861
 2708W        W 6759   8.678   3.171   3.531
 2709W        W 6760   9.922   2.370   1.342
 2710W        W 6761   7.623   9.826  10.286
 2711W        W 6762   3.327   0.694   2.311
 2712W        W 6763   6.225   1.831   1.781
 2713W        W 6764   3.317   7.805   3.223
 2714W        W 6765   5.043   9.135  10.275
 2715W        W 6766   2.429   5.169   9.037
 2716W        W 6767   7.765   5.561   3.968
 2717W        W 6768   4.087   5.734  10.416
 2718W        W 6769   2.229   4.657  10.809
 2719W        W 6770   0.604  10.237   9.426
 2720W        W 6771   8.185   6.800   9.057
 2721W        W 6772   6.126   9.611   9.232
 2722W        W 6773   5.871   3.893  10.269
 2723W        W 6774   8.994   8.179   2.786
 2724W        W 6775   0.198   6.044   2.662
 2725W        W 6776  11.140   8.837  10.509
 2726W        W 6777   5.392   0.361   1.846
 2727W        W 6778   0.425   7.848  10.495
 2728W        W 6779  10.960   9.616   3.600
 2729W        W 6780   0.427   3.908   1.806
 2730W        W 6781  11.349   9.859   9.834
 2731W        W 6782   0.718   5.515   1.467
 2732W        W 6783   0.525   8.434   9.589
 2733W        W 6784   0.633   1.904  10.661
 2734W        W 6785   7.195  10.063  10.092
 2735W        W 6786   4.545   5.811  10.154
 2736W        W 6787   7.852  10.888  10.164
 2737W        W 6788  10.071   6.559   3.300
 2738W        W 6789   7.395   0.833   1.116
 2739W        W 6790   5.588   5.151   9.725
 2740W        W 6791   9.916   3.977   2.566
 2741W        W 6792   5.606   8.458  10.469
 2742W        W 6793   8.491  10.168   1.880
 2743W        W 6794   5.209   4.947  11.133
 2744W        W 6795  10.938   8.192   9.049
 2745W        W 6796   7.480   3.478  11.912
 2746W        W 6797   7.141   5.152  10.849
 2747W        W 6798  11.338  10.265  11.532
 2748W        W 6799   0.979   1.135   1.808
 2749W        W 6800   2.216   6.458  10.918
 2750W        W 6801   5.212   4.124  10.788
 2751W        W 6802   8.895   2.329  10.496
 2752W        W 6803   2.899   7.059   2.232
 2753W        W 6804   7.801   3.086   0.093
 2754W        W 6805   8.103  11.357   0.422
 2755W        W 6806   7.528   1.202   9.489
 2756W        W 6807   4.319   8.275   2.039
 2757W        W 6808   2.643   6.721   1.384
 2758W        W 6809   6.499   3.259   1.491
 2759W        W 6810   2.400   4.702   8.837
 2760W        W 6811   7.083   9.916  12.000
 2761W        W 6812  11.141   5.711   0.723
 2762W        W 6813   5.937  10.077   1.868
 2763W        W 6814   9.603   7.957   2.370
 2764W        W 6815   5.246   4.756  10.202
 2765W        W 6816  10.038   1.339   9.023
 2766W        W 6817   5.593   0.388   0.002
 2767W        W 6818   4.827  10.377   0.336
 2768W        W 6819   7.599   8.161   1.104
 2769W        W 6820   2.233   6.121   0.341
 2770W        W 6821   2.811   9.061   1.955
 2771W        W 6822   2.246   0.413   1.513
 2772W        W 6823   2.181   4.682   2.373
 2773W        W 6824   4.026   2.044  11.904
 2774W        W 6825  10.564   1.221   2.685
 2775W        W 6826  10.215   5.062   9.088
 2776W        W 6827   7.741   4.512   2.846
 2777W        W 6828   2.136   5.064  11.228
 2778W        W 6829   3.952  10.684   0.353
 2779W        W 6830   8.662   7.891   3.195
 2780W        W 6831   2.897   9.636   1.218
 2781W        W 6832   5.527   1.242   2.454
 2782W        W 6833   7.687   4.671   8.487
 2783W        W 6834   2.549   4.223   9.455
 2784W        W 6835   7.009   7.577   0.808
 2785W        W 6836  10.272   4.553   0.972
 2786W        W 6837  10.384   8.687   2.294
 2787W        W 6838   4.619   2.763  11.880
 2788W        W 6839   6.499   2.200  10.223
 2789W        W 6840   8.315   3.164  11.959
 2790W        W 6841   8.209  10.536   8.896
 2791W        W 6842   5.786   9.822  10.916
 2792W        W 6843   8.479   9.141   0.222
 2793W        W 6844   5.322   2.264   1.801
 2794W        W 6845   8.515   4.623   1.361
 2795W        W 6846   5.529   8.926   2.344
 2796W        W 6847   5.890   1.198  10.792
 2797W        W 6848   9.762   4.502  11.213
 2798W        W 6849   6.527   0.596   2.754
 2799W        W 6850   2.913   3.255   1.308
 2800W        W 6851   7.212   9.374   3.414
 2801W        W 6852   3.220   6.270  10.261
 2802W        W 6853   5.068   6.489   1.792
 2803W        W 6854   4.469   7.967   9.353
 2804W        W 6855   5.701   7.474   9.458
 2805W        W 6856   9.435   3.376   9.770
 2806W        W 6857   9.520   1.191  11.294
 2807W        W 6858   3.712   4.610   2.608
 2808W        W 6859   5.483   3.691  10.528
 2809W        W 6860  10.108   7.631  11.778
 2810W        W 6861   0.784   6.918   1.743
 2811W        W 6862   0.419   7.935   0.740
 2812W        W 6863   5.672   0.761  11.487
 2813W        W 6864  11.055   8.273  10.192
 2814W        W 6865   9.936   0.237   2.263
 2815W        W 6866   9.833  11.323   9.055
 2816W        W 6867   8.605   9.288   1.911
 2817W        W 6868   7.181   1.887   8.804
 2818W        W 6869   4.706   9.088   8.946
 2819W        W 6870  10.101   4.670   9.405
 2820W        W 6871   1.359   4.175   1.467
 2821W        W 6872   7.181   0.357   3.404
 2822W        W 6873   2.438   0.990   2.229
 2823W        W 6874   1.342  11.431   3.530
 2824W        W 6875   2.972   7.069   8.118
 2825W        W 6876   8.497   0.217   9.022
 2826W        W 6877   0.643   5.776   9.062
 2827W        W 6878   9.992   9.815   8.780
 2828W        W 6879   6.644   1.256   2.437
 2829W        W 6880   4.558   1.814   9.051
 2830W        W 6881   0.276  11.286  11.626
 2831W        W 6882   9.023   6.846   0.389
 2832W        W 6883   6.260   8.991   0.778
 2833W        W 6884  10.658   7.019   2.196
 2834W        W 6885   8.980   9.997   1.947
 2835W        W 6886   3.711   0.630  11.149
 2836W        W 6887   7.872   1.651  11.943
 2837W        W 6888   3.124   1.126   2.513
 2838W        W 6889  11.384   1.275   8.801
 2839W        W 6890  10.217   6.137   2.714
 2840W        W 6891   0.452   3.547  11.131
 2841W        W 6892   8.580  10.228   3.881
 2842W        W 6893   5.210  10.602   1.873
 2843W        W 6894   6.615  10.937  11.519
 2844W        W 6895  10.941   6.849   2.651
 2845W        W 6896   7.496  10.500  11.818
 2846W        W 6897   5.616   6.120   9.364
 2847W        W 6898   1.794   6.014   2.732
 2848W        W 6899   2.374   7.048   2.302
 2849W        W 6900   0.266   9.924  11.565
 2850W        W 6901   2.242   3.888   2.789
 2851W        W 6902  11.444   8.447   3.308
 2852W        W 6903   7.125   6.430   9.638
 2853W        W 6904  10.460  10.565  11.537
 2854W        W 6905   1.061   7.434   2.227
 2855W        W 6906   3.970   3.707   2.174
 2856W        W 6907   8.961   6.353  10.476
 2857W        W 6908   6.565   8.526  11.664
 2858W        W 6909  10.449   1.944   2.354
 2859W        W 6910   1.291   3.340  10.335
 2860W        W 6911   6.064   7.141   2.236
 2861W        W 6912   4.531   3.937   9.494
 2862W        W 6913   0.869  10.719   1.985
 2863W        W 6914   0.409   8.855   0.460
 2864W        W 6915   3.780   2.169  10.085
 2865W        W 6916   7.102   0.415   9.967
 2866W        W 6917  11.058   3.810   1.939
 2867W        W 6918   7.126   0.341  11.006
 2868W        W 6919   7.549   6.663   3.836
 2869W        W 6920   9.622   7.806   0.039
 2870W        W 6921   5.005   8.188  11.188
 2871W        W 6922   4.903   7.994   2.541
 2872W        W 6923   1.575   5.993   8.570
 2873W        W 6924   6.122   9.637   2.059
 2874W        W 6925   1.757   4.164   1.808
 2875W        W 6926   1.067   7.360   8.582
 2876W        W 6927   5.345  10.293   0.413
 2877W        W 6928   0.501   9.943   0.028
 2878W        W 6929   8.348   8.679  11.941
 2879W        W 6930   8.662   5.632   3.076
 2880W        W 6931   5.582   4.715  11.445
 2881W        W 6932   0.758   1.877   0.454
 2882W        W 6933  10.100   4.295   0.424
 2883W        W 6934   6.636   1.914   0.551
 2884W        W 6935   5.328   7.402  11.399
 2885W        W 6936   5.464   9.122   9.491
 2886W        W 6937   5.640   0.824   3.242
 2887W        W 6938  10.356   4.235   2.541
 2888W        W 6939   2.067   8.789  10.836
 2889W        W 6940   6.052   7.104   1.323
 2890W        W 6941   4.799   3.837   3.680
 2891W        W 6942   5.914   2.337   2.668
 2892W        W 6943   9.338   3.770   9.067
 2893W        W 6944   1.720   4.664   1.992
 2894W        W 6945   4.766   2.270   9.104
 2895W        W 6946   2.190   6.635   1.143
 2896W        W 6947   0.035   7.532  10.579
 2897W        W 6948   3.954   9.328   2.874
 2898W        W 6949   1.999   4.162   2.396
 2899W        W 6950   5.132   2.305   4.037
 2900W        W 6951  10.071   2.206  10.042
 2901W        W 6952   3.402  10.239   2.172
 2902W        W 6953   3.722  10.811   3.130
 2903W        W 6954   7.050   9.139  10.566
 2904W        W 6955   7.998   2.807   2.284
 2905W        W 6956   7.073   3.809  10.808
 2906W        W 6957  10.854   2.634   0.237
 2907W        W 6958   7.174   9.578  10.340
 2908W        W 6959   2.267   9.975   2.301
 2909W        W 6960   4.097   6.490   2.002
 2910W        W 6961   7.585   4.718   1.869
 2911W        W 6962   0.392   1.383   9.023
 2912W        W 6963   0.896   3.754   2.012
 2913W        W 6964  11.327   6.263   2.357
 2914W        W 6965   6.798   8.926   2.229
 2915W        W 6966   2.098   0.724  10.846
 2916W        W 6967   2.902   4.680   8.701
 2917W        W 6968  11.040  10.409   9.787
 2918W        W 6969   7.575   3.615   9.945
 2919W        W 6970   0.723   3.099  11.877
 2920W        W 6971   7.635  10.336   3.238
 2921W        W 6972   4.190   3.394   1.777
 2922W        W 6973  10.833   9.486   9.946
 2923W        W 6974   9.573   8.372   3.148
 2924W        W 6975  11.057   4.545   8.892
 2925W        W 6976   8.330   9.503   1.009
 2926W        W 6977   0.973   0.144   9.708
 2927W        W 6978   9.053   4.757   0.278
 2928W        W 6979   6.712   3.796   1.432
 2929W        W 6980   5.170   5.986   1.898
 2930W        W 6981   0.811   3.047   3.075
 2931W        W 6982  10.390   5.712   8.441
 2932W        W 6983   1.001   7.951   0.098
 2933W        W 6984   7.559   3.650  10.960
 2934W        W 6985  11.247   0.256  10.551
 2935W        W 6986   1.905   8.373   2.665
 2936W        W 6987   1.813   3.695   1.582
 2937W        W 6988   8.428   4.777   0.021
 2938W        W 6989   4.759  11.204  11.153
 2939W        W 6990   0.913   3.115   1.527
 2940W        W 6991   7.319  10.013   2.803
 2941W        W 6992   6.918   4.144  11.513
 2942W        W 6993   3.310   2.723   9.615
 2943W        W 6994   1.125   1.929  10.850
 2944W        W 6995   0.651   9.319   9.495
 2945W        W 6996   1.792   8.316   0.350
 2946W        W 6997   7.390   4.848   1.411
 2947W        W 6998   5.415   7.032  11.757
 2948W        W 6999   4.679   3.458   1.326
 2949W        W 7000   0.805   5.095  10.435
 2950W        W 7001   9.942   3.215   3.342
 2951W        W 7002   1.753   8.146   9.370
 2952W        W 7003   3.022   4.782   3.432
 2953W        W 7004   9.654   2.001   0.688
 2954W        W 7005   0.770  10.109   0.886
 2955W        W 7006   2.752   8.364   9.627
 2956W        W 7007   3.744   7.965   9.950
 2957W        W 7008   8.726   3.023   2.721
 2958W        W 7009  10.592   8.207   9.956
 2959W        W 7010   0.448   1.743   3.269
 2960W        W 7011   1.723   9.954   9.818
 2961W        W 7012   2.736   4.776   3.874
 2962W        W 7013   9.958   9.922   9.846
 2963W        W 7014   0.023   0.192   1.350
 2964W        W 7015   6.638   4.534   1.947
 2965W        W 7016   1.706   0.007  11.558
 2966W        W 7017   5.019   4.322   9.471
 2967W        W 7018   5.124   9.000   3.531
 2968W        W 7019   8.202   3.058   3.666
 2969W        W 7020   7.703   6.586   8.968
 2970W        W 7021   7.163   7.593   2.756
 2971W        W 7022  10.300  10.396   2.709
 2972W        W 7023   7.175   4.231  11.051
 2973W        W 7024   9.742   3.687   3.502
 2974W        W 7025   2.767   0.733   1.646
 2975W        W 7026   8.625   9.048   0.799
 2976W        W 7027   5.016   3.149   1.827
 2977W        W 7028   3.103   0.748   1.258
 2978W        W 7029   4.832  10.689  11.229
 2979W        W 7030   2.211   5.230   4.219
 2980W        W 7031   7.122   0.502   0.800
 2981W        W 7032   2.801   6.108  11.495
 2982W        W 7033   2.125   0.749   9.965
 2983W        W 7034   1.823   9.981   8.879
 2984W        W 7035  10.716   8.622  10.362
 2985W        W 7036   0.506   5.027   8.368
 2986W        W 7037   4.154   2.665   9.520
 2987W        W 7038   7.176   6.330   3.953
 2988W        W 7039   7.496   9.080   1.628
 2989W        W 7040   3.215   6.576  10.743
 2990W        W 7041   0.998   4.423  11.206
 2991W        W 7042   2.254   3.751  10.241
 2992W        W 7043  11.320  10.945   3.326
 2993W        W 7044   9.778  10.881   3.098
 2994W        W 7045   5.958   0.929  10.332
 2995W        W 7046   1.261   7.659   0.864
 2996W        W 7047   6.887   7.037   1.573
 2997W        W 7048  10.780   6.074  10.327
 2998W        W 7049   8.666   0.452   9.460
 2999W        W 7050   4.730   4.785  10.995
 3000W        W 7051   9.686   3.620   1.668
 3001W        W 7052   9.400   6.442   2.089
 3002W        W 7053   5.773   9.925   2.366
 3003W        W 7054   8.484   7.826  10.978
 3004W        W 7055   4.681   3.640   0.537
 3005W        W 7056   3.619   3.492  10.407
 3006W        W 7057   9.146   2.768  10.337
 3007W        W 7058   4.259   7.772   0.401
 3008W        W 7059   0.674   1.571   9.505
 3009W        W 7060  10.477   0.389   0.531
 3010W        W 7061   0.266   5.861   9.420
 3011W        W 7062   1.118   8.257   8.911
 3012W        W 7063   9.088   1.722  11.456
 3013W        W 7064   8.918   9.099   1.504
 3014W        W 7065   4.607   0.244   0.891
 3015W        W 7066   1.352   3.689   0.203
 3016W        W 7067   9.281   5.631   3.265
 3017W        W 7068   8.406   9.011   9.870
 3018W        W 7069   4.008   7.449   0.732
 3019W        W 7070   9.034   2.229   1.163
 3020W        W 7071   8.388   4.361   2.234
 3021W        W 7072   6.034  10.488   0.665
 3022W        W 7073  11.280   1.809   1.642
 3023W        W 7074   7.107   4.828   2.112
 3024W        W 7075   2.128   4.228   3.165
 3025W        W 7076   3.287  10.821  10.368
 3026W        W 7077   0.861   5.348  11.364
 3027W        W 7078   5.523   2.793   9.999
 3028W        W 7079   1.812   1.698   3.073
 3029W        W 7080   4.469   7.565   0.909
 3030W        W 7081   1.763   6.039   9.387
 3031W        W 7082   4.202   7.590  11.858
 3032W        W 7083  11.174   9.182   3.367
 3033W        W 7084   4.015   6.663  10.374
 3034W        W 7085   6.183   7.921   2.639
 3035W        W 7086   5.447   1.879   8.512
 3036W        W 7087   0.561   3.421   1.786
 3037W        W 7088   3.608   1.249   3.293
 3038W        W 7089  11.037   1.076   2.485
 3039W        W 7090   4.644   8.064   0.193
 3040W        W 7091   7.449   4.018   9.675
 3041W        W 7092   7.070   6.736   3.614
 3042W        W 7093   8.704   6.461   3.170
 3043W        W 7094   5.980   5.960   0.370
 3044W        W 7095  10.464  10.784   1.873
 3045W        W 7096   4.789   1.985  11.514
 3046W        W 7097   1.476  10.333   9.094
 3047W        W 7098   8.048   3.276   1.601
 3048W        W 7099   6.316  10.712   2.322
 3049W        W 7100   5.506   8.376   9.108
 3050W        W 7101   3.353   9.612   4.144
 3051W        W 7102   2.124   5.580   3.869
 3052W        W 7103   3.991  11.037   1.204
 3053W        W 7104   7.013   3.235   0.070
 3054W        W 7105   7.876   0.758  10.064
 3055W        W 7106  10.154  10.303   8.646
 3056W        W 7107  11.480   4.116   2.017
 3057W        W 7108  10.066   3.470   2.893
 3058W        W 7109   6.744   7.330  11.920
 3059W        W 7110   2.623   0.879   9.047
 3060W        W 7111   2.548   9.659   2.585
 3061W        W 7112   0.860   6.819   2.733
 3062W        W 7113   1.409   1.233  11.934
 3063W        W 7114  11.356   1.321  11.541
 3064W        W 7115   2.039   4.864   9.843
 3065W        W 7116   3.249   5.072   8.686
 3066W        W 7117   5.048   3.906  10.341
 3067W        W 7118   1.236   1.246   1.367
 3068W        W 7119   9.944   2.262   9.039
 3069W        W 7120   7.472   4.972   9.663
 3070W        W 7121   8.986   9.152   2.993
 3071W        W 7122   2.227   9.978   9.851
 3072W        W 7123   4.604  11.099   2.382
 3073W        W 7124   6.685   7.800   0.089
 3074W        W 7125   1.713   8.689  11.391
 3075W        W 7126   8.558  10.708   1.934
 3076W        W 7127   9.976   1.469   1.619
 3077W        W 7128   7.862   3.676   2.407
 3078W        W 7129  10.815   3.112   0.044
 3079W        W 7130   1.584   7.399   3.440
 3080W        W 7131   7.554   6.575   2.458
 3081W        W 7132   9.596   6.589   3.086
 3082W        W 7133   8.434   0.634   1.718
 3083W        W 7134   8.349   0.128  10.369
 3084W        W 7135  11.414   8.093   8.784
 3085W        W 7136   3.063   7.005   2.890
 3086W        W 7137   9.887   0.988   2.941
 3087W        W 7138   2.118   1.284  10.003
 3088W        W 7139   1.684   4.570   2.476
 3089W        W 7140   3.747  10.072   9.777
 3090W        W 7141   0.753  10.559   0.582
 3091W        W 7142   5.207  11.055   3.457
 3092W        W 7143   0.050   8.539   1.767
 3093W        W 7144   7.985   1.947   1.238
 3094W        W 7145   1.192   3.214   0.079
 3095W        W 7146   7.562  11.487   0.661
 3096W        W 7147  11.206   2.249   1.359
 3097W        W 7148   6.778   8.639  10.720
 3098W        W 7149   3.805   3.725   0.732
 3099W        W 7150   8.713   1.393   9.267
 3100W        W 7151  10.930   5.076   3.226
 3101W        W 7152   9.376   8.411  10.969
 3102W        W 7153   4.729   1.661   2.882
 3103W        W 7154   6.306   7.261   3.569
 3104W        W 7155   5.991   6.226   2.215
 3105W        W 7156   0.311   8.819   8.778
 3106W        W 7157   2.959  10.924  10.777
 3107W        W 7158   6.853   2.342   0.335
 3108W        W 7159  11.236   0.738   3.664
 3109W        W 7160   4.067   7.063  11.691
 3110W        W 7161   9.771   1.441  11.984
 3111W        W 7162   1.477   7.787   3.093
 3112W        W 7163   3.867   2.736  10.855
 3113W        W 7164   3.315   4.726   9.072
 3114W        W 7165   2.251  10.559   3.007
 3115W        W 7166   5.534   3.572   3.895
 3116W        W 7167   9.474   3.331   9.269
 3117W        W 7168   6.206  10.689   8.974
 3118W        W 7169   1.331   3.621   2.325
 3119W        W 7170   1.011   3.187   9.170
 3120W        W 7171   6.272   8.777  10.839
 3121W        W 7172   5.487   5.561  11.409
 3122W        W 7173   1.813   2.810   2.245
 3123W        W 7174   1.011   8.466   0.731
 3124W        W 7175   3.794   9.472   2.419
 3125W        W 7176   5.199   2.556  10.294
 3126W        W 7177  10.622   4.428   0.259
 3127W        W 7178   4.008   4.918   8.202
 3128W        W 7179   2.782   4.615   9.197
 3129W        W 7180   1.645   5.164  10.317
 3130W        W 7181   8.894   9.621  11.919
 3131W        W 7182   9.981   0.760  10.557
 3132W        W 7183   2.880  10.883   2.597
 3133W        W 7184   8.897  10.996  10.878
 3134W        W 7185   7.094   8.451   2.849
 3135W        W 7186   4.349   8.048   1.395
 3136W        W 7187   4.201   9.775   2.288
 3137W        W 7188   0.960   9.342   9.931
 3138W        W 7189   1.221   8.782   8.824
 3139W        W 7190   9.855   3.620   9.937
 3140W        W 7191   4.203   3.604   9.234
 3141W        W 7192   9.356  10.021  10.370
 3142W        W 7193   8.870   9.416   8.704
 3143W        W 7194   7.653   8.132   2.520
 3144W        W 7195   1.349   8.368   1.488
 3145W        W 7196   8.643   2.626  11.040
 3146W        W 7197  11.334   9.358   1.292
 3147W        W 7198  10.715   6.110   0.973
 3148W        W 7199   1.905   7.905  10.536
 3149W        W 7200   1.952   0.861   2.089
 3150W        W 7201  10.401   9.391   2.762
 3151W        W 7202   2.767  11.291   9.337
 3152W        W 7203   4.189   0.924  11.828
 3153W        W 7204  10.247   8.599   0.992
 3154W        W 7205   6.638   7.673   2.778
 3155W        W 7206   3.578   0.492   1.316
 3156W        W 7207  10.739   4.831  11.233
 3157W        W 7208   3.186   6.406   0.300
 3158W        W 7209   6.713  11.418  11.344
 3159W        W 7210   1.132   1.615   8.426
 3160W        W 7211   3.802   8.803  11.451
 3161W        W 7212  10.462   4.715   1.421
 3162W        W 7213   5.400   6.519  11.814
 3163W        W 7214   5.166   0.761  11.265
 3164W        W 7215   1.302  11.040   0.377
 3165W        W 7216   3.201   3.880   1.359
 3166W        W 7217  11.278   5.788   8.689
 3167W        W 7218  10.440   3.154   9.036
 3168W        W 7219   1.431   0.107   3.025
 3169W        W 7220   6.284   7.680   3.145
 3170W        W 7221   7.857   4.149   0.708
 3171W        W 7222   6.723   3.657   3.258
 3172W        W 7223   3.856   6.577  11.796
 3173W        W 7224  10.679   5.661  11.441
 3174W        W 7225   4.773   9.888   9.711
 3175W        W 7226   4.053   0.927   1.207
 3176W        W 7227   9.595   4.279   3.299
 3177W        W 7228   8.507   8.689  10.554
 3178W        W 7229   0.068   8.992  10.256
 3179W        W 7230   0.749   6.368   0.866
 3180W        W 7231   4.268   9.029   3.168
 3181W        W 7232   6.277   0.128   0.515
 3182W        W 7233   5.850   3.335   3.060
 3183W        W 7234   2.262   5.304   2.978
 3184W        W 7235   6.451   5.871  10.543
 3185W        W 7236  10.379   7.200   9.997
 3186W        W 7237   9.813   5.761   0.501
 3187W        W 7238   3.526   8.466   0.642
 3188W        W 7239   8.366  10.021   0.709
 3189W        W 7240   9.190   6.492   3.370
 3190W        W 7241   9.233   8.078   8.570
 3191W        W 7242   1.979   2.723   0.211
 3192W        W 7243   1.665  10.010  10.331
 3193W        W 7244   4.484  10.938   1.263
 3194W        W 7245   6.227   5.728  10.088
 3195W        W 7246  10.544   3.693  11.799
 3196W        W 7247  10.011   1.808   8.760
 3197W        W 7248   9.957   6.146   3.586
 3198W        W 7249   6.968   1.310  10.973
 3199W        W 7250   0.342   2.911   3.220
 3200W        W 7251   8.492   5.835   0.677
 3201W        W 7252   8.861   5.461   1.448
 3202W        W 7253   3.312   2.718  10.175
 3203W        W 7254   4.657   6.723   9.134
 3204W        W 7255   8.479   7.457   9.788
 3205W        W 7256   3.697  10.173   8.980
 3206W        W 7257  10.689   9.484   9.328
 3207W        W 7258  11.327   8.366   0.255
 3208W        W 7259  10.899   7.018  10.324
 3209W        W 7260   3.574   1.371  11.171
 3210W        W 7261   2.108   4.440   3.628
 3211W        W 7262   3.146  10.366  11.140
 3212W        W 7263  11.242   9.382   0.208
 3213W        W 7264   8.079   7.965   0.365
 3214W        W 7265   5.794   0.552  10.653
 3215W        W 7266   0.447   8.169   1.186
 3216W        W 7267   1.292   4.332   1.941
 3217W        W 7268   2.069   5.120   8.101
 3218W        W 7269   4.022   7.941   2.336
 3219W        W 7270   7.005  10.820   1.713
 3220W        W 7271   9.443   9.841   1.743
 3221W        W 7272   3.378   4.273   2.447
 3222W        W 7273   1.646   0.547   9.098
 3223W        W 7274   0.329   3.480   8.869
 3224W        W 7275   8.072   7.668   9.997
 3225W        W 7276   9.163   1.455  11.029
 3226W        W 7277   0.799   1.272   1.035
 3227W        W 7278   3.771  11.011   2.584
 3228W        W 7279   7.366   2.436  11.337
 3229W        W 7280   4.095   4.697   2.298
 3230W        W 7281   2.883  10.258   3.392
 3231W        W 7282  10.924   9.618   1.130
 3232W        W 7283   3.087  10.444  10.642
 3233W        W 7284   5.816   1.689   2.448
 3234W        W 7285   2.810  10.088   0.988
 3235W        W 7286   9.735   4.778   3.223
 3236W        W 7287  10.829  11.323   2.670
 3237W        W 7288   6.714   1.258  11.447
 3238W        W 7289  11.116  10.401   2.346
 3239W        W 7290   0.997  11.274  10.458
 3240W        W 7291   9.292  11.305   1.406
 3241W        W 7292   0.926   6.987  11.377
 3242W        W 7293   9.346   1.936  10.537
 3243W        W 7294   5.454   1.419  10.973
 3244W        W 7295   1.743   2.072   2.728
 3245W        W 7296   7.824  10.115   2.806
 3246W        W 7297   3.224   7.311   9.067
 3247W        W 7298   4.847   8.226   2.091
 3248W        W 7299   2.809  10.595   1.015
 3249W        W 7300   8.654   2.116   1.813
 3250W        W 7301   5.699   5.119  11.087
 3251W        W 7302   0.642   3.303   0.972
 3252W        W 7303   6.571   1.256   1.936
 3253W        W 7304   0.817   4.019   9.462
 3254W        W 7305   6.994   9.994  10.562
 3255W        W 7306  10.877   8.578   2.211
 3256W        W 7307   3.608   7.540  10.774
 3257W        W 7308   0.273   2.635   0.543
 3258W        W 7309   8.998   1.843   1.491
 3259W        W 7310   0.467   9.484   9.937
 3260W        W 7311   0.699   5.793  11.582
 3261W        W 7312   1.459   1.963   0.266
 3262W        W 7313   9.492   2.854  11.988
 3263W        W 7314   4.893   9.560   1.438
 3264W        W 7315   2.494   7.562  10.220
 3265W        W 7316   6.544   6.705  10.773
 3266W        W 7317   0.397   4.795   9.339
 3267W        W 7318   8.926  10.006  10.652
 3268W        W 7319   2.890   7.206   1.417
 3269W        W 7320   7.075   3.585   1.769
 3270W        W 7321   0.992   0.961  11.788
 3271W        W 7322   9.938   1.244  11.569
 3272W        W 7323   1.682   5.698  10.828
 3273W        W 7324   5.419  11.309  10.350
 3274W        W 7325  10.546   4.610   9.113
 3275W        W 7326   0.312   7.153  10.801
 3276W        W 7327   5.425  10.400   9.778
 3277W        W 7328   1.408   0.808  11.528
 3278W        W 7329   9.810   9.326  10.118
 3279W        W 7330   2.684   2.645   9.154
 3280W        W 7331   4.971   5.361  11.320
 3281W        W 7332   1.712   4.774  11.906
 3282W        W 7333   8.890   2.918   0.794
 3283W        W 7334   4.519   7.847   2.220
 3284W        W 7335   0.011   0.737   1.398
 3285W        W 7336   6.697   7.975  10.478
 3286W        W 7337  11.275   1.567   9.791
 3287W        W 7338   4.870   9.353   9.856
 3288W        W 7339   1.860   8.887   2.744
 3289W        W 7340   8.218   8.500   1.383
 3290W        W 7341   4.145   4.707   1.296
 3291W        W 7342   0.834   9.791   9.542
 3292W        W 7343   0.941   6.421   2.411
 3293W        W 7344  10.372   8.351   2.786
 3294W        W 7345  10.925   5.699   1.199
 3295W        W 7346  10.086   5.233   2.182
 3296W        W 7347   5.775   1.210   2.928
 3297W        W 7348   9.596   8.870  11.819
 3298W        W 7349   1.206   6.716   9.221
 3299W        W 7350   5.199   5.094   0.989
 3300W        W 7351   1.265   2.471   3.357
 3301W        W 7352   5.294   2.539   2.800
 3302W        W 7353   2.319   4.771   0.661
 3303W        W 7354   1.977  10.878  10.771
 3304W        W 7355   2.201  11.259   0.751
 3305W        W 7356   0.289   9.017   9.757
 3306W        W 7357   1.216  11.273   9.998
 3307W        W 7358  11.259   6.279   8.949
 3308W        W 7359   3.645   1.773   3.177
 3309W        W 7360   3.227   8.488   9.404
 3310W        W 7361   0.064   2.927   9.535
 3311W        W 7362   6.405   3.335   0.312
 3312W        W 7363   5.042  10.814   2.465
 3313W        W 7364   2.818   0.240   9.585
 3314W        W 7365   0.817   5.810   0.078
 3315W        W 7366   2.016   7.991  11.041
 3316W        W 7367   8.826   0.784   9.828
 3317W        W 7368   2.355   1.402   2.884
 3318W        W 7369   9.495   7.133   0.348
 3319W        W 7370   7.380   8.936   8.381
 3320W        W 7371   0.071  10.548   1.901
 3321W        W 7372   1.792  10.306  10.786
 3322W        W 7373   0.784   7.310  10.987
 3323W        W 7374   8.145   4.255   2.658
 3324W        W 7375   0.452   2.716   2.334
 3325W        W 7376   8.262   6.686  11.878
 3326W        W 7377   6.927   2.692   1.765
 3327W        W 7378   5.718   5.615  10.943
 3328W        W 7379  11.266   0.704   8.854
 3329W        W 7380   4.752   7.977   9.789
 3330W        W 7381   4.381  10.858  11.108
 3331W        W 7382   3.236   0.948   9.596
 3332W        W 7383   2.442   2.822   0.052
 3333W        W 7384  10.432   3.146   9.549
 3334W        W 7385   3.401   4.661  11.630
 3335W        W 7386   3.921   8.863  10.961
 3336W        W 7387   2.668   7.198   2.665
 3337W        W 7388   3.550   5.513   8.736
 3338W        W 7389   9.467   8.020   9.077
 3339W        W 7390   8.022   0.842  10.865
 3340W        W 7391   8.232  10.493  10.346
 3341W        W 7392   5.143  11.467   8.979
 3342W        W 7393   9.109  10.897  10.412
 3343W        W 7394  10.812   7.963  11.199
 3344W        W 7395   0.729   2.585   9.795
 3345W        W 7396   1.885  10.548   1.315
 3346W        W 7397  11.004   4.394   3.636
 3347W        W 7398  11.376   3.114   3.142
 3348W        W 7399   2.426   7.161   8.984
 3349W        W 7400   6.499   4.305   9.585
 3350W        W 7401   1.901   3.831   0.851
 3351W        W 7402   9.548   4.598   1.374
 3352W        W 7403   7.931   9.812  11.778
 3353W        W 7404   7.519   7.721   0.458
 3354W        W 7405   5.020   6.492   0.266
 3355W        W 7406   6.412   4.131   8.642
 3356W        W 7407  10.227   9.073  10.374
 3357W        W 7408  11.289   6.542   0.312
 3358W        W 7409   6.516  10.930  10.339
 3359W        W 7410   5.064  11.344  10.760
 3360W        W 7411   4.745   4.122   9.916
 3361W        W 7412   4.650   9.222   1.778
 3362W        W 7413   8.866   6.576   0.810
 3363W        W 7414   2.498   3.228  11.724
 3364W        W 7415   8.769   8.006   9.480
 3365W        W 7416   6.474   2.732   8.895
 3366W        W 7417   3.728   5.690  10.817
 3367W        W 7418   3.186   1.417   9.794
 3368W        W 7419  10.122   7.889   2.358
 3369W        W 7420   9.882   7.010   3.119
 3370W        W 7421   7.412   5.732   1.764
 3371W        W 7422   2.681  10.436  10.949
 3372W        W 7423   2.187  10.484  11.069
 3373W        W 7424   5.184  10.205  11.938
 3374W        W 7425   8.991   6.577   2.421
 3375W        W 7426   1.710   8.991   3.606
 3376W        W 7427   9.537   2.657  11.520
 3377W        W 7428  11.436  10.262  10.117
 3378W        W 7429   3.139   1.827   2.969
 3379W        W 7430   4.910   5.700  10.526
 3380W        W 7431   4.683   3.424   9.471
 3381W        W 7432   8.047   1.077  11.326
 3382W        W 7433   0.801   9.284  11.392
 3383W        W 7434   7.379   3.594   2.677
 3384W        W 7435   1.682   6.715   8.933
 3385W        W 7436   3.780   9.799  11.241
 3386W        W 7437   5.270   0.675   9.375
 3387W        W 7438   5.714   5.109   9.225
 3388W        W 7439   7.523   9.436   9.516
 3389W        W 7440   3.031  10.371   1.850
 3390W        W 7441   9.802   0.390  10.857
 3391W        W 7442   3.692   3.331   2.714
 3392W        W 7443   8.209   5.864   9.434
 3393W        W 7444   6.937   6.415  10.967
 3394W        W 7445   2.555   8.789  11.930
 3395W        W 7446   3.731   5.044   8.849
 3396W        W 7447   2.259   1.371   0.500
 3397W        W 7448  11.107   0.846   1.759
 3398W        W 7449   7.936   0.786   0.468
 3399W        W 7450   9.440   5.513   0.262
 3400W        W 7451   5.759   7.663  11.475
 3401W        W 7452   6.855   9.517   8.045
 3402W        W 7453   4.476   8.116   0.738
 3403W        W 7454   8.857   6.187   2.747
 3404W        W 7455   0.431   4.538   0.140
 3405W        W 7456   6.269  10.241   9.245
 3406W        W 7457   8.411   7.055   2.563
 3407W        W 7458   2.672   9.219  10.404
 3408W        W 7459   1.922   7.077  10.252
 3409W        W 7460   3.590   3.796   2.511
 3410W        W 7461   3.373   5.443   0.458
 3411W        W 7462   6.072   5.411   1.925
 3412W        W 7463   3.858   0.874   1.666
 3413W        W 7464   7.411   2.172   3.456
 3414W        W 7465   5.745  10.927  10.970
 3415W        W 7466  11.406   8.126   9.826
 3416W        W 7467   0.717   5.998   2.615
 3417W        W 7468   5.798   8.496   2.304
 3418W        W 7469   0.738   3.353   2.272
 3419W        W 7470   7.461   3.340  11.385
 3420W        W 7471   5.962   0.030   3.159
 3421W        W 7472   5.208   1.214  10.584
 3422W        W 7473   7.423   8.507   0.275
 3423W        W 7474   1.846  10.096   1.031
 3424W        W 7475   3.739   7.015   3.237
 3425W        W 7476  11.130   8.477   1.196
 3426W        W 7477   4.637   6.221  11.747
 3427W        W 7478   1.651   4.303   0.824
 3428W        W 7479   8.026   4.619   1.176
 3429W        W 7480   6.813   4.030   2.691
 3430W        W 7481   9.052   3.218   1.403
 3431W        W 7482  10.669   7.986  10.698
 3432W        W 7483   0.104   1.037   9.930
 3433W        W 7484   9.230  10.270   9.014
 3434W        W 7485   7.952   8.229   9.291
 3435W        W 7486   8.033   0.926   1.811
 3436W        W 7487   6.149   6.771   3.103
 3437W        W 7488   4.527   1.267   0.867
 3438W        W 7489  11.448  10.747   9.965
 3439W        W 7490  11.319   6.512   2.827
 3440W        W 7491   4.533   1.601   8.561
 3441W        W 7492   2.289   3.867   9.164
 3442W        W 7493   8.964   9.900  11.487
 3443W        W 7494   1.910   5.919   0.689
 3444W        W 7495   2.924   9.051   0.332
 3445W        W 7496   2.322   1.046   9.565
 3446W        W 7497   5.054   0.797   1.178
 3447W        W 7498   9.288   1.325   1.169
 3448W        W 7499   8.345  10.883  10.917
 3449W        W 7500   0.309   5.737   0.071
 3450W        W 7501   6.681   4.215  10.949
 3451W        W 7502   2.334  11.379   1.437
 3452W        W 7503   3.711   1.404  10.666
 3453W        W 7504   4.006   1.509   3.505
 3454W        W 7505   8.897   9.944  10.108
 3455W        W 7506   7.154   2.388   8.653
 3456W        W 7507   0.991   2.670   9.347
 3457W        W 7508   9.386   4.409   8.543
 3458W        W 7509   3.788   1.279   9.142
 3459W        W 7510   4.648   3.349   3.660
 3460W        W 7511   8.452  10.343   9.473
 3461W        W 7512   0.727   7.098   3.143
 3462W        W 7513   4.484   0.122  11.021
 3463W        W 7514   4.369   6.624   2.444
 3464W        W 7515   5.639   8.016   1.170
 3465W        W 7516   4.959   3.922   3.201
 3466W        W 7517   6.225  10.196   2.265
 3467W        W 7518   5.617   3.081   1.256
 3468W        W 7519   0.414   2.194   2.487
 3469W        W 7520  10.875   2.147   0.389
 3470W        W 7521   7.012   6.561   1.742
 3471W        W 7522   4.635   0.940  10.610
 3472W        W 7523   5.204   2.084  10.041
 3473W        W 7524   8.099   7.868  11.315
 3474W        W 7525   6.407   7.682   4.062
 3475W        W 7526   8.142   6.177  11.851
 3476W        W 7527   8.786   4.774   3.484
 3477W        W 7528   1.891   1.695   0.346
 3478W        W 7529  11.195   3.355   1.809
 3479W        W 7530  11.041  10.855   9.002
 3480W        W 7531   3.700   7.919   1.432
 3481W        W 7532   9.150   1.686   2.449
 3482W        W 7533   0.258   1.874   9.406
 3483W        W 7534   0.385  10.887  11.280
 3484W        W 7535   5.551  10.668   0.673
 3485W        W 7536   8.807   4.059   2.177
 3486W        W 7537   2.063   6.119   8.439
 3487W        W 7538   9.588   1.479   8.759
 3488W        W 7539   0.524   5.582   2.845
 3489W        W 7540   2.396  10.826   2.327
 3490W        W 7541   8.776   5.813   1.840
 3491W        W 7542  10.502   4.663   2.787
 3492W        W 7543   1.353   6.115   2.471
 3493W        W 7544  10.370   1.355   9.907
 3494W        W 7545   7.631   8.060   0.116
 3495W        W 7546   6.577   8.970  10.376
 3496W        W 7547   8.023   7.725   9.149
 3497W        W 7548  10.431   9.808   9.631
 3498W        W 7549   6.466   1.934   9.787
 3499W        W 7550   8.888   0.776   2.933
 3500W        W 7551   7.163   2.088  10.030
 3501W        W 7552   8.289   0.215   8.527
 3502W        W 7553   3.245   7.043   9.994
 3503W        W 7554   0.970   3.751  10.379
 3504W        W 7555   5.758   6.533   8.614
 3505W        W 7556   8.953   6.021   3.224
 3506W        W 7557   6.502   6.677   0.672
 3507W        W 7558   9.368   4.378   0.948
 3508W        W 7559   6.700   0.399   0.496
 3509W        W 7560   2.405   3.709   0.833
 3510W        W 7561  11.451   0.421  11.640
 3511W        W 7562   7.626   7.517   1.767
 3512W        W 7563   1.652   1.339  10.354
 3513W        W 7564  11.039   9.449  10.858
 3514W        W 7565   6.372   9.903   8.852
 3515W        W 7566   4.186  10.507   1.038
 3516W        W 7567   2.758  10.461  11.977
 3517W        W 7568   5.607   2.214   3.082
 3518W        W 7569   5.645   0.675   0.999
 3519W        W 7570   5.324   1.344   3.109
 3520W        W 7571   3.320   8.058  10.730
 3521W        W 7572   4.330   5.078  10.807
 3522W        W 7573   2.232   2.497   3.316
 3523W        W 7574   7.288   4.560   3.502
 3524W        W 7575   1.927   9.857   0.270
 3525W        W 7576   6.077   3.682   9.146
 3526W        W 7577   7.227   7.486  11.791
 3527W        W 7578   3.726   2.605   0.271
 3528W        W 7579   5.984   8.254   3.542
 3529W        W 7580   9.551   0.518   0.955
 3530W        W 7581   5.667   3.158   3.541
 3531W        W 7582   9.447   7.023  10.216
 3532W        W 7583   3.765   4.118   9.684
 3533W        W 7584   1.684   3.120   0.407
 3534W        W 7585   3.335   5.985   8.747
 3535W        W 7586  10.728   9.054   2.427
 3536W        W 7587   1.946   1.653  10.615
 3537W        W 7588  11.324  10.415   9.056
 3538W        W 7589   4.375   4.423  10.330
 3539W        W 7590   3.353   2.857  11.565
 3540W        W 7591   4.106   7.450  11.347
 3541W        W 7592   3.851   4.485  10.049
 3542W        W 7593   1.638   0.414  11.273
 3543W        W 7594   4.820  11.353   1.328
 3544W        W 7595   9.300   9.135   8.475
 3545W        W 7596   1.980   2.050   8.792
 3546W        W 7597   3.025   4.097   0.824
 3547W        W 7598   2.858   3.667   1.034
 3548W        W 7599   6.154   9.921   2.704
 3549W        W 7600   2.158  10.841   9.172
 3550W        W 7601  10.879   6.981   9.477
 3551W        W 7602   5.220   8.519   9.518
 3552W        W 7603  11.135   3.785  10.495
 3553W        W 7604  11.200   8.286  11.193
 3554W        W 7605   0.246   7.549  11.987
 3555W        W 7606   0.395   8.114  10.040
 3556W        W 7607   4.310   5.118   2.085
 3557W        W 7608   6.084   3.651  11.919
 3558W        W 7609   6.567   2.078  11.532
 3559W        W 7610   7.159   3.177   2.486
 3560W        W 7611  10.030   4.378   1.532
 3561W        W 7612  10.217   6.580   0.436
 3562W        W 7613   8.497   3.817  11.951
 3563W        W 7614   4.929   8.391   0.887
 3564W        W 7615   9.968   1.335  11.066
 3565W        W 7616   3.535   6.198  11.997
 3566W        W 7617   2.583   7.083   3.147
 3567W        W 7618   1.496   1.237   8.382
 3568W        W 7619   0.404   5.574   1.049
 3569W        W 7620   5.993   8.424   0.785
 3570W        W 7621  10.320   4.759   2.317
 3571W        W 7622   7.724   6.658   1.554
 3572W        W 7623   6.450   8.589   3.589
 3573W        W 7624   1.702   8.357   0.912
 3574W        W 7625   0.631   7.044   8.634
 3575W        W 7626   1.381   1.400   8.845
 3576W        W 7627   9.555   6.103   8.545
 3577W        W 7628  11.368   1.551   9.256
 3578W        W 7629   5.849   5.037   2.688
 3579W        W 7630   7.597  11.459   0.158
 3580W        W 7631   1.418  10.760   1.326
 3581W        W 7632   7.942   1.498   1.007
 3582W        W 7633   2.418  10.493   3.493
 3583W        W 7634   0.395   8.433   3.557
 3584W        W 7635  11.167  11.327   8.789
 3585W        W 7636   6.138   7.643   2.198
 3586W        W 7637  11.038   2.277   0.870
 3587W        W 7638   9.479  11.164   1.869
 3588W        W 7639   9.663   6.651   3.601
 3589W        W 7640   3.357   0.433   0.489
 3590W        W 7641   6.565   5.324   1.340
 3591W        W 7642  10.154   6.918   2.246
 3592W        W 7643   6.763   1.196  10.071
 3593W        W 7644   4.447   9.529   8.940
 3594W        W 7645   3.295   0.055   3.466
 3595W        W 7646   2.854   6.708   0.535
 3596W        W 7647   1.315   1.650   2.297
 3597W        W 7648   0.810   7.101   9.989
 3598W        W 7649   2.957   7.027  10.786
 3599W        W 7650   3.806   2.592  11.355
 3600W        W 7651   8.988  10.464   9.441
 3601W        W 7652   0.308   3.406   3.139
 3602W        W 7653   2.110   8.576   0.655
 3603W        W 7654   5.235   9.854   1.152
 3604W        W 7655   3.753   8.412  10.246
 3605W        W 7656   5.335  11.329   1.262
 3606W        W 7657   3.382   9.934   3.285
 3607W        W 7658   3.843   4.360  11.819
 3608W        W 7659   2.445   7.993  11.319
 3609W        W 7660   5.477   6.994   9.556
 3610W        W 7661   6.272   5.886   8.610
 3611W        W 7662  10.275   9.430   9.004
 3612W        W 7663   4.678   6.441  10.815
 3613W        W 7664   2.916   5.269  10.874
 3614W        W 7665   3.028   2.106   3.360
 3615W        W 7666  10.068   5.661   9.673
 3616W        W 7667   3.613   4.337  10.962
 3617W        W 7668   6.565   1.210   0.901
 3618W        W 7669  10.305   1.072   1.297
 3619W        W 7670   2.103   8.109   9.002
 3620W        W 7671   2.172   7.152   2.795
 3621W        W 7672   0.730   4.667   2.442
 3622W        W 7673   3.190   5.782  11.501
 3623W        W 7674   7.528   1.544   2.913
 3624W        W 7675   3.745   7.756   2.755
 3625W        W 7676   6.235   0.061  11.262
 3626W        W 7677   1.944   6.312  11.351
 3627W        W 7678   5.241   4.237   0.501
 3628W        W 7679   5.453   3.340   0.831
 3629W        W 7680   4.055   0.683   3.413
 3630W        W 7681   7.676   7.012   2.096
 3631W        W 7682   2.665   9.354   9.408
 3632W        W 7683   2.709   3.774  11.477
 3633W        W 7684   8.430   5.324   9.085
 3634W        W 7685   5.746   6.525   9.676
 3635W        W 7686   8.398   4.186   1.773
 3636W        W 7687   8.095   8.144  10.885
 3637W        W 7688   2.341   8.630   9.793
 3638W        W 7689   4.827   1.732   0.955
 3639W        W 7690   5.342   9.894   8.928
 3640W        W 7691   3.701  10.140   1.641
 3641W        W 7692   5.469  10.199   2.043
 3642W        W 7693   9.728   6.098   2.569
 3643W        W 7694   6.908   9.362   1.527
 3644W        W 7695   0.290   4.117   0.871
 3645W        W 7696  10.690   6.626  11.119
 3646W        W 7697   6.460   2.007   7.981
 3647W        W 7698   1.927   1.402   8.872
 3648W        W 7699   7.433   3.985   2.364
 3649W        W 7700   3.164  10.035  10.380
 3650W        W 7701   4.829   2.002   0.410
 3651W        W 7702  10.151   5.687   2.976
 3652W        W 7703   4.134   0.480   0.901
 3653W        W 7704   7.870   6.264   1.873
 3654W        W 7705  10.977   6.584   8.613
 3655W        W 7706   0.655   9.303   0.277
 3656W        W 7707   6.159   3.210   9.852
 3657W        W 7708   0.937   0.182   3.247
 3658W        W 7709   2.105   2.400   1.390
 3659W        W 7710  10.820   0.305  10.826
 3660W        W 7711   8.561   4.118   1.304
 3661W        W 7712  10.562   4.973   0.925
 3662W        W 7713   5.882   7.999   9.073
 3663W        W 7714   1.742   7.373   1.884
 3664W        W 7715   1.156   3.316   1.930
 3665W        W 7716   3.575   1.388   2.385
 3666W        W 7717   8.189   2.186  10.143
 3667W        W 7718   4.601   4.827   1.509
 3668W        W 7719   0.279  10.568  10.370
 3669W        W 7720   1.044   3.287   2.675
 3670W        W 7721   9.910   7.687  11.292
 3671W        W 7722   8.585  10.434   3.169
 3672W        W 7723   6.501   4.830  11.499
 3673W        W 7724   8.138   3.596   3.312
 3674W        W 7725  10.607   2.697   3.489
 3675W        W 7726   5.546   6.164   0.162
 3676W        W 7727   1.920   6.206  10.233
 3677W        W 7728   7.338  11.033   0.858
 3678W        W 7729   1.893   9.814  10.810
 3679W        W 7730   5.191   8.870  11.242
 3680W        W 7731   3.885   9.932  11.739
 3681W        W 7732   7.030   4.339   3.916
 3682W        W 7733   2.549   1.686  10.888
 3683W        W 7734   6.870  11.331  10.440
 3684W        W 7735  11.239  10.328   1.138
 3685W        W 7736   5.471   4.042  11.221
 3686W        W 7737   7.118   9.656   9.321
 3687W        W 7738   4.383   4.317   2.153
 3688W        W 7739  10.258   5.289   2.667
 3689W        W 7740   2.262   0.719  11.716
 3690W        W 7741   8.080   9.634  10.447
 3691W        W 7742   1.770   2.275   3.218
 3692W        W 7743   6.008   3.229   1.668
 3693W        W 7744  10.878   1.737   9.276
 3694W        W 7745   2.249   6.163   1.458
 3695W        W 7746   0.191  11.350   0.997
 3696W        W 7747   9.580   5.382   0.756
 3697W        W 7748   4.224   1.882  11.214
 3698W        W 7749  10.146   3.858   1.635
 3699W        W 7750   3.185  10.451   1.355
 3700W        W 7751   4.916   8.631   9.114
 3701W        W 7752   8.773   8.310   3.495
 3702W        W 7753   3.057   3.115  10.445
 3703W        W 7754   5.366  11.148   0.312
 3704W        W 7755   8.421   6.731  11.319
 3705W        W 7756   6.737   7.145   0.807
 3706W        W 7757   6.090   1.610   9.949
 3707W        W 7758  10.125   8.471   1.468
 3708W        W 7759   7.968   0.987   9.594
 3709W        W 7760   1.155   1.480  10.320
 3710W        W 7761   5.914   9.434   1.630
 3711W        W 7762  11.407   0.003  11.351
 3712W        W 7763   1.151   4.279   2.688
 3713W        W 7764   3.138   1.304   0.538
 3714W        W 7765   9.450   3.876   0.913
 3715W        W 7766   3.084   8.450   1.985
 3716W        W 7767   3.752   4.700   3.110
 3717W        W 7768   6.199   0.802  10.827
 3718W        W 7769   4.413   1.836   2.103
 3719W        W 7770   1.331   6.583   2.693
 3720W        W 7771  11.001  10.773   2.010
 3721W        W 7772   3.024   4.639  11.985
 3722W        W 7773   6.460   9.583  10.980
 3723W        W 7774   4.073   8.654   9.907
 3724W        W 7775  10.281   3.235  11.871
 3725W        W 7776  10.137  11.490  11.827
 3726W        W 7777   4.194   8.317   0.366
 3727W        W 7778   9.929   2.205   0.311
 3728W        W 7779   1.174   4.053   9.835
 3729W        W 7780   9.452   6.763  11.257
 3730W        W 7781   1.274   7.103   1.866
 3731W        W 7782   2.925   2.350   9.486
 3732W        W 7783   3.015   0.572   9.922
 3733W        W 7784   4.250   7.233  10.870
 3734W        W 7785   0.872  10.874   2.888
 3735W        W 7786   5.509   6.583   2.675
 3736W        W 7787   6.059   4.644  11.727
 3737W        W 7788   7.176   3.685   0.292
 3738W        W 7789  10.201   6.686   9.993
 3739W        W 7790   9.038   9.576   2.714
 3740W        W 7791   0.308   2.457   1.935
 3741W        W 7792   3.789   9.992   2.534
 3742W        W 7793   0.001   5.276   9.397
 3743W        W 7794  11.477   5.288   1.007
 3744W        W 7795   4.972   5.214  10.316
 3745W        W 7796   7.131   2.890  10.329
 3746W        W 7797   9.796   0.556   2.653
 3747W        W 7798   3.516   1.326  11.695
 3748W        W 7799  11.039   8.589  11.869
 3749W        W 7800   4.157   2.345   1.277
 3750W        W 7801   9.951   6.566   9.552
 3751W        W 7802   0.228   1.263   3.342
 3752W        W 7803   4.126   3.082   0.749
 3753W        W 7804   9.943   6.690  11.999
 3754W        W 7805   1.709   1.452   1.276
 3755W        W 7806  10.698   4.043   1.619
 3756W        W 7807   0.359   7.505   1.014
 3757W        W 7808  11.462   0.454   1.818
 3758W        W 7809   0.182   3.052   0.911
 3759W        W 7810   3.721  11.128   1.662
 3760W        W 7811   2.026   6.869   0.306
 3761W        W 7812  11.413   3.886   9.550
 3762W        W 7813  10.272   6.093  10.356
 3763W        W 7814   1.450   7.814   1.395
 3764W        W 7815  11.101   1.697  11.290
 3765W        W 7816   2.260   8.139   1.668
 3766W        W 7817   3.680   7.437   2.378
 3767W        W 7818   8.016  10.255   1.050
 3768W        W 7819   1.366   5.608   2.260
 3769W        W 7820   7.357   8.579   0.879
 3770W        W 7821   5.258   9.029   2.776
 3771W        W 7822   6.031   3.081   8.130
 3772W        W 7823   6.763   3.663  10.427
 3773W        W 7824   5.986   4.217   8.961
 3774W        W 7825   9.504   1.887  11.887
 3775W        W 7826   6.419   8.131   3.815
 3776W        W 7827   9.159   3.346   0.925
 3777W        W 7828   4.211   9.283   2.164
 3778W        W 7829   4.783  10.886  10.766
 3779W        W 7830   0.841   4.621   1.458
 3780W        W 7831   4.285   2.294  11.517
 3781W        W 7832  10.026   6.402   8.542
 3782W        W 7833   1.021   7.508  11.396
 3783W        W 7834  10.139   9.724   2.189
 3784W        W 7835   6.780   6.440   1.312
 3785W        W 7836   6.143   6.528  11.189
 3786W        W 7837   2.413   9.381   1.157
 3787W        W 7838   5.525   9.394  10.805
 3788W        W 7839   1.834   0.817   9.534
 3789W        W 7840   5.709   8.853  10.837
 3790W        W 7841   6.193   0.946   9.127
 3791W        W 7842   6.990   9.575  10.848
 3792W        W 7843   5.651   1.825  10.566
 3793W        W 7844   1.815   3.576   9.934
 3794W        W 7845   4.729   1.138   1.684
 3795W        W 7846   7.443  10.205   8.529
 3796W        W 7847   4.715   7.073   1.048
 3797W        W 7848   6.535   2.878   9.905
 3798W        W 7849   9.949   6.665  11.335
 3799W        W 7850  10.814   4.664   2.310
 3800W        W 7851   5.479   4.607   1.411
 3801W        W 7852   0.207   6.032   8.907
 3802W        W 7853   7.537  10.804   9.301
 3803W        W 7854   7.959   9.496   2.367
 3804W        W 7855   2.243  10.969   3.328
 3805W        W 7856   3.659   4.155   0.240
 3806W        W 7857   0.371   8.839  10.643
 3807W        W 7858   8.600   2.708   0.033
 3808W        W 7859   9.794   6.609   1.354
 3809W        W 7860   5.141   0.179   9.515
 3810W        W 7861  11.484   8.171   1.401
 3811W        W 7862   9.998   7.088   1.385
 3812W        W 7863   7.730   5.888  10.639
 3813W        W 7864   6.277   3.560   8.215
 3814W        W 7865   5.106   6.755   2.999
 3815W        W 7866   0.628   1.303   1.501
 3816W        W 7867   4.233  10.470   2.899
 3817W        W 7868  10.930   7.722   0.110
 3818W        W 7869   1.859   1.484  11.888
 3819W        W 7870   7.228   1.242  10.469
 3820W        W 7871  10.081   8.390   3.220
 3821W        W 7872   7.938  11.439   9.500
 3822W        W 7873  10.310   8.488  11.101
 3823W        W 7874   2.399   8.928   0.413
 3824W        W 7875   1.245   4.598   3.546
 3825W        W 7876   5.470   0.835  10.379
 3826W        W 7877   1.956  10.282   0.561
 3827W        W 7878   9.253   7.154   0.809
 3828W        W 7879   2.388   1.951   1.324
 3829W        W 7880   2.722  10.610   1.527
 3830W        W 7881   2.300   7.647   9.048
 3831W        W 7882   4.830   9.020   0.385
 3832W        W 7883   1.670   3.142  10.639
 3833W        W 7884   6.027   9.265  10.887
 3834W        W 7885   8.397   2.948   1.791
 3835W        W 7886   3.446   3.390   2.242
 3836W        W 7887   0.891   0.495  11.918
 3837W        W 7888  10.754   4.533   3.214
 3838W        W 7889   1.762   7.887   1.836
 3839W        W 7890   4.626   9.810   1.774
 3840W        W 7891  11.139   5.104   0.037
 3841W        W 7892   1.641   1.767   9.089
 3842W        W 7893   5.026   2.502   9.836
 3843W        W 7894  10.413   0.995   8.798
 3844W        W 7895   2.715   1.413   2.329
 3845W        W 7896   4.746   3.270  11.752
 3846W        W 7897   5.107   8.167  10.676
 3847W        W 7898   7.733   4.296   0.249
 3848W        W 7899   8.975   8.375   0.364
 3849W        W 7900   9.584   0.289   9.865
 3850W        W 7901   4.246   7.316   1.719
 3851W        W 7902   8.741   8.541   9.051
 3852W        W 7903   3.842   7.069  10.631
 3853W        W 7904   5.121   6.032   0.496
 3854W        W 7905   6.787   8.054   9.926
 3855W        W 7906   9.707   7.652   1.821
 3856W        W 7907   6.539   1.914   3.242
 3857W        W 7908  11.061   9.411   2.594
 3858W        W 7909   2.382   1.467  10.411
 3859W        W 7910   0.901   1.397   0.565
 3860W        W 7911   4.170   0.005   3.135
 3861W        W 7912   0.118   8.905   3.531
 3862W        W 7913   0.472   6.480   2.612
 3863W        W 7914   5.661   1.359  10.353
 3864W        W 7915   3.184   3.736   3.307
 3865W        W 7916   7.127   3.576   9.588
 3866W        W 7917   8.675   1.828   2.306
 3867W        W 7918   1.779   2.593   2.738
 3868W        W 7919   3.243   0.985   1.700
 3869W        W 7920   2.569   2.719   2.913
 3870W        W 7921  10.356   6.986   1.763
 3871W        W 7922  10.026   4.347   2.166
 3872W        W 7923   0.955   5.955   2.175
 3873W        W 7924   0.833   1.041   9.524
 3874W        W 7925   5.628   5.105   1.272
 3875W        W 7926   6.834   2.458   1.325
 3876W        W 7927   7.049   6.686  10.541
 3877W        W 7928   0.078   7.201   2.138
 3878W        W 7929   2.649   9.649   0.776
 3879W        W 7930   4.217   5.208   0.048
 3880W        W 7931  11.050   2.844  11.271
 3881W        W 7932   1.198   5.668  11.607
 3882W        W 7933   5.119   7.728  11.060
 3883W        W 7934   4.411   2.097   1.661
 3884W        W 7935   5.727   8.571   2.809
 3885W        W 7936   9.421   5.657  10.836
 3886W        W 7937   4.095   7.091   9.755
 3887W        W 7938  11.299   3.434   8.654
 3888W        W 7939   8.679   2.818  10.535
 3889W        W 7940   8.459   8.575   8.590
 3890W        W 7941   4.919   2.493   0.210
 3891W        W 7942   3.941   7.977   9.425
 3892W        W 7943   3.230   2.887   2.212
 3893W        W 7944  10.815  10.169  10.525
 3894W        W 7945   2.884  10.024   9.179
 3895W        W 7946   1.204   6.612   3.215
 3896W        W 7947   7.721   0.247   3.381
 3897W        W 7948   3.383   6.640  11.222
 3898W        W 7949  10.922   1.787   3.187
 3899W        W 7950   4.075   1.295   2.343
 3900W        W 7951   6.603   2.184   8.464
 3901W        W 7952   3.789   7.247   1.488
 3902W        W 7953   1.131   6.973   1.366
 3903W        W 7954   3.716  11.466  10.516
 3904W        W 7955   2.203   4.626  10.286
 3905W        W 7956   3.853   1.365   1.424
 3906W        W 7957   7.871   8.581   0.912
 3907W        W 7958   5.429   1.147   1.157
 3908W        W 7959   0.035   3.646   1.550
 3909W        W 7960   0.495   5.358   9.356
 3910W        W 7961   5.226  10.957  11.062
 3911W        W 7962   7.021   9.482  11.732
 3912W        W 7963   1.824   0.306   2.208
 3913W        W 7964  11.272   2.551   9.300
 3914W        W 7965   0.817   1.778   0.981
 3915W        W 7966   7.096   2.133  11.875
 3916W        W 7967   5.313   5.151   0.477
 3917W        W 7968   1.818   3.874  10.978
 3918W        W 7969   0.265   1.282   9.505
 3919W        W 7970   5.820   9.658   1.152
 3920W        W 7971   5.047   3.040   2.705
 3921W        W 7972   1.229   2.304  11.188
 3922W        W 7973   7.970   4.658   0.671
 3923W        W 7974   9.643   2.372  11.921
 3924W        W 7975  11.384   6.584   3.493
 3925W        W 7976   2.768   0.744   9.508
 3926W        W 7977  10.852   3.610   8.858
 3927W        W 7978   8.584   3.855   3.181
 3928W        W 7979   5.268   2.753   0.487
 3929W        W 7980   2.176   1.304  11.533
 3930W        W 7981   2.400   8.407   2.578
 3931W        W 7982   0.298   0.773  11.529
 3932W        W 7983  11.058   1.614  10.788
 3933W        W 7984   1.482   1.851  10.464
 3934W        W 7985   2.893   6.918   9.057
 3935W        W 7986   3.146   8.290   2.463
 3936W        W 7987  10.604   7.895   3.468
 3937W        W 7988   3.497  10.586   1.774
 3938W        W 7989   2.393   9.872   1.229
 3939W        W 7990   0.769   1.160  10.805
 3940W        W 7991  11.214  10.592  11.938
 3941W        W 7992  11.234   7.868  11.484
 3942W        W 7993   5.331  10.012   2.633
 3943W        W 7994   6.121   4.768   0.743
 3944W        W 7995  11.462   4.900   1.323
 3945W        W 7996   6.551   0.852   8.755
 3946W        W 7997   3.569   6.139   0.494
 3947W        W 7998   8.484   4.013   9.980
 3948W        W 7999   2.844   9.119   1.191
 3949W        W 8000   9.977   2.846   8.389
 3950W        W 8001   8.404   4.303  11.806
 3951W        W 8002   8.930   2.636   2.221
 3952W        W 8003   7.591   0.735  11.129
 3953W        W 8004   8.233   6.448  10.084
 3954W        W 8005   9.148   1.283   9.014
 3955W        W 8006   8.309   6.978  10.779
 3956W        W 8007   9.121   6.931   8.087
 3957W        W 8008   2.865   0.438   3.588
 3958W        W 8009   9.533   6.260   9.075
 3959W        W 8010  10.320   9.439   1.396
 3960W        W 8011   8.957   8.089   9.003
 3961W        W 8012   4.994   4.701   1.219
 3962W        W 8013   2.818   5.916  10.189
 3963W        W 8014   6.267   4.293   0.485
 3964W        W 8015   5.607   3.878   9.081
 3965W        W 8016   3.652   2.520   2.071
 3966W        W 8017   2.665   9.463   3.028
 3967W        W 8018   0.522   9.837  11.061
 3968W        W 8019   7.862   2.423  10.498
 3969W        W 8020   4.188   9.976   8.880
 3970W        W 8021   2.683   0.576  10.333
 3971W        W 8022   3.459  10.140  11.486
 3972W        W 8023   9.459   1.630   0.338
 3973W        W 8024   7.736   1.245  10.008
 3974W        W 8025   3.619  10.293  10.972
 3975W        W 8026   7.726  11.084  10.658
 3976W        W 8027   4.187   3.470   0.402
 3977W        W 8028   7.532  10.367   9.571
 3978W        W 8029   1.610  10.495  11.690
 3979W        W 8030   7.627   6.087   3.762
 3980W        W 8031   9.885   2.756   2.295
 3981W        W 8032   6.648   9.921   1.361
 3982W        W 8033   6.674   3.365   9.796
 3983W        W 8034  11.307   9.011   9.589
 3984W        W 8035   2.801  10.070   1.503
 3985W        W 8036   7.206   8.509   2.362
 3986W        W 8037   9.177   5.487  10.091
 3987W        W 8038  10.706   2.347   1.266
 3988W        W 8039   5.626   4.872  11.939
 3989W        W 8040   6.132   2.278   3.179
 3990W        W 8041   0.627   5.876   9.948
 3991W        W 8042   4.647   6.851   0.199
 3992W        W 8043   2.217   3.913   1.841
 3993W        W 8044   4.517  10.794   8.833
 3994W        W 8045   0.982   6.644  10.375
 3995W        W 8046   9.255   9.016  10.338
 3996W        W 8047   0.434   0.046   0.585
 3997W        W 8048   8.578   7.957   2.231
 3998W        W 8049   1.453   9.344  10.074
 3999W        W 8050   4.335  10.396   0.536
 4000W        W 8051   4.563   0.865   1.247
 4001W        W 8052   0.306   0.674   8.710
 4002W        W 8053   7.612   9.020   1.096
 4003W        W 8054   5.444   0.377   3.066
 4004W        W 8055   0.057   5.269   2.323
 4005W        W 8056   0.820   6.267  10.896
 4006W        W 8057   9.700   9.602   0.223
 4007W        W 8058   5.248  11.408  11.286
 4008W        W 8059   0.823   4.624   1.957
 4009W        W 8060   7.644   7.561  10.412
 4010W        W 8061   8.268   0.282   3.498
 4011W        W 8062   4.450   7.145   9.349
 4012W        W 8063   4.186  10.077   1.867
 4013W        W 8064   3.105   3.606  10.070
 4014W        W 8065   9.435   0.784   3.532
 4015W        W 8066   3.358  10.987  11.684
 4016W        W 8067   1.041   5.125   0.302
 4017W        W 8068   7.850   2.407  11.488
 4018W        W 8069  10.862   4.993   0.471
 4019W        W 8070   5.002   0.464   2.153
 4020W        W 8071   6.316  11.266   1.139
 4021W        W 8072   1.915  10.866   9.715
 4022W        W 8073   3.755   4.997   1.749
 4023W        W 8074   8.819  10.630   3.572
 4024W        W 8075   6.043  10.003   0.834
 4025W        W 8076   3.546  10.652  11.345
 4026W        W 8077   5.032   3.423  10.565
 4027W        W 8078  10.851   7.722   3.030
 4028W        W 8079   3.109   7.398   0.366
 4029W        W 8080   9.583   4.935   4.350
 4030W        W 8081   4.803   7.969  10.295
 4031W        W 8082   3.334   2.730   3.249
 4032W        W 8083   0.557   0.850   1.706
 4033W        W 8084   7.490   9.793   3.230
 4034W        W 8085   2.889   4.513  10.347
 4035W        W 8086   5.124   8.961   2.024
 4036W        W 8087   5.222   3.203   8.767
 4037W        W 8088  10.296   6.957   9.558
 4038W        W 8089   9.123   3.707   9.516
 4039W        W 8090   8.794   1.304   1.291
 4040W        W 8091   2.792   1.270   9.495
 4041W        W 8092   2.110   2.903   3.010
 4042W        W 8093   5.812  10.598  10.493
 4043W        W 8094   3.743   2.620   9.841
 4044W        W 8095  10.863   3.270   9.945
 4045W        W 8096  11.091   5.088   2.407
 4046W        W 8097   7.991   1.044   3.450
 4047W        W 8098  11.022   3.119  10.415
 4048W        W 8099  11.379   2.327   0.412
 4049W        W 8100   3.330   9.349  11.063
 4050W        W 8101   5.125   1.596   9.257
 4051W        W 8102   9.546   7.525  10.328
 4052W        W 8103   4.211   2.835  11.543
 4053W        W 8104   6.582   0.438   1.374
 4054W        W 8105   0.127   8.567   1.080
 4055W        W 8106   0.053   2.360  10.397
 4056W        W 8107   0.492   3.873   3.344
 4057W        W 8108   2.631   6.198   3.312
 4058W        W 8109   2.864   2.032   1.183
 4059W        W 8110   2.863   3.356   3.504
 4060W        W 8111   8.846   0.378   1.860
 4061W        W 8112   0.550   9.315   3.479
 4062W        W 8113   8.937   5.125   2.251
 4063W        W 8114   6.157   3.082   3.726
 4064W        W 8115  11.271   5.638   9.696
 4065W        W 8116   9.161   8.086  11.934
 4066W        W 8117   7.652  11.251  11.134
 4067W        W 8118   1.817   2.461  10.880
 4068W        W 8119   2.326  11.478   3.286
 4069W        W 8120   3.315   9.645  11.477
 4070W        W 8121   6.664   7.018   0.314
 4071W        W 8122   1.298   7.629   1.830
 4072W        W 8123   9.499   8.662   8.551
 4073W        W 8124  10.031   4.857   2.783
 4074W        W 8125  10.151  11.414   0.653
 4075W        W 8126   9.620   4.077   1.357
 4076W        W 8127   4.616   2.116   8.629
 4077W        W 8128   6.729   0.405   3.202
 4078W        W 8129   9.673   1.499   0.802
 4079W        W 8130   4.643  11.499   9.551
 4080W        W 8131   6.002   1.284   2.188
 4081W        W 8132   9.826   7.494  10.789
 4082W        W 8133   7.924   5.004  11.533
 4083W        W 8134   7.903   9.477   0.182
 4084W        W 8135   5.632   5.692   1.908
 4085W        W 8136   8.219   2.275   0.920
 4086W        W 8137   2.839   9.749   3.424
 4087W        W 8138   6.765   8.960   0.841
 4088W        W 8139   6.456   9.927   3.141
 4089W        W 8140   5.443   5.890   1.477
 4090W        W 8141   8.484   8.246   0.191
 4091W        W 8142   6.385   2.304   1.876
 4092W        W 8143   0.757   3.297   0.393
 4093W        W 8144   9.583   8.938   8.974
 4094W        W 8145   8.307   3.021   9.945
 4095W        W 8146  11.052   2.913   9.606
 4096W        W 8147   4.656   2.981  11.349
 4097W        W 8148   6.595  11.333  11.840
 4098W        W 8149  10.146   2.370   8.587
 4099W        W 8150  10.437   0.377  11.679
 4100W        W 8151   0.759   4.337  10.005
 4101W        W 8152  11.296   4.842   0.806
 4102W        W 8153   8.449   2.037   2.768
 4103W        W 8154   5.570   9.736   3.312
 4104W        W 8155  10.531  10.873   1.377
 4105W        W 8156   9.001   8.680  10.732
 4106W        W 8157  11.336   8.735  11.374
 4107W        W 8158   7.079  10.086   9.585
 4108W        W 8159   0.179   0.709   3.378
 4109W        W 8160   4.911   1.845   8.289
 4110W        W 8161   7.847   1.156   2.204
 4111W        W 8162   8.040  11.295  11.915
 4112W        W 8163   6.445   6.444   9.043
 4113W        W 8164  10.600   9.536   3.232
 4114W        W 8165  11.024   4.694   2.795
 4115W        W 8166   0.005   9.821   2.249
 4116W        W 8167   8.990   2.185   9.564
 4117W        W 8168   4.593  10.997   0.405
 4118W        W 8169   7.131   2.336   2.487
 4119W        W 8170   5.746   1.251  11.347
 4120W        W 8171  10.414   0.725   3.649
 4121W        W 8172   0.017   6.160   3.155
 4122W        W 8173   5.234   5.499   1.269
 4123W        W 8174   2.645   6.966   1.818
 4124W        W 8175   5.089   7.599  10.060
 4125W        W 8176  10.873   5.473   8.580
 4126W        W 8177   0.799   5.621  10.447
 4127W        W 8178   5.616   9.601   2.801
 4128W        W 8179   3.091   8.468  10.928
 4129W        W 8180   5.559  10.178   0.894
 4130W        W 8181   1.385   1.883   1.204
 4131W        W 8182   4.129   7.591   1.317
 4132W        W 8183   3.820   0.014   1.282
 4133W        W 8184   6.128   0.844   3.003
 4134W        W 8185  11.156  10.518   1.599
 4135W        W 8186   0.928   0.553   3.676
 4136W        W 8187   9.979   3.320   0.335
 4137W        W 8188   4.277   9.092  11.246
 4138W        W 8189  11.125   3.926   0.114
 4139W        W 8190   3.813   3.115   0.300
 4140W        W 8191   0.127   3.111   1.801
 4141W        W 8192   6.497   7.358   2.392
 4142W        W 8193   4.798   6.964   3.351
 4143W        W 8194   4.503  10.318  10.339
 4144W        W 8195   9.564   2.468  10.184
 4145W        W 8196   0.726   8.788   3.323
 4146W        W 8197   9.455   6.233   1.481
 4147W        W 8198   6.966   1.795   9.268
 4148W        W 8199  11.235   3.065  11.687
 4149W        W 8200   8.104   8.130   0.850
 4150W        W 8201   6.595   1.596   2.859
 4151W        W 8202   9.029   2.242   9.054
 4152W        W 8203   8.761   4.614  11.327
 4153W        W 8204   2.320   1.816  10.047
 4154W        W 8205   1.921   5.348   9.916
 4155W        W 8206   1.077   2.331   0.237
 4156W        W 8207  11.209   6.914   9.867
 4157W        W 8208   2.112  10.927  11.303
 4158W        W 8209   7.927   4.050   1.682
 4159W        W 8210   0.927   8.422   2.793
 4160W        W 8211   8.600   1.890  11.493
 4161W        W 8212   6.939   4.679  10.245
 4162W        W 8213   7.007   1.291   9.423
 4163W        W 8214  11.250   1.340   1.896
 4164W        W 8215   4.345   5.601   1.876
 4165W        W 8216   9.131   8.515   1.783
 4166W        W 8217   5.125   9.536   2.882
 4167W        W 8218   6.032   2.890   3.231
 4168W        W 8219   2.192   7.469   0.496
 4169W        W 8220   8.305   2.681   2.708
 4170W        W 8221   8.888  11.253   2.696
 4171W        W 8222   2.567   9.000   8.543
 4172W        W 8223   4.922   2.929  10.527
 4173W        W 8224   8.850   9.506   9.778
 4174W        W 8225   5.224   7.500   9.593
 4175W        W 8226   9.231   6.084  11.770
 4176W        W 8227   8.007   8.713  10.012
 4177W        W 8228   5.493   8.055   0.234
 4178W        W 8229   9.542   1.527   9.807
 4179W        W 8230   6.121   3.816   0.992
 4180W        W 8231   1.127   7.441   3.159
 4181W        W 8232   3.742   9.013   3.238
 4182W        W 8233   4.874   1.003   0.393
 4183W        W 8234   2.468   7.998   9.379
 4184W        W 8235   2.164   8.447   1.149
 4185W        W 8236   2.045   4.266   9.361
 4186W        W 8237   4.676   5.287   0.255
 4187W        W 8238   1.408   8.648   2.815
 4188W        W 8239   4.407   9.456   2.640
 4189W        W 8240  11.290   7.794  10.979
 4190W        W 8241   6.095   5.902   1.830
 4191W        W 8242   0.356   8.049  11.773
 4192W        W 8243  10.878   8.130  11.720
 4193W        W 8244  10.833   1.481  10.117
 4194W        W 8245   8.402   9.410   9.555
 4195W        W 8246  11.420   4.375   0.632
 4196W        W 8247   5.907   4.627   9.258
 4197W        W 8248  10.466   5.092   1.788
 4198W        W 8249   5.198   3.963   0.917
 4199W        W 8250   4.688   6.965  10.865
 4200W        W 8251   1.252  10.560   3.617
 4201W        W 8252   5.399  10.343  10.281
 4202W        W 8253   7.674   2.723   9.529
 4203W        W 8254   6.648   0.924   0.469
 4204W        W 8255   8.142   8.690   1.986
 4205W        W 8256   0.772   1.078  11.321
 4206W        W 8257   1.562   0.854   0.564
 4207W        W 8258   8.558   5.578  11.413
 4208W        W 8259   4.541   7.528  10.562
 4209W        W 8260   1.483   3.036   9.041
 4210W        W 8261   2.549   8.623  11.001
 4211W        W 8262   6.343   2.327   0.368
 4212W        W 8263   9.284   4.194   9.381
 4213W        W 8264  11.226   5.362   1.453
 4214W        W 8265   4.352   6.676   9.972
 4215W        W 8266   9.642   1.028   1.712
 4216W        W 8267   9.126   8.066   0.798
 4217W        W 8268  10.437  10.311  11.047
 4218W        W 8269   9.822   9.557  11.654
 4219W        W 8270  10.505   8.489   9.139
 4220W        W 8271   3.033  10.953   1.311
 4221W        W 8272   0.735   3.837   9.936
 4222W        W 8273  10.199   7.667   1.116
 4223W        W 8274   9.100   1.737   8.766
 4224W        W 8275   9.509   8.428   2.150
 4225W        W 8276   7.410   7.573  10.870
 4226W        W 8277   0.871   9.587   2.164
 4227W        W 8278   1.947   9.603   1.199
 4228W        W 8279   4.169   6.259   9.736
 4229W        W 8280   0.529   2.619   1.500
 4230W        W 8281   5.913   5.737   2.316
 4231W        W 8282   5.067   0.482   8.945
 4232W        W 8283   7.732  10.571   0.258
 4233W        W 8284   7.682   9.053   2.579
 4234W        W 8285   7.426   2.766   0.895
 4235W        W 8286   8.231   1.330  11.751
 4236W        W 8287   2.335   8.487   9.304
 4237W        W 8288   7.949  11.310   2.490
 4238W        W 8289   4.256   7.096   1.245
 4239W        W 8290   8.538   0.170   1.486
 4240W        W 8291   9.290   4.487  11.421
 4241W        W 8292  11.317   1.248  11.017
 4242W        W 8293   3.675   1.335   9.643
 4243W        W 8294   9.128   5.774   8.690
 4244W        W 8295  10.001  10.572  11.299
 4245W        W 8296   2.281   7.253  11.541
 4246W        W 8297   4.841   2.109   1.933
 4247W        W 8298   5.234   1.194  10.074
 4248W        W 8299  11.487  10.456   3.317
 4249W        W 8300   1.754   8.399   1.821
 4250W        W 8301   6.045   3.700   3.833
 4251W        W 8302   4.117   4.758   8.675
 4252W        W 8303   8.113   9.437   1.798
 4253W        W 8304   5.862   8.958   0.033
 4254W        W 8305  11.156   4.285  10.273
 4255W        W 8306   4.051   1.487   0.943
 4256W        W 8307  11.411   7.669   1.191
 4257W        W 8308   5.269   8.449  11.526
 4258W        W 8309   4.726   4.329  11.801
 4259W        W 8310   9.963   1.685   0.371
 4260W        W 8311   8.403  10.339   1.408
 4261W        W 8312  10.528  10.795   8.959
 4262W        W 8313   0.515   9.559   2.990
 4263W        W 8314   7.388   4.068   9.167
 4264W        W 8315   1.692   5.966   3.236
 4265W        W 8316   4.309   0.267   0.442
 4266W        W 8317   6.208   7.490  11.277
 4267W        W 8318   7.166   9.140  10.068
 4268W        W 8319   2.920   0.953   2.093
 4269W        W 8320   9.422   9.001   3.562
 4270W        W 8321   2.246   2.817   2.528
 4271W        W 8322  11.231   0.044   0.892
 4272W        W 8323   6.587   3.623   1.892
 4273W        W 8324   6.138   2.499   0.834
 4274W        W 8325   2.008  10.746   0.841
 4275W        W 8326   7.979   4.035  11.904
 4276W        W 8327   7.434  10.908   9.877
 4277W        W 8328  10.958   1.242   9.134
 4278W        W 8329  10.709   6.545   1.770
 4279W        W 8330  10.365   6.039   9.501
 4280W        W 8331   8.348   2.359  11.458
 4281W        W 8332   8.389   1.528   2.652
 4282W        W 8333   3.108   2.140   2.588
 4283W        W 8334   7.601   2.543   3.168
 4284W        W 8335   7.890  10.447   8.500
 4285W        W 8336   4.957   8.975   9.512
 4286W        W 8337   5.049   8.837  11.833
 4287W        W 8338   2.703   2.211   2.977
 4288W        W 8339   6.458   5.920  11.965
 4289W        W 8340   7.591   6.873   0.821
 4290W        W 8341   5.342   0.354  11.518
 4291W        W 8342   9.185   2.803   2.787
 4292W        W 8343   1.873  11.307   2.957
 4293W        W 8344   4.220   9.531  11.989
 4294W        W 8345   9.004   4.102  11.168
 4295W        W 8346   1.747   9.164   2.275
 4296W        W 8347   6.880   9.403   2.466
 4297W        W 8348   8.354   1.582   1.368
 4298W        W 8349   6.992   6.946  11.026
 4299W        W 8350   9.037   3.055   3.193
 4300W        W 8351   3.559   9.331   0.886
 4301W        W 8352   8.380   1.098   2.162
 4302W        W 8353   6.952   4.655   1.228
 4303W        W 8354   1.801   8.869   0.915
 4304W        W 8355   3.615   1.746   1.726
 4305W        W 8356   5.617   1.737  11.456
 4306W        W 8357   4.243   3.175   9.545
 4307W        W 8358   8.547   2.807   8.659
 4308W        W 8359  10.686   2.316  10.545
 4309W        W 8360   6.267  10.818   8.470
 4310W        W 8361   9.350  10.803   9.798
 4311W        W 8362   1.735  10.885   0.008
 4312W        W 8363   2.760   5.643  11.257
 4313W        W 8364   0.137   2.418   9.630
 4314W        W 8365   4.385   8.679  10.918
 4315W        W 8366   9.087   2.396   1.671
 4316W        W 8367   0.580   2.929   1.894
 4317W        W 8368   2.459   2.522   9.637
 4318W        W 8369   2.836   0.041   3.223
 4319W        W 8370   3.628   0.755   0.842
 4320W        W 8371   1.893  10.017  11.769
 4321W        W 8372   1.815  10.644   8.795
 4322W        W 8373   1.015   0.658   9.883
 4323W        W 8374   8.569   5.340   0.794
 4324W        W 8375   6.744   7.486   8.674
 4325W        W 8376  10.403   5.541  11.885
 4326W        W 8377   5.130   7.372   2.266
 4327W        W 8378   1.232   2.635   9.870
 4328W        W 8379  10.035   6.718   4.357
 4329W        W 8380  10.739   5.100   9.000
 4330W        W 8381   4.148   6.477   4.201
 4331W        W 8382   0.598  10.996   8.601
 4332W        W 8383   5.592   8.005  10.712
 4333W        W 8384   8.694   7.121   2.128
 4334W        W 8385  10.950   0.818  10.946
 4335W        W 8386   6.846   6.123   0.240
 4336W        W 8387  10.369  11.490  11.365
 4337W        W 8388   8.476   1.644  10.036
 4338W        W 8389   3.261   3.025   2.698
 4339W        W 8390   3.530   9.049   0.052
 4340W        W 8391   8.593   9.628  10.625
 4341W        W 8392   9.992  11.323  10.533
 4342W        W 8393  10.901   5.105   9.815
 4343W        W 8394   7.149  11.405   9.923
 4344W        W 8395  10.508   6.571   0.856
 4345W        W 8396   5.485  10.942   2.121
 4346W        W 8397   9.929   9.196   0.031
 4347W        W 8398  10.199   8.003  10.943
 4348W        W 8399   0.872  10.611   9.040
 4349W        W 8400  11.430   2.243   2.342
 4350W        W 8401   5.168   1.748   1.730
 4351W        W 8402   0.381   8.498  11.032
 4352W        W 8403   0.491   8.134   2.694
 4353W        W 8404   8.469   7.211   8.898
 4354W        W 8405   8.396   5.143   1.337
 4355W        W 8406   0.323   7.471   0.495
 4356W        W 8407  10.085   7.015   3.575
 4357W        W 8408   3.059   2.577   2.836
 4358W        W 8409   5.641   7.136   0.201
 4359W        W 8410   2.282  11.018   2.790
 4360W        W 8411  11.353   9.095   2.903
 4361W        W 8412   9.320   9.362   1.263
 4362W        W 8413  11.461   4.140  10.705
 4363W        W 8414   0.981   7.975   1.493
 4364W        W 8415   1.829   9.623   3.207
 4365W        W 8416   6.549   3.426  11.820
 4366W        W 8417   4.268   0.372   9.370
 4367W        W 8418   4.162   0.046   1.714
 4368W        W 8419   8.371   4.203  10.436
 4369W        W 8420   7.593   8.592   2.801
 4370W        W 8421  10.373   1.022  10.315
 4371W        W 8422   7.573   6.708   2.947
 4372W        W 8423   6.029   4.554  10.787
 4373W        W 8424  11.447   2.161   2.861
 4374W        W 8425   9.281   6.437   0.545
 4375W        W 8426   9.881   7.889  10.482
 4376W        W 8427  10.627   1.742  11.419
 4377W        W 8428   6.276   6.585  11.674
 4378W        W 8429   6.188   1.401  10.441
 4379W        W 8430   4.556  10.903  11.592
 4380W        W 8431   9.882   8.118   1.972
 4381W        W 8432   6.076   9.196   1.202
 4382W        W 8433   5.548   7.035  10.850
 4383W        W 8434   0.535   7.377  11.439
 4384W        W 8435   0.618   4.236   2.677
 4385W        W 8436   1.997   5.676   8.656
 4386W        W 8437   3.534   1.775   9.884
 4387W        W 8438   5.438   5.656  10.506
 4388W        W 8439   6.405   9.495   1.514
 4389W        W 8440   0.853   4.629   0.964
 4390W        W 8441  10.458   7.421   3.674
 4391W        W 8442   6.291   4.111   2.721
 4392W        W 8443   2.461   2.644  11.061
 4393W        W 8444   1.700   7.396   0.740
 4394W        W 8445   1.655   3.287   0.990
 4395W        W 8446   0.050  10.958   8.902
 4396W        W 8447   7.383  10.039   0.921
 4397W        W 8448   9.304   1.062   2.121
 4398W        W 8449   1.234   4.258   0.497
 4399W        W 8450   5.604   4.365  11.827
 4400W        W 8451   8.470   2.338   9.585
 4401W        W 8452   1.829   1.017   1.555
 4402W        W 8453   8.692   2.132   0.779
 4403W        W 8454   4.516   2.177  10.912
 4404W        W 8455   1.503  11.252   9.033
 4405W        W 8456   9.939   9.160   2.773
 4406W        W 8457   8.452   4.848   0.907
 4407W        W 8458   0.447   0.281  11.758
 4408W        W 8459   5.166   7.751   1.340
 4409W        W 8460  10.523   1.703   2.823
 4410W        W 8461   7.897   6.476   0.753
 4411W        W 8462   5.977   5.238  10.077
 4412W        W 8463   4.641   5.303  11.734
 4413W        W 8464   8.685   2.110   9.986
 4414W        W 8465   1.707  11.314   9.882
 4415W        W 8466   0.016  10.353   9.573
 4416W        W 8467   2.861  11.142  10.307
 4417W        W 8468   4.515   0.376   1.975
 4418W        W 8469   5.741   9.398  10.342
 4419W        W 8470   5.609   0.270   1.386
 4420W        W 8471   7.845   0.997   0.938
 4421W        W 8472   7.745   9.913   8.798
 4422W        W 8473   1.819  10.974   1.623
 4423W        W 8474   1.271   7.992   9.883
 4424W        W 8475   4.554   9.310   3.556
 4425W        W 8476   6.037   6.689   0.866
 4426W        W 8477   8.182   7.069   2.105
 4427W        W 8478   0.335   4.833   2.147
 4428W        W 8479   4.628   9.805  10.249
 4429W        W 8480   0.421   0.244  10.116
 4430W        W 8481  11.256   0.843  11.367
 4431W        W 8482   7.583   9.906   2.364
 4432W        W 8483   5.152   9.974   8.452
 4433W        W 8484   4.036   9.242   8.997
 4434W        W 8485   5.056   2.978   0.068
 4435W        W 8486   3.470   5.992   3.035
 4436W        W 8487  10.364  10.077   0.767
 4437W        W 8488   3.127   5.271  11.363
 4438W        W 8489   0.443  10.850   9.903
 4439W        W 8490   2.317   5.533  11.067
 4440W        W 8491   6.651   0.544  10.694
 4441W        W 8492   1.176   0.512   0.427
 4442W        W 8493   3.321   7.963   1.814
 4443W        W 8494   0.973   2.903   2.196
 4444W        W 8495   2.718   5.563   9.788
 4445W        W 8496   3.489   0.574   1.845
 4446W        W 8497  10.459   1.738   3.435
 4447W        W 8498   7.631   0.411   0.941
 4448W        W 8499  10.756   2.985  10.876
 4449W        W 8500   8.298   1.459   8.972
 4450W        W 8501   7.961   8.699   9.499
 4451W        W 8502   3.367  10.004   9.361
 4452W        W 8503  10.888  10.911  10.585
 4453W        W 8504   0.222   1.954   1.886
 4454W        W 8505   0.503   9.340  10.866
 4455W        W 8506  10.614   2.552   8.728
 4456W        W 8507   6.937  10.378   2.880
 4457W        W 8508   4.573   4.808   0.982
 4458W        W 8509   8.512   3.959  10.858
 4459W        W 8510   8.335   2.145   0.400
 4460W        W 8511   0.819   7.323   2.675
 4461W        W 8512   8.173   3.757   8.644
 4462W        W 8513   3.508   7.622   0.595
 4463W        W 8514   1.619   1.054   9.130
 4464W        W 8515   6.160  10.314   8.604
 4465W        W 8516  11.289   3.782   2.390
 4466W        W 8517  10.408   0.012  10.233
 4467W        W 8518   8.496   8.099   1.159
 4468W        W 8519   0.049   9.509  11.787
 4469W        W 8520   5.260  10.347   1.398
 4470W        W 8521   5.596  10.443  11.730
 4471W        W 8522   2.866   9.564   0.328
 4472W        W 8523   8.146   2.760   0.315
 4473W        W 8524   1.414   4.663   2.897
 4474W        W 8525   2.839   6.399   9.957
 4475W        W 8526  10.830  10.919  11.884
 4476W        W 8527   8.401   9.468   8.507
 4477W        W 8528   9.455   5.346  11.258
 4478W        W 8529   8.938   5.250   3.302
 4479W        W 8530   3.410   2.216   1.710
 4480W        W 8531  10.536  10.851   2.713
 4481W        W 8532  10.425  11.287   9.755
 4482W        W 8533   1.282   4.774  10.322
 4483W        W 8534   2.654   0.041  11.277
 4484W        W 8535   8.131   2.739  11.785
 4485W        W 8536   1.358   6.995  11.070
 4486W        W 8537   1.484   6.293  11.684
 4487W        W 8538   2.183   5.786  11.885
 4488W        W 8539  11.349   9.012  11.789
 4489W        W 8540  10.048   2.964   2.829
 4490W        W 8541   4.511   2.955   3.074
 4491W        W 8542   9.970   3.214   9.251
 4492W        W 8543  10.892   3.144   1.482
 4493W        W 8544   9.198   3.632  11.264
 4494W        W 8545   3.499   2.282  11.082
 4495W        W 8546   7.992   0.278   9.922
 4496W        W 8547   2.106   0.875   9.106
 4497W        W 8548   1.919   3.132   9.655
 4498W        W 8549  10.258  11.254   1.163
 4499W        W 8550   6.658  11.334   1.982
 4500W        W 8551   4.058   2.965   9.103
 4501W        W 8552   3.971   0.976  10.834
 4502W        W 8553   1.700   2.229  11.370
 4503W        W 8554   3.190   0.719  11.819
 4504W        W 8555   3.344   6.553   9.846
 4505W        W 8556   8.721   9.046  10.268
 4506W        W 8557   5.677   4.033   8.200
 4507W        W 8558   5.875  10.993   0.456
 4508W        W 8559   0.151   0.356   2.479
 4509W        W 8560   5.582   9.699   0.682
 4510W        W 8561   1.211   3.747   3.389
 4511W        W 8562   9.027  10.578   0.247
 4512W        W 8563   2.879   1.354   8.984
 4513W        W 8564   9.525   0.988  10.342
 4514W        W 8565   6.993   1.850   1.125
 4515W        W 8566   1.210   0.209   9.116
 4516W        W 8567   8.952   7.171   1.661
 4517W        W 8568  11.213   9.374  10.381
 4518W        W 8569   9.182   9.536   3.253
 4519W        W 8570   3.909   6.957   2.419
 4520W        W 8571   3.752   7.099  10.123
 4521W        W 8572   4.623   6.405   3.970
 4522W        W 8573   4.714   7.530   9.553
 4523W        W 8574   7.037   8.735  11.584
 4524W        W 8575   1.297  10.481  10.883
 4525W        W 8576   5.686   8.461   8.623
 4526W        W 8577   9.381   1.096   0.250
 4527W        W 8578   2.005   6.989   0.817
 4528W        W 8579   1.137   7.122   9.530
 4529W        W 8580   5.823   5.292  10.570
 4530W        W 8581   6.885   8.520   1.052
 4531W        W 8582   4.038   7.533  10.520
 4532W        W 8583   6.013   2.789   1.344
 4533W        W 8584  11.462   5.141  11.587
 4534W        W 8585   6.684   9.543   1.973
 4535W        W 8586   6.869   8.149  11.770
 4536W        W 8587   4.284   6.978   2.083
 4537W        W 8588   6.071   7.393   1.754
 4538W        W 8589   6.212   0.476  10.336
 4539W        W 8590   9.636   7.997   0.792
 4540W        W 8591   9.918   3.818  10.801
 4541W        W 8592  11.194   1.318   0.076
 4542W        W 8593   6.000   2.648   9.070
 4543W        W 8594  11.376   2.487  11.552
 4544W        W 8595   3.113   6.626   2.020
 4545W        W 8596   6.250   9.068   9.103
 4546W        W 8597   6.829   0.252   0.009
 4547W        W 8598   2.290   0.952  10.399
 4548W        W 8599   7.126   0.289  10.491
 4549W        W 8600   8.081   8.422  10.445
 4550W        W 8601   7.954   3.324  10.151
 4551W        W 8602   9.614  10.437   3.320
 4552W        W 8603   2.601   8.099   8.884
 4553W        W 8604   7.905   3.201   9.647
 4554W        W 8605   9.861   6.122   1.165
 4555W        W 8606   2.481   6.538   9.626
 4556W        W 8607   4.592   9.517  11.216
 4557W        W 8608   5.965   4.381   8.467
 4558W        W 8609   7.761   7.919   9.641
 4559W        W 8610   1.208  11.444   0.959
 4560W        W 8611   6.597  10.819   9.809
 4561W        W 8612   4.617   6.310   8.818
 4562W        W 8613   8.576   9.446   2.899
 4563W        W 8614   5.038  11.052  11.571
 4564W        W 8615   4.592  11.234   0.857
 4565W        W 8616   0.037   9.963   3.151
 4566W        W 8617   4.523   3.366   2.761
 4567W        W 8618   3.364   7.166   0.757
 4568W        W 8619   2.982   9.902   2.966
 4569W        W 8620  10.729  10.321   1.829
 4570W        W 8621   7.491   7.213   2.948
 4571W        W 8622  10.485   6.521   9.383
 4572W        W 8623  11.457   6.802  10.985
 4573W        W 8624   1.287   8.770  10.558
 4574W        W 8625   3.413   9.296   8.781
 4575W        W 8626   8.815   3.054  10.056
 4576W        W 8627   9.630   5.774   9.911
 4577W        W 8628   9.469   6.080   3.431
 4578W        W 8629   2.684   2.300  11.373
 4579W        W 8630   1.475   2.664  11.494
 4580W        W 8631   9.886   8.358  10.324
 4581W        W 8632   9.712   4.768   9.736
 4582W        W 8633   8.119   2.264  11.944
 4583W        W 8634   9.830   4.117  10.061
 4584W        W 8635   2.381  10.156  11.881
 4585W        W 8636   1.310   5.551  10.508
 4586W        W 8637   7.472   1.190  10.934
 4587W        W 8638  10.028   2.667   3.288
 4588W        W 8639   2.146   6.759  11.783
 4589W        W 8640   1.723   3.948   3.314
 4590W        W 8641   5.967   9.131   2.105
 4591W        W 8642  10.468   2.702   2.977
 4592W        W 8643  10.862   8.661   0.384
 4593W        W 8644   6.483  10.635   3.245
 4594W        W 8645   9.388   0.836   1.306
 4595W        W 8646   9.293   3.949   3.552
 4596W        W 8647   4.548  10.819  10.187
 4597W        W 8648   6.426  10.741   0.937
 4598W        W 8649   9.581  11.175   8.458
 4599W        W 8650  10.886   4.020   3.276
 4600W        W 8651   0.750   8.614   8.945
 4601W        W 8652   0.403   5.663   2.358
 4602W        W 8653   4.644   3.194  10.868
 4603W        W 8654  10.290  10.085  10.585
 4604W        W 8655  11.371   4.417   1.145
 4605W        W 8656   7.990   9.948   1.867
 4606W        W 8657   9.913   4.379   2.895
 4607W        W 8658   2.213   4.851   1.682
 4608W        W 8659   6.517   0.704   9.988
 4609W        W 8660   8.620   6.657   9.280
 4610W        W 8661   5.893   3.382  10.284
 4611W        W 8662   7.176   6.159   1.179
 4612W        W 8663   4.243   6.695   9.463
 4613W        W 8664   8.679   2.113   3.588
 4614W        W 8665   7.451   4.267  11.499
 4615W        W 8666   4.243   0.551  10.884
 4616W        W 8667   9.276   3.371   0.004
 4617W        W 8668   0.326   2.686  10.080
 4618W        W 8669   3.814   2.203   9.553
 4619W        W 8670   7.420  11.277   9.482
 4620W        W 8671   0.158   2.256  11.948
 4621W        W 8672   8.004  11.288   1.989
 4622W        W 8673   1.455   8.438   9.700
 4623W        W 8674   2.331   7.659   9.727
 4624W        W 8675   4.960   2.832   2.245
 4625W        W 8676   5.562   7.131   1.171
 4626W        W 8677   5.642   4.227   2.700
 4627W        W 8678   8.829   9.462   1.138
 4628W        W 8679   8.289   0.205   2.474
 4629W        W 8680   2.797   4.737  10.881
 4630W        W 8681   5.218   9.273  11.550
 4631W        W 8682   6.055   0.376   2.775
 4632W        W 8683   4.187   7.544   9.537
 4633W        W 8684   2.355   3.481   9.483
 4634W        W 8685  11.281  11.252   1.316
 4635W        W 8686   8.365  10.872   3.359
 4636W        W 8687   1.223   2.647   8.877
 4637W        W 8688   2.621   8.646   2.188
 4638W        W 8689  10.108   9.787   0.446
 4639W        W 8690   1.862   2.032  11.929
 4640W        W 8691   5.795   1.218   8.975
 4641W        W 8692   1.835   3.692  10.503
 4642W        W 8693   4.570   3.159   9.958
 4643W        W 8694   5.689   3.641  10.996
 4644W        W 8695   6.444   8.273  10.859
 4645W        W 8696   9.287  11.019   3.073
 4646W        W 8697   1.179   3.133   8.658
 4647W        W 8698   7.726   8.592   2.295
 4648W        W 8699  10.971   8.638   9.345
 4649W        W 8700   3.122   0.814   0.744
 4650W        W 8701   4.708   9.075  10.954
 4651W        W 8702   3.155   0.870   9.099
 4652W        W 8703   6.344   8.863  11.944
 4653W        W 8704   5.163  10.542   3.335
 4654W        W 8705  11.332   2.616  10.014
 4655W        W 8706   8.083   0.987   9.081
 4656W        W 8707   6.750   7.697  11.554
 4657W        W 8708   2.167   9.816   0.752
 4658W        W 8709   0.402  10.951   2.651
 4659W        W 8710  11.078   2.619  10.494
 4660W        W 8711   7.541   5.986   0.833
 4661W        W 8712   3.176   4.365   1.212
 4662W        W 8713   2.346   4.144  11.597
 4663W        W 8714  10.017  10.224   2.317
 4664W        W 8715   7.197  10.330   2.422
 4665W        W 8716   8.310   8.537   3.403
 4666W        W 8717   1.310   9.277   8.970
 4667W        W 8718  10.919   0.869  11.868
 4668W        W 8719   6.490   0.100   2.882
 4669W        W 8720  10.387   8.969   0.090
 4670W        W 8721   2.695   1.162   0.332
 4671W        W 8722   7.816   7.726   0.885
 4672W        W 8723   7.519   4.624  10.044
 4673W        W 8724   5.688   3.585   0.264
 4674W        W 8725  10.491   3.620   1.304
 4675W        W 8726   8.271   2.460   1.959
 4676W        W 8727  11.498   9.044   9.125
 4677W        W 8728   3.238   3.364   9.464
 4678W        W 8729   1.671  10.692   0.455
 4679W        W 8730   2.283   4.373   1.458
 4680W        W 8731   0.553   7.060   0.240
 4681W        W 8732  11.003   7.189   9.022
 4682W        W 8733  10.112   9.092   0.952
 4683W        W 8734   1.511   3.250   3.576
 4684W        W 8735   4.815   0.474  11.523
 4685W        W 8736   0.831  10.907   0.210
 4686W        W 8737   9.514   2.387   1.011
 4687W        W 8738   2.874  10.941   8.489
 4688W        W 8739   5.011   9.522   3.374
 4689W        W 8740   8.069   8.488   0.410
 4690W        W 8741   0.566   2.315   0.272
 4691W        W 8742   0.815   7.401   3.570
 4692W        W 8743   8.057   2.036   8.536
 4693W        W 8744   8.542   8.472   2.504
 4694W        W 8745   6.168   6.207  10.272
 4695W        W 8746   0.308   5.264  10.265
 4696W        W 8747   9.834   9.439  11.130
 4697W        W 8748  10.300   0.779   2.735
 4698W        W 8749   2.889   5.054   2.180
 4699W        W 8750   4.976  11.063  10.329
 4700W        W 8751   4.042  10.584  10.251
 4701W        W 8752   9.600  11.020  10.324
 4702W        W 8753   2.960   4.975   1.693
 4703W        W 8754  10.121   3.763  11.260
 4704W        W 8755   5.105  10.953   1.522
 4705W        W 8756   7.530   0.587  10.651
 4706W        W 8757   6.730   6.285  10.521
 4707W        W 8758   6.246   7.146   0.854
 4708W        W 8759   0.125   4.107   2.616
 4709W        W 8760   7.029   1.439   2.124
 4710W        W 8761   2.972   6.896   0.995
 4711W        W 8762  10.606   0.794   1.816
 4712W        W 8763   9.610   1.650  11.461
 4713W        W 8764   2.450   7.026   0.546
 4714W        W 8765   3.152   9.591  10.086
 4715W        W 8766  10.463   8.999   9.232
 4716W        W 8767   5.128  10.558  11.596
 4717W        W 8768   4.769   5.244   1.272
 4718W        W 8769   8.098   0.644   2.238
 4719W        W 8770   0.593   8.705   0.926
 4720W        W 8771   3.497   4.629   3.556
 4721W        W 8772   6.103   5.204   1.046
 4722W        W 8773   2.020   9.087   1.346
 4723W        W 8774   4.844   0.991   9.308
 4724W        W 8775   0.905   2.431   0.708
 4725W        W 8776   8.618   4.629   9.527
 4726W        W 8777   7.255   9.971  11.082
 4727W        W 8778   4.264   7.136  10.272
 4728W        W 8779   7.387   0.825  10.217
 4729W        W 8780   2.592   4.277  10.714
 4730W        W 8781   0.460  10.827   1.660
 4731W        W 8782   9.739   6.617  10.860
 4732W        W 8783   5.875   6.901   3.530
 4733W        W 8784   5.632   4.534   3.482
 4734W        W 8785  10.803   9.563  11.310
 4735W        W 8786   1.561   6.900   0.529
 4736W        W 8787  10.340   3.686   2.486
 4737W        W 8788   8.798  10.920   3.093
 4738W        W 8789   6.363   0.663   9.521
 4739W        W 8790   9.886   0.439  11.814
 4740W        W 8791   6.022   2.670   9.945
 4741W        W 8792   3.159   1.020   3.026
 4742W        W 8793   1.613   0.676   9.966
 4743W        W 8794   4.730   5.239   1.790
 4744W        W 8795   1.819   0.469  11.746
 4745W        W 8796   1.697   3.372  11.936
 4746W        W 8797  11.410   6.159  10.942
 4747W        W 8798   0.705   9.599   1.092
 4748W        W 8799   6.105   7.898   1.758
 4749W        W 8800   1.249   8.281  10.702
 4750W        W 8801   2.697   0.380  11.733
 4751W        W 8802   5.551   6.707   0.896
 4752W        W 8803   0.257   6.180   1.019
 4753W        W 8804   1.715   9.546   9.115
 4754W        W 8805   7.761   6.558  11.888
 4755W        W 8806   9.966   7.990   9.174
 4756W        W 8807   1.898   7.197   8.939
 4757W        W 8808   7.370  11.295  10.367
 4758W        W 8809   4.864  10.839   0.009
 4759W        W 8810   1.373  10.683   2.821
 4760W        W 8811   8.487   9.924   3.129
 4761W        W 8812   8.053  11.302   3.399
 4762W        W 8813   8.044   0.228   1.313
 4763W        W 8814   4.696   2.209  10.070
 4764W        W 8815   2.258   5.701   2.220
 4765W        W 8816   4.324   1.888  10.161
 4766W        W 8817   9.442  10.111   9.458
 4767W        W 8818   1.397   1.475   0.398
 4768W        W 8819  10.404   5.473   8.870
 4769W        W 8820   5.695  11.381   2.264
 4770W        W 8821  10.284   5.287   1.297
 4771W        W 8822   3.627   8.251   2.697
 4772W        W 8823   2.641   9.160   2.430
 4773W        W 8824   5.010   6.170   1.415
 4774W        W 8825  11.451   4.736  10.074
 4775W        W 8826   2.484   7.184   3.650
 4776W        W 8827   0.706   7.580  10.193
 4777W        W 8828   8.040   0.483   8.915
 4778W        W 8829   1.868  11.314   3.473
 4779W        W 8830   1.068  10.496   1.052
 4780W        W 8831   0.179   9.356   0.493
 4781W        W 8832   9.075   3.431   1.862
 4782W        W 8833   9.674   3.711   0.120
 4783W        W 8834   5.969   1.684  11.815
 4784W        W 8835   9.954   5.249   1.688
 4785W        W 8836   6.089   6.407   1.749
 4786W        W 8837  10.423   5.818  10.992
 4787W        W 8838   6.604   4.326   1.438
 4788W        W 8839   8.213   3.719   2.807
 4789W        W 8840   0.822  11.289   3.596
 4790W        W 8841   3.914   9.829   3.558
 4791W        W 8842  11.246   1.207  10.263
 4792W        W 8843   5.342  10.690   0.087
 4793W        W 8844   6.255   1.538  11.412
 4794W        W 8845   3.226   7.197  11.885
 4795W        W 8846   5.902  11.085  10.409
 4796W        W 8847  11.095  11.239   2.199
 4797W        W 8848   6.064   7.591   0.728
 4798W        W 8849   6.529   9.844   0.849
 4799W        W 8850   1.927   3.288   2.359
 4800W        W 8851   2.893   2.260   1.703
 4801W        W 8852  10.033   9.912   1.361
 4802W        W 8853   2.040  10.482   0.074
 4803W        W 8854   6.176   8.687   9.466
 4804W        W 8855   0.825   2.785   2.656
 4805W        W 8856  10.832   2.245   9.271
 4806W        W 8857   4.238   1.089   3.680
 4807W        W 8858   2.278   3.113  11.270
 4808W        W 8859  10.721   0.095   2.241
 4809W        W 8860   2.542  11.370  11.788
 4810W        W 8861   1.024   1.371   2.758
 4811W        W 8862   1.308   1.047  10.098
 4812W        W 8863   3.106   1.184   0.015
 4813W        W 8864   8.545   3.577   0.406
 4814W        W 8865  11.481   3.868   0.491
 4815W        W 8866  10.435   5.316   9.889
 4816W        W 8867   2.239   5.239   8.567
 4817W        W 8868   2.659   5.055   3.184
 4818W        W 8869   6.543   3.958  11.806
 4819W        W 8870   8.441   9.324   2.423
 4820W        W 8871   8.199   2.346   1.461
 4821W        W 8872   0.199   9.524   0.970
 4822W        W 8873   3.217   1.603  10.906
 4823W        W 8874   1.993  11.463  10.450
 4824W        W 8875   7.053   9.311   8.474
 4825W        W 8876   7.274   4.271   2.760
 4826W        W 8877   9.980  11.436  11.035
 4827W        W 8878   8.374   0.830  11.692
 4828W        W 8879   4.675   3.738   9.056
 4829W        W 8880   6.034   9.595   3.081
 4830W        W 8881   9.042   1.727   9.802
 4831W        W 8882   5.750   6.434   3.100
 4832W        W 8883   6.928   2.185  10.493
 4833W        W 8884   5.456   4.501   8.315
 4834W        W 8885   2.735   7.085   8.586
 4835W        W 8886   4.671   4.830  10.487
 4836W        W 8887   7.929   6.212   9.753
 4837W        W 8888   3.543  11.265   2.149
 4838W        W 8889  11.274   2.028   9.468
 4839W        W 8890  10.300   0.513  10.231
 4840W        W 8891  10.407   8.343   0.483
 4841W        W 8892   4.528   2.387   0.512
 4842W        W 8893   7.012   8.911   1.753
 4843W        W 8894   5.129   2.618   8.980
 4844W        W 8895   6.971   2.759   2.265
 4845W        W 8896   2.581   0.934   0.787
 4846W        W 8897  10.561   3.514  11.277
 4847W        W 8898   9.627   4.074   0.460
 4848W        W 8899   6.096   8.165   1.317
 4849W        W 8900   3.114  11.312   0.953
 4850W        W 8901   0.269  10.029   0.907
 4851W        W 8902   5.692  10.484   1.644
 4852W        W 8903   6.931   2.927   0.975
 4853W        W 8904  10.448   4.891  10.814
 4854W        W 8905   3.523  10.843   1.298
 4855W        W 8906   8.045   2.307   2.409
 4856W        W 8907   8.354   0.191   1.969
 4857W        W 8908   2.424   5.127  10.798
 4858W        W 8909   1.916   9.626   2.070
 4859W        W 8910   2.256  10.500   9.624
 4860W        W 8911   3.036   9.488   2.656
 4861W        W 8912   6.799   2.630   2.731
 4862W        W 8913  10.671   5.500   3.132
 4863W        W 8914   6.815   8.008   1.069
 4864W        W 8915   3.905   8.768   0.451
 4865W        W 8916   8.566  10.854   9.072
 4866W        W 8917   9.956  10.946  10.880
 4867W        W 8918   0.296  11.417   8.799
 4868W        W 8919   9.389   7.503   2.567
 4869W        W 8920  11.447   6.546   1.336
 4870W        W 8921  10.485   3.197   3.209
 4871W        W 8922   4.856   1.787   2.359
 4872W        W 8923  10.345   4.655  11.890
 4873W        W 8924   7.592   2.033   3.022
 4874W        W 8925   6.117   8.432   1.752
 4875W        W 8926  10.839   0.639   2.295
 4876W        W 8927   3.898   1.410   2.815
 4877W        W 8928   1.452   6.093   0.559
 4878W        W 8929   6.174   5.046   0.022
 4879W        W 8930   7.037   5.165   1.151
 4880W        W 8931   2.321  10.321   1.429
 4881W        W 8932   8.854   1.329   2.234
 4882W        W 8933   8.569  10.367   9.967
 4883W        W 8934   0.756   0.579  11.420
 4884W        W 8935   1.490   4.101   2.344
 4885W        W 8936   4.067   6.346   8.096
 4886W        W 8937   8.860   2.074   3.104
 4887W        W 8938   2.173   2.362   2.285
 4888W        W 8939  10.588   0.309   9.819
 4889W        W 8940   0.767   9.488  10.400
 4890W        W 8941   3.589   7.458  11.265
 4891W        W 8942   7.732   5.070  11.046
 4892W        W 8943   3.146   6.772   8.507
 4893W        W 8944   0.921   7.970   0.586
 4894W        W 8945   6.012   2.563   3.601
 4895W        W 8946   3.179   7.616  10.529
 4896W        W 8947   8.377  10.862  10.030
 4897W        W 8948   9.566  10.901   8.923
 4898W        W 8949   3.502   8.886   9.528
 4899W        W 8950   7.794   3.612   1.892
 4900W        W 8951   2.957   1.150  10.928
 4901W        W 8952   2.313   7.449  11.065
 4902W        W 8953   7.956   5.510  10.313
 4903W        W 8954   5.197   8.608   1.650
 4904W        W 8955  11.454   2.067   9.944
 4905W        W 8956   6.606   1.435   0.360
 4906W        W 8957   2.608   5.765   0.249
 4907W        W 8958   0.865   3.599  11.955
 4908W        W 8959   3.688   6.291   8.994
 4909W        W 8960   0.891   9.558   9.088
 4910W        W 8961  10.142   6.575   3.840
 4911W        W 8962   4.657   7.470  11.070
 4912W        W 8963   7.127   8.055   0.225
 4913W        W 8964  10.008   5.169   9.552
 4914W        W 8965   0.310   1.668   2.292
 4915W        W 8966   2.877   1.419   2.837
 4916W        W 8967   1.516  10.425   2.297
 4917W        W 8968  11.425   7.007  11.451
 4918W        W 8969   9.515   3.446   2.150
 4919W        W 8970   8.963   0.891   9.342
 4920W        W 8971   3.669  10.351   1.172
 4921W        W 8972  10.914   2.201  11.451
 4922W        W 8973  10.450   0.108   9.342
 4923W        W 8974   9.242   6.091   2.427
 4924W        W 8975   6.878   7.492   3.179
 4925W        W 8976   6.264  11.319   1.653
 4926W        W 8977   6.387   5.877   9.623
 4927W        W 8978   7.273   2.746   1.372
 4928W        W 8979  10.226   6.500   1.916
 4929W        W 8980   0.757   5.762  11.043
 4930W        W 8981   5.447   2.826   2.417
 4931W        W 8982   7.522   0.466   0.438
 4932W        W 8983   1.129   6.025   0.944
 4933W        W 8984   3.636   8.530   3.146
 4934W        W 8985  10.208   1.149   0.031
 4935W        W 8986   2.758   1.907   0.687
 4936W        W 8987   3.183  10.466   9.579
 4937W        W 8988   3.922   6.966  11.166
 4938W        W 8989   7.431   1.960  10.511
 4939W        W 8990   4.238   2.404   8.820
 4940W        W 8991   3.400   9.870  11.937
 4941W        W 8992   8.765   3.834   1.706
 4942W        W 8993   8.024   6.510   2.763
 4943W        W 8994   1.152  10.432  11.980
 4944W        W 8995  10.445   7.479   0.164
 4945W        W 8996  10.876   1.580   2.432
 4946W        W 8997   9.933   8.945   0.478
 4947W        W 8998   9.628   4.208   9.002
 4948W        W 8999   2.617   1.349  11.254
 4949W        W 9000   4.212  11.032   1.696
 4950W        W 9001   7.021   0.813   3.137
 4951W        W 9002   8.531   8.825   1.706
 4952W        W 9003   1.679   3.098   2.782
 4953W        W 9004   0.009   2.878  10.457
 4954W        W 9005   8.881   7.824  10.622
 4955W        W 9006   5.905  10.434   1.180
 4956W        W 9007   2.819  11.395   2.687
 4957W        W 9008   2.599   2.439   1.293
 4958W        W 9009  10.327   7.408   2.397
 4959W        W 9010   9.330   4.805   2.275
 4960W        W 9011   2.915   5.060   1.205
 4961W        W 9012  10.367   1.657  10.963
 4962W        W 9013  10.887   6.135   3.229
 4963W        W 9014   1.258   4.296   9.400
 4964W        W 9015   1.350   0.377   2.028
 4965W        W 9016   7.223   7.915  11.490
 4966W        W 9017   3.820   8.152   1.895
 4967W        W 9018   1.699   8.121   2.280
 4968W        W 9019   5.887   7.249  11.761
 4969W        W 9020   0.633   3.227   3.498
 4970W        W 9021   2.158   5.826   3.278
 4971W        W 9022  10.320  11.445   2.515
 4972W        W 9023   6.457   0.948  10.430
 4973W        W 9024   6.500   6.212   2.020
 4974W        W 9025  10.133   5.113  11.930
 4975W        W 9026  11.002   4.972  10.797
 4976W        W 9027   8.840   6.512   8.292
 4977W        W 9028   1.754   4.972   0.769
 4978W        W 9029   6.464   5.710   0.449
 4979W        W 9030   6.674   4.945  11.973
 4980W        W 9031   6.226  10.419   1.621
 4981W        W 9032  11.078   0.491   9.901
 4982W        W 9033  10.147   3.808   0.248
 4983W        W 9034   5.236   6.718   2.258
 4984W        W 9035   9.349   5.955   9.498
 4985W        W 9036   0.392   9.028  11.602
 4986W        W 9037   2.320   3.737   0.329
 4987W        W 9038   4.921   9.980   9.223
 4988W        W 9039   9.100   5.508   9.560
 4989W        W 9040   1.734   6.744   9.893
 4990W        W 9041   4.756  11.476  11.571
 4991W        W 9042   7.041   5.541  11.205
 4992W        W 9043   2.498   4.140   2.272
 4993W        W 9044   6.649  11.030   3.537
 4994W        W 9045   7.901   5.913  11.446
 4995W        W 9046   6.731   7.971   0.569
 4996W        W 9047   3.517   7.928   2.289
 4997W        W 9048   8.386   6.057  11.408
 4998W        W 9049  11.421   6.442   9.858
 4999W        W 9050   2.005   2.657   9.427
 5000W        W 9051   7.334   9.706   8.592
 5001W        W 9052   5.795   6.671   1.378
 5002W        W 9053  11.228   2.135   8.965
 5003W        W 9054   8.260  10.570  11.436
 5004W        W 9055   0.174   8.064  11.285
 5005W        W 9056   9.976   5.140   3.514
 5006W        W 9057   0.962   9.079   3.706
 5007W        W 9058   2.876   6.539  11.924
 5008W        W 9059   7.294  10.445  11.340
 5009W        W 9060   3.972   0.218   3.596
 5010W        W 9061   8.051   6.850   1.212
 5011W        W 9062   8.617   4.038   2.700
 5012W        W 9063   3.614  11.230   0.891
 5013W        W 9064   0.688   7.749   2.424
 5014W        W 9065   5.387   9.432   3.691
 5015W        W 9066   0.991   9.614  10.895
 5016W        W 9067   7.394   2.609   9.946
 5017W        W 9068   4.163   6.059   1.671
 5018W        W 9069   7.538  11.079   2.691
 5019W        W 9070   8.569   7.412  10.698
 5020W        W 9071   6.549   6.119   8.211
 5021W        W 9072   2.676   6.461   0.946
 5022W        W 9073   3.270   2.622  11.993
 5023W        W 9074   6.541   8.466   9.181
 5024W        W 9075   2.609  11.111   1.080
 5025W        W 9076   6.698  10.290   2.439
 5026W        W 9077   3.081   1.196   1.061
 5027W        W 9078   8.702  10.317   9.031
 5028W        W 9079   5.449   3.126   9.271
 5029W        W 9080   5.940   5.800  10.510
 5030W        W 9081  10.034   3.701  11.751
 5031W        W 9082  10.009   5.589   9.169
 5032W        W 9083   8.508   2.585  10.102
 5033W        W 9084   5.292   2.141  11.488
 5034W        W 9085   0.559   2.314  10.365
 5035W        W 9086   1.355   9.499  11.548
 5036W        W 9087   6.684   8.381   2.282
 5037W        W 9088   8.201   9.491   3.268
 5038W        W 9089   9.883   8.652   2.825
 5039W        W 9090   2.516   6.683   3.463
 5040W        W 9091   1.364   1.453   1.823
 5041W        W 9092   9.794   9.336   2.177
 5042W        W 9093   5.314   5.118  11.604
 5043W        W 9094   6.712  11.443   1.435
 5044W        W 9095   8.923   8.254   8.148
 5045W        W 9096   2.735   7.913   9.872
 5046W        W 9097   1.699   1.571   2.603
 5047W        W 9098   5.785   9.153   0.555
 5048W        W 9099  10.924   5.551  11.885
 5049W        W 9100   1.462   4.535   9.002
 5050W        W 9101   5.592   6.149  10.668
 5051W        W 9102  11.212  10.764   9.475
 5052W        W 9103   9.353   1.832   1.063
 5053W        W 9104   5.253   1.384   8.586
 5054W        W 9105   9.636   3.788   9.495
 5055W        W 9106   2.500   2.928  10.517
 5056W        W 9107   3.751   8.451   9.235
 5057W        W 9108  11.123   1.495   0.969
 5058W        W 9109   8.620  10.813  10.480
 5059W        W 9110   5.597   7.646   8.296
 5060W        W 9111   1.392   5.693   2.754
 5061W        W 9112   7.585  10.929   1.290
 5062W        W 9113   0.474   1.475   0.294
 5063W        W 9114   4.514   1.272  11.994
 5064W        W 9115   0.261   7.500   2.508
 5065W        W 9116   2.470   5.297   0.517
 5066W        W 9117   7.805   5.500  11.710
 5067W        W 9118   7.591   8.919  10.182
 5068W        W 9119   3.065   1.835  10.050
 5069W        W 9120   4.007   0.474   1.948
 5070W        W 9121   7.494   0.675  11.613
 5071W        W 9122   4.081   4.823   0.806
 5072W        W 9123   9.605   1.418   2.915
 5073W        W 9124   6.645   7.554   9.170
 5074W        W 9125   3.259   7.806   8.916
 5075W        W 9126  11.480   0.793  10.831
 5076W        W 9127   1.435   5.089   9.000
 5077W        W 9128   7.157  10.433   3.324
 5078W        W 9129   1.341   2.316   2.887
 5079W        W 9130   8.783   3.135  11.008
 5080W        W 9131   1.769   7.641  11.862
 5081W        W 9132   4.084   2.213   2.180
 5082W        W 9133  10.111   1.715  11.411
 5083W        W 9134   3.349   8.683   2.739
 5084W        W 9135   7.822   7.455   3.258
 5085W        W 9136   4.591   4.398  11.314
 5086W        W 9137  11.297   9.254  11.279
 5087W        W 9138   8.558   7.188  10.231
 5088W        W 9139   3.451   7.063  10.971
 5089W        W 9140   1.943   0.259   9.997
 5090W        W 9141   2.933  10.047   0.485
 5091W        W 9142   0.525  11.036   9.101
 5092W        W 9143   1.780   6.446   2.447
 5093W        W 9144   3.602   8.859  10.018
 5094W        W 9145   8.540   2.840   3.159
 5095W        W 9146   7.000   0.708  11.783
 5096W        W 9147   9.344  11.167  11.697
 5097W        W 9148   9.325  11.113   9.341
 5098W        W 9149   2.659   5.560   9.264
 5099W        W 9150   1.380   7.894  10.403
 5100W        W 9151   4.341   9.091   8.587
 5101W        W 9152  11.129   9.603   3.089
 5102W        W 9153   0.790   6.604   0.287
 5103W        W 9154   3.807   8.025   0.512
 5104W        W 9155   2.463   9.617  11.134
 5105W        W 9156   9.004   6.287   1.796
 5106W        W 9157   4.352   7.116   2.616
 5107W        W 9158  10.794   8.248   3.143
 5108W        W 9159   6.628   9.402   0.560
 5109W        W 9160   1.353   0.464   0.935
 5110W        W 9161   4.537   3.024   1.930
 5111W        W 9162   8.590   3.622   8.387
 5112W        W 9163   4.478   5.994  10.650
 5113W        W 9164   4.497   1.443   3.357
 5114W        W 9165   3.462   9.174   2.811
 5115W        W 9166   0.810   5.286   3.142
 5116W        W 9167   0.365  11.039   3.653
 5117W        W 9168   0.238   9.450  10.423
 5118W        W 9169   1.806  10.897   2.628
 5119W        W 9170   1.996   3.180   3.425
 5120W        W 9171  11.481  10.799   2.346
 5121W        W 9172   0.387   5.407  11.659
 5122W        W 9173   1.748  11.354   1.960
 5123W        W 9174   3.744   7.623   1.884
 5124W        W 9175   7.990   6.938  11.525
 5125W        W 9176   4.594   4.364   1.703
 5126W        W 9177  10.851   0.962  10.084
 5127W        W 9178  10.624   2.249  11.881
 5128W        W 9179   5.476   5.217  10.211
 5129W        W 9180   7.447   8.853  10.669
 5130W        W 9181   4.033   3.110  10.518
 5131W        W 9182   0.758   4.336   9.061
 5132W        W 9183   3.239   6.677   9.367
 5133W        W 9184   4.489   3.751   2.328
 5134W        W 9185  10.862   2.128   3.555
 5135W        W 9186   6.519   9.799   2.362
 5136W        W 9187   0.964   1.596   3.345
 5137W        W 9188   0.943   1.901  11.497
 5138W        W 9189   1.381   9.920  11.255
 5139W        W 9190   2.643   3.793   9.939
 5140W        W 9191   3.389   3.200  11.972
 5141W        W 9192   0.988   7.920   2.853
 5142W        W 9193   8.160   4.629   3.152
 5143W        W 9194   6.006   2.819   8.578
 5144W        W 9195  10.408   6.981   3.195
 5145W        W 9196   6.201   1.790   0.268
 5146W        W 9197  11.463   9.223   1.784
 5147W        W 9198   0.433   9.569   2.471
 5148W        W 9199   5.007   4.314   3.594
 5149W        W 9200   1.568   1.903   1.698
 5150W        W 9201   2.199   0.794   1.187
 5151W        W 9202   5.231   1.250   1.617
 5152W        W 9203   3.040   5.365   3.362
 5153W        W 9204   6.044   7.432  10.769
 5154W        W 9205  10.850   2.774  10.055
 5155W        W 9206   6.174   2.143  11.869
 5156W        W 9207   4.601   4.842  11.961
 5157W        W 9208  10.644   1.356   3.186
 5158W        W 9209   0.895   8.435   1.249
 5159W        W 9210   5.708   0.946   9.407
 5160W        W 9211   6.887   4.068   1.839
 5161W        W 9212   3.599   5.199   8.335
 5162W        W 9213   8.846  11.383   1.172
 5163W        W 9214   3.717   7.454  11.750
 5164W        W 9215   9.061   2.288  10.994
 5165W        W 9216  10.005   9.824   9.310
 5166W        W 9217   4.214   5.169   1.583
 5167W        W 9218   2.487  10.341   2.586
 5168W        W 9219   1.301   4.729   0.700
 5169W        W 9220   1.250   8.132   1.047
 5170W        W 9221   1.900   4.082  10.119
 5171W        W 9222   2.698   4.640   2.444
 5172W        W 9223   7.905   8.809  11.577
 5173W        W 9224   8.554   5.765   2.593
 5174W        W 9225  10.259   7.019   0.940
 5175W        W 9226   0.905   4.174   3.520
 5176W        W 9227   0.927   5.520   2.523
 5177W        W 9228   8.774   6.094   1.014
 5178W        W 9229   1.685   4.177   2.835
 5179W        W 9230   2.175   9.342   2.977
 5180W        W 9231   5.131   7.008   0.217
 5181W        W 9232  10.730   2.677   1.665
 5182W        W 9233   9.518   5.751   9.015
 5183W        W 9234  10.863  10.434   8.744
 5184W        W 9235   3.608   4.207   1.461
 5185W        W 9236   0.416   5.480  10.766
 5186W        W 9237   6.083   7.635   1.243
 5187W        W 9238   9.648   1.197   3.360
 5188W        W 9239   3.367   4.292   9.920
 5189W        W 9240  10.809   0.932   3.383
 5190W        W 9241   8.103   1.927   9.097
 5191W        W 9242   6.073   0.865   3.508
 5192W        W 9243   0.711  10.861  10.332
 5193W        W 9244   6.912   9.609   8.867
 5194W        W 9245  11.088   2.488   2.636
 5195W        W 9246   9.229   5.340   9.102
 5196W        W 9247   0.928   4.152  10.764
 5197W        W 9248   9.504  10.352   2.355
 5198W        W 9249   3.846   6.459  11.297
 5199W        W 9250   1.831   7.543  10.938
 5200W        W 9251   3.720   6.119   2.004
 5201W        W 9252   2.678   1.762   9.286
 5202W        W 9253   8.931   4.148  10.170
 5203W        W 9254   4.949   3.067   9.172
 5204W        W 9255   6.404   6.208   0.481
 5205W        W 9256   8.634   1.881   9.042
 5206W        W 9257   9.367  10.821   2.220
 5207W        W 9258   9.115   5.202   0.025
 5208W        W 9259   4.648   9.490   0.265
 5209W        W 9260   3.393   7.034   2.298
 5210W        W 9261   2.007   6.339   9.725
 5211W        W 9262   6.786  11.132   0.912
 5212W        W 9263   3.993   1.003   9.939
 5213W        W 9264   6.140   0.526   8.815
 5214W        W 9265   9.119   6.610  11.675
 5215W        W 9266   9.569   1.464   1.967
 5216W        W 9267   8.975   8.530   8.579
 5217W        W 9268   6.561   6.801   3.433
 5218W        W 9269  10.410   5.219   0.410
 5219W        W 9270   0.807   7.125  10.513
 5220W        W 9271   2.248   5.577  10.584
 5221W        W 9272   1.524   4.977   9.849
 5222W        W 9273   0.272   2.139  11.462
 5223W        W 9274   9.333  11.462   2.783
 5224W        W 9275   7.981   1.193   0.168
 5225W        W 9276   3.365   7.069   1.267
 5226W        W 9277   3.541   8.462   1.136
 5227W        W 9278   8.936   7.309  11.544
 5228W        W 9279   2.467   4.229   0.098
 5229W        W 9280   0.878   0.353   1.300
 5230W        W 9281   5.299   1.125   9.058
 5231W        W 9282   7.952   9.349  10.888
 5232W        W 9283   1.246   8.658  11.077
 5233W        W 9284   2.621   0.108   2.238
 5234W        W 9285   3.179  10.839   0.146
 5235W        W 9286   0.643   5.482   0.435
 5236W        W 9287   1.105   1.834   9.507
 5237W        W 9288   2.084   2.908  10.825
 5238W        W 9289   8.474   4.927   2.318
 5239W        W 9290   6.644   0.423  11.206
 5240W        W 9291   9.372   9.850  11.943
 5241W        W 9292   9.687   8.549   1.143
 5242W        W 9293  11.144   8.204  10.684
 5243W        W 9294  11.036   3.969  10.980
 5244W        W 9295   9.314   2.176  11.505
 5245W        W 9296   3.201   4.778   2.518
 5246W        W 9297  11.223   0.475   0.082
 5247W        W 9298   1.495   2.729   9.442
 5248W        W 9299   9.813   2.127  11.492
 5249W        W 9300   7.598   4.127  10.170
 5250W        W 9301   0.664   7.605   3.074
 5251W        W 9302   0.948   2.803  11.361
 5252W        W 9303   6.094   2.048  10.845
 5253W        W 9304   7.240   1.503  11.337
 5254W        W 9305   1.808   8.170   3.114
 5255W        W 9306   3.924   2.797   1.155
 5256W        W 9307   8.541  10.024  11.807
 5257W        W 9308  10.412   1.273   1.772
 5258W        W 9309   1.718   0.019   0.943
 5259W        W 9310   9.262   7.609   1.554
 5260W        W 9311   9.542   8.935   9.875
 5261W        W 9312   9.121   5.413   1.888
 5262W        W 9313   3.714   3.094   9.597
 5263W        W 9314   1.715   0.723   3.066
 5264W        W 9315   7.085   6.321  10.150
 5265W        W 9316   5.118   0.746  10.751
 5266W        W 9317   2.852   2.809   1.509
 5267W        W 9318   1.342   8.912   9.512
 5268W        W 9319   4.401   9.965  11.672
 5269W        W 9320   9.367   3.862   9.945
 5270W        W 9321   2.780   0.060   1.237
 5271W        W 9322  10.775   5.382  11.023
 5272W        W 9323   1.339   7.575   0.363
 5273W        W 9324   0.037   4.795  11.023
 5274W        W 9325  11.037   3.519  11.804
 5275W        W 9326   1.223   4.672   2.317
 5276W        W 9327   4.953  10.384   9.555
 5277W        W 9328   4.282   7.076   3.177
 5278W        W 9329   3.418   6.670   0.728
 5279W        W 9330   5.724   8.526  11.339
 5280W        W 9331   9.634   5.127  11.948
 5281W        W 9332   3.406   0.238  10.947
 5282W        W 9333   6.457   3.582   2.380
 5283W        W 9334   9.119   2.436  11.906
 5284W        W 9335   2.725  10.277   9.634
 5285W        W 9336   4.850  10.099  11.445
 5286W        W 9337   8.947   2.915   1.792
 5287W        W 9338   2.874   9.436  10.868
 5288W        W 9339  11.223   1.228   3.365
 5289W        W 9340   3.438   8.834  11.078
 5290W        W 9341   0.372   4.474  10.716
 5291W        W 9342   6.197   8.663   1.193
 5292W        W 9343   2.295   5.660  10.098
 5293W        W 9344   0.478   1.789   1.389
 5294W        W 9345   0.788   6.569   9.530
 5295W        W 9346   0.911   1.343   2.267
 5296W        W 9347  10.778   4.174  11.833
 5297W        W 9348   1.210   9.753  10.330
 5298W        W 9349   4.341   6.539  11.332
 5299W        W 9350   9.151   7.106   2.353
 5300W        W 9351   1.218   6.253   9.463
 5301W        W 9352   3.357  11.285  10.157
 5302W        W 9353   5.131   0.307  11.005
 5303W        W 9354  11.431   1.707   3.171
 5304W        W 9355   1.417   3.131   2.353
 5305W        W 9356  10.836   7.409   0.500
 5306W        W 9357  10.748   6.573   0.410
 5307W        W 9358   5.164   9.933   1.705
 5308W        W 9359   9.483   4.882  11.073
 5309W        W 9360   7.012   0.994   0.808
 5310W        W 9361   2.079   1.542  11.084
 5311W        W 9362   6.185   0.891   1.911
 5312W        W 9363   7.952   1.384  10.907
 5313W        W 9364   1.600   4.196  10.545
 5314W        W 9365  10.816   8.621   2.717
 5315W        W 9366   5.287   0.679   0.292
 5316W        W 9367   3.603   9.631   1.591
 5317W        W 9368   3.352   6.680  11.853
 5318W        W 9369   8.392   1.679  10.832
 5319W        W 9370   1.493   4.514  11.307
 5320W        W 9371  10.400   1.570  11.840
 5321W        W 9372   5.238   0.350   9.996
 5322W        W 9373   9.873   2.678   9.857
 5323W        W 9374   6.630   4.054   0.999
 5324W        W 9375   1.331   6.085  10.362
 5325W        W 9376   7.674   2.160  10.093
 5326W        W 9377  10.608  11.079   2.262
 5327W        W 9378   9.752   5.264  10.843
 5328W        W 9379   0.020   5.565   2.779
 5329W        W 9380   5.829   6.077   2.702
 5330W        W 9381   6.829   9.751   3.664
 5331W        W 9382   3.895   4.206   2.306
 5332W        W 9383   9.822  -0.001   2.700
 5333W        W 9384   4.684   7.351   1.985
 5334W        W 9385   3.879   0.576   0.443
 5335W        W 9386   8.694   7.391  11.987
 5336W        W 9387   5.128   3.498   0.014
 5337W        W 9388   1.420   7.539   9.483
 5338W        W 9389  11.369   5.567  10.229
 5339W        W 9390   2.380   2.991   9.400
 5340W        W 9391   8.990   1.456   0.222
 5341W        W 9392   8.027   7.442  11.581
 5342W        W 9393   8.113   8.767   2.981
 5343W        W 9394   7.683   1.524  10.494
 5344W        W 9395   5.702   2.365  11.276
 5345W        W 9396   7.982   1.895  11.068
 5346W        W 9397   1.401   0.048   0.497
 5347W        W 9398   6.641   4.994  10.566
 5348W        W 9399   1.013   1.978  10.347
 5349W        W 9400   1.757   3.496   3.091
 5350W        W 9401   0.054   9.002   0.817
 5351W        W 9402  10.124   4.224  11.020
 5352W        W 9403   3.017   7.878   8.029
 5353W        W 9404   2.036   5.100   0.349
 5354W        W 9405  10.420   1.461   2.245
 5355W        W 9406   1.376   0.298   2.537
 5356W        W 9407   0.061   5.258   8.524
 5357W        W 9408   2.698   0.886  11.893
 5358W        W 9409   2.740   0.590   2.398
 5359W        W 9410   4.699   7.925  10.821
 5360W        W 9411   0.461   4.543  11.225
 5361W        W 9412   0.964   5.787   3.015
 5362W        W 9413   9.041  10.872   1.823
 5363W        W 9414   3.753  11.477   2.795
 5364W        W 9415   6.436   1.511  11.888
 5365W        W 9416   6.648  10.429   8.940
 5366W        W 9417   4.313   4.686   9.147
 5367W        W 9418   7.207   3.366  10.559
 5368W        W 9419   9.418  10.242   0.869
 5369W        W 9420   9.074  10.777   9.042
 5370W        W 9421   1.908  11.258   9.384
 5371W        W 9422  10.242   9.624  11.975
 5372W        W 9423   0.392   4.617   0.688
 5373W        W 9424   6.068   4.572   2.674
 5374W        W 9425   8.033  10.048   9.576
 5375W        W 9426  11.422   0.109  10.100
 5376W        W 9427   4.414   2.784  10.627
 5377W        W 9428   2.829  10.796   9.426
 5378W        W 9429   5.514   4.598   9.624
 5379W        W 9430  10.336   2.889   9.997
 5380W        W 9431   5.077   0.345  11.955
 5381W        W 9432   7.509   4.012   1.071
 5382W        W 9433   6.804   7.115  10.402
 5383W        W 9434   4.586   4.640   2.516
 5384W        W 9435   7.126   5.293  10.353
 5385W        W 9436   6.237   3.863  11.425
 5386W        W 9437   2.924   6.613  11.418
 5387W        W 9438   9.937   9.595   1.739
 5388W        W 9439   9.043   8.948   8.881
 5389W        W 9440   8.966  11.474  11.966
 5390W        W 9441   7.523   9.688   0.502
 5391W        W 9442   2.663   1.432   0.835
 5392W        W 9443   1.203   8.380   0.261
 5393W        W 9444   8.099   2.380  11.011
 5394W        W 9445   1.148   9.153  11.041
 5395W        W 9446   5.709   1.467   1.420
 5396W        W 9447   6.199   3.818   3.304
 5397W        W 9448   4.146   8.240  10.737
 5398W        W 9449   8.092   6.761   9.578
 5399W        W 9450   3.861   8.671   1.831
 5400W        W 9451   9.020  11.456   3.173
 5401W        W 9452   4.167   8.859   1.229
 5402W        W 9453   6.108   1.905  10.367
 5403W        W 9454   8.694   9.551   3.382
 5404W        W 9455   3.643   7.510   9.723
 5405W        W 9456   3.575   0.977   2.677
 5406W        W 9457   1.216  10.832  10.307
 5407W        W 9458   8.862  10.394   1.135
 5408W        W 9459  11.326   4.689   2.172
 5409W        W 9460   5.225   2.742   8.486
 5410W        W 9461   4.274   5.206   1.076
 5411W        W 9462   1.725   6.449   3.027
 5412W        W 9463   0.250  11.426   9.310
 5413W        W 9464   3.247   1.269  10.516
 5414W        W 9465  10.004   8.615   0.075
 5415W        W 9466   3.411  10.996   8.400
 5416W        W 9467   5.423   9.506   1.463
 5417W        W 9468   5.508   8.948  10.363
 5418W        W 9469   6.058   4.522   9.730
 5419W        W 9470   2.926   8.125  11.458
 5420W        W 9471   8.480  11.261   8.754
 5421W        W 9472   0.831   2.359  10.804
 5422W        W 9473   9.468   4.536   0.463
 5423W        W 9474   2.443   3.230   2.289
 5424W        W 9475  10.007   2.235   2.339
 5425W        W 9476   7.289   6.133   8.798
 5426W        W 9477  10.691   0.316   2.721
 5427W        W 9478   7.567   0.453   1.444
 5428W        W 9479   7.605   9.937   9.294
 5429W        W 9480   3.664   2.689   2.860
 5430W        W 9481  10.418   5.980   8.995
 5431W        W 9482   0.376   3.717   9.392
 5432W        W 9483   8.737   6.347  10.015
 5433W        W 9484  10.983   4.607   9.895
 5434W        W 9485   5.024   4.765   0.662
 5435W        W 9486   3.866   9.901   3.052
 5436W        W 9487   9.018   3.806   2.888
 5437W        W 9488   2.168   0.912   2.643
 5438W        W 9489   7.026   5.493   1.546
 5439W        W 9490   0.026   6.131   0.542
 5440W        W 9491   4.684   9.849   3.118
 5441W        W 9492  10.688   3.106  11.551
 5442W        W 9493   9.908   2.262   9.550
 5443W        W 9494   3.150   4.253   8.884
 5444W        W 9495  10.040   0.365  11.333
 5445W        W 9496   8.066   2.639   3.366
 5446W        W 9497   3.946   5.255  11.090
 5447W        W 9498   1.162   4.250  10.307
 5448W        W 9499   0.456   1.222   2.076
 5449W        W 9500   4.322   0.254  11.524
 5450W        W 9501   3.361   0.333  10.421
 5451W        W 9502   5.861   0.548   1.752
 5452W        W 9503   5.275   7.891   2.211
 5453W        W 9504   4.644   8.533  11.938
 5454W        W 9505   8.435   7.191   1.148
 5455W        W 9506   9.479   6.546   2.589
 5456W        W 9507   8.300   3.821   9.147
 5457W        W 9508   3.303   7.907  11.202
 5458W        W 9509   8.232   3.206   8.507
 5459W        W 9510   7.445   6.098   2.132
 5460W        W 9511  10.835   5.682   9.042
 5461W        W 9512   5.972   9.187   9.506
 5462W        W 9513   5.734  11.009  11.960
 5463W        W 9514   8.934   9.984   9.591
 5464W        W 9515   5.252   1.625   9.762
 5465W        W 9516   8.992   6.433   1.312
 5466W        W 9517   4.774   9.927   0.032
 5467W        W 9518   7.714   7.574  11.968
 5468W        W 9519   0.705   2.230   1.204
 5469W        W 9520  10.932   4.302   9.334
 5470W        W 9521  10.787  11.040   8.571
 5471W        W 9522   1.291   5.241   0.751
 5472W        W 9523   7.003   9.845   1.730
 5473W        W 9524   8.093   5.420  11.292
 5474W        W 9525   1.184   5.239  10.113
 5475W        W 9526   2.721   3.282   0.739
 5476W        W 9527   7.461  10.551   1.680
 5477W        W 9528  10.010  10.443  10.810
 5478W        W 9529   6.287   6.660   2.189
 5479W        W 9530  10.263   9.203   2.303
 5480W        W 9531   2.401   2.297   1.812
 5481W        W 9532   8.848   7.637   0.787
 5482W        W 9533  10.960   4.730   1.182
 5483W        W 9534   9.812  10.983  11.787
 5484W        W 9535  11.133   2.253  11.953
 5485W        W 9536   3.900   1.593  11.485
 5486W        W 9537  11.454   4.257   8.552
 5487W        W 9538   7.583   7.071  11.819
 5488W        W 9539   5.950   2.751   1.877
 5489W        W 9540   1.834  10.877   2.124
 5490W        W 9541   6.102  10.505   3.657
 5491W        W 9542   8.712   8.972  11.547
 5492W        W 9543  10.514   4.076   3.630
 5493W        W 9544   4.604   0.454  10.439
 5494W        W 9545   5.230   0.812   2.449
 5495W        W 9546   7.356   7.651   3.220
 5496W        W 9547   9.674   2.626   2.809
 5497W        W 9548   1.787   0.441   8.477
 5498W        W 9549   8.061   6.833  10.374
 5499W        W 9550   9.310   1.100   8.555
 5500W        W 9551   6.903   2.479  11.528
 5501W        W 9552   8.629   0.758  10.671
 5502W        W 9553   0.740   7.677   8.876
 5503W        W 9554   2.197   3.648  11.811
 5504W        W 9555   9.446  10.838  10.811
 5505W        W 9556   8.880   4.344   1.727
 5506W        W 9557   4.847   7.163   8.941
 5507W        W 9558   5.340   8.291   2.602
 5508W        W 9559   0.488   3.192   9.269
 5509W        W 9560  10.525   6.132   0.345
 5510W        W 9561  10.922   6.642   9.114
 5511W        W 9562   0.961   6.149   0.436
 5512W        W 9563   5.861   1.376   0.237
 5513W        W 9564   1.325   8.940   1.503
 5514W        W 9565   7.745   2.478   1.257
 5515W        W 9566   2.716   3.017   8.804
 5516W        W 9567   9.475   9.158   0.356
 5517W        W 9568   3.682   0.864  11.826
 5518W        W 9569  10.091   5.154   0.842
 5519W        W 9570  11.071   7.379   2.014
 5520W        W 9571   1.595   8.062   8.853
 5521W        W 9572   1.574   2.894  11.942
 5522W        W 9573   4.158   1.266   9.507
 5523W        W 9574   6.070   3.259  11.605
 5524W        W 9575   6.174   6.744   9.386
 5525W        W 9576  11.353   8.891   0.311
 5526W        W 9577   4.094   9.269   0.866
 5527W        W 9578   8.045   5.227   2.352
 5528W        W 9579   6.881   1.668  11.700
 5529W        W 9580   5.293   7.154  10.418
 5530W        W 9581   9.166   8.073   3.266
 5531W        W 9582   7.225   3.791  11.327
 5532W        W 9583   7.115   8.959   1.242
 5533W        W 9584   0.380   5.041   9.788
 5534W        W 9585   9.597   8.878   1.939
 5535W        W 9586   8.430   0.296  10.869
 5536W        W 9587   3.675   4.587   1.079
 5537W        W 9588   6.134   0.307   9.829
 5538W        W 9589   1.520   5.661   0.937
 5539W        W 9590   4.437   0.841   9.609
 5540W        W 9591   3.708   3.615   0.254
 5541W        W 9592   8.785  10.318   0.630
 5542W        W 9593   0.723   4.653   8.643
 5543W        W 9594   2.648   6.443   1.867
 5544W        W 9595   0.743   6.537   8.491
 5545W        W 9596   3.173   0.004   1.885
 5546W        W 9597   9.448   9.749   0.731
 5547W        W 9598   4.499   4.338   1.218
 5548W        W 9599   8.216   3.208   2.652
 5549W        W 9600   7.821   9.078   2.068
 5550W        W 9601   8.580   8.685   0.423
 5551W        W 9602   0.809   8.347  11.822
 5552W        W 9603   9.599   5.552  10.379
 5553W        W 9604   1.293   8.306   3.192
 5554W        W 9605   5.562  10.826  10.093
 5555W        W 9606   5.064   7.614  10.566
 5556W        W 9607   2.020   2.501   8.541
 5557W        W 9608   7.708   8.592   1.384
 5558W        W 9609   5.100  10.432   2.818
 5559W        W 9610  11.003   6.635   0.834
 5560W        W 9611   2.321   2.287  11.986
 5561W        W 9612   9.978   7.637   2.776
 5562W        W 9613   3.679   1.700   8.859
 5563W        W 9614  10.349   7.127  11.066
 5564W        W 9615   2.318   0.973   1.697
 5565W        W 9616   2.590  11.060  11.359
 5566W        W 9617   5.565   0.878  10.986
 5567W        W 9618   4.416   9.842   9.336
 5568W        W 9619   6.443   6.579   0.150
 5569W        W 9620  10.834   3.064   2.005
 5570W        W 9621  10.443   1.121   9.323
 5571W        W 9622   5.969   5.765   9.226
 5572W        W 9623   2.224   2.341   2.802
 5573W        W 9624   8.082   7.841   2.531
 5574W        W 9625   7.503  10.983  11.993
 5575W        W 9626  11.377   8.550   2.787
 5576W        W 9627   4.900   3.986  11.207
 5577W        W 9628   5.592   1.947   1.495
 5578W        W 9629   0.346   2.629   2.810
 5579W        W 9630   7.662  11.356   9.939
 5580W        W 9631   7.742   8.924  11.092
 5581W        W 9632   5.950   3.978   2.367
 5582W        W 9633   5.218   7.438   0.487
 5583W        W 9634   8.179   1.926   1.744
 5584W        W 9635   8.674   8.094   8.590
 5585W        W 9636   5.047   9.347   0.015
 5586W        W 9637   6.988   4.109   3.453
 5587W        W 9638   6.486   7.333   1.461
 5588W        W 9639   6.243   0.437   3.280
 5589W        W 9640   0.384   3.584   0.167
 5590W        W 9641   7.779   7.123  10.705
 5591W        W 9642   0.075   9.783   0.260
 5592W        W 9643   9.056   2.779   0.315
 5593W        W 9644   8.154   1.646   0.380
 5594W        W 9645   2.181   3.892   9.718
 5595W        W 9646   9.596   9.541   8.590
 5596W        W 9647   3.366   8.302   8.421
 5597W        W 9648   5.462   4.389   9.142
 5598W        W 9649   0.781  10.580  11.148
 5599W        W 9650   8.948   8.597  10.225
 5600W        W 9651   5.628   7.591   1.438
 5601W        W 9652   4.273   4.062  10.738
 5602W        W 9653   4.808   1.731   9.995
 5603W        W 9654   8.564   6.705  10.352
 5604W        W 9655   4.047   9.105  10.168
 5605W        W 9656   3.813   5.283   0.774
 5606W        W 9657   8.832  10.096   3.469
 5607W        W 9658   3.691   5.891  11.645
 5608W        W 9659  10.968   3.126   3.464
 5609W        W 9660   4.770   2.593   2.756
 5610W        W 9661   4.075   0.891   2.666
 5611W        W 9662  10.312  10.498   1.056
 5612W        W 9663   3.849   4.888  11.817
 5613W        W 9664   8.615   4.459  10.851
 5614W        W 9665  10.871   0.370   1.853
 5615W        W 9666   3.703   9.451  11.764
 5616W        W 9667  10.244  10.728   9.568
 5617W        W 9668   7.875   5.127   8.675
 5618W        W 9669   9.547   1.214  10.793
 5619W        W 9670   0.353  11.380  11.101
 5620W        W 9671   9.556   0.261   1.398
 5621W        W 9672  11.390   8.124   9.306
 5622W        W 9673   6.019   8.948  10.433
 5623W        W 9674   0.416   0.864   1.125
 5624W        W 9675   6.898   1.648   9.807
 5625W        W 9676   1.329   4.076  11.509
 5626W        W 9677   9.818   7.501   0.801
 5627W        W 9678   7.886   2.742   9.998
 5628W        W 9679   2.682   8.300  10.637
 5629W        W 9680   9.367   6.514   8.261
 5630W        W 9681  11.320  11.498   2.718
 5631W        W 9682   3.736  11.291   3.308
 5632W        W 9683   3.014   7.855   2.219
 5633W        W 9684   3.706   2.930   2.404
 5634W        W 9685   3.652   6.222   3.528
 5635W        W 9686  11.459   9.871   1.286
 5636W        W 9687   7.714   5.174   0.485
 5637W        W 9688   3.147   2.435   1.302
 5638W        W 9689   0.786   7.952   9.753
 5639W        W 9690   0.519   5.793   1.884
 5640W        W 9691   9.549   3.172   1.302
 5641W        W 9692   5.946   8.277   0.249
 5642W        W 9693   2.233   9.091   1.969
 5643W        W 9694   4.561  10.320   9.071
 5644W        W 9695   7.848  11.451   2.962
 5645W        W 9696   9.428   8.158   0.363
 5646W        W 9697   4.189   6.115  11.070
 5647W        W 9698   1.346   6.996  10.556
 5648W        W 9699   8.450   6.239  10.530
 5649W        W 9700   9.330   4.976  11.580
 5650W        W 9701   0.935   3.733   0.948
 5651W        W 9702   8.021   9.040   3.414
 5652W        W 9703   0.453   9.286   9.013
 5653W        W 9704   8.642   1.236   3.118
 5654W        W 9705   8.543   4.737   9.032
 5655W        W 9706   6.464   6.217  10.965
 5656W        W 9707   2.930   4.704  11.428
 5657W        W 9708   2.278   0.548   9.512
 5658W        W 9709   6.561  11.220   2.497
 5659W        W 9710   5.630   5.152   1.773
 5660W        W 9711   6.042   6.235   8.136
 5661W        W 9712   9.795  10.613   2.010
 5662W        W 9713   3.228   3.778   9.142
 5663W        W 9714   1.143   3.261   1.091
 5664W        W 9715   9.097  11.234   9.997
 5665W        W 9716   9.615   2.883  10.502
 5666W        W 9717   5.076   3.250   0.491
 5667W        W 9718   3.354   9.243   2.307
 5668W        W 9719   5.078   7.778   0.120
 5669W        W 9720   3.086   4.136  10.806
 5670W        W 9721   3.646   1.262   0.690
 5671W        W 9722   6.578   4.137   3.143
 5672W        W 9723   7.553   0.329  10.189
 5673W        W 9724   3.616  10.533  11.825
 5674W        W 9725   9.056   2.733   1.251
 5675W        W 9726   3.833  10.848   2.068
 5676W        W 9727   6.138   9.943   1.414
 5677W        W 9728   5.224   7.937   0.858
 5678W        W 9729   7.848   1.465   9.211
 5679W        W 9730   3.391   7.681   0.066
 5680W        W 9731   7.701   1.148  11.727
 5681W        W 9732   9.916  10.736   0.269
 5682W        W 9733   7.281   8.079   9.504
 5683W        W 9734   7.602   9.749  10.783
 5684W        W 9735   3.330   5.250   1.963
 5685W        W 9736   8.431   4.710  10.432
 5686W        W 9737   3.106   0.609   2.752
 5687W        W 9738  10.584   2.366   2.596
 5688W        W 9739  10.037   0.878   9.599
 5689W        W 9740  10.221   9.362   9.515
 5690W        W 9741   9.444   2.718   3.307
 5691W        W 9742   7.383   9.076  11.442
 5692W        W 9743   8.058   3.360   9.167
 5693W        W 9744   5.845   5.548   1.451
 5694W        W 9745   2.141   5.314   3.455
 5695W        W 9746   0.705   5.705   3.441
 5696W        W 9747   4.079   1.438  11.026
 5697W        W 9748   2.662   4.149   1.769
 5698W        W 9749   5.581   8.267   3.201
 5699W        W 9750   6.639  10.000   8.125
 5700W        W 9751   3.354   1.915   1.303
 5701W        W 9752   0.995  10.964   0.857
 5702W        W 9753   6.675   6.714   2.927
 5703W        W 9754   3.875   4.375   0.635
 5704W        W 9755   2.317   0.042   9.544
 5705W        W 9756   0.080  11.372   3.207
 5706W        W 9757   9.161   6.634   9.994
 5707W        W 9758   7.910   4.156   2.191
 5708W        W 9759   9.108   4.291   3.121
 5709W        W 9760   3.231   9.879   1.830
 5710W        W 9761   2.672   6.615   2.392
 5711W        W 9762  10.407   7.068  10.520
 5712W        W 9763   6.758   2.090   2.810
 5713W        W 9764   2.697   9.040  11.479
 5714W        W 9765   4.457   6.772   8.640
 5715W        W 9766   2.104   8.630  11.737
 5716W        W 9767   7.699   3.771  11.527
 5717W        W 9768  10.420   7.625  11.238
 5718W        W 9769   4.371   0.764   1.694
 5719W        W 9770   3.898   4.411  10.555
 5720W        W 9771  10.254  10.411   1.562
 5721W        W 9772   0.091   0.968   1.849
 5722W        W 9773   2.156   7.471   1.001
 5723W        W 9774   1.145   0.231  10.689
 5724W        W 9775  11.321   1.214   1.396
 5725W        W 9776   3.474   9.689   2.824
 5726W        W 9777   3.578   2.321   2.520
 5727W        W 9778   7.650   0.197   9.165
 5728W        W 9779   1.802   1.296   3.415
 5729W        W 9780   3.198   5.701  10.990
 5730W        W 9781   6.963   4.628   0.284
 5731W        W 9782  11.024   0.133   3.097
 5732W        W 9783   4.303   8.644  11.528
 5733W        W 9784   1.222   0.624  10.368
 5734W        W 9785  10.015   1.894  11.900
 5735W        W 9786   5.639   3.248   9.829
 5736W        W 9787   2.504   8.544   8.313
 5737W        W 9788   1.292   1.069  10.614
 5738W        W 9789  10.948   3.306   2.903
 5739W        W 9790   3.953   8.369   1.383
 5740W        W 9791   8.682   7.893  11.908
 5741W        W 9792   9.286   1.820   2.939
 5742W        W 9793   9.431   4.926   0.976
 5743W        W 9794   1.909   3.642   8.887
 5744W        W 9795  11.391   8.866   1.421
 5745W        W 9796   4.224   9.975   0.866
 5746W        W 9797   2.764   1.663   0.209
 5747W        W 9798   7.220   3.843  10.305
 5748W        W 9799   7.725   8.005  11.630
 5749W        W 9800   3.145   3.686   1.832
 5750W        W 9801   5.204   9.064   9.054
 5751W        W 9802  10.637   7.690  11.698
 5752W        W 9803   2.730  10.261   8.743
 5753W        W 9804   0.052   7.500  11.347
 5754W        W 9805   0.263   1.177  11.241
 5755W        W 9806  10.805  11.245   3.442
 5756W        W 9807   5.758   1.458   8.535
 5757W        W 9808   3.290   1.360   9.295
 5758W        W 9809   6.039   6.541   2.652
 5759W        W 9810  10.943   6.253   0.055
 5760W        W 9811   3.863   3.872  10.939
 5761W        W 9812  11.357   7.188   9.398
 5762W        W 9813   0.188   1.411  10.296
 5763W        W 9814   0.780   0.839   2.169
 5764W        W 9815   1.046   6.080  11.336
 5765W        W 9816   3.174   4.952   0.394
 5766W        W 9817   0.687   8.414   0.328
 5767W        W 9818   6.708  11.362   0.368
 5768W        W 9819   8.992   0.943   0.954
 5769W        W 9820  11.284   1.118   9.523
 5770W        W 9821   0.902   4.205   2.243
 5771W        W 9822   8.096   9.244   2.824
 5772W        W 9823   9.471   2.139   1.463
 5773W        W 9824   1.253   7.564  11.860
 5774W        W 9825   2.224   6.132   1.955
 5775W        W 9826   9.511   9.320   1.732
 5776W        W 9827  10.568   6.253  10.766
 5777W        W 9828   9.402   7.027   3.317
 5778W        W 9829   8.591   6.141   1.472
 5779W        W 9830   7.082   6.133   8.319
 5780W        W 9831   0.936   5.331  10.858
 5781W        W 9832   8.848   9.592   2.232
 5782W        W 9833  11.324   7.432   0.301
 5783W        W 9834   8.740   0.292   2.721
 5784W        W 9835   6.715   3.172  10.273
 5785W        W 9836   6.014   9.989   3.428
 5786W        W 9837   5.956   4.587   0.225
 5787W        W 9838   5.710   7.391   3.593
 5788W        W 9839   6.344   8.086  11.849
 5789W        W 9840  11.382   5.765   2.337
 5790W        W 9841  10.802  10.880   0.383
 5791W        W 9842   7.012   3.708  11.806
 5792W        W 9843   6.836   2.282   2.088
 5793W        W 9844   8.161  10.449   0.505
 5794W        W 9845   2.788   1.279   1.733
 5795W        W 9846   8.527   6.638   1.184
 5796W        W 9847   8.018  10.545   2.550
 5797W        W 9848   5.617  10.978   1.613
 5798W        W 9849  11.437   4.778   9.585
 5799W        W 9850   2.886   0.399   9.109
 5800W        W 9851  10.765   4.127  10.560
 5801W        W 9852   3.103   7.119  11.384
 5802W        W 9853   4.646  10.291   2.657
 5803W        W 9854   1.301  10.064   0.905
 5804W        W 9855   5.488   3.652   8.566
 5805W        W 9856   2.310   7.199   0.053
 5806W        W 9857   6.133   9.804  11.850
 5807W        W 9858   4.055   7.542  10.023
 5808W        W 9859   5.229   8.734   4.059
 5809W        W 9860   7.428   0.977   2.876
 5810W        W 9861   0.253   1.361   1.166
 5811W        W 9862   7.139   9.614   9.829
 5812W        W 9863  10.539   2.785  10.463
 5813W        W 9864  11.348   0.737   2.231
 5814W        W 9865   1.257  10.952   3.272
 5815W        W 9866   2.485  10.816   0.697
 5816W        W 9867   0.924   9.569   8.583
 5817W        W 9868   6.747   2.280   8.955
 5818W        W 9869   2.635   0.768  10.797
 5819W        W 9870   4.573   6.201   0.287
 5820W        W 9871   3.432   0.907   0.317
 5821W        W 9872   0.558   9.489  11.792
 5822W        W 9873   5.899   2.264   1.727
 5823W        W 9874   2.777   3.343   9.760
 5824W        W 9875   2.863  10.077  11.455
 5825W        W 9876   5.141   3.276   9.628
 5826W        W 9877   0.222   3.998   8.968
 5827W        W 9878   8.204   3.696  11.532
 5828W        W 9879   6.608   0.142   0.937
 5829W        W 9880   1.776   1.373   0.748
 5830W        W 9881  11.455  10.745   3.777
 5831W        W 9882   0.105   3.836  10.282
 5832W        W 9883  10.241   4.620   3.234
 5833W        W 9884  10.428   8.012   8.948
 5834W        W 9885   5.316   8.022  10.244
 5835W        W 9886   6.973   6.605   0.359
 5836W        W 9887  10.398   6.742  11.533
 5837W        W 9888   6.161   4.574   1.703
 5838W        W 9889  10.549   7.845   1.438
 5839W        W 9890   6.316   7.967  10.071
 5840W        W 9891   4.028   6.421   1.329
 5841W        W 9892   6.733   5.525   0.847
 5842W        W 9893   0.365   0.891   2.939
 5843W        W 9894   3.087   6.210  11.086
 5844W        W 9895   7.288   4.165   0.435
 5845W        W 9896  10.133  10.271   0.283
 5846W        W 9897   6.892   2.182   9.589
 5847W        W 9898  11.070   3.806   2.836
 5848W        W 9899   6.677   0.276  10.243
 5849W        W 9900   1.818   4.386  10.959
 5850W        W 9901  10.863   1.890   9.771
 5851W        W 9902   9.120   7.694   9.267
 5852W        W 9903   0.079   0.073   0.048
 5853W        W 9904   8.268   5.686  11.811
 5854W        W 9905   0.330   9.064   1.231
 5855W        W 9906   4.367   1.756  11.685
 5856W        W 9907   4.192   8.650  10.419
 5857W        W 9908   0.810   4.849  11.459
 5858W        W 9909   6.478   7.184  10.953
 5859W        W 9910   1.729   5.263   8.482
 5860W        W 9911   7.574   0.948   1.581
 5861W        W 9912   7.140   0.139   0.401
 5862W        W 9913   3.515  10.478   9.977
 5863W        W 9914   2.366   0.352   9.056
 5864W        W 9915   9.894  10.099   2.902
 5865W        W 9916   8.233   7.665  11.973
 5866W        W 9917   4.729   6.711   0.671
 5867W        W 9918   9.446   9.287   2.699
 5868W        W 9919  11.091   5.013  10.279
 5869W        W 9920   2.867   4.240   9.861
 5870W        W 9921   3.527   3.027  10.595
 5871W        W 9922  10.926   2.661  11.731
 5872W        W 9923   7.559   1.857   0.326
 5873W        W 9924   7.560   6.678  10.473
 5874W        W 9925   1.904   5.249  10.785
 5875W        W 9926   4.667   9.526  11.721
 5876W        W 9927   7.030   4.312   2.270
 5877W        W 9928   7.112   3.415  10.069
 5878W        W 9929   5.667   5.815   1.018
 5879W        W 9930   2.839   2.870   9.587
 5880W        W 9931  10.608   7.444   1.831
 5881W        W 9932  10.509   4.983   9.501
 5882W        W 9933   7.617  10.413  10.076
 5883W        W 9934   6.307   7.561  11.771
 5884W        W 9935   5.566   8.087  11.730
 5885W        W 9936   9.129   4.173   0.504
 5886W        W 9937  11.288   3.094   9.131
 5887W        W 9938   2.833   8.351  10.148
 5888W        W 9939   7.181   9.255   0.807
 5889W        W 9940   4.217   2.311   9.886
 5890W        W 9941   3.847   6.650   9.882
 5891W        W 9942  11.044   2.722   1.226
 5892W        W 9943   0.211   7.780   2.928
 5893W        W 9944   4.014   1.479  11.968
 5894W        W 9945   5.141   4.660  10.703
 5895W        W 9946   0.281  10.707   0.329
 5896W        W 9947   7.031   7.924  10.922
 5897W        W 9948   1.762   1.791   9.597
 5898W        W 9949  10.070   1.174   3.608
 5899W        W 9950  10.853   9.141   0.545
 5900W        W 9951   8.104   1.549   3.498
 5901W        W 9952   3.593   4.687   8.525
 5902W        W 9953   7.937  10.106  10.589
 5903W        W 9954   5.190   8.069   1.741
 5904W        W 9955   1.781   9.984   2.468
 5905W        W 9956   2.339   1.931   0.400
 5906W        W 9957   6.606   8.193   2.786
 5907W        W 9958   9.780   1.205   1.238
 5908W        W 9959   2.688   3.238   2.737
 5909W        W 9960   8.933   6.854  11.278
 5910W        W 9961   6.137   0.554  11.269
 5911W        W 9962   2.899  10.430   2.877
 5912W        W 9963   9.966  10.792   8.581
 5913W        W 9964   4.629   3.891   0.995
 5914W        W 9965   9.429   9.869   9.900
 5915W        W 9966   5.231   3.725   0.471
 5916W        W 9967   3.295   2.902   0.404
 5917W        W 9968   3.250   1.255   3.861
 5918W        W 9969   0.801  11.197   1.865
 5919W        W 9970   3.704   8.401   0.159
 5920W        W 9971   4.792   8.589  11.423
 5921W        W 9972   9.969  11.340  10.034
 5922W        W 9973   3.772   0.159   8.674
 5923W        W 9974   2.201   9.479   1.628
 5924W        W 9975   9.944   3.741   2.119
 5925W        W 9976  10.918   4.056   9.789
 5926W        W 9977   5.198   7.269   3.166
 5927W        W 9978   5.091   9.456   1.893
 5928W        W 9979   9.072   3.649   2.354
 5929W        W 9980   1.090  10.430   1.637
 5930W        W 9981   1.387   1.437   9.373
 5931W        W 9982   3.324   6.631   3.662
 5932W        W 9983  10.559   7.374   9.435
 5933W        W 9984   6.223   5.585  10.899
 5934W        W 9985  11.328   6.983  11.974
 5935W        W 9986   6.057   5.629   0.744
 5936W        W 9987   4.209   7.945  11.434
 5937W        W 9988   1.268  10.878  11.230
 5938W        W 9989   0.817   3.270  10.537
 5939W        W 9990   4.206   7.813   1.820
 5940W        W 9991   2.950   8.965  11.040
 5941W        W 9992  10.901   1.645   0.442
 5942W        W 9993   4.184   0.177  10.512
 5943W        W 9994   6.377   3.614   2.873
 5944W        W 9995   0.802   7.832   1.051
 5945W        W 9996   1.710   8.944  10.323
 5946W        W 9997   7.309   6.041  11.098
 5947W        W 9998   6.843   7.199   2.732
 5948W        W 9999   8.864   2.224   0.307
 5949W        W10000   2.516   7.801   0.734
 5950W        W10001   6.764   5.479  10.678
 5951W        W10002   9.006   8.075  11.063
 5952W        W10003   3.385   1.823  11.374
 5953W        W10004   8.191   5.403   9.875
 5954W        W10005   0.840  10.691  11.646
 5955W        W10006   2.598   7.546   2.279
 5956W        W10007   2.428   2.902   3.567
 5957W        W10008   1.554   1.175   2.315
 5958W        W10009   4.695   1.938   3.316
 5959W        W10010   5.954   4.695   1.228
 5960W        W10011   8.562  10.384  10.746
 5961W        W10012   2.750   7.396  11.788
 5962W        W10013   8.652   2.814   9.630
 5963W        W10014   7.582   9.895   9.792
 5964W        W10015   4.599   4.258   3.912
 5965W        W10016   4.765   8.818   9.981
 5966W        W10017  11.177   4.302   2.477
 5967W        W10018   8.069  10.510   9.840
 5968W        W10019   1.624   9.975   2.948
 5969W        W10020   1.393  11.428   9.508
 5970W        W10021   2.590   4.122   0.581
 5971W        W10022   9.998   2.077  11.011
 5972W        W10023   4.122  11.206   0.307
 5973W        W10024   8.517   7.619  11.496
 5974W        W10025   7.685   9.605   2.796
 5975W        W10026   3.762   2.433   3.351
 5976W        W10027   7.765   1.513  11.387
 5977W        W10028   7.705   3.105   1.979
 5978W        W10029   9.895   5.398  11.554
 5979W        W10030   2.765   5.287   4.144
 5980W        W10031   8.881   0.511  11.027
 5981W        W10032   4.707   9.934   8.744
 5982W        W10033   6.316   7.039  11.918
 5983W        W10034   9.657   3.328   0.842
 5984W        W10035   0.264   6.967   9.152
 5985W        W10036   9.327   0.164   1.849
 5986W        W10037   8.537   4.701   8.291
 5987W        W10038   9.555   8.636   9.417
 5988W        W10039   2.375   0.483   3.413
 5989W        W10040   2.356   1.420   1.964
 5990W        W10041   6.985   5.636   0.333
 5991W        W10042  10.855   1.683   1.927
 5992W        W10043   0.377   4.259   9.392
 5993W        W10044   5.014  11.342  11.999
 5994W        W10045   6.212   5.263  11.311
 5995W        W10046   5.122  10.447   0.892
 5996W        W10047   9.362   8.000  10.553
 5997W        W10048   0.831  11.075  11.315
 5998W        W10049   6.036   6.932  10.904
 5999W        W10050   8.909   1.832  10.792
 6000W        W10051   8.146   9.107   9.206
 6001W        W10052   7.192   2.225   1.716
 6002W        W10053   0.041   3.842   3.065
 6003W        W10054   8.976   2.118   2.617
 6004W        W10055   3.260   6.204   2.294
 6005W        W10056   8.002   1.929  10.560
 6006W        W10057   8.414   0.772   3.269
 6007W        W10058   5.514   8.045  11.221
 6008W        W10059   3.353   4.487  10.550
 6009W        W10060   4.926   0.140   1.759
 6010W        W10061   8.083   4.950   9.094
 6011W        W10062   6.718   1.353  10.553
 6012W        W10063   6.587   8.965   1.365
 6013W        W10064   0.299   6.575   8.784
 6014W        W10065   7.772   7.071   9.204
 6015W        W10066   8.841   8.483   9.728
 6016W        W10067  10.017  10.716   9.085
 6017W        W10068   6.074   4.159  11.894
 6018W        W10069   7.982   6.837   3.597
 6019W        W10070   9.161   4.821   3.126
 6020W        W10071   9.080   2.880   3.688
 6021W        W10072   5.093   9.948   0.679
 6022W        W10073   3.616   6.584   2.232
 6023W        W10074   3.244   7.131   3.356
 6024W        W10075  10.961  10.961  11.071
 6025W        W10076   1.682  10.394   9.572
 6026W        W10077  10.900   0.451   3.463
 6027W        W10078   6.557   7.491   0.484
 6028W        W10079   5.092  10.909   2.976
 6029W        W10080   5.128   2.351   2.304
 6030W        W10081  10.662   4.112   8.937
 6031W        W10082   2.275   2.815   2.010
 6032W        W10083   9.597   6.948  11.693
 6033W        W10084   3.535   6.881   8.996
 6034W        W10085  11.283  11.183   9.779
 6035W        W10086   3.769   8.870   0.926
 6036W        W10087   6.259   6.833   3.867
 6037W        W10088   5.993   3.408   0.657
 6038W        W10089   7.869   0.832   8.567
 6039W        W10090   3.482   6.567   3.164
 6040W        W10091   2.165   9.138  10.474
 6041W        W10092   5.002   2.423   0.779
 6042W        W10093   8.925   6.202   3.695
 6043W        W10094   1.976   9.420   3.642
 6044W        W10095   6.683  11.354   9.018
 6045W        W10096   1.144   7.878   8.554
 6046W        W10097   7.672   8.212   0.600
 6047W        W10098   4.878  10.723   9.190
 6048W        W10099  10.848   4.551   0.724
 6049W        W10100   6.477   9.064   9.614
 6050W        W10101   7.280   6.669   1.295
 6051W        W10102   2.131   8.263   8.511
 6052W        W10103   0.925   4.539   3.100
 6053W        W10104   4.242   9.113  10.660
 6054W        W10105   0.854   8.734   2.338
 6055W        W10106   1.945   4.701   9.076
 6056W        W10107   2.962   4.307   2.159
 6057W        W10108  11.214   8.911   2.442
 6058W        W10109   3.905   1.060   0.245
 6059W        W10110   2.295   2.740   0.999
 6060W        W10111   7.194  11.264  11.391
 6061W        W10112   8.998   4.973   8.317
 6062W        W10113   9.320   5.831   0.632
 6063W        W10114   9.348   6.168   2.932
 6064W        W10115   6.525  10.318   0.643
 6065W        W10116  10.584   4.409  10.945
 6066W        W10117   1.372  10.284   9.967
 6067W        W10118   5.758   0.890   0.512
 6068W        W10119   8.023  10.976   9.149
 6069W        W10120   8.066   9.525  11.369
 6070W        W10121   9.934   2.865   1.625
 6071W        W10122   0.303  10.849   3.163
 6072W        W10123   8.108   3.104   3.146
 6073W        W10124  10.304   7.475   9.001
 6074W        W10125   6.985   8.012   1.553
 6075W        W10126  11.428   8.332  11.671
 6076W        W10127   5.506   6.969   8.781
 6077W        W10128   7.024  10.348  11.769
 6078W        W10129   4.248   7.983   9.830
 6079W        W10130   8.381   6.123   2.931
 6080W        W10131   4.262   8.974   2.579
 6081W        W10132  11.378   4.314   9.795
 6082W        W10133   0.772   1.738   9.980
 6083W        W10134   7.151   8.401   9.904
 6084W        W10135   6.147   7.616   9.249
 6085W        W10136   1.403   0.231   9.999
 6086W        W10137   5.003  11.189   9.372
 6087W        W10138   7.455   5.697  10.255
 6088W        W10139   6.209   1.918   2.753
 6089W        W10140   2.553   2.135   3.493
 6090W        W10141   7.087   8.222   8.479
 6091W        W10142   4.128   1.687   1.700
 6092W        W10143   1.563   9.255   1.152
 6093W        W10144   8.505   5.433   2.183
 6094W        W10145   0.317   8.401   9.092
 6095W        W10146   8.771   0.437  11.861
 6096W        W10147  10.378   3.673   9.063
 6097W        W10148   6.407  11.468   3.406
 6098W        W10149   1.267   3.776   9.402
 6099W        W10150   5.956   3.475   2.468
 6100W        W10151   9.567   9.547   3.589
 6101W        W10152   4.634   5.745   0.014
 6102W        W10153   8.999   3.739  11.715
 6103W        W10154   8.985   7.102   9.978
 6104W        W10155   9.148   9.998   2.454
 6105W        W10156   6.105   2.463  10.446
 6106W        W10157   2.899   8.494   8.627
 6107W        W10158   8.976   9.802   9.079
 6108W        W10159   8.050   5.967   1.010
 6109W        W10160   5.557   2.816   0.023
 6110W        W10161   0.437   2.188   3.027
 6111W        W10162   6.467   9.512   2.793
 6112W        W10163   5.582   3.317  11.818
 6113W        W10164   3.526   1.439   0.205
 6114W        W10165   8.771   6.148   2.237
 6115W        W10166   4.570   8.541   2.419
 6116W        W10167   0.807   9.986   3.061
 6117W        W10168   5.537   9.284   0.990
 6118W        W10169   3.730   6.155   4.034
 6119W        W10170  10.169  10.753   2.329
 6120W        W10171   0.254  11.345   9.814
 6121W        W10172   6.062   7.625   9.763
 6122W        W10173   2.740   5.164   8.618
 6123W        W10174   2.409   5.753   0.719
 6124W        W10175   5.643   1.818  10.026
 6125W        W10176   6.525   0.730   2.251
 6126W        W10177   1.273   9.209   8.465
 6127W        W10178   8.179   8.651  10.954
 6128W        W10179   3.667   4.842  10.399
 6129W        W10180  11.068   6.978   0.443
 6130W        W10181   2.519   5.235   1.500
 6131W        W10182   4.700   2.275   3.708
 6132W        W10183   9.469   3.116   0.417
 6133W        W10184   7.411   9.567   1.539
 6134W        W10185  10.494   4.032   9.427
 6135W        W10186   8.485   5.700   1.187
 6136W        W10187   4.664   9.544   2.195
 6137W        W10188   8.901  11.277  11.481
 6138W        W10189   6.602  10.000  11.869
 6139W        W10190   2.461   5.263   1.989
 6140W        W10191   7.458   1.677  10.072
 6141W        W10192   9.572   5.190   2.027
 6142W        W10193   7.132  11.346  11.907
 6143W        W10194   7.856   2.321   0.369
 6144W        W10195   0.394   2.619  11.566
 6145W        W10196   8.572   6.576   0.368
 6146W        W10197   0.786   1.801   2.883
 6147W        W10198   0.890   8.085  10.280
 6148W        W10199   1.831   0.984  11.787
 6149W        W10200   4.106   9.402   9.475
 6150W        W10201   4.347   9.839   1.348
 6151W        W10202   6.191  11.416   2.175
 6152W        W10203   1.706  10.654  11.161
 6153W        W10204  10.554   9.971   0.276
 6154W        W10205   3.986   6.580   3.346
 6155W        W10206  11.134   3.044   0.437
 6156W        W10207   1.702   6.199  10.708
 6157W        W10208  10.894   8.609   9.850
 6158W        W10209  10.641  10.520   3.097
 6159W        W10210   5.314   2.199   1.153
 6160W        W10211   4.379   4.419   0.718
 6161W        W10212   6.897   2.940  10.789
 6162W        W10213   9.582  11.044   2.630
 6163W        W10214   6.830   3.831   9.941
 6164W        W10215   9.876   3.897   3.065
 6165W        W10216   6.012   2.771   2.394
 6166W        W10217   4.795   0.490   0.369
 6167W        W10218   1.815   1.174   0.278
 6168W        W10219   9.094   4.809   1.817
 6169W        W10220  10.275   0.383   1.871
 6170W        W10221   7.987   7.223   0.861
 6171W        W10222   6.952  10.869   3.132
 6172W        W10223   6.189   7.927  10.577
 6173W        W10224   9.440   9.505  10.421
 6174W        W10225   3.860   9.823   9.344
 6175W        W10226   8.584   8.051   9.939
 6176W        W10227   3.380   0.932  11.390
 6177W        W10228   3.909   5.890   8.763
 6178W        W10229   8.534   9.001   8.870
 6179W        W10230   7.095   4.154   1.360
 6180W        W10231  11.451  11.052   1.860
 6181W        W10232   3.847   8.803   2.787
 6182W        W10233   0.856   0.528   9.382
 6183W        W10234   8.886   0.816   1.457
 6184W        W10235   4.164   1.854  10.682
 6185W        W10236   6.387  10.281   1.128
 6186W        W10237   0.950  10.213   2.099
 6187W        W10238   6.968  10.466  10.366
 6188W        W10239   7.791   2.272   1.749
 6189W        W10240   4.656   1.639   1.689
 6190W        W10241   0.897   8.905   1.851
 6191W        W10242   5.030   3.754   2.323
 6192W        W10243   4.638   0.150   9.046
 6193W        W10244   8.172   3.697  10.543
 6194W        W10245  10.779   6.422  11.594
 6195W        W10246  10.828   6.064   8.666
 6196W        W10247   1.845   9.357   0.302
 6197W        W10248   7.299  10.528   0.735
 6198W        W10249   7.451   6.592   1.971
 6199W        W10250  11.385   3.440   0.167
 6200W        W10251   9.179  10.723   2.683
 6201W        W10252   7.403   9.578  11.395
 6202W        W10253   2.329   8.084  10.230
 6203W        W10254  11.481   4.314  11.206
 6204W        W10255   4.491   3.685   3.269
 6205W        W10256   8.844   4.253   0.914
 6206W        W10257   9.086   1.757   9.279
 6207W        W10258   1.358   2.354  10.682
 6208W        W10259   3.058   0.809   4.001
 6209W        W10260  11.076   5.996   1.946
 6210W        W10261   8.043   4.560   1.685
 6211W        W10262   6.759   9.996   9.173
 6212W        W10263   2.168   0.457  10.411
 6213W        W10264   2.335   2.859   1.498
 6214W        W10265   3.331   9.876  11.009
 6215W        W10266   5.035  10.329   8.832
 6216W        W10267   5.606   7.432   2.916
 6217W        W10268  11.172   4.020   8.898
 6218W        W10269   8.929   7.073   9.070
 6219W        W10270   1.527   7.304   1.422
 6220W        W10271   9.470   0.538   2.242
 6221W        W10272  10.981   5.256   0.920
 6222W        W10273   7.452   4.098   3.686
 6223W        W10274   5.079   9.538  10.579
 6224W        W10275   9.529   7.108   8.820
 6225W        W10276   9.389   8.867   2.422
 6226W        W10277  10.125   7.631   9.484
 6227W        W10278   4.647  10.712   0.820
 6228W        W10279  11.320   1.772   2.147
 6229W        W10280   7.278   6.785  10.043
 6230W        W10281   5.489   1.967  11.019
 6231W        W10282   6.597   9.497   0.036
 6232W        W10283   8.142   8.850   2.467
 6233W        W10284   7.106   7.472   1.799
 6234W        W10285   4.191   6.145   0.661
 6235W        W10286  10.797   3.978   2.373
 6236W        W10287   4.778   3.478  11.272
 6237W        W10288   9.365   5.072   9.513
 6238W        W10289  11.045   8.373   1.712
 6239W        W10290   7.902   8.298   1.772
 6240W        W10291   2.984   6.683   3.278
 6241W        W10292   0.920   9.660   3.432
 6242W        W10293  10.757   9.765   2.797
 6243W        W10294   2.231   5.750   2.747
 6244W        W10295   1.245   3.327   0.590
 6245W        W10296   3.417   2.887   1.289
 6246W        W10297   9.579   6.606   8.723
 6247W        W10298   7.424   6.231   1.614
 6248W        W10299  10.420   9.947  11.388
 6249W        W10300   2.534  10.447   9.185
 6250W        W10301   0.647   7.883  11.367
 6251W        W10302  11.362  10.329  10.650
 6252W        W10303   8.908  10.963  11.906
 6253W        W10304   4.707   6.725   2.038
 6254W        W10305   3.656   0.119   1.751
 6255W        W10306   8.981   3.550   3.355
 6256W        W10307   7.065   1.189   0.329
 6257W        W10308   4.677   9.323   3.051
 6258W        W10309   3.195  10.881   9.876
 6259W        W10310   3.960   5.831   9.939
 6260W        W10311   5.857   4.168   1.909
 6261W        W10312   5.493   9.832  10.479
 6262W        W10313   3.609   8.908   1.446
 6263W        W10314  11.404   0.221   9.058
 6264W        W10315   2.817   7.901  10.381
 6265W        W10316  11.048   1.662   8.804
 6266W        W10317   2.177   4.407   1.955
 6267W        W10318   9.375   7.293   8.357
 6268W        W10319   4.248   4.200   9.842
 6269W        W10320   1.385   9.960  10.759
 6270W        W10321   7.670   3.770   0.341
 6271W        W10322   9.358   6.182  10.000
 6272W        W10323  11.153   8.854   1.905
 6273W        W10324   8.658  10.855  11.326
 6274W        W10325   4.812   1.262   9.793
 6275W        W10326   7.534   4.503   2.353
 6276W        W10327   4.944   4.547   0.211
 6277W        W10328   9.151   1.315   9.531
 6278W        W10329  10.745   9.164  10.474
 6279W        W10330   0.605   7.864   3.648
 6280W        W10331   0.674   3.206   8.578
 6281W        W10332   2.135   8.422  11.257
 6282W        W10333  11.426  10.837  10.645
 6283W        W10334   4.982   3.492  10.056
 6284W        W10335   7.684   5.970  11.944
 6285W        W10336   4.325  11.445   1.245
 6286W        W10337   0.365   7.652  10.975
 6287W        W10338   1.649   7.446  10.483
 6288W        W10339   6.229   7.624   8.731
 6289W        W10340   7.108   8.683  10.327
 6290W        W10341   5.630  11.470   9.920
 6291W        W10342   8.536   1.949  10.443
 6292W        W10343   3.032  11.395  11.628
 6293W        W10344  11.033   2.203  10.186
 6294W        W10345   1.728   6.896   1.706
 6295W        W10346   3.403   0.239   9.911
 6296W        W10347  10.902   3.093   8.797
 6297W        W10348   8.396   1.789  11.965
 6298W        W10349   1.924   8.590   8.964
 6299W        W10350   4.174   7.452   2.222
 6300W        W10351   7.235   1.236   9.909
 6301W        W10352   4.220  11.032   9.807
 6302W        W10353   5.772   6.737  11.495
 6303W        W10354   5.157   5.547   0.754
 6304W        W10355   6.769   3.414   1.076
 6305W        W10356   0.524   5.158   2.531
 6306W        W10357  10.876  11.373   9.532
 6307W        W10358   7.472   9.616  11.941
 6308W        W10359   8.902   6.907   3.318
 6309W        W10360   9.599   1.021   2.525
 6310W        W10361   2.171   7.132   1.853
 6311W        W10362  10.973   5.132   1.893
 6312W        W10363   4.490   0.792   2.966
 6313W        W10364   0.300  10.564   9.163
 6314W        W10365   2.968   6.742  10.339
 6315W        W10366   1.972   4.793   8.551
 6316W        W10367   1.033  10.450   3.152
 6317W        W10368   9.803  10.984   9.447
 6318W        W10369   1.908   9.570  10.083
 6319W        W10370  11.342   2.723   0.062
 6320W        W10371   8.416   6.345   9.621
 6321W        W10372   8.050  10.974   8.635
 6322W        W10373   8.354   8.027   1.757
 6323W        W10374   2.142   6.750   3.128
 6324W        W10375   1.154   5.828   9.176
 6325W        W10376   2.720   5.086   9.540
 6326W        W10377   3.121   0.374  11.444
 6327W        W10378   1.776   5.943   0.183
 6328W        W10379   6.229  11.235   0.175
 6329W        W10380   0.486   9.968   1.348
 6330W        W10381   1.203  10.390  11.401
 6331W        W10382   0.428   5.266   3.490
 6332W        W10383   6.249   1.067   0.200
 6333W        W10384   0.058   1.310   2.867
 6334W        W10385   3.139  10.995   8.930
 6335W        W10386   5.560  11.421  10.832
 6336W        W10387   3.753  10.738   0.843
 6337W        W10388   5.073   5.054   0.041
 6338W        W10389   0.907   6.275   9.027
 6339W        W10390   0.833  10.190   3.547
 6340W        W10391   9.167   2.138  10.100
 6341W        W10392   0.205   5.640  11.223
 6342W        W10393   9.891   2.904   0.619
 6343W        W10394   8.607   8.467   3.006
 6344W        W10395  10.414   1.478   0.506
 6345W        W10396   6.135   6.931   0.398
 6346W        W10397   4.638  10.602   2.241
 6347W        W10398   1.798   7.245   9.784
 6348W        W10399  10.252   9.144   3.197
 6349W        W10400   9.958   1.810   9.274
 6350W        W10401   4.624  11.306  10.042
 6351W        W10402   7.043   1.078   8.889
 6352W        W10403   8.829   5.302   2.718
 6353W        W10404   2.686   1.730   3.198
 6354W        W10405   3.116   3.351   8.866
 6355W        W10406   0.843   4.841   9.999
 6356W        W10407   9.859   5.690  11.121
 6357W        W10408   2.668   9.596   8.948
 6358W        W10409   2.738   7.541   8.314
 6359W        W10410   3.142   6.267   0.790
 6360W        W10411   4.042   5.147   2.533
 6361W        W10412  10.372   7.919   1.910
 6362W        W10413   9.010   4.714   0.781
 6363W        W10414   7.076  10.325   1.925
 6364W        W10415   5.207   1.673   0.264
 6365W        W10416   7.034   2.436   0.827
 6366W        W10417   4.414   9.568   9.842
 6367W        W10418   5.703   3.589   1.172
 6368W        W10419   3.232   2.141   0.864
 6369W        W10420   2.331   8.939   0.927
 6370W        W10421  10.870   1.785  11.906
 6371W        W10422   7.910   8.926   8.771
 6372W        W10423   4.141   6.152  11.609
 6373W        W10424   2.030   9.321  10.953
 6374W        W10425   0.673   8.846   0.017
 6375W        W10426   7.368   5.551  11.983
 6376W        W10427   3.322   5.785   0.838
 6377W        W10428   0.495   6.198   2.194
 6378W        W10429   0.452   6.100  11.261
 6379W        W10430   1.783   6.034   1.165
 6380W        W10431   8.618   3.739   9.569
 6381W        W10432   9.629   5.262   9.916
 6382W        W10433   0.328   7.474   3.414
 6383W        W10434  10.515   0.468  11.180
 6384W        W10435  11.126   6.959   1.238
 6385W        W10436   3.435  10.011   0.449
 6386W        W10437   0.469   2.175   0.752
 6387W        W10438   3.491   5.253  10.188
 6388W        W10439   1.828   1.858   2.196
 6389W        W10440  10.783   7.035   3.535
 6390W        W10441   6.344   3.611  10.133
 6391W        W10442   0.854  10.543   8.528
 6392W        W10443   7.223   8.458   1.420
 6393W        W10444   3.345   4.404   0.554
 6394W        W10445   4.534   6.733  10.435
 6395W        W10446   6.479   4.688  10.990
 6396W        W10447   9.346  11.407   8.908
 6397W        W10448   8.328   7.406   3.258
 6398W        W10449  10.812   0.817   2.866
 6399W        W10450   9.508   9.175  11.408
 6400W        W10451   9.945   5.708   1.461
 6401W        W10452  10.715   7.621   0.989
 6402W        W10453   8.953  10.395  11.313
 6403W        W10454   5.231   1.652  10.293
 6404W        W10455   6.831   3.197   3.469
 6405W        W10456   0.199   5.511   8.958
 6406W        W10457   1.688   5.808  11.706
 6407W        W10458   9.042   0.248   2.314
 6408W        W10459   2.147   5.691   1.184
 6409W        W10460   1.464   2.389   0.592
 6410W        W10461  10.423   8.077   9.469
 6411W        W10462   0.474   0.773  10.995
 6412W        W10463  11.069  11.088   0.763
 6413W        W10464   1.888   2.753   0.695
 6414W        W10465   7.141  11.289  10.884
 6415W        W10466  10.253   9.595   0.921
 6416W        W10467   7.856   2.788  10.864
 6417W        W10468   5.573   6.208   0.677
 6418W        W10469   9.470   3.103   1.786
 6419W        W10470   6.042   8.476   9.016
 6420W        W10471  11.493   6.100  11.464
 6421W        W10472  10.942   0.459  11.565
 6422W        W10473   9.190   9.318   0.767
 6423W        W10474   5.120   9.430   0.538
 6424W        W10475   6.193   8.662   3.124
 6425W        W10476   5.555   4.517  10.980
 6426W        W10477   5.448   0.748   1.492
 6427W        W10478   9.286   2.337   2.972
 6428W        W10479   1.266   8.418   2.368
 6429W        W10480   4.237   3.105  11.959
 6430W        W10481   1.018   2.178   9.871
 6431W        W10482   1.813   7.798   0.372
 6432W        W10483   4.079   2.225   0.377
 6433W        W10484   2.814   8.518   9.128
 6434W        W10485   8.591  10.810   1.441
 6435W        W10486   7.937   8.894  10.580
 6436W        W10487   8.600   8.089   0.658
 6437W        W10488   7.007   7.920   2.049
 6438W        W10489   7.205   1.915   2.130
 6439W        W10490  11.258   3.231   2.296
 6440W        W10491   8.504   2.922   2.282
 6441W        W10492   4.241   9.579   3.219
 6442W        W10493   3.081   4.240   9.389
 6443W        W10494  10.416   1.628   9.464
 6444W        W10495   9.916   2.583  10.798
 6445W        W10496   2.803   9.697  10.451
 6446W        W10497   0.646   8.160   8.725
 6447W        W10498   3.708   8.689   8.220
 6448W        W10499   2.307   5.934  11.424
 6449W        W10500  11.459   7.993  10.325
 6450W        W10501  10.564   2.638  11.365
 6451W        W10502   3.928   9.593   9.934
 6452W        W10503   2.375   4.362   2.722
 6453W        W10504  11.276   6.525  11.753
 6454W        W10505  10.784  10.248   2.688
 6455W        W10506   9.317   5.261   2.901
 6456W        W10507   0.267   6.958   3.444
 6457W        W10508   5.513   0.271   9.153
 6458W        W10509   3.188   7.630   9.484
 6459W        W10510  11.488  10.759  11.554
 6460W        W10511   8.129   9.926   8.472
 6461W        W10512   1.087   1.910   1.931
 6462W        W10513   5.173   4.144  11.608
 6463W        W10514   5.671   5.275   2.260
 6464W        W10515   1.312   2.646   2.477
 6465W        W10516   9.977   1.268  10.539
 6466W        W10517   9.843   0.709  10.051
 6467W        W10518   4.048   8.464   2.450
 6468W        W10519   8.820   0.525   0.352
 6469W        W10520   8.956   4.582  10.470
 6470W        W10521   4.971   2.113   2.749
 6471W        W10522   8.227  10.033  11.417
 6472W        W10523  10.707   9.479   0.177
 6473W        W10524   1.541   0.679  10.848
 6474W        W10525   7.406   6.607  10.956
 6475W        W10526   8.539   6.546   3.645
 6476W        W10527   3.876   3.000   3.203
 6477W        W10528   9.432   0.173  11.794
 6478W        W10529   8.384   8.592  11.431
 6479W        W10530   4.770   5.708   1.051
 6480W        W10531   0.690  10.392   2.766
 6481W        W10532  10.504   6.474   8.851
 6482W        W10533   0.462   3.668   0.668
 6483W        W10534   0.708   2.188   9.441
 6484W        W10535   1.238   0.764   2.353
 6485W        W10536  10.551   9.284  11.719
 6486W        W10537   4.929   8.295   3.356
 6487W        W10538   7.614   7.507   9.894
 6488W        W10539   1.669   1.970  10.925
 6489W        W10540   4.631   7.528   0.130
 6490W        W10541   0.786  10.184  11.660
 6491W        W10542   2.091   3.320   0.721
 6492W        W10543   0.460  11.381   1.457
 6493W        W10544   1.864   5.545  11.296
 6494W        W10545   4.935   4.105   1.961
 6495W        W10546   3.810   7.027   1.014
 6496W        W10547  10.642   5.896   2.840
 6497W        W10548   8.222   4.377   0.287
 6498W        W10549   0.802   8.879   9.729
 6499W        W10550   7.377  11.387   3.129
 6500W        W10551   9.115   1.891   0.618
 6501W        W10552   9.547  11.405   3.252
 6502W        W10553   2.710   7.669   1.185
 6503W        W10554   6.930   4.995   1.630
 6504W        W10555  11.392   3.412   0.682
 6505W        W10556   2.480   7.082   1.070
 6506W        W10557   0.301   0.681   0.636
 6507W        W10558   5.267   9.956   9.607
 6508W        W10559   3.618   3.040   1.909
 6509W        W10560   5.638   5.349   0.822
 6510W        W10561   7.387   9.432   2.419
 6511W        W10562   1.486   2.301  10.197
 6512W        W10563   3.634   6.582   8.582
 6513W        W10564   2.053   7.441   2.364
 6514W        W10565  11.301  10.069   2.718
 6515W        W10566   4.568   1.370   2.239
 6516W        W10567   6.966   4.178   0.025
 6517W        W10568   0.720   5.368   9.989
 6518W        W10569   6.685   1.704  11.187
 6519W        W10570   8.535  11.365   3.241
 6520W        W10571   7.152   1.986   0.629
 6521W        W10572   1.453   0.715   0.040
 6522W        W10573   7.766   9.910  11.234
 6523W        W10574   4.110   0.452   0.002
 6524W        W10575   8.094   8.192   9.967
 6525W        W10576   0.343   6.490   3.780
 6526W        W10577   4.547   5.753  11.501
 6527W        W10578   4.021  10.531   9.755
 6528W        W10579   5.681   2.345  10.745
 6529W        W10580   8.875   9.286   9.287
 6530W        W10581   1.853   6.946   2.223
 6531W        W10582   0.396  10.830  11.839
 6532W        W10583   3.056  10.857  11.273
 6533W        W10584   0.791   9.959  10.565
 6534W        W10585   2.560   5.375   8.178
 6535W        W10586   6.624   6.682  11.298
 6536W        W10587   3.198   3.303  10.936
 6537W        W10588  10.838  10.281  11.808
 6538W        W10589   1.284  11.181   2.780
 6539W        W10590   3.770  10.943  10.532
 6540W        W10591   7.578   1.977  11.388
 6541W        W10592   4.009  11.464  11.832
 6542W        W10593   0.894   0.861   1.308
 6543W        W10594   1.890   8.627   9.494
 6544W        W10595   3.638   6.172   0.987
 6545W        W10596   9.775   1.695  10.746
 6546W        W10597   3.280   5.610  11.969
 6547W        W10598   0.591   7.265   2.152
 6548W        W10599   5.805   7.013   2.650
 6549W        W10600   9.772  11.419  11.500
 6550W        W10601   5.274   6.740   1.367
 6551W        W10602   6.234   4.114   4.093
 6552W        W10603   1.553   5.992  11.238
 6553W        W10604   6.545   6.893   1.201
 6554W        W10605   7.135   7.661  10.444
 6555W        W10606   6.523   7.756  10.970
 6556W        W10607   4.173  10.988   2.966
 6557W        W10608   7.098   0.830  10.790
 6558W        W10609   5.943  11.499   9.458
 6559W        W10610   5.870   9.533   9.872
 6560W        W10611   3.802   8.941   2.302
 6561W        W10612   4.157   6.258   3.728
 6562W        W10613   1.283   2.805   0.375
 6563W        W10614  10.552   2.367  10.051
 6564W        W10615   0.340  11.463   2.759
 6565W        W10616   0.351   7.254   1.694
 6566W        W10617   3.182   2.119  11.971
 6567W        W10618   2.866   2.797  11.417
 6568W        W10619   5.439   9.253   3.198
 6569W        W10620   9.984   8.376   2.395
 6570W        W10621  10.835  11.159   1.700
 6571W        W10622   1.727   9.147   3.137
 6572W        W10623   2.352  11.097  10.468
 6573W        W10624   7.465   0.951   0.578
 6574W        W10625   1.629   1.326  11.437
 6575W        W10626   6.644   3.103   2.475
 6576W        W10627   2.130   6.574   8.672
 6577W        W10628   2.859   6.224  10.612
 6578W        W10629   4.247   3.526  10.894
 6579W        W10630   6.424   3.124   8.497
 6580W        W10631   2.296   2.466  10.602
 6581W        W10632   1.623   7.039   9.368
 6582W        W10633  11.237   7.631   2.697
 6583W        W10634   9.242   0.650   0.585
 6584W        W10635   1.725   8.649   2.276
 6585W        W10636   5.133  11.281   9.874
 6586W        W10637   2.218   9.478   9.174
 6587W        W10638   9.973   3.278   1.904
 6588W        W10639   8.768   3.363  11.973
 6589W        W10640   4.253   0.083   9.855
 6590W        W10641   9.849   2.429   1.873
 6591W        W10642  10.952   8.199   0.728
 6592W        W10643   9.714   0.693   0.388
 6593W        W10644   5.188   5.978   0.994
 6594W        W10645   7.755   4.551   9.037
 6595W        W10646   3.240   2.644   0.855
 6596W        W10647   5.218   6.091  10.328
 6597W        W10648  10.021   8.144  11.786
 6598W        W10649   6.114   0.946   0.881
 6599W        W10650   1.979   3.400  10.954
 6600W        W10651  10.219   6.100   0.764
 6601W        W10652   8.997   7.843  11.530
 6602W        W10653   1.368   1.946   3.276
 6603W        W10654   6.579   8.636   1.815
 6604W        W10655   6.308   7.184   8.988
 6605W        W10656  10.802   0.763   9.071
 6606W        W10657   2.778   8.865   9.543
 6607W        W10658  11.258   8.599   0.717
 6608W        W10659   3.543   4.108   0.951
 6609W        W10660   4.042   6.175   0.136
 6610W        W10661   4.408   1.776   0.696
 6611W        W10662   6.209   0.290  10.812
 6612W        W10663   4.091  11.443   0.791
 6613W        W10664   7.656   8.865   0.564
 6614W        W10665   2.014   3.030  11.709
 6615W        W10666   8.155   2.838  10.409
 6616W        W10667   1.306   3.614  11.706
 6617W        W10668   4.554   3.387  10.403
 6618W        W10669   4.895   7.151  11.394
 6619W        W10670   5.678   6.304  10.176
 6620W        W10671   7.471   3.860   1.579
 6621W        W10672   0.155   5.638   0.597
 6622W        W10673  10.279   8.589  10.115
 6623W        W10674   7.205   3.092   1.958
 6624W        W10675   5.998   2.363   9.488
 6625W        W10676   4.616   1.446   9.376
 6626W        W10677   4.481   4.683   3.232
 6627W        W10678  10.082   7.448  10.320
 6628W        W10679  10.052  10.915   0.811
 6629W        W10680  11.323   5.261  11.103
 6630W        W10681   4.799   1.341  10.312
 6631W        W10682   0.820   3.504   9.546
 6632W        W10683   5.777   4.372   0.693
 6633W        W10684  10.167   7.517   1.619
 6634W        W10685   8.710   1.285   9.770
 6635W        W10686   3.240   8.616   0.238
 6636W        W10687   5.911   1.635  11.041
 6637W        W10688   4.980   1.755   4.052
 6638W        W10689   6.983   1.334   1.199
 6639W        W10690   7.881   5.235   9.495
 6640W        W10691   0.470   3.753   2.810
 6641W        W10692   8.078  11.384  10.875
 6642W        W10693   1.927   5.258   8.983
 6643W        W10694   1.387   2.822  10.338
 6644W        W10695   8.164  11.305   9.974
 6645W        W10696   9.235   0.393   3.290
 6646W        W10697   0.419  11.216   0.181
 6647W        W10698   8.658  11.255  10.227
 6648W        W10699   2.698   6.565   8.734
 6649W        W10700  10.520   0.691  10.677
 6650W        W10701   5.733   7.735   4.019
 6651W        W10702   3.362   3.361  11.418
 6652W        W10703   4.064  10.360  10.731
 6653W        W10704   9.016   3.317   9.053
 6654W        W10705   6.201   5.709   2.742
 6655W        W10706   4.971   8.127   9.243
 6656W        W10707   9.253   5.921  10.424
 6657W        W10708  10.362   4.135   3.097
 6658W        W10709   3.417   7.384   2.918
 6659W        W10710   7.635   2.115  11.885
 6660W        W10711   3.107   1.386  11.377
 6661W        W10712  10.734  11.269   9.057
 6662W        W10713  10.326   0.978   3.203
 6663W        W10714   4.110   1.238  10.385
 6664W        W10715   5.874  10.914   2.462
 6665W        W10716   2.008  10.358   9.185
 6666W        W10717   1.370   3.719  10.694
 6667W        W10718   1.740   4.608   0.405
 6668W        W10719   4.225   1.221   1.857
 6669W        W10720   9.004   8.978   9.841
 6670W        W10721   1.303   4.577  10.804
 6671W        W10722   4.249   2.775   1.569
 6672W        W10723   0.710   4.165   1.211
 6673W        W10724   9.269  10.399   3.766
 6674W        W10725  10.737   6.073   1.545
 6675W        W10726   2.115  10.583   1.813
 6676W        W10727  11.217   0.699   3.156
 6677W        W10728   0.576   1.901  11.144
 6678W        W10729   1.872   9.995   1.524
 6679W        W10730   7.600   6.213  10.205
 6680W        W10731   4.363   6.649  11.832
 6681W        W10732   0.105   1.688  11.268
 6682W        W10733   7.614  10.319  10.970
 6683W        W10734   7.576   8.016  10.638
 6684W        W10735   3.751   4.990   9.354
 6685W        W10736   5.102   0.296   1.288
 6686W        W10737   1.215   5.936  10.849
 6687W        W10738   9.844   8.834   3.319
 6688W        W10739   7.651   5.493   0.905
 6689W        W10740   2.198   8.838   2.391
 6690W        W10741   7.589   1.925   9.237
 6691W        W10742   9.305   4.841  10.070
 6692W        W10743   7.143   7.448   9.037
 6693W        W10744  10.908  10.970   3.036
 6694W        W10745   7.969   2.337   9.703
 6695W        W10746   3.714   6.608  10.816
 6696W        W10747   7.878  10.774   3.481
 6697W        W10748   3.935  10.291  11.360
 6698W        W10749   5.392   8.475  10.954
 6699W        W10750   0.580   9.065  10.193
 6700W        W10751   0.258   3.179   2.286
 6701W        W10752   6.092   2.522  10.988
 6702W        W10753  10.635   8.390   1.358
 6703W        W10754   3.218  11.488   9.204
 6704W        W10755  10.138   4.225   9.119
 6705W        W10756   6.805   1.776   2.429
 6706W        W10757   0.825   4.577  10.484
 6707W        W10758   5.749   2.818   2.827
 6708W        W10759   9.962   2.714   0.160
 6709W        W10760   3.912   7.265   2.826
 6710W        W10761  10.141   0.281   3.406
 6711W        W10762   7.379   1.054   2.373
 6712W        W10763   7.945   3.308  11.139
 6713W        W10764   0.818   7.377   0.808
 6714W        W10765   1.857   3.115  10.169
 6715W        W10766   1.807   6.415   0.376
 6716W        W10767   5.559   1.903  11.985
 6717W        W10768   2.346   9.583  10.648
 6718W        W10769   6.178   2.513  11.506
 6719W        W10770   4.512   6.114   1.285
 6720W        W10771   4.747  11.485   0.415
 6721W        W10772   9.034   7.371  10.408
 6722W        W10773   1.651  11.007  11.538
 6723W        W10774   4.161   9.551  11.485
 6724W        W10775   6.281   8.737   2.213
 6725W        W10776   3.659   0.891  10.411
 6726W        W10777   0.942   6.266  11.818
 6727W        W10778   8.832   7.611   8.832
 6728W        W10779   5.344   4.456   0.946
 6729W        W10780   9.997   3.263   8.741
 6730W        W10781   8.067   1.932  11.569
 6731W        W10782   9.656   9.303   3.165
 6732W        W10783   5.579   4.614   1.909
 6733W        W10784   5.840   7.080   9.184
 6734W        W10785   3.415   1.946   2.163
 6735W        W10786   8.427   5.912   9.901
 6736W        W10787   8.376   8.393   9.551
 6737W        W10788   0.217   4.082   1.365
 6738W        W10789   6.114   1.599   9.069
 6739W        W10790   4.768   7.956   1.122
 6740W        W10791   8.969   9.204   3.601
 6741W        W10792  10.003   7.971   1.520
 6742W        W10793   6.804  10.861   2.212
 6743W        W10794   9.460   3.382   8.749
 6744W        W10795   8.790   0.135   3.640
 6745W        W10796   2.961   0.696   0.278
 6746W        W10797   6.026   2.152   9.941
 6747W        W10798   4.943   2.621   1.790
 6748W        W10799   7.030   8.655   9.494
 6749W        W10800   7.802  10.375  11.441
 6750W        W10801   5.679   0.735   2.720
 6751W        W10802  11.396   5.193   9.895
 6752W        W10803   7.438  10.032  11.619
 6753W        W10804   7.130  11.178   1.322
 6754W        W10805  11.386   3.838  11.358
 6755W        W10806   9.864   9.998  11.928
 6756W        W10807   7.144   8.889   0.471
 6757W        W10808   2.165   4.983  11.747
 6758W        W10809   4.739   8.918   2.758
 6759W        W10810   2.731   9.514   1.676
 6760W        W10811  10.732   7.718   2.241
 6761W        W10812   1.748   2.684   9.892
 6762W        W10813   5.392   9.357   9.937
 6763W        W10814   2.328  10.053  11.381
 6764W        W10815  11.434   8.119   0.904
 6765W        W10816   8.200   1.201   0.632
 6766W        W10817   9.978   7.603   0.322
 6767W        W10818   5.105   7.238  10.925
 6768W        W10819   3.546   6.896   2.771
 6769W        W10820   8.620   3.024   1.240
 6770W        W10821   7.758   3.579   1.245
 6771W        W10822   1.373   7.171  11.558
 6772W        W10823   0.906   3.806   0.424
 6773W        W10824   2.791   2.854   1.004
 6774W        W10825  10.316  11.013  11.867
 6775W        W10826   6.513   2.344  10.759
 6776W        W10827   9.474   6.941   9.701
 6777W        W10828   4.765   9.912  10.958
 6778W        W10829   6.677   0.796   3.890
 6779W        W10830  10.511   7.291   1.329
 6780W        W10831  11.347   0.144   9.579
 6781W        W10832   5.184   9.005  10.754
 6782W        W10833   2.350   1.965  10.521
 6783W        W10834   5.072   9.326   2.408
 6784W        W10835   3.127   5.126   3.796
 6785W        W10836  11.302   5.266   0.505
 6786W        W10837   8.161   5.998   8.446
 6787W        W10838   9.757   0.506   1.796
 6788W        W10839  10.487   3.873  10.904
 6789W        W10840   1.198   6.688   8.709
 6790W        W10841   2.113   7.605   3.671
 6791W        W10842   4.477   1.443  10.682
 6792W        W10843   6.053   7.537  10.256
 6793W        W10844   2.705   7.517   9.331
 6794W        W10845   4.370  10.697   9.388
 6795W        W10846   4.795   7.164  10.335
 6796W        W10847   7.917  10.356   1.562
 6797W        W10848   7.962   1.241   1.427
 6798W        W10849   7.141   6.793   2.686
 6799W        W10850   9.186   8.427   1.257
 6800W        W10851   5.762   2.632   0.459
 6801W        W10852   1.887   2.151  10.490
 6802W        W10853   3.035   2.491  11.040
 6803W        W10854  10.416   7.422   2.948
 6804W        W10855  11.088   0.443   1.408
 6805W        W10856   5.900   4.281  11.382
 6806W        W10857   7.498   5.349   1.365
 6807W        W10858   7.171   9.492   2.900
 6808W        W10859   9.368   8.868   1.479
 6809W        W10860   5.659  10.773   3.447
 6810W        W10861   7.920   2.396   9.197
 6811W        W10862   3.696   7.032   0.030
 6812W        W10863   2.284  11.074   1.872
 6813W        W10864  11.414   0.517   0.950
 6814W        W10865   3.274   8.892   1.038
 6815W        W10866   7.348   6.972   8.868
 6816W        W10867   8.911   7.624   9.983
 6817W        W10868  10.506   9.080   8.717
 6818W        W10869   4.831   6.665  11.267
 6819W        W10870   0.389   4.883   1.623
 6820W        W10871   2.431   6.453  11.471
 6821W        W10872   9.485   9.773   2.927
 6822W        W10873   8.799   5.755  11.897
 6823W        W10874  10.898   0.361   9.407
 6824W        W10875   4.999   7.480   0.950
 6825W        W10876   2.340  10.324   0.910
 6826W        W10877  10.332   6.315   1.270
 6827W        W10878   5.309   9.790   0.220
 6828W        W10879  11.260   4.696   3.289
 6829W        W10880   5.236   0.804  11.777
 6830W        W10881   5.118   2.595   3.621
 6831W        W10882   5.743   4.097  10.745
 6832W        W10883   9.403  10.274   2.848
 6833W        W10884   1.835   7.807   2.694
 6834W        W10885  10.766   7.098   0.905
 6835W        W10886   9.883   4.739   0.210
 6836W        W10887   9.991   1.224   2.072
 6837W        W10888   3.193   4.745   0.896
 6838W        W10889   2.975   3.428  11.746
 6839W        W10890   0.654  10.445   0.081
 6840W        W10891   6.673   8.692   2.668
 6841W        W10892   8.466   9.480  10.135
 6842W        W10893   1.815   5.534   2.998
 6843W        W10894  11.411   2.898   2.679
 6844W        W10895   5.479  11.313   9.414
 6845W        W10896   8.958   9.856   0.797
 6846W        W10897   8.406   3.468  10.922
 6847W        W10898   6.541   1.657  10.188
 6848W        W10899   0.831   5.325  11.886
 6849W        W10900   2.679   8.168   1.298
 6850W        W10901   9.391   4.215  10.372
 6851W        W10902   7.496   6.698   0.328
 6852W        W10903   9.973   3.755   1.160
 6853W        W10904   2.165   7.407  10.577
 6854W        W10905   9.233   7.908   9.730
 6855W        W10906   8.464   9.890   9.829
 6856W        W10907   2.699   3.780  11.989
 6857W        W10908   1.008   0.713  10.870
 6858W        W10909  10.536  10.303   9.635
 6859W        W10910   6.254   1.308   8.668
 6860W        W10911   0.505   6.017   3.087
 6861W        W10912   0.816   4.552   9.539
 6862W        W10913   7.473   1.414   1.394
 6863W        W10914   9.406   5.833  11.323
 6864W        W10915  10.850   1.334  11.641
 6865W        W10916   8.895   4.779  11.788
 6866W        W10917   2.513   3.317  10.860
 6867W        W10918   6.376   1.371  10.928
 6868W        W10919   7.475   7.366   0.809
 6869W        W10920   1.359  10.945   2.321
 6870W        W10921   8.840   7.404   3.281
 6871W        W10922   5.479  10.540   2.458
 6872W        W10923   4.133  10.371  11.829
 6873W        W10924   1.354   1.805   9.960
 6874W        W10925   3.779   4.157   2.802
 6875W        W10926   5.046   6.046  11.997
 6876W        W10927   9.451   8.402   2.651
 6877W        W10928   7.653   5.563   2.195
 6878W        W10929   1.277   9.989   3.313
 6879W        W10930   5.559   7.566   0.908
 6880W        W10931  10.428  10.041   3.115
 6881W        W10932   4.259   5.234   0.551
 6882W        W10933   4.257   2.200   9.284
 6883W        W10934   8.912   7.140   2.814
 6884W        W10935   5.774   3.685  11.492
 6885W        W10936   7.936   2.757   1.689
 6886W        W10937   3.200   2.341  11.510
 6887W        W10938   7.482  10.026   1.825
 6888W        W10939   2.350   6.664   9.128
 6889W        W10940   9.042   9.521   1.750
 6890W        W10941   4.113  10.262   9.319
 6891W        W10942   3.162   6.168   1.775
 6892W        W10943   1.692   8.145  11.448
 6893W        W10944   6.120   0.233   1.399
 6894W        W10945   2.945   3.322   2.283
 6895W        W10946   4.177  11.444   8.912
 6896W        W10947   8.966   8.740   3.272
 6897W        W10948   7.154   8.158  10.347
 6898W        W10949   7.296   2.246   1.218
 6899W        W10950  10.089   8.085   9.878
 6900W        W10951   5.675   1.770   0.488
 6901W        W10952   0.815  11.350  10.913
 6902W        W10953   0.671  10.728   9.479
 6903W        W10954   3.304  11.217   2.607
 6904W        W10955   0.308   7.913   9.051
 6905W        W10956   2.007   7.598  10.125
 6906W        W10957   4.699   1.896  10.501
 6907W        W10958   7.562  10.440   1.182
 6908W        W10959   5.284   8.845   9.908
 6909W        W10960   7.197   5.334   0.697
 6910W        W10961   8.006   7.464   0.418
 6911W        W10962   5.608   3.117   0.423
 6912W        W10963  10.952   8.951  10.989
 6913W        W10964   3.650  10.449   9.416
 6914W        W10965   8.055   6.339   9.264
 6915W        W10966  10.295   1.996  10.575
 6916W        W10967   2.836   5.699   3.744
 6917W        W10968   6.113   0.268   0.059
 6918W        W10969   2.365   0.912  11.254
 6919W        W10970   8.129  10.322  11.006
 6920W        W10971   2.667  10.178  10.493
 6921W        W10972   1.431   1.509  10.837
 6922W        W10973   9.540   0.322  11.302
 6923W        W10974   7.157   9.192   9.099
 6924W        W10975   3.325   5.234   0.924
 6925W        W10976   9.879   7.221   0.010
 6926W        W10977   7.500   1.809   0.997
 6927W        W10978   6.905   7.418  10.819
 6928W        W10979  11.218   4.732  11.402
 6929W        W10980   9.249   7.596   2.071
 6930W        W10981   2.838   9.949  10.926
 6931W        W10982   7.450  10.092   3.650
 6932W        W10983  10.819   5.516   0.382
 6933W        W10984  10.459   8.843  10.765
 6934W        W10985   0.873  11.491   2.739
 6935W        W10986  11.058   3.377  11.285
 6936W        W10987  10.724   5.118   2.767
 6937W        W10988   4.257  10.013   0.172
 6938W        W10989   8.070  11.075  11.415
 6939W        W10990   0.284   6.747   9.638
 6940W        W10991   9.741   9.493   9.635
 6941W        W10992   7.356   2.442  10.411
 6942W        W10993   5.276   4.325   3.159
 6943W        W10994   2.667  11.339   9.877
 6944W        W10995   3.462   0.984  10.873
 6945W        W10996   1.628   5.702   9.010
 6946W        W10997   1.648   4.028   9.140
 6947W        W10998   8.428   9.251   1.431
 6948W        W10999   3.396   4.709   1.510
 6949W        W11000   1.627   6.877   1.163
 6950W        W11001   6.807   8.817   9.927
 6951W        W11002   9.826   9.461   1.206
 6952W        W11003   9.027   9.940   1.423
 6953W        W11004   3.114   3.835   2.321
 6954W        W11005   7.354   2.672  10.856
 6955W        W11006   8.429   5.226  10.465
 6956W        W11007   8.363   8.557   0.862
 6957W        W11008   7.488   5.671   0.453
 6958W        W11009  11.387   0.284   3.465
 6959W        W11010   8.014   0.733   1.341
 6960W        W11011   0.442   4.007  10.900
 6961W        W11012  10.916   2.468  10.975
 6962W        W11013   6.537   7.693   9.647
 6963W        W11014   4.294   1.348   8.966
 6964W        W11015   6.068   5.012   9.610
 6965W        W11016   5.256   1.656   1.224
 6966W        W11017   5.808  10.024   9.117
 6967W        W11018   6.358  11.422  10.445
 6968W        W11019   4.379   5.611   1.371
 6969W        W11020   8.836   0.973  11.936
 6970W        W11021   3.328   2.209   8.746
 6971W        W11022   9.938   5.991   8.852
 6972W        W11023   7.527   1.701  10.952
 6973W        W11024   3.812  11.426  10.004
 6974W        W11025  10.247   5.342  11.006
 6975W        W11026   7.480   1.341   1.903
 6976W        W11027   9.811   7.484   2.291
 6977W        W11028   5.535   8.520  11.992
 6978W        W11029   5.798  11.036   9.690
 6979W        W11030   6.207   4.079   9.944
 6980W        W11031   5.488  11.421  11.768
 6981W        W11032   8.529   0.792   0.713
 6982W        W11033   5.734   8.894   9.109
 6983W        W11034   9.543  11.280   9.777
 6984W        W11035   2.761   0.717   3.175
 6985W        W11036   4.532   9.270  10.237
 6986W        W11037   6.642   5.177  11.059
 6987W        W11038   4.762   3.298   2.320
 6988W        W11039   2.434   5.176   9.953
 6989W        W11040  11.237   6.504   1.827
 6990W        W11041   2.870   1.951   2.164
 6991W        W11042   3.724   6.245  10.170
 6992W        W11043  11.278   7.371  10.149
 6993W        W11044   4.651  11.458   3.479
 6994W        W11045  10.307   2.050   1.214
 6995W        W11046   9.526   0.437   8.981
 6996W        W11047   8.311   0.669   9.809
 6997W        W11048   4.099  10.247   3.787
 6998W        W11049   1.203   4.551  11.693
 6999W        W11050   5.111   7.097   9.931
 7000W        W11051   6.337  11.138   0.652
 7001W        W11052   2.667   1.391  11.762
 7002W        W11053  10.335   9.530   8.487
 7003W        W11054   9.064   2.812   8.908
 7004W        W11055   1.901   0.099   8.985
 7005W        W11056   7.577   1.047   8.948
 7006W        W11057   3.778   2.870  11.839
 7007W        W11058   6.946   4.056   9.482
 7008W        W11059   2.744   2.937  10.078
 7009W        W11060   0.299   4.039   9.849
 7010W        W11061  10.174   1.930   0.739
 7011W        W11062   1.770  10.849   3.151
 7012W        W11063   8.974   4.119  10.675
 7013W        W11064   2.071   6.352   3.459
 7014W        W11065   2.763  11.205   1.662
 7015W        W11066  10.292   5.698   0.383
 7016W        W11067  10.856   1.351   1.535
 7017W        W11068   9.871   1.185   0.428
 7018W        W11069   1.029   7.041   0.463
 7019W        W11070   0.976   4.972   2.763
 7020W        W11071   7.288   7.147  10.587
 7021W        W11072  11.437   1.041   0.902
 7022W        W11073   2.923  11.294   0.122
 7023W        W11074   5.778   6.681   2.243
 7024W        W11075   1.859   0.878  11.283
 7025W        W11076   4.004   8.400  11.192
 7026W        W11077   7.353   2.338   0.287
 7027W        W11078   0.847   4.658   0.454
 7028W        W11079   1.323   9.791   8.870
 7029W        W11080   8.621   2.971   9.144
 7030W        W11081   6.756   9.024   3.429
 7031W        W11082   4.309   5.657   0.848
 7032W        W11083   6.063   3.689  10.680
 7033W        W11084   5.503   6.305   1.196
 7034W        W11085   4.985   3.649   8.672
 7035W        W11086   5.990   9.967   9.607
 7036W        W11087   6.458  10.884   1.827
 7037W        W11088  11.325   1.709   2.640
 7038W        W11089   7.601   2.766   0.423
 7039W        W11090   0.309   8.132   2.215
 7040W        W11091   9.046   4.639   9.116
 7041W        W11092   1.325  10.783   8.897
 7042W        W11093   7.811   0.219   2.210
 7043W        W11094   3.407   8.976   0.550
 7044W        W11095   7.965   3.651   0.785
 7045W        W11096   5.123   9.753  10.099
 7046W        W11097   8.827   0.901   1.957
 7047W        W11098  10.083  11.052   2.736
 7048W        W11099   5.705   1.288   3.476
 7049W        W11100   6.008   8.919  11.520
 7050W        W11101   5.621   4.660   2.411
 7051W        W11102   8.386   0.769   0.205
 7052W        W11103   8.080   5.817   3.655
 7053W        W11104   0.627   0.905   9.072
 7054W        W11105   2.853   4.217  11.712
 7055W        W11106  11.201   5.986   2.813
 7056W        W11107   7.510   8.022   1.588
 7057W        W11108   5.361   0.317  10.518
 7058W        W11109   5.725   6.583   9.151
 7059W        W11110   7.866   7.873   2.061
 7060W        W11111   8.910  10.410  10.346
 7061W        W11112   7.920  10.776  11.791
 7062W        W11113  10.994   0.318   0.528
 7063W        W11114   3.562   4.002  10.551
 7064W        W11115  10.162   1.453   0.945
 7065W        W11116   9.990   6.513  10.421
 7066W        W11117   4.181   2.689   3.524
 7067W        W11118   6.577   1.786   8.914
 7068W        W11119   5.716   8.155   9.527
 7069W        W11120   3.230   9.337   1.807
 7070W        W11121   7.552  11.464   1.199
 7071W        W11122   1.724   8.650   3.223
 7072W        W11123   7.344   8.337  11.782
 7073W        W11124   6.797  10.389  11.320
 7074W        W11125   0.839   8.541  10.781
 7075W        W11126   5.762  11.450   0.240
 7076W        W11127   6.725   6.325  11.775
 7077W        W11128   9.740   8.245   3.653
 7078W        W11129   5.753   8.828   0.958
 7079W        W11130  10.527   5.513   0.842
 7080W        W11131   9.110  10.499   3.188
 7081W        W11132   7.885  10.959   9.653
 7082W        W11133   6.636  10.896   9.247
 7083W        W11134   2.456   7.051  10.335
 7084W        W11135  10.748   0.331   0.068
 7085W        W11136   6.650   9.127  10.861
 7086W        W11137   4.071   2.828   2.053
 7087W        W11138   8.155   9.861   1.379
 7088W        W11139   5.099   4.523   2.233
 7089W        W11140   0.883   4.147   1.693
 7090W        W11141   6.892   2.509   9.985
 7091W        W11142   2.627   4.931  10.389
 7092W        W11143   8.271   0.359  11.855
 7093W        W11144   7.647   9.036   9.227
 7094W        W11145   3.730   5.738   0.183
 7095W        W11146  10.356   6.087   3.237
 7096W        W11147   0.025  10.822   1.392
 7097W        W11148   4.718   0.344   9.926
 7098W        W11149   5.981   3.360   8.561
 7099W        W11150   8.421  10.522   0.925
 7100W        W11151   4.716   4.133   0.438
 7101W        W11152  11.497   1.819   1.179
 7102W        W11153  10.814   7.351   2.580
 7103W        W11154   5.567   9.413   8.977
 7104W        W11155   1.419   9.101   0.179
 7105W        W11156   9.407   0.478  10.362
 7106W        W11157   2.633   7.058  11.206
 7107W        W11158   2.849  10.925  11.760
 7108W        W11159   2.120   7.330   9.396
 7109W        W11160   1.666   9.684   0.764
 7110W        W11161   0.955  10.119  11.026
 7111W        W11162   9.981   2.857  11.677
 7112W        W11163   2.354   1.556   9.620
 7113W        W11164   8.597   3.369   1.606
 7114W        W11165   0.164  10.504   2.805
 7115W        W11166  11.400   8.464   2.252
 7116W        W11167   8.439   7.111   9.412
 7117W        W11168   5.214   1.601   2.676
 7118W        W11169   9.853   6.127   3.077
 7119W        W11170   7.965   6.981   3.103
 7120W        W11171   6.989   6.577   8.803
 7121W        W11172   1.763   6.466   0.879
 7122W        W11173   6.544   1.828  10.675
 7123W        W11174   2.730   5.735  10.736
 7124W        W11175   6.072  11.301  10.850
 7125W        W11176   1.109   5.746  10.052
 7126W        W11177   1.263   8.863  10.019
 7127W        W11178   5.064   2.970   0.916
 7128W        W11179   0.740   6.506  11.348
 7129W        W11180   8.463   1.135   1.633
 7130W        W11181   7.855   7.427   2.323
 7131W        W11182   2.789   2.566   3.342
 7132W        W11183   5.560   1.348  11.831
 7133W        W11184   2.019   7.678  11.427
 7134W        W11185   8.423   0.740  11.152
 7135W        W11186   0.477   6.725  10.524
 7136W        W11187   1.947  11.134   1.169
 7137W        W11188   0.247  11.107  10.280
 7138W        W11189   4.013   4.573   9.557
 7139W        W11190  10.896   9.036   0.036
 7140W        W11191   5.099   5.568  11.765
 7141W        W11192   9.838   5.263   3.043
 7142W        W11193   6.584   9.609   8.474
 7143W        W11194  10.025   1.787   9.773
 7144W        W11195   4.702   5.732   0.534
 7145W        W11196   1.333   8.385  10.204
 7146W        W11197   8.391  11.301   9.290
 7147W        W11198   3.129   1.026  10.095
 7148W        W11199   8.606   5.777   8.235
 7149W        W11200   3.564   4.153   9.223
 7150W        W11201   2.334  10.052  10.861
 7151W        W11202   1.772   5.030   9.416
 7152W        W11203   8.062   5.998  10.242
 7153W        W11204   6.965   0.948   2.118
 7154W        W11205   5.226   0.864   2.946
 7155W        W11206   4.609   3.217   0.822
 7156W        W11207   3.501   0.046  11.433
 7157W        W11208   8.053   0.075  11.399
 7158W        W11209   4.608   0.324   8.554
 7159W        W11210   8.505   7.632   0.405
 7160W        W11211  10.329   2.695   1.345
 7161W        W11212   8.565   1.173  11.375
 7162W        W11213   5.299  11.359   3.031
 7163W        W11214   4.895   0.664   3.266
 7164W        W11215  10.052   8.456   9.385
 7165W        W11216   4.141   1.868   8.766
 7166W        W11217   5.213   8.261   1.276
 7167W        W11218   3.322  10.797   2.243
 7168W        W11219   5.119   9.103   1.523
 7169W        W11220   6.767  10.908   0.083
 7170W        W11221   1.613   9.003  10.874
 7171W        W11222  11.370   1.890  11.679
 7172W        W11223   2.610   5.730   1.369
 7173W        W11224   8.610   4.084   0.482
 7174W        W11225   3.355   5.217   1.453
 7175W        W11226   6.881   4.572  11.254
 7176W        W11227  10.822   2.732   0.744
 7177W        W11228   6.516  11.129   3.042
 7178W        W11229   5.099   3.093  11.081
 7179W        W11230   9.424  10.876   0.110
 7180W        W11231   3.776   7.972  10.494
 7181W        W11232   7.136   7.046   0.076
 7182W        W11233   1.473   8.525   9.184
 7183W        W11234   3.867   1.866   1.294
 7184W        W11235   1.187   6.728  11.747
 7185W        W11236   5.188   1.426   0.750
 7186W        W11237   4.730   8.681   1.910
 7187W        W11238   3.321   8.798   8.638
 7188W        W11239   1.281   4.655   0.181
 7189W        W11240   7.226   8.394  10.799
 7190W        W11241   0.663   1.473  10.413
 7191W        W11242   2.609   8.664   1.222
 7192W        W11243   7.022   1.695  10.334
 7193W        W11244   5.064  10.799   0.519
 7194W        W11245   2.652   2.343   2.462
 7195W        W11246  10.785   4.228   2.812
 7196W        W11247   4.665   6.110   1.824
 7197W        W11248   8.805   3.657   1.224
 7198W        W11249   5.534   3.258   2.667
 7199W        W11250   1.811   5.537   9.453
 7200W        W11251   4.455   2.145   2.876
 7201W        W11252   6.159   3.139   8.972
 7202W        W11253   6.550   5.644   1.733
 7203W        W11254   3.595  11.240  10.960
 7204W        W11255   3.363   7.149  10.481
 7205W        W11256   3.805   2.616  10.361
 7206W        W11257  11.416   4.356   9.234
 7207W        W11258   9.465   5.022   0.413
 7208W        W11259   6.544   5.686  11.268
 7209W        W11260   8.709   6.619   8.787
 7210W        W11261   0.590   1.249   9.938
 7211W        W11262   4.300   4.572  10.815
 7212W        W11263   1.050   7.880   3.388
 7213W        W11264   4.146   2.535  11.955
 7214W        W11265   5.743   7.518   8.916
 7215W        W11266   8.096   3.703   9.612
 7216W        W11267   0.385   4.891  11.748
 7217W        W11268   0.847   9.034  10.628
 7218W        W11269   6.970   0.856   2.627
 7219W        W11270   0.204   7.644  10.074
 7220W        W11271   3.817   2.086  11.429
 7221W        W11272   7.017  11.465   2.324
 7222W        W11273   9.142   3.327   2.764
 7223W        W11274   4.087   1.716   9.254
 7224W        W11275   9.433   2.417   9.706
 7225W        W11276   5.219   6.751   9.156
 7226W        W11277   6.116   6.243   9.390
 7227W        W11278   0.231   6.611   0.051
 7228W        W11279   2.251   0.206   1.032
 7229W        W11280   5.513  10.262  10.764
 7230W        W11281   4.946   0.185   3.139
 7231W        W11282   2.214   1.979   3.166
 7232W        W11283   0.767  11.206  11.796
 7233W        W11284   7.991  10.960   2.898
 7234W        W11285   8.667   1.327   0.760
 7235W        W11286   0.544   9.721   0.581
 7236W        W11287   7.031   7.609   9.530
 7237W        W11288   0.113   5.269   0.083
 7238W        W11289   4.678   6.174  11.235
 7239W        W11290   3.841  10.981  11.928
 7240W        W11291   4.560   7.574  10.053
 7241W        W11292   8.348   9.849   3.623
 7242W        W11293   3.584   1.311  10.137
 7243W        W11294   2.758   9.949   2.000
 7244W        W11295   2.145   5.128  10.353
 7245W        W11296   1.783   3.575  11.450
 7246W        W11297   8.556   8.872   9.405
 7247W        W11298   6.500   7.102   1.945
 7248W        W11299   2.619   0.938   9.970
 7249W        W11300   2.674   1.836   2.638
 7250W        W11301   0.235   0.015   1.890
 7251W        W11302   4.103   3.601  10.436
 7252W        W11303   3.693   6.120   8.376
 7253W        W11304   3.298   4.760  10.070
 7254W        W11305   0.417   6.666   1.132
 7255W        W11306   0.761   3.142  11.012
 7256W        W11307   8.618   8.909  11.007
 7257W        W11308   1.727   8.991  11.804
 7258W        W11309   8.346   1.104   1.114
 7259W        W11310   2.537   5.634   8.719
 7260W        W11311   7.448   0.464   2.988
 7261W        W11312   2.716   8.837  10.057
 7262W        W11313   4.771   2.487  11.460
 7263W        W11314  10.883   2.949   2.524
 7264W        W11315   3.469  10.550   0.461
 7265W        W11316   6.229   5.511  11.751
 7266W        W11317   7.551   8.070  11.136
 7267W        W11318   8.855   8.500   0.857
 7268W        W11319   8.137   6.367   1.348
 7269W        W11320  10.001   0.307   9.186
 7270W        W11321   9.750   7.891   3.278
 7271W        W11322   5.084   8.258  11.949
 7272W        W11323   1.758   2.621   8.971
 7273W        W11324  10.358   8.877   2.756
 7274W        W11325   3.683   4.212   8.722
 7275W        W11326  10.364   2.166  11.392
 7276W        W11327   6.263  10.385   9.747
 7277W        W11328   2.328   3.836   8.630
 7278W        W11329   3.804   9.723   0.206
 7279W        W11330   4.184   0.380   2.436
 7280W        W11331  10.382   1.801   1.811
 7281W        W11332  10.961   2.586   2.131
 7282W        W11333   1.847   7.744   9.652
 7283W        W11334   0.431   0.395   1.553
 7284W        W11335   9.087   2.796  11.327
 7285W        W11336  10.842   6.157   9.234
 7286W        W11337   2.204   6.659   1.647
 7287W        W11338  10.252   7.916   3.118
 7288W        W11339  10.885   4.674  11.792
 7289W        W11340   6.770   5.822   1.262
 7290W        W11341   0.838   2.900  10.176
 7291W        W11342   2.748   9.935  10.010
 7292W        W11343  11.276   9.518   9.027
 7293W        W11344   8.947   2.536   3.325
 7294W        W11345   1.008   2.820  10.688
 7295W        W11346   7.500  11.299   2.207
 7296W        W11347   5.700   4.045   4.037
 7297W        W11348   0.901  11.344   0.518
 7298W        W11349   1.182   4.185   0.998
 7299W        W11350   8.465   0.967   9.439
 7300W        W11351  11.160   1.683   3.644
 7301W        W11352   3.701   1.285   1.910
 7302W        W11353   2.293   9.363  11.534
 7303W        W11354   7.071   2.002  11.358
 7304W        W11355   1.739   7.836   0.982
 7305W        W11356   9.100  10.833   1.308
 7306W        W11357  10.133  11.052  11.379
 7307W        W11358   1.370   4.114  11.010
 7308W        W11359   4.196   4.689   1.804
 7309W        W11360  10.518   8.430   1.851
 7310W        W11361   2.349   3.452   3.678
 7311W        W11362   6.747   1.366   3.287
 7312W        W11363   1.564  10.503   0.905
 7313W        W11364   5.456   8.403   0.841
 7314W        W11365   0.368  10.405  11.420
 7315W        W11366   4.996  11.068   2.027
 7316W        W11367   1.060   7.476   1.293
 7317W        W11368   2.044   5.166   1.252
 7318W        W11369   0.484   2.650   0.995
 7319W        W11370   5.654   4.651   2.978
 7320W        W11371   4.499   3.239   9.017
 7321W        W11372   9.880   4.211   0.908
 7322W        W11373   3.863   8.353  11.677
 7323W        W11374   4.238  10.573   1.945
 7324W        W11375   8.850   2.352  11.445
 7325W        W11376   6.221   9.233   0.294
 7326W        W11377   0.297   5.145   0.664
 7327W        W11378   5.684   2.806  10.487
 7328W        W11379   0.449  10.998  10.758
 7329W        W11380   0.473   2.143   9.891
 7330W        W11381   0.491   6.716   2.122
 7331W        W11382  10.419   1.961   9.070
 7332W        W11383   6.887   6.050  11.379
 7333W        W11384   9.048   0.315   1.387
 7334W        W11385   2.713   6.219   0.476
 7335W        W11386  11.364  10.234   0.259
 7336W        W11387   9.065   2.148   2.122
 7337W        W11388   1.175   7.913   2.365
 7338W        W11389   3.317   5.089  11.909
 7339W        W11390   6.489   4.511  10.515
 7340W        W11391   9.271   0.570   0.083
 7341W        W11392   1.763   9.061   9.252
 7342W        W11393   3.342   1.747   8.484
 7343W        W11394  10.023   0.967   0.866
 7344W        W11395   9.986   2.406   0.800
 7345W        W11396   0.693  11.241   9.541
 7346W        W11397   8.695   6.070   8.661
 7347W        W11398   7.912   4.267   9.809
 7348W        W11399   9.005  10.183  11.925
 7349W        W11400   6.952   0.835   9.731
 7350W        W11401   7.961   4.498  10.276
 7351W        W11402   9.612   2.921   8.950
 7352W        W11403  10.406   0.955   2.261
 7353W        W11404  11.333   6.149   9.463
 7354W        W11405   5.829   2.296   1.196
 7355W        W11406   6.535   0.224   2.379
 7356W        W11407   8.266   7.889   9.570
 7357W        W11408   8.055   7.159   0.001
 7358W        W11409   7.953  11.243   1.458
 7359W        W11410   2.783   4.984   0.730
 7360W        W11411   4.949   7.069   9.448
 7361W        W11412   4.684   4.763   2.023
 7362W        W11413   1.801   2.335   0.969
 7363W        W11414   0.318   5.766  10.334
 7364W        W11415   2.867   3.705   0.489
 7365W        W11416   4.993   1.778   8.782
 7366W        W11417  10.689   6.806   9.911
 7367W        W11418   2.255   0.266   0.512
 7368W        W11419   4.160   4.878  10.384
 7369W        W11420   2.013   5.405   0.791
 7370W        W11421   6.059   6.474  10.683
 7371W        W11422   8.754   9.452   0.538
 7372W        W11423   9.967   5.658   2.488
 7373W        W11424  10.344   7.448   0.675
 7374W        W11425   1.484  11.385  10.435
 7375W        W11426  10.696   9.633   0.669
 7376W        W11427   8.621   2.552   1.045
 7377W        W11428   4.287   9.965  11.169
 7378W        W11429   8.762   5.920  10.302
 7379W        W11430   8.429   3.832   0.885
 7380W        W11431   2.088   8.078   0.720
 7381W        W11432  11.181   3.568   3.282
 7382W        W11433   7.546  10.539   2.737
 7383W        W11434   9.008   8.560   2.273
 7384W        W11435   0.954   6.916   2.240
 7385W        W11436   7.621  11.329  11.640
 7386W        W11437  10.375   8.919   1.402
 7387W        W11438   3.770   7.106   1.964
 7388W        W11439   0.560   3.687   1.344
 7389W        W11440   3.536   0.735   9.941
 7390W        W11441   0.597   9.146   2.205
 7391W        W11442  11.410   8.635  10.883
 7392W        W11443   7.294   2.799   2.809
 7393W        W11444   8.723   8.383   1.499
 7394W        W11445   3.686   3.643   9.376
 7395W        W11446   4.717   5.718  11.008
 7396W        W11447   5.330   7.278   9.147
 7397W        W11448   7.416   0.560   2.488
 7398W        W11449   3.219   3.136   9.917
 7399W        W11450   9.712   0.351   3.103
 7400W        W11451   2.313   9.716   3.340
 7401W        W11452   7.815  10.596  10.597
 7402W        W11453   7.241   1.283   3.222
 7403W        W11454   1.376   0.251   1.419
 7404W        W11455   4.479   8.466   1.121
 7405W        W11456   5.737   2.817  11.547
 7406W        W11457   1.147   1.020   0.329
 7407W        W11458   6.565   8.123   1.860
 7408W        W11459   2.824   2.711   0.369
 7409W        W11460   9.492   1.947   9.527
 7410W        W11461   3.577   7.006  11.529
 7411W        W11462   0.750   6.062   9.469
 7412W        W11463  10.263   2.918  11.030
 7413W        W11464   3.577   3.189   9.107
 7414W        W11465   1.990   0.828   3.573
 7415W        W11466   5.487   7.556  11.901
 7416W        W11467  11.325   2.719   0.785
 7417W        W11468   6.540   6.650  10.226
 7418W        W11469   7.429  10.247  10.515
 7419W        W11470   6.080   5.080   1.543
 7420W        W11471   3.593   1.811  11.839
 7421W        W11472   1.824   3.606   0.383
 7422W        W11473   5.070   4.227   1.335
 7423W        W11474   3.250   4.703   2.011
 7424W        W11475   6.098   7.745   3.652
 7425W        W11476   7.558   4.488   9.512
 7426W        W11477   5.407   9.065   0.198
 7427W        W11478  10.810   5.586   1.688
 7428W        W11479   8.599   8.880   2.211
 7429W        W11480   9.313   3.639   1.338
 7430W        W11481   8.227   8.153  11.750
 7431W        W11482   2.420   7.410   1.503
 7432W        W11483   9.100   2.699   9.415
 7433W        W11484   2.338   9.996   8.998
 7434W        W11485   6.763   4.193   0.495
 7435W        W11486   8.904   1.012   0.441
 7436W        W11487   9.908  11.251   0.218
 7437W        W11488   5.929  10.649  11.424
 7438W        W11489   4.266   1.354   0.432
 7439W        W11490   9.953  10.318   9.465
 7440W        W11491   2.859   4.547   0.476
 7441W        W11492   8.635   2.575   1.547
 7442W        W11493   8.688   7.564   1.890
 7443W        W11494   3.785   8.047   3.160
 7444W        W11495   9.962   3.287   2.422
 7445W        W11496   0.388   5.027   8.878
 7446W        W11497   0.365   8.589   2.501
 7447W        W11498   9.372  10.359   1.855
 7448W        W11499  11.105   4.575   0.268
 7449W        W11500   2.146   3.244   0.174
 7450W        W11501   5.239   1.230  11.448
 7451W        W11502   9.695   2.325   3.571
 7452W        W11503   4.666  10.401  11.833
 7453W        W11504   5.639   4.801  10.555
 7454W        W11505   7.156   3.851   3.046
 7455W        W11506   4.325   4.729   9.932
 7456W        W11507   0.487   2.677   9.366
 7457W        W11508   9.615   5.698   2.870
 7458W        W11509  10.051   7.470   3.323
 7459W        W11510   2.058   8.772   8.472
 7460W        W11511   1.778   6.464   1.421
 7461W        W11512   4.034   5.927   1.175
 7462W        W11513   5.140   7.842  11.587
 7463W        W11514   2.190  11.296  10.004
 7464W        W11515   1.982   2.679  11.290
 7465W        W11516   8.597   1.590   1.842
 7466W        W11517   0.153   9.432   9.446
 7467W        W11518  10.018   6.150   0.192
 7468W        W11519   3.655   8.441  10.786
 7469W        W11520   6.349  10.732   0.330
 7470W        W11521  10.347   9.942   1.765
 7471W        W11522   7.632   0.029   1.718
 7472W        W11523   5.111   8.616  10.415
 7473W        W11524   8.155   3.885   0.369
 7474W        W11525   8.909   3.272  11.479
 7475W        W11526   7.647   5.609  11.078
 7476W        W11527   6.717   3.672  11.379
 7477W        W11528   8.147   0.400   9.407
 7478W        W11529   4.621   2.468   3.238
 7479W        W11530  10.055   6.174  10.814
 7480W        W11531   2.367   3.384   8.951
 7481W        W11532   8.463   4.994  10.011
 7482W        W11533  11.459   4.771   8.624
 7483W        W11534   8.576   8.332  10.917
 7484W        W11535   0.766   4.869   3.492
 7485W        W11536  10.191   5.828  11.482
 7486W        W11537   0.505   4.733   2.880
 7487W        W11538   0.372   8.535   3.019
 7488W        W11539   8.434  11.212   1.731
 7489W        W11540   9.007   5.052  11.190
 7490W        W11541   7.854   4.522  11.760
 7491W        W11542   7.510   6.969   3.401
 7492W        W11543   8.955   9.137   2.471
 7493W        W11544   5.112   4.029   9.029
 7494W        W11545   8.957   5.661   2.302
 7495W        W11546  11.226  10.138   1.932
 7496W        W11547   5.017  10.051  10.532
 7497W        W11548   4.659   7.001   1.581
 7498W        W11549   1.702   3.102  11.262
 7499W        W11550   0.880  10.426  10.027
 7500W        W11551   6.000   4.909   2.077
 7501W        W11552   2.267   1.154   0.026
 7502W        W11553   2.695   5.431  10.331
 7503W        W11554  10.985  10.103   3.154
 7504W        W11555   7.181   8.386   3.353
 7505W        W11556  11.498   0.281   0.501
 7506W        W11557   6.390   0.210   9.271
 7507W        W11558   3.757   2.648   1.602
 7508W        W11559   6.960   7.987   3.085
 7509W        W11560   9.856   1.028   8.640
 7510W        W11561   5.244   3.596  11.500
 7511W        W11562   6.429   0.991   1.357
 7512W        W11563   1.997   5.094   2.134
 7513W        W11564   4.466   6.524   1.605
 7514W        W11565   0.877   2.103   3.296
 7515W        W11566   2.800   6.437   9.241
 7516W        W11567   5.023   1.239  11.944
 7517W        W11568   6.918   5.683  11.743
 7518W        W11569   9.984   1.359   9.528
 7519W        W11570   0.823   2.385   2.184
 7520W        W11571   6.497   8.130   3.307
 7521W        W11572   5.037   3.458   3.976
 7522W        W11573   8.323   2.981  10.861
 7523W        W11574   9.417   7.638   0.489
 7524W        W11575   7.476  10.838   3.153
 7525W        W11576   6.451   6.108   1.524
 7526W        W11577   6.099   0.688  11.774
 7527W        W11578   8.127   3.287   0.446
 7528W        W11579   8.541   6.581   2.697
 7529W        W11580  11.323   2.305   1.851
 7530W        W11581   9.087   5.217   0.678
 7531W        W11582   5.526  10.954  11.496
 7532W        W11583   0.249   8.559   0.040
 7533W        W11584   9.528   8.658   0.299
 7534W        W11585   6.450   5.944   9.110
 7535W        W11586   5.274   7.465   8.671
 7536W        W11587   4.234   6.219  10.249
 7537W        W11588   5.133   3.104   3.598
 7538W        W11589   8.275   3.699   1.361
 7539W        W11590   8.381   9.732   2.123
 7540W        W11591   6.196  10.849  11.828
 7541W        W11592   4.291   9.116   0.333
 7542W        W11593   1.277  11.434   1.803
 7543W        W11594   1.729   3.214   8.632
 7544W        W11595   3.743   9.264   1.912
 7545W        W11596   3.121   4.070  10.290
 7546W        W11597   2.637   8.995   9.055
 7547W        W11598   4.102  11.372   9.413
 7548W        W11599   6.380  10.081  11.412
 7549W        W11600   4.682   0.108   2.364
 7550W        W11601   1.280   7.037   2.920
 7551W        W11602   7.644   9.559   1.980
 7552W        W11603   7.384  10.769  10.392
 7553W        W11604  10.368   0.452   2.363
 7554W        W11605   0.034   4.649   2.669
 7555W        W11606   5.420   6.019  11.667
 7556W        W11607   7.356   1.668   9.587
 7557W        W11608   8.166   3.285   1.096
 7558W        W11609   6.138   1.341   1.668
 7559W        W11610   5.277   0.927   0.731
 7560W        W11611   2.557   7.029   9.456
 7561W        W11612   2.978   5.834   3.133
 7562W        W11613   2.666  10.686  10.435
 7563W        W11614   6.251   2.855   9.470
 7564W        W11615   0.472   6.179   0.274
 7565W        W11616   5.014   8.366   9.990
 7566W        W11617   5.788   9.547   0.218
 7567W        W11618   7.914   7.659  10.862
 7568W        W11619   2.588   4.227   8.912
 7569W        W11620   8.605  11.302   0.674
 7570W        W11621   3.101   5.880   0.401
 7571W        W11622   2.502  10.376   2.056
 7572W        W11623   9.971   4.183  11.536
 7573W        W11624   6.721   8.577   3.162
 7574W        W11625  11.263   1.735  10.289
 7575W        W11626   0.840  11.039   2.400
 7576W        W11627   6.987  10.944  10.122
 7577W        W11628   6.638   4.276  10.083
 7578W        W11629  10.253   4.597  10.407
 7579W        W11630   8.144   4.806   2.682
 7580W        W11631   1.288   7.535   2.690
 7581W        W11632   9.849   4.282  10.588
 7582W        W11633   2.823   3.719  10.973
 7583W        W11634   0.484   5.061   1.148
 7584W        W11635   9.032   6.854  10.446
 7585W        W11636   8.986   3.202   9.563
 7586W        W11637   9.304   4.095  11.992
 7587W        W11638  11.256   4.234  11.685
 7588W        W11639   5.030   3.799   9.608
 7589W        W11640   4.047   2.059   0.869
 7590W        W11641   8.965   7.864   0.343
 7591W        W11642   3.452   5.235  10.881
 7592W        W11643   7.415   3.246   0.402
 7593W        W11644   2.228   7.667   1.919
 7594W        W11645   3.907   1.719   0.440
 7595W        W11646   4.224   6.693  10.853
 7596W        W11647   3.597   6.585   1.728
 7597W        W11648  10.620   9.568   2.340
 7598W        W11649   9.607   6.440  11.664
 7599W        W11650   6.143   4.427   3.168
 7600W        W11651   9.446   7.018   2.787
 7601W        W11652   0.368  10.211   0.446
 7602W        W11653   2.291   7.952   0.277
 7603W        W11654   9.133   6.857   8.608
 7604W        W11655  10.759   1.990  10.976
 7605W        W11656   2.796   3.292  11.287
 7606W        W11657   6.005  10.440   3.169
 7607W        W11658   2.266   8.059   2.917
 7608W        W11659   1.289   1.811   2.793
 7609W        W11660   2.877   5.976   9.033
 7610W        W11661  10.964   3.552   0.430
 7611W        W11662   9.521   4.797   2.763
 7612W        W11663  10.914   4.249   8.473
 7613W        W11664   2.705  11.353  10.788
 7614W        W11665   4.714   8.452   9.579
 7615W        W11666   1.673   6.747  11.486
 7616W        W11667   9.793   5.670   3.370
 7617W        W11668   6.648   2.890   0.185
 7618W        W11669   7.392   4.564   0.004
 7619W        W11670  10.104   3.554  10.398
 7620W        W11671   6.102  10.874   1.436
 7621W        W11672   8.836   5.080   9.317
 7622W        W11673   9.948   0.745   2.210
 7623W        W11674  11.227   9.906  11.871
 7624W        W11675   7.695   3.208   2.485
 7625W        W11676   8.888   8.016   1.806
 7626W        W11677   8.232   8.609   9.068
 7627W        W11678   6.901  10.213   0.979
 7628W        W11679  10.291   4.152  11.925
 7629W        W11680   3.415   2.859  11.072
 7630W        W11681  11.007   9.981   9.010
 7631W        W11682   3.679  11.268   9.083
 7632W        W11683   8.511   5.072  11.375
 7633W        W11684   3.353   7.520   1.539
 7634W        W11685   5.056   8.685   2.441
 7635W        W11686   9.268   9.620   9.461
 7636W        W11687   2.484   9.115  10.887
 7637W        W11688   4.275   4.836  11.251
 7638W        W11689  11.337   7.197   3.608
 7639W        W11690   2.848   2.165   9.006
 7640W        W11691   0.288   0.348  11.267
 7641W        W11692  11.285   3.383   9.572
 7642W        W11693   5.598   2.356   8.719
 7643W        W11694  10.341   7.556  10.735
 7644W        W11695   1.304  10.933   1.801
 7645W        W11696   7.628   3.600   9.428
 7646W        W11697  11.004  10.556   3.458
 7647W        W11698   5.910   0.953   1.368
 7648W        W11699  11.317   9.865  10.418
 7649W        W11700   5.150   4.059   2.738
 7650W        W11701   6.575   0.680   0.917
 7651W        W11702   9.299   0.270  10.842
 7652W        W11703   6.116   1.881   1.291
 7653W        W11704   3.320   4.503   2.931
 7654W        W11705   7.613   7.588  11.340
 7655W        W11706  10.713  10.894   9.448
 7656W        W11707   4.376   9.067   9.771
 7657W        W11708   5.402   3.234  10.272
 7658W        W11709   4.377   1.810   1.233
 7659W        W11710  11.336   1.902   0.695
 7660W        W11711   1.265   8.888   3.293
 7661W        W11712   8.821   4.625  10.000
 7662W        W11713   0.506   7.925   0.241
 7663W        W11714   7.635   5.846   1.319
 7664W        W11715   5.156   7.582   2.728
 7665W        W11716   3.835   7.934   0.003
 7666W        W11717   3.150   4.978  10.517
 7667W        W11718   4.676   3.534   1.872
 7668W        W11719   0.130   3.584   3.567
 7669W        W11720   5.387   4.146   1.716
 7670W        W11721   5.681   7.603   0.385
 7671W        W11722   7.049  10.898   9.547
 7672W        W11723   1.628   8.505  11.906
 7673W        W11724  10.434   8.641   8.460
 7674W        W11725   8.355   5.053   9.520
 7675W        W11726   7.183   6.091  11.856
 7676W        W11727   6.182   4.427   2.201
 7677W        W11728   6.964   3.256  11.560
 7678W        W11729   0.486   0.261   9.619
 7679W        W11730   8.100   4.968   8.248
 7680W        W11731   3.207   7.606  11.585
 7681W        W11732   4.985   0.757  10.263
 7682W        W11733   1.806   5.663  10.334
 7683W        W11734   8.911   5.057   8.815
 7684W        W11735  11.417  11.003   2.824
 7685W        W11736   4.407   8.118   2.657
 7686W        W11737   1.403   3.813   0.691
 7687W        W11738   7.879  10.760  11.077
 7688W        W11739   5.516   5.147   3.072
 7689W        W11740   1.371   7.154   8.953
 7690W        W11741   9.853   6.047   9.402
 7691W        W11742   7.349   4.359   8.739
 7692W        W11743   5.575   3.114   8.409
 7693W        W11744   0.866   2.494   3.701
 7694W        W11745   5.009   1.509   3.485
 7695W        W11746   6.549   4.066   2.257
 7696W        W11747   8.343   2.932   0.784
 7697W        W11748   3.165   9.428   3.150
 7698W        W11749   8.641   4.888   2.992
 7699W        W11750   4.096   3.712   2.688
 7700W        W11751  11.090  10.568  10.295
 7701W        W11752   8.188   9.808  10.930
 7702W        W11753   2.437  10.421   0.387
 7703W        W11754   7.936   8.951   0.112
 7704W        W11755   4.075   3.730   9.706
 7705W        W11756   1.165   7.432  10.344
 7706W        W11757   2.642   0.543   1.186
 7707W        W11758   9.960   4.989  11.252
 7708W        W11759   6.119  11.327   9.996
 7709W        W11760   7.458   2.221   9.621
 7710W        W11761   7.180   0.664   1.731
 7711W        W11762  11.455  11.060  11.105
 7712W        W11763   5.649   0.057   2.733
 7713W        W11764   5.176   5.043   1.534
 7714W        W11765   6.068   2.642  12.000
 7715W        W11766   0.534  11.493  10.529
 7716W        W11767   3.124   0.767  10.536
 7717W        W11768   7.089  10.678   1.191
 7718W        W11769   4.286   4.070  11.668
 7719W        W11770  11.464   9.380   9.936
 7720W        W11771   0.232   8.394   0.585
 7721W        W11772   2.386   2.957   0.541
 7722W        W11773   4.785   2.405  10.546
 7723W        W11774   0.398   4.332   2.217
 7724W        W11775   7.052   8.039   2.545
 7725W        W11776   5.724  10.075   2.956
 7726W        W11777   6.507   1.612   9.419
 7727W        W11778   1.439  10.790   9.838
 7728W        W11779   1.221   2.141   2.401
 7729W        W11780   0.984   6.254   9.929
 7730W        W11781  10.898   3.850  11.455
 7731W        W11782   4.752   8.784   3.242
 7732W        W11783   6.439   2.263   3.612
 7733W        W11784  10.651   1.233   0.931
 7734W        W11785   6.445   3.142   0.789
 7735W        W11786   5.576   7.309   9.973
 7736W        W11787   4.149   8.679   0.013
 7737W        W11788   2.208  10.484  10.531
 7738W        W11789  10.525   3.127   1.154
 7739W        W11790   1.097   2.712  11.870
 7740W        W11791  10.283   5.553   3.460
 7741W        W11792   5.171   5.634  10.059
 7742W        W11793   9.864   3.132  10.102
 7743W        W11794   5.248   2.094   9.068
 7744W        W11795   0.116   0.958   9.129
 7745W        W11796  10.019   6.466   9.059
 7746W        W11797  11.368   6.660   9.368
 7747W        W11798   2.564   4.548   3.399
 7748W        W11799   9.912   0.676   1.285
 7749W        W11800   6.929   7.916   8.925
 7750W        W11801   2.673   3.843   3.519
 7751W        W11802   2.020   9.311   0.787
 7752W        W11803   0.171   4.330  10.255
 7753W        W11804   0.608  11.262   3.140
 7754W        W11805   0.752   2.575   3.189
 7755W        W11806   5.290   0.862   1.955
 7756W        W11807   8.078  10.506   3.086
 7757W        W11808   5.165   7.542   1.796
 7758W        W11809  10.375  10.879  10.055
 7759W        W11810   1.804   0.195   0.208
 7760W        W11811   5.023   7.354  11.839
 7761W        W11812  10.849   9.266   8.389
 7762W        W11813   1.287   4.783   1.714
 7763W        W11814   8.337   4.503   9.938
 7764W        W11815   1.846   5.364  11.946
 7765W        W11816  11.004   5.533   2.690
 7766W        W11817   8.562  11.323  10.710
 7767W        W11818   2.253   0.432   2.449
 7768W        W11819   9.868   8.477  10.825
 7769W        W11820   8.331   7.652   0.903
 7770W        W11821   5.529   9.205   1.873
 7771W        W11822  10.237   6.043   1.692
 7772W        W11823   9.770   8.855  10.331
 7773W        W11824   0.429   3.592  10.599
 7774W        W11825   0.355   6.565   0.584
 7775W        W11826   5.521   0.382   2.352
 7776W        W11827  10.857   7.307   9.872
 7777W        W11828   4.474   2.830   2.409
 7778W        W11829   2.255   6.551   0.641
 7779W        W11830   5.832   8.048  10.244
 7780W        W11831   1.960   3.226   1.444
 7781W        W11832   6.918   2.093   3.542
 7782W        W11833   3.106   1.795   1.735
 7783W        W11834   6.490   3.505   3.703
 7784W        W11835   1.700   8.416  10.971
 7785W        W11836   4.060   5.697  11.333
 7786W        W11837   2.122   1.369   2.409
 7787W        W11838   8.255   1.434   9.524
 7788W        W11839  11.081   9.036  10.043
 7789W        W11840  10.638  10.436  10.113
 7790W        W11841  10.964   3.801   9.318
 7791W        W11842  11.404   3.609   9.124
 7792W        W11843   2.785   7.349   0.756
 7793W        W11844   7.455   8.104   2.988
 7794W        W11845   3.258  11.119   3.121
 7795W        W11846   0.415   7.049   0.788
 7796W        W11847   0.882   0.301   0.789
 7797W        W11848   9.649  10.359   9.862
 7798W        W11849   8.654   3.527   2.615
 7799W        W11850   0.485   8.354  10.486
 7800W        W11851   5.642   9.156  11.244
 7801W        W11852   3.115   1.647  11.812
 7802W        W11853   9.688  10.081   0.423
 7803W        W11854   3.507   6.691  10.324
 7804W        W11855   6.911   4.081   8.931
 7805W        W11856   1.333   5.473   0.052
 7806W        W11857   5.856   0.277  11.585
 7807W        W11858   9.563  10.772   1.555
 7808W        W11859   5.232   2.741   9.473
 7809W        W11860   8.468   8.537  10.068
 7810W        W11861   7.752   4.862   3.563
 7811W        W11862   1.371   2.831   1.431
 7812W        W11863  10.632  11.049  11.433
 7813W        W11864  10.291  11.472   8.861
 7814W        W11865   8.015   7.405   9.547
 7815W        W11866  11.296   1.821   0.183
 7816W        W11867   8.022   5.499   1.255
 7817W        W11868   9.595   7.439   3.037
 7818W        W11869   5.485  11.157   0.808
 7819W        W11870   7.428   4.780  11.545
 7820W        W11871   7.643   2.864  11.326
 7821W        W11872   3.924   8.934   3.709
 7822W        W11873   4.747   2.887   9.592
 7823W        W11874   8.966   3.782   0.217
 7824W        W11875   0.845   4.777  11.954
 7825W        W11876   6.233   1.292   3.227
 7826W        W11877  10.528   2.292   0.780
 7827W        W11878  10.117  10.481   3.187
 7828W        W11879   0.695  11.302  10.052
 7829W        W11880   4.772   4.180   2.437
 7830W        W11881  10.304   9.326   0.468
 7831W        W11882   8.076   6.330   3.701
 7832W        W11883   6.771   9.117   2.908
 7833W        W11884   1.473  11.252   1.353
 7834W        W11885   5.328   5.178  10.699
 7835W        W11886   0.005   1.249   2.348
 7836W        W11887   8.504   7.689  10.280
 7837W        W11888   3.376   3.783  11.054
 7838W        W11889   0.610   5.449   8.644
 7839W        W11890   6.826   9.878   2.753
 7840W        W11891   0.635   8.083  10.895
 7841W        W11892   5.928   6.086   1.380
 7842W        W11893   8.589   4.058   8.737
 7843W        W11894   9.631   9.871   2.215
 7844W        W11895   8.663   5.476  10.076
 7845W        W11896   9.111   2.788  10.831
 7846W        W11897   8.051   5.370  10.788
 7847W        W11898  10.392   2.453   9.173
 7848W        W11899   2.688   1.999   9.763
 7849W        W11900   1.107   1.408  11.556
 7850W        W11901   3.607  10.750   8.995
 7851W        W11902   6.359   0.318   1.859
 7852W        W11903   7.084  10.408  10.872
 7853W        W11904   0.756   2.309  11.808
 7854W        W11905   7.952   6.913   0.433
 7855W        W11906  10.012   0.481   0.737
 7856W        W11907   7.046   7.009   3.162
 7857W        W11908   0.358   6.497  10.965
 7858W        W11909   4.052   6.718   8.974
 7859W        W11910   3.356   0.389   8.902
 7860W        W11911   8.164   5.606   3.191
 7861W        W11912   0.018   7.906   0.441
 7862W        W11913   2.302   3.310   9.968
 7863W        W11914   7.476   0.758   9.736
 7864W        W11915   9.153   1.226   1.662
 7865W        W11916  11.345   2.136  11.161
 7866W        W11917   5.653   6.527  11.031
 7867W        W11918   4.937   6.771  11.770
 7868W        W11919   5.624   9.016   1.418
 7869W        W11920   6.993   8.334  11.265
 7870W        W11921   0.573   4.067  10.399
 7871W        W11922   2.601   4.689   9.928
 7872W        W11923   8.548   1.138   3.607
 7873W        W11924   3.721   8.868  10.503
 7874W        W11925   9.027   0.295  10.027
 7875W        W11926   5.874   2.186   0.267
 7876W        W11927   2.491   6.561  10.476
 7877W        W11928   5.866   0.085  10.441
 7878W        W11929   0.326   9.885   9.660
 7879W        W11930   0.854   2.306   8.966
 7880W        W11931  11.468   3.624  10.902
 7881W        W11932   5.649   2.420   2.185
 7882W        W11933   5.959   3.159  10.763
 7883W        W11934   9.411  10.154  11.558
 7884W        W11935   9.910   8.245  11.303
 7885W        W11936   0.396   0.773   9.518
 7886W        W11937   4.671   9.041   2.270
 7887W        W11938   2.301   3.768  10.766
 7888W        W11939   7.749   1.034  10.496
 7889W        W11940  10.893  10.485  10.904
 7890W        W11941   0.192   9.972   1.775
 7891W        W11942   7.939   5.994   0.499
 7892W        W11943   3.087  10.496   9.075
 7893W        W11944  10.157   3.274   0.841
 7894W        W11945   3.327  10.980   9.394
 7895W        W11946   4.501   1.895   9.622
 7896W        W11947  10.962   5.900  10.769
 7897W        W11948   5.347   8.521   3.590
 7898W        W11949   0.490   2.704  11.057
 7899W        W11950   5.581   2.856   8.869
 7900W        W11951  10.232   0.829  11.603
 7901W        W11952  10.547   1.483   8.915
 7902W        W11953   8.187   5.083   1.875
 7903W        W11954   6.008   8.099  11.474
 7904W        W11955   7.589   9.405  10.005
 7905W        W11956   6.710   3.129   1.950
 7906W        W11957  10.706   3.589   3.495
 7907W        W11958   9.624   1.970  10.040
 7908W        W11959   8.893   0.015  11.025
 7909W        W11960   9.568   3.121   2.990
 7910W        W11961   4.143   9.568   8.538
 7911W        W11962   4.351   1.810   0.206
 7912W        W11963  10.418  11.073  10.534
 7913W        W11964   7.663   7.674   2.779
 7914W        W11965   6.347   6.114  11.471
 7915W        W11966   7.636   7.046   9.693
 7916W        W11967   3.572   6.611   1.217
 7917W        W11968  10.975   7.643   9.503
 7918W        W11969   8.611   2.807  11.533
 7919W        W11970   8.875  11.284   9.103
 7920W        W11971  10.287   4.594  11.365
 7921W        W11972   5.349   3.224   3.135
 7922W        W11973   8.909  11.381   1.721
 7923W        W11974   4.053   6.834   1.631
 7924W        W11975   9.800   6.183  11.260
 7925W        W11976   4.123   1.118   3.163
 7926W        W11977   4.092   9.104  11.740
 7927W        W11978   3.773   9.745   0.716
 7928W        W11979  10.999   2.390   9.719
 7929W        W11980   9.272   8.504   8.981
 7930W        W11981  10.042   7.161  11.528
 7931W        W11982   5.274   9.853  10.955
 7932W        W11983   2.640   4.915   0.218
 7933W        W11984   9.528  10.323  10.732
 7934W        W11985   6.574   7.201   4.034
 7935W        W11986   5.921   8.370  10.878
 7936W        W11987   1.316   4.223   3.193
 7937W        W11988   1.717   0.709   2.532
 7938W        W11989   8.660   1.201  10.290
 7939W        W11990   4.277   6.029   2.173
 7940W        W11991   3.302   9.582  10.589
 7941W        W11992  10.992   4.301   1.991
 7942W        W11993   8.940   0.848   3.433
 7943W        W11994   9.707   5.143   9.112
 7944W        W11995   6.704   1.797   1.933
 7945W        W11996   9.144   1.224   2.679
 7946W        W11997   2.777   8.070   0.367
 7947W        W11998   1.283   7.151   0.907
 7948W        W11999   4.944  10.739   8.541
 7949W        W12000  11.292   5.705   0.222
 7950W        W12001   1.279   2.232  11.714
 7951W        W12002   5.285   8.056   8.180
 7952W        W12003   5.772   9.098   2.828
 7953W        W12004   9.327   7.244  11.217
 7954W        W12005   3.509   4.577   9.529
 7955W        W12006  10.986   5.336   9.381
 7956W        W12007  11.351   6.824   8.879
 7957W        W12008   9.159  10.880  11.281
 7958W        W12009  10.575  10.938   0.865
 7959W        W12010  10.560   6.311   9.911
 7960W        W12011  10.422   8.851   0.587
 7961W        W12012   6.600   7.684   3.563
 7962W        W12013   5.035  10.970   1.014
 7963W        W12014   2.278   4.194   0.983
 7964W        W12015   8.140   3.297   2.150
 7965W        W12016  10.137   2.377  11.806
 7966W        W12017   9.091   1.245  10.564
 7967W        W12018   9.021   0.285   9.103
 7968W        W12019   4.696   7.480   2.493
 7969W        W12020   3.360  10.716   2.747
 7970W        W12021   7.551   1.901   1.509
 7971W        W12022   5.758  11.365  11.295
 7972W        W12023   5.642   2.299  10.246
 7973W        W12024   9.891   7.010  10.516
 7974W        W12025   5.920   3.271   9.404
 7975W        W12026   8.874   7.553   2.411
 7976W        W12027   9.402   7.168   1.310
 7977W        W12028   2.209   0.512   2.949
 7978W        W12029   2.815   1.561   1.323
 7979W        W12030   2.332   4.731   9.429
 7980W        W12031   9.185   8.288   9.416
 7981W        W12032   4.118   4.306   3.141
 7982W        W12033   9.546  11.332  10.755
 7983W        W12034   7.964   4.879   9.887
 7984W        W12035   1.274   6.483  10.762
 7985W        W12036   7.902   4.779   0.189
 7986W        W12037   2.041   7.097   1.351
 7987W        W12038   1.024   2.469  10.312
 7988W        W12039   0.830   0.891   2.692
 7989W        W12040   6.126   1.979   0.751
 7990W        W12041   2.737   6.110   2.300
 7991W        W12042  10.475   5.686   2.390
 7992W        W12043   9.930  10.429   0.728
 7993W        W12044   7.468   8.560  11.333
 7994W        W12045   4.470   2.508   1.962
 7995W        W12046  11.219   0.007   1.755
 7996W        W12047   9.562   0.988   9.088
 7997W        W12048   8.895   0.425   0.894
 7998W        W12049   1.370   6.129   1.443
 7999W        W12050   2.259   9.009   9.438
 8000W        W12051  10.510   8.105   0.967
 8001W        W12052   9.404  11.369   0.211
 8002W        W12053   6.591  10.434   1.979
 8003W        W12054   0.368   4.000  11.396
 8004W        W12055  10.276   5.478   7.962
 8005W        W12056  11.330   0.626   9.386
 8006W        W12057   1.807   7.201  11.286
 8007W        W12058   8.695   5.137   1.795
 8008W        W12059  10.054   5.536  10.158
 8009W        W12060   2.225   5.652   1.699
 8010W        W12061   4.164   4.541   4.028
 8011W        W12062   0.730   9.877   1.772
 8012W        W12063   9.323   6.728   1.556
 8013W        W12064   8.148   4.337  10.962
 8014W        W12065   6.007   5.354   3.074
 8015W        W12066   9.854   8.969   1.384
 8016W        W12067  10.118   0.807  11.073
 8017W        W12068   2.397   6.142   9.971
 8018W        W12069   6.074  10.301  11.762
 8019W        W12070   7.661   7.104  10.206
 8020W        W12071   9.406   0.856   3.020
 8021W        W12072   6.429   2.421   9.755
 8022W        W12073   7.634  10.379   2.178
 8023W        W12074   9.063   8.789   9.368
 8024W        W12075   8.628   3.353   0.848
 8025W        W12076   3.585   6.047  11.159
 8026W        W12077   7.041   2.769   3.251
 8027W        W12078   7.907   9.409   1.315
 8028W        W12079   0.343  10.010   2.732
 8029W        W12080   8.206  10.364   3.561
 8030W        W12081   1.808   1.159  10.842
 8031W        W12082   1.784   0.852  10.417
 8032W        W12083   5.129   4.450   8.731
 8033W        W12084   8.841  10.359   2.718
 8034W        W12085   0.856   6.233   3.421
 8035W        W12086   7.479   8.827  11.875
 8036W        W12087   5.985   2.033   3.684
 8037W        W12088   4.252  10.042   9.777
 8038W        W12089  11.322   0.769   0.473
 8039W        W12090   1.814   5.990   1.682
 8040W        W12091   6.386   2.868  10.778
 8041W        W12092   1.731   0.965   1.049
 8042W        W12093   0.352   7.211  10.295
 8043W        W12094   0.839   9.903   2.564
 8044W        W12095   8.416   5.526   0.273
 8045W        W12096   0.794   5.080   0.738
 8046W        W12097   6.401  10.337   2.843
 8047W        W12098   1.730   5.012   3.602
 8048W        W12099  11.128   2.628   3.561
 8049W        W12100   7.881   4.104  10.591
 8050W        W12101   9.347   5.299   8.620
 8051W        W12102   1.162   4.031   8.964
 8052W        W12103   9.460   5.626   2.360
 8053W        W12104   6.070  11.344  11.714
 8054W        W12105   0.869   6.854   0.935
 8055W        W12106   6.051   1.188  11.752
 8056W        W12107   8.193   1.422  10.437
 8057W        W12108   4.761   1.493   0.450
 8058W        W12109   3.702   2.142  10.585
 8059W        W12110   6.991   3.157   1.480
 8060W        W12111  11.022   2.314   3.123
 8061W        W12112   1.324   0.317  11.714
 8062W        W12113   0.869   4.264   0.139
 8063W        W12114   7.512   3.106   9.974
 8064W        W12115   9.850   7.195   9.463
 8065W        W12116  10.551   3.310  10.444
 8066W        W12117   0.825   7.504   0.299
 8067W        W12118   6.868   0.269   1.807
 8068W        W12119  11.055   8.101   2.189
 8069W        W12120   4.846   4.637   9.904
 8070W        W12121   4.314   1.289  11.497
 8071W        W12122  10.450   1.853  10.068
 8072W        W12123   1.177   7.049   3.460
 8073W        W12124   9.855   4.710  11.685
 8074W        W12125   3.130  10.507  11.636
 8075W        W12126   0.048   3.821  11.842
 8076W        W12127   3.811   6.633   3.831
 8077W        W12128   8.606   4.619   0.489
 8078W        W12129   1.893   1.779  11.481
 8079W        W12130   0.005  11.250   0.500
 8080W        W12131   1.236   3.250  10.874
 8081W        W12132   7.920   0.738  11.942
 8082W        W12133   9.600   7.671   9.462
 8083W        W12134   9.257   4.329   2.076
 8084W        W12135   6.095   1.295   9.504
 8085W        W12136   8.749   7.111   0.758
 8086W        W12137   4.938   1.220  11.025
 8087W        W12138   8.229   4.316   9.041
 8088W        W12139   8.873   0.326  10.544
 8089W        W12140   1.937  10.372  10.031
 8090W        W12141   5.487  10.541  11.196
 8091W        W12142   9.004   7.352   0.383
 8092W        W12143   8.262   9.543   0.519
 8093W        W12144   8.954   1.670  10.296
 8094W        W12145   0.398   5.110  11.232
 8095W        W12146   6.637  10.762   2.715
 8096W        W12147   6.010   5.488   0.222
 8097W        W12148   2.314   1.450   1.459
 8098W        W12149   0.786   2.777   0.290
 8099W        W12150   5.939   3.674   9.784
 8100W        W12151   3.591   5.073   2.767
 8101W        W12152   9.494   2.433   9.200
 8102W        W12153  11.382   7.133   2.636
 8103W        W12154   7.541   0.089  10.765
 8104W        W12155   0.296   1.764   2.785
 8105W        W12156   8.915   1.661   3.417
 8106W        W12157   7.039   1.167   1.669
 8107W        W12158   8.298   6.201   2.423
 8108W        W12159   6.954   8.563   0.060
 8109W        W12160  10.480  10.564  10.576
 8110W        W12161   9.147  10.332   9.900
 8111W        W12162   1.525   5.115   1.205
 8112W        W12163   6.856   5.923  10.881
 8113W        W12164   6.908   4.190  10.496
 8114W        W12165   1.863   2.656  10.401
 8115W        W12166   4.643   2.696  10.148
 8116W        W12167   6.495  10.007  10.494
 8117W        W12168   2.463   0.341   9.944
 8118W        W12169   3.769  10.304   3.400
 8119W        W12170   3.046   9.295   0.765
 8120W        W12171  11.115   0.745  10.464
 8121W        W12172   0.451   5.297   1.970
 8122W        W12173   3.583   5.764  10.303
 8123W        W12174   1.704   5.563   3.547
 8124W        W12175   5.226   2.122  10.567
 8125W        W12176   0.216   8.976  11.139
 8126W        W12177   8.120   7.370  10.428
 8127W        W12178   5.828   0.030   1.796
 8128W        W12179   5.965   0.785   9.817
 8129W        W12180   2.360   1.198  10.836
 8130W        W12181   1.730   3.865  11.878
 8131W        W12182   4.615   9.933   0.520
 8132W        W12183   9.402   3.302  10.272
 8133W        W12184   3.665   6.104   1.500
 8134W        W12185   2.920  11.056   0.571
 8135W        W12186   2.693   7.453  10.714
 8136W        W12187   6.051   1.768   3.239
 8137W        W12188   6.138   1.827   8.590
 8138W        W12189   2.043  10.463   2.351
 8139W        W12190   9.341  10.006   3.415
 8140W        W12191  10.490   9.885   9.093
 8141W        W12192   5.682   2.357  11.795
 8142W        W12193   6.771  10.385   0.206
 8143W        W12194   3.061   4.269   3.314
 8144W        W12195  10.006  11.014   1.782
 8145W        W12196   7.339   0.271   2.038
 8146W        W12197   7.769   6.232  11.042
 8147W        W12198   4.272   8.168  11.884
 8148W        W12199   6.396  11.268   9.555
 8149W        W12200   3.178   5.585   9.988
 8150W        W12201   5.363  10.335   9.241
 8151W        W12202   5.758   8.002   0.675
 8152W        W12203   0.619   6.632  10.024
 8153W        W12204   2.785   7.568   8.830
 8154W        W12205   2.105  10.482  11.571
 8155W        W12206   1.531   2.239   9.705
 8156W        W12207   1.455   3.839  10.199
 8157W        W12208   3.766   4.944   9.866
 8158W        W12209   7.995   3.550  12.000
 8159W        W12210   5.438  11.084   2.623
 8160W        W12211   7.914   6.737  11.026
 8161W        W12212   6.640  11.314   9.990
 8162W        W12213   8.381   6.221   1.912
 8163W        W12214  10.451   3.009   8.550
 8164W        W12215  10.802   5.782   9.580
 8165W        W12216  10.415   3.112   1.666
 8166W        W12217   7.762   3.160   0.785
 8167W        W12218   5.160   7.007   0.781
 8168W        W12219   0.435   9.795   9.171
 8169W        W12220   5.092   0.336   2.661
 8170W        W12221   1.777   1.841   3.555
 8171W        W12222   6.046   4.772  11.245
 8172W        W12223   3.735   9.323  10.738
 8173W        W12224   1.245   4.970  11.237
 8174W        W12225   9.920  11.201   2.257
 8175W        W12226   5.329  10.815   9.505
 8176W        W12227   9.881   9.946   0.884
 8177W        W12228   7.593  11.026   1.787
 8178W        W12229   3.796   0.868   2.209
 8179W        W12230   4.135   9.580   1.745
 8180W        W12231   4.097  10.488   8.848
 8181W        W12232   5.838  11.311   1.299
 8182W        W12233  10.117   0.859   1.726
 8183W        W12234   1.045   0.036   0.072
 8184W        W12235  11.463  10.411   0.705
 8185W        W12236   2.332   5.427  11.548
 8186W        W12237  10.414   9.956  10.120
 8187W        W12238   0.974  10.885  10.791
 8188W        W12239  10.446   8.657   9.629
 8189W        W12240   4.282   3.159   1.235
 8190W        W12241   9.067   6.050  10.895
 8191W        W12242   9.398   4.840   8.820
 8192W        W12243  11.001   7.802   9.988
 8193W        W12244   8.963   4.120   8.380
 8194W        W12245   1.317   6.602   1.651
 8195W        W12246   6.038   8.369   9.878
 8196W        W12247   9.121   4.651   9.603
 8197W        W12248   8.177   2.783   9.473
 8198W        W12249   7.732   3.003   1.279
 8199W        W12250   3.315   1.425   1.460
 8200W        W12251   6.999   9.183   9.580
 8201W        W12252   0.811   9.068   8.686
 8202W        W12253   6.156   8.712   0.381
 8203W        W12254   1.480  10.954  10.741
 8204W        W12255   1.791   3.737   2.101
 8205W        W12256   4.855   3.329   3.193
 8206W        W12257  11.467   9.336   2.294
 8207W        W12258   2.668  11.474   0.713
 8208W        W12259   1.428   8.054   0.579
 8209W        W12260   6.853   3.520   2.731
 8210W        W12261   5.660   2.225   0.735
 8211W        W12262   9.802   4.270   9.541
 8212W        W12263   3.312   6.269  11.551
 8213W        W12264   4.002   2.262  10.969
 8214W        W12265   9.370   3.614   0.498
 8215W        W12266   7.489   7.124  11.123
 8216W        W12267   2.158   9.358   2.474
 8217W        W12268   2.942   7.986   8.528
 8218W        W12269   6.664   5.293  11.566
 8219W        W12270  10.913   8.987  11.512
 8220W        W12271   2.681   3.718   2.560
 8221W        W12272   5.038   9.309   1.033
 8222W        W12273   4.550   6.395   8.302
 8223W        W12274  10.107   3.265  11.391
 8224W        W12275   7.919   2.660   0.800
 8225W        W12276   9.428   9.685  11.337
 8226W        W12277  10.425   1.922   0.246
 8227W        W12278   9.647   3.769  10.376
 8228W        W12279   8.400   3.246  11.390
 8229W        W12280  10.874   1.843   1.333
 8230W        W12281   2.522   6.165  11.917
 8231W        W12282   4.263   8.783   2.101
 8232W        W12283   0.369   4.558   1.207
 8233W        W12284   0.720   7.661  11.815
 8234W        W12285   4.541   0.256   2.830
 8235W        W12286   9.074   5.914   1.413
 8236W        W12287   0.470  10.343   3.214
 8237W        W12288   0.728   2.825   8.926
 8238W        W12289   9.124   0.752   8.884
 8239W        W12290   5.327   8.416   2.107
 8240W        W12291  10.300   2.717   1.963
 8241W        W12292  10.480  10.581   0.066
 8242W        W12293   4.971   6.706   8.701
 8243W        W12294   1.263   9.298  10.558
 8244W        W12295   2.641   6.064   2.801
 8245W        W12296   6.357   4.078   1.802
 8246W        W12297   1.654   0.363  10.432
 8247W        W12298   9.598   4.644   1.873
 8248W        W12299   5.727   0.459  10.138
 8249W        W12300   7.117   0.006   0.905
 8250W        W12301   1.492   6.569  10.297
 8251W        W12302   5.918   2.088   9.051
 8252W        W12303   9.022   2.935  11.828
 8253W        W12304   4.331   8.569   1.627
 8254W        W12305  10.369   0.971   0.493
 8255W        W12306   3.131   0.925   3.512
 8256W        W12307   4.391   3.594  11.940
 8257W        W12308   3.682   4.105  11.396
 8258W        W12309   0.191  10.351  11.898
 8259W        W12310   8.489  11.430  11.716
 8260W        W12311   6.485   4.817   1.373
 8261W        W12312   2.418   0.299  10.840
 8262W        W12313  10.554   6.563   3.486
 8263W        W12314   1.539   5.071   0.298
 8264W        W12315  11.002   7.986   1.231
 8265W        W12316   2.669   0.968   2.736
 8266W        W12317   6.588   1.076   2.905
 8267W        W12318   5.566   7.595  10.410
 8268W        W12319   8.367   5.720  10.552
 8269W        W12320   9.422   9.141   9.427
 8270W        W12321   5.219   4.262   9.951
 8271W        W12322   4.099   0.972   0.715
 8272W        W12323  10.620   5.149  10.384
 8273W        W12324  10.440  11.465   0.232
 8274W        W12325   9.002   0.800  10.310
 8275W        W12326   2.263   6.160   0.961
 8276W        W12327   1.843   4.107  11.430
 8277W        W12328   6.964   7.476   2.296
 8278W        W12329   1.055   7.520   9.841
 8279W        W12330   2.620   6.909  11.698
 8280W        W12331   3.079   6.311   2.888
 8281W        W12332  11.025  10.829   1.210
 8282W        W12333   9.844   3.684   9.030
 8283W        W12334   8.770   6.362  11.220
 8284W        W12335   6.035   4.157   1.427
 8285W        W12336   0.318   6.013   3.598
 8286W        W12337   5.012   2.188  11.046
 8287W        W12338  10.781   0.390  10.313
 8288W        W12339   8.323   5.796   8.897
 8289W        W12340   4.798   4.878  11.484
 8290W        W12341   4.650   7.487   1.384
 8291W        W12342   2.247   4.169  11.091
 8292W        W12343   7.247   5.067   0.276
 8293W        W12344   9.363   7.241   9.293
 8294W        W12345   6.861  10.056   8.610
 8295W        W12346   7.116   2.883  11.259
 8296W        W12347   1.861   0.048   1.492
 8297W        W12348   9.644  11.200   0.661
 8298W        W12349   4.417   7.035  11.308
 8299W        W12350   8.911   5.605   0.395
 8300W        W12351  11.241   6.213   0.985
 8301W        W12352   5.521   8.885  11.656
 8302W        W12353   7.460   5.272  11.429
 8303W        W12354   7.397   9.290  10.962
 8304W        W12355   1.057   9.068   0.904
 8305W        W12356   0.172   3.541   1.074
 8306W        W12357   8.126   5.188  11.970
 8307W        W12358  10.320   4.746   0.505
 8308W        W12359   5.922  11.419   0.795
 8309W        W12360   5.673   4.672   8.777
 8310W        W12361   5.500   3.851  11.876
 8311W        W12362   2.829   8.775  10.568
 8312W        W12363   5.201   4.574   2.723
 8313W        W12364  10.372   2.956   0.350
 8314W        W12365   3.863   5.391   2.073
 8315W        W12366  10.345  10.138  11.841
 8316W        W12367   3.354   3.891   0.515
 8317W        W12368   6.645   0.268   9.726
 8318W        W12369  10.938   8.157   9.576
 8319W        W12370   2.379  11.031   9.580
 8320W        W12371   6.488   8.515   0.736
 8321W        W12372   5.070   6.103  10.851
 8322W        W12373   8.235   4.881  10.948
 8323W        W12374   9.281   6.177   0.990
 8324W        W12375   7.560  10.787   8.724
 8325W        W12376   3.319   5.486   2.953
 8326W        W12377   9.889   1.221  10.030
 8327W        W12378   2.788   2.837   2.461
 8328W        W12379   4.399  10.362   1.486
 8329W        W12380   9.521   8.033   1.309
 8330W        W12381   3.907   6.568   0.773
 8331W        W12382   3.390   5.700   8.296
 8332W        W12383   7.003   5.994   0.722
 8333W        W12384   0.867   5.082   9.560
 8334W        W12385   9.779   6.184   1.864
 8335W        W12386   1.361   0.470   9.537
 8336W        W12387   5.057   8.176   0.457
 8337W        W12388  10.485   4.464   1.898
 8338W        W12389   9.461  11.490  10.256
 8339W        W12390   8.887  10.414   1.647
 8340W        W12391   1.962   6.638  10.514
 8341W        W12392   8.979   2.562   9.910
 8342W        W12393   8.521   9.864   9.324
 8343W        W12394  10.697   3.752  10.179
 8344W        W12395   3.232   0.518   3.236
 8345W        W12396   0.855   2.289   2.739
 8346W        W12397   9.296   8.493   3.556
 8347W        W12398   6.190   9.315  11.768
 8348W        W12399   1.131  11.431   2.283
 8349W        W12400   5.212   3.590   3.495
 8350W        W12401   0.280   9.092   2.606
 8351W        W12402   5.715   1.248   9.861
 8352W        W12403   1.702   4.546  10.094
 8353W        W12404   5.786   0.403   3.496
 8354W        W12405   4.530   2.725   9.148
 8355W        W12406   1.744   9.424  10.532
 8356W        W12407   7.672   6.469   3.383
 8357W        W12408   9.292   9.379   8.986
 8358W        W12409   5.068   4.575   1.725
 8359W        W12410   3.278   6.159   9.306
 8360W        W12411   7.801   4.599  11.247
 8361W        W12412   3.830   5.772   0.706
 8362W        W12413   1.234   5.886   3.476
 8363W        W12414   7.077   2.660  11.981
 8364W        W12415   1.793   7.256   3.887
 8365W        W12416   4.667   8.856  10.499
 8366W        W12417   9.106   1.669   1.944
 8367W        W12418   8.337   4.342   0.852
 8368W        W12419   2.672   0.202   1.714
 8369W        W12420  10.523   8.685   3.199
 8370W        W12421   1.409   7.114   2.423
 8371W        W12422   2.380   4.852   2.810
 8372W        W12423  10.456   5.820   9.972
 8373W        W12424   4.217   4.270   8.809
 8374W        W12425   1.994   4.616   1.049
 8375W        W12426   5.105   7.227   1.386
 8376W        W12427   2.360   1.883   2.199
 8377W        W12428   8.906   5.070  10.311
 8378W        W12429   4.063   5.311  10.090
 8379W        W12430   8.340   3.849   2.325
 8380W        W12431   9.380   9.355  10.915
 8381W        W12432   4.803   7.752   0.571
 8382W        W12433   1.320   4.636   1.212
 8383W        W12434   8.549   9.583  11.533
 8384W        W12435   2.271   1.517   3.421
 8385W        W12436   3.253   0.119   2.921
 8386W        W12437   7.504   8.519   9.336
 8387W        W12438   1.363   7.087  10.030
 8388W        W12439   8.536   0.311  11.389
 8389W        W12440   7.151  11.321   1.819
 8390W        W12441  11.430   4.865   9.101
 8391W        W12442   0.280   9.894  10.170
 8392W        W12443   5.064   1.674  10.761
 8393W        W12444   1.928   6.152   8.928
 8394W        W12445   7.175   0.024   9.081
 8395W        W12446   7.396   4.336  10.595
 8396W        W12447   2.778   3.285   9.247
 8397W        W12448   6.204   2.864   0.443
 8398W        W12449   8.458   0.167   0.983
 8399W        W12450   2.160   0.419  11.298
 8400W        W12451   3.294   3.859   9.653
 8401W        W12452   6.411   3.342  10.623
 8402W        W12453   0.347   9.528   1.978
 8403W        W12454   0.936   5.992   1.666
 8404W        W12455   1.344   0.974   9.589
 8405W        W12456   1.366   5.088  10.737
 8406W        W12457   7.519   0.259   9.659
 8407W        W12458   3.743   8.516   8.720
 8408W        W12459   4.199  10.934   0.738
 8409W        W12460   9.173   1.383   0.689
 8410W        W12461   2.363   5.274   2.485
 8411W        W12462   2.751   8.026   3.118
 8412W        W12463   6.153   3.460  11.133
 8413W        W12464   4.158   0.873   9.167
 8414W        W12465   5.989   7.255   3.173
 8415W        W12466  10.542   6.022  11.814
 8416W        W12467   3.352  11.397   8.717
 8417W        W12468   7.495   8.620   1.840
 8418W        W12469   1.237  10.425   0.510
 8419W        W12470   6.550   9.596  11.514
 8420W        W12471   9.101   2.448   0.706
 8421W        W12472   3.112   0.664  11.034
 8422W        W12473   8.587   0.722   9.006
 8423W        W12474   1.575   7.615   2.283
 8424W        W12475  11.488   6.516  10.564
 8425W        W12476   7.708   1.806   2.002
 8426W        W12477   7.173   1.208  11.763
 8427W        W12478   4.675   2.852   3.561
 8428W        W12479   6.799   0.378   8.976
 8429W        W12480   2.757   7.393   9.817
 8430W        W12481   0.402   4.979  10.726
 8431W        W12482  10.830  11.410  10.503
 8432W        W12483   1.287   3.289   3.122
 8433W        W12484  10.860   0.843   9.571
 8434W        W12485   8.445   2.472   9.085
 8435W        W12486   1.352   6.203   1.969
 8436W        W12487   7.833   6.081   8.869
 8437W        W12488   9.914   7.191   1.896
 8438W        W12489   9.504   3.896   8.601
 8439W        W12490   6.349   2.047   4.076
 8440W        W12491   2.935   8.413  11.885
 8441W        W12492   9.429   1.649   3.395
 8442W        W12493  10.853  10.086   0.891
 8443W        W12494   3.158   6.655   2.530
 8444W        W12495   4.804  10.309   1.813
 8445W        W12496   3.243  10.053   9.873
 8446W        W12497   5.981  11.008   1.962
 8447W        W12498   3.166   0.326   0.975
 8448ION    NA+12499   2.200   0.088   1.910
 8449ION    NA+12500   3.659   7.528   1.089
 8450ION    NA+12501   9.640   3.933  11.236
 8451ION    NA+12502   3.082   8.861   1.568
 8452ION    NA+12503   9.437   4.678  10.599
 8453ION    NA+12504   2.226   6.598   2.141
 8454ION    NA+12505   4.784   3.803  11.683
 8455ION    NA+12506   7.494   1.254   3.650
 8456ION    NA+12507   0.008   8.490  10.408
 8457ION    NA+12508   6.180   8.188   2.193
 8458ION    NA+12509   9.573   8.361  11.878
 8459ION    NA+12510   9.497   6.087   0.207
 8460ION    NA+12511   3.374   5.698   1.643
 8461ION    NA+12512   9.308   0.925  11.717
 8462ION    NA+12513   5.226   4.988   2.058
 8463ION    NA+12514  11.449   5.182  10.611
 8464ION    NA+12515   7.400   3.507   2.171
 8465ION    NA+12516   7.974  10.509   9.346
 8466ION    NA+12517   0.208   7.476   8.858
 8467ION    NA+12518   9.437   6.450   9.557
 8468ION    NA+12519   2.138   8.169   9.733
 8469ION    NA+12520   7.614   2.188   8.818
 8470ION    NA+12521   8.099   2.583   3.893
 8471ION    NA+12522   8.867  10.950   9.499
 8472ION    NA+12523   5.241   6.357  11.308
 8473ION    NA+12524   0.536   7.506   9.718
 8474ION    NA+12525   9.113  10.690   0.783
 8475ION    NA+12526   4.020   4.037  10.243
 8476ION    NA+12527   9.385   7.747  11.249
 8477ION    NA+12528   3.911   2.173   1.706
 8478ION    NA+12529   4.827   0.947   2.137
 8479ION    NA+12530   1.260   5.047  11.788
 8480ION    NA+12531   0.979  11.196   8.913
 8481ION    NA+12532   8.787   8.387  11.731
 8482ION    NA+12533   0.886   3.995   3.026
 8483ION    NA+12534   7.046   1.398   2.768
 8484ION    NA+12535   5.075   2.101  11.946
 8485ION    NA+12536   4.160   0.727  10.405
 8486ION    NA+12537  10.574   0.092   1.516
 8487ION    NA+12538   5.613   7.576   2.437
 8488ION    NA+12539  11.168   0.482   2.678
 8489ION    NA+12540   4.248   3.953   0.610
 8490ION    NA+12541   6.035   9.444   2.532
 8491ION    NA+12542   3.214   2.372   0.423
 8492ION    NA+12543   1.476   2.204   8.893
 8493ION    NA+12544   3.036   8.922  11.858
 8494ION    NA+12545   4.210   1.775   2.573
 8495ION    NA+12546   8.552   6.822   9.836
 8496ION    NA+12547   7.510   9.553   1.031
 8497ION    NA+12548   7.423   0.856   0.083
 8498ION    NA+12549   1.844   4.128   1.281
 8499ION    NA+12550   7.954   6.372  10.582
 8500ION    NA+12551   3.094   5.840   2.625
 8501ION    NA+12552   5.347   1.695   2.200
 8502ION    NA+12553   0.238   4.390  11.680
 8503ION    NA+12554   3.041   8.290   0.893
 8504ION    NA+12555   7.096   1.687   1.630
 8505ION    NA+12556   3.077  11.032   8.005
 8506ION    NA+12557   8.196   1.075   2.914
 8507ION    NA+12558   4.030   8.426   0.851
 8508ION    NA+12559   9.289   0.067   0.962
 8509ION    NA+12560   3.450   2.043   3.611
 8510ION    NA+12561   5.361  10.111  11.411
 8511ION    NA+12562   7.949   5.110   3.144
 8512ION    NA+12563  11.373   7.926  11.966
 8513ION    NA+12564   9.339   0.749   9.930
 8514ION    NA+12565  11.424  11.076  11.985
 8515ION    NA+12566  11.037   6.517  10.186
 8516ION    NA+12567   5.745   2.810   9.535
 8517ION    NA+12568   6.645   9.172   8.776
 8518ION    NA+12569   1.007   5.096   1.217
 8519ION    NA+12570   7.545   0.234  11.310
 8520ION    NA+12571   0.414   0.386   9.136
 8521ION    NA+12572   2.333   7.779   8.564
 8522ION    NA+12573   8.982   3.296   0.442
 8523ION    NA+12574   9.636   1.591   2.446
 8524ION    NA+12575  10.492   7.698   9.849
 8525ION    NA+12576  10.507   4.176   0.719
 8526ION    NA+12577   7.412   8.739   8.884
 8527ION    NA+12578   0.557   1.529  11.468
 8528ION    NA+12579   9.763  10.137  11.159
 8529ION    NA+12580  10.325  11.002   0.391
 8530ION    NA+12581   9.557   1.485   9.274
 8531ION    NA+12582   0.015   1.783  10.730
 8532ION    NA+12583   8.597   4.530   2.650
 8533ION    NA+12584   1.804  11.212   0.425
 8534ION    NA+12585   2.664   3.415  10.325
 8535ION    NA+12586   8.512   0.172   9.873
 8536ION    NA+12587   5.125   3.359   8.277
 8537ION    CL-12588   2.815   4.606   2.952
 8538ION    CL-12589   4.682   3.241   8.283
 8539ION    CL-12590   0.382   2.355   3.504
 8540ION    CL-12591   1.214  11.342  11.536
 8541ION    CL-12592  10.029   4.113   3.498
 8542ION    CL-12593  11.130  11.408  10.914
 8543ION    CL-12594   5.805  10.112  11.354
 8544ION    CL-12595   9.144   3.736  10.388
 8545ION    CL-12596   9.483  10.494  11.206
 8546ION    CL-12597   0.105   0.588  10.333
 8547ION    CL-12598   2.806   5.104  11.761
 8548ION    CL-12599   5.089   1.323   2.138
 8549ION    CL-12600   3.502  10.720   3.586
 8550ION    CL-12601  11.237   4.095   1.532
 8551ION    CL-12602   1.509   7.654  11.361
 8552ION    CL-12603   0.369   1.514  10.883
 8553ION    CL-12604   6.402   9.286   2.331
 8554ION    CL-12605   0.301  10.528  10.903
 8555ION    CL-12606   4.457   3.936  10.297
 8556ION    CL-12607   6.233   9.320  10.161
 8557ION    CL-12608   0.715   0.039   9.109
 8558ION    CL-12609   2.662   2.195  10.864
 8559ION    CL-12610   7.716   1.741   8.793
 8560ION    CL-12611   9.533   1.933   2.173
 8561ION    CL-12612   9.054   1.193  11.467
 8562ION    CL-12613   0.849   8.789  11.550
 8563ION    CL-12614   8.324   0.683   2.738
 8564ION    CL-12615   9.362  10.845   3.544
 8565ION    CL-12616  11.419   0.845   2.720
 8566ION    CL-12617   8.266   4.625  11.436
 8567ION    CL-12618   2.501   9.839   9.454
 8568ION    CL-12619   8.604   3.071   0.379
 8569ION    CL-12620   9.389   2.889   9.917
 8570ION    CL-12621   4.756   7.231   2.922
 8571ION    CL-12622   9.164   8.590  11.931
 8572ION    CL-12623   8.599   8.124  11.401
 8573ION    CL-12624   6.120   7.406   0.227
 8574ION    CL-12625  10.526   2.152   3.068
 8575ION    CL-12626  11.227   9.419   0.747
 8576ION    CL-12627   1.758   4.960   4.109
 8577ION    CL-12628   0.538   1.816  11.820
 8578ION    CL-12629   8.628  11.257   9.730
 8579ION    CL-12630   2.012  10.189   3.291
 8580ION    CL-12631   8.550   2.125  11.024
 8581ION    CL-12632  11.459   1.438   0.542
 8582ION    CL-12633   2.727  11.053   3.049
 8583ION    CL-12634   8.064   7.909  10.438
 8584ION    CL-12635  10.092   9.862  11.001
 8585ION    CL-12636   4.171   0.060   8.377
 8586ION    CL-12637   0.309   6.752   1.633
 8587ION    CL-12638   5.790   7.977   2.303
 8588ION    CL-12639   7.391   7.038   1.664
 8589ION    CL-12640   1.269   2.257   9.286
 8590ION    CL-12641   9.693   3.491  11.187
 8591ION    CL-12642   5.861  10.368  10.038
 8592ION    CL-12643   2.084  11.086   8.718
 8593ION    CL-12644   4.088   4.077   1.009
 8594ION    CL-12645   0.395  10.519   0.931
 8595ION    CL-12646   3.069   8.501   1.294
 8596ION    CL-12647   9.193  11.128   0.887
 8597ION    CL-12648  10.398   3.975   2.062
 8598ION    CL-12649  10.850   1.194  10.586
 8599ION    CL-12650   4.724   7.843   1.741
 8600ION    CL-12651   5.601   3.240  11.291
 8601ION    CL-12652  10.520   7.013   0.456
 8602ION    CL-12653   2.712   3.834  10.471
 8603ION    CL-12654   4.832   1.315   8.906
 8604ION    CL-12655  11.460   7.668   8.464
 8605ION    CL-12656   6.931   9.289  11.263
 8606ION    CL-12657   9.847   8.540   9.849
 8607ION    CL-12658   5.948   7.001   9.790
 8608ION    CL-12659   4.251   0.557  10.003
 8609ION    CL-12660   9.573   7.991  11.585
 8610ION    CL-12661   0.362   7.465   9.300
 8611ION    CL-12662   8.073   7.380   2.796
 8612ION    CL-12663   1.645   6.533   9.423
 8613ION    CL-12664   6.986   8.865   8.764
 8614ION    CL-12665   2.123  10.911   0.344
 8615ION    CL-12666   9.586   4.392   2.471
 8616ION    CL-12667   5.494   6.024  11.153
 8617ION    CL-12668   4.830   5.252  10.818
 8618ION    CL-12669   7.073   0.677   0.295
 8619ION    CL-12670   0.599   8.094   3.180
 8620ION    CL-12671  11.208   2.123  10.674
 8621ION    CL-12672   4.217   9.608   0.504
 8622ION    CL-12673   1.001  10.090   9.140
 8623ION    CL-12674   6.507   4.454  11.958
 8624ION    CL-12675   0.463   8.594   1.469
 8625ION    CL-12676   6.755   7.574  10.097
  11.50000  11.50000  12.00000
