Protein in INSANE! Membrane UpperLeaflet>POPC=1.0 LowerLeaflet>POPC=1.0
11530
    1AU     AUC    1   5.264   5.283   5.999
    1AU     AUC    2   5.555   5.323   5.837
    1AU     AUC    3   5.532   5.312   6.168
    1AU     AUC    4   4.969   5.274   5.838
    1AU     AUC    5   5.009   5.275   6.188
    1AU     AUC    6   5.072   5.519   6.029
    1AU     AUC    7   5.404   5.559   6.000
    1AU     AUC    8   5.097   5.005   5.984
    1AU     AUC    9   5.465   5.049   6.007
    1AU     AUC   10   5.314   5.115   6.264
    1AU     AUC   11   5.250   5.447   6.276
    1AU     AUC   12   5.286   5.136   5.727
    1AU     AUC   13   5.260   5.461   5.734
    1AU     AUC   14   5.876   5.334   5.688
    1AU     AUC   15   5.912   5.346   5.995
    1AU     AUC   16   5.851   5.330   6.366
    1AU     AUC   17   4.666   5.259   5.686
    1AU     AUC   18   4.639   5.238   6.033
    1AU     AUC   19   4.707   5.234   6.386
    1AU     AUC   20   4.884   5.826   6.029
    1AU     AUC   21   5.222   5.902   5.990
    1AU     AUC   22   5.543   5.886   5.999
    1AU     AUC   23   4.925   4.702   5.945
    1AU     AUC   24   5.274   4.703   5.969
    1AU     AUC   25   5.640   4.745   5.976
    1AU     AUC   26   5.340   4.903   6.553
    1AU     AUC   27   5.290   5.234   6.610
    1AU     AUC   28   5.270   5.612   6.568
    1AU     AUC   29   5.303   4.948   5.422
    1AU     AUC   30   5.277   5.295   5.429
    1AU     AUC   31   5.267   5.648   5.447
    1AU     AUC   32   5.611   5.076   6.475
    1AU     AUC   33   5.572   5.448   6.510
    1AU     AUC   34   5.592   5.097   5.540
    1AU     AUC   35   5.606   5.478   5.527
    1AU     AUC   36   5.003   5.062   6.504
    1AU     AUC   37   4.989   5.418   6.505
    1AU     AUC   38   4.960   5.134   5.517
    1AU     AUC   39   4.945   5.469   5.528
    1AU     AUC   40   5.751   5.625   5.838
    1AU     AUC   41   5.705   5.603   6.199
    1AU     AUC   42   4.757   5.534   5.843
    1AU     AUC   43   4.766   5.540   6.229
    1AU     AUC   44   5.777   5.023   5.842
    1AU     AUC   45   5.788   5.033   6.140
    1AU     AUC   46   4.753   4.967   5.809
    1AU     AUC   47   4.801   4.953   6.155
    1AU     AUC   48   5.064   5.768   6.298
    1AU     AUC   49   5.396   5.781   6.296
    1AU     AUC   50   5.122   4.802   6.250
    1AU     AUC   51   5.497   4.785   6.272
    1AU     AUC   52   5.049   5.731   5.700
    1AU     AUC   53   5.444   5.768   5.685
    1AU     AUC   54   5.047   4.824   5.660
    1AU     AUC   55   5.442   4.814   5.684
    1AU    AUSL   56   5.877   5.243   6.747
    1AU    AUSL   57   5.749   4.743   6.648
    1AU     AUL   58   6.019   4.864   6.813
    1AU       S   59   6.092   4.495   6.518
    1AU     LIG   60   6.022   4.244   6.887
    1AU     LIG   61   6.110   3.804   7.043
    1AU       S   62   6.133   5.305   6.913
    1AU     LIG   63   6.084   5.407   7.345
    1AU     LIG   64   6.145   5.126   7.709
    1AU    AUSL   65   5.474   5.047   6.788
    1AU    AUSL   66   5.156   5.364   6.915
    1AU     AUL   67   5.357   5.226   7.143
    1AU       S   68   5.783   5.047   7.162
    1AU     LIG   69   5.639   5.129   7.578
    1AU     LIG   70   5.730   5.069   8.032
    1AU       S   71   4.651   5.152   7.208
    1AU     LIG   72   4.717   5.359   7.623
    1AU     LIG   73   4.663   5.399   8.095
    1AU    AUSL   74   5.482   5.473   6.665
    1AU    AUSL   75   5.895   5.665   6.625
    1AU     AUL   76   5.712   5.497   6.959
    1AU       S   77   5.321   5.741   7.122
    1AU     LIG   78   5.621   5.626   7.431
    1AU     LIG   79   5.862   5.546   7.813
    1AU       S   80   6.020   5.829   6.820
    1AU     LIG   81   6.424   5.743   6.907
    1AU     LIG   82   6.828   5.956   6.921
    1AU    AUSL   83   5.878   5.317   5.275
    1AU    AUSL   84   5.693   5.845   5.307
    1AU     AUL   85   5.835   5.612   5.039
    1AU       S   86   5.841   5.180   4.833
    1AU     LIG   87   6.045   5.172   4.409
    1AU     LIG   88   6.166   5.062   3.965
    1AU       S   89   6.039   5.971   5.261
    1AU     LIG   90   6.014   6.298   4.962
    1AU     LIG   91   6.212   6.582   4.659
    1AU    AUSL   92   5.520   5.050   5.243
    1AU    AUSL   93   5.817   5.028   5.606
    1AU     AUL   94   5.962   5.021   5.244
    1AU       S   95   6.153   4.363   5.379
    1AU     LIG   96   6.423   4.129   5.049
    1AU     LIG   97   6.568   4.148   4.575
    1AU       S   98   5.563   4.893   4.967
    1AU     LIG   99   5.393   4.774   4.512
    1AU     LIG  100   5.678   4.869   4.131
    1AU    AUSL  101   5.464   5.478   5.313
    1AU    AUSL  102   5.130   5.126   5.084
    1AU     AUL  103   5.416   5.346   4.977
    1AU       S  104   4.974   5.205   4.794
    1AU     LIG  105   5.011   5.104   4.325
    1AU     LIG  106   4.589   4.995   4.139
    1AU       S  107   5.752   4.954   4.785
    1AU     LIG  108   5.533   5.256   4.453
    1AU     LIG  109   5.733   5.394   4.042
    1AU    AUSL  110   4.813   5.217   6.686
    1AU    AUSL  111   5.022   5.683   6.656
    1AU     AUL  112   4.898   5.534   6.966
    1AU       S  113   4.550   5.221   6.942
    1AU     LIG  114   4.275   5.436   7.322
    1AU     LIG  115   4.238   5.294   7.796
    1AU       S  116   4.620   5.904   6.839
    1AU     LIG  117   4.435   6.195   7.109
    1AU     LIG  118   4.221   6.458   7.440
    1AU    AUSL  119   5.078   4.917   6.908
    1AU    AUSL  120   4.588   4.856   6.603
    1AU     AUL  121   4.761   4.806   6.866
    1AU       S  122   4.375   4.569   6.709
    1AU     LIG  123   3.984   4.342   6.894
    1AU     LIG  124   3.688   4.365   7.257
    1AU       S  125   4.884   5.097   7.201
    1AU     LIG  126   4.918   4.884   7.583
    1AU     LIG  127   4.643   4.905   7.941
    1AU    AUSL  128   4.719   5.220   5.234
    1AU    AUSL  129   5.006   4.919   5.445
    1AU     AUL  130   4.876   4.869   5.120
    1AU       S  131   4.552   5.148   4.917
    1AU     LIG  132   4.239   5.093   4.558
    1AU     LIG  133   4.153   5.298   4.150
    1AU       S  134   4.385   4.711   5.120
    1AU     LIG  135   4.443   4.230   5.040
    1AU     LIG  136   4.276   3.804   4.903
    1AU    AUSL  137   5.046   5.525   5.256
    1AU    AUSL  138   4.659   5.548   5.517
    1AU     AUL  139   4.754   5.533   5.084
    1AU       S  140   4.399   5.720   5.321
    1AU     LIG  141   4.115   6.063   5.126
    1AU     LIG  142   4.067   6.239   4.681
    1AU       S  143   4.716   5.094   4.716
    1AU     LIG  144   4.614   5.429   4.440
    1AU     LIG  145   4.612   5.482   3.985
    1AU    AUSL  146   5.941   5.926   6.027
    1AU    AUSL  147   5.918   5.605   5.599
    1AU     AUL  148   6.073   6.008   5.732
    1AU       S  149   6.172   5.667   5.408
    1AU     LIG  150   6.313   5.684   4.931
    1AU     LIG  151   6.465   6.114   4.801
    1AU       S  152   6.477   5.916   6.381
    1AU     LIG  153   6.669   6.263   6.087
    1AU     LIG  154   6.978   6.350   5.736
    1AU    AUSL  155   6.219   5.585   5.904
    1AU    AUSL  156   6.240   5.205   6.189
    1AU     AUL  157   6.528   5.405   6.027
    1AU       S  158   6.395   5.837   6.120
    1AU     LIG  159   6.723   5.837   5.806
    1AU     LIG  160   7.137   5.747   5.608
    1AU       S  161   6.540   4.936   6.052
    1AU     LIG  162   6.713   4.741   6.430
    1AU     LIG  163   7.146   4.537   6.473
    1AU    AUSL  164   5.947   5.516   6.231
    1AU    AUSL  165   5.623   5.825   6.301
    1AU     AUL  166   5.981   5.932   6.362
    1AU       S  167   5.982   6.127   6.832
    1AU     LIG  168   6.408   6.241   6.765
    1AU     LIG  169   6.719   6.465   7.011
    1AU       S  170   6.328   5.620   6.408
    1AU     LIG  171   6.845   5.581   6.396
    1AU     LIG  172   7.345   5.687   6.433
    1AU    AUSL  173   4.618   5.697   6.076
    1AU    AUSL  174   4.618   5.561   6.514
    1AU     AUL  175   4.331   5.823   6.301
    1AU       S  176   4.511   5.651   6.710
    1AU     LIG  177   4.113   5.841   6.850
    1AU     LIG  178   3.945   6.046   7.231
    1AU       S  179   4.496   6.208   6.084
    1AU     LIG  180   4.089   6.352   5.866
    1AU     LIG  181   3.698   6.452   5.615
    1AU    AUSL  182   4.391   5.417   5.815
    1AU    AUSL  183   4.623   5.949   5.729
    1AU     AUL  184   4.350   5.750   5.794
    1AU       S  185   4.188   5.344   5.539
    1AU     LIG  186   3.914   5.767   5.540
    1AU     LIG  187   3.471   5.999   5.496
    1AU       S  188   4.439   6.158   5.542
    1AU     LIG  189   4.396   6.491   5.254
    1AU     LIG  190   4.008   6.599   5.052
    1AU    AUSL  191   4.337   5.363   6.257
    1AU    AUSL  192   4.313   5.010   5.931
    1AU     AUL  193   4.096   5.342   6.003
    1AU       S  194   4.083   4.905   6.178
    1AU     LIG  195   3.749   4.859   5.882
    1AU     LIG  196   3.438   4.654   5.584
    1AU       S  197   4.134   5.418   6.495
    1AU     LIG  198   3.812   5.762   6.416
    1AU     LIG  199   3.384   6.000   6.373
    1AU    AUSL  200   6.043   4.870   5.988
    1AU    AUSL  201   5.857   5.067   6.360
    1AU     AUL  202   6.188   4.934   6.372
    1AU       S  203   6.402   4.773   5.978
    1AU     LIG  204   6.444   4.379   5.813
    1AU     LIG  205   6.805   4.133   5.659
    1AU       S  206   6.300   4.446   6.320
    1AU     LIG  207   6.513   4.381   6.753
    1AU     LIG  208   6.458   4.212   7.186
    1AU    AUSL  209   6.190   5.192   5.716
    1AU    AUSL  210   5.842   4.557   5.770
    1AU     AUL  211   6.113   4.794   5.623
    1AU       S  212   6.497   5.020   5.755
    1AU     LIG  213   6.800   4.693   5.601
    1AU     LIG  214   7.228   4.451   5.671
    1AU       S  215   5.981   4.338   5.654
    1AU     LIG  216   5.934   3.930   5.487
    1AU     LIG  217   6.129   3.699   5.152
    1AU    AUSL  218   4.673   4.723   5.940
    1AU    AUSL  219   4.592   5.042   5.602
    1AU     AUL  220   4.322   4.734   5.783
    1AU       S  221   4.370   4.926   5.352
    1AU     LIG  222   3.963   4.699   5.422
    1AU     LIG  223   3.840   4.337   5.150
    1AU       S  224   3.991   4.710   6.354
    1AU     LIG  225   3.992   4.403   6.001
    1AU     LIG  226   3.729   4.234   5.644
    1AU    AUSL  227   4.628   5.051   6.233
    1AU    AUSL  228   4.745   4.550   6.330
    1AU     AUL  229   4.471   4.655   6.246
    1AU       S  230   4.570   4.334   6.566
    1AU     LIG  231   4.189   4.166   6.469
    1AU     LIG  232   3.937   3.822   6.729
    1AU       S  233   4.153   4.951   6.399
    1AU     LIG  234   3.697   5.140   6.365
    1AU     LIG  235   3.308   4.890   6.343
    1AU    AUSL  236   5.228   6.004   6.444
    1AU    AUSL  237   4.787   5.950   6.386
    1AU     AUL  238   5.054   6.039   6.727
    1AU       S  239   4.634   6.107   6.542
    1AU     LIG  240   4.248   6.276   6.612
    1AU     LIG  241   4.035   6.470   6.949
    1AU       S  242   5.207   6.438   6.467
    1AU     LIG  243   5.330   6.848   6.728
    1AU     LIG  244   5.389   7.309   6.843
    1AU    AUSL  245   5.011   6.196   6.106
    1AU    AUSL  246   5.344   6.221   5.736
    1AU     AUL  247   5.079   6.467   5.888
    1AU       S  248   5.325   6.661   6.268
    1AU     LIG  249   5.169   7.091   6.300
    1AU     LIG  250   4.866   7.174   6.619
    1AU       S  251   5.275   6.431   5.442
    1AU     LIG  252   5.687   6.701   5.546
    1AU     LIG  253   5.858   7.178   5.491
    1AU    AUSL  254   5.491   6.193   6.139
    1AU    AUSL  255   5.521   5.889   6.736
    1AU     AUL  256   5.583   6.154   6.514
    1AU       S  257   5.725   5.988   6.954
    1AU     LIG  258   6.033   5.927   7.304
    1AU     LIG  259   6.449   6.114   7.279
    1AU       S  260   5.481   6.448   6.161
    1AU     LIG  261   5.812   6.679   6.397
    1AU     LIG  262   5.773   7.109   6.554
    1AU    AUSL  263   5.374   4.567   6.505
    1AU    AUSL  264   5.735   4.669   6.218
    1AU     AUL  265   5.639   4.397   6.543
    1AU       S  266   4.953   4.010   6.544
    1AU     LIG  267   4.952   3.647   6.817
    1AU     LIG  268   5.067   3.238   7.026
    1AU       S  269   6.008   4.449   6.236
    1AU     LIG  270   6.231   4.001   6.493
    1AU     LIG  271   6.558   3.866   6.820
    1AU    AUSL  272   5.124   4.533   6.147
    1AU    AUSL  273   5.046   4.843   6.490
    1AU     AUL  274   5.030   4.488   6.574
    1AU       S  275   4.945   4.117   6.268
    1AU     LIG  276   4.997   3.589   6.304
    1AU     LIG  277   4.839   3.225   6.537
    1AU       S  278   4.589   4.342   6.805
    1AU     LIG  279   4.371   3.988   6.960
    1AU     LIG  280   4.090   4.015   7.323
    1AU    AUSL  281   5.511   4.339   6.074
    1AU    AUSL  282   5.034   4.454   5.739
    1AU     AUL  283   5.237   4.215   5.920
    1AU       S  284   4.777   4.222   5.790
    1AU     LIG  285   4.757   3.730   5.893
    1AU     LIG  286   4.868   3.435   5.531
    1AU       S  287   5.221   4.070   6.401
    1AU     LIG  288   5.494   3.717   6.384
    1AU     LIG  289   5.381   3.353   6.634
    1AU    AUSL  290   5.286   5.906   5.435
    1AU    AUSL  291   5.613   5.882   5.756
    1AU     AUL  292   5.645   6.150   5.513
    1AU       S  293   5.277   6.123   5.212
    1AU     LIG  294   5.564   6.511   5.063
    1AU     LIG  295   5.444   6.957   5.178
    1AU       S  296   6.361   5.916   5.356
    1AU     LIG  297   6.395   6.384   5.291
    1AU     LIG  298   6.605   6.670   4.979
    1AU    AUSL  299   5.040   5.896   5.808
    1AU    AUSL  300   4.867   5.903   5.361
    1AU     AUL  301   4.911   6.149   5.568
    1AU       S  302   5.088   6.361   5.169
    1AU     LIG  303   4.854   6.715   5.368
    1AU     LIG  304   4.962   7.159   5.432
    1AU       S  305   4.595   5.977   5.245
    1AU     LIG  306   4.563   6.217   4.864
    1AU     LIG  307   4.407   6.640   4.725
    1AU    AUSL  308   5.257   4.585   5.371
    1AU    AUSL  309   4.698   4.618   5.521
    1AU     AUL  310   4.967   4.467   5.364
    1AU       S  311   4.503   4.628   5.352
    1AU     LIG  312   4.225   4.276   5.493
    1AU     LIG  313   3.992   3.877   5.347
    1AU       S  314   4.687   4.092   5.528
    1AU     LIG  315   4.724   3.785   5.159
    1AU     LIG  316   4.916   3.421   4.938
    1AU    AUSL  317   5.430   4.662   5.793
    1AU    AUSL  318   5.673   4.676   5.385
    1AU     AUL  319   5.521   4.373   5.556
    1AU       S  320   4.967   4.004   5.551
    1AU     LIG  321   5.306   3.671   5.574
    1AU     LIG  322   5.323   3.247   5.328
    1AU       S  323   5.895   4.509   5.282
    1AU     LIG  324   5.917   4.153   4.967
    1AU     LIG  325   6.147   3.862   4.655
    2POPC   NC3  326   3.297   8.653   8.044
    2POPC   PO4  327   3.907   8.452   8.212
    2POPC   GL1  328   3.677   8.844   7.789
    2POPC   GL2  329   3.372   8.868   7.609
    2POPC   C1A  330   3.732   8.798   7.262
    2POPC   D2A  331   3.770   8.494   6.939
    2POPC   C3A  332   3.504   8.442   6.579
    2POPC   C4A  333   3.549   8.602   6.210
    2POPC   C1B  334   3.227   8.657   7.288
    2POPC   C2B  335   3.301   8.753   6.922
    2POPC   C3B  336   3.130   8.776   6.547
    2POPC   C4B  337   3.167   8.930   6.140
    3POPC   NC3  338   1.171   5.037   8.113
    3POPC   PO4  339   0.598   4.617   8.168
    3POPC   GL1  340   0.905   4.756   7.755
    3POPC   GL2  341   1.071   5.069   7.637
    3POPC   C1A  342   1.133   4.673   7.342
    3POPC   D2A  343   0.966   4.825   6.937
    3POPC   C3A  344   1.068   4.614   6.538
    3POPC   C4A  345   1.128   4.772   6.103
    3POPC   C1B  346   1.347   5.157   7.330
    3POPC   C2B  347   1.468   5.043   6.942
    3POPC   C3B  348   1.283   5.055   6.577
    3POPC   C4B  349   1.376   5.194   6.213
    4POPC   NC3  350   9.331   1.912   8.094
    4POPC   PO4  351   8.838   2.272   7.870
    4POPC   GL1  352   9.139   2.030   7.617
    4POPC   GL2  353   9.469   1.834   7.621
    4POPC   C1A  354   9.197   2.080   7.207
    4POPC   D2A  355   9.259   1.928   6.810
    4POPC   C3A  356   9.505   2.092   6.507
    4POPC   C4A  357   9.667   2.267   6.148
    4POPC   C1B  358   9.448   1.643   7.225
    4POPC   C2B  359   9.692   1.685   6.875
    4POPC   C3B  360   9.625   1.597   6.467
    4POPC   C4B  361   9.925   1.418   6.206
    5POPC   NC3  362   0.197   7.836   8.372
    5POPC   PO4  363   0.038   7.386   8.018
    5POPC   GL1  364   0.201   7.605   7.604
    5POPC   GL2  365   0.288   7.935   7.504
    5POPC   C1A  366   0.385   7.592   7.159
    5POPC   D2A  367   0.593   7.791   6.808
    5POPC   C3A  368   0.562   7.675   6.348
    5POPC   C4A  369   0.236   7.727   5.989
    5POPC   C1B  370   0.335   8.291   7.283
    5POPC   C2B  371   0.445   8.284   6.881
    5POPC   C3B  372   0.284   8.077   6.529
    5POPC   C4B  373   0.394   8.155   6.155
    6POPC   NC3  374   2.989   1.489   8.142
    6POPC   PO4  375   3.606   1.743   8.230
    6POPC   GL1  376   3.657   1.493   7.866
    6POPC   GL2  377   3.616   1.126   7.874
    6POPC   C1A  378   3.514   1.503   7.460
    6POPC   D2A  379   3.523   1.689   7.056
    6POPC   C3A  380   3.671   1.532   6.653
    6POPC   C4A  381   3.496   1.484   6.235
    6POPC   C1B  382   3.426   1.005   7.446
    6POPC   C2B  383   3.535   1.175   7.022
    6POPC   C3B  384   3.403   1.079   6.581
    6POPC   C4B  385   3.563   0.999   6.165
    7POPC   NC3  386   8.475   9.216   8.167
    7POPC   PO4  387   8.966   9.672   8.371
    7POPC   GL1  388   8.891   9.553   7.810
    7POPC   GL2  389   8.676   9.309   7.701
    7POPC   C1A  390   8.806   9.682   7.374
    7POPC   D2A  391   8.652   9.666   6.947
    7POPC   C3A  392   8.736   9.387   6.623
    7POPC   C4A  393   8.675   9.566   6.235
    7POPC   C1B  394   8.460   9.226   7.320
    7POPC   C2B  395   8.403   9.068   6.906
    7POPC   C3B  396   8.231   9.184   6.535
    7POPC   C4B  397   8.290   9.298   6.106
    8POPC   NC3  398   6.209   0.427   8.195
    8POPC   PO4  399   6.712  10.464   8.049
    8POPC   GL1  400   6.634   0.196   7.642
    8POPC   GL2  401   6.378   0.449   7.715
    8POPC   C1A  402   6.532   0.448   7.228
    8POPC   D2A  403   6.348   0.720   6.900
    8POPC   C3A  404   6.512   0.709   6.490
    8POPC   C4A  405   6.735   0.550   6.132
    8POPC   C1B  406   6.211   0.071   7.432
    8POPC   C2B  407   6.362  10.450   7.019
    8POPC   C3B  408   6.417   0.215   6.649
    8POPC   C4B  409   6.290   0.291   6.219
    9POPC   NC3  410   8.941   4.677   8.162
    9POPC   PO4  411   8.579   5.217   7.956
    9POPC   GL1  412   8.897   5.048   7.714
    9POPC   GL2  413   8.746   4.732   7.678
    9POPC   C1A  414   8.922   5.185   7.289
    9POPC   D2A  415   8.702   5.116   6.907
    9POPC   C3A  416   8.732   4.897   6.541
    9POPC   C4A  417   8.828   4.959   6.111
    9POPC   C1B  418   8.584   4.789   7.275
    9POPC   C2B  419   8.341   4.740   6.883
    9POPC   C3B  420   8.369   4.538   6.460
    9POPC   C4B  421   8.415   4.651   5.997
   10POPC   NC3  422   4.372   9.410   7.973
   10POPC   PO4  423   3.756   9.432   8.276
   10POPC   GL1  424   3.954   9.520   7.720
   10POPC   GL2  425   4.252   9.426   7.488
   10POPC   C1A  426   3.918   9.662   7.225
   10POPC   D2A  427   4.083   9.471   6.853
   10POPC   C3A  428   3.794   9.497   6.504
   10POPC   C4A  429   3.950   9.479   6.037
   10POPC   C1B  430   4.545   9.174   7.245
   10POPC   C2B  431   4.643   8.999   6.863
   10POPC   C3B  432   4.468   8.854   6.500
   10POPC   C4B  433   4.207   9.224   6.405
   11POPC   NC3  434   9.905   5.553   8.341
   11POPC   PO4  435   9.759   5.263   7.799
   11POPC   GL1  436   9.922   5.403   7.489
   11POPC   GL2  437  10.181   5.577   7.696
   11POPC   C1A  438   9.767   5.222   7.112
   11POPC   D2A  439   9.706   5.513   6.816
   11POPC   C3A  440   9.631   5.429   6.399
   11POPC   C4A  441   9.830   5.651   6.084
   11POPC   C1B  442  10.319   5.743   7.322
   11POPC   C2B  443  10.103   5.899   6.945
   11POPC   C3B  444  10.084   5.750   6.533
   11POPC   C4B  445  10.299   5.835   6.142
   12POPC   NC3  446   6.350   1.561   8.256
   12POPC   PO4  447   6.016   2.114   8.277
   12POPC   GL1  448   6.338   1.880   7.871
   12POPC   GL2  449   6.533   2.119   7.683
   12POPC   C1A  450   6.265   1.653   7.420
   12POPC   D2A  451   6.457   1.644   6.973
   12POPC   C3A  452   6.236   1.573   6.564
   12POPC   C4A  453   6.281   1.673   6.127
   12POPC   C1B  454   6.370   2.112   7.246
   12POPC   C2B  455   6.609   2.142   6.873
   12POPC   C3B  456   6.563   1.949   6.495
   12POPC   C4B  457   6.624   2.031   6.073
   13POPC   NC3  458   1.436   0.924   8.053
   13POPC   PO4  459   2.083   0.885   8.060
   13POPC   GL1  460   1.940   1.087   7.678
   13POPC   GL2  461   2.270   1.225   7.658
   13POPC   C1A  462   1.735   1.080   7.281
   13POPC   D2A  463   1.657   0.853   6.868
   13POPC   C3A  464   1.897   0.880   6.463
   13POPC   C4A  465   1.711   0.846   6.027
   13POPC   C1B  466   2.152   1.415   7.276
   13POPC   C2B  467   1.971   1.282   6.872
   13POPC   C3B  468   1.748   1.358   6.495
   13POPC   C4B  469   1.994   1.259   6.123
   14POPC   NC3  470   7.167   2.053   8.083
   14POPC   PO4  471   6.794   1.496   8.163
   14POPC   GL1  472   6.864   1.712   7.751
   14POPC   GL2  473   7.213   1.732   7.635
   14POPC   C1A  474   6.828   1.860   7.290
   14POPC   D2A  475   6.950   1.774   6.838
   14POPC   C3A  476   7.038   2.119   6.525
   14POPC   C4A  477   7.046   1.834   6.251
   14POPC   C1B  478   7.329   1.720   7.180
   14POPC   C2B  479   7.587   1.534   6.845
   14POPC   C3B  480   7.507   1.745   6.452
   14POPC   C4B  481   7.502   2.117   6.221
   15POPC   NC3  482   6.332   9.165   8.015
   15POPC   PO4  483   6.869   9.550   8.102
   15POPC   GL1  484   6.623   9.617   7.699
   15POPC   GL2  485   6.398   9.371   7.561
   15POPC   C1A  486   6.514   9.778   7.286
   15POPC   D2A  487   6.494   9.570   6.881
   15POPC   C3A  488   6.538   9.806   6.506
   15POPC   C4A  489   6.507   9.762   6.056
   15POPC   C1B  490   6.178   9.216   7.196
   15POPC   C2B  491   6.039   9.337   6.778
   15POPC   C3B  492   6.263   9.325   6.394
   15POPC   C4B  493   6.187   9.361   5.945
   16POPC   NC3  494   9.556   3.180   8.144
   16POPC   PO4  495   9.880   3.804   8.057
   16POPC   GL1  496   9.632   3.536   7.779
   16POPC   GL2  497   9.319   3.489   7.719
   16POPC   C1A  498   9.657   3.337   7.359
   16POPC   D2A  499   9.553   3.536   6.947
   16POPC   C3A  500   9.778   3.536   6.545
   16POPC   C4A  501   9.595   3.550   6.116
   16POPC   C1B  502   9.165   3.267   7.330
   16POPC   C2B  503   9.052   3.441   6.923
   16POPC   C3B  504   9.258   3.474   6.522
   16POPC   C4B  505   9.181   3.228   6.144
   17POPC   NC3  506   0.490   5.736   8.328
   17POPC   PO4  507  10.359   5.554   8.213
   17POPC   GL1  508   0.179   5.506   7.827
   17POPC   GL2  509   0.474   5.767   7.813
   17POPC   C1A  510   0.290   5.470   7.339
   17POPC   D2A  511   0.138   5.704   6.929
   17POPC   C3A  512   0.176   5.821   6.489
   17POPC   C4A  513   0.214   5.486   6.189
   17POPC   C1B  514   0.627   5.885   7.393
   17POPC   C2B  515   0.655   5.657   6.991
   17POPC   C3B  516   0.598   5.554   6.547
   17POPC   C4B  517   0.606   5.798   6.153
   18POPC   NC3  518  10.122   0.545   8.142
   18POPC   PO4  519   9.567   0.166   8.091
   18POPC   GL1  520   9.948   0.174   7.784
   18POPC   GL2  521  10.189   0.439   7.637
   18POPC   C1A  522   9.875   0.165   7.321
   18POPC   D2A  523  10.100   0.430   7.052
   18POPC   C3A  524  10.118   0.515   6.630
   18POPC   C4A  525  10.203   0.403   6.224
   18POPC   C1B  526   0.032   0.465   7.297
   18POPC   C2B  527   0.122   0.601   6.849
   18POPC   C3B  528   0.016   0.774   6.435
   18POPC   C4B  529  10.478   0.729   5.943
   19POPC   NC3  530   1.507  10.430   8.080
   19POPC   PO4  531   2.218  10.290   8.029
   19POPC   GL1  532   1.852  10.265   7.701
   19POPC   GL2  533   1.758   9.921   7.575
   19POPC   C1A  534   1.645  10.355   7.275
   19POPC   D2A  535   1.513  10.238   6.868
   19POPC   C3A  536   1.769  10.463   6.560
   19POPC   C4A  537   1.633  10.463   6.137
   19POPC   C1B  538   2.015  10.005   7.262
   19POPC   C2B  539   1.885   9.924   6.862
   19POPC   C3B  540   1.675  10.001   6.426
   19POPC   C4B  541   2.018   9.917   6.126
   20POPC   NC3  542   0.492   6.731   8.244
   20POPC   PO4  543   0.791   6.060   8.171
   20POPC   GL1  544   0.655   6.284   7.779
   20POPC   GL2  545   0.326   6.449   7.764
   20POPC   C1A  546   0.631   6.419   7.338
   20POPC   D2A  547   0.453   6.556   6.951
   20POPC   C3A  548   0.653   6.512   6.566
   20POPC   C4A  549   0.473   6.278   6.228
   20POPC   C1B  550   0.131   6.639   7.368
   20POPC   C2B  551   0.028   6.840   6.970
   20POPC   C3B  552   0.117   6.699   6.582
   20POPC   C4B  553   0.318   6.770   6.205
   21POPC   NC3  554   2.454   2.093   8.057
   21POPC   PO4  555   2.507   1.413   8.082
   21POPC   GL1  556   2.690   1.660   7.750
   21POPC   GL2  557   2.766   2.020   7.640
   21POPC   C1A  558   2.648   1.606   7.334
   21POPC   D2A  559   2.784   1.809   6.982
   21POPC   C3A  560   2.595   1.704   6.615
   21POPC   C4A  561   2.524   1.526   6.240
   21POPC   C1B  562   2.477   2.080   7.305
   21POPC   C2B  563   2.340   2.161   6.879
   21POPC   C3B  564   2.444   2.172   6.451
   21POPC   C4B  565   2.860   2.057   6.326
   22POPC   NC3  566   9.098   0.064   8.098
   22POPC   PO4  567   9.203   9.941   7.905
   22POPC   GL1  568   9.349  10.336   7.705
   22POPC   GL2  569   9.683  10.284   7.589
   22POPC   C1A  570   9.373   0.022   7.285
   22POPC   D2A  571   9.502  10.373   6.876
   22POPC   C3A  572   9.164  10.379   6.559
   22POPC   C4A  573   9.030   0.063   6.162
   22POPC   C1B  574   9.566   9.998   7.295
   22POPC   C2B  575   9.662   9.861   6.882
   22POPC   C3B  576   9.515   9.988   6.545
   22POPC   C4B  577   9.703  10.331   6.299
   23POPC   NC3  578   9.685   8.574   8.062
   23POPC   PO4  579   9.177   8.328   7.769
   23POPC   GL1  580   9.471   8.589   7.600
   23POPC   GL2  581   9.439   8.933   7.752
   23POPC   C1A  582   9.691   8.543   7.229
   23POPC   D2A  583   9.547   8.485   6.867
   23POPC   C3A  584   9.812   8.459   6.573
   23POPC   C4A  585   9.697   8.364   6.199
   23POPC   C1B  586   9.627   9.033   7.368
   23POPC   C2B  587   9.489   8.990   6.963
   23POPC   C3B  588   9.635   8.942   6.544
   23POPC   C4B  589   9.363   8.791   6.242
   24POPC   NC3  590   5.525   2.115   8.263
   24POPC   PO4  591   6.044   2.285   7.775
   24POPC   GL1  592   5.706   2.395   7.545
   24POPC   GL2  593   5.633   2.745   7.591
   24POPC   C1A  594   5.714   2.487   7.113
   24POPC   D2A  595   5.722   2.327   6.731
   24POPC   C3A  596   5.751   2.550   6.383
   24POPC   C4A  597   5.556   2.740   6.005
   24POPC   C1B  598   5.591   2.981   7.180
   24POPC   C2B  599   5.503   2.852   6.750
   24POPC   C3B  600   5.737   3.065   6.396
   24POPC   C4B  601   6.006   3.101   6.037
   25POPC   NC3  602   7.422   4.200   8.048
   25POPC   PO4  603   6.937   3.836   7.931
   25POPC   GL1  604   7.241   3.892   7.604
   25POPC   GL2  605   7.138   4.227   7.615
   25POPC   C1A  606   7.468   4.171   7.253
   25POPC   D2A  607   7.497   4.374   6.827
   25POPC   C3A  608   7.411   4.081   6.478
   25POPC   C4A  609   7.200   4.061   6.058
   25POPC   C1B  610   6.960   4.049   7.202
   25POPC   C2B  611   6.979   4.146   6.760
   25POPC   C3B  612   6.766   4.180   6.351
   25POPC   C4B  613   6.878   4.472   6.043
   26POPC   NC3  614   2.651  10.040   7.975
   26POPC   PO4  615   3.177   0.010   8.210
   26POPC   GL1  616   3.004  10.412   7.815
   26POPC   GL2  617   2.646  10.499   7.777
   26POPC   C1A  618   2.981  10.320   7.370
   26POPC   D2A  619   3.135  10.208   6.977
   26POPC   C3A  620   2.824  10.198   6.688
   26POPC   C4A  621   2.638  10.379   6.353
   26POPC   C1B  622   2.446  10.286   7.393
   26POPC   C2B  623   2.426  10.083   6.980
   26POPC   C3B  624   2.251  10.106   6.569
   26POPC   C4B  625   2.472   9.857   6.323
   27POPC   NC3  626   1.037   0.249   8.129
   27POPC   PO4  627   0.956   0.957   8.027
   27POPC   GL1  628   1.156   0.618   7.727
   27POPC   GL2  629   1.228   0.282   7.680
   27POPC   C1A  630   0.973   0.472   7.310
   27POPC   D2A  631   1.074   0.489   6.855
   27POPC   C3A  632   0.897   0.271   6.476
   27POPC   C4A  633   0.858   0.508   6.069
   27POPC   C1B  634   1.475   0.355   7.315
   27POPC   C2B  635   1.495   0.226   6.922
   27POPC   C3B  636   1.417   0.339   6.504
   27POPC   C4B  637   1.408   0.420   6.087
   28POPC   NC3  638   4.406  10.289   8.081
   28POPC   PO4  639   3.873   9.969   7.896
   28POPC   GL1  640   4.072  10.041   7.540
   28POPC   GL2  641   4.202  10.348   7.619
   28POPC   C1A  642   4.001  10.189   7.113
   28POPC   D2A  643   3.909   9.946   6.733
   28POPC   C3A  644   4.206   9.829   6.384
   28POPC   C4A  645   4.186   9.918   5.911
   28POPC   C1B  646   4.494  10.204   7.283
   28POPC   C2B  647   4.480  10.171   6.841
   28POPC   C3B  648   4.206  10.344   6.547
   28POPC   C4B  649   4.255  10.375   6.136
   29POPC   NC3  650   8.134   1.798   7.999
   29POPC   PO4  651   8.577   1.899   8.291
   29POPC   GL1  652   8.619   1.823   7.829
   29POPC   GL2  653   8.910   1.651   7.829
   29POPC   C1A  654   8.477   1.965   7.381
   29POPC   D2A  655   8.363   2.173   6.931
   29POPC   C3A  656   8.480   2.038   6.497
   29POPC   C4A  657   8.556   2.002   6.033
   29POPC   C1B  658   8.918   1.657   7.365
   29POPC   C2B  659   8.773   1.833   6.957
   29POPC   C3B  660   8.896   1.758   6.517
   29POPC   C4B  661   9.037   2.127   6.303
   30POPC   NC3  662   3.376   4.205   7.980
   30POPC   PO4  663   3.785   3.696   8.134
   30POPC   GL1  664   3.669   3.884   7.653
   30POPC   GL2  665   3.339   4.077   7.487
   30POPC   C1A  666   3.643   3.860   7.163
   30POPC   D2A  667   3.453   4.152   6.848
   30POPC   C3A  668   3.681   4.173   6.445
   30POPC   C4A  669   3.727   3.947   6.059
   30POPC   C1B  670   3.139   4.437   7.262
   30POPC   C2B  671   3.130   4.609   6.811
   30POPC   C3B  672   3.215   4.376   6.430
   30POPC   C4B  673   3.468   4.462   6.063
   31POPC   NC3  674   3.666   1.288   8.380
   31POPC   PO4  675   4.298   1.436   8.172
   31POPC   GL1  676   4.157   1.317   7.781
   31POPC   GL2  677   4.315   0.977   7.752
   31POPC   C1A  678   3.913   1.125   7.439
   31POPC   D2A  679   3.924   0.824   7.078
   31POPC   C3A  680   3.905   1.005   6.653
   31POPC   C4A  681   3.956   1.283   6.291
   31POPC   C1B  682   4.414   1.170   7.343
   31POPC   C2B  683   4.441   1.003   6.933
   31POPC   C3B  684   4.396   1.114   6.531
   31POPC   C4B  685   4.256   0.876   6.240
   32POPC   NC3  686   1.998   9.138   8.167
   32POPC   PO4  687   2.173   8.491   8.172
   32POPC   GL1  688   1.872   8.651   7.833
   32POPC   GL2  689   1.617   8.929   7.879
   32POPC   C1A  690   1.815   8.531   7.385
   32POPC   D2A  691   2.030   8.343   7.023
   32POPC   C3A  692   1.993   8.574   6.650
   32POPC   C4A  693   2.289   8.828   6.407
   32POPC   C1B  694   1.596   9.006   7.428
   32POPC   C2B  695   1.653   8.881   6.994
   32POPC   C3B  696   1.500   8.776   6.576
   32POPC   C4B  697   1.743   8.680   6.215
   33POPC   NC3  698   0.222   4.992   8.078
   33POPC   PO4  699   0.770   5.382   8.144
   33POPC   GL1  700   0.622   5.274   7.716
   33POPC   GL2  701   0.455   4.967   7.644
   33POPC   C1A  702   0.735   5.164   7.273
   33POPC   D2A  703   0.561   5.157   6.873
   33POPC   C3A  704   0.776   5.056   6.497
   33POPC   C4A  705   0.649   4.991   6.067
   33POPC   C1B  706   0.262   4.920   7.258
   33POPC   C2B  707   0.098   4.968   6.851
   33POPC   C3B  708   0.236   4.987   6.405
   33POPC   C4B  709   0.276   4.637   6.082
   34POPC   NC3  710   9.942   4.921   8.047
   34POPC   PO4  711   0.009   4.581   8.040
   34POPC   GL1  712  10.311   4.736   7.719
   34POPC   GL2  713  10.331   5.089   7.744
   34POPC   C1A  714  10.291   4.681   7.299
   34POPC   D2A  715  10.110   4.879   6.960
   34POPC   C3A  716  10.230   4.771   6.545
   34POPC   C4A  717  10.314   4.867   6.127
   34POPC   C1B  718  10.343   5.200   7.321
   34POPC   C2B  719  10.234   5.389   6.954
   34POPC   C3B  720  10.409   5.362   6.581
   34POPC   C4B  721  10.092   5.256   6.353
   35POPC   NC3  722   7.849   0.965   8.423
   35POPC   PO4  723   8.073   0.431   8.029
   35POPC   GL1  724   8.188   0.468   7.605
   35POPC   GL2  725   7.828   0.550   7.552
   35POPC   C1A  726   8.131   0.478   7.137
   35POPC   D2A  727   8.235   0.733   6.783
   35POPC   C3A  728   8.107   0.677   6.332
   35POPC   C4A  729   8.299   0.527   5.914
   35POPC   C1B  730   7.802   0.158   7.360
   35POPC   C2B  731   7.765  10.448   6.971
   35POPC   C3B  732   7.697  10.499   6.549
   35POPC   C4B  733   7.763   0.283   6.169
   36POPC   NC3  734   8.120   5.815   8.597
   36POPC   PO4  735   8.013   5.400   8.102
   36POPC   GL1  736   8.127   5.446   7.676
   36POPC   GL2  737   8.131   5.803   7.681
   36POPC   C1A  738   7.910   5.496   7.267
   36POPC   D2A  739   7.647   5.282   6.935
   36POPC   C3A  740   7.786   5.326   6.513
   36POPC   C4A  741   8.102   5.585   6.373
   36POPC   C1B  742   8.082   5.977   7.294
   36POPC   C2B  743   7.793   5.939   6.967
   36POPC   C3B  744   7.896   6.008   6.554
   36POPC   C4B  745   7.738   5.957   6.142
   37POPC   NC3  746   8.548   0.469   8.124
   37POPC   PO4  747   8.935   0.959   7.986
   37POPC   GL1  748   8.708   0.698   7.647
   37POPC   GL2  749   8.724   0.323   7.652
   37POPC   C1A  750   8.633   0.521   7.209
   37POPC   D2A  751   8.751   0.282   6.854
   37POPC   C3A  752   8.611   0.478   6.472
   37POPC   C4A  753   8.818   0.539   6.088
   37POPC   C1B  754   8.463   0.063   7.372
   37POPC   C2B  755   8.300   0.004   6.969
   37POPC   C3B  756   8.145   0.239   6.650
   37POPC   C4B  757   8.242   0.179   6.250
   38POPC   NC3  758   3.236   7.098   8.095
   38POPC   PO4  759   2.591   6.970   8.120
   38POPC   GL1  760   2.861   7.029   7.718
   38POPC   GL2  761   2.951   7.387   7.754
   38POPC   C1A  762   2.785   6.909   7.251
   38POPC   D2A  763   2.621   6.832   6.831
   38POPC   C3A  764   2.867   6.879   6.453
   38POPC   C4A  765   2.903   7.197   6.121
   38POPC   C1B  766   2.702   7.399   7.348
   38POPC   C2B  767   2.586   7.464   6.914
   38POPC   C3B  768   2.500   7.253   6.530
   38POPC   C4B  769   2.501   7.522   6.202
   39POPC   NC3  770   4.699   8.626   8.060
   39POPC   PO4  771   5.373   8.646   8.115
   39POPC   GL1  772   5.132   8.815   7.775
   39POPC   GL2  773   5.090   8.507   7.608
   39POPC   C1A  774   5.045   8.978   7.337
   39POPC   D2A  775   5.071   8.737   6.923
   39POPC   C3A  776   5.018   8.927   6.531
   39POPC   C4A  777   5.218   9.095   6.184
   39POPC   C1B  778   4.769   8.554   7.269
   39POPC   C2B  779   4.623   8.477   6.863
   39POPC   C3B  780   4.872   8.433   6.540
   39POPC   C4B  781   4.838   8.394   6.148
   40POPC   NC3  782   5.847   1.902   7.893
   40POPC   PO4  783   5.244   1.758   8.132
   40POPC   GL1  784   5.375   2.050   7.772
   40POPC   GL2  785   5.484   1.788   7.566
   40POPC   C1A  786   5.348   2.148   7.274
   40POPC   D2A  787   5.460   1.892   6.907
   40POPC   C3A  788   5.417   2.023   6.474
   40POPC   C4A  789   5.505   1.737   6.158
   40POPC   C1B  790   5.846   1.972   7.238
   40POPC   C2B  791   6.102   2.014   6.813
   40POPC   C3B  792   5.935   1.971   6.372
   40POPC   C4B  793   5.697   2.183   6.033
   41POPC   NC3  794   0.328   2.137   8.082
   41POPC   PO4  795   0.676   1.592   8.134
   41POPC   GL1  796   0.498   1.751   7.711
   41POPC   GL2  797   0.566   2.112   7.630
   41POPC   C1A  798   0.546   1.805   7.237
   41POPC   D2A  799   0.760   1.991   6.929
   41POPC   C3A  800   0.580   2.056   6.564
   41POPC   C4A  801   0.683   1.824   6.219
   41POPC   C1B  802   0.175   2.283   7.403
   41POPC   C2B  803   0.142   2.470   6.980
   41POPC   C3B  804   0.029   2.331   6.563
   41POPC   C4B  805   0.184   2.069   6.245
   42POPC   NC3  806   6.036   1.014   7.917
   42POPC   PO4  807   6.584   0.708   8.151
   42POPC   GL1  808   6.533   0.963   7.783
   42POPC   GL2  809   6.442   1.333   7.799
   42POPC   C1A  810   6.386   0.950   7.359
   42POPC   D2A  811   6.195   1.211   7.054
   42POPC   C3A  812   6.105   1.094   6.623
   42POPC   C4A  813   6.321   1.123   6.222
   42POPC   C1B  814   6.689   1.367   7.420
   42POPC   C2B  815   6.738   1.183   7.049
   42POPC   C3B  816   6.603   1.207   6.668
   42POPC   C4B  817   6.696   1.477   6.337
   43POPC   NC3  818   1.305   1.925   8.119
   43POPC   PO4  819   1.430   2.591   8.202
   43POPC   GL1  820   1.387   2.357   7.761
   43POPC   GL2  821   1.198   2.024   7.638
   43POPC   C1A  822   1.471   2.221   7.285
   43POPC   D2A  823   1.508   1.941   6.873
   43POPC   C3A  824   1.472   2.186   6.465
   43POPC   C4A  825   1.479   2.166   5.995
   43POPC   C1B  826   1.088   1.774   7.297
   43POPC   C2B  827   1.140   1.600   6.909
   43POPC   C3B  828   1.081   1.861   6.562
   43POPC   C4B  829   1.289   1.747   6.230
   44POPC   NC3  830   2.624   4.041   8.058
   44POPC   PO4  831   3.197   3.797   7.868
   44POPC   GL1  832   2.880   3.831   7.603
   44POPC   GL2  833   2.807   4.179   7.588
   44POPC   C1A  834   2.969   3.889   7.183
   44POPC   D2A  835   2.865   4.192   6.912
   44POPC   C3A  836   2.820   4.062   6.536
   44POPC   C4A  837   2.845   4.166   6.117
   44POPC   C1B  838   2.480   4.052   7.243
   44POPC   C2B  839   2.357   4.250   6.817
   44POPC   C3B  840   2.380   4.280   6.346
   44POPC   C4B  841   2.483   4.481   5.946
   45POPC   NC3  842   8.488   7.897   8.164
   45POPC   PO4  843   9.062   8.188   8.325
   45POPC   GL1  844   8.818   8.020   7.825
   45POPC   GL2  845   8.518   8.065   7.674
   45POPC   C1A  846   8.975   7.804   7.402
   45POPC   D2A  847   9.057   7.930   6.961
   45POPC   C3A  848   8.970   7.816   6.540
   45POPC   C4A  849   9.003   7.548   6.170
   45POPC   C1B  850   8.638   8.158   7.251
   45POPC   C2B  851   8.574   8.008   6.856
   45POPC   C3B  852   8.582   8.177   6.472
   45POPC   C4B  853   8.678   7.959   6.129
   46POPC   NC3  854   9.821  10.256   8.060
   46POPC   PO4  855  10.406   0.152   8.077
   46POPC   GL1  856  10.440  10.408   7.742
   46POPC   GL2  857  10.298  10.078   7.810
   46POPC   C1A  858  10.345  10.489   7.332
   46POPC   D2A  859  10.485   0.106   6.920
   46POPC   C3A  860  10.257   0.027   6.561
   46POPC   C4A  861  10.311  10.377   6.141
   46POPC   C1B  862  10.092  10.030   7.406
   46POPC   C2B  863   9.981  10.242   7.022
   46POPC   C3B  864  10.031  10.082   6.608
   46POPC   C4B  865  10.100   9.941   6.223
   47POPC   NC3  866   1.017   4.385   8.059
   47POPC   PO4  867   1.529   4.420   8.475
   47POPC   GL1  868   1.413   4.132   7.913
   47POPC   GL2  869   1.116   3.946   7.761
   47POPC   C1A  870   1.434   4.236   7.393
   47POPC   D2A  871   1.419   4.495   6.953
   47POPC   C3A  872   1.407   4.229   6.549
   47POPC   C4A  873   1.500   4.246   6.080
   47POPC   C1B  874   0.927   4.151   7.397
   47POPC   C2B  875   0.936   4.309   6.977
   47POPC   C3B  876   0.892   4.141   6.564
   47POPC   C4B  877   1.054   4.020   6.173
   48POPC   NC3  878   2.151   0.402   8.061
   48POPC   PO4  879   1.477   0.405   8.104
   48POPC   GL1  880   1.740   0.305   7.752
   48POPC   GL2  881   1.677   0.655   7.662
   48POPC   C1A  882   2.041   0.156   7.411
   48POPC   D2A  883   2.067  10.454   6.993
   48POPC   C3A  884   2.275   0.108   6.629
   48POPC   C4A  885   2.177   0.016   6.191
   48POPC   C1B  886   2.075   0.673   7.412
   48POPC   C2B  887   2.220   0.473   7.031
   48POPC   C3B  888   1.912   0.433   6.723
   48POPC   C4B  889   1.881   0.409   6.294
   49POPC   NC3  890   6.899   0.386   8.026
   49POPC   PO4  891   7.341   0.799   8.123
   49POPC   GL1  892   7.323   0.734   7.678
   49POPC   GL2  893   7.352   0.369   7.654
   49POPC   C1A  894   7.384   0.673   7.229
   49POPC   D2A  895   7.343   0.338   6.909
   49POPC   C3A  896   7.592   0.501   6.591
   49POPC   C4A  897   7.579   0.777   6.238
   49POPC   C1B  898   7.014   0.340   7.350
   49POPC   C2B  899   6.847   0.161   6.965
   49POPC   C3B  900   6.908   0.353   6.583
   49POPC   C4B  901   7.215   0.383   6.239
   50POPC   NC3  902   6.863   2.945   8.192
   50POPC   PO4  903   7.546   3.120   8.051
   50POPC   GL1  904   7.481   2.852   7.675
   50POPC   GL2  905   7.293   2.525   7.759
   50POPC   C1A  906   7.461   2.653   7.258
   50POPC   D2A  907   7.067   2.655   7.015
   50POPC   C3A  908   7.061   2.760   6.611
   50POPC   C4A  909   6.914   3.003   6.262
   50POPC   C1B  910   7.173   2.238   7.396
   50POPC   C2B  911   7.231   2.190   6.974
   50POPC   C3B  912   7.450   2.434   6.629
   50POPC   C4B  913   7.303   2.599   6.215
   51POPC   NC3  914   6.873   9.908   8.411
   51POPC   PO4  915   7.379   9.954   7.905
   51POPC   GL1  916   7.205  10.073   7.535
   51POPC   GL2  917   7.093  10.412   7.670
   51POPC   C1A  918   7.057   9.824   7.219
   51POPC   D2A  919   7.158   9.677   6.843
   51POPC   C3A  920   7.078   9.947   6.560
   51POPC   C4A  921   6.926  10.058   6.198
   51POPC   C1B  922   7.335  10.465   7.283
   51POPC   C2B  923   7.198  10.304   6.925
   51POPC   C3B  924   7.191  10.439   6.513
   51POPC   C4B  925   7.409  10.218   6.223
   52POPC   NC3  926  10.177   1.380   8.125
   52POPC   PO4  927   9.846   0.900   7.989
   52POPC   GL1  928  10.081   1.122   7.675
   52POPC   GL2  929  10.093   1.528   7.645
   52POPC   C1A  930  10.104   0.877   7.309
   52POPC   D2A  931  10.238   0.941   6.900
   52POPC   C3A  932   9.980   1.020   6.564
   52POPC   C4A  933  10.094   0.925   6.204
   52POPC   C1B  934  10.281   1.378   7.265
   52POPC   C2B  935  10.152   1.445   6.844
   52POPC   C3B  936  10.402   1.282   6.534
   52POPC   C4B  937   0.019   1.225   6.134
   53POPC   NC3  938   8.500   7.123   7.938
   53POPC   PO4  939   8.947   7.618   8.107
   53POPC   GL1  940   8.662   7.544   7.715
   53POPC   GL2  941   8.741   7.217   7.519
   53POPC   C1A  942   8.525   7.590   7.265
   53POPC   D2A  943   8.756   7.504   6.893
   53POPC   C3A  944   8.517   7.606   6.510
   53POPC   C4A  945   8.504   7.436   6.091
   53POPC   C1B  946   8.400   7.068   7.258
   53POPC   C2B  947   8.324   7.229   6.854
   53POPC   C3B  948   8.488   7.088   6.511
   53POPC   C4B  949   8.714   6.987   6.200
   54POPC   NC3  950   8.857   3.913   8.114
   54POPC   PO4  951   8.493   4.523   8.077
   54POPC   GL1  952   8.524   4.254   7.671
   54POPC   GL2  953   8.813   4.123   7.658
   54POPC   C1A  954   8.460   3.902   7.356
   54POPC   D2A  955   8.443   3.751   6.945
   54POPC   C3A  956   8.502   4.069   6.663
   54POPC   C4A  957   8.516   3.776   6.350
   54POPC   C1B  958   8.912   4.384   7.324
   54POPC   C2B  959   8.772   4.477   6.909
   54POPC   C3B  960   8.899   4.426   6.511
   54POPC   C4B  961   8.712   4.207   6.204
   55POPC   NC3  962   9.296   7.286   8.174
   55POPC   PO4  963   9.080   6.670   8.315
   55POPC   GL1  964   9.311   6.874   7.824
   55POPC   GL2  965   9.511   7.192   7.716
   55POPC   C1A  966   9.181   7.088   7.352
   55POPC   D2A  967   8.933   6.998   6.953
   55POPC   C3A  968   9.029   7.211   6.553
   55POPC   C4A  969   9.212   7.087   6.138
   55POPC   C1B  970   9.679   7.016   7.345
   55POPC   C2B  971   9.488   6.971   6.948
   55POPC   C3B  972   9.537   7.106   6.561
   55POPC   C4B  973   9.811   7.009   6.269
   56POPC   NC3  974  10.132   7.647   8.037
   56POPC   PO4  975  10.464   8.201   8.241
   56POPC   GL1  976  10.390   8.013   7.789
   56POPC   GL2  977  10.101   7.923   7.642
   56POPC   C1A  978  10.381   7.791   7.288
   56POPC   D2A  979   0.062   7.920   6.964
   56POPC   C3A  980  10.307   7.766   6.702
   56POPC   C4A  981  10.357   7.782   6.303
   56POPC   C1B  982   9.917   7.994   7.282
   56POPC   C2B  983  10.013   8.136   6.916
   56POPC   C3B  984   9.883   7.963   6.507
   56POPC   C4B  985   9.803   7.871   6.105
   57POPC   NC3  986   1.621   2.983   8.367
   57POPC   PO4  987   0.966   3.105   8.091
   57POPC   GL1  988   0.977   3.364   7.718
   57POPC   GL2  989   1.331   3.449   7.689
   57POPC   C1A  990   1.034   3.264   7.299
   57POPC   D2A  991   1.286   3.225   6.951
   57POPC   C3A  992   1.044   3.273   6.597
   57POPC   C4A  993   1.173   3.367   6.199
   57POPC   C1B  994   1.261   3.732   7.326
   57POPC   C2B  995   1.087   3.811   6.934
   57POPC   C3B  996   1.247   3.738   6.540
   57POPC   C4B  997   1.544   3.744   6.191
   58POPC   NC3  998  10.326   3.696   8.044
   58POPC   PO4  999   9.995   3.164   8.299
   58POPC   GL1 1000   9.967   3.156   7.795
   58POPC   GL2 1001  10.093   3.436   7.627
   58POPC   C1A 1002  10.033   2.989   7.360
   58POPC   D2A 1003   9.905   3.163   6.940
   58POPC   C3A 1004  10.114   3.134   6.560
   58POPC   C4A 1005  10.002   3.230   6.154
   58POPC   C1B 1006  10.080   3.596   7.221
   58POPC   C2B 1007  10.274   3.536   6.843
   58POPC   C3B 1008  10.253   3.682   6.429
   58POPC   C4B 1009  10.073   3.714   6.043
   59POPC   NC3 1010   7.081   7.777   8.393
   59POPC   PO4 1011   7.250   7.832   7.875
   59POPC   GL1 1012   7.118   7.985   7.559
   59POPC   GL2 1013   6.995   8.329   7.532
   59POPC   C1A 1014   7.139   7.755   7.218
   59POPC   D2A 1015   7.347   7.601   6.880
   59POPC   C3A 1016   7.169   7.679   6.463
   59POPC   C4A 1017   7.303   7.665   5.994
   59POPC   C1B 1018   7.302   8.263   7.201
   59POPC   C2B 1019   7.137   8.098   6.851
   59POPC   C3B 1020   7.193   8.187   6.489
   59POPC   C4B 1021   7.021   8.045   6.128
   60POPC   NC3 1022   2.622   6.510   8.111
   60POPC   PO4 1023   3.015   5.948   8.005
   60POPC   GL1 1024   2.803   6.213   7.658
   60POPC   GL2 1025   2.681   6.553   7.616
   60POPC   C1A 1026   2.906   6.366   7.201
   60POPC   D2A 1027   3.167   6.248   6.815
   60POPC   C3A 1028   3.040   6.385   6.397
   60POPC   C4A 1029   3.067   6.143   5.978
   60POPC   C1B 1030   2.347   6.318   7.377
   60POPC   C2B 1031   2.225   6.237   6.942
   60POPC   C3B 1032   2.432   6.406   6.536
   60POPC   C4B 1033   2.606   6.362   6.113
   61POPC   NC3 1034   8.130   4.225   7.981
   61POPC   PO4 1035   7.659   3.805   8.198
   61POPC   GL1 1036   7.689   3.742   7.778
   61POPC   GL2 1037   7.755   4.063   7.656
   61POPC   C1A 1038   7.731   3.697   7.320
   61POPC   D2A 1039   7.701   3.909   6.897
   61POPC   C3A 1040   8.021   3.903   6.584
   61POPC   C4A 1041   8.170   4.109   6.224
   61POPC   C1B 1042   7.999   4.159   7.263
   61POPC   C2B 1043   8.036   4.335   6.831
   61POPC   C3B 1044   7.829   4.421   6.427
   61POPC   C4B 1045   7.516   4.473   6.102
   62POPC   NC3 1046   0.146   0.517   7.935
   62POPC   PO4 1047   0.619   0.074   8.055
   62POPC   GL1 1048   0.648   0.254   7.656
   62POPC   GL2 1049   0.656   0.586   7.802
   62POPC   C1A 1050   0.439   0.133   7.233
   62POPC   D2A 1051   0.457   0.181   6.755
   62POPC   C3A 1052   0.282  10.471   6.359
   62POPC   C4A 1053   0.576   0.077   6.013
   62POPC   C1B 1054   0.499   0.680   7.394
   62POPC   C2B 1055   0.606   0.603   7.001
   62POPC   C3B 1056   0.624   0.677   6.596
   62POPC   C4B 1057   0.398   0.446   6.317
   63POPC   NC3 1058   0.236   4.438   8.416
   63POPC   PO4 1059   0.316   3.828   8.081
   63POPC   GL1 1060   0.565   4.100   7.768
   63POPC   GL2 1061   0.470   4.447   7.717
   63POPC   C1A 1062   0.420   4.104   7.312
   63POPC   D2A 1063   0.547   3.977   6.916
   63POPC   C3A 1064   0.390   4.098   6.517
   63POPC   C4A 1065   0.547   4.006   6.128
   63POPC   C1B 1066   0.635   4.579   7.333
   63POPC   C2B 1067   0.460   4.525   6.937
   63POPC   C3B 1068   0.551   4.592   6.527
   63POPC   C4B 1069   0.746   4.455   6.162
   64POPC   NC3 1070   3.983   0.692   8.099
   64POPC   PO4 1071   3.987   0.022   8.139
   64POPC   GL1 1072   3.943   0.273   7.775
   64POPC   GL2 1073   4.278   0.425   7.736
   64POPC   C1A 1074   3.932   0.179   7.334
   64POPC   D2A 1075   3.743   0.329   6.961
   64POPC   C3A 1076   3.834   0.236   6.529
   64POPC   C4A 1077   3.828   0.609   6.305
   64POPC   C1B 1078   4.423   0.213   7.355
   64POPC   C2B 1079   4.258   0.182   6.942
   64POPC   C3B 1080   4.190   0.553   6.690
   64POPC   C4B 1081   4.312   0.370   6.306
   65POPC   NC3 1082   5.029   9.554   8.236
   65POPC   PO4 1083   4.677   9.082   8.105
   65POPC   GL1 1084   5.037   9.324   7.783
   65POPC   GL2 1085   5.106   9.713   7.754
   65POPC   C1A 1086   5.222   9.465   7.342
   65POPC   D2A 1087   4.958   9.398   6.990
   65POPC   C3A 1088   5.169   9.414   6.607
   65POPC   C4A 1089   5.070   9.603   6.252
   65POPC   C1B 1090   4.742   9.593   7.457
   65POPC   C2B 1091   4.518   9.694   7.071
   65POPC   C3B 1092   4.637   9.635   6.625
   65POPC   C4B 1093   4.707   9.282   6.350
   66POPC   NC3 1094   2.765   5.030   8.108
   66POPC   PO4 1095   3.004   4.463   8.055
   66POPC   GL1 1096   2.824   4.697   7.718
   66POPC   GL2 1097   2.462   4.754   7.782
   66POPC   C1A 1098   2.720   5.008   7.386
   66POPC   D2A 1099   2.775   5.340   7.094
   66POPC   C3A 1100   2.880   5.106   6.722
   66POPC   C4A 1101   2.874   5.178   6.297
   66POPC   C1B 1102   2.503   4.539   7.370
   66POPC   C2B 1103   2.633   4.676   6.974
   66POPC   C3B 1104   2.591   4.722   6.533
   66POPC   C4B 1105   2.871   4.668   6.204
   67POPC   NC3 1106   8.858   8.505   8.055
   67POPC   PO4 1107   8.955   9.159   8.109
   67POPC   GL1 1108   8.930   8.870   7.705
   67POPC   GL2 1109   8.738   8.549   7.584
   67POPC   C1A 1110   9.119   8.807   7.301
   67POPC   D2A 1111   9.067   8.436   7.059
   67POPC   C3A 1112   9.080   8.535   6.620
   67POPC   C4A 1113   8.981   8.384   6.215
   67POPC   C1B 1114   8.602   8.718   7.232
   67POPC   C2B 1115   8.599   8.557   6.832
   67POPC   C3B 1116   8.620   8.692   6.406
   67POPC   C4B 1117   8.498   8.440   6.018
   68POPC   NC3 1118   5.291   0.394   7.801
   68POPC   PO4 1119   4.929  10.475   8.133
   68POPC   GL1 1120   4.771   0.200   7.756
   68POPC   GL2 1121   4.787   0.571   7.753
   68POPC   C1A 1122   4.908   0.263   7.314
   68POPC   D2A 1123   5.141   0.466   7.034
   68POPC   C3A 1124   5.103   0.410   6.633
   68POPC   C4A 1125   5.047   0.373   6.225
   68POPC   C1B 1126   4.621   0.692   7.350
   68POPC   C2B 1127   4.647   0.517   6.934
   68POPC   C3B 1128   4.664   0.665   6.529
   68POPC   C4B 1129   4.696   0.697   6.106
   69POPC   NC3 1130   9.355   5.449   7.955
   69POPC   PO4 1131   9.765   5.974   8.198
   69POPC   GL1 1132   9.730   5.798   7.804
   69POPC   GL2 1133   9.406   5.862   7.633
   69POPC   C1A 1134   9.843   5.913   7.392
   69POPC   D2A 1135   9.546   6.011   7.097
   69POPC   C3A 1136   9.621   5.989   6.667
   69POPC   C4A 1137   9.439   5.916   6.286
   69POPC   C1B 1138   9.399   5.544   7.289
   69POPC   C2B 1139   9.230   5.347   6.916
   69POPC   C3B 1140   9.150   5.484   6.519
   69POPC   C4B 1141   9.193   5.326   6.140
   70POPC   NC3 1142   4.307   2.779   7.876
   70POPC   PO4 1143   3.876   2.336   8.061
   70POPC   GL1 1144   3.957   2.499   7.618
   70POPC   GL2 1145   3.863   2.841   7.567
   70POPC   C1A 1146   4.290   2.484   7.255
   70POPC   D2A 1147   4.459   2.723   6.868
   70POPC   C3A 1148   4.257   2.776   6.470
   70POPC   C4A 1149   4.106   2.552   6.115
   70POPC   C1B 1150   3.833   2.685   7.157
   70POPC   C2B 1151   3.828   2.676   6.721
   70POPC   C3B 1152   3.752   2.877   6.353
   70POPC   C4B 1153   3.702   2.751   5.912
   71POPC   NC3 1154   7.049   6.989   8.431
   71POPC   PO4 1155   7.523   6.828   8.020
   71POPC   GL1 1156   7.579   6.695   7.653
   71POPC   GL2 1157   7.385   6.404   7.652
   71POPC   C1A 1158   7.416   6.806   7.255
   71POPC   D2A 1159   7.135   6.806   6.937
   71POPC   C3A 1160   7.269   6.793   6.527
   71POPC   C4A 1161   7.104   6.521   6.219
   71POPC   C1B 1162   7.206   6.345   7.197
   71POPC   C2B 1163   7.114   6.338   6.737
   71POPC   C3B 1164   6.993   6.073   6.428
   71POPC   C4B 1165   7.216   6.016   6.045
   72POPC   NC3 1166   1.095   5.701   8.100
   72POPC   PO4 1167   1.510   6.199   8.046
   72POPC   GL1 1168   1.541   5.841   7.730
   72POPC   GL2 1169   1.338   5.513   7.704
   72POPC   C1A 1170   1.548   5.702   7.289
   72POPC   D2A 1171   1.328   5.845   6.934
   72POPC   C3A 1172   1.516   5.952   6.540
   72POPC   C4A 1173   1.333   5.779   6.189
   72POPC   C1B 1174   1.047   5.576   7.359
   72POPC   C2B 1175   1.074   5.377   6.947
   72POPC   C3B 1176   1.105   5.534   6.559
   72POPC   C4B 1177   0.932   5.417   6.168
   73POPC   NC3 1178   3.597  10.269   8.121
   73POPC   PO4 1179   3.088   9.876   7.905
   73POPC   GL1 1180   3.398  10.080   7.642
   73POPC   GL2 1181   3.655  10.355   7.630
   73POPC   C1A 1182   3.504   9.945   7.238
   73POPC   D2A 1183   3.466   9.698   6.869
   73POPC   C3A 1184   3.306   9.966   6.547
   73POPC   C4A 1185   2.962   9.988   6.255
   73POPC   C1B 1186   3.497  10.453   7.243
   73POPC   C2B 1187   3.605  10.358   6.820
   73POPC   C3B 1188   3.696  10.273   6.391
   73POPC   C4B 1189   3.740   9.901   6.206
   74POPC   NC3 1190   0.266   8.417   7.957
   74POPC   PO4 1191   0.815   8.749   8.085
   74POPC   GL1 1192   0.703   8.546   7.731
   74POPC   GL2 1193   0.515   8.802   7.608
   74POPC   C1A 1194   0.795   8.490   7.309
   74POPC   D2A 1195   0.648   8.752   6.972
   74POPC   C3A 1196   0.768   8.582   6.600
   74POPC   C4A 1197   0.629   8.582   6.214
   74POPC   C1B 1198   0.212   8.807   7.280
   74POPC   C2B 1199   0.161   8.854   6.858
   74POPC   C3B 1200   0.231   8.597   6.532
   74POPC   C4B 1201   0.072   8.541   6.152
   75POPC   NC3 1202   1.081   6.419   8.045
   75POPC   PO4 1203   0.928   6.989   8.240
   75POPC   GL1 1204   1.167   6.866   7.773
   75POPC   GL2 1205   1.051   6.578   7.576
   75POPC   C1A 1206   1.443   6.719   7.326
   75POPC   D2A 1207   1.210   6.545   6.934
   75POPC   C3A 1208   1.398   6.535   6.482
   75POPC   C4A 1209   1.309   6.512   6.003
   75POPC   C1B 1210   1.105   6.172   7.373
   75POPC   C2B 1211   0.895   6.117   6.983
   75POPC   C3B 1212   1.037   6.132   6.565
   75POPC   C4B 1213   0.992   6.149   6.134
   76POPC   NC3 1214   0.069   4.166   7.855
   76POPC   PO4 1215  10.035   4.435   8.205
   76POPC   GL1 1216  10.067   4.273   7.778
   76POPC   GL2 1217  10.139   3.942   7.637
   76POPC   C1A 1218   9.939   4.290   7.336
   76POPC   D2A 1219  10.131   4.351   6.932
   76POPC   C3A 1220   9.898   4.379   6.579
   76POPC   C4A 1221  10.049   4.431   6.174
   76POPC   C1B 1222  10.380   4.018   7.258
   76POPC   C2B 1223   0.010   3.998   6.843
   76POPC   C3B 1224  10.390   4.182   6.453
   76POPC   C4B 1225  10.469   4.029   6.031
   77POPC   NC3 1226   1.878   5.894   8.133
   77POPC   PO4 1227   1.506   5.368   8.158
   77POPC   GL1 1228   1.839   5.428   7.798
   77POPC   GL2 1229   2.096   5.683   7.728
   77POPC   C1A 1230   1.834   5.297   7.382
   77POPC   D2A 1231   1.910   5.335   6.947
   77POPC   C3A 1232   1.626   5.448   6.625
   77POPC   C4A 1233   1.834   5.390   6.222
   77POPC   C1B 1234   2.047   5.886   7.328
   77POPC   C2B 1235   1.853   5.873   6.916
   77POPC   C3B 1236   2.017   5.777   6.511
   77POPC   C4B 1237   2.250   6.008   6.239
   78POPC   NC3 1238   8.404   3.286   7.948
   78POPC   PO4 1239   9.095   3.185   8.065
   78POPC   GL1 1240   8.842   3.245   7.705
   78POPC   GL2 1241   8.820   3.597   7.721
   78POPC   C1A 1242   8.677   3.412   7.292
   78POPC   D2A 1243   8.556   3.230   6.926
   78POPC   C3A 1244   8.743   3.351   6.518
   78POPC   C4A 1245   8.482   3.303   6.151
   78POPC   C1B 1246   9.067   3.780   7.371
   78POPC   C2B 1247   8.916   3.955   6.990
   78POPC   C3B 1248   8.983   3.912   6.547
   78POPC   C4B 1249   8.967   3.678   6.157
   79POPC   NC3 1250   9.855   4.042   8.455
   79POPC   PO4 1251   9.198   4.259   8.157
   79POPC   GL1 1252   9.305   4.083   7.739
   79POPC   GL2 1253   9.618   4.031   7.697
   79POPC   C1A 1254   9.419   4.309   7.329
   79POPC   D2A 1255   9.256   4.322   6.914
   79POPC   C3A 1256   9.408   4.480   6.535
   79POPC   C4A 1257   9.249   4.229   6.180
   79POPC   C1B 1258   9.644   3.849   7.344
   79POPC   C2B 1259   9.693   4.038   6.952
   79POPC   C3B 1260   9.499   3.971   6.576
   79POPC   C4B 1261   9.733   4.038   6.227
   80POPC   NC3 1262   6.261   6.685   7.727
   80POPC   PO4 1263   6.611   7.112   8.145
   80POPC   GL1 1264   6.665   7.152   7.691
   80POPC   GL2 1265   6.361   7.295   7.620
   80POPC   C1A 1266   6.726   6.905   7.279
   80POPC   D2A 1267   6.656   6.928   6.815
   80POPC   C3A 1268   6.652   6.602   6.488
   80POPC   C4A 1269   6.317   6.647   6.152
   80POPC   C1B 1270   6.571   7.388   7.226
   80POPC   C2B 1271   6.358   7.332   6.857
   80POPC   C3B 1272   6.292   7.114   6.472
   80POPC   C4B 1273   6.055   7.369   6.206
   81POPC   NC3 1274   0.638   1.168   8.305
   81POPC   PO4 1275  10.478   0.876   8.159
   81POPC   GL1 1276   0.078   1.007   7.724
   81POPC   GL2 1277   0.076   1.378   7.756
   81POPC   C1A 1278   0.098   0.960   7.257
   81POPC   D2A 1279   0.412   1.060   6.958
   81POPC   C3A 1280   0.394   1.114   6.531
   81POPC   C4A 1281   0.415   0.896   6.145
   81POPC   C1B 1282   0.301   1.393   7.368
   81POPC   C2B 1283   0.183   1.516   6.921
   81POPC   C3B 1284   0.302   1.593   6.447
   81POPC   C4B 1285   0.542   1.359   6.100
   82POPC   NC3 1286   9.258   6.288   8.135
   82POPC   PO4 1287   8.826   6.805   7.852
   82POPC   GL1 1288   9.030   6.389   7.687
   82POPC   GL2 1289   9.403   6.377   7.657
   82POPC   C1A 1290   9.075   6.176   7.280
   82POPC   D2A 1291   8.877   6.293   6.870
   82POPC   C3A 1292   9.136   6.292   6.496
   82POPC   C4A 1293   9.197   6.718   6.463
   82POPC   C1B 1294   9.322   6.610   7.290
   82POPC   C2B 1295   9.415   6.465   6.881
   82POPC   C3B 1296   9.645   6.465   6.481
   82POPC   C4B 1297   9.968   6.190   6.316
   83POPC   NC3 1298   9.387   0.947   7.866
   83POPC   PO4 1299   9.002   0.486   8.278
   83POPC   GL1 1300   9.171   0.493   7.811
   83POPC   GL2 1301   9.482   0.368   7.646
   83POPC   C1A 1302   9.134   0.539   7.321
   83POPC   D2A 1303   9.339   0.365   6.917
   83POPC   C3A 1304   9.152   0.435   6.523
   83POPC   C4A 1305   9.035   0.829   6.426
   83POPC   C1B 1306   9.653   0.622   7.311
   83POPC   C2B 1307   9.720   0.728   6.885
   83POPC   C3B 1308   9.654   0.629   6.427
   83POPC   C4B 1309   9.507   0.287   6.159
   84POPC   NC3 1310   7.130   6.961   7.817
   84POPC   PO4 1311   7.365   7.331   8.376
   84POPC   GL1 1312   7.417   7.352   7.849
   84POPC   GL2 1313   7.115   7.420   7.607
   84POPC   C1A 1314   7.538   7.342   7.360
   84POPC   D2A 1315   7.594   7.145   6.925
   84POPC   C3A 1316   7.558   7.322   6.515
   84POPC   C4A 1317   7.274   7.217   6.247
   84POPC   C1B 1318   7.072   7.258   7.159
   84POPC   C2B 1319   7.020   7.253   6.696
   84POPC   C3B 1320   6.808   7.053   6.326
   84POPC   C4B 1321   6.772   6.775   5.937
   85POPC   NC3 1322   7.665   1.635   7.948
   85POPC   PO4 1323   7.967   2.215   8.104
   85POPC   GL1 1324   7.996   1.976   7.579
   85POPC   GL2 1325   7.727   1.733   7.481
   85POPC   C1A 1326   8.057   1.800   7.132
   85POPC   D2A 1327   8.212   1.683   6.759
   85POPC   C3A 1328   8.000   1.634   6.372
   85POPC   C4A 1329   8.149   1.659   5.912
   85POPC   C1B 1330   7.656   2.108   7.227
   85POPC   C2B 1331   7.698   2.042   6.834
   85POPC   C3B 1332   7.961   2.120   6.563
   85POPC   C4B 1333   8.071   2.085   6.179
   86POPC   NC3 1334   7.112   9.121   8.146
   86POPC   PO4 1335   7.287   9.730   8.410
   86POPC   GL1 1336   7.366   9.456   7.896
   86POPC   GL2 1337   7.138   9.563   7.658
   86POPC   C1A 1338   7.407   9.164   7.471
   86POPC   D2A 1339   7.347   8.944   7.033
   86POPC   C3A 1340   7.335   9.171   6.634
   86POPC   C4A 1341   7.465   9.054   6.197
   86POPC   C1B 1342   6.892   9.330   7.355
   86POPC   C2B 1343   6.883   9.242   6.908
   86POPC   C3B 1344   6.923   9.441   6.475
   86POPC   C4B 1345   7.344   9.594   6.314
   87POPC   NC3 1346   6.973   1.070   8.244
   87POPC   PO4 1347   7.597   1.288   8.220
   87POPC   GL1 1348   7.356   1.251   7.803
   87POPC   GL2 1349   6.998   1.179   7.768
   87POPC   C1A 1350   7.224   1.261   7.348
   87POPC   D2A 1351   7.231   1.128   6.940
   87POPC   C3A 1352   7.145   1.372   6.578
   87POPC   C4A 1353   7.191   1.369   6.129
   87POPC   C1B 1354   6.897   0.852   7.421
   87POPC   C2B 1355   6.929   0.697   6.973
   87POPC   C3B 1356   7.138   0.802   6.566
   87POPC   C4B 1357   6.881   1.010   6.288
   88POPC   NC3 1358   2.533   0.932   8.129
   88POPC   PO4 1359   3.169   1.007   8.140
   88POPC   GL1 1360   3.107   1.255   7.726
   88POPC   GL2 1361   2.782   1.152   7.716
   88POPC   C1A 1362   3.076   1.348   7.269
   88POPC   D2A 1363   3.025   1.094   6.934
   88POPC   C3A 1364   2.865   1.241   6.562
   88POPC   C4A 1365   3.027   1.092   6.217
   88POPC   C1B 1366   2.613   1.097   7.308
   88POPC   C2B 1367   2.512   1.292   6.926
   88POPC   C3B 1368   2.342   1.153   6.536
   88POPC   C4B 1369   2.451   1.040   6.123
   89POPC   NC3 1370   0.522   9.122   8.020
   89POPC   PO4 1371   0.407   9.794   7.968
   89POPC   GL1 1372   0.613   9.460   7.672
   89POPC   GL2 1373   0.308   9.283   7.576
   89POPC   C1A 1374   0.674   9.182   7.258
   89POPC   D2A 1375   0.456   9.265   6.850
   89POPC   C3A 1376   0.515   9.028   6.475
   89POPC   C4A 1377   0.531   9.029   5.996
   89POPC   C1B 1378   0.407   9.636   7.273
   89POPC   C2B 1379   0.281   9.740   6.900
   89POPC   C3B 1380   0.478   9.784   6.545
   89POPC   C4B 1381   0.368   9.477   6.242
   90POPC   NC3 1382   5.617   9.023   8.059
   90POPC   PO4 1383   5.481   9.675   8.127
   90POPC   GL1 1384   5.567   9.439   7.742
   90POPC   GL2 1385   5.916   9.355   7.761
   90POPC   C1A 1386   5.644   9.159   7.365
   90POPC   D2A 1387   5.398   9.116   6.969
   90POPC   C3A 1388   5.590   9.098   6.561
   90POPC   C4A 1389   5.743   9.340   6.220
   90POPC   C1B 1390   5.907   9.612   7.391
   90POPC   C2B 1391   5.645   9.566   7.035
   90POPC   C3B 1392   5.657   9.637   6.634
   90POPC   C4B 1393   6.025   9.763   6.360
   91POPC   NC3 1394   3.769   2.793   8.196
   91POPC   PO4 1395   3.117   2.960   8.247
   91POPC   GL1 1396   3.399   2.959   7.841
   91POPC   GL2 1397   3.489   2.596   7.809
   91POPC   C1A 1398   3.273   2.992   7.388
   91POPC   D2A 1399   3.059   2.814   7.021
   91POPC   C3A 1400   3.174   2.907   6.568
   91POPC   C4A 1401   3.326   3.074   6.186
   91POPC   C1B 1402   3.374   2.485   7.390
   91POPC   C2B 1403   3.417   2.476   6.947
   91POPC   C3B 1404   3.436   2.456   6.508
   91POPC   C4B 1405   3.278   2.562   6.127
   92POPC   NC3 1406   1.827   8.154   8.120
   92POPC   PO4 1407   1.762   7.503   8.291
   92POPC   GL1 1408   1.637   7.750   7.848
   92POPC   GL2 1409   1.662   8.079   7.634
   92POPC   C1A 1410   1.673   7.631   7.370
   92POPC   D2A 1411   1.691   7.911   6.987
   92POPC   C3A 1412   1.683   7.777   6.541
   92POPC   C4A 1413   1.690   8.178   6.288
   92POPC   C1B 1414   2.043   7.965   7.366
   92POPC   C2B 1415   2.167   7.778   6.952
   92POPC   C3B 1416   2.109   8.045   6.608
   92POPC   C4B 1417   2.104   7.846   6.235
   93POPC   NC3 1418   7.711   7.737   7.940
   93POPC   PO4 1419   8.131   8.191   8.178
   93POPC   GL1 1420   8.014   8.062   7.727
   93POPC   GL2 1421   7.644   8.136   7.625
   93POPC   C1A 1422   8.142   7.915   7.321
   93POPC   D2A 1423   8.102   8.144   6.941
   93POPC   C3A 1424   8.123   7.982   6.552
   93POPC   C4A 1425   8.078   8.185   6.173
   93POPC   C1B 1426   7.639   7.856   7.271
   93POPC   C2B 1427   7.631   8.008   6.868
   93POPC   C3B 1428   7.631   7.864   6.478
   93POPC   C4B 1429   7.557   8.108   6.164
   94POPC   NC3 1430   0.584   7.552   7.896
   94POPC   PO4 1431   0.439   6.941   7.854
   94POPC   GL1 1432   0.701   6.939   7.563
   94POPC   GL2 1433   0.606   7.257   7.471
   94POPC   C1A 1434   0.778   6.889   7.154
   94POPC   D2A 1435   0.489   7.125   6.962
   94POPC   C3A 1436   0.506   7.029   6.590
   94POPC   C4A 1437   0.722   7.157   6.243
   94POPC   C1B 1438   0.150   7.175   7.346
   94POPC   C2B 1439  10.434   7.361   7.024
   94POPC   C3B 1440   0.205   7.466   6.669
   94POPC   C4B 1441   0.224   7.301   6.258
   95POPC   NC3 1442   2.187   7.410   8.123
   95POPC   PO4 1443   1.602   7.002   7.973
   95POPC   GL1 1444   1.743   7.077   7.583
   95POPC   GL2 1445   1.905   7.350   7.709
   95POPC   C1A 1446   1.684   7.165   7.155
   95POPC   D2A 1447   1.635   6.877   6.835
   95POPC   C3A 1448   1.613   7.043   6.460
   95POPC   C4A 1449   1.688   6.818   6.121
   95POPC   C1B 1450   2.188   7.459   7.399
   95POPC   C2B 1451   2.222   7.167   7.082
   95POPC   C3B 1452   2.006   7.254   6.723
   95POPC   C4B 1453   2.023   7.332   6.289
   96POPC   NC3 1454   4.249   3.496   8.072
   96POPC   PO4 1455   4.654   3.954   7.816
   96POPC   GL1 1456   4.324   3.645   7.594
   96POPC   GL2 1457   4.356   3.261   7.625
   96POPC   C1A 1458   4.180   3.520   7.178
   96POPC   D2A 1459   4.480   3.407   6.856
   96POPC   C3A 1460   4.507   3.721   6.531
   96POPC   C4A 1461   4.146   3.722   6.275
   96POPC   C1B 1462   4.252   3.013   7.260
   96POPC   C2B 1463   4.066   3.085   6.871
   96POPC   C3B 1464   4.107   3.268   6.495
   96POPC   C4B 1465   4.459   3.330   6.207
   97POPC   NC3 1466   5.107   2.902   8.163
   97POPC   PO4 1467   4.529   3.091   8.120
   97POPC   GL1 1468   4.773   2.947   7.717
   97POPC   GL2 1469   5.121   2.819   7.649
   97POPC   C1A 1470   4.767   2.872   7.246
   97POPC   D2A 1471   4.972   2.792   6.801
   97POPC   C3A 1472   4.761   2.731   6.402
   97POPC   C4A 1473   4.528   2.823   6.028
   97POPC   C1B 1474   5.230   2.632   7.228
   97POPC   C2B 1475   5.213   2.355   6.828
   97POPC   C3B 1476   5.252   2.537   6.401
   97POPC   C4B 1477   5.228   2.984   6.318
   98POPC   NC3 1478   1.753   6.594   8.081
   98POPC   PO4 1479   2.266   6.161   8.064
   98POPC   GL1 1480   1.936   6.206   7.725
   98POPC   GL2 1481   1.909   6.552   7.610
   98POPC   C1A 1482   1.654   6.211   7.336
   98POPC   D2A 1483   1.694   6.380   6.922
   98POPC   C3A 1484   1.910   6.314   6.539
   98POPC   C4A 1485   1.713   6.253   6.161
   98POPC   C1B 1486   1.963   6.719   7.221
   98POPC   C2B 1487   2.118   6.729   6.820
   98POPC   C3B 1488   2.111   6.827   6.413
   98POPC   C4B 1489   2.124   6.534   6.075
   99POPC   NC3 1490   1.322   2.893   7.869
   99POPC   PO4 1491   0.947   2.226   8.009
   99POPC   GL1 1492   0.917   2.490   7.655
   99POPC   GL2 1493   0.870   2.848   7.640
   99POPC   C1A 1494   0.948   2.288   7.276
   99POPC   D2A 1495   1.169   2.308   6.882
   99POPC   C3A 1496   0.999   2.383   6.474
   99POPC   C4A 1497   1.119   2.503   6.028
   99POPC   C1B 1498   1.103   2.761   7.234
   99POPC   C2B 1499   1.071   2.792   6.785
   99POPC   C3B 1500   1.259   2.847   6.421
   99POPC   C4B 1501   0.877   2.914   6.215
  100POPC   NC3 1502   8.114  10.485   7.937
  100POPC   PO4 1503   8.225   9.842   8.085
  100POPC   GL1 1504   7.960   9.973   7.717
  100POPC   GL2 1505   7.693  10.250   7.649
  100POPC   C1A 1506   8.066  10.197   7.325
  100POPC   D2A 1507   8.077  10.019   6.918
  100POPC   C3A 1508   8.164  10.225   6.532
  100POPC   C4A 1509   7.924  10.288   6.157
  100POPC   C1B 1510   7.602  10.009   7.236
  100POPC   C2B 1511   7.571   9.990   6.790
  100POPC   C3B 1512   7.767   9.901   6.441
  100POPC   C4B 1513   7.687   9.857   6.011
  101POPC   NC3 1514   1.997   1.390   8.062
  101POPC   PO4 1515   1.943   2.048   8.090
  101POPC   GL1 1516   1.714   1.948   7.717
  101POPC   GL2 1517   1.862   2.274   7.643
  101POPC   C1A 1518   1.705   1.714   7.294
  101POPC   D2A 1519   2.013   1.785   6.921
  101POPC   C3A 1520   2.079   1.739   6.465
  101POPC   C4A 1521   1.782   1.717   6.086
  101POPC   C1B 1522   1.974   2.148   7.279
  101POPC   C2B 1523   1.839   2.303   6.928
  101POPC   C3B 1524   1.956   2.309   6.558
  101POPC   C4B 1525   1.928   2.175   6.222
  102POPC   NC3 1526   0.629   3.456   8.085
  102POPC   PO4 1527   0.043   3.372   7.814
  102POPC   GL1 1528   0.137   3.713   7.593
  102POPC   GL2 1529   0.475   3.624   7.629
  102POPC   C1A 1530   0.224   3.632   7.162
  102POPC   D2A 1531   0.219   3.244   6.940
  102POPC   C3A 1532   0.115   3.322   6.509
  102POPC   C4A 1533   0.233   3.652   6.276
  102POPC   C1B 1534   0.730   3.671   7.312
  102POPC   C2B 1535   0.692   3.493   6.919
  102POPC   C3B 1536   0.706   3.658   6.517
  102POPC   C4B 1537   0.664   3.392   6.195
  103POPC   NC3 1538   0.319  10.233   8.110
  103POPC   PO4 1539   1.082  10.214   8.152
  103POPC   GL1 1540   0.841  10.273   7.706
  103POPC   GL2 1541   0.491  10.254   7.644
  103POPC   C1A 1542   0.767  10.058   7.272
  103POPC   D2A 1543   0.504  10.196   6.927
  103POPC   C3A 1544   0.705  10.268   6.528
  103POPC   C4A 1545   0.623  10.097   6.155
  103POPC   C1B 1546   0.171  10.084   7.396
  103POPC   C2B 1547  10.468  10.109   7.023
  103POPC   C3B 1548   0.057  10.122   6.628
  103POPC   C4B 1549   0.123   9.969   6.232
  104POPC   NC3 1550   7.746   0.915   7.915
  104POPC   PO4 1551   8.265   1.136   8.303
  104POPC   GL1 1552   8.278   0.954   7.789
  104POPC   GL2 1553   7.987   1.017   7.495
  104POPC   C1A 1554   8.405   0.964   7.283
  104POPC   D2A 1555   8.130   1.205   6.977
  104POPC   C3A 1556   8.115   1.176   6.549
  104POPC   C4A 1557   8.070   1.175   6.117
  104POPC   C1B 1558   7.684   1.094   7.188
  104POPC   C2B 1559   7.677   0.992   6.741
  104POPC   C3B 1560   7.625   1.254   6.385
  104POPC   C4B 1561   7.670   1.507   6.015
  105POPC   NC3 1562   6.907   9.976   7.905
  105POPC   PO4 1563   6.242   9.645   8.032
  105POPC   GL1 1564   6.213   9.936   7.685
  105POPC   GL2 1565   6.481  10.179   7.676
  105POPC   C1A 1566   6.067  10.083   7.289
  105POPC   D2A 1567   6.077   9.883   6.890
  105POPC   C3A 1568   6.143  10.219   6.605
  105POPC   C4A 1569   6.351  10.210   6.245
  105POPC   C1B 1570   6.748  10.262   7.319
  105POPC   C2B 1571   6.724  10.078   6.924
  105POPC   C3B 1572   6.703  10.305   6.596
  105POPC   C4B 1573   6.731   0.042   6.234
  106POPC   NC3 1574   4.854   1.949   7.995
  106POPC   PO4 1575   5.174   2.452   8.106
  106POPC   GL1 1576   4.964   2.327   7.656
  106POPC   GL2 1577   4.957   1.959   7.509
  106POPC   C1A 1578   4.808   2.355   7.225
  106POPC   D2A 1579   4.656   2.241   6.843
  106POPC   C3A 1580   4.860   2.235   6.451
  106POPC   C4A 1581   4.687   2.325   6.019
  106POPC   C1B 1582   4.808   1.830   7.127
  106POPC   C2B 1583   4.971   1.831   6.743
  106POPC   C3B 1584   5.022   1.738   6.350
  106POPC   C4B 1585   5.083   2.014   6.059
  107POPC   NC3 1586  10.241   8.521   8.016
  107POPC   PO4 1587   9.841   9.015   8.064
  107POPC   GL1 1588   9.960   8.786   7.671
  107POPC   GL2 1589   9.984   8.428   7.603
  107POPC   C1A 1590  10.178   8.758   7.280
  107POPC   D2A 1591   9.991   8.841   6.918
  107POPC   C3A 1592  10.235   8.739   6.606
  107POPC   C4A 1593  10.071   8.745   6.232
  107POPC   C1B 1594  10.336   8.292   7.359
  107POPC   C2B 1595  10.442   8.409   6.944
  107POPC   C3B 1596  10.321   8.257   6.531
  107POPC   C4B 1597  10.174   8.225   6.137
  108POPC   NC3 1598   2.002   9.856   8.023
  108POPC   PO4 1599   1.577   9.350   8.242
  108POPC   GL1 1600   1.793   9.426   7.787
  108POPC   GL2 1601   2.023   9.150   7.673
  108POPC   C1A 1602   1.986   9.499   7.328
  108POPC   D2A 1603   1.775   9.417   6.937
  108POPC   C3A 1604   1.886   9.565   6.510
  108POPC   C4A 1605   1.643   9.569   6.155
  108POPC   C1B 1606   2.119   8.980   7.287
  108POPC   C2B 1607   2.141   9.059   6.869
  108POPC   C3B 1608   1.878   9.080   6.550
  108POPC   C4B 1609   1.929   9.141   6.152
  109POPC   NC3 1610   0.867   9.833   7.940
  109POPC   PO4 1611   1.555   9.980   8.033
  109POPC   GL1 1612   1.282  10.000   7.709
  109POPC   GL2 1613   1.333  10.296   7.643
  109POPC   C1A 1614   1.286   9.977   7.264
  109POPC   D2A 1615   1.344   9.753   6.921
  109POPC   C3A 1616   1.072   9.910   6.638
  109POPC   C4A 1617   1.173   9.784   6.265
  109POPC   C1B 1618   1.110  10.467   7.298
  109POPC   C2B 1619   1.038  10.411   6.875
  109POPC   C3B 1620   1.225  10.356   6.444
  109POPC   C4B 1621   1.077   0.031   6.050
  110POPC   NC3 1622   7.692   9.712   8.166
  110POPC   PO4 1623   7.989   9.151   8.184
  110POPC   GL1 1624   7.889   9.344   7.821
  110POPC   GL2 1625   8.199   9.476   7.743
  110POPC   C1A 1626   7.766   9.550   7.446
  110POPC   D2A 1627   7.561   9.495   7.062
  110POPC   C3A 1628   7.764   9.449   6.664
  110POPC   C4A 1629   7.829   9.416   6.245
  110POPC   C1B 1630   8.250   9.692   7.360
  110POPC   C2B 1631   8.158   9.520   6.973
  110POPC   C3B 1632   8.264   9.687   6.564
  110POPC   C4B 1633   8.190   9.811   6.157
  111POPC   NC3 1634   9.276   7.941   8.009
  111POPC   PO4 1635   9.928   8.177   8.031
  111POPC   GL1 1636   9.625   8.085   7.688
  111POPC   GL2 1637   9.642   7.710   7.706
  111POPC   C1A 1638   9.432   8.090   7.262
  111POPC   D2A 1639   9.547   7.955   6.890
  111POPC   C3A 1640   9.379   8.132   6.537
  111POPC   C4A 1641   9.285   7.975   6.156
  111POPC   C1B 1642   9.445   7.560   7.324
  111POPC   C2B 1643   9.310   7.468   6.915
  111POPC   C3B 1644   9.436   7.614   6.521
  111POPC   C4B 1645   9.551   7.451   6.161
  112POPC   NC3 1646   8.641   1.321   8.097
  112POPC   PO4 1647   8.027   1.401   7.787
  112POPC   GL1 1648   8.396   1.435   7.592
  112POPC   GL2 1649   8.704   1.236   7.604
  112POPC   C1A 1650   8.476   1.490   7.186
  112POPC   D2A 1651   8.616   1.376   6.794
  112POPC   C3A 1652   8.487   1.496   6.369
  112POPC   C4A 1653   8.564   1.408   5.965
  112POPC   C1B 1654   8.872   1.138   7.202
  112POPC   C2B 1655   8.726   0.878   6.859
  112POPC   C3B 1656   8.569   0.989   6.483
  112POPC   C4B 1657   8.511   0.933   6.113
  113POPC   NC3 1658   5.232   0.309   8.295
  113POPC   PO4 1659   5.775   0.709   8.145
  113POPC   GL1 1660   5.702   0.669   7.696
  113POPC   GL2 1661   5.829   0.337   7.693
  113POPC   C1A 1662   5.584   0.503   7.241
  113POPC   D2A 1663   5.584   0.634   6.789
  113POPC   C3A 1664   5.521   0.535   6.332
  113POPC   C4A 1665   5.437   0.769   5.938
  113POPC   C1B 1666   6.057   0.552   7.346
  113POPC   C2B 1667   6.016   0.327   6.977
  113POPC   C3B 1668   5.923   0.323   6.571
  113POPC   C4B 1669   6.008   0.704   6.323
  114POPC   NC3 1670   2.035   3.570   8.055
  114POPC   PO4 1671   2.084   2.962   8.292
  114POPC   GL1 1672   2.160   3.172   7.777
  114POPC   GL2 1673   1.952   3.437   7.590
  114POPC   C1A 1674   2.163   3.054   7.339
  114POPC   D2A 1675   1.912   3.078   6.975
  114POPC   C3A 1676   2.155   3.129   6.630
  114POPC   C4A 1677   2.152   3.442   6.359
  114POPC   C1B 1678   1.655   3.404   7.285
  114POPC   C2B 1679   1.598   3.629   6.907
  114POPC   C3B 1680   1.639   3.378   6.559
  114POPC   C4B 1681   1.660   3.163   6.202
  115POPC   NC3 1682   7.732   2.653   8.069
  115POPC   PO4 1683   7.556   2.062   7.850
  115POPC   GL1 1684   7.786   2.419   7.623
  115POPC   GL2 1685   7.984   2.729   7.652
  115POPC   C1A 1686   8.066   2.403   7.276
  115POPC   D2A 1687   7.868   2.535   6.941
  115POPC   C3A 1688   8.068   2.612   6.590
  115POPC   C4A 1689   7.817   2.546   6.244
  115POPC   C1B 1690   8.184   2.914   7.335
  115POPC   C2B 1691   8.081   3.009   6.937
  115POPC   C3B 1692   7.813   3.074   6.609
  115POPC   C4B 1693   8.050   3.024   6.245
  116POPC   NC3 1694   2.943   9.491   8.172
  116POPC   PO4 1695   2.284   9.471   8.006
  116POPC   GL1 1696   2.496   9.356   7.638
  116POPC   GL2 1697   2.766   9.562   7.663
  116POPC   C1A 1698   2.493   9.453   7.201
  116POPC   D2A 1699   2.292   9.598   6.829
  116POPC   C3A 1700   2.334   9.350   6.458
  116POPC   C4A 1701   2.406   9.242   6.044
  116POPC   C1B 1702   2.796   9.850   7.312
  116POPC   C2B 1703   2.944   9.744   6.929
  116POPC   C3B 1704   2.780   9.568   6.617
  116POPC   C4B 1705   2.811   9.506   6.207
  117POPC   NC3 1706   9.242   2.753   7.962
  117POPC   PO4 1707   9.502   2.294   8.305
  117POPC   GL1 1708   9.523   2.323   7.797
  117POPC   GL2 1709   9.250   2.506   7.534
  117POPC   C1A 1710   9.661   2.318   7.341
  117POPC   D2A 1711   9.412   2.457   6.960
  117POPC   C3A 1712   9.545   2.593   6.569
  117POPC   C4A 1713   9.281   2.624   6.202
  117POPC   C1B 1714   9.520   2.825   7.324
  117POPC   C2B 1715   9.405   3.018   6.949
  117POPC   C3B 1716   9.180   2.971   6.588
  117POPC   C4B 1717   9.583   3.079   6.402
  118POPC   NC3 1718   5.591   8.238   8.016
  118POPC   PO4 1719   6.039   8.788   8.092
  118POPC   GL1 1720   5.952   8.538   7.754
  118POPC   GL2 1721   5.630   8.673   7.680
  118POPC   C1A 1722   6.001   8.732   7.341
  118POPC   D2A 1723   5.855   8.882   6.955
  118POPC   C3A 1724   5.919   8.690   6.543
  118POPC   C4A 1725   6.005   8.898   6.161
  118POPC   C1B 1726   5.474   8.685   7.269
  118POPC   C2B 1727   5.508   8.518   6.839
  118POPC   C3B 1728   5.397   8.616   6.418
  118POPC   C4B 1729   5.656   8.492   6.095
  119POPC   NC3 1730   1.201   9.017   8.157
  119POPC   PO4 1731   1.471   8.437   8.084
  119POPC   GL1 1732   1.379   8.511   7.683
  119POPC   GL2 1733   1.170   8.728   7.721
  119POPC   C1A 1734   1.328   8.387   7.270
  119POPC   D2A 1735   1.535   8.375   6.888
  119POPC   C3A 1736   1.277   8.318   6.557
  119POPC   C4A 1737   1.216   8.527   6.232
  119POPC   C1B 1738   1.106   8.875   7.333
  119POPC   C2B 1739   1.150   8.732   6.943
  119POPC   C3B 1740   1.043   8.991   6.646
  119POPC   C4B 1741   0.959   8.953   6.246
  120POPC   NC3 1742   2.791  10.352   8.387
  120POPC   PO4 1743   2.612   0.440   8.190
  120POPC   GL1 1744   2.789   0.490   7.772
  120POPC   GL2 1745   3.066   0.716   7.711
  120POPC   C1A 1746   2.604   0.309   7.378
  120POPC   D2A 1747   2.635   0.062   7.009
  120POPC   C3A 1748   2.760   0.283   6.663
  120POPC   C4A 1749   2.894   0.297   6.258
  120POPC   C1B 1750   2.928   0.701   7.271
  120POPC   C2B 1751   2.650   0.759   6.906
  120POPC   C3B 1752   2.710   0.757   6.474
  120POPC   C4B 1753   2.414   0.483   6.303
  121POPC   NC3 1754   4.051   8.009   8.174
  121POPC   PO4 1755   4.332   7.383   8.062
  121POPC   GL1 1756   4.132   7.419   7.653
  121POPC   GL2 1757   4.028   7.078   7.632
  121POPC   C1A 1758   4.211   7.296   7.195
  121POPC   D2A 1759   4.462   7.412   6.829
  121POPC   C3A 1760   4.360   7.206   6.438
  121POPC   C4A 1761   4.633   6.909   6.207
  121POPC   C1B 1762   3.936   6.853   7.260
  121POPC   C2B 1763   4.086   6.949   6.823
  121POPC   C3B 1764   3.987   6.825   6.384
  121POPC   C4B 1765   4.158   7.001   5.988
  122POPC   NC3 1766   7.900   3.342   8.237
  122POPC   PO4 1767   8.416   3.744   8.002
  122POPC   GL1 1768   8.152   3.600   7.653
  122POPC   GL2 1769   7.927   3.268   7.706
  122POPC   C1A 1770   8.173   3.424   7.268
  122POPC   D2A 1771   8.001   3.500   6.910
  122POPC   C3A 1772   8.212   3.409   6.575
  122POPC   C4A 1773   8.081   3.581   6.203
  122POPC   C1B 1774   7.709   3.165   7.303
  122POPC   C2B 1775   7.512   3.415   6.956
  122POPC   C3B 1776   7.644   3.565   6.527
  122POPC   C4B 1777   7.666   3.330   6.142
  123POPC   NC3 1778   2.501   8.320   8.447
  123POPC   PO4 1779   2.213   7.887   7.993
  123POPC   GL1 1780   2.531   7.778   7.695
  123POPC   GL2 1781   2.856   7.884   7.841
  123POPC   C1A 1782   2.540   7.886   7.263
  123POPC   D2A 1783   2.550   8.142   6.916
  123POPC   C3A 1784   2.590   7.899   6.578
  123POPC   C4A 1785   2.601   8.034   6.184
  123POPC   C1B 1786   2.999   7.806   7.410
  123POPC   C2B 1787   2.983   7.786   6.952
  123POPC   C3B 1788   2.948   7.549   6.541
  123POPC   C4B 1789   2.993   7.695   6.127
  124POPC   NC3 1790   2.393   8.285   7.827
  124POPC   PO4 1791   2.924   8.271   8.248
  124POPC   GL1 1792   2.973   8.368   7.769
  124POPC   GL2 1793   2.888   8.720   7.673
  124POPC   C1A 1794   2.863   8.309   7.310
  124POPC   D2A 1795   2.728   8.631   6.968
  124POPC   C3A 1796   2.685   8.484   6.507
  124POPC   C4A 1797   3.002   8.445   6.170
  124POPC   C1B 1798   2.833   9.040   7.307
  124POPC   C2B 1799   2.645   9.121   6.856
  124POPC   C3B 1800   2.748   9.065   6.437
  124POPC   C4B 1801   2.678   8.832   6.079
  125POPC   NC3 1802   7.793   6.426   8.071
  125POPC   PO4 1803   8.227   6.857   8.200
  125POPC   GL1 1804   8.097   6.695   7.749
  125POPC   GL2 1805   8.023   6.321   7.656
  125POPC   C1A 1806   8.227   6.568   7.290
  125POPC   D2A 1807   8.106   6.338   6.920
  125POPC   C3A 1808   8.021   6.508   6.504
  125POPC   C4A 1809   8.254   6.724   6.186
  125POPC   C1B 1810   7.743   6.392   7.280
  125POPC   C2B 1811   7.600   6.504   6.856
  125POPC   C3B 1812   7.525   6.335   6.437
  125POPC   C4B 1813   7.574   6.429   6.002
  126POPC   NC3 1814   2.570   5.827   7.936
  126POPC   PO4 1815   2.341   5.211   8.063
  126POPC   GL1 1816   2.401   5.276   7.666
  126POPC   GL2 1817   2.698   5.487   7.589
  126POPC   C1A 1818   2.303   5.452   7.282
  126POPC   D2A 1819   2.320   5.677   6.925
  126POPC   C3A 1820   2.586   5.532   6.645
  126POPC   C4A 1821   2.500   5.525   6.255
  126POPC   C1B 1822   2.633   5.866   7.282
  126POPC   C2B 1823   2.685   6.043   6.849
  126POPC   C3B 1824   2.746   5.969   6.414
  126POPC   C4B 1825   2.997   5.670   6.209
  127POPC   NC3 1826   9.291   9.491   8.107
  127POPC   PO4 1827   9.912   9.783   8.064
  127POPC   GL1 1828   9.786   9.557   7.666
  127POPC   GL2 1829   9.405   9.485   7.623
  127POPC   C1A 1830   9.699   9.508   7.216
  127POPC   D2A 1831   9.830   9.335   6.823
  127POPC   C3A 1832   9.842   9.586   6.469
  127POPC   C4A 1833   9.643   9.785   6.117
  127POPC   C1B 1834   9.203   9.355   7.241
  127POPC   C2B 1835   9.325   9.477   6.815
  127POPC   C3B 1836   9.345   9.453   6.375
  127POPC   C4B 1837   9.059   9.244   6.124
  128POPC   NC3 1838   4.696   1.316   7.960
  128POPC   PO4 1839   5.164   0.773   8.069
  128POPC   GL1 1840   5.194   0.877   7.634
  128POPC   GL2 1841   4.903   1.080   7.552
  128POPC   C1A 1842   5.280   0.937   7.190
  128POPC   D2A 1843   4.997   0.913   6.834
  128POPC   C3A 1844   5.109   0.862   6.373
  128POPC   C4A 1845   5.017   1.038   5.923
  128POPC   C1B 1846   5.136   1.424   7.305
  128POPC   C2B 1847   5.233   1.398   6.842
  128POPC   C3B 1848   4.864   1.311   6.553
  128POPC   C4B 1849   4.666   1.360   6.145
  129POPC   NC3 1850   8.700   9.901   8.089
  129POPC   PO4 1851   8.580   0.025   8.021
  129POPC   GL1 1852   8.783  10.269   7.711
  129POPC   GL2 1853   8.494  10.044   7.641
  129POPC   C1A 1854   9.006  10.175   7.315
  129POPC   D2A 1855   9.171   9.950   6.964
  129POPC   C3A 1856   9.016   9.836   6.563
  129POPC   C4A 1857   8.806  10.043   6.261
  129POPC   C1B 1858   8.531  10.088   7.189
  129POPC   C2B 1859   8.732  10.220   6.819
  129POPC   C3B 1860   8.624  10.454   6.459
  129POPC   C4B 1861   8.414  10.251   6.048
  130POPC   NC3 1862   3.417   3.433   8.044
  130POPC   PO4 1863   3.994   3.112   7.961
  130POPC   GL1 1864   3.804   3.375   7.655
  130POPC   GL2 1865   3.420   3.449   7.545
  130POPC   C1A 1866   3.755   3.219   7.246
  130POPC   D2A 1867   3.522   3.027   6.924
  130POPC   C3A 1868   3.474   3.328   6.608
  130POPC   C4A 1869   3.696   3.479   6.266
  130POPC   C1B 1870   3.337   3.479   7.095
  130POPC   C2B 1871   3.177   3.738   6.745
  130POPC   C3B 1872   3.267   3.847   6.328
  130POPC   C4B 1873   3.283   3.559   5.982
  131POPC   NC3 1874   5.245  10.118   8.055
  131POPC   PO4 1875   4.670   9.796   8.059
  131POPC   GL1 1876   4.780  10.102   7.694
  131POPC   GL2 1877   5.094  10.314   7.625
  131POPC   C1A 1878   4.960   9.982   7.242
  131POPC   D2A 1879   5.214   9.847   6.880
  131POPC   C3A 1880   5.102  10.061   6.496
  131POPC   C4A 1881   4.652  10.085   6.347
  131POPC   C1B 1882   5.232  10.401   7.206
  131POPC   C2B 1883   4.934  10.474   6.869
  131POPC   C3B 1884   4.728   0.067   6.475
  131POPC   C4B 1885   4.985  10.387   6.111
  132POPC   NC3 1886   6.414   7.629   8.019
  132POPC   PO4 1887   6.715   8.090   8.325
  132POPC   GL1 1888   6.649   8.024   7.790
  132POPC   GL2 1889   6.696   7.698   7.621
  132POPC   C1A 1890   6.698   8.028   7.255
  132POPC   D2A 1891   6.769   7.719   6.879
  132POPC   C3A 1892   6.727   7.979   6.541
  132POPC   C4A 1893   6.522   8.035   6.154
  132POPC   C1B 1894   6.281   7.769   7.391
  132POPC   C2B 1895   6.278   7.868   6.953
  132POPC   C3B 1896   6.307   7.704   6.521
  132POPC   C4B 1897   6.046   7.877   6.235
  133POPC   NC3 1898   5.466   1.095   8.237
  133POPC   PO4 1899   5.954   1.459   8.030
  133POPC   GL1 1900   5.850   1.414   7.630
  133POPC   GL2 1901   5.594   1.186   7.684
  133POPC   C1A 1902   5.656   1.476   7.234
  133POPC   D2A 1903   5.879   1.578   6.922
  133POPC   C3A 1904   5.694   1.538   6.577
  133POPC   C4A 1905   5.873   1.385   6.217
  133POPC   C1B 1906   5.785   0.992   7.300
  133POPC   C2B 1907   5.678   1.107   6.886
  133POPC   C3B 1908   5.596   1.034   6.456
  133POPC   C4B 1909   5.301   1.310   6.300
  134POPC   NC3 1910   4.666   7.685   7.944
  134POPC   PO4 1911   5.312   7.858   7.986
  134POPC   GL1 1912   5.141   7.952   7.613
  134POPC   GL2 1913   4.814   8.067   7.618
  134POPC   C1A 1914   5.201   7.735   7.228
  134POPC   D2A 1915   4.943   7.596   6.905
  134POPC   C3A 1916   5.142   7.603   6.518
  134POPC   C4A 1917   5.199   7.680   6.095
  134POPC   C1B 1918   4.773   8.042   7.186
  134POPC   C2B 1919   4.619   7.965   6.793
  134POPC   C3B 1920   4.791   7.935   6.399
  134POPC   C4B 1921   4.664   7.932   6.006
  135POPC   NC3 1922   1.039   8.267   8.048
  135POPC   PO4 1923   0.405   7.970   7.986
  135POPC   GL1 1924   0.740   8.052   7.649
  135POPC   GL2 1925   1.109   8.078   7.600
  135POPC   C1A 1926   0.749   7.984   7.243
  135POPC   D2A 1927   0.954   8.196   6.919
  135POPC   C3A 1928   0.814   8.106   6.475
  135POPC   C4A 1929   0.885   8.171   6.048
  135POPC   C1B 1930   1.248   7.862   7.257
  135POPC   C2B 1931   1.350   7.551   6.953
  135POPC   C3B 1932   1.189   7.818   6.665
  135POPC   C4B 1933   1.262   7.888   6.234
  136POPC   NC3 1934   8.641   6.571   8.201
  136POPC   PO4 1935   8.138   6.084   8.185
  136POPC   GL1 1936   8.493   6.125   7.850
  136POPC   GL2 1937   8.526   6.446   7.699
  136POPC   C1A 1938   8.573   6.097   7.367
  136POPC   D2A 1939   8.492   5.976   6.968
  136POPC   C3A 1940   8.419   6.160   6.572
  136POPC   C4A 1941   8.254   6.118   6.173
  136POPC   C1B 1942   8.723   6.598   7.265
  136POPC   C2B 1943   8.512   6.685   6.859
  136POPC   C3B 1944   8.686   6.572   6.465
  136POPC   C4B 1945   8.748   6.253   6.153
  137POPC   NC3 1946   5.605   7.519   7.987
  137POPC   PO4 1947   6.101   7.965   8.029
  137POPC   GL1 1948   5.834   7.954   7.641
  137POPC   GL2 1949   5.585   8.198   7.511
  137POPC   C1A 1950   5.777   7.850   7.177
  137POPC   D2A 1951   5.872   7.572   6.792
  137POPC   C3A 1952   5.632   7.587   6.395
  137POPC   C4A 1953   5.621   7.413   5.952
  137POPC   C1B 1954   5.247   8.241   7.199
  137POPC   C2B 1955   5.137   8.078   6.797
  137POPC   C3B 1956   5.286   8.110   6.368
  137POPC   C4B 1957   5.602   7.975   6.049
  138POPC   NC3 1958   8.406   5.636   8.072
  138POPC   PO4 1959   9.084   5.861   8.060
  138POPC   GL1 1960   8.894   5.833   7.654
  138POPC   GL2 1961   8.619   5.622   7.614
  138POPC   C1A 1962   8.912   5.703   7.201
  138POPC   D2A 1963   9.119   5.858   6.851
  138POPC   C3A 1964   8.839   5.882   6.502
  138POPC   C4A 1965   8.978   5.792   6.094
  138POPC   C1B 1966   8.437   5.517   7.220
  138POPC   C2B 1967   8.532   5.541   6.745
  138POPC   C3B 1968   8.680   5.393   6.369
  138POPC   C4B 1969   8.509   5.658   6.116
  139POPC   NC3 1970   4.008   8.504   7.761
  139POPC   PO4 1971   4.483   8.105   8.008
  139POPC   GL1 1972   4.278   7.946   7.637
  139POPC   GL2 1973   3.904   7.911   7.638
  139POPC   C1A 1974   4.305   7.786   7.198
  139POPC   D2A 1975   4.052   7.693   6.824
  139POPC   C3A 1976   4.312   7.734   6.445
  139POPC   C4A 1977   4.324   7.541   6.043
  139POPC   C1B 1978   3.847   8.044   7.193
  139POPC   C2B 1979   3.676   8.015   6.757
  139POPC   C3B 1980   3.859   8.129   6.359
  139POPC   C4B 1981   3.887   7.743   6.174
  140POPC   NC3 1982   3.272   7.955   8.171
  140POPC   PO4 1983   3.564   8.369   7.788
  140POPC   GL1 1984   3.374   8.138   7.531
  140POPC   GL2 1985   3.392   7.821   7.704
  140POPC   C1A 1986   3.334   8.185   7.099
  140POPC   D2A 1987   3.057   8.292   6.810
  140POPC   C3A 1988   3.085   8.050   6.487
  140POPC   C4A 1989   3.371   8.077   6.166
  140POPC   C1B 1990   3.466   7.720   7.261
  140POPC   C2B 1991   3.445   7.563   6.853
  140POPC   C3B 1992   3.443   7.637   6.406
  140POPC   C4B 1993   3.462   7.590   5.935
  141POPC   NC3 1994   3.510   9.732   8.031
  141POPC   PO4 1995   3.205   9.104   8.136
  141POPC   GL1 1996   3.226   9.352   7.765
  141POPC   GL2 1997   3.526   9.307   7.801
  141POPC   C1A 1998   3.180   9.478   7.316
  141POPC   D2A 1999   3.125   9.240   6.923
  141POPC   C3A 2000   3.233   9.346   6.518
  141POPC   C4A 2001   3.317   9.613   6.179
  141POPC   C1B 2002   3.639   9.273   7.396
  141POPC   C2B 2003   3.634   9.211   6.955
  141POPC   C3B 2004   3.606   8.987   6.577
  141POPC   C4B 2005   3.593   9.162   6.201
  142POPC   NC3 2006   3.449   6.122   8.057
  142POPC   PO4 2007   3.557   6.760   8.112
  142POPC   GL1 2008   3.214   6.630   7.784
  142POPC   GL2 2009   3.302   6.329   7.578
  142POPC   C1A 2010   3.258   6.758   7.312
  142POPC   D2A 2011   3.161   6.750   6.861
  142POPC   C3A 2012   3.478   6.638   6.529
  142POPC   C4A 2013   3.450   6.480   6.072
  142POPC   C1B 2014   3.551   6.379   7.153
  142POPC   C2B 2015   3.690   6.186   6.744
  142POPC   C3B 2016   3.833   6.269   6.322
  142POPC   C4B 2017   3.696   6.023   5.954
  143POPC   NC3 2018   1.955   2.531   8.131
  143POPC   PO4 2019   1.688   3.173   7.953
  143POPC   GL1 2020   1.806   2.799   7.718
  143POPC   GL2 2021   2.154   2.681   7.687
  143POPC   C1A 2022   1.778   2.662   7.298
  143POPC   D2A 2023   1.543   2.717   6.925
  143POPC   C3A 2024   1.767   2.791   6.550
  143POPC   C4A 2025   1.657   2.612   6.168
  143POPC   C1B 2026   2.283   2.547   7.288
  143POPC   C2B 2027   2.188   2.652   6.842
  143POPC   C3B 2028   2.282   2.676   6.391
  143POPC   C4B 2029   2.124   2.996   6.119
  144POPC   NC3 2030   2.495   3.051   8.107
  144POPC   PO4 2031   2.402   3.706   8.309
  144POPC   GL1 2032   2.524   3.544   7.866
  144POPC   GL2 2033   2.840   3.329   7.781
  144POPC   C1A 2034   2.422   3.545   7.414
  144POPC   D2A 2035   2.440   3.350   7.004
  144POPC   C3A 2036   2.568   3.588   6.646
  144POPC   C4A 2037   2.512   3.789   6.256
  144POPC   C1B 2038   2.899   3.392   7.312
  144POPC   C2B 2039   2.942   3.290   6.847
  144POPC   C3B 2040   2.985   3.399   6.381
  144POPC   C4B 2041   2.909   3.206   5.926
  145POPC   NC3 2042   0.842   2.647   8.162
  145POPC   PO4 2043   0.169   2.576   8.157
  145POPC   GL1 2044   0.332   2.898   7.835
  145POPC   GL2 2045   0.421   2.604   7.709
  145POPC   C1A 2046   0.495   3.121   7.421
  145POPC   D2A 2047   0.688   3.005   7.023
  145POPC   C3A 2048   0.562   3.072   6.597
  145POPC   C4A 2049   0.351   2.986   6.193
  145POPC   C1B 2050   0.552   2.608   7.300
  145POPC   C2B 2051   0.656   2.502   6.882
  145POPC   C3B 2052   0.496   2.569   6.480
  145POPC   C4B 2053   0.644   2.399   6.125
  146POPC   NC3 2054   7.884   8.694   8.175
  146POPC   PO4 2055   8.477   8.765   8.064
  146POPC   GL1 2056   8.261   8.510   7.784
  146POPC   GL2 2057   7.914   8.578   7.702
  146POPC   C1A 2058   8.209   8.421   7.346
  146POPC   D2A 2059   8.116   8.651   6.973
  146POPC   C3A 2060   8.148   8.520   6.558
  146POPC   C4A 2061   8.177   8.800   6.205
  146POPC   C1B 2062   8.029   8.938   7.431
  146POPC   C2B 2063   7.865   9.081   7.014
  146POPC   C3B 2064   7.797   8.924   6.570
  146POPC   C4B 2065   7.726   8.592   6.231
  147POPC   NC3 2066   1.257   9.792   8.319
  147POPC   PO4 2067   0.902   9.372   8.078
  147POPC   GL1 2068   1.277   9.507   7.842
  147POPC   GL2 2069   1.196   9.237   7.667
  147POPC   C1A 2070   1.486   9.517   7.385
  147POPC   D2A 2071   1.285   9.259   7.030
  147POPC   C3A 2072   1.398   9.354   6.579
  147POPC   C4A 2073   1.419   9.115   6.195
  147POPC   C1B 2074   0.993   9.562   7.363
  147POPC   C2B 2075   0.819   9.613   6.960
  147POPC   C3B 2076   0.854   9.442   6.542
  147POPC   C4B 2077   0.852   9.424   6.109
  148POPC   NC3 2078   9.624   4.408   8.017
  148POPC   PO4 2079   9.514   5.021   8.220
  148POPC   GL1 2080   9.480   4.843   7.784
  148POPC   GL2 2081   9.229   4.591   7.731
  148POPC   C1A 2082   9.752   4.756   7.400
  148POPC   D2A 2083   9.663   4.625   6.985
  148POPC   C3A 2084   9.707   4.937   6.660
  148POPC   C4A 2085   9.787   4.860   6.248
  148POPC   C1B 2086   9.243   4.794   7.325
  148POPC   C2B 2087   9.150   4.831   6.899
  148POPC   C3B 2088   9.228   4.975   6.504
  148POPC   C4B 2089   9.302   4.773   6.132
  149POPC   NC3 2090   0.914   1.376   7.813
  149POPC   PO4 2091   1.510   1.400   8.007
  149POPC   GL1 2092   1.300   1.106   7.604
  149POPC   GL2 2093   0.896   0.989   7.502
  149POPC   C1A 2094   1.260   0.883   7.190
  149POPC   D2A 2095   1.055   1.002   6.787
  149POPC   C3A 2096   1.370   0.967   6.432
  149POPC   C4A 2097   1.440   1.279   6.091
  149POPC   C1B 2098   0.788   1.321   7.180
  149POPC   C2B 2099   0.673   1.501   6.780
  149POPC   C3B 2100   0.917   1.395   6.438
  149POPC   C4B 2101   0.886   1.000   6.281
  150POPC   NC3 2102   7.807   7.117   8.274
  150POPC   PO4 2103   8.191   7.570   7.963
  150POPC   GL1 2104   7.992   7.450   7.616
  150POPC   GL2 2105   7.867   7.149   7.745
  150POPC   C1A 2106   8.011   7.424   7.193
  150POPC   D2A 2107   7.898   7.580   6.820
  150POPC   C3A 2108   8.027   7.512   6.396
  150POPC   C4A 2109   7.818   7.670   6.032
  150POPC   C1B 2110   7.892   6.949   7.343
  150POPC   C2B 2111   8.003   6.843   6.926
  150POPC   C3B 2112   7.973   7.018   6.526
  150POPC   C4B 2113   7.692   6.893   6.213
  151POPC   NC3 2114   5.926   9.973   8.097
  151POPC   PO4 2115   5.501   0.016   8.019
  151POPC   GL1 2116   5.625  10.326   7.649
  151POPC   GL2 2117   5.616   9.958   7.699
  151POPC   C1A 2118   5.733  10.489   7.239
  151POPC   D2A 2119   5.498   0.142   6.851
  151POPC   C3A 2120   5.413   0.045   6.417
  151POPC   C4A 2121   5.794   0.058   6.165
  151POPC   C1B 2122   5.499   9.972   7.294
  151POPC   C2B 2123   5.633  10.136   6.890
  151POPC   C3B 2124   5.655  10.115   6.462
  151POPC   C4B 2125   5.514   9.813   6.191
  152POPC   NC3 2126   6.294   2.541   8.065
  152POPC   PO4 2127   6.949   2.463   8.181
  152POPC   GL1 2128   6.757   2.597   7.748
  152POPC   GL2 2129   6.377   2.618   7.585
  152POPC   C1A 2130   6.732   2.450   7.312
  152POPC   D2A 2131   6.415   2.581   7.025
  152POPC   C3A 2132   6.592   2.618   6.649
  152POPC   C4A 2133   6.781   2.494   6.264
  152POPC   C1B 2134   6.075   2.816   7.315
  152POPC   C2B 2135   6.009   2.864   6.848
  152POPC   C3B 2136   6.184   2.793   6.426
  152POPC   C4B 2137   6.287   2.346   6.326
  153POPC   NC3 2138  10.203   5.972   8.045
  153POPC   PO4 2139   0.055   6.535   8.209
  153POPC   GL1 2140  10.289   6.450   7.800
  153POPC   GL2 2141   9.918   6.300   7.754
  153POPC   C1A 2142  10.280   6.256   7.375
  153POPC   D2A 2143   0.052   6.210   7.024
  153POPC   C3A 2144  10.375   6.214   6.622
  153POPC   C4A 2145  10.469   6.380   6.224
  153POPC   C1B 2146   9.827   6.481   7.316
  153POPC   C2B 2147  10.097   6.536   6.940
  153POPC   C3B 2148  10.113   6.656   6.500
  153POPC   C4B 2149   9.996   6.620   6.031
  154POPC   NC3 2150   8.188   4.978   8.015
  154POPC   PO4 2151   7.750   4.487   7.936
  154POPC   GL1 2152   7.908   4.567   7.566
  154POPC   GL2 2153   8.225   4.663   7.612
  154POPC   C1A 2154   7.795   4.654   7.151
  154POPC   D2A 2155   7.859   4.837   6.753
  154POPC   C3A 2156   7.542   4.874   6.435
  154POPC   C4A 2157   7.459   5.004   5.998
  154POPC   C1B 2158   8.131   5.027   7.320
  154POPC   C2B 2159   8.164   5.226   6.909
  154POPC   C3B 2160   8.273   5.118   6.520
  154POPC   C4B 2161   8.039   4.879   6.282
  155POPC   NC3 2162   6.293   8.362   8.200
  155POPC   PO4 2163   6.758   8.805   8.017
  155POPC   GL1 2164   6.509   8.830   7.638
  155POPC   GL2 2165   6.476   8.488   7.680
  155POPC   C1A 2166   6.490   8.763   7.165
  155POPC   D2A 2167   6.335   8.919   6.752
  155POPC   C3A 2168   6.482   8.874   6.310
  155POPC   C4A 2169   6.411   8.937   5.832
  155POPC   C1B 2170   6.232   8.279   7.369
  155POPC   C2B 2171   6.145   8.407   6.935
  155POPC   C3B 2172   6.388   8.409   6.540
  155POPC   C4B 2173   6.784   8.455   6.310
  156POPC   NC3 2174   9.208   0.883   8.364
  156POPC   PO4 2175   9.309   1.404   8.026
  156POPC   GL1 2176   9.257   1.345   7.592
  156POPC   GL2 2177   9.619   1.328   7.600
  156POPC   C1A 2178   9.361   1.037   7.247
  156POPC   D2A 2179   9.225   0.867   6.896
  156POPC   C3A 2180   9.091   1.255   6.686
  156POPC   C4A 2181   8.964   1.301   6.262
  156POPC   C1B 2182   9.798   1.269   7.189
  156POPC   C2B 2183   9.585   1.207   6.801
  156POPC   C3B 2184   9.486   1.111   6.357
  156POPC   C4B 2185   9.692   1.060   5.947
  157POPC   NC3 2186   1.794   4.345   8.120
  157POPC   PO4 2187   2.196   3.968   7.881
  157POPC   GL1 2188   1.858   4.064   7.653
  157POPC   GL2 2189   1.823   4.440   7.638
  157POPC   C1A 2190   1.863   3.883   7.267
  157POPC   D2A 2191   2.143   3.771   6.938
  157POPC   C3A 2192   1.932   3.841   6.565
  157POPC   C4A 2193   2.025   3.917   6.171
  157POPC   C1B 2194   2.029   4.371   7.249
  157POPC   C2B 2195   1.849   4.237   6.869
  157POPC   C3B 2196   1.883   4.351   6.431
  157POPC   C4B 2197   1.975   4.371   5.957
  158POPC   NC3 2198   4.031   1.837   8.067
  158POPC   PO4 2199   4.579   1.702   7.739
  158POPC   GL1 2200   4.436   2.002   7.469
  158POPC   GL2 2201   4.112   2.024   7.591
  158POPC   C1A 2202   4.232   1.990   7.067
  158POPC   D2A 2203   4.151   2.311   6.783
  158POPC   C3A 2204   4.358   2.252   6.428
  158POPC   C4A 2205   4.533   1.850   6.322
  158POPC   C1B 2206   3.991   1.642   7.387
  158POPC   C2B 2207   4.041   1.388   7.008
  158POPC   C3B 2208   4.198   1.585   6.636
  158POPC   C4B 2209   3.998   1.879   6.373
  159POPC   NC3 2210   2.820   2.809   8.548
  159POPC   PO4 2211   2.425   2.566   8.100
  159POPC   GL1 2212   2.661   2.720   7.773
  159POPC   GL2 2213   2.987   2.656   7.764
  159POPC   C1A 2214   2.692   2.956   7.427
  159POPC   D2A 2215   2.570   2.870   7.053
  159POPC   C3A 2216   2.659   2.912   6.666
  159POPC   C4A 2217   2.570   3.128   6.314
  159POPC   C1B 2218   2.841   2.460   7.375
  159POPC   C2B 2219   2.800   2.351   6.977
  159POPC   C3B 2220   2.935   2.464   6.607
  159POPC   C4B 2221   2.805   2.671   6.241
  160POPC   NC3 2222   7.302   3.556   8.053
  160POPC   PO4 2223   6.769   3.370   8.335
  160POPC   GL1 2224   6.943   3.339   7.788
  160POPC   GL2 2225   7.327   3.355   7.610
  160POPC   C1A 2226   6.946   3.523   7.286
  160POPC   D2A 2227   7.057   3.644   6.801
  160POPC   C3A 2228   6.754   3.668   6.407
  160POPC   C4A 2229   6.858   3.708   5.941
  160POPC   C1B 2230   7.129   3.053   7.360
  160POPC   C2B 2231   7.087   3.147   6.929
  160POPC   C3B 2232   7.299   3.197   6.538
  160POPC   C4B 2233   7.202   3.509   6.269
  161POPC   NC3 2234   6.544   3.613   8.028
  161POPC   PO4 2235   6.452   2.964   7.981
  161POPC   GL1 2236   6.563   3.083   7.578
  161POPC   GL2 2237   6.497   3.429   7.525
  161POPC   C1A 2238   6.648   3.022   7.158
  161POPC   D2A 2239   6.620   3.349   6.846
  161POPC   C3A 2240   6.484   3.212   6.447
  161POPC   C4A 2241   6.461   3.407   6.062
  161POPC   C1B 2242   6.212   3.296   7.170
  161POPC   C2B 2243   6.077   3.359   6.728
  161POPC   C3B 2244   6.021   3.562   6.324
  161POPC   C4B 2245   5.885   3.973   6.088
  162POPC   NC3 2246   3.451   2.172   8.112
  162POPC   PO4 2247   2.912   1.974   8.126
  162POPC   GL1 2248   3.231   1.832   7.764
  162POPC   GL2 2249   3.592   1.989   7.662
  162POPC   C1A 2250   3.191   1.996   7.306
  162POPC   D2A 2251   3.202   2.043   6.832
  162POPC   C3A 2252   3.158   1.658   6.627
  162POPC   C4A 2253   3.019   1.593   6.211
  162POPC   C1B 2254   3.743   2.143   7.236
  162POPC   C2B 2255   3.711   2.063   6.777
  162POPC   C3B 2256   3.496   1.972   6.388
  162POPC   C4B 2257   3.681   2.248   6.095
  163POPC   NC3 2258   3.939   7.034   8.125
  163POPC   PO4 2259   3.429   7.512   8.177
  163POPC   GL1 2260   3.603   7.360   7.757
  163POPC   GL2 2261   3.502   7.037   7.661
  163POPC   C1A 2262   3.715   7.301   7.295
  163POPC   D2A 2263   3.585   7.065   6.939
  163POPC   C3A 2264   3.793   7.286   6.592
  163POPC   C4A 2265   3.764   7.257   6.182
  163POPC   C1B 2266   3.212   7.265   7.351
  163POPC   C2B 2267   3.054   7.240   6.936
  163POPC   C3B 2268   3.282   7.162   6.533
  163POPC   C4B 2269   3.350   6.976   6.141
  164POPC   NC3 2270   1.891   5.100   8.170
  164POPC   PO4 2271   1.421   4.637   8.000
  164POPC   GL1 2272   1.606   4.933   7.721
  164POPC   GL2 2273   1.986   4.932   7.703
  164POPC   C1A 2274   1.715   4.786   7.289
  164POPC   D2A 2275   1.964   4.762   6.894
  164POPC   C3A 2276   1.780   4.945   6.542
  164POPC   C4A 2277   1.629   4.732   6.193
  164POPC   C1B 2278   2.213   4.949   7.301
  164POPC   C2B 2279   2.368   5.113   6.892
  164POPC   C3B 2280   2.256   5.128   6.466
  164POPC   C4B 2281   2.149   4.746   6.250
  165POPC   NC3 2282   6.947   8.377   8.028
  165POPC   PO4 2283   7.428   8.773   8.165
  165POPC   GL1 2284   7.205   8.779   7.769
  165POPC   GL2 2285   7.417   8.612   7.584
  165POPC   C1A 2286   6.980   8.810   7.371
  165POPC   D2A 2287   6.942   8.558   6.997
  165POPC   C3A 2288   6.838   8.800   6.674
  165POPC   C4A 2289   6.980   8.953   6.296
  165POPC   C1B 2290   7.692   8.587   7.240
  165POPC   C2B 2291   7.622   8.513   6.816
  165POPC   C3B 2292   7.323   8.666   6.539
  165POPC   C4B 2293   7.239   8.538   6.105
  166POPC   NC3 2294   3.118   0.499   8.204
  166POPC   PO4 2295   3.674   0.836   8.390
  166POPC   GL1 2296   3.525   0.621   7.917
  166POPC   GL2 2297   3.410   0.270   7.835
  166POPC   C1A 2298   3.595   0.538   7.437
  166POPC   D2A 2299   3.384   0.691   7.036
  166POPC   C3A 2300   3.404   0.524   6.616
  166POPC   C4A 2301   3.242   0.632   6.230
  166POPC   C1B 2302   3.154   0.281   7.447
  166POPC   C2B 2303   3.155   0.222   6.976
  166POPC   C3B 2304   3.219   0.021   6.536
  166POPC   C4B 2305   3.431   0.130   6.128
  167POPC   NC3 2306   3.787   8.967   8.287
  167POPC   PO4 2307   4.136   9.011   7.783
  167POPC   GL1 2308   4.370   8.771   7.518
  167POPC   GL2 2309   4.479   8.449   7.637
  167POPC   C1A 2310   4.260   8.752   7.105
  167POPC   D2A 2311   4.051   8.931   6.816
  167POPC   C3A 2312   3.991   8.655   6.475
  167POPC   C4A 2313   3.995   8.897   6.095
  167POPC   C1B 2314   4.318   8.279   7.238
  167POPC   C2B 2315   4.173   8.206   6.810
  167POPC   C3B 2316   4.375   8.250   6.428
  167POPC   C4B 2317   4.349   8.515   6.122
  168POPC   NC3 2318   9.933   2.429   8.207
  168POPC   PO4 2319  10.207   1.837   8.101
  168POPC   GL1 2320  10.476   1.898   7.759
  168POPC   GL2 2321  10.203   2.083   7.615
  168POPC   C1A 2322   0.018   1.815   7.327
  168POPC   D2A 2323  10.355   2.048   6.998
  168POPC   C3A 2324  10.411   1.841   6.645
  168POPC   C4A 2325  10.326   1.706   6.264
  168POPC   C1B 2326   9.950   1.897   7.278
  168POPC   C2B 2327   9.857   2.152   6.889
  168POPC   C3B 2328  10.020   2.106   6.477
  168POPC   C4B 2329  10.211   2.340   6.153
  169POPC   NC3 2330   1.313   7.299   8.183
  169POPC   PO4 2331   0.945   7.806   8.021
  169POPC   GL1 2332   1.013   7.569   7.610
  169POPC   GL2 2333   1.330   7.384   7.672
  169POPC   C1A 2334   0.887   7.500   7.140
  169POPC   D2A 2335   0.862   7.385   6.704
  169POPC   C3A 2336   1.215   7.371   6.455
  169POPC   C4A 2337   1.149   7.414   6.031
  169POPC   C1B 2338   1.182   7.152   7.353
  169POPC   C2B 2339   1.189   7.072   6.933
  169POPC   C3B 2340   1.021   6.892   6.581
  169POPC   C4B 2341   1.194   6.947   6.187
  170POPC   NC3 2342  10.365   3.023   8.058
  170POPC   PO4 2343   9.705   2.762   7.967
  170POPC   GL1 2344  10.016   2.570   7.690
  170POPC   GL2 2345  10.379   2.579   7.739
  170POPC   C1A 2346  10.154   2.472   7.265
  170POPC   D2A 2347   9.894   2.654   6.963
  170POPC   C3A 2348  10.062   2.620   6.565
  170POPC   C4A 2349   9.864   2.729   6.176
  170POPC   C1B 2350   0.041   2.811   7.382
  170POPC   C2B 2351  10.358   2.889   6.970
  170POPC   C3B 2352   0.047   2.832   6.585
  170POPC   C4B 2353  10.353   2.869   6.190
  171POPC   NC3 2354  10.136   9.384   8.047
  171POPC   PO4 2355   0.060   8.857   7.919
  171POPC   GL1 2356  10.315   9.158   7.636
  171POPC   GL2 2357  10.379   9.559   7.655
  171POPC   C1A 2358  10.114   9.245   7.259
  171POPC   D2A 2359  10.337   9.247   6.876
  171POPC   C3A 2360  10.173   9.198   6.456
  171POPC   C4A 2361   0.047   9.042   6.237
  171POPC   C1B 2362  10.402   9.652   7.257
  171POPC   C2B 2363  10.154   9.718   6.936
  171POPC   C3B 2364  10.367   9.659   6.560
  171POPC   C4B 2365  10.368   9.531   6.138
  172POPC   NC3 2366  10.474   6.933   7.986
  172POPC   PO4 2367   9.795   7.336   8.103
  172POPC   GL1 2368  10.050   7.152   7.757
  172POPC   GL2 2369  10.249   7.390   7.604
  172POPC   C1A 2370  10.179   6.956   7.333
  172POPC   D2A 2371  10.011   7.060   6.907
  172POPC   C3A 2372  10.315   7.132   6.583
  172POPC   C4A 2373  10.340   6.991   6.196
  172POPC   C1B 2374   9.955   7.468   7.330
  172POPC   C2B 2375   9.867   7.573   6.929
  172POPC   C3B 2376   9.927   7.454   6.524
  172POPC   C4B 2377  10.071   7.418   6.125
  173POPC   NC3 2378   8.423   2.297   8.097
  173POPC   PO4 2379   8.126   2.938   8.097
  173POPC   GL1 2380   8.489   2.806   7.771
  173POPC   GL2 2381   8.452   2.473   7.590
  173POPC   C1A 2382   8.689   2.872   7.334
  173POPC   D2A 2383   8.483   2.687   6.932
  173POPC   C3A 2384   8.466   2.923   6.526
  173POPC   C4A 2385   8.792   2.914   6.196
  173POPC   C1B 2386   8.764   2.360   7.235
  173POPC   C2B 2387   8.904   2.316   6.812
  173POPC   C3B 2388   8.722   2.490   6.468
  173POPC   C4B 2389   8.368   2.487   6.194
  174POPC   NC3 2390   6.409   0.674   4.034
  174POPC   PO4 2391   6.833   0.175   3.973
  174POPC   GL1 2392   6.602   0.324   4.324
  174POPC   GL2 2393   6.259   0.219   4.253
  174POPC   C1A 2394   6.709   0.580   4.690
  174POPC   D2A 2395   6.683   0.329   5.054
  174POPC   C3A 2396   6.561   0.495   5.414
  174POPC   C4A 2397   6.615   0.228   5.766
  174POPC   C1B 2398   6.231   0.412   4.665
  174POPC   C2B 2399   6.147   0.276   5.081
  174POPC   C3B 2400   6.107   0.328   5.516
  174POPC   C4B 2401   6.312   0.647   5.852
  175POPC   NC3 2402   5.635   2.159   3.926
  175POPC   PO4 2403   6.113   1.569   3.852
  175POPC   GL1 2404   6.105   1.712   4.287
  175POPC   GL2 2405   5.743   1.809   4.298
  175POPC   C1A 2406   5.962   1.714   4.746
  175POPC   D2A 2407   5.652   1.781   5.074
  175POPC   C3A 2408   5.818   1.951   5.459
  175POPC   C4A 2409   5.873   1.694   5.812
  175POPC   C1B 2410   5.623   2.091   4.651
  175POPC   C2B 2411   5.306   2.146   4.973
  175POPC   C3B 2412   5.343   2.244   5.380
  175POPC   C4B 2413   5.306   2.351   5.782
  176POPC   NC3 2414   0.011   9.534   4.019
  176POPC   PO4 2415   0.572   9.829   3.723
  176POPC   GL1 2416   0.607   9.605   4.126
  176POPC   GL2 2417   0.441   9.276   4.134
  176POPC   C1A 2418   0.754   9.597   4.551
  176POPC   D2A 2419   0.894   9.593   4.973
  176POPC   C3A 2420   0.644   9.379   5.226
  176POPC   C4A 2421   0.638   9.383   5.648
  176POPC   C1B 2422   0.241   9.212   4.560
  176POPC   C2B 2423   0.175   9.352   4.979
  176POPC   C3B 2424   0.193   9.216   5.385
  176POPC   C4B 2425   0.151   9.341   5.787
  177POPC   NC3 2426   3.448   1.023   3.763
  177POPC   PO4 2427   3.389   0.344   3.977
  177POPC   GL1 2428   3.454   0.433   4.359
  177POPC   GL2 2429   3.642   0.152   4.398
  177POPC   C1A 2430   3.470   0.512   4.782
  177POPC   D2A 2431   3.701   0.579   5.122
  177POPC   C3A 2432   3.616   0.804   5.470
  177POPC   C4A 2433   3.565   0.560   5.850
  177POPC   C1B 2434   3.293   0.044   4.663
  177POPC   C2B 2435   3.158   0.204   5.053
  177POPC   C3B 2436   3.265   0.431   5.401
  177POPC   C4B 2437   3.104   0.367   5.796
  178POPC   NC3 2438   2.973   4.349   3.998
  178POPC   PO4 2439   2.394   4.479   3.722
  178POPC   GL1 2440   2.456   4.390   4.174
  178POPC   GL2 2441   2.598   4.072   4.217
  178POPC   C1A 2442   2.628   4.382   4.617
  178POPC   D2A 2443   2.513   4.200   5.031
  178POPC   C3A 2444   2.614   4.396   5.441
  178POPC   C4A 2445   2.965   4.490   5.728
  178POPC   C1B 2446   2.954   3.990   4.574
  178POPC   C2B 2447   2.995   3.964   5.032
  178POPC   C3B 2448   3.197   4.107   5.424
  178POPC   C4B 2449   3.261   4.054   5.851
  179POPC   NC3 2450   9.511   8.136   3.549
  179POPC   PO4 2451   8.920   8.015   3.856
  179POPC   GL1 2452   9.099   8.130   4.279
  179POPC   GL2 2453   9.412   7.992   4.351
  179POPC   C1A 2454   9.124   7.955   4.733
  179POPC   D2A 2455   9.452   7.964   5.037
  179POPC   C3A 2456   9.242   7.863   5.392
  179POPC   C4A 2457   9.488   7.921   5.711
  179POPC   C1B 2458   9.590   7.649   4.599
  179POPC   C2B 2459   9.835   7.607   4.950
  179POPC   C3B 2460   9.829   7.701   5.361
  179POPC   C4B 2461   9.801   7.507   5.714
  180POPC   NC3 2462   9.407   6.569   3.880
  180POPC   PO4 2463   9.922   6.998   3.981
  180POPC   GL1 2464   9.786   6.758   4.368
  180POPC   GL2 2465   9.422   6.658   4.386
  180POPC   C1A 2466   9.700   6.620   4.790
  180POPC   D2A 2467   9.679   6.362   5.170
  180POPC   C3A 2468   9.689   6.596   5.582
  180POPC   C4A 2469   9.479   6.624   6.019
  180POPC   C1B 2470   9.300   6.328   4.755
  180POPC   C2B 2471   9.182   6.231   5.165
  180POPC   C3B 2472   9.212   6.398   5.547
  180POPC   C4B 2473   9.208   6.200   5.928
  181POPC   NC3 2474   3.160   7.314   4.056
  181POPC   PO4 2475   3.784   7.537   3.942
  181POPC   GL1 2476   3.633   7.400   4.386
  181POPC   GL2 2477   3.253   7.394   4.542
  181POPC   C1A 2478   3.662   7.434   4.851
  181POPC   D2A 2479   3.407   7.229   5.109
  181POPC   C3A 2480   3.507   7.289   5.512
  181POPC   C4A 2481   3.682   6.961   5.764
  181POPC   C1B 2482   3.082   6.993   4.758
  181POPC   C2B 2483   3.144   6.803   5.184
  181POPC   C3B 2484   3.061   7.019   5.581
  181POPC   C4B 2485   3.049   7.460   5.679
  182POPC   NC3 2486   9.666   9.960   3.918
  182POPC   PO4 2487   9.087   9.811   4.243
  182POPC   GL1 2488   9.125  10.125   4.505
  182POPC   GL2 2489   9.391  10.237   4.262
  182POPC   C1A 2490   9.187   9.956   4.932
  182POPC   D2A 2491   9.491   9.908   5.240
  182POPC   C3A 2492   9.435   9.957   5.688
  182POPC   C4A 2493   9.278  10.116   6.120
  182POPC   C1B 2494   9.623  10.364   4.606
  182POPC   C2B 2495   9.531  10.391   5.013
  182POPC   C3B 2496   9.659  10.374   5.414
  182POPC   C4B 2497   9.442  10.452   5.792
  183POPC   NC3 2498   9.336   2.865   3.853
  183POPC   PO4 2499   9.642   2.484   4.136
  183POPC   GL1 2500   9.437   2.755   4.355
  183POPC   GL2 2501   9.092   2.907   4.291
  183POPC   C1A 2502   9.608   2.810   4.748
  183POPC   D2A 2503   9.574   2.544   5.064
  183POPC   C3A 2504   9.427   2.720   5.417
  183POPC   C4A 2505   9.581   2.591   5.775
  183POPC   C1B 2506   9.093   2.821   4.703
  183POPC   C2B 2507   9.220   3.001   5.047
  183POPC   C3B 2508   9.035   3.076   5.399
  183POPC   C4B 2509   9.108   2.862   5.787
  184POPC   NC3 2510   8.828   7.607   4.052
  184POPC   PO4 2511   8.371   8.105   4.163
  184POPC   GL1 2512   8.625   8.216   4.464
  184POPC   GL2 2513   8.705   7.857   4.473
  184POPC   C1A 2514   8.684   8.161   4.878
  184POPC   D2A 2515   8.547   7.939   5.232
  184POPC   C3A 2516   8.585   8.149   5.597
  184POPC   C4A 2517   8.989   8.127   5.763
  184POPC   C1B 2518   8.716   7.635   4.841
  184POPC   C2B 2519   8.485   7.429   5.129
  184POPC   C3B 2520   8.458   7.441   5.563
  184POPC   C4B 2521   8.780   7.681   5.721
  185POPC   NC3 2522   4.690   0.568   3.820
  185POPC   PO4 2523   5.321   0.186   3.922
  185POPC   GL1 2524   5.114   0.357   4.292
  185POPC   GL2 2525   4.775   0.360   4.260
  185POPC   C1A 2526   5.261   0.624   4.663
  185POPC   D2A 2527   5.133   0.805   5.047
  185POPC   C3A 2528   5.077   0.479   5.325
  185POPC   C4A 2529   4.994   0.515   5.743
  185POPC   C1B 2530   4.748   0.417   4.673
  185POPC   C2B 2531   4.627   0.344   5.080
  185POPC   C3B 2532   4.678   0.164   5.498
  185POPC   C4B 2533   4.631   0.183   5.950
  186POPC   NC3 2534   5.730  10.456   3.904
  186POPC   PO4 2535   5.385  10.058   3.588
  186POPC   GL1 2536   5.424  10.226   4.189
  186POPC   GL2 2537   5.757  10.186   4.350
  186POPC   C1A 2538   5.367  10.120   4.667
  186POPC   D2A 2539   5.419  10.128   5.125
  186POPC   C3A 2540   5.295  10.322   5.529
  186POPC   C4A 2541   5.430  10.243   5.971
  186POPC   C1B 2542   5.801  10.396   4.773
  186POPC   C2B 2543   5.839  10.405   5.233
  186POPC   C3B 2544   5.788  10.370   5.648
  186POPC   C4B 2545   5.911  10.108   6.016
  187POPC   NC3 2546  10.377   7.959   4.018
  187POPC   PO4 2547   9.906   8.263   3.776
  187POPC   GL1 2548   9.903   8.110   4.205
  187POPC   GL2 2549   9.968   7.751   4.272
  187POPC   C1A 2550   9.810   8.105   4.638
  187POPC   D2A 2551  10.028   8.073   4.986
  187POPC   C3A 2552   9.852   8.194   5.313
  187POPC   C4A 2553   9.873   8.236   5.733
  187POPC   C1B 2554  10.263   7.743   4.633
  187POPC   C2B 2555  10.482   7.824   5.018
  187POPC   C3B 2556  10.306   7.927   5.404
  187POPC   C4B 2557  10.205   7.810   5.805
  188POPC   NC3 2558   2.892   1.622   3.958
  188POPC   PO4 2559   2.857   0.966   3.799
  188POPC   GL1 2560   2.645   1.210   4.108
  188POPC   GL2 2561   2.990   1.227   4.268
  188POPC   C1A 2562   2.550   1.210   4.544
  188POPC   D2A 2563   2.733   0.992   4.888
  188POPC   C3A 2564   2.409   0.856   5.189
  188POPC   C4A 2565   2.376   0.973   5.610
  188POPC   C1B 2566   3.067   1.448   4.647
  188POPC   C2B 2567   2.934   1.448   5.068
  188POPC   C3B 2568   2.730   1.219   5.360
  188POPC   C4B 2569   2.804   1.252   5.799
  189POPC   NC3 2570   5.643   8.841   3.873
  189POPC   PO4 2571   6.158   8.304   3.876
  189POPC   GL1 2572   5.839   8.379   4.223
  189POPC   GL2 2573   5.777   8.709   4.333
  189POPC   C1A 2574   5.850   8.374   4.692
  189POPC   D2A 2575   6.042   8.509   5.080
  189POPC   C3A 2576   5.898   8.205   5.349
  189POPC   C4A 2577   5.592   8.252   5.636
  189POPC   C1B 2578   5.640   8.997   4.653
  189POPC   C2B 2579   5.759   9.008   5.069
  189POPC   C3B 2580   5.599   8.845   5.449
  189POPC   C4B 2581   5.603   8.984   5.865
  190POPC   NC3 2582   7.392   1.223   3.898
  190POPC   PO4 2583   6.810   0.855   3.914
  190POPC   GL1 2584   7.071   0.970   4.237
  190POPC   GL2 2585   7.091   1.298   4.296
  190POPC   C1A 2586   7.047   0.976   4.698
  190POPC   D2A 2587   7.079   1.136   5.127
  190POPC   C3A 2588   6.894   0.871   5.444
  190POPC   C4A 2589   7.084   0.810   5.876
  190POPC   C1B 2590   7.283   1.433   4.686
  190POPC   C2B 2591   7.110   1.649   4.993
  190POPC   C3B 2592   7.044   1.632   5.391
  190POPC   C4B 2593   7.077   1.280   5.653
  191POPC   NC3 2594   5.849   7.947   3.941
  191POPC   PO4 2595   5.218   8.091   3.946
  191POPC   GL1 2596   5.451   8.061   4.323
  191POPC   GL2 2597   5.786   7.893   4.434
  191POPC   C1A 2598   5.385   8.046   4.743
  191POPC   D2A 2599   5.138   8.230   5.030
  191POPC   C3A 2600   5.106   7.982   5.380
  191POPC   C4A 2601   5.388   7.745   5.627
  191POPC   C1B 2602   5.846   7.886   4.885
  191POPC   C2B 2603   5.760   7.680   5.271
  191POPC   C3B 2604   5.904   7.756   5.674
  191POPC   C4B 2605   6.129   8.113   5.790
  192POPC   NC3 2606   8.091   4.119   3.602
  192POPC   PO4 2607   7.948   4.703   4.038
  192POPC   GL1 2608   7.941   4.451   4.469
  192POPC   GL2 2609   8.108   4.044   4.505
  192POPC   C1A 2610   7.952   4.337   4.885
  192POPC   D2A 2611   8.158   4.019   5.053
  192POPC   C3A 2612   8.054   4.150   5.426
  192POPC   C4A 2613   7.919   4.298   5.833
  192POPC   C1B 2614   7.757   3.870   4.778
  192POPC   C2B 2615   7.660   3.917   5.204
  192POPC   C3B 2616   7.566   3.976   5.654
  192POPC   C4B 2617   7.682   3.880   6.100
  193POPC   NC3 2618   0.339   0.456   3.657
  193POPC   PO4 2619  10.087   0.408   3.822
  193POPC   GL1 2620   9.979   0.213   4.244
  193POPC   GL2 2621  10.141   0.494   4.352
  193POPC   C1A 2622  10.182  10.466   4.605
  193POPC   D2A 2623  10.281   0.028   5.024
  193POPC   C3A 2624  10.209   0.300   5.357
  193POPC   C4A 2625  10.149   0.174   5.766
  193POPC   C1B 2626   9.896   0.347   4.724
  193POPC   C2B 2627   9.737   0.341   5.137
  193POPC   C3B 2628   9.715   0.339   5.591
  193POPC   C4B 2629   9.850   0.587   5.916
  194POPC   NC3 2630   7.253   8.572   4.007
  194POPC   PO4 2631   6.838   8.973   3.679
  194POPC   GL1 2632   6.882   8.863   4.235
  194POPC   GL2 2633   7.152   8.666   4.475
  194POPC   C1A 2634   6.784   8.832   4.721
  194POPC   D2A 2635   7.133   8.768   5.038
  194POPC   C3A 2636   7.075   8.566   5.466
  194POPC   C4A 2637   6.840   8.692   5.843
  194POPC   C1B 2638   7.527   8.489   4.637
  194POPC   C2B 2639   7.766   8.502   5.030
  194POPC   C3B 2640   7.608   8.469   5.445
  194POPC   C4B 2641   7.476   8.788   5.734
  195POPC   NC3 2642   3.825   9.573   3.888
  195POPC   PO4 2643   4.484   9.723   3.863
  195POPC   GL1 2644   4.409   9.377   4.227
  195POPC   GL2 2645   4.168   9.134   4.224
  195POPC   C1A 2646   4.452   9.106   4.648
  195POPC   D2A 2647   4.237   9.175   5.077
  195POPC   C3A 2648   4.494   9.182   5.468
  195POPC   C4A 2649   4.393   9.250   5.917
  195POPC   C1B 2650   4.038   9.405   4.630
  195POPC   C2B 2651   4.062   9.656   5.065
  195POPC   C3B 2652   4.136   9.553   5.505
  195POPC   C4B 2653   3.966   9.159   5.633
  196POPC   NC3 2654   8.789   0.315   3.881
  196POPC   PO4 2655   9.225   0.884   4.007
  196POPC   GL1 2656   9.115   0.672   4.344
  196POPC   GL2 2657   8.966   0.368   4.344
  196POPC   C1A 2658   9.127   0.816   4.718
  196POPC   D2A 2659   8.900   0.861   5.043
  196POPC   C3A 2660   8.995   0.687   5.392
  196POPC   C4A 2661   8.673   0.591   5.602
  196POPC   C1B 2662   8.703   0.501   4.688
  196POPC   C2B 2663   8.687   0.363   5.104
  196POPC   C3B 2664   8.797   0.125   5.447
  196POPC   C4B 2665   8.626   0.142   5.848
  197POPC   NC3 2666  10.042   2.727   4.035
  197POPC   PO4 2667   9.848   2.182   3.708
  197POPC   GL1 2668  10.061   2.260   4.193
  197POPC   GL2 2669  10.293   2.481   4.438
  197POPC   C1A 2670   9.904   2.327   4.687
  197POPC   D2A 2671  10.081   2.658   4.964
  197POPC   C3A 2672   9.945   2.656   5.398
  197POPC   C4A 2673  10.067   2.900   5.747
  197POPC   C1B 2674  10.462   2.909   4.557
  197POPC   C2B 2675  10.474   3.097   4.963
  197POPC   C3B 2676  10.446   2.848   5.338
  197POPC   C4B 2677   0.079   2.918   5.739
  198POPC   NC3 2678   8.375   3.480   3.766
  198POPC   PO4 2679   8.998   3.197   3.860
  198POPC   GL1 2680   8.833   3.350   4.245
  198POPC   GL2 2681   8.730   3.663   4.159
  198POPC   C1A 2682   8.769   3.229   4.684
  198POPC   D2A 2683   8.478   3.160   5.052
  198POPC   C3A 2684   8.526   3.346   5.456
  198POPC   C4A 2685   8.816   3.280   5.797
  198POPC   C1B 2686   8.539   3.727   4.590
  198POPC   C2B 2687   8.562   3.699   5.031
  198POPC   C3B 2688   8.499   3.869   5.422
  198POPC   C4B 2689   8.555   3.708   5.841
  199POPC   NC3 2690   7.965   7.150   3.814
  199POPC   PO4 2691   8.608   7.223   3.884
  199POPC   GL1 2692   8.234   7.304   4.239
  199POPC   GL2 2693   7.893   7.197   4.314
  199POPC   C1A 2694   8.212   7.230   4.730
  199POPC   D2A 2695   7.972   7.061   5.117
  199POPC   C3A 2696   7.965   7.285   5.521
  199POPC   C4A 2697   8.058   7.217   5.989
  199POPC   C1B 2698   7.675   7.209   4.718
  199POPC   C2B 2699   7.548   7.411   5.126
  199POPC   C3B 2700   7.322   7.408   5.517
  199POPC   C4B 2701   7.573   7.263   5.855
  200POPC   NC3 2702   0.404   7.819   3.791
  200POPC   PO4 2703   0.082   8.377   3.991
  200POPC   GL1 2704   0.326   8.087   4.237
  200POPC   GL2 2705   0.246   7.740   4.272
  200POPC   C1A 2706   0.335   8.104   4.694
  200POPC   D2A 2707   0.487   8.003   5.115
  200POPC   C3A 2708   0.244   8.195   5.397
  200POPC   C4A 2709   0.050   8.182   5.788
  200POPC   C1B 2710   0.304   7.604   4.651
  200POPC   C2B 2711   0.365   7.492   5.070
  200POPC   C3B 2712   0.273   7.680   5.480
  200POPC   C4B 2713   0.568   7.977   5.703
  201POPC   NC3 2714   7.295   7.188   3.811
  201POPC   PO4 2715   7.718   6.777   3.980
  201POPC   GL1 2716   7.421   7.004   4.276
  201POPC   GL2 2717   7.396   7.365   4.283
  201POPC   C1A 2718   7.234   6.883   4.668
  201POPC   D2A 2719   7.501   6.822   5.035
  201POPC   C3A 2720   7.527   6.942   5.463
  201POPC   C4A 2721   7.299   6.839   5.871
  201POPC   C1B 2722   7.188   7.378   4.676
  201POPC   C2B 2723   7.108   7.170   5.085
  201POPC   C3B 2724   6.997   7.009   5.491
  201POPC   C4B 2725   6.967   7.240   5.862
  202POPC   NC3 2726   8.884  10.173   4.029
  202POPC   PO4 2727   8.430   9.640   3.895
  202POPC   GL1 2728   8.574   9.899   4.332
  202POPC   GL2 2729   8.549  10.284   4.396
  202POPC   C1A 2730   8.687  10.026   4.794
  202POPC   D2A 2731   8.510  10.374   5.071
  202POPC   C3A 2732   8.470  10.230   5.506
  202POPC   C4A 2733   8.515   9.831   5.759
  202POPC   C1B 2734   8.819   0.010   4.664
  202POPC   C2B 2735   9.022  10.424   5.023
  202POPC   C3B 2736   9.148  10.267   5.400
  202POPC   C4B 2737   8.913  10.224   5.785
  203POPC   NC3 2738   9.541   5.773   3.654
  203POPC   PO4 2739   9.635   6.250   4.171
  203POPC   GL1 2740   9.717   5.941   4.440
  203POPC   GL2 2741   9.577   5.650   4.302
  203POPC   C1A 2742   9.668   5.956   4.842
  203POPC   D2A 2743   9.538   5.821   5.191
  203POPC   C3A 2744   9.565   6.033   5.532
  203POPC   C4A 2745   9.717   6.176   5.895
  203POPC   C1B 2746   9.315   5.585   4.692
  203POPC   C2B 2747   9.431   5.349   5.060
  203POPC   C3B 2748   9.314   5.447   5.471
  203POPC   C4B 2749   9.394   5.674   5.831
  204POPC   NC3 2750   6.435   1.939   3.924
  204POPC   PO4 2751   6.061   2.449   3.869
  204POPC   GL1 2752   6.098   2.222   4.265
  204POPC   GL2 2753   6.438   2.108   4.381
  204POPC   C1A 2754   6.123   2.258   4.731
  204POPC   D2A 2755   6.167   2.035   5.099
  204POPC   C3A 2756   6.226   2.256   5.464
  204POPC   C4A 2757   6.163   2.103   5.874
  204POPC   C1B 2758   6.440   1.840   4.711
  204POPC   C2B 2759   6.613   1.786   5.134
  204POPC   C3B 2760   6.469   1.796   5.569
  204POPC   C4B 2761   6.754   1.603   5.854
  205POPC   NC3 2762   1.663   3.421   3.899
  205POPC   PO4 2763   1.629   2.911   4.195
  205POPC   GL1 2764   1.881   3.232   4.357
  205POPC   GL2 2765   1.792   3.589   4.366
  205POPC   C1A 2766   1.788   3.189   4.788
  205POPC   D2A 2767   1.868   2.982   5.146
  205POPC   C3A 2768   1.820   3.271   5.432
  205POPC   C4A 2769   2.191   3.124   5.610
  205POPC   C1B 2770   2.020   3.647   4.724
  205POPC   C2B 2771   1.929   3.743   5.151
  205POPC   C3B 2772   2.161   3.637   5.531
  205POPC   C4B 2773   1.949   3.475   5.904
  206POPC   NC3 2774   6.313   3.536   3.916
  206POPC   PO4 2775   6.787   3.847   3.932
  206POPC   GL1 2776   6.674   3.675   4.339
  206POPC   GL2 2777   6.396   3.475   4.403
  206POPC   C1A 2778   6.614   3.685   4.811
  206POPC   D2A 2779   6.566   3.454   5.186
  206POPC   C3A 2780   6.473   3.744   5.570
  206POPC   C4A 2781   6.400   3.917   6.017
  206POPC   C1B 2782   6.217   3.331   4.779
  206POPC   C2B 2783   6.150   3.157   5.195
  206POPC   C3B 2784   6.286   3.271   5.600
  206POPC   C4B 2785   6.044   3.564   5.818
  207POPC   NC3 2786   9.802   7.441   3.899
  207POPC   PO4 2787   0.021   7.550   3.843
  207POPC   GL1 2788  10.379   7.394   4.261
  207POPC   GL2 2789  10.309   7.059   4.291
  207POPC   C1A 2790  10.463   7.258   4.725
  207POPC   D2A 2791  10.277   7.154   5.102
  207POPC   C3A 2792  10.266   7.422   5.434
  207POPC   C4A 2793  10.463   7.361   5.815
  207POPC   C1B 2794   9.970   7.261   4.576
  207POPC   C2B 2795   9.764   7.108   4.957
  207POPC   C3B 2796   9.842   7.091   5.390
  207POPC   C4B 2797  10.078   7.051   5.760
  208POPC   NC3 2798   0.133   9.977   3.664
  208POPC   PO4 2799   0.488   0.064   3.907
  208POPC   GL1 2800   0.269  10.361   4.255
  208POPC   GL2 2801   0.297  10.015   4.159
  208POPC   C1A 2802   0.223  10.476   4.714
  208POPC   D2A 2803   0.512  10.492   5.080
  208POPC   C3A 2804   0.494  10.265   5.486
  208POPC   C4A 2805   0.225  10.270   5.838
  208POPC   C1B 2806   0.479  10.035   4.594
  208POPC   C2B 2807   0.429   9.810   4.989
  208POPC   C3B 2808   0.240   9.733   5.405
  208POPC   C4B 2809   0.373   9.788   5.825
  209POPC   NC3 2810   3.868   0.424   3.994
  209POPC   PO4 2811   4.296   0.795   3.776
  209POPC   GL1 2812   4.313   0.626   4.195
  209POPC   GL2 2813   4.247   0.296   4.339
  209POPC   C1A 2814   4.336   0.725   4.628
  209POPC   D2A 2815   4.171   0.714   5.052
  209POPC   C3A 2816   4.368   0.608   5.421
  209POPC   C4A 2817   4.317   0.538   5.818
  209POPC   C1B 2818   4.001   0.327   4.728
  209POPC   C2B 2819   4.112   0.211   5.155
  209POPC   C3B 2820   3.917   0.357   5.539
  209POPC   C4B 2821   3.937   0.250   5.983
  210POPC   NC3 2822   1.927   8.183   3.818
  210POPC   PO4 2823   2.087   7.484   3.758
  210POPC   GL1 2824   2.126   7.619   4.198
  210POPC   GL2 2825   2.043   7.992   4.290
  210POPC   C1A 2826   2.310   7.628   4.610
  210POPC   D2A 2827   2.450   7.753   5.030
  210POPC   C3A 2828   2.240   7.626   5.415
  210POPC   C4A 2829   2.108   7.534   5.825
  210POPC   C1B 2830   1.949   7.955   4.741
  210POPC   C2B 2831   2.023   8.009   5.168
  210POPC   C3B 2832   1.803   7.903   5.511
  210POPC   C4B 2833   1.681   7.824   5.924
  211POPC   NC3 2834   1.753   9.728   3.994
  211POPC   PO4 2835   2.005  10.364   3.824
  211POPC   GL1 2836   1.927  10.186   4.209
  211POPC   GL2 2837   1.554  10.193   4.212
  211POPC   C1A 2838   2.062  10.149   4.655
  211POPC   D2A 2839   2.185  10.345   5.066
  211POPC   C3A 2840   2.082  10.111   5.440
  211POPC   C4A 2841   1.965  10.279   5.796
  211POPC   C1B 2842   1.499  10.199   4.661
  211POPC   C2B 2843   1.724  10.120   5.045
  211POPC   C3B 2844   1.573  10.187   5.449
  211POPC   C4B 2845   1.695   9.861   5.730
  212POPC   NC3 2846   2.316   5.669   3.794
  212POPC   PO4 2847   1.679   5.386   3.720
  212POPC   GL1 2848   1.836   5.457   4.168
  212POPC   GL2 2849   1.504   5.496   4.311
  212POPC   C1A 2850   1.964   5.565   4.652
  212POPC   D2A 2851   2.174   5.854   5.000
  212POPC   C3A 2852   2.324   5.772   5.444
  212POPC   C4A 2853   2.219   5.607   5.868
  212POPC   C1B 2854   1.509   5.786   4.677
  212POPC   C2B 2855   1.698   5.769   5.091
  212POPC   C3B 2856   1.835   5.617   5.539
  212POPC   C4B 2857   1.778   5.809   5.958
  213POPC   NC3 2858   3.096   9.510   3.934
  213POPC   PO4 2859   3.749   9.123   3.799
  213POPC   GL1 2860   3.688   9.257   4.273
  213POPC   GL2 2861   3.602   9.613   4.347
  213POPC   C1A 2862   3.588   9.174   4.711
  213POPC   D2A 2863   3.722   9.104   5.120
  213POPC   C3A 2864   3.648   9.457   5.350
  213POPC   C4A 2865   3.511   9.406   5.774
  213POPC   C1B 2866   3.296   9.587   4.657
  213POPC   C2B 2867   3.204   9.344   5.044
  213POPC   C3B 2868   3.151   9.510   5.446
  213POPC   C4B 2869   2.983   9.766   5.795
  214POPC   NC3 2870   1.729   7.198   3.826
  214POPC   PO4 2871   2.199   6.792   3.914
  214POPC   GL1 2872   2.067   7.085   4.214
  214POPC   GL2 2873   1.757   7.034   4.343
  214POPC   C1A 2874   2.145   7.146   4.660
  214POPC   D2A 2875   2.326   7.262   5.031
  214POPC   C3A 2876   2.172   7.115   5.433
  214POPC   C4A 2877   2.069   7.018   5.866
  214POPC   C1B 2878   1.759   7.463   4.591
  214POPC   C2B 2879   1.861   7.533   5.056
  214POPC   C3B 2880   1.735   7.389   5.500
  214POPC   C4B 2881   1.635   7.311   5.958
  215POPC   NC3 2882   1.759   6.475   3.995
  215POPC   PO4 2883   2.343   6.104   3.930
  215POPC   GL1 2884   2.079   6.151   4.248
  215POPC   GL2 2885   2.174   6.484   4.317
  215POPC   C1A 2886   1.910   6.118   4.656
  215POPC   D2A 2887   1.834   6.316   5.061
  215POPC   C3A 2888   1.871   6.105   5.436
  215POPC   C4A 2889   2.113   6.128   5.774
  215POPC   C1B 2890   2.008   6.647   4.678
  215POPC   C2B 2891   2.171   6.731   5.090
  215POPC   C3B 2892   2.116   6.610   5.539
  215POPC   C4B 2893   1.739   6.515   5.723
  216POPC   NC3 2894   4.651   2.076   4.086
  216POPC   PO4 2895   5.279   1.843   4.019
  216POPC   GL1 2896   5.203   1.997   4.393
  216POPC   GL2 2897   4.881   2.096   4.531
  216POPC   C1A 2898   5.173   1.718   4.743
  216POPC   D2A 2899   4.971   1.781   5.116
  216POPC   C3A 2900   5.254   1.638   5.394
  216POPC   C4A 2901   5.402   1.859   5.698
  216POPC   C1B 2902   4.811   2.397   4.855
  216POPC   C2B 2903   4.848   2.423   5.306
  216POPC   C3B 2904   4.916   2.054   5.578
  216POPC   C4B 2905   4.651   1.804   5.829
  217POPC   NC3 2906   7.926   9.966   3.832
  217POPC   PO4 2907   7.605   0.194   3.879
  217POPC   GL1 2908   7.806   0.175   4.287
  217POPC   GL2 2909   8.067  10.432   4.226
  217POPC   C1A 2910   7.762   0.072   4.728
  217POPC   D2A 2911   7.994  10.427   5.087
  217POPC   C3A 2912   7.735  10.352   5.422
  217POPC   C4A 2913   7.588  10.463   5.810
  217POPC   C1B 2914   8.103  10.182   4.615
  217POPC   C2B 2915   8.216   9.957   4.970
  217POPC   C3B 2916   8.137   9.838   5.365
  217POPC   C4B 2917   8.040  10.063   5.722
  218POPC   NC3 2918   4.991   7.686   3.969
  218POPC   PO4 2919   4.602   7.982   4.244
  218POPC   GL1 2920   4.953   7.913   4.463
  218POPC   GL2 2921   4.967   8.254   4.520
  218POPC   C1A 2922   4.945   7.758   4.912
  218POPC   D2A 2923   4.694   7.575   5.269
  218POPC   C3A 2924   4.869   7.599   5.704
  218POPC   C4A 2925   4.783   7.435   6.182
  218POPC   C1B 2926   4.649   8.176   4.861
  218POPC   C2B 2927   4.596   8.084   5.299
  218POPC   C3B 2928   4.774   8.275   5.647
  218POPC   C4B 2929   5.150   8.138   5.867
  219POPC   NC3 2930   2.716   8.627   3.975
  219POPC   PO4 2931   3.232   9.128   4.148
  219POPC   GL1 2932   3.041   8.730   4.330
  219POPC   GL2 2933   2.686   8.828   4.425
  219POPC   C1A 2934   2.911   8.434   4.684
  219POPC   D2A 2935   2.849   8.575   5.066
  219POPC   C3A 2936   2.965   8.390   5.412
  219POPC   C4A 2937   2.984   8.716   5.702
  219POPC   C1B 2938   2.445   8.675   4.777
  219POPC   C2B 2939   2.354   8.813   5.168
  219POPC   C3B 2940   2.501   8.633   5.512
  219POPC   C4B 2941   2.568   8.403   5.855
  220POPC   NC3 2942   6.340   7.175   4.107
  220POPC   PO4 2943   6.929   7.391   3.988
  220POPC   GL1 2944   6.752   7.366   4.403
  220POPC   GL2 2945   6.695   7.028   4.517
  220POPC   C1A 2946   6.709   7.415   4.861
  220POPC   D2A 2947   6.604   7.134   5.193
  220POPC   C3A 2948   6.543   7.283   5.578
  220POPC   C4A 2949   6.441   7.147   5.980
  220POPC   C1B 2950   6.310   7.075   4.784
  220POPC   C2B 2951   6.141   6.850   5.157
  220POPC   C3B 2952   6.226   6.831   5.612
  220POPC   C4B 2953   5.932   6.943   5.962
  221POPC   NC3 2954   1.044   4.697   3.761
  221POPC   PO4 2955   1.109   5.289   4.009
  221POPC   GL1 2956   1.171   5.100   4.356
  221POPC   GL2 2957   1.187   4.797   4.271
  221POPC   C1A 2958   1.365   5.017   4.721
  221POPC   D2A 2959   1.525   5.313   4.953
  221POPC   C3A 2960   1.488   5.215   5.374
  221POPC   C4A 2961   1.528   4.963   5.760
  221POPC   C1B 2962   0.922   4.766   4.658
  221POPC   C2B 2963   0.998   4.992   5.058
  221POPC   C3B 2964   1.134   4.823   5.456
  221POPC   C4B 2965   1.040   5.144   5.758
  222POPC   NC3 2966   3.028   0.637   4.059
  222POPC   PO4 2967   2.391   0.301   4.036
  222POPC   GL1 2968   2.583   0.307   4.406
  222POPC   GL2 2969   2.957   0.232   4.333
  222POPC   C1A 2970   2.375   0.239   4.801
  222POPC   D2A 2971   2.355   0.309   5.225
  222POPC   C3A 2972   2.361   0.046   5.552
  222POPC   C4A 2973   2.563   0.216   5.889
  222POPC   C1B 2974   2.947   0.513   4.707
  222POPC   C2B 2975   2.797   0.534   5.123
  222POPC   C3B 2976   2.842   0.739   5.509
  222POPC   C4B 2977   2.776   0.710   5.954
  223POPC   NC3 2978   8.551   5.728   3.964
  223POPC   PO4 2979   9.221   5.626   3.951
  223POPC   GL1 2980   8.929   5.616   4.311
  223POPC   GL2 2981   8.734   5.921   4.393
  223POPC   C1A 2982   8.761   5.499   4.707
  223POPC   D2A 2983   8.920   5.266   5.031
  223POPC   C3A 2984   8.817   5.295   5.432
  223POPC   C4A 2985   8.815   5.397   5.818
  223POPC   C1B 2986   8.885   5.990   4.804
  223POPC   C2B 2987   9.043   5.742   5.136
  223POPC   C3B 2988   8.977   5.851   5.559
  223POPC   C4B 2989   8.579   5.966   5.746
  224POPC   NC3 2990   3.365  10.363   3.954
  224POPC   PO4 2991   2.803   9.907   3.860
  224POPC   GL1 2992   3.164   9.919   4.251
  224POPC   GL2 2993   3.493  10.128   4.415
  224POPC   C1A 2994   3.088  10.043   4.706
  224POPC   D2A 2995   3.250  10.218   5.088
  224POPC   C3A 2996   3.281  10.027   5.486
  224POPC   C4A 2997   3.356  10.088   5.943
  224POPC   C1B 2998   3.728  10.345   4.797
  224POPC   C2B 2999   3.623   0.070   5.179
  224POPC   C3B 3000   3.515   0.005   5.613
  224POPC   C4B 3001   3.808  10.291   5.883
  225POPC   NC3 3002   6.702  10.222   3.939
  225POPC   PO4 3003   6.049  10.040   3.945
  225POPC   GL1 3004   6.277  10.210   4.306
  225POPC   GL2 3005   6.626  10.330   4.412
  225POPC   C1A 3006   6.280  10.189   4.755
  225POPC   D2A 3007   6.173  10.027   5.161
  225POPC   C3A 3008   6.333  10.370   5.430
  225POPC   C4A 3009   6.214  10.470   5.850
  225POPC   C1B 3010   6.812  10.150   4.761
  225POPC   C2B 3011   6.696  10.104   5.159
  225POPC   C3B 3012   6.732   9.906   5.538
  225POPC   C4B 3013   6.650  10.214   5.826
  226POPC   NC3 3014   6.542   8.667   3.920
  226POPC   PO4 3015   6.878   8.129   4.023
  226POPC   GL1 3016   6.671   8.388   4.378
  226POPC   GL2 3017   6.317   8.515   4.353
  226POPC   C1A 3018   6.516   8.439   4.831
  226POPC   D2A 3019   6.643   8.661   5.205
  226POPC   C3A 3020   6.409   8.511   5.542
  226POPC   C4A 3021   6.360   8.484   6.018
  226POPC   C1B 3022   6.172   8.816   4.668
  226POPC   C2B 3023   6.273   8.978   5.074
  226POPC   C3B 3024   6.075   9.017   5.477
  226POPC   C4B 3025   5.961   8.629   5.720
  227POPC   NC3 3026   7.143   1.879   3.880
  227POPC   PO4 3027   6.703   2.368   3.985
  227POPC   GL1 3028   6.940   2.147   4.317
  227POPC   GL2 3029   7.048   1.808   4.376
  227POPC   C1A 3030   6.885   2.044   4.768
  227POPC   D2A 3031   7.078   2.139   5.125
  227POPC   C3A 3032   6.876   2.100   5.541
  227POPC   C4A 3033   7.064   2.229   5.930
  227POPC   C1B 3034   7.376   1.985   4.670
  227POPC   C2B 3035   7.565   1.899   5.069
  227POPC   C3B 3036   7.417   2.017   5.466
  227POPC   C4B 3037   7.271   1.780   5.818
  228POPC   NC3 3038   9.429   1.286   3.987
  228POPC   PO4 3039  10.047   1.442   3.890
  228POPC   GL1 3040   9.788   1.465   4.282
  228POPC   GL2 3041   9.730   1.092   4.339
  228POPC   C1A 3042   9.890   1.380   4.721
  228POPC   D2A 3043   9.820   1.112   5.054
  228POPC   C3A 3044   9.709   1.201   5.453
  228POPC   C4A 3045   9.779   1.518   5.719
  228POPC   C1B 3046   9.408   1.227   4.623
  228POPC   C2B 3047   9.300   1.247   5.023
  228POPC   C3B 3048   9.223   1.151   5.420
  228POPC   C4B 3049   9.296   1.332   5.859
  229POPC   NC3 3050   9.368   5.064   3.926
  229POPC   PO4 3051   9.846   5.476   3.886
  229POPC   GL1 3052   9.740   5.140   4.282
  229POPC   GL2 3053   9.562   4.816   4.312
  229POPC   C1A 3054   9.744   4.964   4.747
  229POPC   D2A 3055   9.680   4.750   5.156
  229POPC   C3A 3056   9.682   5.069   5.462
  229POPC   C4A 3057   9.632   5.209   5.904
  229POPC   C1B 3058   9.272   5.074   4.569
  229POPC   C2B 3059   9.245   4.909   4.930
  229POPC   C3B 3060   9.203   4.942   5.332
  229POPC   C4B 3061   9.193   5.037   5.730
  230POPC   NC3 3062   7.125   0.522   3.814
  230POPC   PO4 3063   7.710   0.818   3.966
  230POPC   GL1 3064   7.446   0.563   4.255
  230POPC   GL2 3065   7.073   0.481   4.323
  230POPC   C1A 3066   7.361   0.552   4.707
  230POPC   D2A 3067   7.138   0.601   5.082
  230POPC   C3A 3068   7.395   0.747   5.436
  230POPC   C4A 3069   7.477   0.501   5.821
  230POPC   C1B 3070   7.018   0.164   4.699
  230POPC   C2B 3071   7.329   0.113   5.029
  230POPC   C3B 3072   7.378   0.222   5.410
  230POPC   C4B 3073   7.040   0.400   5.585
  231POPC   NC3 3074   1.979   4.382   3.924
  231POPC   PO4 3075   2.045   3.676   3.923
  231POPC   GL1 3076   2.066   4.005   4.269
  231POPC   GL2 3077   1.694   4.109   4.264
  231POPC   C1A 3078   2.126   4.295   4.649
  231POPC   D2A 3079   2.089   4.484   5.094
  231POPC   C3A 3080   2.155   4.155   5.422
  231POPC   C4A 3081   2.367   4.010   5.811
  231POPC   C1B 3082   1.683   4.039   4.699
  231POPC   C2B 3083   1.636   4.281   5.065
  231POPC   C3B 3084   1.675   4.331   5.516
  231POPC   C4B 3085   1.791   3.939   5.728
  232POPC   NC3 3086   2.442   7.194   3.870
  232POPC   PO4 3087   2.906   7.616   3.827
  232POPC   GL1 3088   2.708   7.437   4.261
  232POPC   GL2 3089   2.555   7.089   4.353
  232POPC   C1A 3090   2.735   7.368   4.723
  232POPC   D2A 3091   2.918   7.367   5.110
  232POPC   C3A 3092   2.648   7.326   5.414
  232POPC   C4A 3093   2.527   7.243   5.782
  232POPC   C1B 3094   2.545   6.847   4.738
  232POPC   C2B 3095   2.650   6.884   5.173
  232POPC   C3B 3096   2.601   6.766   5.620
  232POPC   C4B 3097   2.509   6.860   6.093
  233POPC   NC3 3098   4.021   1.314   3.937
  233POPC   PO4 3099   3.327   1.432   3.930
  233POPC   GL1 3100   3.552   1.244   4.224
  233POPC   GL2 3101   3.436   0.932   4.275
  233POPC   C1A 3102   3.621   1.325   4.629
  233POPC   D2A 3103   3.424   1.356   5.012
  233POPC   C3A 3104   3.644   1.463   5.384
  233POPC   C4A 3105   3.685   1.294   5.773
  233POPC   C1B 3106   3.238   0.959   4.661
  233POPC   C2B 3107   3.210   0.871   5.090
  233POPC   C3B 3108   3.223   1.133   5.437
  233POPC   C4B 3109   3.228   0.933   5.794
  234POPC   NC3 3110   2.054   8.791   3.722
  234POPC   PO4 3111   2.190   8.930   4.287
  234POPC   GL1 3112   1.914   8.776   4.574
  234POPC   GL2 3113   1.753   8.420   4.563
  234POPC   C1A 3114   1.916   8.974   4.942
  234POPC   D2A 3115   1.786   8.986   5.315
  234POPC   C3A 3116   2.112   9.040   5.585
  234POPC   C4A 3117   2.199   8.776   5.904
  234POPC   C1B 3118   1.999   8.454   4.941
  234POPC   C2B 3119   1.999   8.494   5.389
  234POPC   C3B 3120   1.860   8.392   5.810
  234POPC   C4B 3121   2.165   8.360   6.196
  235POPC   NC3 3122   6.830   2.790   4.147
  235POPC   PO4 3123   7.418   3.072   3.893
  235POPC   GL1 3124   7.356   2.858   4.270
  235POPC   GL2 3125   7.333   2.488   4.228
  235POPC   C1A 3126   7.273   2.969   4.692
  235POPC   D2A 3127   7.465   2.933   5.080
  235POPC   C3A 3128   7.277   3.022   5.484
  235POPC   C4A 3129   7.338   3.026   5.934
  235POPC   C1B 3130   7.150   2.467   4.657
  235POPC   C2B 3131   7.024   2.646   5.043
  235POPC   C3B 3132   7.136   2.529   5.462
  235POPC   C4B 3133   6.963   2.713   5.828
  236POPC   NC3 3134   7.153   3.599   3.826
  236POPC   PO4 3135   7.782   3.773   3.869
  236POPC   GL1 3136   7.431   3.521   4.221
  236POPC   GL2 3137   7.077   3.300   4.226
  236POPC   C1A 3138   7.375   3.474   4.651
  236POPC   D2A 3139   7.622   3.414   5.011
  236POPC   C3A 3140   7.477   3.491   5.402
  236POPC   C4A 3141   7.350   3.537   5.802
  236POPC   C1B 3142   6.861   3.268   4.635
  236POPC   C2B 3143   7.065   3.298   5.057
  236POPC   C3B 3144   6.970   3.458   5.475
  236POPC   C4B 3145   6.869   3.219   5.810
  237POPC   NC3 3146   2.468   3.516   3.816
  237POPC   PO4 3147   3.028   3.859   3.942
  237POPC   GL1 3148   2.742   3.602   4.289
  237POPC   GL2 3149   2.364   3.462   4.313
  237POPC   C1A 3150   2.491   3.825   4.655
  237POPC   D2A 3151   2.434   3.701   5.093
  237POPC   C3A 3152   2.682   3.866   5.434
  237POPC   C4A 3153   2.827   3.741   5.853
  237POPC   C1B 3154   2.547   3.327   4.724
  237POPC   C2B 3155   2.421   3.194   5.141
  237POPC   C3B 3156   2.622   3.357   5.520
  237POPC   C4B 3157   2.445   3.420   5.926
  238POPC   NC3 3158   9.631   0.454   3.817
  238POPC   PO4 3159   9.168   0.022   3.902
  238POPC   GL1 3160   9.454   0.240   4.240
  238POPC   GL2 3161   9.621   0.589   4.302
  238POPC   C1A 3162   9.385   0.314   4.667
  238POPC   D2A 3163   9.167   0.398   4.984
  238POPC   C3A 3164   9.282   0.257   5.355
  238POPC   C4A 3165   9.144   0.351   5.754
  238POPC   C1B 3166   9.630   0.770   4.734
  238POPC   C2B 3167   9.461   0.770   5.163
  238POPC   C3B 3168   9.454   0.757   5.612
  238POPC   C4B 3169   9.315   0.740   6.030
  239POPC   NC3 3170   8.572   8.512   4.037
  239POPC   PO4 3171   9.164   8.711   4.099
  239POPC   GL1 3172   8.987   8.618   4.473
  239POPC   GL2 3173   8.704   8.742   4.503
  239POPC   C1A 3174   8.962   8.637   4.927
  239POPC   D2A 3175   9.009   8.322   5.233
  239POPC   C3A 3176   8.955   8.588   5.577
  239POPC   C4A 3177   8.825   8.822   5.945
  239POPC   C1B 3178   8.440   8.612   4.805
  239POPC   C2B 3179   8.527   8.508   5.204
  239POPC   C3B 3180   8.453   8.651   5.554
  239POPC   C4B 3181   8.365   8.959   5.760
  240POPC   NC3 3182   1.903   0.255   4.021
  240POPC   PO4 3183   1.864   0.856   3.843
  240POPC   GL1 3184   2.130   0.702   4.240
  240POPC   GL2 3185   1.926   0.494   4.464
  240POPC   C1A 3186   2.303   0.734   4.691
  240POPC   D2A 3187   1.975   0.549   5.000
  240POPC   C3A 3188   2.036   0.604   5.463
  240POPC   C4A 3189   2.162   0.665   5.919
  240POPC   C1B 3190   1.863   0.120   4.700
  240POPC   C2B 3191   1.645   0.111   5.070
  240POPC   C3B 3192   1.867   0.118   5.414
  240POPC   C4B 3193   1.891   0.265   5.819
  241POPC   NC3 3194   4.270   3.619   3.931
  241POPC   PO4 3195   4.682   3.238   3.913
  241POPC   GL1 3196   4.522   3.283   4.325
  241POPC   GL2 3197   4.186   3.227   4.341
  241POPC   C1A 3198   4.422   3.297   4.790
  241POPC   D2A 3199   4.481   3.300   5.236
  241POPC   C3A 3200   4.405   3.667   5.534
  241POPC   C4A 3201   4.315   3.993   5.892
  241POPC   C1B 3202   3.973   3.050   4.663
  241POPC   C2B 3203   3.959   3.167   5.093
  241POPC   C3B 3204   4.053   3.273   5.514
  241POPC   C4B 3205   4.005   3.579   5.826
  242POPC   NC3 3206   0.360   8.765   4.002
  242POPC   PO4 3207   0.718   8.182   3.820
  242POPC   GL1 3208   0.774   8.388   4.285
  242POPC   GL2 3209   0.467   8.526   4.429
  242POPC   C1A 3210   0.845   8.766   4.633
  242POPC   D2A 3211   0.561   8.935   4.997
  242POPC   C3A 3212   0.650   8.866   5.476
  242POPC   C4A 3213   0.475   8.487   5.746
  242POPC   C1B 3214   0.111   8.710   4.628
  242POPC   C2B 3215   0.038   8.857   5.014
  242POPC   C3B 3216   0.188   8.706   5.362
  242POPC   C4B 3217   0.136   8.848   5.756
  243POPC   NC3 3218   1.204   2.755   4.087
  243POPC   PO4 3219   1.187   3.430   3.938
  243POPC   GL1 3220   1.349   3.349   4.328
  243POPC   GL2 3221   1.290   3.714   4.428
  243POPC   C1A 3222   1.209   3.117   4.694
  243POPC   D2A 3223   0.844   3.202   4.946
  243POPC   C3A 3224   0.905   3.111   5.370
  243POPC   C4A 3225   0.921   3.207   5.789
  243POPC   C1B 3226   1.466   3.582   4.792
  243POPC   C2B 3227   1.354   3.355   5.125
  243POPC   C3B 3228   1.216   3.480   5.495
  243POPC   C4B 3229   1.468   3.425   5.799
  244POPC   NC3 3230   6.035   2.834   4.121
  244POPC   PO4 3231   5.478   2.817   3.909
  244POPC   GL1 3232   5.517   2.834   4.337
  244POPC   GL2 3233   5.666   2.502   4.315
  244POPC   C1A 3234   5.473   3.009   4.791
  244POPC   D2A 3235   5.718   2.862   5.198
  244POPC   C3A 3236   5.723   3.037   5.607
  244POPC   C4A 3237   5.381   3.212   5.870
  244POPC   C1B 3238   5.744   2.583   4.755
  244POPC   C2B 3239   5.769   2.357   5.137
  244POPC   C3B 3240   5.773   2.479   5.590
  244POPC   C4B 3241   6.035   2.585   5.967
  245POPC   NC3 3242   0.330   4.488   3.966
  245POPC   PO4 3243   0.735   5.010   3.688
  245POPC   GL1 3244   0.708   4.999   4.162
  245POPC   GL2 3245   0.496   4.802   4.375
  245POPC   C1A 3246   0.673   5.203   4.614
  245POPC   D2A 3247   0.494   5.048   5.015
  245POPC   C3A 3248   0.651   4.981   5.438
  245POPC   C4A 3249   0.666   4.640   5.694
  245POPC   C1B 3250   0.149   4.897   4.675
  245POPC   C2B 3251   0.059   4.754   5.104
  245POPC   C3B 3252   0.171   4.793   5.541
  245POPC   C4B 3253   0.171   5.098   5.870
  246POPC   NC3 3254   4.341  10.146   3.944
  246POPC   PO4 3255   3.657  10.008   3.935
  246POPC   GL1 3256   3.961   9.977   4.230
  246POPC   GL2 3257   4.012  10.328   4.293
  246POPC   C1A 3258   3.947   9.908   4.638
  246POPC   D2A 3259   3.609   9.869   4.939
  246POPC   C3A 3260   3.761  10.062   5.309
  246POPC   C4A 3261   3.740   9.839   5.688
  246POPC   C1B 3262   4.228  10.348   4.680
  246POPC   C2B 3263   4.406  10.053   4.985
  246POPC   C3B 3264   4.295  10.048   5.415
  246POPC   C4B 3265   4.223  10.453   5.631
  247POPC   NC3 3266   6.235   9.598   4.000
  247POPC   PO4 3267   6.827   9.807   4.073
  247POPC   GL1 3268   6.539   9.796   4.426
  247POPC   GL2 3269   6.311   9.498   4.480
  247POPC   C1A 3270   6.480   9.739   4.878
  247POPC   D2A 3271   6.174   9.472   5.041
  247POPC   C3A 3272   6.158   9.548   5.456
  247POPC   C4A 3273   6.233   9.939   5.672
  247POPC   C1B 3274   6.570   9.270   4.743
  247POPC   C2B 3275   6.742   9.198   5.155
  247POPC   C3B 3276   6.672   9.348   5.600
  247POPC   C4B 3277   6.669   9.288   6.071
  248POPC   NC3 3278   0.785   7.021   4.106
  248POPC   PO4 3279   1.436   6.852   3.970
  248POPC   GL1 3280   1.244   7.062   4.332
  248POPC   GL2 3281   1.072   7.399   4.333
  248POPC   C1A 3282   1.174   7.043   4.763
  248POPC   D2A 3283   1.296   6.924   5.164
  248POPC   C3A 3284   0.930   6.941   5.380
  248POPC   C4A 3285   0.883   7.026   5.786
  248POPC   C1B 3286   1.236   7.551   4.742
  248POPC   C2B 3287   1.354   7.616   5.181
  248POPC   C3B 3288   1.217   7.354   5.526
  248POPC   C4B 3289   1.383   6.939   5.696
  249POPC   NC3 3290   4.109   7.214   3.945
  249POPC   PO4 3291   4.622   7.481   3.797
  249POPC   GL1 3292   4.481   7.456   4.259
  249POPC   GL2 3293   4.152   7.317   4.425
  249POPC   C1A 3294   4.530   7.362   4.746
  249POPC   D2A 3295   4.408   7.033   5.070
  249POPC   C3A 3296   4.340   7.217   5.449
  249POPC   C4A 3297   4.584   7.185   5.783
  249POPC   C1B 3298   3.993   7.052   4.761
  249POPC   C2B 3299   3.895   7.065   5.229
  249POPC   C3B 3300   4.099   6.779   5.539
  249POPC   C4B 3301   4.500   6.655   5.753
  250POPC   NC3 3302   4.799   8.316   3.987
  250POPC   PO4 3303   4.717   8.955   3.986
  250POPC   GL1 3304   4.925   8.725   4.308
  250POPC   GL2 3305   5.252   8.550   4.186
  250POPC   C1A 3306   4.896   8.771   4.760
  250POPC   D2A 3307   4.804   8.573   5.166
  250POPC   C3A 3308   4.788   8.782   5.600
  250POPC   C4A 3309   4.735   8.874   6.046
  250POPC   C1B 3310   5.364   8.553   4.624
  250POPC   C2B 3311   5.320   8.710   5.049
  250POPC   C3B 3312   5.206   8.529   5.467
  250POPC   C4B 3313   5.203   8.657   5.902
  251POPC   NC3 3314   7.779   5.058   4.289
  251POPC   PO4 3315   8.274   5.307   3.970
  251POPC   GL1 3316   8.271   5.177   4.362
  251POPC   GL2 3317   8.295   4.840   4.378
  251POPC   C1A 3318   8.167   5.311   4.762
  251POPC   D2A 3319   7.895   5.097   5.112
  251POPC   C3A 3320   7.896   5.243   5.552
  251POPC   C4A 3321   7.897   5.284   6.005
  251POPC   C1B 3322   8.129   4.810   4.761
  251POPC   C2B 3323   8.236   4.699   5.115
  251POPC   C3B 3324   7.975   4.657   5.436
  251POPC   C4B 3325   7.900   4.801   5.821
  252POPC   NC3 3326   7.557   9.040   3.752
  252POPC   PO4 3327   8.171   8.676   3.829
  252POPC   GL1 3328   7.900   8.759   4.176
  252POPC   GL2 3329   8.223   8.775   4.338
  252POPC   C1A 3330   7.853   8.885   4.651
  252POPC   D2A 3331   8.076   8.990   5.030
  252POPC   C3A 3332   7.950   8.883   5.436
  252POPC   C4A 3333   7.878   9.053   5.877
  252POPC   C1B 3334   8.036   8.415   4.590
  252POPC   C2B 3335   8.159   8.169   4.968
  252POPC   C3B 3336   8.103   8.307   5.398
  252POPC   C4B 3337   8.014   8.545   5.799
  253POPC   NC3 3338   8.854   1.222   4.061
  253POPC   PO4 3339   8.422   0.688   3.871
  253POPC   GL1 3340   8.414   1.039   4.240
  253POPC   GL2 3341   8.674   0.948   4.461
  253POPC   C1A 3342   8.396   1.391   4.612
  253POPC   D2A 3343   8.455   1.672   4.998
  253POPC   C3A 3344   8.390   1.482   5.447
  253POPC   C4A 3345   8.422   1.043   5.622
  253POPC   C1B 3346   8.878   1.276   4.724
  253POPC   C2B 3347   8.801   1.342   5.159
  253POPC   C3B 3348   8.867   1.427   5.583
  253POPC   C4B 3349   8.916   1.005   5.824
  254POPC   NC3 3350   1.316   5.661   3.828
  254POPC   PO4 3351   0.717   5.970   3.763
  254POPC   GL1 3352   0.962   6.022   4.140
  254POPC   GL2 3353   0.974   5.693   4.256
  254POPC   C1A 3354   1.068   6.032   4.612
  254POPC   D2A 3355   0.820   6.027   4.998
  254POPC   C3A 3356   0.977   6.012   5.405
  254POPC   C4A 3357   0.986   5.739   5.785
  254POPC   C1B 3358   1.091   5.496   4.663
  254POPC   C2B 3359   1.135   5.627   5.076
  254POPC   C3B 3360   1.355   5.699   5.442
  254POPC   C4B 3361   1.433   5.472   5.810
  255POPC   NC3 3362   7.234   9.571   3.972
  255POPC   PO4 3363   7.383   8.980   4.163
  255POPC   GL1 3364   7.196   9.276   4.389
  255POPC   GL2 3365   6.860   9.371   4.328
  255POPC   C1A 3366   7.116   9.209   4.777
  255POPC   D2A 3367   7.313   9.288   5.107
  255POPC   C3A 3368   7.153   9.082   5.447
  255POPC   C4A 3369   7.092   9.133   5.845
  255POPC   C1B 3370   6.941   9.657   4.682
  255POPC   C2B 3371   6.961   9.668   5.108
  255POPC   C3B 3372   7.147   9.596   5.498
  255POPC   C4B 3373   7.004   9.635   5.926
  256POPC   NC3 3374   0.494   3.638   4.103
  256POPC   PO4 3375   0.572   3.146   3.704
  256POPC   GL1 3376   0.560   3.161   4.200
  256POPC   GL2 3377   0.838   3.340   4.354
  256POPC   C1A 3378   0.361   3.275   4.621
  256POPC   D2A 3379   0.396   3.482   5.018
  256POPC   C3A 3380   0.199   3.339   5.400
  256POPC   C4A 3381   0.428   3.267   5.767
  256POPC   C1B 3382   0.831   3.662   4.689
  256POPC   C2B 3383   0.920   3.667   5.120
  256POPC   C3B 3384   0.698   3.580   5.456
  256POPC   C4B 3385   0.834   3.707   5.838
  257POPC   NC3 3386   7.254   0.058   4.131
  257POPC   PO4 3387   7.486   9.958   3.980
  257POPC   GL1 3388   7.318   9.827   4.388
  257POPC   GL2 3389   7.103  10.116   4.350
  257POPC   C1A 3390   7.413   9.745   4.841
  257POPC   D2A 3391   7.713   9.964   5.079
  257POPC   C3A 3392   7.615   9.844   5.498
  257POPC   C4A 3393   7.275  10.033   5.754
  257POPC   C1B 3394   7.331  10.218   4.728
  257POPC   C2B 3395   7.229  10.122   5.183
  257POPC   C3B 3396   7.000  10.377   5.482
  257POPC   C4B 3397   7.095   0.001   5.906
  258POPC   NC3 3398   0.213   3.619   3.644
  258POPC   PO4 3399   0.676   4.058   3.987
  258POPC   GL1 3400   0.298   4.068   4.268
  258POPC   GL2 3401   0.233   4.369   4.467
  258POPC   C1A 3402   0.308   3.888   4.678
  258POPC   D2A 3403   0.539   3.989   5.035
  258POPC   C3A 3404   0.278   3.865   5.363
  258POPC   C4A 3405   0.308   3.742   5.774
  258POPC   C1B 3406   0.480   4.532   4.823
  258POPC   C2B 3407   0.732   4.469   5.186
  258POPC   C3B 3408   0.701   4.140   5.516
  258POPC   C4B 3409   0.332   4.249   5.737
  259POPC   NC3 3410   9.122   7.414   3.673
  259POPC   PO4 3411   9.564   7.833   3.918
  259POPC   GL1 3412   9.331   7.501   4.162
  259POPC   GL2 3413   9.503   7.192   4.312
  259POPC   C1A 3414   9.139   7.442   4.579
  259POPC   D2A 3415   9.201   7.519   4.992
  259POPC   C3A 3416   9.431   7.373   5.320
  259POPC   C4A 3417   9.283   7.464   5.739
  259POPC   C1B 3418   9.323   7.002   4.735
  259POPC   C2B 3419   9.345   6.759   5.143
  259POPC   C3B 3420   9.293   6.931   5.560
  259POPC   C4B 3421   9.588   7.067   5.820
  260POPC   NC3 3422   2.796   2.463   3.877
  260POPC   PO4 3423   2.391   3.059   3.854
  260POPC   GL1 3424   2.368   2.872   4.284
  260POPC   GL2 3425   2.470   2.502   4.318
  260POPC   C1A 3426   2.473   2.831   4.704
  260POPC   D2A 3427   2.791   2.862   5.010
  260POPC   C3A 3428   2.632   2.825   5.433
  260POPC   C4A 3429   2.524   2.837   5.860
  260POPC   C1B 3430   2.888   2.545   4.574
  260POPC   C2B 3431   3.200   2.497   4.896
  260POPC   C3B 3432   3.127   2.602   5.319
  260POPC   C4B 3433   2.938   2.559   5.749
  261POPC   NC3 3434   8.926   4.302   3.912
  261POPC   PO4 3435   9.593   3.906   3.883
  261POPC   GL1 3436   9.542   4.080   4.252
  261POPC   GL2 3437   9.385   4.352   4.207
  261POPC   C1A 3438   9.407   3.985   4.658
  261POPC   D2A 3439   9.449   3.744   5.024
  261POPC   C3A 3440   9.359   3.975   5.386
  261POPC   C4A 3441   9.500   3.982   5.789
  261POPC   C1B 3442   9.348   4.491   4.661
  261POPC   C2B 3443   9.199   4.456   5.132
  261POPC   C3B 3444   9.328   4.493   5.567
  261POPC   C4B 3445   9.621   4.456   5.911
  262POPC   NC3 3446   5.057   2.975   3.925
  262POPC   PO4 3447   4.530   2.498   3.920
  262POPC   GL1 3448   4.766   2.582   4.306
  262POPC   GL2 3449   5.113   2.487   4.186
  262POPC   C1A 3450   4.902   2.874   4.675
  262POPC   D2A 3451   4.887   2.959   5.148
  262POPC   C3A 3452   4.736   2.944   5.576
  262POPC   C4A 3453   4.879   3.196   5.979
  262POPC   C1B 3454   5.251   2.494   4.613
  262POPC   C2B 3455   5.270   2.638   5.063
  262POPC   C3B 3456   5.251   2.775   5.516
  262POPC   C4B 3457   5.026   2.719   5.940
  263POPC   NC3 3458   0.278   6.131   3.872
  263POPC   PO4 3459   0.610   6.744   3.800
  263POPC   GL1 3460   0.595   6.419   4.158
  263POPC   GL2 3461   0.249   6.340   4.317
  263POPC   C1A 3462   0.617   6.238   4.590
  263POPC   D2A 3463   0.507   6.464   4.965
  263POPC   C3A 3464   0.541   6.269   5.356
  263POPC   C4A 3465   0.659   6.122   5.766
  263POPC   C1B 3466   0.094   6.242   4.722
  263POPC   C2B 3467  10.482   6.474   5.052
  263POPC   C3B 3468   0.200   6.639   5.375
  263POPC   C4B 3469   0.443   6.571   5.754
  264POPC   NC3 3470   0.592   1.416   3.773
  264POPC   PO4 3471   0.885   0.809   3.722
  264POPC   GL1 3472   0.665   1.010   4.098
  264POPC   GL2 3473   0.353   1.184   4.168
  264POPC   C1A 3474   0.651   1.139   4.572
  264POPC   D2A 3475   0.547   1.012   4.996
  264POPC   C3A 3476   0.652   1.124   5.392
  264POPC   C4A 3477   0.765   0.996   5.775
  264POPC   C1B 3478   0.145   1.079   4.574
  264POPC   C2B 3479   0.086   0.845   4.948
  264POPC   C3B 3480   0.034   0.827   5.396
  264POPC   C4B 3481   0.244   1.094   5.704
  265POPC   NC3 3482   6.479   7.953   3.877
  265POPC   PO4 3483   6.038   7.524   4.028
  265POPC   GL1 3484   6.306   7.647   4.333
  265POPC   GL2 3485   6.601   7.862   4.368
  265POPC   C1A 3486   6.251   7.595   4.759
  265POPC   D2A 3487   6.231   7.481   5.181
  265POPC   C3A 3488   6.392   7.766   5.483
  265POPC   C4A 3489   6.353   7.644   5.897
  265POPC   C1B 3490   6.257   8.073   4.595
  265POPC   C2B 3491   6.299   8.043   5.056
  265POPC   C3B 3492   6.685   8.144   5.288
  265POPC   C4B 3493   6.771   8.209   5.725
  266POPC   NC3 3494   8.099   1.034   3.839
  266POPC   PO4 3495   7.709   1.476   3.659
  266POPC   GL1 3496   7.814   1.290   4.171
  266POPC   GL2 3497   7.549   1.082   4.376
  266POPC   C1A 3498   8.010   1.073   4.546
  266POPC   D2A 3499   8.113   0.905   4.951
  266POPC   C3A 3500   7.845   0.971   5.312
  266POPC   C4A 3501   7.961   1.253   5.637
  266POPC   C1B 3502   7.572   1.023   4.840
  266POPC   C2B 3503   7.531   1.376   5.128
  266POPC   C3B 3504   7.517   1.444   5.525
  266POPC   C4B 3505   7.506   1.081   5.824
  267POPC   NC3 3506   0.584   5.448   3.846
  267POPC   PO4 3507   0.158   4.910   4.027
  267POPC   GL1 3508   0.309   5.303   4.259
  267POPC   GL2 3509   0.388   5.715   4.242
  267POPC   C1A 3510   0.199   5.436   4.676
  267POPC   D2A 3511   0.050   5.289   5.054
  267POPC   C3A 3512   0.274   5.306   5.419
  267POPC   C4A 3513   0.562   5.426   5.776
  267POPC   C1B 3514   0.620   5.719   4.632
  267POPC   C2B 3515   0.541   5.593   5.077
  267POPC   C3B 3516   0.367   5.809   5.473
  267POPC   C4B 3517   0.190   6.028   5.874
  268POPC   NC3 3518   9.239   6.020   4.188
  268POPC   PO4 3519   8.660   6.224   3.879
  268POPC   GL1 3520   8.723   6.408   4.251
  268POPC   GL2 3521   8.981   6.570   4.158
  268POPC   C1A 3522   8.548   6.356   4.647
  268POPC   D2A 3523   8.389   6.263   5.026
  268POPC   C3A 3524   8.598   6.303   5.381
  268POPC   C4A 3525   8.466   6.464   5.786
  268POPC   C1B 3526   8.959   6.667   4.619
  268POPC   C2B 3527   8.843   6.602   5.046
  268POPC   C3B 3528   8.837   6.734   5.499
  268POPC   C4B 3529   8.974   6.664   5.925
  269POPC   NC3 3530   5.607   9.840   3.914
  269POPC   PO4 3531   5.913   9.231   3.959
  269POPC   GL1 3532   5.832   9.591   4.299
  269POPC   GL2 3533   5.511   9.725   4.392
  269POPC   C1A 3534   5.931   9.811   4.694
  269POPC   D2A 3535   5.714   9.714   5.075
  269POPC   C3A 3536   5.749   9.896   5.466
  269POPC   C4A 3537   5.826   9.670   5.828
  269POPC   C1B 3538   5.366   9.506   4.726
  269POPC   C2B 3539   5.371   9.333   5.128
  269POPC   C3B 3540   5.617   9.362   5.483
  269POPC   C4B 3541   5.383   9.457   5.863
  270POPC   NC3 3542   4.339   2.932   3.947
  270POPC   PO4 3543   3.915   2.421   4.018
  270POPC   GL1 3544   4.207   2.406   4.290
  270POPC   GL2 3545   4.243   2.709   4.384
  270POPC   C1A 3546   4.295   2.250   4.660
  270POPC   D2A 3547   4.364   2.296   5.073
  270POPC   C3A 3548   4.016   2.276   5.284
  270POPC   C4A 3549   3.922   2.346   5.670
  270POPC   C1B 3550   4.412   2.754   4.784
  270POPC   C2B 3551   4.373   2.789   5.227
  270POPC   C3B 3552   4.181   2.788   5.639
  270POPC   C4B 3553   4.080   3.074   6.004
  271POPC   NC3 3554   3.441   2.126   3.994
  271POPC   PO4 3555   3.946   1.731   3.738
  271POPC   GL1 3556   3.675   1.732   4.232
  271POPC   GL2 3557   3.280   1.750   4.310
  271POPC   C1A 3558   3.519   1.805   4.734
  271POPC   D2A 3559   3.646   1.965   5.141
  271POPC   C3A 3560   3.468   1.906   5.533
  271POPC   C4A 3561   3.231   1.568   5.743
  271POPC   C1B 3562   3.062   2.006   4.674
  271POPC   C2B 3563   3.112   1.989   5.115
  271POPC   C3B 3564   3.017   2.120   5.529
  271POPC   C4B 3565   3.206   2.056   5.958
  272POPC   NC3 3566   7.817   3.318   3.993
  272POPC   PO4 3567   8.286   3.894   3.951
  272POPC   GL1 3568   8.217   3.541   4.236
  272POPC   GL2 3569   7.903   3.569   4.414
  272POPC   C1A 3570   8.277   3.269   4.586
  272POPC   D2A 3571   8.104   3.511   4.908
  272POPC   C3A 3572   8.062   3.594   5.347
  272POPC   C4A 3573   8.059   3.796   5.760
  272POPC   C1B 3574   7.783   3.135   4.604
  272POPC   C2B 3575   7.964   3.003   4.985
  272POPC   C3B 3576   7.840   3.136   5.402
  272POPC   C4B 3577   8.088   3.290   5.776
  273POPC   NC3 3578   2.336   0.911   3.820
  273POPC   PO4 3579   2.374   1.654   3.880
  273POPC   GL1 3580   2.151   1.466   4.238
  273POPC   GL2 3581   1.964   1.183   4.237
  273POPC   C1A 3582   2.088   1.435   4.676
  273POPC   D2A 3583   2.367   1.356   5.014
  273POPC   C3A 3584   2.193   1.416   5.390
  273POPC   C4A 3585   2.329   1.442   5.788
  273POPC   C1B 3586   1.857   0.977   4.654
  273POPC   C2B 3587   1.940   1.049   5.098
  273POPC   C3B 3588   1.852   1.052   5.539
  273POPC   C4B 3589   1.748   1.393   5.701
  274POPC   NC3 3590   7.198   7.765   3.995
  274POPC   PO4 3591   7.557   8.277   3.853
  274POPC   GL1 3592   7.313   8.163   4.295
  274POPC   GL2 3593   7.343   7.837   4.482
  274POPC   C1A 3594   7.069   8.218   4.687
  274POPC   D2A 3595   7.285   8.289   5.058
  274POPC   C3A 3596   7.189   8.053   5.395
  274POPC   C4A 3597   7.303   8.179   5.745
  274POPC   C1B 3598   7.230   7.788   4.956
  274POPC   C2B 3599   6.910   7.630   5.292
  274POPC   C3B 3600   6.847   7.712   5.746
  274POPC   C4B 3601   6.754   7.565   6.201
  275POPC   NC3 3602   4.197   2.119   3.821
  275POPC   PO4 3603   4.531   1.606   4.068
  275POPC   GL1 3604   4.445   1.760   4.437
  275POPC   GL2 3605   4.152   1.900   4.288
  275POPC   C1A 3606   4.516   1.836   4.872
  275POPC   D2A 3607   4.511   1.857   5.319
  275POPC   C3A 3608   4.419   2.206   5.587
  275POPC   C4A 3609   4.224   2.080   5.966
  275POPC   C1B 3610   4.017   1.801   4.711
  275POPC   C2B 3611   4.064   1.665   5.133
  275POPC   C3B 3612   3.996   1.838   5.552
  275POPC   C4B 3613   3.760   1.781   5.927
  276POPC   NC3 3614   2.449   9.290   4.207
  276POPC   PO4 3615   1.955   9.367   3.756
  276POPC   GL1 3616   1.917   9.342   4.257
  276POPC   GL2 3617   1.658   9.105   4.288
  276POPC   C1A 3618   2.108   9.413   4.728
  276POPC   D2A 3619   2.352   9.329   5.104
  276POPC   C3A 3620   2.138   9.551   5.424
  276POPC   C4A 3621   2.023   9.499   5.822
  276POPC   C1B 3622   1.616   9.279   4.667
  276POPC   C2B 3623   1.712   9.519   5.030
  276POPC   C3B 3624   1.625   9.465   5.428
  276POPC   C4B 3625   1.627   9.194   5.746
  277POPC   NC3 3626   4.986   1.470   4.151
  277POPC   PO4 3627   4.924   0.959   3.717
  277POPC   GL1 3628   4.737   0.909   4.187
  277POPC   GL2 3629   4.537   1.176   4.336
  277POPC   C1A 3630   4.822   0.905   4.649
  277POPC   D2A 3631   4.634   0.873   5.035
  277POPC   C3A 3632   4.785   0.899   5.456
  277POPC   C4A 3633   4.494   1.030   5.786
  277POPC   C1B 3634   4.746   1.392   4.740
  277POPC   C2B 3635   4.944   1.279   5.134
  277POPC   C3B 3636   4.839   1.393   5.558
  277POPC   C4B 3637   5.073   1.537   5.890
  278POPC   NC3 3638   0.831   0.501   4.077
  278POPC   PO4 3639   0.187   0.755   3.958
  278POPC   GL1 3640   0.377   0.658   4.352
  278POPC   GL2 3641   0.182   0.369   4.347
  278POPC   C1A 3642   0.544   0.401   4.715
  278POPC   D2A 3643   0.776   0.419   5.105
  278POPC   C3A 3644   0.537   0.634   5.377
  278POPC   C4A 3645   0.446   0.571   5.774
  278POPC   C1B 3646  10.462   0.414   4.727
  278POPC   C2B 3647   0.169   0.372   5.117
  278POPC   C3B 3648   0.206   0.189   5.516
  278POPC   C4B 3649   0.106   0.245   5.955
  279POPC   NC3 3650   0.403   2.234   3.907
  279POPC   PO4 3651   0.572   1.656   4.158
  279POPC   GL1 3652   0.352   1.721   4.462
  279POPC   GL2 3653   0.457   2.093   4.422
  279POPC   C1A 3654   0.352   1.481   4.850
  279POPC   D2A 3655   0.232   1.365   5.263
  279POPC   C3A 3656   0.484   1.542   5.618
  279POPC   C4A 3657   0.207   1.670   5.938
  279POPC   C1B 3658   0.516   1.988   4.837
  279POPC   C2B 3659   0.441   1.849   5.200
  279POPC   C3B 3660   0.241   1.976   5.508
  279POPC   C4B 3661   0.475   2.058   5.823
  280POPC   NC3 3662   9.844   4.339   3.887
  280POPC   PO4 3663  10.451   3.942   3.867
  280POPC   GL1 3664  10.287   4.181   4.220
  280POPC   GL2 3665  10.036   3.970   4.302
  280POPC   C1A 3666  10.339   4.123   4.684
  280POPC   D2A 3667   0.095   4.237   5.036
  280POPC   C3A 3668  10.398   4.204   5.443
  280POPC   C4A 3669  10.381   4.474   5.808
  280POPC   C1B 3670   9.844   4.253   4.619
  280POPC   C2B 3671   9.638   4.255   5.025
  280POPC   C3B 3672   9.780   4.284   5.436
  280POPC   C4B 3673  10.008   4.121   5.768
  281POPC   NC3 3674   2.558   6.503   3.923
  281POPC   PO4 3675   2.893   6.952   4.013
  281POPC   GL1 3676   2.806   6.623   4.360
  281POPC   GL2 3677   2.637   6.264   4.370
  281POPC   C1A 3678   2.908   6.490   4.791
  281POPC   D2A 3679   2.814   6.401   5.212
  281POPC   C3A 3680   3.061   6.473   5.583
  281POPC   C4A 3681   2.979   6.680   5.974
  281POPC   C1B 3682   2.398   6.313   4.788
  281POPC   C2B 3683   2.329   6.268   5.244
  281POPC   C3B 3684   2.568   6.243   5.621
  281POPC   C4B 3685   2.633   5.892   5.898
  282POPC   NC3 3686   2.439  10.332   3.984
  282POPC   PO4 3687   2.263   9.727   4.173
  282POPC   GL1 3688   2.637   9.907   4.365
  282POPC   GL2 3689   2.785  10.251   4.342
  282POPC   C1A 3690   2.562  10.055   4.778
  282POPC   D2A 3691   2.401   9.879   5.126
  282POPC   C3A 3692   2.600  10.078   5.504
  282POPC   C4A 3693   2.472  10.193   5.918
  282POPC   C1B 3694   2.804  10.485   4.740
  282POPC   C2B 3695   2.714  10.437   5.149
  282POPC   C3B 3696   2.971  10.458   5.506
  282POPC   C4B 3697   2.964  10.394   5.948
  283POPC   NC3 3698   5.370   0.675   3.997
  283POPC   PO4 3699   6.019   0.903   3.928
  283POPC   GL1 3700   5.865   0.552   4.296
  283POPC   GL2 3701   5.635   0.231   4.324
  283POPC   C1A 3702   5.741   0.443   4.766
  283POPC   D2A 3703   5.607   0.684   5.127
  283POPC   C3A 3704   5.802   0.727   5.506
  283POPC   C4A 3705   5.842   0.478   5.906
  283POPC   C1B 3706   5.336   0.119   4.669
  283POPC   C2B 3707   5.429   0.170   5.091
  283POPC   C3B 3708   5.546   0.292   5.492
  283POPC   C4B 3709   5.395   0.235   5.897
  284POPC   NC3 3710   4.528   1.176   3.797
  284POPC   PO4 3711   3.840   0.889   3.970
  284POPC   GL1 3712   4.001   1.010   4.350
  284POPC   GL2 3713   4.072   1.382   4.421
  284POPC   C1A 3714   3.836   0.881   4.718
  284POPC   D2A 3715   3.872   1.133   5.085
  284POPC   C3A 3716   4.078   1.036   5.457
  284POPC   C4A 3717   3.957   0.879   5.850
  284POPC   C1B 3718   4.271   1.217   4.783
  284POPC   C2B 3719   4.442   1.325   5.187
  284POPC   C3B 3720   4.328   1.464   5.586
  284POPC   C4B 3721   4.224   1.572   5.994
  285POPC   NC3 3722   3.226   5.238   4.040
  285POPC   PO4 3723   2.661   5.368   3.810
  285POPC   GL1 3724   2.382   5.334   4.180
  285POPC   GL2 3725   2.307   5.682   4.296
  285POPC   C1A 3726   2.398   5.292   4.644
  285POPC   D2A 3727   2.478   5.448   5.049
  285POPC   C3A 3728   2.742   5.429   5.397
  285POPC   C4A 3729   2.732   5.393   5.823
  285POPC   C1B 3730   2.547   5.811   4.657
  285POPC   C2B 3731   2.681   5.923   5.093
  285POPC   C3B 3732   2.936   5.926   5.477
  285POPC   C4B 3733   3.177   5.641   5.737
  286POPC   NC3 3734   4.808   9.390   3.902
  286POPC   PO4 3735   5.141   9.858   4.062
  286POPC   GL1 3736   4.838   9.646   4.341
  286POPC   GL2 3737   4.893   9.269   4.389
  286POPC   C1A 3738   4.508   9.632   4.681
  286POPC   D2A 3739   4.562   9.569   5.142
  286POPC   C3A 3740   4.650   9.690   5.582
  286POPC   C4A 3741   4.611   9.690   6.046
  286POPC   C1B 3742   4.896   9.312   4.828
  286POPC   C2B 3743   4.945   9.066   5.191
  286POPC   C3B 3744   5.167   9.100   5.568
  286POPC   C4B 3745   4.899   9.317   5.846
  287POPC   NC3 3746   7.894   5.342   3.716
  287POPC   PO4 3747   7.741   5.857   3.915
  287POPC   GL1 3748   7.917   5.588   4.254
  287POPC   GL2 3749   8.249   5.692   4.378
  287POPC   C1A 3750   7.846   5.675   4.714
  287POPC   D2A 3751   8.019   5.586   5.179
  287POPC   C3A 3752   7.708   5.721   5.535
  287POPC   C4A 3753   7.486   5.562   5.937
  287POPC   C1B 3754   8.362   5.807   4.801
  287POPC   C2B 3755   8.535   5.710   5.211
  287POPC   C3B 3756   8.359   5.527   5.585
  287POPC   C4B 3757   8.090   5.730   5.860
  288POPC   NC3 3758   9.744   9.090   3.738
  288POPC   PO4 3759  10.477   9.077   3.878
  288POPC   GL1 3760  10.235   9.166   4.252
  288POPC   GL2 3761  10.061   9.522   4.258
  288POPC   C1A 3762  10.191   9.035   4.673
  288POPC   D2A 3763  10.167   9.206   5.073
  288POPC   C3A 3764  10.244   8.987   5.446
  288POPC   C4A 3765  10.193   9.102   5.877
  288POPC   C1B 3766  10.304   9.548   4.659
  288POPC   C2B 3767  10.311   9.706   5.097
  288POPC   C3B 3768  10.257   9.509   5.496
  288POPC   C4B 3769   9.976   9.572   5.829
  289POPC   NC3 3770   9.254   9.141   4.180
  289POPC   PO4 3771   9.381   9.628   3.765
  289POPC   GL1 3772   9.553   9.566   4.260
  289POPC   GL2 3773   9.529   9.807   4.510
  289POPC   C1A 3774   9.801   9.439   4.734
  289POPC   D2A 3775   9.801   9.513   5.227
  289POPC   C3A 3776   9.774   9.183   5.580
  289POPC   C4A 3777   9.744   9.191   6.102
  289POPC   C1B 3778   9.294   9.451   4.747
  289POPC   C2B 3779   9.104   9.213   5.073
  289POPC   C3B 3780   9.190   9.366   5.477
  289POPC   C4B 3781   9.428   9.456   5.815
  290POPC   NC3 3782   8.893   9.591   3.894
  290POPC   PO4 3783   8.700   8.970   4.068
  290POPC   GL1 3784   8.798   9.298   4.350
  290POPC   GL2 3785   8.481   9.399   4.339
  290POPC   C1A 3786   8.767   9.502   4.776
  290POPC   D2A 3787   8.733   9.531   5.248
  290POPC   C3A 3788   8.955   9.809   5.483
  290POPC   C4A 3789   9.028   9.732   5.918
  290POPC   C1B 3790   8.407   9.119   4.664
  290POPC   C2B 3791   8.599   9.020   5.072
  290POPC   C3B 3792   8.784   9.051   5.461
  290POPC   C4B 3793   8.710   9.354   5.761
  291POPC   NC3 3794   2.471   4.927   3.838
  291POPC   PO4 3795   3.140   4.789   4.021
  291POPC   GL1 3796   2.809   5.028   4.217
  291POPC   GL2 3797   2.555   4.863   4.366
  291POPC   C1A 3798   2.887   5.202   4.628
  291POPC   D2A 3799   2.807   5.043   5.043
  291POPC   C3A 3800   3.088   5.020   5.410
  291POPC   C4A 3801   3.085   4.985   5.862
  291POPC   C1B 3802   2.356   4.782   4.758
  291POPC   C2B 3803   2.351   4.913   5.179
  291POPC   C3B 3804   2.615   4.917   5.575
  291POPC   C4B 3805   2.514   4.985   6.008
  292POPC   NC3 3806  10.235   8.636   3.815
  292POPC   PO4 3807   9.609   8.662   3.646
  292POPC   GL1 3808   9.870   8.619   4.157
  292POPC   GL2 3809  10.211   8.627   4.308
  292POPC   C1A 3810   9.887   8.606   4.685
  292POPC   D2A 3811  10.053   8.686   5.060
  292POPC   C3A 3812   9.835   8.688   5.444
  292POPC   C4A 3813   9.737   8.748   5.854
  292POPC   C1B 3814  10.307   8.288   4.603
  292POPC   C2B 3815  10.457   8.344   5.014
  292POPC   C3B 3816  10.284   8.428   5.421
  292POPC   C4B 3817  10.217   8.593   5.784
  293POPC   NC3 3818   8.284   9.123   3.940
  293POPC   PO4 3819   7.701   9.477   3.716
  293POPC   GL1 3820   7.674   9.417   4.192
  293POPC   GL2 3821   7.973   9.261   4.310
  293POPC   C1A 3822   7.629   9.335   4.674
  293POPC   D2A 3823   7.807   9.461   5.095
  293POPC   C3A 3824   7.650   9.299   5.477
  293POPC   C4A 3825   7.492   9.430   5.846
  293POPC   C1B 3826   8.098   9.557   4.639
  293POPC   C2B 3827   8.303   9.461   5.018
  293POPC   C3B 3828   8.253   9.334   5.436
  293POPC   C4B 3829   8.007   9.540   5.759
  294POPC   NC3 3830   0.998   8.550   3.857
  294POPC   PO4 3831   1.477   8.198   3.978
  294POPC   GL1 3832   1.292   8.426   4.295
  294POPC   GL2 3833   1.249   8.787   4.229
  294POPC   C1A 3834   1.154   8.375   4.719
  294POPC   D2A 3835   1.018   8.565   5.100
  294POPC   C3A 3836   0.898   8.338   5.471
  294POPC   C4A 3837   0.954   8.607   5.815
  294POPC   C1B 3838   1.402   8.814   4.639
  294POPC   C2B 3839   1.530   8.636   5.004
  294POPC   C3B 3840   1.474   8.571   5.427
  294POPC   C4B 3841   1.441   8.742   5.821
  295POPC   NC3 3842   1.496   1.013   4.104
  295POPC   PO4 3843   1.072   1.459   3.747
  295POPC   GL1 3844   1.042   1.351   4.209
  295POPC   GL2 3845   1.095   1.017   4.387
  295POPC   C1A 3846   1.033   1.472   4.672
  295POPC   D2A 3847   0.809   1.511   5.078
  295POPC   C3A 3848   1.035   1.432   5.469
  295POPC   C4A 3849   0.991   1.465   5.910
  295POPC   C1B 3850   1.359   1.076   4.787
  295POPC   C2B 3851   1.458   1.258   5.213
  295POPC   C3B 3852   1.343   1.067   5.612
  295POPC   C4B 3853   1.214   0.848   5.937
  296POPC   NC3 3854   8.015   1.691   3.920
  296POPC   PO4 3855   7.437   1.629   4.113
  296POPC   GL1 3856   7.723   1.770   4.353
  296POPC   GL2 3857   7.718   2.114   4.235
  296POPC   C1A 3858   7.920   1.603   4.716
  296POPC   D2A 3859   8.026   1.417   5.103
  296POPC   C3A 3860   7.927   1.715   5.444
  296POPC   C4A 3861   7.756   1.952   5.815
  296POPC   C1B 3862   7.872   2.137   4.675
  296POPC   C2B 3863   8.064   2.002   5.047
  296POPC   C3B 3864   7.941   2.209   5.428
  296POPC   C4B 3865   8.007   2.401   5.807
  297POPC   NC3 3866   2.514   2.017   3.634
  297POPC   PO4 3867   2.987   2.054   4.041
  297POPC   GL1 3868   2.690   2.024   4.319
  297POPC   GL2 3869   2.593   1.690   4.346
  297POPC   C1A 3870   2.570   2.195   4.734
  297POPC   D2A 3871   2.735   2.358   5.106
  297POPC   C3A 3872   2.548   2.324   5.511
  297POPC   C4A 3873   2.563   2.304   5.967
  297POPC   C1B 3874   2.628   1.696   4.742
  297POPC   C2B 3875   2.605   1.847   5.136
  297POPC   C3B 3876   2.765   1.691   5.498
  297POPC   C4B 3877   2.744   1.829   5.874
  298POPC   NC3 3878  10.407   0.127   4.003
  298POPC   PO4 3879  10.239   9.923   3.901
  298POPC   GL1 3880  10.292  10.077   4.288
  298POPC   GL2 3881   9.945  10.164   4.280
  298POPC   C1A 3882  10.469  10.037   4.723
  298POPC   D2A 3883   0.113  10.174   5.140
  298POPC   C3A 3884  10.348  10.262   5.485
  298POPC   C4A 3885  10.359   9.924   5.788
  298POPC   C1B 3886   9.969   9.961   4.683
  298POPC   C2B 3887   9.984  10.103   5.088
  298POPC   C3B 3888   9.940   9.949   5.490
  298POPC   C4B 3889   9.902  10.209   5.843
  299POPC   NC3 3890   0.986   9.518   3.801
  299POPC   PO4 3891   0.800   8.933   3.987
  299POPC   GL1 3892   0.939   9.200   4.298
  299POPC   GL2 3893   1.213   9.418   4.284
  299POPC   C1A 3894   1.093   9.208   4.722
  299POPC   D2A 3895   1.345   9.135   5.076
  299POPC   C3A 3896   1.125   9.300   5.402
  299POPC   C4A 3897   1.051   9.094   5.773
  299POPC   C1B 3898   1.324   9.685   4.647
  299POPC   C2B 3899   1.310   9.848   5.072
  299POPC   C3B 3900   1.247   9.800   5.479
  299POPC   C4B 3901   1.276   9.543   5.828
  300POPC   NC3 3902   8.014   0.440   3.897
  300POPC   PO4 3903   8.514  10.444   3.923
  300POPC   GL1 3904   8.443   0.278   4.262
  300POPC   GL2 3905   8.223   0.571   4.348
  300POPC   C1A 3906   8.286   0.176   4.676
  300POPC   D2A 3907   8.188   0.404   5.038
  300POPC   C3A 3908   8.300   0.225   5.428
  300POPC   C4A 3909   8.093   0.072   5.770
  300POPC   C1B 3910   7.866   0.571   4.636
  300POPC   C2B 3911   7.694   0.490   5.074
  300POPC   C3B 3912   7.851   0.456   5.488
  300POPC   C4B 3913   7.899   0.779   5.818
  301POPC   NC3 3914   4.087   8.797   3.818
  301POPC   PO4 3915   4.427   8.262   3.692
  301POPC   GL1 3916   4.340   8.457   4.136
  301POPC   GL2 3917   4.058   8.639   4.286
  301POPC   C1A 3918   4.468   8.564   4.573
  301POPC   D2A 3919   4.339   8.697   4.983
  301POPC   C3A 3920   4.373   8.547   5.404
  301POPC   C4A 3921   4.302   8.787   5.721
  301POPC   C1B 3922   3.962   8.828   4.662
  301POPC   C2B 3923   3.775   8.604   5.006
  301POPC   C3B 3924   3.881   8.688   5.430
  301POPC   C4B 3925   3.893   8.481   5.843
  302POPC   NC3 3926  10.007   3.599   3.955
  302POPC   PO4 3927   0.126   3.340   3.999
  302POPC   GL1 3928  10.389   3.563   4.324
  302POPC   GL2 3929  10.061   3.354   4.398
  302POPC   C1A 3930  10.367   3.598   4.788
  302POPC   D2A 3931  10.205   3.468   5.210
  302POPC   C3A 3932  10.339   3.680   5.596
  302POPC   C4A 3933  10.454   3.379   5.952
  302POPC   C1B 3934   9.825   3.660   4.645
  302POPC   C2B 3935   9.963   3.882   5.015
  302POPC   C3B 3936   9.828   3.757   5.431
  302POPC   C4B 3937   9.928   3.396   5.678
  303POPC   NC3 3938   0.900   6.390   3.734
  303POPC   PO4 3939   1.455   6.124   3.897
  303POPC   GL1 3940   1.403   6.260   4.292
  303POPC   GL2 3941   1.138   6.513   4.252
  303POPC   C1A 3942   1.458   6.368   4.703
  303POPC   D2A 3943   1.338   6.123   5.043
  303POPC   C3A 3944   1.395   6.306   5.417
  303POPC   C4A 3945   1.386   6.077   5.779
  303POPC   C1B 3946   0.982   6.566   4.695
  303POPC   C2B 3947   0.988   6.488   5.157
  303POPC   C3B 3948   0.958   6.505   5.637
  303POPC   C4B 3949   0.814   6.631   6.090
  304POPC   NC3 3950  10.009   5.887   4.031
  304POPC   PO4 3951   0.134   5.587   3.821
  304POPC   GL1 3952  10.374   5.535   4.289
  304POPC   GL2 3953  10.072   5.506   4.338
  304POPC   C1A 3954  10.275   5.754   4.720
  304POPC   D2A 3955   0.061   5.832   5.037
  304POPC   C3A 3956  10.375   5.637   5.364
  304POPC   C4A 3957   0.001   5.580   5.749
  304POPC   C1B 3958   9.820   5.483   4.706
  304POPC   C2B 3959   9.930   5.481   5.118
  304POPC   C3B 3960   9.828   5.548   5.522
  304POPC   C4B 3961  10.038   5.836   5.676
  305POPC   NC3 3962   8.407   4.789   3.892
  305POPC   PO4 3963   9.076   4.713   4.036
  305POPC   GL1 3964   8.800   4.706   4.352
  305POPC   GL2 3965   8.774   5.080   4.340
  305POPC   C1A 3966   8.863   4.618   4.788
  305POPC   D2A 3967   8.732   4.797   5.184
  305POPC   C3A 3968   8.792   4.783   5.608
  305POPC   C4A 3969   8.932   4.515   5.885
  305POPC   C1B 3970   8.580   5.027   4.754
  305POPC   C2B 3971   8.402   5.184   5.174
  305POPC   C3B 3972   8.342   5.003   5.580
  305POPC   C4B 3973   8.381   5.171   6.002
  306POPC   NC3 3974   0.983   2.899   3.638
  306POPC   PO4 3975   0.997   2.328   4.093
  306POPC   GL1 3976   0.888   2.359   4.433
  306POPC   GL2 3977   1.177   2.465   4.577
  306POPC   C1A 3978   0.734   2.437   4.804
  306POPC   D2A 3979   0.899   2.709   5.068
  306POPC   C3A 3980   1.077   2.582   5.449
  306POPC   C4A 3981   0.795   2.378   5.621
  306POPC   C1B 3982   1.296   2.385   4.996
  306POPC   C2B 3983   1.392   2.818   5.129
  306POPC   C3B 3984   1.381   3.004   5.500
  306POPC   C4B 3985   1.312   2.940   5.919
  307POPC   NC3 3986   8.011   8.160   3.888
  307POPC   PO4 3987   7.638   7.504   3.845
  307POPC   GL1 3988   7.840   7.703   4.236
  307POPC   GL2 3989   7.807   8.046   4.332
  307POPC   C1A 3990   8.109   7.730   4.639
  307POPC   D2A 3991   8.013   7.599   5.065
  307POPC   C3A 3992   8.116   7.798   5.446
  307POPC   C4A 3993   8.269   7.827   5.862
  307POPC   C1B 3994   7.702   8.028   4.770
  307POPC   C2B 3995   7.681   7.983   5.188
  307POPC   C3B 3996   7.621   7.802   5.556
  307POPC   C4B 3997   7.819   8.090   5.751
  308POPC   NC3 3998   4.346   7.859   3.878
  308POPC   PO4 3999   3.858   8.399   3.874
  308POPC   GL1 4000   3.926   8.145   4.238
  308POPC   GL2 4001   4.068   7.806   4.285
  308POPC   C1A 4002   4.021   8.292   4.661
  308POPC   D2A 4003   4.179   8.228   5.051
  308POPC   C3A 4004   4.054   8.167   5.469
  308POPC   C4A 4005   4.192   8.071   5.926
  308POPC   C1B 4006   4.229   7.796   4.729
  308POPC   C2B 4007   4.208   7.726   5.156
  308POPC   C3B 4008   4.264   7.705   5.571
  308POPC   C4B 4009   3.946   7.422   5.742
  309POPC   NC3 4010   0.798  10.188   3.892
  309POPC   PO4 4011   1.285   9.807   3.979
  309POPC   GL1 4012   1.037   9.970   4.296
  309POPC   GL2 4013   1.052  10.364   4.340
  309POPC   C1A 4014   0.977  10.039   4.725
  309POPC   D2A 4015   0.849  10.118   5.118
  309POPC   C3A 4016   0.750   9.834   5.418
  309POPC   C4A 4017   0.877   9.839   5.824
  309POPC   C1B 4018   0.946   0.043   4.779
  309POPC   C2B 4019   1.126   0.043   5.211
  309POPC   C3B 4020   1.050  10.268   5.580
  309POPC   C4B 4021   1.317  10.114   5.919
  310POPC   NC3 4022   3.413   8.807   3.890
  310POPC   PO4 4023   3.208   8.286   3.610
  310POPC   GL1 4024   3.425   8.385   4.153
  310POPC   GL2 4025   3.555   8.732   4.359
  310POPC   C1A 4026   3.487   8.306   4.610
  310POPC   D2A 4027   3.308   8.294   5.020
  310POPC   C3A 4028   3.532   8.330   5.389
  310POPC   C4A 4029   3.372   8.410   5.781
  310POPC   C1B 4030   3.302   8.763   4.759
  310POPC   C2B 4031   3.286   8.796   5.178
  310POPC   C3B 4032   3.327   9.031   5.488
  310POPC   C4B 4033   3.564   8.884   5.790
  311POPC   NC3 4034   8.652   2.901   4.007
  311POPC   PO4 4035   9.019   2.445   3.801
  311POPC   GL1 4036   8.939   2.422   4.244
  311POPC   GL2 4037   8.572   2.489   4.316
  311POPC   C1A 4038   8.883   2.335   4.692
  311POPC   D2A 4039   9.069   2.485   5.085
  311POPC   C3A 4040   8.933   2.460   5.504
  311POPC   C4A 4041   8.832   2.463   5.962
  311POPC   C1B 4042   8.593   2.756   4.704
  311POPC   C2B 4043   8.578   2.663   5.151
  311POPC   C3B 4044   8.616   2.847   5.559
  311POPC   C4B 4045   8.369   2.875   5.885
  312POPC   NC3 4046   8.850   2.019   3.631
  312POPC   PO4 4047   8.438   1.498   3.944
  312POPC   GL1 4048   8.404   1.806   4.292
  312POPC   GL2 4049   8.750   1.940   4.320
  312POPC   C1A 4050   8.409   2.092   4.671
  312POPC   D2A 4051   8.606   2.152   5.078
  312POPC   C3A 4052   8.410   1.998   5.437
  312POPC   C4A 4053   8.460   2.357   5.652
  312POPC   C1B 4054   8.921   1.818   4.747
  312POPC   C2B 4055   8.961   1.811   5.205
  312POPC   C3B 4056   8.885   1.950   5.613
  312POPC   C4B 4057   8.982   1.731   5.989
  313POPC   NC3 4058   7.938   4.187   4.067
  313POPC   PO4 4059   8.494   4.368   3.702
  313POPC   GL1 4060   8.407   4.372   4.171
  313POPC   GL2 4061   8.596   4.138   4.277
  313POPC   C1A 4062   8.422   4.416   4.652
  313POPC   D2A 4063   8.575   4.298   5.061
  313POPC   C3A 4064   8.457   4.440   5.477
  313POPC   C4A 4065   8.426   4.191   5.800
  313POPC   C1B 4066   8.900   4.140   4.603
  313POPC   C2B 4067   8.988   4.003   5.021
  313POPC   C3B 4068   8.900   4.188   5.439
  313POPC   C4B 4069   8.976   4.016   5.797
  314POPC   NC3 4070   3.544   8.029   3.819
  314POPC   PO4 4071   2.953   8.235   4.093
  314POPC   GL1 4072   3.148   7.865   4.274
  314POPC   GL2 4073   3.489   7.869   4.286
  314POPC   C1A 4074   3.258   7.849   4.750
  314POPC   D2A 4075   3.298   7.715   5.180
  314POPC   C3A 4076   3.266   7.936   5.565
  314POPC   C4A 4077   2.966   8.091   5.818
  314POPC   C1B 4078   3.739   7.874   4.638
  314POPC   C2B 4079   3.734   7.977   5.048
  314POPC   C3B 4080   3.738   7.775   5.437
  314POPC   C4B 4081   3.705   8.015   5.801
  315POPC   NC3 4082   2.786   8.048   3.710
  315POPC   PO4 4083   2.284   8.444   3.957
  315POPC   GL1 4084   2.488   8.279   4.307
  315POPC   GL2 4085   2.559   7.927   4.202
  315POPC   C1A 4086   2.401   8.170   4.720
  315POPC   D2A 4087   2.443   8.302   5.123
  315POPC   C3A 4088   2.435   8.113   5.456
  315POPC   C4A 4089   2.208   8.035   5.789
  315POPC   C1B 4090   2.773   7.864   4.608
  315POPC   C2B 4091   2.869   8.033   5.021
  315POPC   C3B 4092   2.822   7.811   5.382
  315POPC   C4B 4093   2.613   7.734   5.760
  316POPC   NC3 4094   0.231   2.891   3.903
  316POPC   PO4 4095   0.701   2.526   3.681
  316POPC   GL1 4096   0.676   2.697   4.100
  316POPC   GL2 4097   0.403   2.601   4.313
  316POPC   C1A 4098   0.749   2.869   4.561
  316POPC   D2A 4099   0.436   2.880   4.925
  316POPC   C3A 4100   0.466   2.888   5.369
  316POPC   C4A 4101   0.615   2.802   5.796
  316POPC   C1B 4102   0.234   2.464   4.721
  316POPC   C2B 4103   0.385   2.389   5.171
  316POPC   C3B 4104   0.283   2.473   5.597
  316POPC   C4B 4105   0.175   2.520   6.033
  317POPC   NC3 4106   2.014   2.760   3.950
  317POPC   PO4 4107   1.441   2.794   3.687
  317POPC   GL1 4108   1.547   2.442   4.237
  317POPC   GL2 4109   1.904   2.438   4.321
  317POPC   C1A 4110   1.649   2.627   4.732
  317POPC   D2A 4111   1.792   2.473   5.139
  317POPC   C3A 4112   1.613   2.542   5.546
  317POPC   C4A 4113   1.783   2.892   5.772
  317POPC   C1B 4114   2.125   2.437   4.720
  317POPC   C2B 4115   2.285   2.625   5.113
  317POPC   C3B 4116   2.135   2.624   5.509
  317POPC   C4B 4117   2.110   2.523   5.922
  318POPC   NC3 4118  10.213   1.889   3.837
  318POPC   PO4 4119   0.013   2.479   4.003
  318POPC   GL1 4120  10.495   2.036   4.241
  318POPC   GL2 4121  10.144   1.822   4.374
  318POPC   C1A 4122  10.496   2.015   4.707
  318POPC   D2A 4123  10.448   1.769   5.104
  318POPC   C3A 4124  10.242   1.943   5.480
  318POPC   C4A 4125  10.286   2.377   5.657
  318POPC   C1B 4126  10.008   1.855   4.834
  318POPC   C2B 4127   9.858   2.128   5.188
  318POPC   C3B 4128   9.801   2.138   5.649
  318POPC   C4B 4129   9.988   1.913   5.970
  319POPC   NC3 4130   7.784   6.320   3.895
  319POPC   PO4 4131   8.184   6.779   3.615
  319POPC   GL1 4132   8.170   6.793   4.145
  319POPC   GL2 4133   8.210   6.451   4.233
  319POPC   C1A 4134   7.990   6.776   4.593
  319POPC   D2A 4135   7.924   6.545   4.975
  319POPC   C3A 4136   8.120   6.591   5.385
  319POPC   C4A 4137   7.933   6.773   5.768
  319POPC   C1B 4138   8.055   6.184   4.593
  319POPC   C2B 4139   7.937   6.051   5.032
  319POPC   C3B 4140   8.148   6.026   5.429
  319POPC   C4B 4141   7.992   6.248   5.771
  320POPC   NC3 4142   5.044  10.245   3.832
  320POPC   PO4 4143   4.467   0.092   3.917
  320POPC   GL1 4144   4.596  10.387   4.324
  320POPC   GL2 4145   4.942  10.270   4.351
  320POPC   C1A 4146   4.717  10.432   4.774
  320POPC   D2A 4147   4.982  10.426   5.113
  320POPC   C3A 4148   4.825  10.143   5.417
  320POPC   C4A 4149   4.618  10.172   5.820
  320POPC   C1B 4150   4.891   9.965   4.728
  320POPC   C2B 4151   5.050   9.752   5.083
  320POPC   C3B 4152   5.234   9.768   5.480
  320POPC   C4B 4153   5.060   9.915   5.862
  321POPC   NC3 4154   7.701   2.741   3.742
  321POPC   PO4 4155   8.227   3.058   3.903
  321POPC   GL1 4156   8.138   2.867   4.288
  321POPC   GL2 4157   7.839   2.661   4.238
  321POPC   C1A 4158   8.145   2.575   4.638
  321POPC   D2A 4159   8.048   2.506   5.048
  321POPC   C3A 4160   8.127   2.731   5.442
  321POPC   C4A 4161   7.820   2.861   5.824
  321POPC   C1B 4162   7.643   2.616   4.651
  321POPC   C2B 4163   7.528   2.418   5.033
  321POPC   C3B 4164   7.630   2.599   5.423
  321POPC   C4B 4165   7.513   2.424   5.799
  322POPC   NC3 4166   3.724   2.842   3.967
  322POPC   PO4 4167   3.225   2.537   4.032
  322POPC   GL1 4168   3.434   2.403   4.422
  322POPC   GL2 4169   3.719   2.662   4.436
  322POPC   C1A 4170   3.748   2.290   4.755
  322POPC   D2A 4171   3.919   2.656   4.979
  322POPC   C3A 4172   3.679   2.722   5.385
  322POPC   C4A 4173   3.431   2.408   5.657
  322POPC   C1B 4174   3.384   2.909   4.611
  322POPC   C2B 4175   3.248   3.086   5.001
  322POPC   C3B 4176   3.060   3.094   5.408
  322POPC   C4B 4177   3.275   2.913   5.712
  323POPC   NC3 4178   1.119   3.874   3.982
  323POPC   PO4 4179   1.435   4.465   3.860
  323POPC   GL1 4180   1.194   4.304   4.216
  323POPC   GL2 4181   0.832   4.429   4.283
  323POPC   C1A 4182   1.323   4.415   4.612
  323POPC   D2A 4183   1.206   4.540   5.008
  323POPC   C3A 4184   1.181   4.295   5.366
  323POPC   C4A 4185   1.091   4.375   5.787
  323POPC   C1B 4186   0.865   4.207   4.689
  323POPC   C2B 4187   1.213   4.016   4.915
  323POPC   C3B 4188   1.446   3.868   5.289
  323POPC   C4B 4189   1.294   3.915   5.730
  324POPC   NC3 4190   9.468   8.379   3.990
  324POPC   PO4 4191   9.727   9.094   4.185
  324POPC   GL1 4192   9.508   8.819   4.450
  324POPC   GL2 4193   9.476   8.487   4.453
  324POPC   C1A 4194   9.405   8.903   4.798
  324POPC   D2A 4195   9.641   9.030   5.100
  324POPC   C3A 4196   9.364   8.887   5.395
  324POPC   C4A 4197   9.281   8.959   5.774
  324POPC   C1B 4198   9.370   8.386   4.766
  324POPC   C2B 4199   9.511   8.496   5.100
  324POPC   C3B 4200   9.428   8.381   5.500
  324POPC   C4B 4201   9.342   8.447   5.876
  325POPC   NC3 4202   5.712   1.295   3.865
  325POPC   PO4 4203   5.207   1.066   4.175
  325POPC   GL1 4204   5.632   1.000   4.317
  325POPC   GL2 4205   5.925   1.240   4.327
  325POPC   C1A 4206   5.819   0.950   4.735
  325POPC   D2A 4207   5.995   1.258   5.033
  325POPC   C3A 4208   5.830   1.241   5.466
  325POPC   C4A 4209   5.921   0.999   5.902
  325POPC   C1B 4210   5.586   1.401   4.632
  325POPC   C2B 4211   5.454   1.243   5.051
  325POPC   C3B 4212   5.318   1.103   5.477
  325POPC   C4B 4213   5.508   1.296   5.848
  326POPC   NC3 4214  10.396   1.119   3.876
  326POPC   PO4 4215   0.208   1.735   3.758
  326POPC   GL1 4216  10.484   1.524   4.170
  326POPC   GL2 4217  10.231   1.230   4.320
  326POPC   C1A 4218  10.400   1.523   4.657
  326POPC   D2A 4219  10.310   1.259   4.992
  326POPC   C3A 4220  10.149   1.434   5.354
  326POPC   C4A 4221  10.271   1.516   5.782
  326POPC   C1B 4222  10.138   0.916   4.640
  326POPC   C2B 4223  10.110   0.691   5.025
  326POPC   C3B 4224   9.965   0.757   5.426
  326POPC   C4B 4225  10.145   1.037   5.709
  327POPC   NC3 4226   0.965   1.858   4.036
  327POPC   PO4 4227   1.573   1.471   4.019
  327POPC   GL1 4228   1.445   1.624   4.386
  327POPC   GL2 4229   1.321   1.978   4.385
  327POPC   C1A 4230   1.524   1.600   4.810
  327POPC   D2A 4231   1.249   1.765   5.143
  327POPC   C3A 4232   1.342   2.083   5.456
  327POPC   C4A 4233   1.392   1.742   5.730
  327POPC   C1B 4234   1.030   1.991   4.745
  327POPC   C2B 4235   0.884   2.125   5.167
  327POPC   C3B 4236   0.857   1.891   5.521
  327POPC   C4B 4237   1.003   2.020   5.909
  328POPC   NC3 4238   9.335   3.523   3.802
  328POPC   PO4 4239   9.837   3.155   3.939
  328POPC   GL1 4240   9.480   3.258   4.226
  328POPC   GL2 4241   9.352   3.605   4.295
  328POPC   C1A 4242   9.426   3.291   4.682
  328POPC   D2A 4243   9.713   3.300   5.042
  328POPC   C3A 4244   9.517   3.231   5.436
  328POPC   C4A 4245   9.578   3.081   5.873
  328POPC   C1B 4246   9.049   3.639   4.630
  328POPC   C2B 4247   9.013   3.475   5.049
  328POPC   C3B 4248   8.962   3.635   5.436
  328POPC   C4B 4249   9.252   3.545   5.742
  329POPC   NC3 4250   9.414   2.182   3.878
  329POPC   PO4 4251   9.127   1.601   4.116
  329POPC   GL1 4252   9.268   2.002   4.325
  329POPC   GL2 4253   9.640   1.983   4.321
  329POPC   C1A 4254   9.378   2.257   4.683
  329POPC   D2A 4255   9.368   2.057   5.054
  329POPC   C3A 4256   9.363   2.220   5.427
  329POPC   C4A 4257   9.254   2.210   5.848
  329POPC   C1B 4258   9.517   1.728   4.697
  329POPC   C2B 4259   9.623   1.626   5.157
  329POPC   C3B 4260   9.361   1.729   5.548
  329POPC   C4B 4261   9.482   1.797   6.021
  330POPC   NC3 4262   0.254   7.138   3.845
  330POPC   PO4 4263   0.048   6.552   3.899
  330POPC   GL1 4264   0.264   6.828   4.245
  330POPC   GL2 4265   0.345   7.179   4.364
  330POPC   C1A 4266   0.215   6.800   4.697
  330POPC   D2A 4267   0.445   6.982   5.059
  330POPC   C3A 4268   0.213   7.142   5.416
  330POPC   C4A 4269   0.380   7.082   5.818
  330POPC   C1B 4270   0.694   7.266   4.691
  330POPC   C2B 4271   0.883   7.369   5.083
  330POPC   C3B 4272   0.679   7.371   5.470
  330POPC   C4B 4273   0.672   7.506   5.874
  331POPC   NC3 4274   1.489   5.032   3.939
  331POPC   PO4 4275   2.127   4.783   4.106
  331POPC   GL1 4276   2.034   5.033   4.415
  331POPC   GL2 4277   1.714   5.001   4.381
  331POPC   C1A 4278   1.969   5.088   4.853
  331POPC   D2A 4279   2.002   5.359   5.153
  331POPC   C3A 4280   2.235   5.260   5.518
  331POPC   C4A 4281   2.031   5.081   5.878
  331POPC   C1B 4282   1.752   4.664   4.693
  331POPC   C2B 4283   1.632   4.790   5.108
  331POPC   C3B 4284   1.888   4.894   5.403
  331POPC   C4B 4285   2.176   4.660   5.597
  332POPC   NC3 4286   1.085   7.952   3.959
  332POPC   PO4 4287   0.600   7.439   3.998
  332POPC   GL1 4288   0.742   7.790   4.306
  332POPC   GL2 4289   1.075   7.954   4.439
  332POPC   C1A 4290   0.763   7.774   4.757
  332POPC   D2A 4291   1.020   7.983   5.016
  332POPC   C3A 4292   0.911   7.810   5.372
  332POPC   C4A 4293   1.075   7.813   5.753
  332POPC   C1B 4294   1.463   7.988   4.630
  332POPC   C2B 4295   1.543   8.120   5.041
  332POPC   C3B 4296   1.344   8.086   5.424
  332POPC   C4B 4297   1.364   8.233   5.845
  333POPC   NC3 4298  10.069   6.547   4.005
  333POPC   PO4 4299  10.436   5.995   4.147
  333POPC   GL1 4300  10.170   6.235   4.391
  333POPC   GL2 4301  10.318   6.566   4.431
  333POPC   C1A 4302  10.070   6.270   4.806
  333POPC   D2A 4303  10.076   6.008   5.164
  333POPC   C3A 4304  10.407   6.142   5.442
  333POPC   C4A 4305  10.241   6.252   5.817
  333POPC   C1B 4306  10.175   6.804   4.737
  333POPC   C2B 4307  10.043   6.705   5.138
  333POPC   C3B 4308  10.194   6.633   5.494
  333POPC   C4B 4309  10.471   6.719   5.815
  334POPC   NC3 4310   3.446   3.726   3.846
  334POPC   PO4 4311   3.918   3.289   3.933
  334POPC   GL1 4312   3.639   3.248   4.290
  334POPC   GL2 4313   3.301   3.454   4.284
  334POPC   C1A 4314   3.586   3.384   4.716
  334POPC   D2A 4315   3.456   3.556   5.095
  334POPC   C3A 4316   3.544   3.250   5.405
  334POPC   C4A 4317   3.638   3.241   5.820
  334POPC   C1B 4318   3.061   3.480   4.688
  334POPC   C2B 4319   2.903   3.470   5.106
  334POPC   C3B 4320   3.134   3.591   5.487
  334POPC   C4B 4321   3.568   3.730   5.596
  335POPC   NC3 4322  10.342   5.231   3.890
  335POPC   PO4 4323   9.750   4.785   3.842
  335POPC   GL1 4324  10.071   4.715   4.200
  335POPC   GL2 4325  10.251   5.009   4.320
  335POPC   C1A 4326  10.185   4.648   4.664
  335POPC   D2A 4327  10.116   4.430   5.047
  335POPC   C3A 4328  10.136   4.650   5.413
  335POPC   C4A 4329   9.965   4.795   5.773
  335POPC   C1B 4330  10.219   5.181   4.694
  335POPC   C2B 4331  10.122   5.020   5.081
  335POPC   C3B 4332  10.266   5.143   5.481
  335POPC   C4B 4333  10.127   5.282   5.860
  336POPC   NC3 4334   6.394   1.204   3.842
  336POPC   PO4 4335   6.752   1.765   3.637
  336POPC   GL1 4336   6.667   1.544   4.143
  336POPC   GL2 4337   6.585   1.160   4.296
  336POPC   C1A 4338   6.764   1.467   4.642
  336POPC   D2A 4339   6.584   1.210   4.984
  336POPC   C3A 4340   6.636   1.320   5.414
  336POPC   C4A 4341   6.646   1.077   5.838
  336POPC   C1B 4342   6.321   0.946   4.620
  336POPC   C2B 4343   6.240   0.786   5.051
  336POPC   C3B 4344   6.271   0.967   5.465
  336POPC   C4B 4345   6.245   1.356   5.740
  337POPC   NC3 4346   2.361   9.642   3.738
  337POPC   PO4 4347   2.754   9.133   3.887
  337POPC   GL1 4348   2.886   9.411   4.366
  337POPC   GL2 4349   3.026   9.177   4.591
  337POPC   C1A 4350   2.785   9.596   4.770
  337POPC   D2A 4351   2.902   9.816   5.138
  337POPC   C3A 4352   2.658   9.576   5.450
  337POPC   C4A 4353   2.479   9.694   5.837
  337POPC   C1B 4354   2.763   9.065   4.880
  337POPC   C2B 4355   2.814   9.038   5.284
  337POPC   C3B 4356   2.629   9.103   5.619
  337POPC   C4B 4357   2.953   9.241   5.823
  338POPC   NC3 4358   6.454   2.564   3.645
  338POPC   PO4 4359   6.429   3.098   4.041
  338POPC   GL1 4360   6.454   2.961   4.450
  338POPC   GL2 4361   6.406   2.618   4.374
  338POPC   C1A 4362   6.504   2.907   4.893
  338POPC   D2A 4363   6.202   2.644   5.119
  338POPC   C3A 4364   6.198   2.782   5.554
  338POPC   C4A 4365   6.470   2.906   5.965
  338POPC   C1B 4366   6.619   2.456   4.697
  338POPC   C2B 4367   6.602   2.321   5.095
  338POPC   C3B 4368   6.639   2.572   5.427
  338POPC   C4B 4369   6.536   2.441   5.819
  339POPC   NC3 4370   1.281   1.043   3.632
  339POPC   PO4 4371   1.310   0.577   4.154
  339POPC   GL1 4372   1.108   0.458   4.504
  339POPC   GL2 4373   1.376   0.219   4.589
  339POPC   C1A 4374   0.930   0.758   4.778
  339POPC   D2A 4375   1.053   0.916   5.185
  339POPC   C3A 4376   1.044   0.604   5.514
  339POPC   C4A 4377   0.807   0.222   5.591
  339POPC   C1B 4378   1.320   0.493   4.963
  339POPC   C2B 4379   1.542   0.743   5.240
  339POPC   C3B 4380   1.547   0.576   5.617
  339POPC   C4B 4381   1.406   0.133   5.665
  340POPC   NC3 4382   1.911   1.766   3.914
  340POPC   PO4 4383   2.264   2.293   3.905
  340POPC   GL1 4384   2.186   2.012   4.306
  340POPC   GL2 4385   1.861   1.916   4.379
  340POPC   C1A 4386   2.155   1.921   4.795
  340POPC   D2A 4387   2.176   2.132   5.198
  340POPC   C3A 4388   2.303   1.893   5.559
  340POPC   C4A 4389   2.266   1.894   6.006
  340POPC   C1B 4390   1.685   2.130   4.693
  340POPC   C2B 4391   1.686   1.997   5.070
  340POPC   C3B 4392   1.806   1.808   5.411
  340POPC   C4B 4393   1.881   2.111   5.710
  341POPC   NC3 4394   8.566   6.725   3.880
  341POPC   PO4 4395   9.150   7.046   3.950
  341POPC   GL1 4396   8.867   7.052   4.298
  341POPC   GL2 4397   8.683   7.322   4.436
  341POPC   C1A 4398   8.497   6.852   4.512
  341POPC   D2A 4399   8.375   6.769   4.937
  341POPC   C3A 4400   8.451   6.976   5.313
  341POPC   C4A 4401   8.423   6.964   5.758
  341POPC   C1B 4402   8.785   7.119   4.810
  341POPC   C2B 4403   8.969   7.088   5.131
  341POPC   C3B 4404   8.927   7.313   5.406
  341POPC   C4B 4405   8.871   7.184   5.781
  342W        W 4406   1.294   4.693  10.446
  343W        W 4407   6.560   2.887   1.427
  344W        W 4408   6.488   8.517   9.179
  345W        W 4409   2.639   8.753  11.382
  346W        W 4410   6.226   6.130   1.307
  347W        W 4411   8.640   1.944   1.218
  348W        W 4412   3.763   7.519  11.546
  349W        W 4413   3.856   1.826   1.712
  350W        W 4414   6.948   3.257   0.071
  351W        W 4415   3.749   7.473   2.327
  352W        W 4416   7.669   7.480   3.079
  353W        W 4417   7.254   2.910  10.949
  354W        W 4418   6.625   6.052   2.532
  355W        W 4419  10.415   4.070   2.347
  356W        W 4420   0.734   2.887  11.584
  357W        W 4421   2.106   0.956  11.404
  358W        W 4422   0.808   2.571   8.744
  359W        W 4423   3.840   2.361  10.515
  360W        W 4424   7.596   0.745  11.929
  361W        W 4425   7.975   6.286  10.349
  362W        W 4426   9.620   5.030   1.985
  363W        W 4427   2.656   7.888   2.247
  364W        W 4428   3.748   6.451  10.492
  365W        W 4429   3.654   8.964   2.271
  366W        W 4430   5.596   9.693   1.310
  367W        W 4431   2.549   8.897   9.189
  368W        W 4432   4.954   4.814   1.661
  369W        W 4433   6.096   8.010   0.889
  370W        W 4434   9.169   3.272   9.370
  371W        W 4435  10.272   4.681   1.618
  372W        W 4436   8.612   9.383   3.166
  373W        W 4437   9.810   1.689  10.519
  374W        W 4438   4.628   4.391  10.878
  375W        W 4439   2.849   9.551   0.890
  376W        W 4440   3.922   8.618  11.474
  377W        W 4441  10.435   0.170   9.896
  378W        W 4442   8.536   8.329  10.390
  379W        W 4443   2.326   4.340   3.221
  380W        W 4444   3.350   9.671   0.980
  381W        W 4445   1.132   4.465   1.811
  382W        W 4446   6.135   8.570  10.928
  383W        W 4447   1.647   6.043   3.420
  384W        W 4448   1.533   9.239   0.399
  385W        W 4449   0.461   1.141   3.092
  386W        W 4450   2.177   7.846  11.042
  387W        W 4451   6.797   9.041  10.332
  388W        W 4452   3.060   7.700  11.930
  389W        W 4453   6.089   7.785  10.625
  390W        W 4454   2.591   5.240   2.840
  391W        W 4455   6.638   8.444  11.095
  392W        W 4456   9.056   9.554   2.987
  393W        W 4457   4.640  10.256   0.040
  394W        W 4458   7.284   6.233   3.829
  395W        W 4459   3.554   4.134   2.674
  396W        W 4460   1.503   9.617   3.550
  397W        W 4461  10.204   9.581   0.152
  398W        W 4462   3.768   7.711  10.011
  399W        W 4463   7.514  10.478   1.383
  400W        W 4464   5.134   4.581   8.239
  401W        W 4465   0.311   9.553  10.116
  402W        W 4466   9.697   9.445   2.430
  403W        W 4467   6.037   3.967   1.265
  404W        W 4468   7.204   1.311  10.338
  405W        W 4469   8.391   7.652   0.767
  406W        W 4470   3.799   0.258  10.062
  407W        W 4471   9.338   4.440   3.107
  408W        W 4472   2.367   3.239   9.352
  409W        W 4473   7.899   4.486  10.888
  410W        W 4474   8.013   7.603   3.458
  411W        W 4475   5.627   6.980   0.434
  412W        W 4476   9.091   9.158   2.151
  413W        W 4477   5.605   7.305   1.871
  414W        W 4478   8.425   6.279   8.585
  415W        W 4479   1.084   9.216   9.644
  416W        W 4480   8.058  10.173  10.193
  417W        W 4481   1.894  10.442   3.296
  418W        W 4482   7.896   0.956   2.280
  419W        W 4483   6.857   4.669   0.047
  420W        W 4484   8.874   3.487   2.356
  421W        W 4485   1.800   1.937   2.593
  422W        W 4486   9.666   8.339   0.796
  423W        W 4487   5.456   7.450  10.006
  424W        W 4488   1.363   7.450  10.917
  425W        W 4489   6.054   4.766  11.447
  426W        W 4490   0.923   9.556   0.418
  427W        W 4491   1.383   9.907   2.405
  428W        W 4492   4.129   4.503   0.206
  429W        W 4493   4.077   9.457   9.887
  430W        W 4494   4.810   3.208  10.295
  431W        W 4495   5.119   7.927   8.967
  432W        W 4496   6.052   9.985   2.722
  433W        W 4497   8.864   4.810  11.823
  434W        W 4498   0.824   7.525   3.115
  435W        W 4499   0.848   4.932   2.669
  436W        W 4500   4.363  10.406  10.010
  437W        W 4501   3.849   0.442  11.450
  438W        W 4502   0.007   6.978  11.323
  439W        W 4503   8.422   3.128   8.853
  440W        W 4504   3.593   6.417   3.659
  441W        W 4505   4.260   8.473   0.746
  442W        W 4506   4.271   8.841  11.112
  443W        W 4507   1.922   5.622   3.339
  444W        W 4508   7.593   8.591   1.243
  445W        W 4509   4.995   7.196   4.059
  446W        W 4510   6.445   9.796  11.497
  447W        W 4511   7.200   0.889   9.204
  448W        W 4512   4.782  10.455  10.596
  449W        W 4513   9.022   5.620   3.480
  450W        W 4514   1.681   6.619   9.341
  451W        W 4515   8.413   4.021   2.204
  452W        W 4516   8.986   6.585   1.467
  453W        W 4517   7.448   7.706   2.678
  454W        W 4518   7.003   5.994   3.094
  455W        W 4519   1.841   6.601  10.860
  456W        W 4520   8.710   3.406   0.068
  457W        W 4521   7.172   0.802   1.014
  458W        W 4522   1.907   5.278   9.122
  459W        W 4523   9.043   5.472  10.124
  460W        W 4524  10.242   5.012   0.725
  461W        W 4525   2.855   4.723   3.578
  462W        W 4526   0.971   7.015   1.331
  463W        W 4527   0.888   4.434  10.285
  464W        W 4528   6.989   4.906   0.998
  465W        W 4529   6.417   2.049   9.520
  466W        W 4530   7.502   0.508  11.295
  467W        W 4531   5.624   8.494  10.840
  468W        W 4532   3.770   7.103   9.133
  469W        W 4533  10.128   7.591  10.398
  470W        W 4534   9.344   1.836  10.361
  471W        W 4535   1.584   1.862   1.674
  472W        W 4536   7.058   3.130   3.074
  473W        W 4537   3.993   0.356   8.704
  474W        W 4538   4.771   4.910   8.437
  475W        W 4539   5.041   2.585   0.349
  476W        W 4540   6.695   6.684  11.918
  477W        W 4541   7.732   0.477   2.298
  478W        W 4542   4.529   9.664   8.529
  479W        W 4543   8.425   0.840   2.288
  480W        W 4544   5.269   9.150  11.962
  481W        W 4545   4.703   6.599  10.715
  482W        W 4546   6.731   3.094   0.984
  483W        W 4547   0.816   2.182   0.710
  484W        W 4548   8.400   7.241   3.428
  485W        W 4549   1.322  10.321   3.288
  486W        W 4550   6.489   6.920   3.272
  487W        W 4551   3.768   8.491   0.898
  488W        W 4552   5.696   8.433   2.693
  489W        W 4553   2.675   6.064   8.371
  490W        W 4554   3.712   8.707   3.498
  491W        W 4555   2.146   8.529   1.624
  492W        W 4556   7.271   6.492  10.718
  493W        W 4557   1.190   5.631   9.026
  494W        W 4558   7.732   6.861   9.273
  495W        W 4559   4.557   7.121  10.727
  496W        W 4560   5.435   3.686   8.207
  497W        W 4561   3.160   4.114   9.756
  498W        W 4562   8.966   1.329   9.747
  499W        W 4563   0.056   3.141   2.679
  500W        W 4564   6.018   4.773   2.482
  501W        W 4565   7.735   8.968  11.492
  502W        W 4566   4.109   2.594   9.441
  503W        W 4567  10.020   0.186  10.207
  504W        W 4568   7.561   0.110   3.367
  505W        W 4569   0.738   2.516  10.743
  506W        W 4570   3.204   6.738   2.467
  507W        W 4571   1.139   2.369   9.725
  508W        W 4572   4.093   6.245   1.978
  509W        W 4573   3.828   5.015  10.627
  510W        W 4574   9.246   2.772  11.359
  511W        W 4575   5.404   4.882   3.642
  512W        W 4576   8.573   9.860   1.679
  513W        W 4577   2.438   9.185   1.244
  514W        W 4578   4.510   4.545   9.992
  515W        W 4579   6.757   7.538   1.316
  516W        W 4580   4.642   9.291  11.562
  517W        W 4581   5.172   3.622   3.260
  518W        W 4582   8.926   6.002   0.850
  519W        W 4583   2.760   3.732   3.182
  520W        W 4584   6.967   4.357   3.933
  521W        W 4585   4.829   9.836  10.308
  522W        W 4586  10.388   6.080   8.873
  523W        W 4587   5.277   4.070   0.194
  524W        W 4588   9.483   4.247   0.739
  525W        W 4589   5.307   4.125  10.328
  526W        W 4590  10.247   4.269  10.102
  527W        W 4591   4.294  10.112   2.713
  528W        W 4592   2.418   1.334   3.083
  529W        W 4593   6.187   3.470   3.105
  530W        W 4594   6.932   0.367   2.005
  531W        W 4595   2.802   1.432   1.009
  532W        W 4596   5.962   3.128   8.852
  533W        W 4597   3.145   2.219   9.535
  534W        W 4598   9.128   4.165   9.573
  535W        W 4599   8.460   2.450   0.393
  536W        W 4600   5.697   5.458   9.490
  537W        W 4601   2.615   1.552   9.046
  538W        W 4602   8.904   4.290  10.529
  539W        W 4603   2.208   9.947   9.011
  540W        W 4604   5.758   7.175  11.883
  541W        W 4605   8.440   3.886   2.748
  542W        W 4606  10.192   9.572   2.381
  543W        W 4607   9.324   5.092  11.017
  544W        W 4608   7.938   6.450   2.267
  545W        W 4609   6.923   4.762   9.769
  546W        W 4610   1.264   5.135   2.389
  547W        W 4611   9.643   0.433  10.451
  548W        W 4612   9.805   0.375   1.237
  549W        W 4613   4.796   1.768   1.948
  550W        W 4614   5.316   7.368   0.301
  551W        W 4615   0.532   4.006  11.395
  552W        W 4616   7.994   5.729   3.407
  553W        W 4617   4.244   8.287  11.180
  554W        W 4618   4.739   9.855   2.693
  555W        W 4619   1.344   9.782   1.394
  556W        W 4620  10.341   1.167   1.396
  557W        W 4621   7.933   5.446   9.378
  558W        W 4622   3.868   0.678   9.759
  559W        W 4623   0.483   0.789   2.744
  560W        W 4624   3.773   9.526   0.646
  561W        W 4625   1.587   1.977  10.987
  562W        W 4626   5.472   2.620   9.242
  563W        W 4627   3.491   3.378   0.366
  564W        W 4628   4.057   8.240  10.309
  565W        W 4629   9.169   1.408   8.766
  566W        W 4630   8.043   6.246  11.715
  567W        W 4631   8.087   4.620  10.443
  568W        W 4632   3.257   0.902   8.718
  569W        W 4633   2.331   8.190   1.312
  570W        W 4634   0.631   6.002   3.260
  571W        W 4635   3.539   6.767   3.249
  572W        W 4636   8.240   3.410   0.260
  573W        W 4637   3.034   0.107   0.946
  574W        W 4638   2.625  10.235   8.848
  575W        W 4639   3.757   1.412   1.397
  576W        W 4640   2.072   5.087   9.750
  577W        W 4641   4.241   0.226  11.756
  578W        W 4642   9.916   4.879  10.056
  579W        W 4643   5.448   1.295  10.019
  580W        W 4644   9.974   8.548   9.487
  581W        W 4645   0.744   4.037   9.975
  582W        W 4646   9.333   0.479   9.542
  583W        W 4647   3.938   5.926   3.216
  584W        W 4648  10.287   7.446   8.484
  585W        W 4649   5.184   8.228   1.444
  586W        W 4650   7.066   1.546  10.818
  587W        W 4651  10.308   1.599   2.919
  588W        W 4652   2.296   2.696   0.659
  589W        W 4653  10.334   9.404   8.998
  590W        W 4654   1.739   3.331  11.492
  591W        W 4655   7.880   9.366   2.124
  592W        W 4656   9.952   3.761   1.146
  593W        W 4657   1.247   0.041  10.314
  594W        W 4658   1.476   8.970   9.396
  595W        W 4659   7.944   8.509  10.719
  596W        W 4660  10.045   4.365   3.310
  597W        W 4661   5.558   5.002  11.357
  598W        W 4662   1.711   2.755   2.937
  599W        W 4663   0.087   4.304   3.538
  600W        W 4664   8.374   0.489  11.252
  601W        W 4665  10.343  10.384   1.251
  602W        W 4666   0.971   4.796   3.168
  603W        W 4667   4.528   6.206   8.539
  604W        W 4668  10.229   3.435   3.496
  605W        W 4669  10.389   5.165  10.081
  606W        W 4670   8.927   5.251   2.253
  607W        W 4671   9.402   6.126   3.244
  608W        W 4672  10.295   0.626  10.083
  609W        W 4673   4.276   3.758   2.725
  610W        W 4674  10.353  10.078  10.758
  611W        W 4675   7.115   3.282  10.594
  612W        W 4676   4.958   2.130   9.693
  613W        W 4677   6.316   3.538   8.509
  614W        W 4678  10.401   3.784   1.440
  615W        W 4679   9.566   5.836   2.403
  616W        W 4680   5.077   2.601   9.569
  617W        W 4681   1.768  10.281  11.659
  618W        W 4682   3.634   1.296  10.401
  619W        W 4683   8.337  10.066  10.918
  620W        W 4684   2.899   1.263   0.225
  621W        W 4685   2.389   8.392   9.212
  622W        W 4686  10.239  10.197   1.742
  623W        W 4687   9.727   2.670   0.458
  624W        W 4688   0.363   1.163   1.760
  625W        W 4689   2.115   5.550   9.533
  626W        W 4690   8.053   6.963   1.412
  627W        W 4691   0.322   9.530   9.597
  628W        W 4692   5.320   5.027   1.385
  629W        W 4693   5.342   0.207   1.176
  630W        W 4694   9.491   7.967   9.933
  631W        W 4695   9.746   7.828  11.855
  632W        W 4696   3.850   2.337   3.533
  633W        W 4697   9.876   3.821   9.336
  634W        W 4698   6.545   7.439  10.128
  635W        W 4699   7.665   3.178   9.266
  636W        W 4700   3.183   0.608   3.567
  637W        W 4701   0.866   3.974   8.967
  638W        W 4702   8.452   0.354  11.725
  639W        W 4703   0.837   0.480   8.981
  640W        W 4704   7.083   4.103   2.583
  641W        W 4705   9.535  10.422   8.534
  642W        W 4706   5.148   7.237   1.664
  643W        W 4707   6.040   2.064   2.149
  644W        W 4708   9.572   7.041  11.499
  645W        W 4709   5.181   7.637   2.578
  646W        W 4710   7.462   7.650   8.898
  647W        W 4711   3.584   5.159   1.220
  648W        W 4712   7.871   3.979  11.001
  649W        W 4713   6.130   5.975   2.735
  650W        W 4714   6.169   1.866   9.099
  651W        W 4715   7.909   4.342   0.463
  652W        W 4716   5.801   8.379  10.001
  653W        W 4717   7.135   5.951  11.807
  654W        W 4718   0.920   1.414   9.800
  655W        W 4719   9.958   6.225   0.902
  656W        W 4720   8.170   5.635   0.574
  657W        W 4721   2.827   5.030   9.560
  658W        W 4722   0.394   1.246  11.849
  659W        W 4723   8.053   5.449   1.286
  660W        W 4724   4.551   9.863   2.205
  661W        W 4725   2.603   1.985  11.799
  662W        W 4726   1.896   4.735   8.523
  663W        W 4727   6.026   3.238   0.739
  664W        W 4728   0.146   9.333   2.494
  665W        W 4729   6.538   1.391   1.332
  666W        W 4730   7.183   0.394   9.422
  667W        W 4731   2.125   6.606   9.028
  668W        W 4732   7.006   3.196   0.568
  669W        W 4733   2.438   9.653   0.205
  670W        W 4734   4.020   3.276  10.034
  671W        W 4735   5.069   3.518   2.783
  672W        W 4736   8.807   8.406  11.869
  673W        W 4737   4.581   0.597  10.500
  674W        W 4738   4.244   0.926   9.979
  675W        W 4739   5.157   0.880   8.911
  676W        W 4740   9.962   0.312   0.214
  677W        W 4741   6.044   9.649   0.022
  678W        W 4742   6.523   4.748  11.669
  679W        W 4743   2.277   1.246   8.488
  680W        W 4744   1.759   4.670  10.615
  681W        W 4745   4.205   7.999   1.633
  682W        W 4746   4.625   0.526   1.016
  683W        W 4747   7.471   0.150  10.865
  684W        W 4748   0.105   4.942  11.265
  685W        W 4749   4.043   2.883  10.380
  686W        W 4750   7.961   6.800   0.925
  687W        W 4751   7.872   9.034   1.342
  688W        W 4752   5.671   4.515  10.296
  689W        W 4753   2.100   8.580  11.439
  690W        W 4754   5.660   7.559   2.321
  691W        W 4755   7.728   1.871  11.387
  692W        W 4756   0.505   6.991  11.131
  693W        W 4757   2.820   4.515   1.508
  694W        W 4758   9.845   1.202  10.665
  695W        W 4759   6.006   0.642   1.470
  696W        W 4760   0.710   0.673  10.357
  697W        W 4761   9.564   2.601  10.005
  698W        W 4762   3.566   9.180   1.800
  699W        W 4763   1.507   5.589   2.406
  700W        W 4764   4.958   6.574   9.039
  701W        W 4765   6.397   0.708   9.520
  702W        W 4766   2.366   3.063  10.973
  703W        W 4767   4.614   6.056   2.847
  704W        W 4768   5.197   2.227   0.022
  705W        W 4769   3.780   9.855   2.731
  706W        W 4770   3.033   8.010  10.058
  707W        W 4771   3.827   8.221   1.887
  708W        W 4772   2.489   0.915   2.179
  709W        W 4773   3.006   1.112  11.357
  710W        W 4774   0.364   2.397   9.162
  711W        W 4775   8.506   7.184   1.598
  712W        W 4776   2.320   1.226   1.675
  713W        W 4777   4.154   1.771   0.204
  714W        W 4778   5.660   7.927   2.870
  715W        W 4779   2.772   7.017  11.328
  716W        W 4780   7.183   1.710   2.330
  717W        W 4781   7.310   8.563  11.511
  718W        W 4782   1.343   3.299   8.738
  719W        W 4783   0.941   3.698  11.255
  720W        W 4784   1.862   4.142   1.237
  721W        W 4785   8.002   8.354   9.735
  722W        W 4786   2.066   7.613  10.061
  723W        W 4787   6.188   3.043   2.238
  724W        W 4788   1.209  10.013  11.691
  725W        W 4789   6.435   6.991  10.527
  726W        W 4790   5.759   6.583   8.500
  727W        W 4791   0.876   2.667   0.594
  728W        W 4792   9.957   6.120  11.984
  729W        W 4793   9.415   8.702  11.312
  730W        W 4794   9.227   5.228  10.530
  731W        W 4795   8.806   2.731   2.991
  732W        W 4796   0.554   9.481   3.360
  733W        W 4797   1.405   6.710   1.397
  734W        W 4798   6.529   8.029  11.389
  735W        W 4799   6.107   8.444   8.854
  736W        W 4800   1.008  10.194   2.240
  737W        W 4801   2.768   2.178   1.267
  738W        W 4802   5.142   3.604   0.036
  739W        W 4803   7.589   4.583   3.696
  740W        W 4804   5.999   0.566  10.628
  741W        W 4805   0.781   0.136   2.294
  742W        W 4806  10.185  10.234   9.990
  743W        W 4807   3.518   8.845  11.692
  744W        W 4808   2.811   5.075   1.869
  745W        W 4809   1.472   0.947   2.552
  746W        W 4810   6.597   6.513   2.190
  747W        W 4811   2.604   7.025   9.753
  748W        W 4812   4.751   7.520   2.288
  749W        W 4813   0.002   3.449  11.957
  750W        W 4814   3.239   8.954   1.468
  751W        W 4815   4.630  10.234   3.505
  752W        W 4816   9.121   8.797   1.809
  753W        W 4817   6.085  10.484   2.698
  754W        W 4818   6.446   3.384   2.657
  755W        W 4819   4.523   3.090   8.926
  756W        W 4820   4.579   0.793   3.371
  757W        W 4821   2.166   8.035   2.421
  758W        W 4822   8.676   1.792   1.989
  759W        W 4823   9.499   6.986   8.807
  760W        W 4824   7.423   2.271   8.740
  761W        W 4825   2.760   1.646   0.550
  762W        W 4826   7.715   8.594   8.888
  763W        W 4827   3.260   4.530   1.765
  764W        W 4828   9.850   8.763   1.000
  765W        W 4829   0.235   9.857  10.542
  766W        W 4830   9.398   5.121  10.036
  767W        W 4831   7.911   4.570   1.541
  768W        W 4832   3.369   9.462   1.432
  769W        W 4833   0.688   5.629   9.575
  770W        W 4834   4.035   6.637   9.212
  771W        W 4835   5.844   1.654   1.924
  772W        W 4836   7.334  10.038   9.212
  773W        W 4837   6.741   4.688   9.087
  774W        W 4838   2.307   8.214  10.699
  775W        W 4839   4.461   8.345   8.451
  776W        W 4840   5.601   8.773   9.696
  777W        W 4841   8.342   9.457  11.791
  778W        W 4842   7.330   7.851  11.029
  779W        W 4843   6.840   9.808   1.676
  780W        W 4844   7.673   2.632  10.966
  781W        W 4845   7.074   6.897   0.831
  782W        W 4846   0.465  10.298  10.478
  783W        W 4847   1.249   7.930   9.131
  784W        W 4848   1.846   8.387   0.261
  785W        W 4849   1.692   3.831   0.430
  786W        W 4850   8.381   9.021   9.303
  787W        W 4851   2.373   5.726  11.885
  788W        W 4852   6.390   4.010   9.726
  789W        W 4853   9.785   2.830   1.458
  790W        W 4854   3.179   7.486   0.386
  791W        W 4855   1.813   5.713   0.529
  792W        W 4856   6.227   5.539   3.015
  793W        W 4857   9.973   9.978   0.366
  794W        W 4858   4.591  10.390   9.167
  795W        W 4859  10.492   7.941   1.827
  796W        W 4860   3.719   7.061  11.844
  797W        W 4861   8.385   1.253   9.054
  798W        W 4862   9.140   8.047   0.620
  799W        W 4863   1.256   5.535   0.607
  800W        W 4864   2.283  10.010   2.539
  801W        W 4865   3.757   8.436  11.942
  802W        W 4866   0.786   0.178  10.481
  803W        W 4867   9.562   8.939   0.192
  804W        W 4868   4.902   1.648   3.683
  805W        W 4869   3.413  10.370  10.374
  806W        W 4870   3.094   8.529  10.334
  807W        W 4871   4.909   4.173  11.270
  808W        W 4872   6.200   1.406   0.244
  809W        W 4873   9.092   5.535  10.940
  810W        W 4874   0.399   6.037   8.842
  811W        W 4875   7.015   2.729   1.711
  812W        W 4876   2.637   3.231   1.981
  813W        W 4877   1.889   7.952   1.449
  814W        W 4878   1.920  10.384   2.654
  815W        W 4879   8.584   4.680  10.573
  816W        W 4880   9.875   8.371   3.265
  817W        W 4881   3.903   3.402   0.696
  818W        W 4882   5.011   4.527   3.623
  819W        W 4883   3.595   7.865   9.426
  820W        W 4884   5.088   8.469   8.872
  821W        W 4885   4.610   6.848   3.456
  822W        W 4886   6.956   8.037   2.528
  823W        W 4887   0.030   3.661   8.834
  824W        W 4888   8.520   9.992   2.171
  825W        W 4889   0.356   9.894   1.715
  826W        W 4890   6.925  10.489   9.684
  827W        W 4891   6.493   6.614   9.781
  828W        W 4892  10.181   6.200   3.661
  829W        W 4893   7.663   8.891   1.986
  830W        W 4894   9.115   7.566  11.950
  831W        W 4895  10.014   3.285  10.981
  832W        W 4896   6.119   0.054   0.716
  833W        W 4897   1.231   3.624  10.090
  834W        W 4898   9.894   2.002   8.523
  835W        W 4899   0.274   2.672   1.505
  836W        W 4900   9.363   8.355   1.979
  837W        W 4901   2.835   7.399   3.367
  838W        W 4902   0.101   6.577   0.709
  839W        W 4903   8.117   9.337   8.635
  840W        W 4904   2.916   1.624  10.514
  841W        W 4905   2.371   7.002   8.774
  842W        W 4906   3.265   8.447  10.941
  843W        W 4907   4.024   6.194   8.327
  844W        W 4908   5.533   3.869   3.534
  845W        W 4909   1.688   8.024   9.385
  846W        W 4910   7.532   8.396   1.855
  847W        W 4911  10.438   4.217   1.173
  848W        W 4912   7.771   6.425  10.780
  849W        W 4913   7.128   7.480   3.182
  850W        W 4914   9.682   6.467  10.732
  851W        W 4915   3.185   2.654   0.980
  852W        W 4916   2.995   1.767   0.057
  853W        W 4917   3.281   4.891  11.539
  854W        W 4918   5.172   5.748  11.861
  855W        W 4919   1.368   3.318   1.188
  856W        W 4920   9.028   3.565  10.823
  857W        W 4921   8.184   8.798   0.409
  858W        W 4922   2.742   6.970   1.447
  859W        W 4923   9.825   7.340   1.766
  860W        W 4924   5.162  10.478  11.353
  861W        W 4925   5.745   8.063   3.405
  862W        W 4926   3.337   9.356   3.487
  863W        W 4927  10.447   0.848   1.810
  864W        W 4928   7.353   6.715   3.649
  865W        W 4929   7.492   4.900  11.804
  866W        W 4930   6.459   8.837   2.529
  867W        W 4931   6.965   7.506   1.794
  868W        W 4932   1.926   4.774   2.521
  869W        W 4933   7.622   9.135   9.983
  870W        W 4934   0.261   4.263   0.466
  871W        W 4935   7.087   2.690   8.811
  872W        W 4936   8.148   3.234   1.512
  873W        W 4937   1.282   6.226   1.506
  874W        W 4938   4.243   4.684  11.728
  875W        W 4939  10.439   7.527  10.005
  876W        W 4940   9.592   0.674   9.939
  877W        W 4941   9.930   0.718  10.790
  878W        W 4942   4.125   4.554   3.694
  879W        W 4943   3.553   9.071   9.096
  880W        W 4944   3.312   9.270   2.474
  881W        W 4945   5.001   7.631   0.015
  882W        W 4946   8.615   5.058  11.377
  883W        W 4947   0.410   0.525   9.267
  884W        W 4948   0.961   8.569  10.219
  885W        W 4949   4.220   2.344   2.973
  886W        W 4950   0.474   8.329   1.229
  887W        W 4951   1.831   8.861   1.873
  888W        W 4952   5.556   3.190   8.074
  889W        W 4953   3.817   0.378   0.445
  890W        W 4954   1.191   5.168   9.703
  891W        W 4955   9.072   9.391   3.445
  892W        W 4956   1.607   0.988   1.114
  893W        W 4957   7.620   1.053   1.149
  894W        W 4958   9.991  10.031   1.244
  895W        W 4959   1.245   5.015   0.383
  896W        W 4960   1.740   0.712   9.482
  897W        W 4961   1.811   6.667   2.273
  898W        W 4962   7.831   8.955  10.429
  899W        W 4963  10.400   3.171   8.705
  900W        W 4964  10.284   7.949   8.690
  901W        W 4965   9.125   9.588  10.967
  902W        W 4966  10.110   9.945   8.986
  903W        W 4967   2.392   7.263   0.944
  904W        W 4968  10.053   9.083   0.354
  905W        W 4969   0.286   0.697  10.679
  906W        W 4970   4.787   0.819   2.175
  907W        W 4971   4.540   8.729   3.571
  908W        W 4972  10.382   8.570   0.231
  909W        W 4973   3.269   2.093  10.802
  910W        W 4974   6.512   0.735  11.285
  911W        W 4975   0.057   3.282   2.172
  912W        W 4976   5.131   7.187   2.199
  913W        W 4977   1.108   3.790   2.397
  914W        W 4978   7.626   9.274  11.913
  915W        W 4979   9.845   1.243   0.506
  916W        W 4980   5.628   7.697  10.421
  917W        W 4981   2.818   7.435   0.730
  918W        W 4982   8.459   3.637   3.264
  919W        W 4983   0.649   5.602  11.864
  920W        W 4984   2.176   9.568   1.472
  921W        W 4985   5.456   7.704   3.711
  922W        W 4986   0.469   8.460   0.385
  923W        W 4987   5.959   7.562  11.580
  924W        W 4988   6.621   7.197   0.819
  925W        W 4989   8.758   7.326   0.908
  926W        W 4990   4.971   0.772   2.679
  927W        W 4991   4.433   6.932  11.203
  928W        W 4992   7.480   5.085   3.576
  929W        W 4993   3.036   3.023   1.734
  930W        W 4994   8.623   3.287   1.741
  931W        W 4995   1.254   2.751   3.202
  932W        W 4996   7.540   8.553  10.277
  933W        W 4997   4.853   3.101   2.254
  934W        W 4998   5.817   2.239   9.215
  935W        W 4999   6.501   9.346  10.731
  936W        W 5000   7.110   7.400   0.923
  937W        W 5001   4.984   5.498   2.134
  938W        W 5002   4.554   7.697   9.045
  939W        W 5003   0.530   9.910   0.266
  940W        W 5004   3.093   2.832  10.317
  941W        W 5005   0.300   5.542   1.868
  942W        W 5006  10.389   9.951   2.761
  943W        W 5007   9.924   9.568   9.292
  944W        W 5008   7.123   9.881   2.138
  945W        W 5009   5.648   6.006   2.957
  946W        W 5010  10.042   2.518   2.871
  947W        W 5011   8.386   2.943   0.298
  948W        W 5012   3.807   7.059  11.326
  949W        W 5013   6.095   6.545  10.099
  950W        W 5014   8.014   5.588   2.375
  951W        W 5015   5.207   7.657   2.052
  952W        W 5016   6.010   9.571   0.520
  953W        W 5017   9.776  10.459   3.861
  954W        W 5018   6.069   0.021  11.270
  955W        W 5019   6.533   4.014   0.024
  956W        W 5020   7.732   2.472   0.648
  957W        W 5021   1.878   4.855   3.655
  958W        W 5022   6.588   9.135   9.877
  959W        W 5023   1.395   0.564   2.932
  960W        W 5024   9.521   6.961  10.748
  961W        W 5025   9.117   3.049   2.330
  962W        W 5026   9.864   0.918   3.872
  963W        W 5027   0.634   4.717   8.677
  964W        W 5028   3.312   6.157  10.505
  965W        W 5029   6.225   7.199   3.605
  966W        W 5030   2.798   3.714   2.109
  967W        W 5031   3.574   6.479   2.196
  968W        W 5032   5.240   2.103   1.229
  969W        W 5033   3.390   5.003   0.784
  970W        W 5034   2.671   0.183   9.281
  971W        W 5035   4.595   4.587   1.943
  972W        W 5036  10.054   7.282   2.320
  973W        W 5037   7.100   8.319   8.560
  974W        W 5038   5.231   2.214   2.107
  975W        W 5039   1.202   5.227   2.966
  976W        W 5040   8.159   1.728   8.987
  977W        W 5041   6.668   5.427   9.489
  978W        W 5042   6.503   4.135   0.945
  979W        W 5043   4.986   1.412  10.199
  980W        W 5044   2.185   6.034   8.571
  981W        W 5045   0.940   6.838   2.810
  982W        W 5046   7.162   3.119   2.048
  983W        W 5047   7.472   6.600   0.984
  984W        W 5048   2.930   9.548  11.773
  985W        W 5049   0.737   2.313   2.141
  986W        W 5050   4.527   8.216   9.959
  987W        W 5051   2.433   9.396   3.203
  988W        W 5052   4.551   1.239   9.418
  989W        W 5053   3.871   3.645   3.550
  990W        W 5054   6.273   1.543   9.461
  991W        W 5055   4.712   6.576   4.236
  992W        W 5056   6.225   1.397   3.257
  993W        W 5057   9.511   4.133  11.346
  994W        W 5058   2.284   7.935   3.564
  995W        W 5059   1.631   5.527   1.890
  996W        W 5060   8.723   1.544   1.533
  997W        W 5061   1.289   9.483   9.252
  998W        W 5062   0.842   6.818   8.715
  999W        W 5063   2.869   1.437   2.842
 1000W        W 5064   5.632   9.521   9.930
 1001W        W 5065   0.557   1.751   1.348
 1002W        W 5066   5.528   6.964   0.951
 1003W        W 5067   5.505   4.863  10.855
 1004W        W 5068   1.750   9.971  10.833
 1005W        W 5069   3.789   4.943  11.614
 1006W        W 5070   0.023   6.219  10.892
 1007W        W 5071   8.373   2.787  11.417
 1008W        W 5072   6.783   8.497  11.569
 1009W        W 5073   1.335   0.549   1.161
 1010W        W 5074   0.941   7.323   2.654
 1011W        W 5075   1.233   0.620   1.680
 1012W        W 5076   5.207   5.614   9.428
 1013W        W 5077   7.670   4.745   8.734
 1014W        W 5078   3.741   4.569   2.442
 1015W        W 5079   9.557   9.757   9.645
 1016W        W 5080   5.825   3.231   3.907
 1017W        W 5081   9.072   3.115  11.023
 1018W        W 5082   8.174   1.743   1.283
 1019W        W 5083   0.713   9.901  11.779
 1020W        W 5084   8.689   8.968   0.509
 1021W        W 5085   6.932   7.962   9.356
 1022W        W 5086   9.081   2.618  10.890
 1023W        W 5087   7.506   0.955   8.798
 1024W        W 5088   4.091   4.708  10.271
 1025W        W 5089   4.508   8.945   1.651
 1026W        W 5090   3.552   0.011   0.191
 1027W        W 5091   6.758   6.135   1.294
 1028W        W 5092   7.684   1.794   2.323
 1029W        W 5093   7.926   1.958   9.974
 1030W        W 5094   6.024   4.497   3.878
 1031W        W 5095   2.825   6.022   0.562
 1032W        W 5096   4.912  10.496   0.411
 1033W        W 5097   1.893   6.134   8.982
 1034W        W 5098   8.939   9.414   0.788
 1035W        W 5099   6.519   8.921  11.558
 1036W        W 5100   8.656   0.208  10.389
 1037W        W 5101  10.044   2.622  10.110
 1038W        W 5102   1.374   2.339   2.879
 1039W        W 5103   1.987   7.591   2.649
 1040W        W 5104   4.231   9.954   0.159
 1041W        W 5105   0.255   8.613   9.956
 1042W        W 5106   9.422   6.578  11.673
 1043W        W 5107   2.073   7.606   8.717
 1044W        W 5108   7.491   3.147  11.821
 1045W        W 5109   4.073   6.618   0.437
 1046W        W 5110   4.101   6.619   0.950
 1047W        W 5111   8.417  10.022   0.747
 1048W        W 5112   5.042   6.705   3.866
 1049W        W 5113   6.506   3.505   0.066
 1050W        W 5114   0.281   3.742   2.223
 1051W        W 5115   0.694   6.431   9.030
 1052W        W 5116   9.073   5.014   0.367
 1053W        W 5117   9.613   3.143   2.282
 1054W        W 5118   3.453   4.659   9.117
 1055W        W 5119   9.720   7.287  10.392
 1056W        W 5120   6.664   3.911   8.434
 1057W        W 5121   1.263   4.139   9.978
 1058W        W 5122   4.246   4.692  10.761
 1059W        W 5123   8.147   9.563  10.928
 1060W        W 5124   4.515   6.861   9.338
 1061W        W 5125   9.772   9.877   2.170
 1062W        W 5126   7.412   4.671   0.284
 1063W        W 5127   8.562   3.777   0.921
 1064W        W 5128   0.069   1.949  10.698
 1065W        W 5129   4.374   5.242   1.009
 1066W        W 5130   9.304   8.847   9.876
 1067W        W 5131   5.858   0.438   9.127
 1068W        W 5132   9.942   2.214   9.312
 1069W        W 5133   4.114   7.884   9.279
 1070W        W 5134   6.558   2.798   1.936
 1071W        W 5135   3.621   1.422   3.506
 1072W        W 5136   1.773   1.661   9.091
 1073W        W 5137   5.986  10.408   1.172
 1074W        W 5138   9.996   6.129   9.627
 1075W        W 5139   2.759   4.749   3.053
 1076W        W 5140   9.001   0.953   1.700
 1077W        W 5141   2.731   5.510   0.258
 1078W        W 5142   5.902   4.856   1.981
 1079W        W 5143   2.662  10.221   0.203
 1080W        W 5144   5.591   9.747   3.218
 1081W        W 5145  10.493   2.307   0.420
 1082W        W 5146   5.700   1.907   2.532
 1083W        W 5147   5.997  10.085   0.459
 1084W        W 5148   2.643   2.692  11.272
 1085W        W 5149   4.836   8.597   1.473
 1086W        W 5150   8.076   8.132   3.400
 1087W        W 5151   0.801  10.302   3.299
 1088W        W 5152   5.624   5.940   9.478
 1089W        W 5153   2.863   7.887   0.982
 1090W        W 5154   0.148   2.621   3.258
 1091W        W 5155   6.583   1.189  11.516
 1092W        W 5156   5.973   0.847   0.945
 1093W        W 5157   7.904   7.793   0.683
 1094W        W 5158   1.829   5.508   1.399
 1095W        W 5159   2.703   3.390  11.759
 1096W        W 5160   1.377   6.469   3.527
 1097W        W 5161   3.325   8.398   2.115
 1098W        W 5162   6.611   6.695   0.877
 1099W        W 5163   3.306   8.671   1.044
 1100W        W 5164   7.415   0.269   2.882
 1101W        W 5165   0.504   3.378  11.840
 1102W        W 5166   3.797   8.806   2.757
 1103W        W 5167   2.766   4.332   1.024
 1104W        W 5168   6.014   3.676   0.471
 1105W        W 5169   2.318   8.115   0.378
 1106W        W 5170   9.950   6.332  10.310
 1107W        W 5171   9.817   8.963   9.958
 1108W        W 5172   1.587   3.886   2.265
 1109W        W 5173   2.805   9.500   3.530
 1110W        W 5174   9.918   5.457   1.928
 1111W        W 5175   2.181   7.326   9.147
 1112W        W 5176  10.485   1.133   9.876
 1113W        W 5177   3.139  10.260   1.944
 1114W        W 5178   7.008  10.351   1.244
 1115W        W 5179   0.416   9.339   1.004
 1116W        W 5180   4.522   0.472   2.987
 1117W        W 5181   3.408   3.557   0.848
 1118W        W 5182   7.182  10.345  10.523
 1119W        W 5183   5.076  10.483  11.908
 1120W        W 5184   4.807   9.982   9.376
 1121W        W 5185   7.234   8.846   0.809
 1122W        W 5186   5.407   5.769   9.901
 1123W        W 5187   9.336   9.092   3.040
 1124W        W 5188   3.531   3.105  10.095
 1125W        W 5189   1.313   8.166  10.165
 1126W        W 5190   4.109   4.178  10.875
 1127W        W 5191   9.430   3.239   2.755
 1128W        W 5192   5.741  10.034   9.837
 1129W        W 5193   4.609   9.446   1.505
 1130W        W 5194   9.221   8.636   8.871
 1131W        W 5195   3.424   1.805  11.755
 1132W        W 5196   3.521   6.239   3.186
 1133W        W 5197   0.033   4.062  11.322
 1134W        W 5198   6.503   6.120  10.993
 1135W        W 5199   5.599   8.758   1.509
 1136W        W 5200   1.304   6.935  10.526
 1137W        W 5201   4.749   1.688   9.567
 1138W        W 5202   4.551   9.579   9.539
 1139W        W 5203   6.025   1.047   9.459
 1140W        W 5204   9.616   6.708   2.686
 1141W        W 5205   6.685   7.940  10.377
 1142W        W 5206   9.906   2.614   9.612
 1143W        W 5207  10.397   4.726   1.136
 1144W        W 5208   4.317   2.242   2.485
 1145W        W 5209   3.847   9.828  10.884
 1146W        W 5210   7.776   7.039   2.824
 1147W        W 5211   9.019   7.908  10.121
 1148W        W 5212   3.239   7.283  11.681
 1149W        W 5213   7.508   7.375  10.955
 1150W        W 5214  10.451   3.275   9.219
 1151W        W 5215   4.034   6.540   2.442
 1152W        W 5216   3.274   6.227   1.373
 1153W        W 5217   5.541   5.337  11.754
 1154W        W 5218   3.701   4.588   9.897
 1155W        W 5219  10.248   9.367   1.574
 1156W        W 5220   1.268   7.597   1.188
 1157W        W 5221   0.670   1.969  10.880
 1158W        W 5222   9.126   0.350   3.516
 1159W        W 5223  10.355   6.157   9.967
 1160W        W 5224   0.808  10.273   9.578
 1161W        W 5225   9.879   8.588   0.417
 1162W        W 5226   6.070   9.442   1.447
 1163W        W 5227   0.903   1.691   0.978
 1164W        W 5228   0.347   3.695  11.035
 1165W        W 5229   8.123   8.704  11.218
 1166W        W 5230   0.369   7.858   1.435
 1167W        W 5231   4.748   8.605   0.970
 1168W        W 5232   4.693   5.147   0.273
 1169W        W 5233   5.653   2.133   1.839
 1170W        W 5234   5.439   6.481   0.382
 1171W        W 5235   9.287   9.647   0.516
 1172W        W 5236   2.724   8.043   9.018
 1173W        W 5237   3.564   9.389  10.811
 1174W        W 5238   7.585   2.687   9.053
 1175W        W 5239   0.389   6.675  10.406
 1176W        W 5240   9.393   3.921  10.879
 1177W        W 5241   9.726   0.897   2.247
 1178W        W 5242   9.088   4.462   1.262
 1179W        W 5243   8.446  10.018   9.917
 1180W        W 5244   3.763   4.560  10.869
 1181W        W 5245   7.235   0.313   2.404
 1182W        W 5246   2.108   0.284   0.128
 1183W        W 5247   7.597   5.169   0.251
 1184W        W 5248   8.073   0.845   0.941
 1185W        W 5249   6.399  10.287  11.580
 1186W        W 5250   5.008   5.697   8.947
 1187W        W 5251   8.165   0.726  10.853
 1188W        W 5252   0.680   2.394   1.633
 1189W        W 5253   6.497   5.077   9.957
 1190W        W 5254   5.626   3.124  11.411
 1191W        W 5255   9.782   2.579  10.553
 1192W        W 5256   8.317   2.650   3.061
 1193W        W 5257   3.147   8.829  11.274
 1194W        W 5258   4.124   7.967   9.782
 1195W        W 5259   6.027   2.785  11.459
 1196W        W 5260   9.830   5.299   2.402
 1197W        W 5261   2.623   2.400   9.770
 1198W        W 5262   3.629   0.357   2.490
 1199W        W 5263   4.594   3.253   3.140
 1200W        W 5264   0.238   7.918   2.323
 1201W        W 5265   4.237   5.454   3.230
 1202W        W 5266   3.359   5.481   2.730
 1203W        W 5267   3.850   7.454   9.506
 1204W        W 5268   3.883   5.797   7.996
 1205W        W 5269   0.790   3.565   9.763
 1206W        W 5270   9.816   6.284   2.341
 1207W        W 5271   1.673   0.313  11.375
 1208W        W 5272   9.566   3.663  11.943
 1209W        W 5273   2.583   8.879   3.167
 1210W        W 5274   5.159   8.578   2.398
 1211W        W 5275   8.818   4.564   8.657
 1212W        W 5276   2.195   4.167   9.560
 1213W        W 5277   9.837   3.063  10.359
 1214W        W 5278   9.703   2.660   9.142
 1215W        W 5279   8.477   8.580   0.773
 1216W        W 5280   2.215   3.963   3.542
 1217W        W 5281   2.413   7.492   9.623
 1218W        W 5282   3.628   9.007  11.210
 1219W        W 5283   4.349   4.005   2.278
 1220W        W 5284   5.227   7.164  11.829
 1221W        W 5285   0.746   3.268   1.073
 1222W        W 5286   1.433   2.589  11.098
 1223W        W 5287   2.257   6.999  11.475
 1224W        W 5288   5.680   6.405   9.354
 1225W        W 5289   4.322   3.137  10.961
 1226W        W 5290   7.641   5.841  11.803
 1227W        W 5291   1.652   5.358   9.599
 1228W        W 5292   4.227   3.142   9.434
 1229W        W 5293   0.426   2.270   2.914
 1230W        W 5294   0.385   6.384   1.633
 1231W        W 5295   1.410  10.233   8.991
 1232W        W 5296   7.099   4.711  11.012
 1233W        W 5297   9.714   3.655  11.445
 1234W        W 5298   4.452   5.729   8.783
 1235W        W 5299   8.851   8.950   9.094
 1236W        W 5300   4.980   1.343   8.691
 1237W        W 5301   5.504  10.354  11.693
 1238W        W 5302   8.043   2.800   1.211
 1239W        W 5303   9.390  10.498   0.019
 1240W        W 5304   4.148   8.928   9.031
 1241W        W 5305   2.255   1.748   2.466
 1242W        W 5306  10.002   0.493   2.027
 1243W        W 5307   3.498   8.105   9.861
 1244W        W 5308   6.474   6.792   1.760
 1245W        W 5309   6.176   3.250  10.207
 1246W        W 5310   3.297   8.571   0.132
 1247W        W 5311   0.656   9.945   8.395
 1248W        W 5312   8.911   2.735   8.574
 1249W        W 5313   5.505   6.462   4.008
 1250W        W 5314   9.548   1.662   9.009
 1251W        W 5315   9.624   4.261   9.513
 1252W        W 5316   4.552   4.209   2.759
 1253W        W 5317   5.612   5.170   0.227
 1254W        W 5318   1.590   9.120  11.288
 1255W        W 5319   9.280   7.681  11.453
 1256W        W 5320   9.927   0.799   0.744
 1257W        W 5321   3.736   6.000   1.695
 1258W        W 5322   0.401   2.138   3.409
 1259W        W 5323   5.607  10.281  11.190
 1260W        W 5324   6.025  10.461   8.946
 1261W        W 5325   7.828   2.291   9.545
 1262W        W 5326   4.621   1.210   2.482
 1263W        W 5327   6.492   4.423   9.447
 1264W        W 5328   9.611   4.749  10.791
 1265W        W 5329   3.360   5.214  10.758
 1266W        W 5330   4.538   6.422   3.202
 1267W        W 5331   2.182  10.415   0.464
 1268W        W 5332   9.814   5.645   9.433
 1269W        W 5333   4.289   2.158   1.985
 1270W        W 5334  10.220   6.892   3.232
 1271W        W 5335   7.049   1.270  11.250
 1272W        W 5336   7.425   8.285  10.739
 1273W        W 5337   9.694  10.087   9.269
 1274W        W 5338   6.559   2.790   8.955
 1275W        W 5339   0.016  10.399   2.548
 1276W        W 5340   4.506   2.306   9.844
 1277W        W 5341   6.602   2.191   3.322
 1278W        W 5342   9.819   1.310   2.563
 1279W        W 5343   2.423   5.946   9.488
 1280W        W 5344   5.780   3.783   3.107
 1281W        W 5345   8.175   1.827   3.369
 1282W        W 5346   2.716   1.514   2.335
 1283W        W 5347   1.861   2.572  10.063
 1284W        W 5348   8.933   3.693   2.883
 1285W        W 5349   1.203   5.599  11.869
 1286W        W 5350   0.923   1.288  11.231
 1287W        W 5351   0.343   4.487   0.952
 1288W        W 5352   1.228   3.129  10.322
 1289W        W 5353  10.477   4.559   3.112
 1290W        W 5354   7.008   3.571   3.324
 1291W        W 5355   3.691   0.964   9.379
 1292W        W 5356   4.857   1.854  10.575
 1293W        W 5357   5.595  10.390   0.794
 1294W        W 5358   3.630   6.198  10.932
 1295W        W 5359  10.314   8.231   2.215
 1296W        W 5360   4.074   4.705  11.248
 1297W        W 5361  10.342   3.481   2.988
 1298W        W 5362   1.564  10.149  10.380
 1299W        W 5363   8.037  10.372   1.305
 1300W        W 5364   4.721   2.040   2.737
 1301W        W 5365   7.444   4.534   1.830
 1302W        W 5366   3.135   3.802  10.599
 1303W        W 5367   5.172   5.149   0.488
 1304W        W 5368   4.742   4.513  11.622
 1305W        W 5369   8.279   1.334   2.268
 1306W        W 5370   4.679   8.488   0.457
 1307W        W 5371   5.179   1.583   1.280
 1308W        W 5372  10.392   4.771   3.597
 1309W        W 5373   1.352   9.395  10.088
 1310W        W 5374   5.492   3.818  10.721
 1311W        W 5375   3.807  10.298   9.834
 1312W        W 5376   9.217   4.475   0.107
 1313W        W 5377   5.036   4.071   1.152
 1314W        W 5378   4.911   5.585   1.209
 1315W        W 5379   7.543   1.766  10.843
 1316W        W 5380   2.302   9.429   9.141
 1317W        W 5381   2.652   7.967   3.213
 1318W        W 5382   7.472   7.142   8.920
 1319W        W 5383   3.794   6.266   0.719
 1320W        W 5384   0.566   0.341   0.268
 1321W        W 5385   3.122   3.322   2.201
 1322W        W 5386   4.908   2.073   0.407
 1323W        W 5387   6.899   2.214   8.899
 1324W        W 5388   6.480  10.196   2.434
 1325W        W 5389  10.343   6.585   9.576
 1326W        W 5390   4.576   5.026  10.095
 1327W        W 5391   9.498   0.550   0.888
 1328W        W 5392   7.503   3.304   3.234
 1329W        W 5393   3.359   5.890   4.048
 1330W        W 5394   0.038   1.830   0.598
 1331W        W 5395   8.102   1.711  11.041
 1332W        W 5396   7.882   3.461  11.134
 1333W        W 5397   4.789   2.011  11.076
 1334W        W 5398   4.481   5.707   0.213
 1335W        W 5399   8.812   6.081   2.753
 1336W        W 5400   4.024   3.629   0.265
 1337W        W 5401   4.173   2.732   0.702
 1338W        W 5402   7.439   9.866  10.595
 1339W        W 5403   9.831   6.689   3.586
 1340W        W 5404   8.583   1.890   9.209
 1341W        W 5405   3.133   7.846   3.355
 1342W        W 5406   7.483   6.084  10.468
 1343W        W 5407   0.261   2.200   1.847
 1344W        W 5408   3.104   8.471   9.805
 1345W        W 5409   9.811   9.837  10.113
 1346W        W 5410   5.891   1.063   3.432
 1347W        W 5411   3.850   2.687   1.207
 1348W        W 5412   7.298   9.002  10.346
 1349W        W 5413   9.778  10.359   1.927
 1350W        W 5414   9.803   0.352   9.238
 1351W        W 5415   5.973   2.190   9.683
 1352W        W 5416   5.651   0.890   8.675
 1353W        W 5417   0.434   6.779   9.920
 1354W        W 5418   2.554   5.604   0.732
 1355W        W 5419   1.232   3.227   9.780
 1356W        W 5420   0.774   5.696  10.917
 1357W        W 5421   0.346   3.410   0.781
 1358W        W 5422   7.975   4.834   2.931
 1359W        W 5423   7.002   6.969   8.985
 1360W        W 5424   5.576   9.324   0.407
 1361W        W 5425   2.704   3.886   0.732
 1362W        W 5426   8.314   8.530  11.704
 1363W        W 5427   2.462   6.875   0.084
 1364W        W 5428   7.745   8.642   0.755
 1365W        W 5429   1.789   9.883   2.705
 1366W        W 5430   5.070   4.180  10.767
 1367W        W 5431   0.353   5.578   3.345
 1368W        W 5432   7.279   0.292   1.061
 1369W        W 5433   7.535   2.204   2.736
 1370W        W 5434   5.687   2.474  10.009
 1371W        W 5435   0.332   4.182  10.919
 1372W        W 5436   6.966   3.732   1.719
 1373W        W 5437   3.839   9.638   0.168
 1374W        W 5438   3.248   9.299   9.486
 1375W        W 5439   8.159  10.476  11.883
 1376W        W 5440   3.872   5.768   0.668
 1377W        W 5441   8.375   0.205   1.514
 1378W        W 5442   8.901   2.297   9.276
 1379W        W 5443   1.900   2.808  10.904
 1380W        W 5444   7.121   6.604   9.862
 1381W        W 5445   2.448   3.727   1.139
 1382W        W 5446   6.077   7.035   1.500
 1383W        W 5447   1.811   7.449   1.292
 1384W        W 5448   5.955   6.120  10.385
 1385W        W 5449   9.317   1.466   9.399
 1386W        W 5450   9.484   4.211   1.748
 1387W        W 5451   8.925   8.587  11.084
 1388W        W 5452   8.940   4.276   3.402
 1389W        W 5453   3.715   7.196   3.508
 1390W        W 5454   3.139   4.037   1.815
 1391W        W 5455   2.811   7.898  11.513
 1392W        W 5456   3.400   8.026   0.197
 1393W        W 5457   3.821   5.055   8.572
 1394W        W 5458   0.477   7.351   0.563
 1395W        W 5459   2.848   7.639  10.409
 1396W        W 5460   5.952   3.563  10.813
 1397W        W 5461   2.188   6.914   9.439
 1398W        W 5462   5.052   5.494   2.646
 1399W        W 5463   9.352   1.019   0.436
 1400W        W 5464   4.974   8.105  10.815
 1401W        W 5465   0.380   8.147   3.378
 1402W        W 5466   4.640   0.828   0.153
 1403W        W 5467   6.623   4.211   2.806
 1404W        W 5468   0.019   7.065   9.772
 1405W        W 5469   1.289   3.552  10.601
 1406W        W 5470   2.622   5.531   1.730
 1407W        W 5471   0.682   9.847  10.316
 1408W        W 5472   3.115   9.692   2.273
 1409W        W 5473   1.693   8.002   8.839
 1410W        W 5474   8.550   9.472  11.318
 1411W        W 5475   5.921   3.081  10.619
 1412W        W 5476   7.012  10.443   9.179
 1413W        W 5477   0.671   2.254  10.016
 1414W        W 5478   6.014   7.320   3.087
 1415W        W 5479   5.466   6.078  10.295
 1416W        W 5480   5.493   9.408  11.430
 1417W        W 5481   4.198   4.454   3.204
 1418W        W 5482   7.203   5.168   2.389
 1419W        W 5483   3.424   7.009   2.821
 1420W        W 5484   1.867   5.860   3.847
 1421W        W 5485   8.793   6.873  10.250
 1422W        W 5486   1.276   7.626  10.036
 1423W        W 5487   3.961   8.755  10.294
 1424W        W 5488   5.078  10.065   1.369
 1425W        W 5489   6.924   5.665   8.678
 1426W        W 5490   2.894  10.375   9.658
 1427W        W 5491   6.775   2.942  10.790
 1428W        W 5492   3.016  10.285   9.175
 1429W        W 5493   8.109   2.918   9.959
 1430W        W 5494   0.926   5.611   3.475
 1431W        W 5495   3.426   9.764   9.361
 1432W        W 5496   1.503   1.738   8.584
 1433W        W 5497   9.889   4.689   9.572
 1434W        W 5498   1.183   3.460   0.748
 1435W        W 5499   9.828   5.389   3.383
 1436W        W 5500   7.863   2.441  11.406
 1437W        W 5501   7.105   5.771   9.557
 1438W        W 5502   4.195   5.274   1.968
 1439W        W 5503   5.969   4.764  10.683
 1440W        W 5504   8.489   2.869   0.934
 1441W        W 5505   0.908   6.575   3.261
 1442W        W 5506   9.516   1.344  10.270
 1443W        W 5507   3.392   4.355   0.305
 1444W        W 5508   9.361   4.981   2.419
 1445W        W 5509   9.328   3.274  11.455
 1446W        W 5510   9.500   4.703  10.291
 1447W        W 5511   2.843   8.365   2.292
 1448W        W 5512   0.418   5.886   1.517
 1449W        W 5513   8.530   8.301   3.575
 1450W        W 5514   5.327   1.863   3.512
 1451W        W 5515   7.646   5.820   9.600
 1452W        W 5516   3.532   8.008  10.933
 1453W        W 5517   3.168   6.246   2.384
 1454W        W 5518   1.392   0.940  10.385
 1455W        W 5519   5.165   5.191  11.064
 1456W        W 5520   5.717   4.390  11.963
 1457W        W 5521   6.956   6.468   8.993
 1458W        W 5522   7.018   2.835  10.283
 1459W        W 5523   7.937   8.605   1.630
 1460W        W 5524   9.780   9.786  11.916
 1461W        W 5525   1.732   1.142  11.691
 1462W        W 5526  10.366   4.501   0.696
 1463W        W 5527   5.650   4.228   0.479
 1464W        W 5528   9.832   3.052   3.454
 1465W        W 5529   6.025   1.288   1.195
 1466W        W 5530   0.251   0.934   2.269
 1467W        W 5531   3.624   0.741  10.217
 1468W        W 5532   4.430  10.482   1.528
 1469W        W 5533   8.859   3.325   3.269
 1470W        W 5534   4.250   0.827   9.454
 1471W        W 5535   6.470   2.477   0.402
 1472W        W 5536   6.570   0.310  10.932
 1473W        W 5537   2.729  10.320  11.143
 1474W        W 5538   5.304   9.760   1.723
 1475W        W 5539   3.281   1.363   1.187
 1476W        W 5540   2.280   0.041  11.040
 1477W        W 5541   1.374   5.732   1.475
 1478W        W 5542   7.945   0.294  11.545
 1479W        W 5543   9.081   3.738   0.167
 1480W        W 5544   1.715   1.178   9.263
 1481W        W 5545   7.138   1.282   1.218
 1482W        W 5546   9.785   3.310   1.281
 1483W        W 5547   3.627   5.071   3.127
 1484W        W 5548   8.522   5.204   1.249
 1485W        W 5549   8.357   3.652   9.411
 1486W        W 5550   2.686   8.147  10.389
 1487W        W 5551   3.616   7.481   0.709
 1488W        W 5552   6.005   5.119   9.298
 1489W        W 5553   8.357   9.252   0.254
 1490W        W 5554   7.064   9.410   1.457
 1491W        W 5555   6.188   7.542   9.324
 1492W        W 5556   8.108   4.018   0.823
 1493W        W 5557   8.196   9.938   9.475
 1494W        W 5558   0.826   0.586   1.030
 1495W        W 5559   7.321   5.087   0.662
 1496W        W 5560  10.465   1.348  11.370
 1497W        W 5561   3.830   9.300  10.355
 1498W        W 5562   2.757   7.398   2.307
 1499W        W 5563   8.975   3.165   0.929
 1500W        W 5564   4.025   7.457  11.982
 1501W        W 5565   6.748   7.748  11.039
 1502W        W 5566   9.563   4.071   3.398
 1503W        W 5567   1.660   5.153   3.260
 1504W        W 5568   4.658   9.977   9.857
 1505W        W 5569   0.940   8.192   0.396
 1506W        W 5570   9.958   3.633   1.659
 1507W        W 5571   8.817   6.116  11.361
 1508W        W 5572   5.188   7.984   3.229
 1509W        W 5573   1.270   2.109  11.395
 1510W        W 5574   6.474   6.498   2.699
 1511W        W 5575   0.660   5.656   9.062
 1512W        W 5576   1.813   4.376   9.284
 1513W        W 5577   8.535   4.711   0.991
 1514W        W 5578   0.899   8.995  10.852
 1515W        W 5579   6.196   7.974   8.561
 1516W        W 5580   6.005   9.011   1.708
 1517W        W 5581   8.152   5.000   9.546
 1518W        W 5582   2.753   4.234   8.865
 1519W        W 5583   9.509   9.409  10.602
 1520W        W 5584   3.742   7.655   3.246
 1521W        W 5585   0.844   6.011  11.352
 1522W        W 5586   9.945   2.424   1.151
 1523W        W 5587   8.592   1.458   1.068
 1524W        W 5588   3.261   2.902   0.493
 1525W        W 5589   4.101   4.949   3.283
 1526W        W 5590   0.254   7.815   8.877
 1527W        W 5591   3.777   0.902   2.225
 1528W        W 5592  10.263   0.826  11.432
 1529W        W 5593  10.228   0.952   2.252
 1530W        W 5594   3.357   4.260   2.221
 1531W        W 5595   0.796   7.381   9.437
 1532W        W 5596   5.761   6.319  11.643
 1533W        W 5597   1.946   1.548   0.219
 1534W        W 5598   2.807   0.949   2.955
 1535W        W 5599   1.906   2.225   1.442
 1536W        W 5600   2.622   8.040   9.528
 1537W        W 5601   4.201   2.753   9.918
 1538W        W 5602   6.972   7.913   1.038
 1539W        W 5603   6.749  10.020   8.926
 1540W        W 5604   3.191   6.661   1.048
 1541W        W 5605   4.265   7.513   2.058
 1542W        W 5606   5.992   5.744   2.203
 1543W        W 5607   8.829   7.419  11.495
 1544W        W 5608   3.337   0.417   0.661
 1545W        W 5609  10.218   0.460  11.801
 1546W        W 5610   2.443  10.412  10.031
 1547W        W 5611   7.729   6.572   3.329
 1548W        W 5612   9.028   9.864   1.455
 1549W        W 5613   5.143   9.570  10.745
 1550W        W 5614   7.882   5.716  11.206
 1551W        W 5615  10.358   1.671   1.555
 1552W        W 5616   1.755   3.557   0.844
 1553W        W 5617   4.964   5.032   3.396
 1554W        W 5618   3.748   3.661   2.628
 1555W        W 5619   4.185   4.205   0.915
 1556W        W 5620   3.673   0.311  10.546
 1557W        W 5621   6.678   0.612   3.219
 1558W        W 5622   0.763   4.768   0.315
 1559W        W 5623   6.833   2.688   3.274
 1560W        W 5624   0.937   1.758   9.411
 1561W        W 5625   7.699   8.994   8.567
 1562W        W 5626   8.163   3.200   9.282
 1563W        W 5627   5.470   8.013  10.813
 1564W        W 5628   3.581   3.657  10.889
 1565W        W 5629   5.054   7.833   9.906
 1566W        W 5630   3.273   6.197   0.819
 1567W        W 5631   1.135   9.467   2.261
 1568W        W 5632   2.578   8.074   2.721
 1569W        W 5633   5.098  10.422   9.302
 1570W        W 5634   8.320   4.418   2.860
 1571W        W 5635   9.977   4.149   1.484
 1572W        W 5636   2.139   2.725   2.576
 1573W        W 5637   9.242   0.304  11.497
 1574W        W 5638   9.850   7.965  10.615
 1575W        W 5639   5.070   7.470   8.242
 1576W        W 5640   1.614   9.874   9.946
 1577W        W 5641   1.233   5.670   9.551
 1578W        W 5642   6.552   6.000  11.500
 1579W        W 5643   4.506   4.487   0.578
 1580W        W 5644   1.206   4.749   9.366
 1581W        W 5645   8.649   6.265   1.245
 1582W        W 5646   3.574   9.984   1.401
 1583W        W 5647  10.490   2.814  11.144
 1584W        W 5648   6.140   4.657   2.951
 1585W        W 5649  10.399   9.477   1.089
 1586W        W 5650   9.838   9.280  11.935
 1587W        W 5651   4.988   3.721   8.510
 1588W        W 5652   2.692   0.668   9.465
 1589W        W 5653   7.939   5.413  10.761
 1590W        W 5654   5.136   2.351   0.789
 1591W        W 5655   8.279   7.839   2.273
 1592W        W 5656   1.893   2.359  11.178
 1593W        W 5657   3.224   3.789   2.440
 1594W        W 5658   7.056   8.490   2.781
 1595W        W 5659   7.524   3.329   2.714
 1596W        W 5660   1.430   4.703   3.390
 1597W        W 5661   3.169   1.955   3.020
 1598W        W 5662   8.303  10.310   1.828
 1599W        W 5663   2.377   2.453   1.396
 1600W        W 5664   3.464   6.906   1.955
 1601W        W 5665   7.665   0.015   2.509
 1602W        W 5666   1.359   6.965   9.010
 1603W        W 5667   7.199  10.336   2.654
 1604W        W 5668   6.528   2.223   2.316
 1605W        W 5669   1.826   9.140   2.318
 1606W        W 5670   3.679   7.221  10.047
 1607W        W 5671   2.817   2.577   1.891
 1608W        W 5672   4.898   0.254   2.593
 1609W        W 5673   7.690   1.882   3.195
 1610W        W 5674   2.947   3.608   1.087
 1611W        W 5675   3.576   2.617   0.196
 1612W        W 5676   6.726   0.148   1.561
 1613W        W 5677   8.409   4.598   1.995
 1614W        W 5678   7.962   6.136   3.097
 1615W        W 5679   1.037   9.977   9.239
 1616W        W 5680   8.560   9.257  10.380
 1617W        W 5681   8.089   0.520   9.689
 1618W        W 5682   0.220  10.390   1.588
 1619W        W 5683   8.515   0.692   9.124
 1620W        W 5684   4.738   6.395   9.466
 1621W        W 5685   3.204   9.115  11.981
 1622W        W 5686  10.058   9.950   9.583
 1623W        W 5687  10.088   4.741  10.948
 1624W        W 5688   2.160   1.676  11.725
 1625W        W 5689   1.072   0.782  11.167
 1626W        W 5690   8.878   7.997   0.152
 1627W        W 5691   3.898   5.142   0.807
 1628W        W 5692   5.559   5.878   1.016
 1629W        W 5693  10.295   8.863   9.756
 1630W        W 5694   0.224   7.894   9.380
 1631W        W 5695   6.219   6.479   3.168
 1632W        W 5696   3.189   6.055   3.577
 1633W        W 5697   9.477   2.928   9.587
 1634W        W 5698   6.450   1.859   0.475
 1635W        W 5699   0.919   1.342   2.879
 1636W        W 5700   1.711   1.469   2.349
 1637W        W 5701   5.273   7.481   9.260
 1638W        W 5702   8.813   9.971  10.759
 1639W        W 5703   8.238   7.862   0.296
 1640W        W 5704   1.392   1.976   9.562
 1641W        W 5705   4.162   9.945  10.000
 1642W        W 5706   4.934   6.487   1.456
 1643W        W 5707   2.019   8.010   0.939
 1644W        W 5708   1.292   0.768   9.047
 1645W        W 5709   6.964   0.412  10.001
 1646W        W 5710   7.193   1.845   3.353
 1647W        W 5711   3.646   1.745   0.211
 1648W        W 5712   3.183   3.574   2.924
 1649W        W 5713   2.116   3.856   0.158
 1650W        W 5714   9.442   3.248  10.017
 1651W        W 5715   8.280   6.285  10.798
 1652W        W 5716   6.645   4.989   0.434
 1653W        W 5717   1.082   5.158  11.411
 1654W        W 5718   0.458   1.312  10.003
 1655W        W 5719   9.839   7.697   2.628
 1656W        W 5720  10.427   6.934   2.331
 1657W        W 5721   4.235   5.137  11.022
 1658W        W 5722   3.099   8.205  11.824
 1659W        W 5723   1.032  10.002   0.176
 1660W        W 5724   9.609   6.229   9.946
 1661W        W 5725   8.708   6.019   2.248
 1662W        W 5726   7.495   2.375   3.240
 1663W        W 5727   4.101   0.320   2.271
 1664W        W 5728   1.936   1.706  10.645
 1665W        W 5729   1.738   4.061  11.818
 1666W        W 5730   0.501   2.697  10.204
 1667W        W 5731   6.910   2.568   9.284
 1668W        W 5732   6.964   5.868   0.868
 1669W        W 5733   6.215   0.915  11.930
 1670W        W 5734   2.916   5.605   2.955
 1671W        W 5735  10.345   3.718   1.965
 1672W        W 5736   9.194   3.754  11.344
 1673W        W 5737   6.232   4.064   3.107
 1674W        W 5738   6.281  10.095   0.874
 1675W        W 5739   0.683   0.861   1.438
 1676W        W 5740   8.765   4.626   0.307
 1677W        W 5741   4.579   4.773  11.227
 1678W        W 5742   1.417   1.876  10.502
 1679W        W 5743   5.811   9.847   1.755
 1680W        W 5744   5.152   8.506  11.614
 1681W        W 5745   4.064   7.518   0.968
 1682W        W 5746   4.683   5.566   2.977
 1683W        W 5747   4.561   0.329   2.051
 1684W        W 5748   9.519   1.138   9.031
 1685W        W 5749  10.220   1.863  11.063
 1686W        W 5750   6.590   7.628   8.514
 1687W        W 5751   7.918   6.055   2.608
 1688W        W 5752   5.014   3.346   8.955
 1689W        W 5753   3.676   6.348  11.770
 1690W        W 5754   7.891   5.931  10.719
 1691W        W 5755   3.796   5.956   2.710
 1692W        W 5756   4.223   5.182  11.552
 1693W        W 5757   6.571   5.703   3.362
 1694W        W 5758   2.995   4.708   8.929
 1695W        W 5759   2.735   3.720   2.640
 1696W        W 5760   0.620   2.839   3.269
 1697W        W 5761   6.009   9.154   0.196
 1698W        W 5762   5.530   8.936   1.985
 1699W        W 5763   7.020   6.080  11.310
 1700W        W 5764   1.350   9.129  11.754
 1701W        W 5765   3.439   7.983   2.947
 1702W        W 5766   2.654   4.068   9.350
 1703W        W 5767   5.006   3.643   3.758
 1704W        W 5768   7.086   2.830  11.852
 1705W        W 5769   8.167   4.154   1.327
 1706W        W 5770   5.170   3.287  11.238
 1707W        W 5771   5.654   1.871   1.393
 1708W        W 5772   4.023   3.237   1.890
 1709W        W 5773   7.379   0.794   2.115
 1710W        W 5774   7.031   1.432  11.721
 1711W        W 5775   7.985   4.042   2.961
 1712W        W 5776   5.244   1.686   0.509
 1713W        W 5777   9.382   0.800   3.560
 1714W        W 5778   8.372   8.846   1.389
 1715W        W 5779  10.116   7.129  10.084
 1716W        W 5780   0.400   2.262  10.467
 1717W        W 5781   4.089   1.957   3.308
 1718W        W 5782   3.054   1.694   2.005
 1719W        W 5783   8.404   5.976  10.408
 1720W        W 5784   2.227   0.922   9.457
 1721W        W 5785   0.426   3.886  11.891
 1722W        W 5786   9.980   1.785   2.331
 1723W        W 5787   4.218   9.617  10.392
 1724W        W 5788   5.228   6.636   9.479
 1725W        W 5789   9.104   1.254   3.580
 1726W        W 5790   5.404   5.568   1.385
 1727W        W 5791   7.466   6.239   9.351
 1728W        W 5792   5.202   4.795   0.860
 1729W        W 5793   1.706   9.438  11.946
 1730W        W 5794   2.840   8.833   0.211
 1731W        W 5795   0.278   4.974   3.158
 1732W        W 5796   8.914   4.587   1.709
 1733W        W 5797   4.758  10.330   2.955
 1734W        W 5798   5.703   4.521  11.187
 1735W        W 5799   7.690  10.410  10.455
 1736W        W 5800   8.154   6.766  11.550
 1737W        W 5801   0.466   7.235   0.049
 1738W        W 5802   7.429   4.819   9.474
 1739W        W 5803   5.995   7.875  10.120
 1740W        W 5804   0.117   7.505  10.496
 1741W        W 5805   7.963   9.255   9.604
 1742W        W 5806   6.269   7.011  10.039
 1743W        W 5807   8.597   5.132   0.368
 1744W        W 5808   9.403   4.686   0.523
 1745W        W 5809   5.531   4.784   2.327
 1746W        W 5810   5.585   3.627  11.250
 1747W        W 5811   8.006   8.822   9.904
 1748W        W 5812   9.462   0.346   0.422
 1749W        W 5813   8.983   7.214   9.398
 1750W        W 5814   8.899   8.065   9.633
 1751W        W 5815   7.638   5.584  10.395
 1752W        W 5816   5.074   1.269   2.852
 1753W        W 5817   2.202   0.776   0.324
 1754W        W 5818   3.608   3.534   9.844
 1755W        W 5819  10.344   6.035   1.996
 1756W        W 5820   4.256   3.689   0.974
 1757W        W 5821   9.343   7.450   9.086
 1758W        W 5822   2.173   3.836   1.542
 1759W        W 5823   9.044   6.228  11.823
 1760W        W 5824   4.710   1.308   3.328
 1761W        W 5825  10.436   1.850   2.087
 1762W        W 5826   9.732   5.128  10.474
 1763W        W 5827   1.497   1.704  10.009
 1764W        W 5828   1.360   3.239   3.458
 1765W        W 5829   4.695   9.827   0.306
 1766W        W 5830  10.014   8.523   1.413
 1767W        W 5831   2.181   5.041  10.720
 1768W        W 5832   9.615   2.169   8.932
 1769W        W 5833   4.778   7.637  10.726
 1770W        W 5834   8.204   5.374  11.415
 1771W        W 5835   6.924   0.364   2.847
 1772W        W 5836   7.072   9.836   1.188
 1773W        W 5837   2.951   8.362  11.354
 1774W        W 5838   3.245   1.020   3.275
 1775W        W 5839   6.547   5.720   9.068
 1776W        W 5840   7.870   4.531   9.569
 1777W        W 5841   4.276   4.057   0.413
 1778W        W 5842   9.601   0.330   1.720
 1779W        W 5843   9.609   7.926   3.094
 1780W        W 5844   2.214   6.413   2.063
 1781W        W 5845   9.984   6.851  10.506
 1782W        W 5846   2.654   0.799   1.687
 1783W        W 5847   8.353   2.337   9.258
 1784W        W 5848  10.120   7.462  11.792
 1785W        W 5849   7.538   4.390   9.200
 1786W        W 5850   0.446   3.647   3.195
 1787W        W 5851   7.924   7.367   8.744
 1788W        W 5852   1.060   8.359   0.943
 1789W        W 5853   0.972   1.862   2.273
 1790W        W 5854   0.351   1.397   0.738
 1791W        W 5855   9.407   0.778   1.406
 1792W        W 5856   0.485   4.798  11.879
 1793W        W 5857   6.138   2.743   9.971
 1794W        W 5858   6.677   0.879   9.113
 1795W        W 5859   7.236   8.316   9.524
 1796W        W 5860   4.571   9.484  10.044
 1797W        W 5861   7.042   3.666   8.731
 1798W        W 5862   0.845   7.058   0.346
 1799W        W 5863   6.422   8.725   3.445
 1800W        W 5864   8.027  10.386   3.284
 1801W        W 5865   8.320   3.738  11.029
 1802W        W 5866  10.137   6.595   2.735
 1803W        W 5867   7.389   5.716  11.373
 1804W        W 5868   6.007   5.636  10.833
 1805W        W 5869   1.663   7.347   9.880
 1806W        W 5870   3.829   2.726   1.763
 1807W        W 5871   2.083   0.097   1.350
 1808W        W 5872   8.355   7.416   2.027
 1809W        W 5873   4.227   4.973   2.357
 1810W        W 5874   8.823   2.120  10.366
 1811W        W 5875   4.695   5.496   0.711
 1812W        W 5876   4.661   7.887   0.428
 1813W        W 5877   7.444   2.729  11.473
 1814W        W 5878   9.133   7.074  11.740
 1815W        W 5879   0.008   7.058   2.827
 1816W        W 5880   6.494   4.929   9.483
 1817W        W 5881   6.025   5.233  10.474
 1818W        W 5882   1.612   9.636  10.461
 1819W        W 5883   0.219   9.007  10.360
 1820W        W 5884   9.962   9.465   9.789
 1821W        W 5885   2.849   4.719  11.165
 1822W        W 5886   5.412   4.092  11.163
 1823W        W 5887  10.406   0.200   3.454
 1824W        W 5888   3.716   2.860   2.775
 1825W        W 5889   2.375   3.646  11.153
 1826W        W 5890   4.194   7.068   1.221
 1827W        W 5891   7.051   5.449   1.813
 1828W        W 5892   5.928   9.451   9.153
 1829W        W 5893   1.184   6.510   9.164
 1830W        W 5894   4.659   4.051   0.788
 1831W        W 5895  10.227   8.814  11.255
 1832W        W 5896   1.480   1.899   2.184
 1833W        W 5897  10.008   0.951   9.826
 1834W        W 5898   7.089   0.843   2.963
 1835W        W 5899   0.197   0.782   1.381
 1836W        W 5900   2.904   5.784   9.859
 1837W        W 5901   8.109   7.730   1.728
 1838W        W 5902   2.196   9.831   3.010
 1839W        W 5903   0.281   2.592  11.538
 1840W        W 5904   2.973   5.225  11.323
 1841W        W 5905   0.263   5.232  11.690
 1842W        W 5906   2.757   3.187   1.312
 1843W        W 5907   6.749   6.497   3.150
 1844W        W 5908   7.864   5.789   0.938
 1845W        W 5909   7.552   4.663  11.279
 1846W        W 5910   0.256   0.930  11.463
 1847W        W 5911   1.494   1.815   3.598
 1848W        W 5912   8.541   6.372   9.429
 1849W        W 5913   5.145   4.266   0.672
 1850W        W 5914   5.685  10.236   2.975
 1851W        W 5915   5.685   2.885   1.430
 1852W        W 5916   0.209  10.060  11.863
 1853W        W 5917   2.736   2.341   0.794
 1854W        W 5918   4.496   0.266  10.913
 1855W        W 5919   3.390   9.471   2.951
 1856W        W 5920   9.967   9.373  10.290
 1857W        W 5921   9.014   9.387   9.992
 1858W        W 5922   3.627   4.527  11.400
 1859W        W 5923   1.812   1.253   1.886
 1860W        W 5924   6.743   5.064   8.308
 1861W        W 5925   8.523   9.532   9.957
 1862W        W 5926   9.416   1.470   0.208
 1863W        W 5927   6.091   5.441   0.812
 1864W        W 5928   9.193   0.433   2.648
 1865W        W 5929   2.918   5.495  10.831
 1866W        W 5930   4.133   3.608  10.860
 1867W        W 5931   1.467  10.407   2.352
 1868W        W 5932   4.992   2.713  10.556
 1869W        W 5933   4.065   1.265   9.634
 1870W        W 5934   1.781   4.785  11.106
 1871W        W 5935   9.370  10.190   2.247
 1872W        W 5936   3.232   7.529   1.026
 1873W        W 5937   5.628   0.755  10.235
 1874W        W 5938   3.288   2.737   9.823
 1875W        W 5939   3.265   9.139   8.656
 1876W        W 5940   9.936   0.209  10.815
 1877W        W 5941   5.600   5.510   0.652
 1878W        W 5942   2.280   6.908  10.436
 1879W        W 5943   5.795   4.000  10.340
 1880W        W 5944   8.593  10.274  11.688
 1881W        W 5945   3.743   5.053  10.105
 1882W        W 5946   1.929   3.369   0.363
 1883W        W 5947   6.482   3.855   0.505
 1884W        W 5948   8.911   0.193  11.897
 1885W        W 5949   6.436   6.328   9.182
 1886W        W 5950   8.296   4.703   0.501
 1887W        W 5951   6.135   2.306   3.123
 1888W        W 5952   4.535   6.657  11.659
 1889W        W 5953   9.168   1.922  11.993
 1890W        W 5954   1.476   0.749  10.836
 1891W        W 5955   1.642   8.835   8.387
 1892W        W 5956   3.794   5.193   1.671
 1893W        W 5957   2.492   6.232   2.845
 1894W        W 5958  10.220   0.296   8.936
 1895W        W 5959  10.012   2.765  10.980
 1896W        W 5960   6.193   7.463   8.806
 1897W        W 5961   5.490   4.291   9.883
 1898W        W 5962   8.824   8.911  10.092
 1899W        W 5963   8.349   2.670  10.520
 1900W        W 5964   5.439   9.190   1.269
 1901W        W 5965   3.287   2.621  10.860
 1902W        W 5966   9.221   0.964   9.426
 1903W        W 5967   7.469   3.416   8.501
 1904W        W 5968   6.125   6.998   0.987
 1905W        W 5969   5.686   0.231  10.419
 1906W        W 5970   9.735   8.444   9.929
 1907W        W 5971   0.430   7.004   9.469
 1908W        W 5972   2.595   3.346   0.798
 1909W        W 5973   0.733   6.503   9.535
 1910W        W 5974   1.694   8.187   2.299
 1911W        W 5975   7.890   2.890  10.414
 1912W        W 5976   4.694   0.829   9.712
 1913W        W 5977   9.864   1.427   8.675
 1914W        W 5978   5.722   2.957  10.172
 1915W        W 5979   4.274   8.991   9.971
 1916W        W 5980   5.510   8.358   0.210
 1917W        W 5981   1.446   0.457   0.661
 1918W        W 5982   4.167   9.741   1.277
 1919W        W 5983   2.032   5.539  10.512
 1920W        W 5984   7.831   7.505   9.749
 1921W        W 5985   2.310   8.776  11.864
 1922W        W 5986   3.007   1.732   8.735
 1923W        W 5987   5.210   8.920   3.315
 1924W        W 5988   6.059   0.917  10.002
 1925W        W 5989   6.170   7.592   2.170
 1926W        W 5990   2.155   7.753   0.070
 1927W        W 5991   7.545   9.947   2.469
 1928W        W 5992   8.575   2.643   3.539
 1929W        W 5993  10.492   5.152   1.708
 1930W        W 5994   9.834   4.572   1.836
 1931W        W 5995   7.892   7.176  10.643
 1932W        W 5996   8.140   8.161   1.476
 1933W        W 5997   4.686   3.435  11.169
 1934W        W 5998   9.253   0.249   2.177
 1935W        W 5999   7.450   0.824  10.455
 1936W        W 6000   0.062   0.342   1.148
 1937W        W 6001   1.375   3.684  11.592
 1938W        W 6002   9.991   5.447   0.522
 1939W        W 6003  10.110   9.311   3.298
 1940W        W 6004   3.636   4.059  11.227
 1941W        W 6005   4.969   9.074   1.426
 1942W        W 6006   4.636   8.407  11.956
 1943W        W 6007   1.567   5.269  11.299
 1944W        W 6008   1.679   0.772   2.103
 1945W        W 6009   3.820   9.591   1.640
 1946W        W 6010   2.701   1.785   3.215
 1947W        W 6011   1.884   4.006   3.138
 1948W        W 6012   9.834   2.093   2.694
 1949W        W 6013   6.428   8.008   2.349
 1950W        W 6014   2.857   6.435  10.590
 1951W        W 6015   3.082   5.059   2.777
 1952W        W 6016   1.247   9.066  10.469
 1953W        W 6017   2.190   7.035   3.435
 1954W        W 6018   5.133   4.705   9.234
 1955W        W 6019   8.746   6.206   9.889
 1956W        W 6020   2.247   7.353   0.426
 1957W        W 6021   6.865   4.246   9.857
 1958W        W 6022   4.643   6.084  10.956
 1959W        W 6023   7.477   4.518   4.196
 1960W        W 6024   2.760   0.994  11.808
 1961W        W 6025   8.991   8.033  11.102
 1962W        W 6026   8.886   6.365   9.046
 1963W        W 6027   7.629   4.135  11.438
 1964W        W 6028   9.721   6.224   2.845
 1965W        W 6029   9.304   2.351  10.499
 1966W        W 6030   8.141   4.671   2.459
 1967W        W 6031   0.434   7.008   2.451
 1968W        W 6032  10.457   2.252  11.352
 1969W        W 6033   2.689   6.895   3.543
 1970W        W 6034   8.001   9.055   3.509
 1971W        W 6035   5.485   8.849   0.311
 1972W        W 6036   2.538   9.887  11.773
 1973W        W 6037   4.501   3.176   9.883
 1974W        W 6038   2.229  10.286   0.963
 1975W        W 6039   0.856   9.003  11.787
 1976W        W 6040   3.584  10.488   1.207
 1977W        W 6041   8.299   5.136   0.790
 1978W        W 6042   7.601   0.520   8.486
 1979W        W 6043   0.688   1.155   2.436
 1980W        W 6044   9.536   0.176   9.992
 1981W        W 6045   9.023   2.880   3.452
 1982W        W 6046   6.604   7.121  11.000
 1983W        W 6047   5.574   7.885   9.212
 1984W        W 6048   1.984   6.973   0.222
 1985W        W 6049   6.020   4.074   3.573
 1986W        W 6050   2.770  10.049   0.987
 1987W        W 6051   9.659   3.412   9.567
 1988W        W 6052   0.670   8.552   2.478
 1989W        W 6053   0.663   8.662   0.827
 1990W        W 6054   5.786   9.962   8.916
 1991W        W 6055   7.634   3.191  10.759
 1992W        W 6056   3.567   0.287   9.059
 1993W        W 6057   2.894   2.128  10.459
 1994W        W 6058   3.909   1.321   0.316
 1995W        W 6059   0.359   5.851  10.651
 1996W        W 6060   8.335   4.741  11.029
 1997W        W 6061   3.325   9.460  10.358
 1998W        W 6062   5.076   6.200   3.764
 1999W        W 6063   7.161   4.285  11.338
 2000W        W 6064   5.479   0.928   2.648
 2001W        W 6065   7.860   2.746   3.258
 2002W        W 6066   0.343   2.522   9.672
 2003W        W 6067  10.323   7.445   3.315
 2004W        W 6068   5.768   2.711   0.940
 2005W        W 6069   7.437   2.692  10.523
 2006W        W 6070   2.242   2.883   9.009
 2007W        W 6071   6.882   8.069   1.510
 2008W        W 6072   6.517   0.618   1.679
 2009W        W 6073  10.011   8.329   9.022
 2010W        W 6074   7.374   8.706   9.232
 2011W        W 6075   3.390   3.217   3.835
 2012W        W 6076   8.329   1.325   2.780
 2013W        W 6077   9.365   1.547   3.203
 2014W        W 6078   7.241   7.635   1.384
 2015W        W 6079   0.750   1.844   2.797
 2016W        W 6080   1.290   8.065   2.026
 2017W        W 6081   5.769   3.899   2.270
 2018W        W 6082   4.999   0.415   9.684
 2019W        W 6083  10.342   7.473   9.504
 2020W        W 6084   9.651  10.300   3.110
 2021W        W 6085   5.133   8.075   9.461
 2022W        W 6086   0.473   4.566  10.003
 2023W        W 6087   5.223   8.990  11.477
 2024W        W 6088   9.135   8.336  11.482
 2025W        W 6089   2.843   9.240   2.250
 2026W        W 6090   7.761   9.414   3.177
 2027W        W 6091  10.254   8.412   9.999
 2028W        W 6092   2.727   0.733   0.252
 2029W        W 6093   1.484   7.604   0.731
 2030W        W 6094   8.065   1.417  10.356
 2031W        W 6095   3.816   7.589  11.021
 2032W        W 6096   4.211   4.487   2.261
 2033W        W 6097   7.410   7.949   0.740
 2034W        W 6098   9.045   1.600  11.588
 2035W        W 6099   1.252   8.579   3.252
 2036W        W 6100   0.467   1.395  11.362
 2037W        W 6101   9.857   8.393  10.984
 2038W        W 6102   3.792   0.386   0.946
 2039W        W 6103   8.545   1.371   0.572
 2040W        W 6104   5.722   2.890   2.342
 2041W        W 6105   3.399   5.740   3.207
 2042W        W 6106   8.386   2.799   9.521
 2043W        W 6107   8.902   6.204   1.789
 2044W        W 6108   2.339   0.334   3.214
 2045W        W 6109   8.660   9.025   1.790
 2046W        W 6110   6.709   1.782   9.190
 2047W        W 6111   1.489   9.952   9.450
 2048W        W 6112   1.876   8.075  11.461
 2049W        W 6113   1.686   6.178   8.517
 2050W        W 6114   1.316   1.093   1.880
 2051W        W 6115  10.073   6.976  11.596
 2052W        W 6116   3.588   2.299   9.107
 2053W        W 6117   2.326   5.692   2.746
 2054W        W 6118   7.402   2.594   9.526
 2055W        W 6119   2.393   9.669  11.314
 2056W        W 6120   1.240   9.390  11.026
 2057W        W 6121  10.421   5.710  10.870
 2058W        W 6122   9.972   1.362  11.534
 2059W        W 6123   0.295   1.478   9.501
 2060W        W 6124  10.373   2.419   9.526
 2061W        W 6125   6.177   6.505   0.735
 2062W        W 6126   2.366   9.638  10.122
 2063W        W 6127   1.076   7.392  10.450
 2064W        W 6128   4.582   5.171   8.827
 2065W        W 6129   5.139   9.532   2.653
 2066W        W 6130   2.367   2.132   0.505
 2067W        W 6131   3.824   4.121   4.005
 2068W        W 6132   4.736   2.413   3.098
 2069W        W 6133   2.763   4.596   8.484
 2070W        W 6134   5.561   4.383   3.583
 2071W        W 6135   5.242   0.887  11.432
 2072W        W 6136   4.516   4.665   1.433
 2073W        W 6137   5.586   0.745   3.127
 2074W        W 6138   1.483   8.920   1.517
 2075W        W 6139   1.106   8.979  11.323
 2076W        W 6140   2.341   6.026   2.359
 2077W        W 6141   0.808   2.637   9.258
 2078W        W 6142   3.906   1.907  10.246
 2079W        W 6143   0.855   7.695   1.881
 2080W        W 6144   5.291   4.447  11.506
 2081W        W 6145   5.257  10.495  10.838
 2082W        W 6146   2.851   4.004   1.392
 2083W        W 6147   7.455   6.113  11.018
 2084W        W 6148   5.918   3.179   9.765
 2085W        W 6149   8.472   9.499   9.451
 2086W        W 6150   9.618  10.179  11.609
 2087W        W 6151   8.295   5.097  10.484
 2088W        W 6152   2.641   7.086   9.209
 2089W        W 6153   6.302   9.407   8.809
 2090W        W 6154   0.822   5.254   0.525
 2091W        W 6155  10.099   1.422   9.696
 2092W        W 6156   6.500   1.135   1.881
 2093W        W 6157   0.083   9.529   2.993
 2094W        W 6158   9.481   2.890  11.793
 2095W        W 6159   3.671   9.339  11.786
 2096W        W 6160   9.871   5.191   2.907
 2097W        W 6161   6.567   4.342   0.434
 2098W        W 6162   8.289  10.467  11.277
 2099W        W 6163   9.213   6.111   2.180
 2100W        W 6164   0.444   2.051   0.383
 2101W        W 6165   3.017   8.707  11.738
 2102W        W 6166   5.475   2.143   0.450
 2103W        W 6167   8.987   7.534  11.015
 2104W        W 6168   8.744   3.562  11.251
 2105W        W 6169   5.043   5.193   9.077
 2106W        W 6170   8.985   8.384  10.612
 2107W        W 6171   2.360   4.901   8.442
 2108W        W 6172   3.693   0.864   0.183
 2109W        W 6173   4.263   9.268   3.728
 2110W        W 6174   9.170   2.376   8.827
 2111W        W 6175   2.653   0.535   2.491
 2112W        W 6176   8.488   7.944  10.974
 2113W        W 6177   7.027   3.577   2.261
 2114W        W 6178   3.674  10.384   8.735
 2115W        W 6179   6.248   6.749  11.049
 2116W        W 6180   3.549   1.725   2.166
 2117W        W 6181   9.832   1.519  11.049
 2118W        W 6182   3.757   0.401   1.463
 2119W        W 6183  10.079  10.235   3.495
 2120W        W 6184   8.373   8.113   1.020
 2121W        W 6185   8.830   9.235  11.841
 2122W        W 6186   2.951   7.661   2.917
 2123W        W 6187   9.966   9.281  10.772
 2124W        W 6188   5.662   6.696   9.762
 2125W        W 6189   7.950   6.226  11.206
 2126W        W 6190   7.466   0.322   1.899
 2127W        W 6191   6.826   9.400  11.583
 2128W        W 6192   8.145   1.336   0.870
 2129W        W 6193   1.181   2.628  11.562
 2130W        W 6194   8.928   9.971   2.484
 2131W        W 6195   4.965   5.986  10.068
 2132W        W 6196   0.997   4.704   2.234
 2133W        W 6197   2.797   8.900  10.893
 2134W        W 6198   4.262   0.315   0.713
 2135W        W 6199  10.378   0.395  10.524
 2136W        W 6200   4.048   9.843   2.288
 2137W        W 6201   9.110   3.848  10.418
 2138W        W 6202   5.731   0.201   1.488
 2139W        W 6203   3.187   3.340   8.603
 2140W        W 6204   3.641   9.043   0.804
 2141W        W 6205   0.840   0.787   9.388
 2142W        W 6206   2.402   1.250   0.334
 2143W        W 6207   0.860   6.957   9.751
 2144W        W 6208   1.781   2.112   8.809
 2145W        W 6209   3.423   1.414  11.365
 2146W        W 6210   5.777   7.378   1.234
 2147W        W 6211   0.803   5.842   0.779
 2148W        W 6212   6.049   7.985   9.076
 2149W        W 6213   1.940  10.412  10.150
 2150W        W 6214   6.163   1.689   2.458
 2151W        W 6215   1.794   6.756   3.593
 2152W        W 6216   1.386   5.931  10.964
 2153W        W 6217   1.487   2.630   1.728
 2154W        W 6218   7.881   1.695   0.577
 2155W        W 6219   9.750   1.814   0.375
 2156W        W 6220   2.078   5.425   0.924
 2157W        W 6221   3.981   6.500   3.315
 2158W        W 6222   4.263   9.548   1.870
 2159W        W 6223   2.861   5.553  11.727
 2160W        W 6224   9.282   9.883   3.310
 2161W        W 6225   8.001   2.248   3.010
 2162W        W 6226   2.377   2.258   3.217
 2163W        W 6227   8.012  10.149   2.335
 2164W        W 6228   6.911  10.337  11.460
 2165W        W 6229   2.739   3.598   8.739
 2166W        W 6230   7.823   8.490  11.614
 2167W        W 6231   9.114  10.301  11.565
 2168W        W 6232   6.959   2.712   0.343
 2169W        W 6233   3.130   0.884   1.446
 2170W        W 6234   1.043   4.987   8.887
 2171W        W 6235   0.695  10.349   1.417
 2172W        W 6236   7.091   2.304   0.060
 2173W        W 6237   6.533   4.664   2.603
 2174W        W 6238   8.584   2.766  10.014
 2175W        W 6239   3.624   7.974  10.418
 2176W        W 6240   9.056   6.990   1.174
 2177W        W 6241   7.995   4.454   3.257
 2178W        W 6242   1.405   4.665  11.464
 2179W        W 6243   4.718   8.924  10.730
 2180W        W 6244   6.701   7.207  11.897
 2181W        W 6245   8.008   9.857   8.573
 2182W        W 6246   9.512   4.106   2.270
 2183W        W 6247   9.368   8.036  10.475
 2184W        W 6248   5.016   3.294  10.754
 2185W        W 6249   5.658   5.823  11.676
 2186W        W 6250   3.658   9.548   8.946
 2187W        W 6251   4.098  10.451   9.033
 2188W        W 6252   5.643   8.478   2.189
 2189W        W 6253   3.313   6.640  10.857
 2190W        W 6254   1.655   6.622   0.069
 2191W        W 6255   8.070   1.228  10.865
 2192W        W 6256   3.266   6.651  10.333
 2193W        W 6257   9.485   1.733   2.486
 2194W        W 6258   8.911   0.829   3.359
 2195W        W 6259   7.342   4.372  11.837
 2196W        W 6260   1.185   2.735  10.667
 2197W        W 6261   1.172   4.512   0.528
 2198W        W 6262   3.384   2.023   1.796
 2199W        W 6263   2.184   7.006  10.951
 2200W        W 6264   4.513   3.183   0.811
 2201W        W 6265   5.647   6.040   0.563
 2202W        W 6266   5.348   6.822   1.910
 2203W        W 6267   1.762   3.629   1.336
 2204W        W 6268   7.626   4.056   9.584
 2205W        W 6269   9.308   7.546   1.786
 2206W        W 6270   6.980   1.940  11.709
 2207W        W 6271   1.706   5.219  10.803
 2208W        W 6272   2.837   0.571   0.801
 2209W        W 6273   9.529   6.993   9.328
 2210W        W 6274   2.622   4.128   1.851
 2211W        W 6275   2.439   6.265  11.941
 2212W        W 6276   6.192   4.727   1.583
 2213W        W 6277   0.611   8.154   0.785
 2214W        W 6278   8.986   8.323   9.207
 2215W        W 6279   9.734   1.627   8.206
 2216W        W 6280   6.452   5.218   9.073
 2217W        W 6281   3.691   5.719  11.204
 2218W        W 6282   2.553   5.580  10.446
 2219W        W 6283   5.354   1.742  10.388
 2220W        W 6284   5.276   1.285   0.158
 2221W        W 6285   8.833   7.844   1.004
 2222W        W 6286   8.780   5.082  10.340
 2223W        W 6287   6.708   5.657   2.859
 2224W        W 6288   3.180   5.303   0.423
 2225W        W 6289   8.661   2.251   0.809
 2226W        W 6290   0.657   7.915  10.990
 2227W        W 6291   8.538   8.935   8.597
 2228W        W 6292   3.314   3.025   3.154
 2229W        W 6293   2.283   0.248   2.709
 2230W        W 6294   5.229   2.126   2.636
 2231W        W 6295   6.952   8.031   9.873
 2232W        W 6296   1.901   0.136   2.203
 2233W        W 6297   2.884   9.890  10.870
 2234W        W 6298   4.031   9.114  11.483
 2235W        W 6299   1.744   2.268   3.834
 2236W        W 6300   7.045   4.025   3.554
 2237W        W 6301   0.318   0.507   9.773
 2238W        W 6302   8.974   2.259   2.818
 2239W        W 6303   2.866   2.676   1.383
 2240W        W 6304   7.106   7.976   3.017
 2241W        W 6305   3.251   1.810   9.199
 2242W        W 6306   4.631   1.286   1.999
 2243W        W 6307   9.417   9.263   9.546
 2244W        W 6308   0.406   0.735   8.766
 2245W        W 6309  10.293   8.314  11.242
 2246W        W 6310   5.414   0.433   8.840
 2247W        W 6311   0.821  10.323  11.485
 2248W        W 6312   8.451   9.498   0.706
 2249W        W 6313   7.975   2.310   3.517
 2250W        W 6314   3.489   8.930  10.344
 2251W        W 6315   4.218   6.052   0.952
 2252W        W 6316   5.264  10.494   9.784
 2253W        W 6317   7.372   8.416   3.225
 2254W        W 6318   6.662   0.216   2.451
 2255W        W 6319   1.612   9.580   2.087
 2256W        W 6320   4.367   1.961  10.469
 2257W        W 6321   1.510   4.699   2.265
 2258W        W 6322   3.151   9.495   9.017
 2259W        W 6323   8.956   1.119  11.360
 2260W        W 6324   3.078   2.203  11.738
 2261W        W 6325   3.371   8.325   9.367
 2262W        W 6326   1.400   7.559   9.494
 2263W        W 6327   0.928   7.392  11.916
 2264W        W 6328   5.150   9.047   2.822
 2265W        W 6329   6.935   6.979   1.831
 2266W        W 6330   1.868   2.133  10.361
 2267W        W 6331   8.998   0.533   0.298
 2268W        W 6332   7.602   6.850   9.774
 2269W        W 6333   6.663   1.167   0.008
 2270W        W 6334   1.414   5.140  11.791
 2271W        W 6335   4.568   9.295  11.055
 2272W        W 6336   4.667   9.361   3.425
 2273W        W 6337   3.369   7.876  11.544
 2274W        W 6338   1.052  10.479  11.931
 2275W        W 6339   8.913   1.533   0.270
 2276W        W 6340   3.647   5.563   1.974
 2277W        W 6341   6.199   1.862  10.455
 2278W        W 6342   3.030   6.932   3.146
 2279W        W 6343   1.119   1.790   1.430
 2280W        W 6344   7.338   9.667  11.059
 2281W        W 6345   8.182   9.425   2.885
 2282W        W 6346   3.291   4.279   8.784
 2283W        W 6347   2.274   9.079  11.444
 2284W        W 6348   1.517   6.158   2.928
 2285W        W 6349   8.185   2.563  11.000
 2286W        W 6350   5.664   2.047  11.990
 2287W        W 6351   1.552   1.782   1.159
 2288W        W 6352   0.412   7.122  10.645
 2289W        W 6353   0.450   2.116  11.449
 2290W        W 6354   1.301   4.096   8.758
 2291W        W 6355   1.953   7.011   0.962
 2292W        W 6356   0.962   0.278   0.636
 2293W        W 6357   3.720   2.216   3.044
 2294W        W 6358   8.982   4.163   0.435
 2295W        W 6359   2.389   8.611   0.347
 2296W        W 6360   1.767   4.247  10.975
 2297W        W 6361   1.883   8.408   8.572
 2298W        W 6362   4.258   7.052   0.183
 2299W        W 6363   9.189   7.464   2.309
 2300W        W 6364   0.691   3.947   2.846
 2301W        W 6365   2.150   7.968   9.695
 2302W        W 6366   7.112   6.637   4.103
 2303W        W 6367   9.437   6.167   0.705
 2304W        W 6368   7.681   9.713   0.843
 2305W        W 6369   1.058   9.429   2.782
 2306W        W 6370   6.896   1.295   2.190
 2307W        W 6371   2.295   4.826   3.317
 2308W        W 6372   3.835   8.467   1.409
 2309W        W 6373   8.908   8.388   0.956
 2310W        W 6374   3.961   6.725   1.977
 2311W        W 6375   9.195   3.590   8.889
 2312W        W 6376   5.538   9.883   2.175
 2313W        W 6377   0.456   6.163  11.661
 2314W        W 6378   8.808   6.671   0.561
 2315W        W 6379   6.130   1.851  11.547
 2316W        W 6380  10.381   1.332   1.916
 2317W        W 6381   9.842   1.733  10.004
 2318W        W 6382   9.991   1.170   0.015
 2319W        W 6383   8.994   1.983   1.600
 2320W        W 6384   7.982   2.724   1.720
 2321W        W 6385   1.560   5.377   0.218
 2322W        W 6386   0.861   8.073  10.568
 2323W        W 6387   6.681   7.997   0.257
 2324W        W 6388   5.474   5.202   2.652
 2325W        W 6389   0.013   8.494   2.628
 2326W        W 6390   9.999   2.578   3.376
 2327W        W 6391   3.175   3.537   1.750
 2328W        W 6392   9.852   3.239  11.833
 2329W        W 6393   7.188   3.020   9.331
 2330W        W 6394   1.348   0.504   8.589
 2331W        W 6395   3.460   4.167  10.758
 2332W        W 6396   7.644   6.012   8.349
 2333W        W 6397   4.835   2.788   0.921
 2334W        W 6398   1.724   5.849   9.721
 2335W        W 6399   7.367   6.049   1.781
 2336W        W 6400   4.147   8.835   2.382
 2337W        W 6401   4.537   3.634  10.126
 2338W        W 6402   0.748   1.667   0.493
 2339W        W 6403   1.578   6.454   1.861
 2340W        W 6404   4.335   0.997  11.402
 2341W        W 6405   7.013   7.608  10.162
 2342W        W 6406   1.692   0.070   0.376
 2343W        W 6407   4.396   2.640  11.063
 2344W        W 6408   4.235   3.399  11.421
 2345W        W 6409   3.546   1.724   0.862
 2346W        W 6410   6.450   0.204   1.989
 2347W        W 6411   5.084   4.068   8.125
 2348W        W 6412   3.195   4.650  10.045
 2349W        W 6413   1.455   0.764  11.887
 2350W        W 6414   8.960   8.413  10.086
 2351W        W 6415   8.969   7.930   1.538
 2352W        W 6416   2.919   0.276   0.398
 2353W        W 6417   9.972   8.776  11.945
 2354W        W 6418   2.216   6.045  10.997
 2355W        W 6419   3.643   2.598   0.734
 2356W        W 6420  10.156   8.719  10.741
 2357W        W 6421   1.865   7.420  11.135
 2358W        W 6422   0.228   0.255   8.872
 2359W        W 6423   7.456   7.546  11.436
 2360W        W 6424   8.538   6.551  11.785
 2361W        W 6425   9.642   6.614   0.896
 2362W        W 6426   7.246   3.199   1.018
 2363W        W 6427   7.678   9.094   9.065
 2364W        W 6428   8.895   7.872  10.619
 2365W        W 6429   3.377   6.991   8.572
 2366W        W 6430   6.687   1.682  10.261
 2367W        W 6431   3.285   7.887   0.674
 2368W        W 6432   4.575   9.838   3.171
 2369W        W 6433   9.709  10.227   9.811
 2370W        W 6434   9.869   5.441  11.523
 2371W        W 6435   7.931  10.177   0.851
 2372W        W 6436   6.614   8.731   2.992
 2373W        W 6437   0.261   1.377   2.709
 2374W        W 6438   0.145   6.735  10.880
 2375W        W 6439   7.531   5.549   1.693
 2376W        W 6440   6.692   1.674   9.735
 2377W        W 6441   6.393   5.733   1.609
 2378W        W 6442   3.388   9.765  11.626
 2379W        W 6443   4.766   1.242  11.873
 2380W        W 6444   1.137   6.074   3.283
 2381W        W 6445   6.283   3.657   0.938
 2382W        W 6446   8.140   3.071  10.823
 2383W        W 6447   7.164   5.472   2.781
 2384W        W 6448   5.663  10.276   2.467
 2385W        W 6449   1.382   6.565  10.194
 2386W        W 6450   8.099   7.544  10.330
 2387W        W 6451   8.016   2.233   2.487
 2388W        W 6452   7.058   3.360  11.589
 2389W        W 6453   2.733   8.840  10.062
 2390W        W 6454  10.072   0.158   1.614
 2391W        W 6455   1.825   6.464   3.190
 2392W        W 6456   1.666   9.224  10.766
 2393W        W 6457   2.705   4.459   0.037
 2394W        W 6458   4.490   6.604   2.711
 2395W        W 6459   1.407   7.223   1.515
 2396W        W 6460   2.238   6.014  10.460
 2397W        W 6461   7.429   4.550   1.321
 2398W        W 6462   4.699   9.356   0.067
 2399W        W 6463   8.817   5.196   3.238
 2400W        W 6464   9.792   6.951   0.543
 2401W        W 6465   4.842   5.037   1.210
 2402W        W 6466   3.095   6.409   8.301
 2403W        W 6467   2.583   3.874  11.924
 2404W        W 6468   7.477   7.482   1.835
 2405W        W 6469   6.933   0.866   1.898
 2406W        W 6470   9.480   1.509   0.732
 2407W        W 6471   7.532   5.476   1.183
 2408W        W 6472   5.037   9.658   2.167
 2409W        W 6473   2.003   2.844   9.455
 2410W        W 6474   6.909   5.598  11.516
 2411W        W 6475   9.816   5.609   0.041
 2412W        W 6476   4.248   8.392   9.159
 2413W        W 6477   2.365   2.280   2.712
 2414W        W 6478   6.994   4.194   0.189
 2415W        W 6479   0.365   7.462   3.411
 2416W        W 6480   7.014   9.856  11.773
 2417W        W 6481   5.106   5.390  11.512
 2418W        W 6482   3.803   6.473   9.629
 2419W        W 6483   2.943   9.864   9.471
 2420W        W 6484   7.936   3.332  11.623
 2421W        W 6485   3.545   4.317   9.503
 2422W        W 6486   0.801   1.185   0.998
 2423W        W 6487   7.133   5.786   4.051
 2424W        W 6488   3.802   9.884   8.579
 2425W        W 6489   4.204   7.946   0.674
 2426W        W 6490   9.081   2.372   0.559
 2427W        W 6491   8.458   2.836   1.551
 2428W        W 6492   9.387   4.586   2.092
 2429W        W 6493   8.224   1.037   1.847
 2430W        W 6494   2.958   9.234   3.134
 2431W        W 6495   5.013   0.359   3.077
 2432W        W 6496   8.527   8.009   1.842
 2433W        W 6497   8.113   6.626   9.517
 2434W        W 6498   5.202   4.637  10.518
 2435W        W 6499   6.044  10.139   9.373
 2436W        W 6500   8.331   1.711   0.268
 2437W        W 6501   1.924   7.370   1.800
 2438W        W 6502   3.251   9.403   0.568
 2439W        W 6503   3.975   1.061   3.502
 2440W        W 6504   9.952   1.344   9.196
 2441W        W 6505   5.905   4.099  11.418
 2442W        W 6506   8.017   5.640   1.851
 2443W        W 6507   7.492   8.209   2.747
 2444W        W 6508  10.347   8.005   2.658
 2445W        W 6509  10.149   6.745   0.880
 2446W        W 6510   5.726  10.287  10.674
 2447W        W 6511   5.661   0.729  11.698
 2448W        W 6512   4.221  10.320  10.844
 2449W        W 6513   3.710   6.946   2.407
 2450W        W 6514   7.031   9.925   3.637
 2451W        W 6515   3.275   3.813  11.497
 2452W        W 6516   1.198   5.656  11.362
 2453W        W 6517   2.112   3.173   0.781
 2454W        W 6518  10.478   7.005  10.411
 2455W        W 6519   4.008   2.259   9.866
 2456W        W 6520   5.913   2.661   9.524
 2457W        W 6521   3.577   6.568  11.323
 2458W        W 6522   4.734   3.200   9.389
 2459W        W 6523   3.846   2.395   2.578
 2460W        W 6524   6.347   6.650   3.673
 2461W        W 6525   0.160   6.600   2.644
 2462W        W 6526   8.615   6.525   3.437
 2463W        W 6527   4.574   8.046   9.458
 2464W        W 6528   3.664   1.363  11.835
 2465W        W 6529   5.685   7.916   8.703
 2466W        W 6530   0.859   5.034   1.267
 2467W        W 6531   0.973   3.296  10.921
 2468W        W 6532   6.554   4.372   1.401
 2469W        W 6533   6.993   2.021  10.962
 2470W        W 6534   7.615   6.694  10.346
 2471W        W 6535   4.102   9.607   9.232
 2472W        W 6536   5.013   7.750   1.603
 2473W        W 6537   1.107   8.965   3.563
 2474W        W 6538   4.085   3.116   1.053
 2475W        W 6539   1.270   1.479   3.280
 2476W        W 6540   3.847   9.841   9.614
 2477W        W 6541   3.284   1.361   1.692
 2478W        W 6542   8.465  10.255   0.247
 2479W        W 6543   3.276   8.940   2.870
 2480W        W 6544   8.007   8.196   1.991
 2481W        W 6545   0.741   9.027  10.357
 2482W        W 6546   7.310   2.840   3.430
 2483W        W 6547   9.237  10.327   0.549
 2484W        W 6548   5.961   0.335   1.921
 2485W        W 6549   7.159   4.192   1.583
 2486W        W 6550   6.143   9.083   3.217
 2487W        W 6551   8.662   3.577   8.997
 2488W        W 6552  10.477   5.307   0.382
 2489W        W 6553   8.964   2.502   1.488
 2490W        W 6554   6.490   1.940   8.695
 2491W        W 6555   6.180   7.802   3.166
 2492W        W 6556  10.013   9.226   0.852
 2493W        W 6557  10.459   8.001  10.247
 2494W        W 6558   7.976   7.307   0.800
 2495W        W 6559   3.340   9.988   8.893
 2496W        W 6560   5.962   9.109   9.543
 2497W        W 6561   8.837   0.394   3.068
 2498W        W 6562   4.413   7.052   8.454
 2499W        W 6563   1.149   8.533   2.300
 2500W        W 6564   8.632   7.048  11.784
 2501W        W 6565   5.238   8.692   1.156
 2502W        W 6566   3.585   3.832   3.098
 2503W        W 6567   6.040   1.224   1.698
 2504W        W 6568  10.320   5.669   3.104
 2505W        W 6569   3.282   0.246   2.123
 2506W        W 6570  10.408   5.749   0.689
 2507W        W 6571   9.496   2.620   3.448
 2508W        W 6572  10.077   3.035   0.367
 2509W        W 6573   1.688   7.063   3.217
 2510W        W 6574   3.623   6.736   0.690
 2511W        W 6575   8.146   7.099   9.698
 2512W        W 6576   4.208   7.035   2.336
 2513W        W 6577   5.616   8.920   9.183
 2514W        W 6578   9.301   3.314   1.402
 2515W        W 6579   8.802   7.155   2.188
 2516W        W 6580   3.527   7.513   0.022
 2517W        W 6581   2.785   6.449   1.361
 2518W        W 6582   3.078   3.156   0.889
 2519W        W 6583   8.592   3.308   0.626
 2520W        W 6584   7.474   1.366   9.163
 2521W        W 6585   0.486   9.424  10.575
 2522W        W 6586   7.357   6.749   1.537
 2523W        W 6587   5.324   3.898   4.319
 2524W        W 6588   1.261   9.448   1.750
 2525W        W 6589   8.027   3.804   9.811
 2526W        W 6590   8.177   7.065   9.139
 2527W        W 6591   1.260   0.483   9.476
 2528W        W 6592   5.588   3.179   1.010
 2529W        W 6593   1.684   2.232   0.938
 2530W        W 6594   8.444   0.190   3.480
 2531W        W 6595   2.853   8.353   1.218
 2532W        W 6596   5.314   9.884   8.583
 2533W        W 6597   0.766   6.116  10.376
 2534W        W 6598   6.705   0.123   3.386
 2535W        W 6599   2.305   6.257   1.260
 2536W        W 6600   8.551   2.210   3.249
 2537W        W 6601   2.251   0.440  10.731
 2538W        W 6602   3.109   2.757   2.740
 2539W        W 6603   0.354   0.186   2.019
 2540W        W 6604   7.504   7.693  10.078
 2541W        W 6605   6.980   8.416   9.078
 2542W        W 6606   7.294   9.544   3.383
 2543W        W 6607   2.380   0.799  10.397
 2544W        W 6608   4.697   8.369   1.920
 2545W        W 6609   5.547   8.128  11.754
 2546W        W 6610   0.190   3.613  11.511
 2547W        W 6611   8.877   9.118  11.099
 2548W        W 6612  10.375   6.506  10.520
 2549W        W 6613   0.327   2.821   8.823
 2550W        W 6614   0.033   1.658   9.896
 2551W        W 6615   1.419  10.048  11.226
 2552W        W 6616   4.476   5.175   1.542
 2553W        W 6617   6.122   2.554   2.161
 2554W        W 6618   3.252   0.902  11.927
 2555W        W 6619   2.146   6.614   9.858
 2556W        W 6620   8.074   4.106   1.821
 2557W        W 6621   7.980   8.152   2.531
 2558W        W 6622   7.055   8.572  10.505
 2559W        W 6623   7.603   2.302   1.699
 2560W        W 6624   9.277   4.084   2.736
 2561W        W 6625   9.977   4.227   0.957
 2562W        W 6626   7.461   9.448   0.433
 2563W        W 6627   9.054   0.772   0.779
 2564W        W 6628   3.078   5.624  10.348
 2565W        W 6629   6.475   5.418   8.609
 2566W        W 6630   5.678   3.025  11.948
 2567W        W 6631   4.269   0.789   1.395
 2568W        W 6632   2.763   9.274  11.276
 2569W        W 6633   3.611   2.739  11.245
 2570W        W 6634   7.186   9.362   0.929
 2571W        W 6635   5.696   1.873   9.973
 2572W        W 6636   3.681   2.129   0.543
 2573W        W 6637   0.006   5.189   9.058
 2574W        W 6638   4.666   9.817  11.267
 2575W        W 6639  10.118   4.994   1.984
 2576W        W 6640   7.468   9.308   1.768
 2577W        W 6641   4.281   7.598  10.786
 2578W        W 6642   3.180   4.583  11.912
 2579W        W 6643  10.215   4.971  10.503
 2580W        W 6644   5.597   5.528  11.231
 2581W        W 6645   0.477   4.597   2.890
 2582W        W 6646   8.122   3.887   0.318
 2583W        W 6647   2.413   8.523   2.496
 2584W        W 6648   1.301   4.196   9.285
 2585W        W 6649   7.967   0.792  11.367
 2586W        W 6650   3.367   0.882   1.905
 2587W        W 6651   5.654   5.004   0.706
 2588W        W 6652   1.948   1.562   1.494
 2589W        W 6653   4.072   5.760   9.180
 2590W        W 6654   6.551   8.449   1.257
 2591W        W 6655   3.672   6.687   8.864
 2592W        W 6656   1.806   1.057   0.175
 2593W        W 6657   5.121   7.372   3.025
 2594W        W 6658   6.125   8.638   2.919
 2595W        W 6659   1.384   5.882   0.253
 2596W        W 6660   3.059   6.523  11.357
 2597W        W 6661   0.869   9.302   8.983
 2598W        W 6662   3.110   9.956  10.267
 2599W        W 6663   2.513   7.199   1.906
 2600W        W 6664   0.398   7.743  10.136
 2601W        W 6665   7.268   3.655   0.767
 2602W        W 6666   2.951   1.721   1.451
 2603W        W 6667   1.900   3.105   3.288
 2604W        W 6668   3.731   1.877  10.752
 2605W        W 6669   9.359   2.857  10.403
 2606W        W 6670   0.838   1.357   1.528
 2607W        W 6671   1.301   3.482   2.026
 2608W        W 6672   3.071   8.810   2.425
 2609W        W 6673  10.285   9.856  10.303
 2610W        W 6674   3.779  10.439  11.707
 2611W        W 6675   1.409   5.196   9.186
 2612W        W 6676   1.322   8.298   0.062
 2613W        W 6677   6.082   4.792  10.176
 2614W        W 6678   1.442   2.303   3.400
 2615W        W 6679   3.435   5.022   3.629
 2616W        W 6680   3.979   5.724   0.170
 2617W        W 6681   6.694   3.666  10.515
 2618W        W 6682   8.465   1.875   9.892
 2619W        W 6683   2.718   6.711   2.742
 2620W        W 6684   4.242   9.868   0.719
 2621W        W 6685   8.196   6.484   1.286
 2622W        W 6686   8.967   0.081   9.526
 2623W        W 6687   5.067   9.402  10.237
 2624W        W 6688   6.513  10.305  11.104
 2625W        W 6689   7.219   7.272  11.798
 2626W        W 6690   6.598   1.245  11.016
 2627W        W 6691   2.019   1.842  11.226
 2628W        W 6692   9.569   5.514  10.776
 2629W        W 6693   0.495   4.659   2.360
 2630W        W 6694   9.425   4.719   1.559
 2631W        W 6695   8.486   4.280   8.997
 2632W        W 6696   8.326   8.808  10.415
 2633W        W 6697   6.743   8.422   9.619
 2634W        W 6698   6.442   8.061   9.416
 2635W        W 6699   2.250   3.406  11.970
 2636W        W 6700   6.456   7.914   9.912
 2637W        W 6701   0.743   5.413   2.764
 2638W        W 6702   2.787   0.733   8.562
 2639W        W 6703   8.610   0.486  10.803
 2640W        W 6704   7.499   6.222  11.508
 2641W        W 6705   1.971   0.829  10.926
 2642W        W 6706   6.068   9.959   3.267
 2643W        W 6707   8.892  10.396   2.175
 2644W        W 6708   6.421   5.516  11.656
 2645W        W 6709   7.057   4.427   9.403
 2646W        W 6710   8.612   5.910   0.460
 2647W        W 6711   5.807   9.920   0.890
 2648W        W 6712   1.902   3.865   2.648
 2649W        W 6713   7.388   2.256  11.230
 2650W        W 6714   5.661   7.827   1.888
 2651W        W 6715  10.305   0.678   8.607
 2652W        W 6716   1.394   8.473   8.664
 2653W        W 6717   9.830   3.850   0.654
 2654W        W 6718   0.868   2.216  11.736
 2655W        W 6719   9.721   0.267  11.732
 2656W        W 6720   2.143   0.954   3.340
 2657W        W 6721   4.834   6.886   1.900
 2658W        W 6722   0.265  10.378   0.312
 2659W        W 6723   1.627   0.741   9.976
 2660W        W 6724   9.240   2.721   0.204
 2661W        W 6725   8.860   0.645   2.105
 2662W        W 6726   4.419   6.595   8.188
 2663W        W 6727   4.035   2.888   9.022
 2664W        W 6728   8.565   3.360  10.773
 2665W        W 6729   9.968   3.524  10.533
 2666W        W 6730   8.917   4.542   9.164
 2667W        W 6731   0.501   9.041   1.668
 2668W        W 6732   5.148   0.409   0.202
 2669W        W 6733   8.255   8.033   8.659
 2670W        W 6734   4.416   1.670   3.594
 2671W        W 6735   7.709   0.328   9.411
 2672W        W 6736   8.915   4.714   3.106
 2673W        W 6737   3.816   5.367  11.864
 2674W        W 6738   2.814   2.095   1.753
 2675W        W 6739   7.534  10.474   9.014
 2676W        W 6740   2.531  10.167   9.353
 2677W        W 6741   7.814   5.308   0.769
 2678W        W 6742   6.547   7.722  11.829
 2679W        W 6743   3.101   4.296   9.261
 2680W        W 6744   4.784   7.344   0.373
 2681W        W 6745   7.915   8.034  11.803
 2682W        W 6746   3.798   3.317  10.544
 2683W        W 6747   2.190   5.714   9.056
 2684W        W 6748   0.009   6.103  11.898
 2685W        W 6749  10.178   0.323   2.553
 2686W        W 6750   3.213   9.096   9.953
 2687W        W 6751   9.444   4.728   1.033
 2688W        W 6752   6.006   1.257   2.224
 2689W        W 6753   8.743   6.708   8.694
 2690W        W 6754   2.843   2.873  10.809
 2691W        W 6755   5.085   8.118  11.939
 2692W        W 6756   9.307   2.867   0.673
 2693W        W 6757   1.377   4.173   1.457
 2694W        W 6758   7.407   9.504  10.251
 2695W        W 6759   4.084   0.588  10.361
 2696W        W 6760   4.247   1.894   8.874
 2697W        W 6761   8.953   5.608   2.963
 2698W        W 6762   4.502   2.837  10.583
 2699W        W 6763   2.823   4.582   2.030
 2700W        W 6764   7.655   8.494  11.142
 2701W        W 6765  10.285   2.378   1.968
 2702W        W 6766  10.258  10.412   0.344
 2703W        W 6767  10.163   2.673  11.504
 2704W        W 6768   7.873   2.224   9.040
 2705W        W 6769   8.097   0.910  11.893
 2706W        W 6770   4.102   5.156   2.811
 2707W        W 6771   3.273   4.681   8.458
 2708W        W 6772   8.498  10.224  10.432
 2709W        W 6773   8.137   5.692   9.789
 2710W        W 6774   3.194   3.950   3.436
 2711W        W 6775   9.514   6.218   1.228
 2712W        W 6776   5.005   1.255   9.713
 2713W        W 6777   3.067   8.285   3.119
 2714W        W 6778   0.420  10.003  11.379
 2715W        W 6779   0.700   4.799   9.242
 2716W        W 6780   1.851   4.731   3.031
 2717W        W 6781   8.357  10.102   3.568
 2718W        W 6782   2.447   8.224  11.274
 2719W        W 6783   7.141  10.463   1.747
 2720W        W 6784   2.870   1.853  10.998
 2721W        W 6785   1.174   5.104   0.882
 2722W        W 6786   6.390   5.280  10.823
 2723W        W 6787   5.663   6.507   2.200
 2724W        W 6788   4.541   1.473  10.432
 2725W        W 6789   2.428   1.200   2.607
 2726W        W 6790   4.149   7.407   9.913
 2727W        W 6791   5.447   1.323   8.930
 2728W        W 6792   3.712   6.002   2.220
 2729W        W 6793   6.119   0.805   1.979
 2730W        W 6794   0.280   6.341   9.752
 2731W        W 6795   6.241   8.505  11.436
 2732W        W 6796  10.325   8.968   1.172
 2733W        W 6797   4.363   2.398   3.445
 2734W        W 6798   7.658   1.175  10.087
 2735W        W 6799  10.187   2.627   0.688
 2736W        W 6800   3.660   6.518   1.177
 2737W        W 6801   6.259   6.931   2.833
 2738W        W 6802   9.021   1.297   0.753
 2739W        W 6803   9.095   7.926   2.043
 2740W        W 6804   2.783   9.003   1.659
 2741W        W 6805   2.640   1.481  11.817
 2742W        W 6806   0.311   9.455   1.994
 2743W        W 6807   1.307   6.844   0.435
 2744W        W 6808   4.813   2.163   3.591
 2745W        W 6809  10.221   3.074   1.203
 2746W        W 6810   5.507   3.792   9.970
 2747W        W 6811   7.814   4.228  10.038
 2748W        W 6812   4.875   1.679  11.469
 2749W        W 6813   6.469  10.335   0.408
 2750W        W 6814   2.534   1.883   0.950
 2751W        W 6815   6.992   7.911   8.863
 2752W        W 6816   0.302  10.210  10.941
 2753W        W 6817  10.451   6.109   9.387
 2754W        W 6818   3.792   7.933  11.867
 2755W        W 6819   1.192   0.893   0.831
 2756W        W 6820   5.216   1.371   3.380
 2757W        W 6821   2.287   5.244   1.403
 2758W        W 6822   2.735   4.999   1.358
 2759W        W 6823   0.786   9.576   9.403
 2760W        W 6824   3.400   4.406   4.288
 2761W        W 6825   4.054   9.306  10.962
 2762W        W 6826   3.039   7.133  10.869
 2763W        W 6827   0.981   2.098   3.597
 2764W        W 6828   9.623   5.123   9.581
 2765W        W 6829   8.609   3.792   0.396
 2766W        W 6830   0.411  10.481   9.271
 2767W        W 6831   4.541   5.684  10.053
 2768W        W 6832   3.162  10.479   8.729
 2769W        W 6833   7.084   8.828   3.179
 2770W        W 6834   7.873   2.798   9.525
 2771W        W 6835   9.315   9.064  11.694
 2772W        W 6836   5.605   0.912   9.726
 2773W        W 6837   8.267   4.191  11.773
 2774W        W 6838   8.817   5.523   9.150
 2775W        W 6839   5.056   3.422   4.229
 2776W        W 6840   4.389   4.302  11.332
 2777W        W 6841   9.501   5.938  11.797
 2778W        W 6842   2.743   4.381   9.774
 2779W        W 6843   2.154   6.061   3.211
 2780W        W 6844   5.147   1.077   1.408
 2781W        W 6845   7.764  10.414   9.860
 2782W        W 6846   4.680   2.196   8.848
 2783W        W 6847   0.411   0.008   9.794
 2784W        W 6848   8.472   0.818   2.819
 2785W        W 6849   6.540   7.408  11.422
 2786W        W 6850   4.380   8.774  11.645
 2787W        W 6851   3.781   9.953   0.945
 2788W        W 6852   8.406   2.655   2.026
 2789W        W 6853   9.565   8.664   1.595
 2790W        W 6854   2.084   9.404  10.509
 2791W        W 6855   0.010   4.532   2.600
 2792W        W 6856   8.430   4.722   3.279
 2793W        W 6857   8.483   9.660   8.507
 2794W        W 6858   2.657   7.847  10.850
 2795W        W 6859   4.426   1.991   1.000
 2796W        W 6860   6.067   7.666   2.686
 2797W        W 6861   1.699   6.345   9.863
 2798W        W 6862   7.972   0.338   1.102
 2799W        W 6863   1.838   0.529   1.218
 2800W        W 6864   8.074   1.476   9.846
 2801W        W 6865   7.427   2.654  10.023
 2802W        W 6866   8.870   3.979   2.448
 2803W        W 6867   3.170   0.240   3.218
 2804W        W 6868   9.966   5.657  11.061
 2805W        W 6869   2.877   5.664   3.453
 2806W        W 6870   8.793   4.217   9.992
 2807W        W 6871   9.905   7.075  11.121
 2808W        W 6872   8.386   5.843   2.649
 2809W        W 6873   8.363   3.528   2.343
 2810W        W 6874   4.591   2.753   9.588
 2811W        W 6875   4.481   6.141   9.854
 2812W        W 6876   0.413   9.787   0.760
 2813W        W 6877   0.503   4.635  11.046
 2814W        W 6878   1.762   4.606   1.480
 2815W        W 6879   5.264   8.392   9.880
 2816W        W 6880   5.496   4.635   1.737
 2817W        W 6881   0.985   4.471   8.976
 2818W        W 6882   2.743   8.551   8.844
 2819W        W 6883   0.981   0.987  10.716
 2820W        W 6884   0.341   7.481   9.688
 2821W        W 6885   4.785   4.593   3.001
 2822W        W 6886   5.094   5.917   1.835
 2823W        W 6887   8.424   4.246  10.334
 2824W        W 6888   6.987   9.403   1.961
 2825W        W 6889   2.245   6.481   3.510
 2826W        W 6890   5.253   1.396  11.177
 2827W        W 6891   7.410   4.195   0.498
 2828W        W 6892   0.326   8.900   2.681
 2829W        W 6893   2.459   0.254   1.018
 2830W        W 6894   7.857   1.377   2.572
 2831W        W 6895   8.209   6.013   2.193
 2832W        W 6896  10.217   8.879  10.271
 2833W        W 6897   1.382   8.823  10.906
 2834W        W 6898   4.258   1.250  10.966
 2835W        W 6899   1.876   8.450   1.195
 2836W        W 6900   3.912   8.806   9.486
 2837W        W 6901   5.261   2.380   3.690
 2838W        W 6902   0.829   9.028   1.144
 2839W        W 6903   7.408   1.816   1.857
 2840W        W 6904   7.646   9.519   8.747
 2841W        W 6905   5.953   0.474   8.634
 2842W        W 6906   8.032   3.828  11.469
 2843W        W 6907   1.315   4.464  10.950
 2844W        W 6908   0.416   4.975   0.678
 2845W        W 6909   8.906   5.799   0.063
 2846W        W 6910   6.983   1.318   8.973
 2847W        W 6911   7.801   9.862  11.157
 2848W        W 6912   6.857   8.515   0.406
 2849W        W 6913   5.158   0.836   9.967
 2850W        W 6914   5.589   5.013  10.339
 2851W        W 6915   3.579   8.578   9.988
 2852W        W 6916   8.784  10.362   1.668
 2853W        W 6917   2.576   3.573   0.321
 2854W        W 6918   8.487   1.485   9.537
 2855W        W 6919   5.029   5.692  10.909
 2856W        W 6920   8.592   9.115   1.019
 2857W        W 6921   3.363   2.653  11.683
 2858W        W 6922   0.111   7.412   2.385
 2859W        W 6923   5.690   2.155  10.417
 2860W        W 6924   5.944   6.059   9.052
 2861W        W 6925   9.474   6.652   9.712
 2862W        W 6926   1.159   4.707   9.943
 2863W        W 6927   9.393   2.266   2.502
 2864W        W 6928   4.694   4.653   8.905
 2865W        W 6929   4.216   2.750   2.670
 2866W        W 6930   3.121   5.322   1.392
 2867W        W 6931   0.903   7.008   2.248
 2868W        W 6932   8.413   0.267   0.249
 2869W        W 6933   1.744   1.235  10.737
 2870W        W 6934  10.416   8.104   0.528
 2871W        W 6935   7.201  10.011   9.724
 2872W        W 6936   3.567   2.857  10.530
 2873W        W 6937   4.117   4.763   4.162
 2874W        W 6938   3.937  10.315  10.343
 2875W        W 6939   0.450   9.973   9.332
 2876W        W 6940   6.081  10.421   2.196
 2877W        W 6941   6.544   8.601  10.595
 2878W        W 6942   2.447   0.575   8.983
 2879W        W 6943   5.607   6.001   1.977
 2880W        W 6944   7.594   4.029   1.949
 2881W        W 6945   9.485   8.565  11.816
 2882W        W 6946   1.901   0.325   9.819
 2883W        W 6947   8.801   7.550   1.843
 2884W        W 6948   7.551   4.207   3.336
 2885W        W 6949   3.222   7.885   9.053
 2886W        W 6950   3.708   8.706   0.402
 2887W        W 6951   1.334   2.381   8.690
 2888W        W 6952   1.205   2.451   0.931
 2889W        W 6953   3.752   9.048   9.906
 2890W        W 6954   0.343   3.237   0.308
 2891W        W 6955   4.370   2.627  11.727
 2892W        W 6956   0.273   7.406   9.186
 2893W        W 6957   8.532   7.520  10.612
 2894W        W 6958   5.253   6.181   2.279
 2895W        W 6959  10.396   0.441   0.669
 2896W        W 6960   1.353   1.206   9.963
 2897W        W 6961   6.950   5.604   8.174
 2898W        W 6962   4.208   8.275  11.709
 2899W        W 6963  10.379   5.439   2.153
 2900W        W 6964   4.456   6.506   8.977
 2901W        W 6965   4.232   4.902   9.091
 2902W        W 6966   1.383   8.460   1.319
 2903W        W 6967   3.458   5.366  11.507
 2904W        W 6968   3.241   3.328  10.454
 2905W        W 6969   3.646   4.037   9.922
 2906W        W 6970   1.789   9.868   1.698
 2907W        W 6971   4.037   2.096   9.358
 2908W        W 6972   9.356   7.507  10.090
 2909W        W 6973   7.569   0.585   3.567
 2910W        W 6974   2.048   9.605   2.359
 2911W        W 6975   0.618   5.372   0.975
 2912W        W 6976   0.419   3.320   8.978
 2913W        W 6977   6.689   6.036   8.293
 2914W        W 6978   2.438   1.680  10.792
 2915W        W 6979   9.220   7.529   0.815
 2916W        W 6980   8.962   1.188  11.884
 2917W        W 6981   6.055   4.654   9.547
 2918W        W 6982   3.117   5.679   9.407
 2919W        W 6983   6.738   6.418   0.422
 2920W        W 6984  10.486   0.730   9.085
 2921W        W 6985   5.529   1.813   3.014
 2922W        W 6986   3.775   5.477   9.803
 2923W        W 6987   6.952   9.359   9.507
 2924W        W 6988   5.788   7.435   8.487
 2925W        W 6989   8.445   9.368   1.456
 2926W        W 6990   2.125   8.886  10.568
 2927W        W 6991   1.702   9.384   1.482
 2928W        W 6992   9.878   5.925   3.283
 2929W        W 6993   1.059   9.415   3.308
 2930W        W 6994   6.496   4.219   3.744
 2931W        W 6995   6.512   8.920  11.006
 2932W        W 6996   6.778   3.619   0.856
 2933W        W 6997   1.748   3.570  11.938
 2934W        W 6998   1.508   8.044   1.022
 2935W        W 6999   0.770   5.703   1.940
 2936W        W 7000   1.666   1.808   3.077
 2937W        W 7001   7.243   6.736   9.383
 2938W        W 7002   2.168   5.690  11.385
 2939W        W 7003   4.778   9.950  10.783
 2940W        W 7004   7.807   5.093  10.362
 2941W        W 7005   9.753   5.021   0.426
 2942W        W 7006   3.409   8.813   9.539
 2943W        W 7007  10.407   8.858  11.729
 2944W        W 7008   6.434   5.590   9.908
 2945W        W 7009   1.185   4.037   2.834
 2946W        W 7010   9.501   9.132   1.802
 2947W        W 7011   1.861  10.241   9.242
 2948W        W 7012   8.368   4.660  11.950
 2949W        W 7013   4.058  10.464   0.152
 2950W        W 7014   2.575   1.630   1.839
 2951W        W 7015   0.305   9.094   9.837
 2952W        W 7016   8.492   1.218   0.073
 2953W        W 7017   5.066  10.385   0.907
 2954W        W 7018   7.450   0.333   9.850
 2955W        W 7019   6.039   9.534   2.987
 2956W        W 7020   8.786   4.522  11.008
 2957W        W 7021   8.504   4.708  10.050
 2958W        W 7022   0.978   2.607   0.065
 2959W        W 7023   6.685   2.413   1.315
 2960W        W 7024   3.843   2.206   0.054
 2961W        W 7025   7.047   4.647   2.430
 2962W        W 7026   6.002   6.156  10.896
 2963W        W 7027   2.465   3.086   3.340
 2964W        W 7028   6.618   7.292   9.108
 2965W        W 7029  10.267   8.780   0.698
 2966W        W 7030   4.125   0.015  11.315
 2967W        W 7031   2.649  10.427   0.672
 2968W        W 7032   7.925   6.367   8.581
 2969W        W 7033   2.713   9.048   2.701
 2970W        W 7034   0.707   2.197   9.513
 2971W        W 7035   5.996   3.760   1.811
 2972W        W 7036   2.146   2.872  10.419
 2973W        W 7037   7.670   5.980   7.833
 2974W        W 7038  10.452   3.878   3.299
 2975W        W 7039   1.361   1.196  11.044
 2976W        W 7040   2.624   8.389  11.752
 2977W        W 7041   2.860   4.167   2.348
 2978W        W 7042   1.368   7.201   2.282
 2979W        W 7043   9.362   4.257   9.083
 2980W        W 7044   8.798   7.112   8.362
 2981W        W 7045   9.926   5.722   0.945
 2982W        W 7046   7.542   6.790   2.438
 2983W        W 7047   7.149   5.178   7.950
 2984W        W 7048   4.096   3.653   9.352
 2985W        W 7049   2.170   7.943   3.013
 2986W        W 7050   8.557   0.214   8.872
 2987W        W 7051   0.292   8.419   2.185
 2988W        W 7052   9.595   8.095  11.414
 2989W        W 7053   2.819   9.543  10.335
 2990W        W 7054   3.859   2.672  11.769
 2991W        W 7055   8.875   7.315   2.715
 2992W        W 7056   2.320   2.562   0.180
 2993W        W 7057   8.400   8.782   3.349
 2994W        W 7058   1.782   3.320  10.537
 2995W        W 7059  10.378   0.591  10.986
 2996W        W 7060   1.135   0.688  10.003
 2997W        W 7061   9.434   1.306  11.322
 2998W        W 7062   9.516   6.058   9.475
 2999W        W 7063   6.126   4.241   1.706
 3000W        W 7064   5.424   7.096   8.257
 3001W        W 7065   5.582   9.332   2.834
 3002W        W 7066   0.925   8.170   1.692
 3003W        W 7067   4.624   7.516   0.821
 3004W        W 7068   4.125   3.801  10.379
 3005W        W 7069   0.266   0.728   0.457
 3006W        W 7070   3.672   7.472   1.370
 3007W        W 7071   3.820   5.222   8.086
 3008W        W 7072   1.247   8.562   1.803
 3009W        W 7073   4.775   2.238   1.725
 3010W        W 7074   6.525   2.220  10.979
 3011W        W 7075   8.947   8.191   2.457
 3012W        W 7076   9.127   3.762   3.385
 3013W        W 7077  10.401   3.799   9.323
 3014W        W 7078   6.608   8.185   0.770
 3015W        W 7079   8.859   9.482   0.276
 3016W        W 7080   5.615   8.366   9.009
 3017W        W 7081   2.228   3.735   9.280
 3018W        W 7082   9.120   6.513  10.055
 3019W        W 7083   3.361   3.164   9.585
 3020W        W 7084   5.262   1.797   9.348
 3021W        W 7085   3.996   8.034  10.787
 3022W        W 7086   6.915   4.242  10.873
 3023W        W 7087   0.855   8.019   3.262
 3024W        W 7088   8.322   9.728  10.404
 3025W        W 7089   4.999   7.120  10.462
 3026W        W 7090   0.963   0.917   0.019
 3027W        W 7091   0.888  10.441   9.083
 3028W        W 7092   7.809   4.017   8.975
 3029W        W 7093   3.713   5.471   3.953
 3030W        W 7094   6.527   2.639  11.400
 3031W        W 7095   8.619   7.669   3.601
 3032W        W 7096   6.927   1.777   0.216
 3033W        W 7097   1.241   3.964  10.919
 3034W        W 7098   4.097   3.057   8.502
 3035W        W 7099  10.378   9.730   1.922
 3036W        W 7100   3.074   2.614   0.083
 3037W        W 7101   0.425   0.969   3.571
 3038W        W 7102   0.012   2.618   2.762
 3039W        W 7103   7.590   2.282   2.214
 3040W        W 7104   1.304   8.111   3.040
 3041W        W 7105   9.452   7.337  11.084
 3042W        W 7106   1.853   4.402   3.437
 3043W        W 7107   3.173   1.706   2.524
 3044W        W 7108   4.402   2.006  11.401
 3045W        W 7109   4.499   1.288   8.910
 3046W        W 7110   2.214   0.672   0.883
 3047W        W 7111   9.955   5.857  10.079
 3048W        W 7112   9.363   3.776   9.337
 3049W        W 7113   3.425   4.312   3.137
 3050W        W 7114   6.643   1.119   3.136
 3051W        W 7115   9.348   2.005   9.355
 3052W        W 7116   5.656   0.326   0.478
 3053W        W 7117   8.385   7.353   0.347
 3054W        W 7118   3.661   4.618   3.911
 3055W        W 7119   0.832   6.176   1.774
 3056W        W 7120   0.190   5.580   8.748
 3057W        W 7121   9.025   6.229   0.375
 3058W        W 7122   8.731   3.533  10.233
 3059W        W 7123   8.573   6.933  11.259
 3060W        W 7124   9.869   6.611  11.938
 3061W        W 7125   3.814   4.640   2.925
 3062W        W 7126   4.961   9.028   0.360
 3063W        W 7127   6.716  10.051   9.870
 3064W        W 7128   6.229   5.892   8.645
 3065W        W 7129   8.980   7.462   1.351
 3066W        W 7130   5.556   7.958   0.796
 3067W        W 7131   5.306   3.102  10.397
 3068W        W 7132   5.955   1.389   0.699
 3069W        W 7133   5.784   3.639   0.943
 3070W        W 7134   1.384   6.350   0.439
 3071W        W 7135   3.642   3.108  11.572
 3072W        W 7136   0.555   6.399   2.928
 3073W        W 7137   4.634   6.971   0.938
 3074W        W 7138   0.829   6.904  11.845
 3075W        W 7139   9.438   3.785   0.967
 3076W        W 7140   7.509   1.175   2.923
 3077W        W 7141   7.025   2.146   1.027
 3078W        W 7142   8.904   4.028  10.991
 3079W        W 7143   3.582   7.605   8.766
 3080W        W 7144   3.244   0.746   9.297
 3081W        W 7145   3.684   4.161   1.078
 3082W        W 7146  10.344   7.462   1.730
 3083W        W 7147   6.058   9.937   1.321
 3084W        W 7148  10.437  10.334   9.081
 3085W        W 7149   8.619   8.081   0.587
 3086W        W 7150   7.588   7.564   1.017
 3087W        W 7151   5.341   7.498   8.743
 3088W        W 7152   2.239   1.365   2.150
 3089W        W 7153   6.450   4.061  10.764
 3090W        W 7154   9.919   8.429  10.408
 3091W        W 7155   1.609   4.305   2.787
 3092W        W 7156   2.378   8.138   1.891
 3093W        W 7157   8.367   3.132  11.808
 3094W        W 7158   6.728  10.233  11.948
 3095W        W 7159   9.922   3.525  10.024
 3096W        W 7160   5.252   4.529   1.278
 3097W        W 7161   3.111   1.862   3.572
 3098W        W 7162   0.852   4.264   8.526
 3099W        W 7163   7.161   8.055   3.556
 3100W        W 7164   6.850   8.362   3.254
 3101W        W 7165   5.543   6.371  10.735
 3102W        W 7166   2.084   9.002   3.239
 3103W        W 7167   6.057   8.528   1.376
 3104W        W 7168   1.862   4.540  11.992
 3105W        W 7169   9.969   0.392   9.727
 3106W        W 7170   6.117   8.150   2.795
 3107W        W 7171   3.915   5.924   4.095
 3108W        W 7172   5.056   5.148   9.590
 3109W        W 7173   7.004   9.003  10.789
 3110W        W 7174   8.915   1.715  10.080
 3111W        W 7175   7.315   0.957   1.565
 3112W        W 7176   9.874   4.798   9.060
 3113W        W 7177   2.835   2.734   3.250
 3114W        W 7178   7.893   2.473  10.046
 3115W        W 7179   4.697   1.073  10.708
 3116W        W 7180   7.125   5.680  10.497
 3117W        W 7181   2.735   3.095   2.464
 3118W        W 7182   5.995   5.244   9.934
 3119W        W 7183   1.338   6.707   2.510
 3120W        W 7184   7.835   5.245   3.215
 3121W        W 7185   9.757   1.729   9.477
 3122W        W 7186   6.528   3.148  11.216
 3123W        W 7187   7.017   0.926   3.463
 3124W        W 7188   5.983   0.027   0.240
 3125W        W 7189   7.418   8.526   0.381
 3126W        W 7190   8.455   4.812   8.942
 3127W        W 7191   8.614   5.746   1.262
 3128W        W 7192   8.900   6.464   2.446
 3129W        W 7193   7.452   2.701   2.475
 3130W        W 7194   3.726   5.101  11.133
 3131W        W 7195   3.006   9.386  10.806
 3132W        W 7196   4.043   0.426   9.230
 3133W        W 7197   4.012   1.846   2.321
 3134W        W 7198   8.132   0.547   1.951
 3135W        W 7199   8.137   5.557  10.295
 3136W        W 7200   3.788  10.378   3.228
 3137W        W 7201   5.115   9.035   9.437
 3138W        W 7202   0.184   3.094  11.543
 3139W        W 7203   8.827   5.069  10.892
 3140W        W 7204   0.890   9.987   0.671
 3141W        W 7205   5.448   5.123   3.168
 3142W        W 7206   7.837   0.834   9.199
 3143W        W 7207   9.558   1.209   9.774
 3144W        W 7208   2.292   4.334   9.084
 3145W        W 7209   9.299   8.052  11.859
 3146W        W 7210   5.137   9.958   3.037
 3147W        W 7211   5.579   5.356  10.746
 3148W        W 7212   2.257   6.587   2.534
 3149W        W 7213   5.689   2.142  11.487
 3150W        W 7214   5.924   1.395   9.099
 3151W        W 7215   7.693   5.183   8.443
 3152W        W 7216   9.869   0.203   3.391
 3153W        W 7217   0.458   4.250   8.830
 3154W        W 7218  10.376   2.323  10.371
 3155W        W 7219   4.837   6.937   3.004
 3156W        W 7220   9.436   1.009  10.897
 3157W        W 7221   9.908   9.379   1.970
 3158W        W 7222   3.682   2.641   8.705
 3159W        W 7223   7.868   6.840   8.759
 3160W        W 7224   4.667   5.264  11.296
 3161W        W 7225   1.878   7.552  11.649
 3162W        W 7226   4.610   7.311   3.290
 3163W        W 7227   6.231   6.423  11.880
 3164W        W 7228   8.489   5.554   2.177
 3165W        W 7229   0.801   0.324  11.321
 3166W        W 7230   5.179   2.310  11.507
 3167W        W 7231   5.003   8.462   3.492
 3168W        W 7232   2.645   0.814   9.965
 3169W        W 7233   8.749   7.697   2.364
 3170W        W 7234   1.040   1.912   9.926
 3171W        W 7235   8.398  10.334   9.190
 3172W        W 7236   6.087   3.773   2.692
 3173W        W 7237   9.844   9.996   2.692
 3174W        W 7238   7.433   9.787   2.946
 3175W        W 7239   6.894   5.190  10.729
 3176W        W 7240   9.473   3.700   3.018
 3177W        W 7241   4.175   7.261  10.406
 3178W        W 7242   8.528   7.846  10.231
 3179W        W 7243   9.340   1.057   3.148
 3180W        W 7244   1.379   2.761   9.976
 3181W        W 7245   2.171   3.979  10.818
 3182W        W 7246   2.211   5.442   0.360
 3183W        W 7247   4.778   2.754   1.450
 3184W        W 7248   6.190   5.609   9.463
 3185W        W 7249   6.923   0.233  11.773
 3186W        W 7250   0.647   6.363   8.535
 3187W        W 7251   1.831   3.360   9.300
 3188W        W 7252   5.154   6.117   9.609
 3189W        W 7253   6.411   5.111  11.317
 3190W        W 7254   2.331   5.555  10.906
 3191W        W 7255   8.689   5.530  10.572
 3192W        W 7256   0.856   7.466  11.020
 3193W        W 7257   4.536   1.746   0.549
 3194W        W 7258   1.959   2.749   1.558
 3195W        W 7259   0.714   5.225   3.230
 3196W        W 7260   8.607   7.572  11.943
 3197W        W 7261   9.651   1.236   3.523
 3198W        W 7262   2.426   9.112   0.282
 3199W        W 7263   5.999   6.565   8.975
 3200W        W 7264   4.701   2.438  11.395
 3201W        W 7265   2.326   9.155  10.958
 3202W        W 7266   9.078   0.244  10.977
 3203W        W 7267   1.040   1.254   0.509
 3204W        W 7268   7.207   6.067   8.073
 3205W        W 7269   0.527   0.282   3.204
 3206W        W 7270   9.136   8.395   1.511
 3207W        W 7271   6.977   5.922   3.586
 3208W        W 7272   8.327   7.096  10.233
 3209W        W 7273   1.423   3.536  11.111
 3210W        W 7274   3.728   3.587  11.435
 3211W        W 7275   8.144   1.887   9.491
 3212W        W 7276   1.242   2.357   2.296
 3213W        W 7277   5.248   2.408   1.636
 3214W        W 7278   1.292   1.865   2.665
 3215W        W 7279   8.908   9.836   9.753
 3216W        W 7280   9.868  10.437   2.416
 3217W        W 7281   3.416   9.894   0.516
 3218W        W 7282   4.531   5.548  10.876
 3219W        W 7283   3.822   4.380   0.600
 3220W        W 7284   5.313   2.851   0.710
 3221W        W 7285   7.885   7.918   9.006
 3222W        W 7286   0.188   6.452   0.219
 3223W        W 7287   5.236   6.702  10.992
 3224W        W 7288   3.482   5.508   4.406
 3225W        W 7289   7.835   4.419   1.015
 3226W        W 7290   4.747   5.539   3.474
 3227W        W 7291   9.804   3.621   2.160
 3228W        W 7292   8.002   1.314  11.364
 3229W        W 7293   2.170   5.231   2.522
 3230W        W 7294   5.791   0.350   0.969
 3231W        W 7295   0.231   9.074   3.169
 3232W        W 7296   0.909   8.252   9.354
 3233W        W 7297   3.847   8.289   2.809
 3234W        W 7298   2.727  10.471   2.703
 3235W        W 7299   8.651   5.030   1.778
 3236W        W 7300   3.578   3.065   0.951
 3237W        W 7301  10.014   0.802   2.689
 3238W        W 7302   6.136   4.343  10.484
 3239W        W 7303   8.454   4.138   3.251
 3240W        W 7304   0.007  10.401   8.554
 3241W        W 7305   7.362   3.519   9.495
 3242W        W 7306   9.277   8.083   1.133
 3243W        W 7307   5.557   5.234   8.962
 3244W        W 7308   4.180   8.530  10.718
 3245W        W 7309   1.942   0.224   0.814
 3246W        W 7310   0.995   0.815   2.693
 3247W        W 7311   2.686   0.231   8.702
 3248W        W 7312   8.444   9.063   9.792
 3249W        W 7313   9.922   7.555   0.258
 3250W        W 7314  10.296   9.340  11.726
 3251W        W 7315   0.247   4.709   9.011
 3252W        W 7316   3.775   9.433   1.137
 3253W        W 7317   4.715  10.333  11.106
 3254W        W 7318   2.692   6.005   1.057
 3255W        W 7319   2.432   0.369   0.517
 3256W        W 7320   9.355   0.860  10.391
 3257W        W 7321   5.985   9.536  11.496
 3258W        W 7322   0.729   1.461  10.795
 3259W        W 7323   6.884   7.207  10.452
 3260W        W 7324   6.151   7.496   9.827
 3261W        W 7325  10.070   1.783   0.783
 3262W        W 7326   6.228   3.949   9.257
 3263W        W 7327   8.525   6.670   9.847
 3264W        W 7328   2.142   0.572   2.342
 3265W        W 7329   4.094   8.448   3.268
 3266W        W 7330   4.162   5.645   3.706
 3267W        W 7331   1.298   3.255   9.264
 3268W        W 7332   8.917   3.179   2.774
 3269W        W 7333   9.175   2.274  11.300
 3270W        W 7334   8.973   5.438   1.500
 3271W        W 7335   6.217   4.464  11.040
 3272W        W 7336   0.431   3.236  10.813
 3273W        W 7337   5.641   5.991   3.812
 3274W        W 7338   1.710   8.950   2.799
 3275W        W 7339   8.004   5.610   2.891
 3276W        W 7340   5.663   1.207  11.445
 3277W        W 7341   2.904   5.446   2.467
 3278W        W 7342   0.506  10.234   2.431
 3279W        W 7343   1.894   8.399   9.091
 3280W        W 7344   3.109   6.149  10.982
 3281W        W 7345   3.253   5.322   9.768
 3282W        W 7346   7.825   3.656   1.623
 3283W        W 7347   6.778  10.082   0.804
 3284W        W 7348   1.171   0.504  10.520
 3285W        W 7349   0.239  10.095  10.065
 3286W        W 7350   0.956  10.367   2.748
 3287W        W 7351   3.311   8.940  10.813
 3288W        W 7352   8.121   8.904   8.903
 3289W        W 7353  10.361   8.356  11.753
 3290W        W 7354   2.157   2.765  11.377
 3291W        W 7355   6.373   0.900   1.253
 3292W        W 7356   0.764   9.466   1.403
 3293W        W 7357   6.591   8.249   8.775
 3294W        W 7358   7.538   8.670   9.747
 3295W        W 7359   6.242  10.111   0.014
 3296W        W 7360   9.547   1.945   0.978
 3297W        W 7361   0.850   6.517   1.385
 3298W        W 7362  10.372   2.414  10.865
 3299W        W 7363   6.941  10.363   2.215
 3300W        W 7364   1.744   2.262   1.951
 3301W        W 7365   1.963   4.598   9.911
 3302W        W 7366   5.164   9.444   3.176
 3303W        W 7367   5.420   0.950   3.577
 3304W        W 7368   8.939   3.222   9.844
 3305W        W 7369  10.188   4.906   0.213
 3306W        W 7370   3.864   7.783   2.747
 3307W        W 7371   3.836   8.232   0.448
 3308W        W 7372   8.701   9.950   9.317
 3309W        W 7373   4.612   6.881   1.438
 3310W        W 7374   3.799   5.945  10.507
 3311W        W 7375   9.282   4.430  11.017
 3312W        W 7376   8.339   7.569   9.858
 3313W        W 7377   9.888   4.615   1.277
 3314W        W 7378   9.465   7.630   1.262
 3315W        W 7379   3.176   4.020   0.867
 3316W        W 7380   2.892   4.400   0.537
 3317W        W 7381   0.487   2.819  11.123
 3318W        W 7382   8.815   2.592  11.583
 3319W        W 7383   8.165   6.014   0.190
 3320W        W 7384   3.403   0.281  11.685
 3321W        W 7385   6.463   7.954   1.248
 3322W        W 7386   0.806   3.482   1.533
 3323W        W 7387   9.499   6.658  11.168
 3324W        W 7388   6.488   5.688   0.627
 3325W        W 7389   7.456   9.813   0.044
 3326W        W 7390   4.292   0.847   2.050
 3327W        W 7391   3.678   2.300  11.028
 3328W        W 7392   7.812   4.823   0.645
 3329W        W 7393  10.332   1.331   0.787
 3330W        W 7394   4.615   3.215   1.314
 3331W        W 7395   8.151   0.819   8.797
 3332W        W 7396   2.181   1.646   3.408
 3333W        W 7397   5.940   4.054  10.905
 3334W        W 7398   4.051   8.519   8.699
 3335W        W 7399   8.782   4.291  11.889
 3336W        W 7400   6.022   5.110   8.756
 3337W        W 7401   1.533   9.454   2.572
 3338W        W 7402   2.220   8.927   2.749
 3339W        W 7403   8.047   8.417  10.230
 3340W        W 7404   1.053   0.234   3.131
 3341W        W 7405   7.308   4.002   9.982
 3342W        W 7406   1.945   2.080   3.427
 3343W        W 7407   0.918   5.271   9.291
 3344W        W 7408   8.161   5.065   1.619
 3345W        W 7409   2.566   9.927   3.353
 3346W        W 7410   5.457   4.823  11.832
 3347W        W 7411  10.302   9.810   3.304
 3348W        W 7412  10.455   6.134   1.493
 3349W        W 7413   4.234   7.493   2.551
 3350W        W 7414   6.620   9.758   2.134
 3351W        W 7415  10.415   1.422  11.883
 3352W        W 7416   8.986   7.076   1.692
 3353W        W 7417   0.246   9.444   1.479
 3354W        W 7418   7.876   3.596   2.151
 3355W        W 7419   2.966   5.117  11.995
 3356W        W 7420   5.464   6.560   8.934
 3357W        W 7421   6.034   2.226   8.761
 3358W        W 7422   3.866   7.140   8.622
 3359W        W 7423   3.823   8.908  10.752
 3360W        W 7424   8.128   8.981   0.878
 3361W        W 7425   5.209   2.661  10.099
 3362W        W 7426   0.982   9.482  10.565
 3363W        W 7427   3.146   1.365  11.789
 3364W        W 7428   7.481   5.568   8.125
 3365W        W 7429   6.751  10.467  10.160
 3366W        W 7430   6.718   5.029   2.291
 3367W        W 7431   0.322   0.308   2.508
 3368W        W 7432   6.899   9.415  11.057
 3369W        W 7433   5.994   8.955   2.221
 3370W        W 7434  10.054   4.300   9.243
 3371W        W 7435   9.178   6.449   2.882
 3372W        W 7436   7.126   1.908  10.459
 3373W        W 7437   5.945   5.129  11.030
 3374W        W 7438   2.686   5.523   1.227
 3375W        W 7439   6.938   2.519  11.059
 3376W        W 7440   9.515   1.136   1.759
 3377W        W 7441   1.767   0.337  10.878
 3378W        W 7442   4.953  10.072  11.596
 3379W        W 7443   6.476   3.096   9.816
 3380W        W 7444   1.188   3.961   0.577
 3381W        W 7445   0.443   6.247   1.151
 3382W        W 7446   5.141   5.733   0.755
 3383W        W 7447   2.580   8.637  10.497
 3384W        W 7448   9.554   9.566   2.896
 3385W        W 7449   1.326   7.038  11.950
 3386W        W 7450   2.223   8.105   8.810
 3387W        W 7451   6.437   8.847   1.953
 3388W        W 7452   9.345   8.659   0.574
 3389W        W 7453  10.349   5.005   2.905
 3390W        W 7454   4.627   7.803   3.214
 3391W        W 7455   7.554   8.070  11.435
 3392W        W 7456   4.723   7.050  11.955
 3393W        W 7457   3.354   2.165   0.132
 3394W        W 7458   4.658   9.410   2.448
 3395W        W 7459   4.979   9.068   0.903
 3396W        W 7460   1.122  10.483   1.843
 3397W        W 7461   6.321   9.297  11.801
 3398W        W 7462   4.602   0.830   8.155
 3399W        W 7463   8.106   6.722  11.039
 3400W        W 7464  10.383   2.286   3.548
 3401W        W 7465   8.754   8.047   8.800
 3402W        W 7466   4.673   3.633  10.622
 3403W        W 7467   7.229   4.734   8.999
 3404W        W 7468   4.141   8.146   1.143
 3405W        W 7469   3.531   5.605   1.466
 3406W        W 7470   8.464   2.177   2.754
 3407W        W 7471  10.371   1.813   3.368
 3408W        W 7472   6.542   6.119  10.440
 3409W        W 7473   9.052   2.402   3.296
 3410W        W 7474   4.245   4.912   0.481
 3411W        W 7475   5.068   7.570  11.515
 3412W        W 7476   8.872   0.629  11.244
 3413W        W 7477   5.132   0.497   3.551
 3414W        W 7478   2.040   8.860   9.312
 3415W        W 7479   5.560   1.419   2.537
 3416W        W 7480   5.048   4.303   1.684
 3417W        W 7481   7.143  10.437   3.649
 3418W        W 7482   9.403   4.537  11.645
 3419W        W 7483   4.605   1.501   1.013
 3420W        W 7484   6.595  10.373  10.620
 3421W        W 7485   6.494   3.535   9.482
 3422W        W 7486   6.101   5.104   0.414
 3423W        W 7487   3.015   1.375   3.524
 3424W        W 7488   4.452   8.598  10.295
 3425W        W 7489   3.578   1.920   3.431
 3426W        W 7490   5.737   5.554   3.184
 3427W        W 7491   7.039   7.361  11.154
 3428W        W 7492   7.398   3.391   0.281
 3429W        W 7493   3.683   5.984   1.142
 3430W        W 7494   6.295   6.417   8.578
 3431W        W 7495   5.373   1.723   2.155
 3432W        W 7496   4.755   2.173   2.245
 3433W        W 7497   1.064   7.879   0.772
 3434W        W 7498   7.184   8.426   2.275
 3435W        W 7499   5.901   5.630   1.726
 3436W        W 7500   7.971   0.924   3.350
 3437W        W 7501   5.439   4.321   8.965
 3438W        W 7502   7.723   6.438   1.401
 3439W        W 7503   6.069   5.976   3.276
 3440W        W 7504  10.187   3.182  11.457
 3441W        W 7505   9.901   7.035   1.334
 3442W        W 7506   8.043   6.699  10.029
 3443W        W 7507   9.844   1.862  11.418
 3444W        W 7508   6.420   5.157   0.008
 3445W        W 7509   9.417   5.430  11.768
 3446W        W 7510   4.061   0.437   2.773
 3447W        W 7511  10.299   4.419   0.207
 3448W        W 7512   1.796   2.120   9.312
 3449W        W 7513   0.266   0.421  11.703
 3450W        W 7514   1.299   1.378   0.975
 3451W        W 7515  10.342   5.206  10.916
 3452W        W 7516   4.374   2.605   1.146
 3453W        W 7517   1.750   8.428  10.023
 3454W        W 7518   4.790   4.518   1.011
 3455W        W 7519   1.253   6.768  11.529
 3456W        W 7520   3.318   7.370   3.172
 3457W        W 7521   1.260   1.396  10.552
 3458W        W 7522   1.410  10.384  10.813
 3459W        W 7523   0.414   3.757   0.394
 3460W        W 7524   3.649   8.095   8.499
 3461W        W 7525   2.521   1.233  11.396
 3462W        W 7526   5.111   4.601   2.105
 3463W        W 7527   2.858   9.364   0.256
 3464W        W 7528   3.915   1.880  11.239
 3465W        W 7529   9.346   4.700   8.780
 3466W        W 7530   2.883   8.456   9.332
 3467W        W 7531  10.275   5.200   1.249
 3468W        W 7532   6.080   0.934  11.444
 3469W        W 7533  10.378   7.733  10.872
 3470W        W 7534   3.219   0.349  10.272
 3471W        W 7535   4.724   0.463   0.506
 3472W        W 7536   6.906   5.766  10.040
 3473W        W 7537   7.208   9.030  11.697
 3474W        W 7538   6.514   7.788   1.732
 3475W        W 7539   1.598   9.425   9.642
 3476W        W 7540   4.286   6.112   2.448
 3477W        W 7541   8.538   6.823   2.497
 3478W        W 7542   5.192   0.343   0.705
 3479W        W 7543   8.518   0.397   9.935
 3480W        W 7544   1.425   7.247  11.445
 3481W        W 7545   9.979   6.994   9.057
 3482W        W 7546   6.994   7.404   8.727
 3483W        W 7547   4.115   9.404   8.737
 3484W        W 7548   2.598   6.659   1.825
 3485W        W 7549   6.198   2.318  11.774
 3486W        W 7550   4.996   3.335   1.793
 3487W        W 7551   9.329   6.636   0.498
 3488W        W 7552   8.866   2.847   1.916
 3489W        W 7553  10.280   7.431   8.996
 3490W        W 7554   4.914   6.390   8.198
 3491W        W 7555   9.841   5.704   2.823
 3492W        W 7556   7.932   1.409   3.122
 3493W        W 7557   5.571   6.119   8.688
 3494W        W 7558   0.288   8.122   9.823
 3495W        W 7559   1.022   2.678   1.916
 3496W        W 7560   8.410   8.542   1.800
 3497W        W 7561   6.820   6.529   8.499
 3498W        W 7562   1.064   2.610   1.405
 3499W        W 7563   7.418   0.015  11.394
 3500W        W 7564   9.541   2.021  10.816
 3501W        W 7565   8.359   5.211   9.981
 3502W        W 7566   2.068   7.365  10.563
 3503W        W 7567   0.259   2.742  10.663
 3504W        W 7568   5.740   3.878   0.093
 3505W        W 7569   2.826   7.869   0.447
 3506W        W 7570   7.469   0.486   8.995
 3507W        W 7571   3.304   1.495   3.118
 3508W        W 7572   2.399   0.632  11.844
 3509W        W 7573   4.704   6.387  10.248
 3510W        W 7574   2.137  10.395   1.828
 3511W        W 7575   3.333   5.074   8.780
 3512W        W 7576   9.114   8.696   2.805
 3513W        W 7577   8.480   7.405   9.402
 3514W        W 7578   4.264   0.781   8.940
 3515W        W 7579  10.468   9.789   9.316
 3516W        W 7580   1.355   8.903   9.961
 3517W        W 7581   7.408   3.552   1.917
 3518W        W 7582   1.669   5.727   9.220
 3519W        W 7583   5.632   2.203   0.926
 3520W        W 7584   6.838   9.119   0.606
 3521W        W 7585   6.050   7.489   0.788
 3522W        W 7586   4.192   2.228   0.445
 3523W        W 7587   5.155   5.152  10.569
 3524W        W 7588   9.657  10.398   1.425
 3525W        W 7589   4.046   1.206   9.117
 3526W        W 7590   0.470   1.821   9.144
 3527W        W 7591   3.086   7.400   8.808
 3528W        W 7592   1.437   7.584   1.874
 3529W        W 7593   6.480   4.123   8.003
 3530W        W 7594   7.646   5.934   1.376
 3531W        W 7595   6.892   2.185   0.527
 3532W        W 7596   8.437   4.643   1.484
 3533W        W 7597   9.010   3.645   0.680
 3534W        W 7598   3.285   6.975  11.285
 3535W        W 7599   7.397   7.051  11.332
 3536W        W 7600   5.542   1.248   2.043
 3537W        W 7601  10.409   8.742   2.192
 3538W        W 7602  10.254   1.514  10.702
 3539W        W 7603   0.344   8.859   1.201
 3540W        W 7604   2.883   1.180   1.970
 3541W        W 7605   2.661   3.599   1.615
 3542W        W 7606   3.153   5.778   1.132
 3543W        W 7607   8.431   8.393   0.234
 3544W        W 7608   0.348   0.520  11.182
 3545W        W 7609   9.831   3.756   2.653
 3546W        W 7610   2.357   8.639  10.973
 3547W        W 7611   0.345   6.745  11.715
 3548W        W 7612  10.415   7.055   1.407
 3549W        W 7613   4.129   6.169   3.669
 3550W        W 7614   3.878  10.430   2.708
 3551W        W 7615  10.038  10.463  11.508
 3552W        W 7616   6.027   9.087   2.708
 3553W        W 7617   0.019   9.918   0.391
 3554W        W 7618   8.575   1.895  11.204
 3555W        W 7619   9.111   6.495   0.968
 3556W        W 7620  10.450   5.668  10.115
 3557W        W 7621   4.527   6.434   0.698
 3558W        W 7622   8.141   4.872  11.500
 3559W        W 7623   9.545   5.025  11.474
 3560W        W 7624   9.463   3.573   0.456
 3561W        W 7625   7.607   6.077   3.454
 3562W        W 7626  10.392   1.160   9.364
 3563W        W 7627  10.473   4.780  11.788
 3564W        W 7628   5.325   9.496   3.668
 3565W        W 7629   8.371   9.850   3.121
 3566W        W 7630   5.054   9.520   9.749
 3567W        W 7631   4.692   8.403   2.546
 3568W        W 7632   5.833   4.023   9.603
 3569W        W 7633   6.523   6.192   3.514
 3570W        W 7634   8.658   8.538   2.683
 3571W        W 7635   1.685   6.523  11.560
 3572W        W 7636   5.497   7.829   1.370
 3573W        W 7637   8.845  10.342   3.511
 3574W        W 7638   0.877   3.172   1.951
 3575W        W 7639   2.838  10.341   3.186
 3576W        W 7640  10.335   9.106   2.831
 3577W        W 7641   4.246   3.179   0.372
 3578W        W 7642   5.439   9.891  11.526
 3579W        W 7643   9.748   0.402   8.716
 3580W        W 7644   6.881   0.097   0.265
 3581W        W 7645   3.712   4.645   3.412
 3582W        W 7646   8.584   6.883   9.378
 3583W        W 7647   7.570   6.096   8.853
 3584W        W 7648   8.832   0.065   0.408
 3585W        W 7649   4.429   5.925   3.305
 3586W        W 7650   2.066   5.214  11.200
 3587W        W 7651   7.670   4.115   1.443
 3588W        W 7652   1.471   1.376   1.475
 3589W        W 7653   7.678   8.530   2.368
 3590W        W 7654   6.886   5.113   8.830
 3591W        W 7655   1.798   6.026   1.250
 3592W        W 7656   0.979   2.831  11.107
 3593W        W 7657   5.915   5.134   2.907
 3594W        W 7658   5.491  10.423   8.925
 3595W        W 7659   2.183   3.344  10.210
 3596W        W 7660   9.749   0.336   2.905
 3597W        W 7661   6.145   8.472   2.389
 3598W        W 7662   2.221   1.851   2.956
 3599W        W 7663   5.996   7.948   9.609
 3600W        W 7664   7.635   3.142   2.263
 3601W        W 7665   7.442  10.089   3.406
 3602W        W 7666   4.493   3.612   0.531
 3603W        W 7667   3.842   6.692  10.927
 3604W        W 7668   6.932   1.250   2.698
 3605W        W 7669   1.467   8.315  10.828
 3606W        W 7670   8.267   9.898  11.394
 3607W        W 7671  10.414   0.271  11.374
 3608W        W 7672   9.332   9.151   9.038
 3609W        W 7673   6.448   2.604   9.544
 3610W        W 7674   3.575   1.281   8.911
 3611W        W 7675   5.964   9.025   0.677
 3612W        W 7676   9.338   9.887  11.310
 3613W        W 7677   4.166   6.703   3.748
 3614W        W 7678   4.584   9.150   8.644
 3615W        W 7679   0.102   1.858   2.584
 3616W        W 7680   7.174   9.698   8.893
 3617W        W 7681   6.687   4.480  11.266
 3618W        W 7682   0.921   6.575  10.553
 3619W        W 7683   9.003   4.274  11.424
 3620W        W 7684   6.526   7.685   0.829
 3621W        W 7685   9.719   2.679   2.508
 3622W        W 7686   8.089  10.428   2.773
 3623W        W 7687  10.023   0.092   8.418
 3624W        W 7688   6.412   9.269   2.291
 3625W        W 7689   4.138   4.274   8.545
 3626W        W 7690   1.132   6.454   2.104
 3627W        W 7691   1.990   8.957   1.374
 3628W        W 7692   4.251   7.016   8.942
 3629W        W 7693   2.124   0.807   1.854
 3630W        W 7694   9.966   0.804   8.995
 3631W        W 7695   6.993   5.000   3.405
 3632W        W 7696   5.243   5.290   0.965
 3633W        W 7697   8.799   9.940  11.296
 3634W        W 7698   8.596   5.695  10.026
 3635W        W 7699   4.714   0.826   9.178
 3636W        W 7700   4.291   9.486   0.372
 3637W        W 7701   0.354   9.464   9.098
 3638W        W 7702   5.659   8.284   1.685
 3639W        W 7703   7.052   4.512   2.934
 3640W        W 7704   4.652   8.172   8.910
 3641W        W 7705   2.127   5.566   1.819
 3642W        W 7706  10.278   3.583   2.471
 3643W        W 7707   5.567   2.255  10.976
 3644W        W 7708   7.448   5.643   8.640
 3645W        W 7709   5.141   3.532   2.279
 3646W        W 7710   0.691   9.435  11.985
 3647W        W 7711   0.914   5.996   8.762
 3648W        W 7712   7.329   8.929   2.386
 3649W        W 7713   3.739   7.950   0.895
 3650W        W 7714   1.805   3.430   2.154
 3651W        W 7715   0.810   0.751   0.504
 3652W        W 7716   6.929   3.456   1.299
 3653W        W 7717   3.848   3.208   0.019
 3654W        W 7718   8.067   7.899   9.488
 3655W        W 7719   4.313   0.148  10.452
 3656W        W 7720   0.960   4.696  11.229
 3657W        W 7721   5.373   6.630   8.019
 3658W        W 7722   3.716   4.836   0.419
 3659W        W 7723   2.868   5.945   1.549
 3660W        W 7724   7.182   8.082   0.297
 3661W        W 7725   3.189   1.370   0.688
 3662W        W 7726   5.022   6.645  11.838
 3663W        W 7727   8.030   1.247   1.398
 3664W        W 7728   7.076   3.592   2.780
 3665W        W 7729   1.178   9.844  10.246
 3666W        W 7730   5.087   0.872   0.466
 3667W        W 7731  10.464   6.646  10.057
 3668W        W 7732   6.074   5.987   0.832
 3669W        W 7733   7.122   0.474   1.536
 3670W        W 7734   4.292  10.447   3.132
 3671W        W 7735   4.034   1.773   0.702
 3672W        W 7736   0.471   9.515  11.500
 3673W        W 7737   6.028   3.636   8.905
 3674W        W 7738   0.521   2.782   1.945
 3675W        W 7739   8.898   7.125  10.703
 3676W        W 7740   9.089   2.165   1.091
 3677W        W 7741   6.845   8.038   2.030
 3678W        W 7742   5.717   7.569  10.915
 3679W        W 7743   0.761   0.526  10.852
 3680W        W 7744   5.494   6.912  11.457
 3681W        W 7745   1.939   9.516   3.296
 3682W        W 7746   5.040   8.788   1.897
 3683W        W 7747   2.259   3.330   1.421
 3684W        W 7748   0.748   0.358   2.758
 3685W        W 7749   1.249   6.959   3.508
 3686W        W 7750   5.211   4.105   3.854
 3687W        W 7751   6.277   3.281   1.787
 3688W        W 7752   8.835   7.610   0.476
 3689W        W 7753   5.882   3.051   3.193
 3690W        W 7754   3.084   9.901   1.390
 3691W        W 7755  10.480   8.410   9.536
 3692W        W 7756   7.422   8.174   8.955
 3693W        W 7757   5.949   4.939  11.915
 3694W        W 7758   1.893   3.391   2.852
 3695W        W 7759   0.891   8.411   2.912
 3696W        W 7760   0.076   7.683  11.693
 3697W        W 7761   4.092   3.385   8.912
 3698W        W 7762   8.385   4.569   9.422
 3699W        W 7763   4.553   2.137   9.353
 3700W        W 7764   2.612   4.284  11.020
 3701W        W 7765   2.852   6.663  10.020
 3702W        W 7766   4.975   2.813   9.102
 3703W        W 7767   8.840   4.775   3.598
 3704W        W 7768   3.275  10.159   0.969
 3705W        W 7769   1.873   2.852   0.375
 3706W        W 7770   7.395  10.168  10.998
 3707W        W 7771  10.113   7.820   0.892
 3708W        W 7772   1.478   4.131  11.365
 3709W        W 7773   6.846   5.548   2.384
 3710W        W 7774   9.466   6.334   0.116
 3711W        W 7775   2.526   1.295   3.568
 3712W        W 7776   2.253   2.196  10.034
 3713W        W 7777   8.563   4.554  11.479
 3714W        W 7778   8.512   8.066   9.261
 3715W        W 7779   5.033   6.212   8.676
 3716W        W 7780   5.172  10.042   2.494
 3717W        W 7781   1.023   4.206   3.618
 3718W        W 7782   7.476   1.666   2.779
 3719W        W 7783   7.449   4.775   2.713
 3720W        W 7784   0.682   0.861   9.871
 3721W        W 7785   5.066   2.448  11.026
 3722W        W 7786   7.575   2.183   0.235
 3723W        W 7787   1.382   2.422   0.431
 3724W        W 7788   1.245   8.468   9.747
 3725W        W 7789   8.159   0.985  10.017
 3726W        W 7790   5.970   8.653  10.436
 3727W        W 7791   8.898   8.478   0.423
 3728W        W 7792   3.339   2.346   3.571
 3729W        W 7793   0.937   6.049  11.882
 3730W        W 7794  10.141   7.936  11.558
 3731W        W 7795   5.621   3.903   8.639
 3732W        W 7796   6.951   7.544   2.689
 3733W        W 7797   6.846   5.138  11.739
 3734W        W 7798   9.830   6.450   0.445
 3735W        W 7799   0.991   2.589  10.236
 3736W        W 7800   3.629   0.311   2.999
 3737W        W 7801   8.630   9.726   1.136
 3738W        W 7802   6.166   5.971   3.798
 3739W        W 7803   6.684   7.576   2.210
 3740W        W 7804   5.295   4.075   9.442
 3741W        W 7805   9.493   2.269   0.272
 3742W        W 7806   0.515   7.686   0.963
 3743W        W 7807   6.974   1.753   2.810
 3744W        W 7808   8.206   0.110  10.659
 3745W        W 7809   3.748   1.368  10.923
 3746W        W 7810   7.814   3.597   0.034
 3747W        W 7811   4.127   0.857   3.065
 3748W        W 7812   3.612   5.536   9.325
 3749W        W 7813   2.717   6.605   9.024
 3750W        W 7814   8.910   3.003   1.410
 3751W        W 7815   5.499   2.635  10.532
 3752W        W 7816   5.191   3.058   0.223
 3753W        W 7817   4.254   1.637   9.316
 3754W        W 7818   4.305   5.139  10.515
 3755W        W 7819   1.292   7.673   3.325
 3756W        W 7820  10.226   2.969   3.079
 3757W        W 7821   5.752   7.397   9.060
 3758W        W 7822   4.814   7.964   2.786
 3759W        W 7823   3.732   4.180   9.052
 3760W        W 7824   4.793   2.872  11.909
 3761W        W 7825   4.678   5.089   2.034
 3762W        W 7826   1.414   5.291   8.670
 3763W        W 7827   3.826   3.226  11.073
 3764W        W 7828   5.597   4.132   8.012
 3765W        W 7829   1.465   3.094  10.872
 3766W        W 7830   0.030   4.230   9.083
 3767W        W 7831   2.404   8.892   9.679
 3768W        W 7832   9.884   1.397   1.031
 3769W        W 7833   3.157   1.164  10.593
 3770W        W 7834   6.793   0.428   1.139
 3771W        W 7835   7.882   7.440   0.301
 3772W        W 7836   7.960   1.895  10.533
 3773W        W 7837   1.510   7.732  11.353
 3774W        W 7838  10.473  10.267   3.152
 3775W        W 7839   4.157   1.359   2.735
 3776W        W 7840   0.965   4.939   1.743
 3777W        W 7841   5.558   5.676   0.170
 3778W        W 7842   2.765   7.446   1.265
 3779W        W 7843  10.267   1.824  10.295
 3780W        W 7844   1.517   4.466   9.680
 3781W        W 7845   8.638   8.325   1.402
 3782W        W 7846   7.815   0.449  10.564
 3783W        W 7847   5.159   3.619  10.352
 3784W        W 7848   4.990   5.477   9.962
 3785W        W 7849   1.590   5.626   0.981
 3786W        W 7850   1.895   2.731   2.093
 3787W        W 7851  10.214  10.081   2.281
 3788W        W 7852   1.814   4.096   9.897
 3789W        W 7853   6.127   5.513   3.538
 3790W        W 7854   5.556   6.960   1.464
 3791W        W 7855   7.645   5.012   1.695
 3792W        W 7856   5.699   5.601  10.311
 3793W        W 7857   1.873   4.300   2.330
 3794W        W 7858   7.687   3.769   0.510
 3795W        W 7859   3.012   9.044  10.423
 3796W        W 7860   0.047   4.626  10.814
 3797W        W 7861   3.537   9.973   2.295
 3798W        W 7862   3.277   0.435   1.658
 3799W        W 7863   9.796   7.415   8.805
 3800W        W 7864   2.491   4.782   8.910
 3801W        W 7865   0.214   1.347  10.882
 3802W        W 7866   6.935   5.433   0.530
 3803W        W 7867   0.865   9.933   1.179
 3804W        W 7868   6.409   8.852   0.455
 3805W        W 7869   7.170   7.611   9.685
 3806W        W 7870   7.461   3.224  11.302
 3807W        W 7871   9.982   1.875   1.822
 3808W        W 7872   3.080   7.954  11.093
 3809W        W 7873   0.422   7.402   2.815
 3810W        W 7874   4.492   6.433   1.210
 3811W        W 7875   4.993   3.025   9.823
 3812W        W 7876   0.901   3.915   1.250
 3813W        W 7877   2.000   9.551  10.983
 3814W        W 7878   1.187   2.182   1.821
 3815W        W 7879   7.900   2.404  10.553
 3816W        W 7880   5.717   1.608  11.757
 3817W        W 7881   5.582   1.268   3.045
 3818W        W 7882  10.235   7.731   2.224
 3819W        W 7883   9.382   5.442   2.168
 3820W        W 7884   0.893   4.155   0.199
 3821W        W 7885   0.355   7.227  10.139
 3822W        W 7886   4.719   5.047  10.822
 3823W        W 7887  10.365   3.461   9.713
 3824W        W 7888   9.327   2.633   2.164
 3825W        W 7889   4.965   6.459   2.866
 3826W        W 7890   7.441   6.596   8.932
 3827W        W 7891   8.938   5.590   9.645
 3828W        W 7892   7.319   5.194  10.458
 3829W        W 7893   8.371   4.241  10.861
 3830W        W 7894   8.200   1.808  11.570
 3831W        W 7895  10.477   7.097  11.916
 3832W        W 7896   3.266   7.216   2.309
 3833W        W 7897   6.075   0.410   3.306
 3834W        W 7898   9.408   3.382  10.515
 3835W        W 7899   0.798   0.270   9.474
 3836W        W 7900   8.336   9.846   8.976
 3837W        W 7901   5.885   0.444   2.822
 3838W        W 7902   0.362   0.202  10.776
 3839W        W 7903   9.391   9.199  11.179
 3840W        W 7904   2.029   9.379   1.905
 3841W        W 7905   0.869   6.518  10.047
 3842W        W 7906   7.017   5.609  11.020
 3843W        W 7907   2.113   5.234   3.033
 3844W        W 7908   8.695   7.198   8.971
 3845W        W 7909   4.743  10.296   2.429
 3846W        W 7910   7.592   9.975  10.103
 3847W        W 7911   2.352   8.444   2.996
 3848W        W 7912   8.745   2.008   0.347
 3849W        W 7913   0.173   5.612   0.030
 3850W        W 7914   6.419   8.943   1.416
 3851W        W 7915   9.162   5.770  10.505
 3852W        W 7916   7.801   4.118  11.990
 3853W        W 7917   2.381   6.026   1.779
 3854W        W 7918   4.201   1.859   2.812
 3855W        W 7919   5.910   6.847   3.844
 3856W        W 7920   2.116   7.126   9.904
 3857W        W 7921   4.001   7.923   2.265
 3858W        W 7922   4.688   0.893   8.658
 3859W        W 7923   7.307  10.007   1.620
 3860W        W 7924   7.027   2.219   3.041
 3861W        W 7925   1.924   3.332  11.026
 3862W        W 7926   1.192   9.714   8.821
 3863W        W 7927   7.442   3.730  11.136
 3864W        W 7928   5.948   3.470   1.403
 3865W        W 7929   2.355   3.174   2.850
 3866W        W 7930   7.376  10.497   0.313
 3867W        W 7931   7.844   6.527   2.770
 3868W        W 7932   2.886   6.956  11.842
 3869W        W 7933   4.968   4.676   0.429
 3870W        W 7934   2.352   4.800   2.777
 3871W        W 7935   0.672   0.633   2.299
 3872W        W 7936   9.964   4.531  10.471
 3873W        W 7937   7.155   0.441   3.306
 3874W        W 7938   1.655   1.628  11.804
 3875W        W 7939  10.209   0.628   1.408
 3876W        W 7940   9.387   4.653   9.790
 3877W        W 7941   2.824   7.033   0.410
 3878W        W 7942   8.414   6.499   0.826
 3879W        W 7943   1.406   4.178   3.278
 3880W        W 7944   3.616   6.480   1.690
 3881W        W 7945   1.300   0.240   9.021
 3882W        W 7946  10.249   6.719   0.325
 3883W        W 7947   6.942   3.681   0.353
 3884W        W 7948   4.403   0.095   2.648
 3885W        W 7949   7.488   8.793  10.766
 3886W        W 7950   3.393   1.026  11.025
 3887W        W 7951   4.650   2.348  10.719
 3888W        W 7952   4.935   8.482  10.445
 3889W        W 7953   9.309   8.571   3.264
 3890W        W 7954   4.709   9.389   2.933
 3891W        W 7955   6.135   4.054   8.635
 3892W        W 7956   9.244   7.956   8.926
 3893W        W 7957   8.130   8.356   9.060
 3894W        W 7958   7.140   2.269   1.502
 3895W        W 7959   3.374   0.582   9.788
 3896W        W 7960   2.313   7.805  11.570
 3897W        W 7961   0.444   5.203   0.187
 3898W        W 7962   1.962   4.565   0.896
 3899W        W 7963   2.822   5.962   0.053
 3900W        W 7964   6.207   1.891   3.452
 3901W        W 7965   2.603   2.540  10.284
 3902W        W 7966   6.678   0.305   9.380
 3903W        W 7967   2.923  10.345  10.652
 3904W        W 7968   8.646   4.236   1.232
 3905W        W 7969  10.277   4.524   8.742
 3906W        W 7970   6.729   1.247  10.527
 3907W        W 7971   7.533   5.662   3.095
 3908W        W 7972   5.258   6.138   9.127
 3909W        W 7973   2.360   6.762   1.159
 3910W        W 7974   4.734   3.292   0.210
 3911W        W 7975   6.034   7.541   1.678
 3912W        W 7976   7.004   6.457   1.772
 3913W        W 7977   9.659   3.442   8.587
 3914W        W 7978   4.159   1.249  11.823
 3915W        W 7979   7.954   7.508   2.634
 3916W        W 7980   7.841   9.920   9.091
 3917W        W 7981  10.220   3.661  11.309
 3918W        W 7982   2.618   5.038   2.358
 3919W        W 7983   1.306   1.860   9.057
 3920W        W 7984   5.075   4.632  11.038
 3921W        W 7985   9.383   6.428   1.767
 3922W        W 7986   5.166   8.543  11.093
 3923W        W 7987   3.708  10.443   2.212
 3924W        W 7988   9.433   7.177   1.485
 3925W        W 7989   7.425   2.077   0.703
 3926W        W 7990   5.180   7.678  11.037
 3927W        W 7991  10.377   0.697   9.584
 3928W        W 7992   4.059  10.383   0.887
 3929W        W 7993   7.558   3.572   9.955
 3930W        W 7994   4.715   1.726   9.065
 3931W        W 7995   0.224   8.640  11.401
 3932W        W 7996   0.892   5.697   0.287
 3933W        W 7997   7.077   6.693   2.255
 3934W        W 7998  10.086   3.726  11.803
 3935W        W 7999   5.658   0.773   2.193
 3936W        W 8000   4.276   9.085  10.530
 3937W        W 8001   1.265  10.444   9.444
 3938W        W 8002   6.963   9.955  10.770
 3939W        W 8003   7.926   4.094   2.392
 3940W        W 8004   2.621   0.761   3.389
 3941W        W 8005   1.701   8.324   1.782
 3942W        W 8006   8.983   0.851   2.851
 3943W        W 8007   6.935   9.003   2.718
 3944W        W 8008   2.602   2.740   2.797
 3945W        W 8009   4.610   3.669   1.562
 3946W        W 8010   0.470   0.774  11.998
 3947W        W 8011   0.348   5.349   9.871
 3948W        W 8012   2.307   8.982   1.777
 3949W        W 8013   3.718   8.959   1.336
 3950W        W 8014   8.496   0.280   9.415
 3951W        W 8015   7.011   0.324  11.267
 3952W        W 8016  10.375   4.979   2.405
 3953W        W 8017   4.598   6.893  10.263
 3954W        W 8018   7.213   8.998   0.276
 3955W        W 8019   6.221   4.331  11.754
 3956W        W 8020   4.190   0.960   8.475
 3957W        W 8021   1.932  10.416  10.654
 3958W        W 8022   7.966   0.003   0.370
 3959W        W 8023   4.320   5.765   8.291
 3960W        W 8024   9.906  10.338  11.984
 3961W        W 8025   6.110   2.327  11.266
 3962W        W 8026   8.911   4.751   2.180
 3963W        W 8027   5.239   6.665   8.506
 3964W        W 8028   6.970   2.408  10.564
 3965W        W 8029   1.065   9.106   0.240
 3966W        W 8030   5.469   4.682   0.343
 3967W        W 8031   6.958   7.719   0.573
 3968W        W 8032  10.017   3.144   2.611
 3969W        W 8033   2.407   2.936  11.825
 3970W        W 8034   2.594   6.087   3.496
 3971W        W 8035   9.419   9.022   2.535
 3972W        W 8036   6.852   9.056   1.152
 3973W        W 8037   2.348   7.657   1.726
 3974W        W 8038   9.517   8.311   9.222
 3975W        W 8039   3.695  10.335  10.811
 3976W        W 8040   9.770   4.285  10.909
 3977W        W 8041   6.482   1.466   2.788
 3978W        W 8042   5.666   2.380   2.353
 3979W        W 8043   1.206   9.563  11.984
 3980W        W 8044   6.276   7.459   1.240
 3981W        W 8045   5.593   7.375   2.781
 3982W        W 8046   8.271   0.118   8.436
 3983W        W 8047   1.680   0.456   2.525
 3984W        W 8048   7.404   5.205   8.936
 3985W        W 8049   2.733   3.578   9.252
 3986W        W 8050   2.722   0.286  10.880
 3987W        W 8051   5.079   2.254   9.184
 3988W        W 8052   2.322  10.320   2.988
 3989W        W 8053   4.297   1.667   1.908
 3990W        W 8054   4.324   6.595   9.708
 3991W        W 8055   0.760   8.863   9.857
 3992W        W 8056   6.920   9.872  11.276
 3993W        W 8057   7.241   1.738  11.313
 3994W        W 8058   9.315   5.625   9.283
 3995W        W 8059   6.206   3.109   3.587
 3996W        W 8060   0.754   8.563   1.963
 3997W        W 8061   9.391   1.866   8.582
 3998W        W 8062   4.772   8.869  11.275
 3999W        W 8063   5.286   9.854  10.100
 4000W        W 8064   1.370   7.981   1.523
 4001W        W 8065   1.246   2.939   0.392
 4002W        W 8066   1.754   5.962  10.214
 4003W        W 8067   9.359   0.696   1.954
 4004W        W 8068   2.259   2.240  11.522
 4005W        W 8069   4.545   3.910  11.017
 4006W        W 8070   0.883   7.034  10.781
 4007W        W 8071   1.510   0.295   3.371
 4008W        W 8072   0.555   1.789   9.818
 4009W        W 8073   9.518   7.108   0.984
 4010W        W 8074   0.331   7.345   1.470
 4011W        W 8075   3.209   4.821   1.275
 4012W        W 8076   2.810   5.921   2.075
 4013W        W 8077   4.172   8.006   8.753
 4014W        W 8078   6.035   4.332   8.194
 4015W        W 8079   6.485   3.344   0.563
 4016W        W 8080   2.961   7.870   8.594
 4017W        W 8081   7.110   0.930  11.874
 4018W        W 8082   3.182   0.240   9.407
 4019W        W 8083   2.693   9.960   2.836
 4020W        W 8084   8.556   7.947   3.196
 4021W        W 8085   6.933   9.513   2.964
 4022W        W 8086   6.065   7.112   1.999
 4023W        W 8087   6.577   7.409   3.120
 4024W        W 8088   1.168   0.720   2.204
 4025W        W 8089   4.544   9.778  11.779
 4026W        W 8090   0.025   4.635  10.291
 4027W        W 8091  10.471   7.591   1.231
 4028W        W 8092   2.642   4.329  11.533
 4029W        W 8093   5.209   1.714   9.851
 4030W        W 8094   4.542   0.391   9.436
 4031W        W 8095   5.124   1.178   2.330
 4032W        W 8096   6.124   7.271  10.825
 4033W        W 8097   0.406   0.664   1.851
 4034W        W 8098   5.712   5.179   1.643
 4035W        W 8099   4.903   0.440   8.650
 4036W        W 8100   7.976   9.388   0.581
 4037W        W 8101   4.229   5.652  10.474
 4038W        W 8102   9.734   8.924  10.483
 4039W        W 8103   4.299   6.205  10.530
 4040W        W 8104   8.653   9.171   3.611
 4041W        W 8105   0.745   3.574  10.293
 4042W        W 8106   2.294   7.683   1.220
 4043W        W 8107   0.996   8.755   9.413
 4044W        W 8108   4.616   4.040   8.787
 4045W        W 8109   3.351   3.820   1.332
 4046W        W 8110   7.547   2.770   1.458
 4047W        W 8111   9.568   5.570  10.264
 4048W        W 8112   3.148   6.493   2.923
 4049W        W 8113   9.519   9.370  10.052
 4050W        W 8114   2.575   7.524   8.864
 4051W        W 8115   7.500   3.650  11.634
 4052W        W 8116  10.361   5.711   1.193
 4053W        W 8117   4.562   4.704   3.450
 4054W        W 8118   2.775   1.308  10.924
 4055W        W 8119   7.882   0.256   1.612
 4056W        W 8120   1.542   5.653  10.551
 4057W        W 8121   7.535   7.060   0.171
 4058W        W 8122   0.398   9.043  10.882
 4059W        W 8123   2.866   7.502  11.170
 4060W        W 8124   6.573   9.463   1.323
 4061W        W 8125   5.635  10.417   1.940
 4062W        W 8126   7.413   5.330   9.509
 4063W        W 8127   8.010   2.287   1.388
 4064W        W 8128   6.019   3.674   9.932
 4065W        W 8129   5.814   7.469   0.326
 4066W        W 8130   3.409   7.952   1.885
 4067W        W 8131   5.690   6.900   9.231
 4068W        W 8132   6.058   9.080  10.843
 4069W        W 8133   8.469   6.442   2.130
 4070W        W 8134   0.353   8.542   1.671
 4071W        W 8135   6.928   5.001   2.791
 4072W        W 8136   4.137   3.898   8.913
 4073W        W 8137   9.045   4.024   1.530
 4074W        W 8138   4.916   6.916   8.158
 4075W        W 8139   6.138   1.393  11.237
 4076W        W 8140   7.988   8.954   3.001
 4077W        W 8141   3.264   7.112   0.736
 4078W        W 8142   4.965   0.416  10.780
 4079W        W 8143   4.064   3.951   1.384
 4080W        W 8144   6.534   2.972   0.245
 4081W        W 8145   2.259   3.533   3.223
 4082W        W 8146   1.678   7.164   0.573
 4083W        W 8147   6.034   3.155  11.108
 4084W        W 8148   4.695   3.764   3.018
 4085W        W 8149  10.292   4.123   2.858
 4086W        W 8150   7.949   3.657   3.309
 4087W        W 8151   8.427   0.675   3.329
 4088W        W 8152   8.545   1.730   3.018
 4089W        W 8153   1.356   6.481  10.818
 4090W        W 8154   4.065   5.624   1.629
 4091W        W 8155   3.262   2.455   3.104
 4092W        W 8156   2.663   9.307   9.856
 4093W        W 8157   6.214   1.769   9.935
 4094W        W 8158   0.760   4.112   1.705
 4095W        W 8159   5.576   7.023   8.734
 4096W        W 8160   6.172   8.544   0.830
 4097W        W 8161   9.173   5.955   9.994
 4098W        W 8162   3.786   3.589   1.155
 4099W        W 8163   9.051   4.602   2.640
 4100W        W 8164   9.861   0.950   1.252
 4101W        W 8165   5.020   9.518   9.246
 4102W        W 8166   2.385   2.588  10.782
 4103W        W 8167   1.371   6.562   0.905
 4104W        W 8168   2.903   8.909   9.586
 4105W        W 8169   0.948   3.826   3.251
 4106W        W 8170   4.222   1.218   1.688
 4107W        W 8171   0.683   7.323   8.882
 4108W        W 8172   5.561   3.822   1.419
 4109W        W 8173   9.044   0.347   9.970
 4110W        W 8174   0.939   2.991   2.876
 4111W        W 8175   2.948   7.183   2.715
 4112W        W 8176   3.147   3.828   9.060
 4113W        W 8177   8.354   0.327   2.945
 4114W        W 8178   9.784   8.988  11.523
 4115W        W 8179   5.072   6.705   0.767
 4116W        W 8180  10.490   2.865   1.893
 4117W        W 8181   8.654   6.644  10.793
 4118W        W 8182   4.256   9.110   2.816
 4119W        W 8183   9.972   3.073   9.326
 4120W        W 8184   7.433   9.311  10.718
 4121W        W 8185   5.979   5.302  11.503
 4122W        W 8186   9.428   4.284  10.540
 4123W        W 8187   6.689   4.286   2.314
 4124W        W 8188   3.726   9.832  10.293
 4125W        W 8189   7.310   2.201   9.236
 4126W        W 8190   9.738   0.774   0.232
 4127W        W 8191   5.065   3.736  11.004
 4128W        W 8192   0.500   8.262  10.259
 4129W        W 8193   0.835   7.868   2.732
 4130W        W 8194   5.131   3.082   3.051
 4131W        W 8195   9.920   0.281   0.734
 4132W        W 8196   7.483   6.298   0.019
 4133W        W 8197   3.565   1.105   9.858
 4134W        W 8198   8.283   4.280   9.840
 4135W        W 8199   2.249   3.268  11.466
 4136W        W 8200   4.119   6.141   8.836
 4137W        W 8201   4.597   4.653   0.102
 4138W        W 8202   7.895   1.286   8.846
 4139W        W 8203   9.525   0.829   2.738
 4140W        W 8204   6.657   2.283   1.812
 4141W        W 8205   4.765   1.867   1.388
 4142W        W 8206   5.809  10.360   3.433
 4143W        W 8207   4.355   7.388   9.403
 4144W        W 8208   5.797   3.175   1.880
 4145W        W 8209  10.419   3.280  10.614
 4146W        W 8210   5.166   9.058  10.960
 4147W        W 8211   8.613   2.877  10.948
 4148W        W 8212   5.538   0.681   1.247
 4149W        W 8213   4.229   7.767  10.292
 4150W        W 8214   2.398   5.609   8.388
 4151W        W 8215   1.337   6.090   2.444
 4152W        W 8216   4.703   4.964   0.738
 4153W        W 8217   0.293   7.978  10.625
 4154W        W 8218   7.440   6.074   0.911
 4155W        W 8219   4.610   5.227   2.583
 4156W        W 8220   5.240  10.056  10.571
 4157W        W 8221   5.740   6.219   9.895
 4158W        W 8222  10.401   1.091   2.985
 4159W        W 8223   7.494   1.083   3.420
 4160W        W 8224   5.677   9.030  10.141
 4161W        W 8225   2.711   5.727   9.070
 4162W        W 8226   3.633   1.612   9.918
 4163W        W 8227   5.715   2.388   1.397
 4164W        W 8228   3.403   5.774   9.970
 4165W        W 8229   8.028   2.933   0.677
 4166W        W 8230   3.408   6.106  11.394
 4167W        W 8231   2.457   6.487   8.602
 4168W        W 8232   2.351   1.939   1.496
 4169W        W 8233   4.573   5.598   1.810
 4170W        W 8234   6.918   2.143   9.582
 4171W        W 8235   0.367   0.029  11.347
 4172W        W 8236   8.369   6.918   2.013
 4173W        W 8237   6.446   3.368   1.315
 4174W        W 8238   9.401   6.205  10.402
 4175W        W 8239   9.068   6.848   9.070
 4176W        W 8240   2.483   2.886   1.637
 4177W        W 8241   0.764   8.329   9.829
 4178W        W 8242   1.935   8.464   2.673
 4179W        W 8243   2.735   9.245   8.839
 4180W        W 8244   8.913   9.109   9.583
 4181W        W 8245   5.956   6.771  11.613
 4182W        W 8246   8.679   4.979   9.364
 4183W        W 8247   5.046   2.709   3.382
 4184W        W 8248   1.657   3.261   1.686
 4185W        W 8249   4.286   6.448  10.999
 4186W        W 8250   2.690   9.105  11.787
 4187W        W 8251   0.789   9.406   1.899
 4188W        W 8252   7.455  10.297   2.105
 4189W        W 8253   9.767   4.354  10.003
 4190W        W 8254   4.084   0.397   3.308
 4191W        W 8255   4.526   8.946   0.658
 4192W        W 8256   7.250   5.740   2.166
 4193W        W 8257   0.774   3.745  10.777
 4194W        W 8258   3.096   2.196   2.158
 4195W        W 8259  10.423   9.851   1.428
 4196W        W 8260   5.929   9.590   3.586
 4197W        W 8261   6.939   8.143  10.783
 4198W        W 8262   0.799   5.188   2.164
 4199W        W 8263   0.468   1.884   2.222
 4200W        W 8264   1.174   6.420   8.591
 4201W        W 8265   4.496   1.711   2.387
 4202W        W 8266   0.878   3.070   8.970
 4203W        W 8267   2.729   6.475   0.843
 4204W        W 8268   0.515   7.711  11.424
 4205W        W 8269   3.709   0.445   1.971
 4206W        W 8270   0.841   1.789  11.399
 4207W        W 8271   4.942   4.252   9.109
 4208W        W 8272   7.750   0.855   1.787
 4209W        W 8273   5.485   6.697   3.568
 4210W        W 8274   1.258   6.069   9.930
 4211W        W 8275   9.995   4.022   0.216
 4212W        W 8276   8.416   1.186   3.263
 4213W        W 8277  10.261   5.435   2.653
 4214W        W 8278   5.767   7.062  10.081
 4215W        W 8279   7.477   2.725   1.963
 4216W        W 8280   9.203  10.292   9.883
 4217W        W 8281   0.312   5.448  11.058
 4218W        W 8282   4.771   7.947  10.312
 4219W        W 8283   8.869   1.474   9.177
 4220W        W 8284   1.209   3.982   1.931
 4221W        W 8285   3.742   5.836  11.714
 4222W        W 8286   6.571   8.339   2.709
 4223W        W 8287   3.212   6.967   9.067
 4224W        W 8288   1.356   2.271  11.889
 4225W        W 8289   7.860   9.480  10.505
 4226W        W 8290   6.738   4.009   9.317
 4227W        W 8291   8.392   2.613  11.901
 4228W        W 8292   8.038   9.995   0.385
 4229W        W 8293   7.589   6.606   0.479
 4230W        W 8294   8.771   9.541   2.242
 4231W        W 8295   4.625   4.188   3.304
 4232W        W 8296   5.993   8.575   9.369
 4233W        W 8297   3.748   1.327   1.912
 4234W        W 8298   0.866   6.915   9.217
 4235W        W 8299   7.871   1.809   0.053
 4236W        W 8300   6.685   6.494  11.326
 4237W        W 8301  10.449   8.299   3.109
 4238W        W 8302   9.648   3.858   8.891
 4239W        W 8303   4.227   7.413  11.269
 4240W        W 8304  10.412   9.422   0.587
 4241W        W 8305   4.658   8.923   3.128
 4242W        W 8306   3.185   3.732  10.084
 4243W        W 8307   6.058   9.573  10.982
 4244W        W 8308  10.488   9.704  11.433
 4245W        W 8309   1.493   3.685   3.040
 4246W        W 8310   7.620   1.300  10.621
 4247W        W 8311   8.377   7.072  10.777
 4248W        W 8312   4.276   5.248   8.397
 4249W        W 8313   2.317   3.908   8.793
 4250W        W 8314   4.755   6.036   1.023
 4251W        W 8315   1.897   3.057  11.901
 4252W        W 8316   3.313   7.161  10.446
 4253W        W 8317   9.330   2.832   1.694
 4254W        W 8318   3.604   2.712   2.265
 4255W        W 8319   4.719   7.028   2.480
 4256W        W 8320   6.123   2.242  10.143
 4257W        W 8321   1.818   5.987   1.753
 4258W        W 8322   7.805   9.754  11.666
 4259W        W 8323   6.672   6.161  11.961
 4260W        W 8324   9.389   9.065   1.283
 4261W        W 8325   9.430  10.491   2.664
 4262W        W 8326   1.944   9.754   0.700
 4263W        W 8327   2.056   9.946  10.407
 4264W        W 8328   0.402   2.892   0.726
 4265W        W 8329   2.167   4.508  10.854
 4266W        W 8330   3.284   4.439   3.615
 4267W        W 8331   0.041   2.811   0.344
 4268W        W 8332  10.295   8.211  10.734
 4269W        W 8333   5.241   9.479   0.772
 4270W        W 8334   4.794   2.326   1.182
 4271W        W 8335   1.714   8.475  11.778
 4272W        W 8336   3.215   7.208   1.411
 4273W        W 8337   0.261   5.148   3.607
 4274W        W 8338   8.928   6.219   8.531
 4275W        W 8339   6.947   4.075   0.687
 4276W        W 8340   1.347   7.850   0.305
 4277W        W 8341   2.862   9.831   1.872
 4278W        W 8342   2.110   6.636  11.801
 4279W        W 8343   1.933   9.439  11.479
 4280W        W 8344   5.955   4.325   9.082
 4281W        W 8345   8.008   9.713   9.922
 4282W        W 8346   8.150   8.622   2.649
 4283W        W 8347   9.365   1.714   9.840
 4284W        W 8348   3.589   3.588   2.139
 4285W        W 8349   3.562   9.527   9.906
 4286W        W 8350   1.386   3.198  11.856
 4287W        W 8351   2.196   3.726   9.822
 4288W        W 8352   3.194   8.826   3.401
 4289W        W 8353   8.366   5.247  10.958
 4290W        W 8354   3.249   0.659   2.935
 4291W        W 8355   3.766   4.586   8.330
 4292W        W 8356  10.219   6.087   2.823
 4293W        W 8357   6.553   4.879   1.270
 4294W        W 8358   3.730   4.527   1.957
 4295W        W 8359   2.587   2.033   8.853
 4296W        W 8360   4.416  10.103  10.429
 4297W        W 8361   7.058   2.304  10.063
 4298W        W 8362   9.568   2.983  10.842
 4299W        W 8363   1.672   7.529   9.047
 4300W        W 8364   6.751   6.176   3.984
 4301W        W 8365   1.796   7.049  11.755
 4302W        W 8366   0.028  10.231   9.587
 4303W        W 8367   0.255   3.110   1.213
 4304W        W 8368   9.481   5.641   0.715
 4305W        W 8369   8.978   5.035   8.943
 4306W        W 8370   8.517   6.588   1.654
 4307W        W 8371   0.879   4.774  10.721
 4308W        W 8372   2.333   4.760  11.254
 4309W        W 8373   3.861   8.295   9.483
 4310W        W 8374   2.091   1.005   1.283
 4311W        W 8375   6.358   9.785   9.200
 4312W        W 8376   5.084   4.223   8.615
 4313W        W 8377   6.152   2.240   1.664
 4314W        W 8378   4.682   5.873  10.496
 4315W        W 8379  10.319   2.981  11.908
 4316W        W 8380   8.426   4.261   0.251
 4317W        W 8381   7.832   9.007   2.499
 4318W        W 8382   2.825   8.555   2.789
 4319W        W 8383   3.365  10.370   2.927
 4320W        W 8384   0.021  10.465   0.776
 4321W        W 8385   2.760  10.325  11.670
 4322W        W 8386   8.188   6.639   3.124
 4323W        W 8387   0.255   6.538   9.276
 4324W        W 8388   4.143   9.235   1.427
 4325W        W 8389   3.474   0.380   8.560
 4326W        W 8390   6.556   3.657   1.994
 4327W        W 8391   8.965  10.198   0.058
 4328W        W 8392   0.382   8.955   2.166
 4329W        W 8393   1.338   1.282   0.027
 4330W        W 8394   8.861  10.019   2.999
 4331W        W 8395   0.564   0.979  11.032
 4332W        W 8396   5.901   6.383   3.576
 4333W        W 8397   6.175   0.961  10.937
 4334W        W 8398   7.876   0.839   0.366
 4335W        W 8399   9.580   7.361  11.887
 4336W        W 8400   2.364   1.099   8.966
 4337W        W 8401   2.031   9.823  11.816
 4338W        W 8402   3.363   7.483  11.226
 4339W        W 8403   0.031   2.669   1.059
 4340W        W 8404   2.753   2.197  11.369
 4341W        W 8405   5.229   9.996   0.011
 4342W        W 8406   6.509   8.352   1.754
 4343W        W 8407   4.723   5.505  11.823
 4344W        W 8408   1.678   7.910   9.891
 4345W        W 8409   1.302   2.781   2.595
 4346W        W 8410  10.180   7.263   0.980
 4347W        W 8411   6.557  10.263   9.388
 4348W        W 8412   4.094   8.502   9.879
 4349W        W 8413   5.975   0.004  11.756
 4350W        W 8414   0.112   5.328   0.885
 4351W        W 8415  10.276   6.545   9.071
 4352W        W 8416   8.117   4.111   9.378
 4353W        W 8417   3.353   2.396  10.412
 4354W        W 8418   7.670   5.274  11.417
 4355W        W 8419   6.622   6.909   0.381
 4356W        W 8420   6.131   1.867   0.058
 4357W        W 8421   9.298   0.292   1.296
 4358W        W 8422   5.925   5.747   9.877
 4359W        W 8423   9.026   5.692   2.462
 4360W        W 8424   9.536  10.496   0.933
 4361W        W 8425   0.476   6.073   9.352
 4362W        W 8426   7.481   6.152   2.934
 4363W        W 8427   6.102   6.132   9.530
 4364W        W 8428   6.703   3.059   9.362
 4365W        W 8429   0.835   8.969   2.700
 4366W        W 8430   4.920   2.682   1.949
 4367W        W 8431   3.065   0.205  11.304
 4368W        W 8432   4.232   1.065  10.474
 4369W        W 8433  10.416   6.960   8.748
 4370W        W 8434   3.694   3.330   3.009
 4371W        W 8435   7.564   3.997   4.338
 4372W        W 8436   9.345   6.170  11.375
 4373W        W 8437   2.690   7.416  11.656
 4374W        W 8438   0.522   7.740  11.947
 4375W        W 8439   7.166   4.971   1.919
 4376W        W 8440   0.332   5.037   2.666
 4377W        W 8441   4.140   6.277   2.898
 4378W        W 8442   3.605   3.762  10.370
 4379W        W 8443   5.565   1.668   0.920
 4380W        W 8444   3.740   0.769   8.903
 4381W        W 8445   7.544   1.342  11.121
 4382W        W 8446   2.702   9.759   9.030
 4383W        W 8447   4.713  10.041   0.799
 4384W        W 8448   6.670   8.474   2.229
 4385W        W 8449   5.047   4.002   9.883
 4386W        W 8450   6.902   0.793   9.608
 4387W        W 8451   2.122   6.890   1.904
 4388W        W 8452   8.816   2.916  -0.001
 4389W        W 8453   5.080   6.677   2.336
 4390W        W 8454   0.855   2.165   1.213
 4391W        W 8455   9.040   8.914   0.884
 4392W        W 8456   9.870   8.209   2.767
 4393W        W 8457   3.315   7.611  10.217
 4394W        W 8458   4.905   6.199  11.563
 4395W        W 8459   7.043   5.399   1.025
 4396W        W 8460   7.907   6.294   0.909
 4397W        W 8461   8.337   5.922  11.359
 4398W        W 8462   6.327   2.712  10.926
 4399W        W 8463   8.334   6.358   2.616
 4400W        W 8464  10.017   6.165  10.976
 4401W        W 8465   2.078   8.488   2.129
 4402W        W 8466   8.946   2.645   0.995
 4403W        W 8467   9.476   5.445   1.681
 4404W        W 8468   4.089   8.892   0.987
 4405W        W 8469   2.589  10.004  10.435
 4406W        W 8470   5.082   9.560   1.285
 4407W        W 8471   7.082   7.501   9.203
 4408W        W 8472  10.140   6.661  10.960
 4409W        W 8473   4.127   3.762  11.792
 4410W        W 8474   9.921   2.998   8.802
 4411W        W 8475   2.911   9.909  11.404
 4412W        W 8476   5.522   0.744   0.732
 4413W        W 8477   0.221   6.892   3.406
 4414W        W 8478   5.590  10.342   9.418
 4415W        W 8479   7.917   3.308   9.704
 4416W        W 8480   7.370   1.423   8.644
 4417W        W 8481   5.426   5.539   1.879
 4418W        W 8482   9.534   4.513   2.604
 4419W        W 8483   9.963   4.081   1.989
 4420W        W 8484   9.298   8.839  10.809
 4421W        W 8485   5.981   3.530   9.402
 4422W        W 8486   2.834   8.332   0.254
 4423W        W 8487   1.478   4.709   0.919
 4424W        W 8488   9.773   8.898  11.019
 4425W        W 8489   9.825   5.188   0.978
 4426W        W 8490   1.455   6.162   9.439
 4427W        W 8491   8.068   6.113   9.487
 4428W        W 8492   5.191   0.281  10.319
 4429W        W 8493   4.986   3.760   0.515
 4430W        W 8494   2.711   1.186  10.331
 4431W        W 8495   8.546   1.721   2.492
 4432W        W 8496   4.575   3.848  11.529
 4433W        W 8497   5.232  10.012   9.629
 4434W        W 8498   1.372   6.677   3.047
 4435W        W 8499   0.407   8.177   2.756
 4436W        W 8500   6.134   4.278   2.609
 4437W        W 8501   8.058   0.207  10.158
 4438W        W 8502   3.536   9.919   3.179
 4439W        W 8503   5.460   8.573  10.332
 4440W        W 8504   9.429   7.292   0.376
 4441W        W 8505   2.368   7.098   2.508
 4442W        W 8506   2.816   1.765   9.483
 4443W        W 8507   2.343   7.764  10.467
 4444W        W 8508   6.115   4.176   0.256
 4445W        W 8509   4.299   8.053   2.876
 4446W        W 8510   2.692   4.595   9.326
 4447W        W 8511  10.365   8.436   1.769
 4448W        W 8512   1.814   0.305   8.885
 4449W        W 8513   2.226   4.141  11.299
 4450W        W 8514   4.787   6.057   0.022
 4451W        W 8515   6.049   0.847   2.528
 4452W        W 8516   4.651   9.031   9.198
 4453W        W 8517   8.520   1.080   1.417
 4454W        W 8518   8.361   2.641   2.540
 4455W        W 8519   4.683  10.334   1.932
 4456W        W 8520   9.064   0.701  10.779
 4457W        W 8521   0.766   8.517   3.415
 4458W        W 8522   6.122   1.690   1.488
 4459W        W 8523   5.246   8.197   2.755
 4460W        W 8524   0.308   1.671   1.775
 4461W        W 8525   7.396   7.171  10.492
 4462W        W 8526   8.325   5.213   3.043
 4463W        W 8527   7.030   5.359   3.773
 4464W        W 8528  10.295   4.200  11.758
 4465W        W 8529   0.330   7.563   1.926
 4466W        W 8530   9.915   5.516   1.413
 4467W        W 8531   5.650   3.510  11.754
 4468W        W 8532   4.067   2.391  11.371
 4469W        W 8533   6.029   4.093   0.771
 4470W        W 8534   8.012   3.567  10.663
 4471W        W 8535   3.117   0.302   2.617
 4472W        W 8536   5.755   9.158  11.766
 4473W        W 8537   2.837   0.739  10.587
 4474W        W 8538   6.687   1.399   0.462
 4475W        W 8539   7.379   5.569   9.970
 4476W        W 8540   4.177   3.446   1.442
 4477W        W 8541   3.586  10.049   0.003
 4478W        W 8542   4.263   9.616   2.739
 4479W        W 8543   5.627   6.584  10.275
 4480W        W 8544   9.386   1.510  10.782
 4481W        W 8545   8.260   3.748  10.262
 4482W        W 8546   0.695   5.501  11.384
 4483W        W 8547   0.449   1.888   0.878
 4484W        W 8548   4.169   7.056   0.703
 4485W        W 8549   4.231   0.736  11.834
 4486W        W 8550   5.270   8.568   9.348
 4487W        W 8551   1.797   2.109   9.842
 4488W        W 8552   3.333   6.120   9.580
 4489W        W 8553   7.043  10.090   0.316
 4490W        W 8554   1.641   7.762   3.701
 4491W        W 8555   8.425   3.300   9.815
 4492W        W 8556   6.568   2.132  11.486
 4493W        W 8557   1.775   6.961  10.278
 4494W        W 8558   0.368   6.035   2.010
 4495W        W 8559   5.943   7.102   9.610
 4496W        W 8560   2.679   5.169   3.345
 4497W        W 8561   1.891   0.376   1.750
 4498W        W 8562   1.702   7.969  11.941
 4499W        W 8563   6.283   8.263  10.294
 4500W        W 8564   7.018   2.193   2.517
 4501W        W 8565   6.143   8.957   9.068
 4502W        W 8566   8.885   6.191  10.395
 4503W        W 8567   6.321   2.783   3.204
 4504W        W 8568   7.095   2.730   1.202
 4505W        W 8569   9.918   6.499  11.429
 4506W        W 8570   9.514   3.772   1.466
 4507W        W 8571   0.842   6.077   2.285
 4508W        W 8572   7.784   8.148   1.034
 4509W        W 8573   4.264   3.245   3.562
 4510W        W 8574   0.542   8.956   0.214
 4511W        W 8575   5.680   0.276   2.347
 4512W        W 8576   2.166   0.353  10.248
 4513W        W 8577   9.865   6.575   9.390
 4514W        W 8578   3.788   2.980   0.464
 4515W        W 8579   8.862   4.601   9.664
 4516W        W 8580   0.970   9.431  11.532
 4517W        W 8581   1.459   1.393   2.809
 4518W        W 8582   1.846   5.731   0.006
 4519W        W 8583   7.899   7.159  11.193
 4520W        W 8584   9.178   0.007   3.121
 4521W        W 8585   1.503   9.510   0.870
 4522W        W 8586   8.555   0.249   1.997
 4523W        W 8587  10.422   4.201   1.733
 4524W        W 8588   7.210   5.145   1.432
 4525W        W 8589   8.435  10.459   2.387
 4526W        W 8590   3.184   3.325  11.556
 4527W        W 8591   4.643   6.858   0.445
 4528W        W 8592   3.400   5.730  10.771
 4529W        W 8593   9.703   5.672   8.922
 4530W        W 8594   7.861   9.099  10.962
 4531W        W 8595   2.935   0.498  11.773
 4532W        W 8596   9.093   3.743   9.917
 4533W        W 8597   5.723   5.283   2.205
 4534W        W 8598   4.249  10.313   2.238
 4535W        W 8599   0.475   8.067   1.880
 4536W        W 8600   0.902   6.624  11.086
 4537W        W 8601   0.831   3.908   8.177
 4538W        W 8602   5.752   6.894   2.794
 4539W        W 8603   8.375   2.125  10.773
 4540W        W 8604   6.744   0.787  10.849
 4541W        W 8605   5.823   1.521  10.320
 4542W        W 8606   8.268   7.271  11.514
 4543W        W 8607   5.065   9.103   2.312
 4544W        W 8608   6.976   5.277   9.855
 4545W        W 8609   9.838   5.939   0.469
 4546W        W 8610   6.965   3.275   9.766
 4547W        W 8611   4.766   3.808   2.499
 4548W        W 8612   8.648   7.159   9.826
 4549W        W 8613   5.536   7.588   3.230
 4550W        W 8614   3.554   7.150  10.891
 4551W        W 8615   3.019   0.669  11.057
 4552W        W 8616   8.057   8.966  11.917
 4553W        W 8617   9.820   5.106  11.913
 4554W        W 8618   8.919   1.834   9.582
 4555W        W 8619   6.139   3.783  11.786
 4556W        W 8620   7.371   0.321  10.353
 4557W        W 8621   1.127   2.215  10.904
 4558W        W 8622   3.292   3.301   1.323
 4559W        W 8623   8.928   7.817   2.850
 4560W        W 8624   4.743   9.415   0.598
 4561W        W 8625   7.059   1.761   1.418
 4562W        W 8626   2.217   8.647  10.129
 4563W        W 8627   4.342   9.725  10.871
 4564W        W 8628   3.133   5.559   1.849
 4565W        W 8629   5.713   3.091   9.299
 4566W        W 8630   7.197   8.080  10.321
 4567W        W 8631   6.718   5.344   1.440
 4568W        W 8632   9.825   0.774  11.702
 4569W        W 8633   3.931   9.801  11.695
 4570W        W 8634   3.683   6.962   1.500
 4571W        W 8635   1.497   0.206   1.491
 4572W        W 8636   6.062   5.807  11.320
 4573W        W 8637   3.841   4.059   2.210
 4574W        W 8638   4.052   4.229   2.677
 4575W        W 8639   3.231   4.770   3.220
 4576W        W 8640   9.138   6.919   2.535
 4577W        W 8641   2.695   8.464   3.442
 4578W        W 8642   3.848   0.865   1.700
 4579W        W 8643   4.844   6.711   9.850
 4580W        W 8644   2.565   0.228  11.447
 4581W        W 8645   3.352   3.131  10.911
 4582W        W 8646   9.585   9.384   3.363
 4583W        W 8647   6.964   2.919  11.366
 4584W        W 8648   1.200   1.590   1.885
 4585W        W 8649   5.078   6.939   1.235
 4586W        W 8650   7.048   7.202   2.294
 4587W        W 8651   8.019   6.990   2.377
 4588W        W 8652   5.487   3.790   2.681
 4589W        W 8653   8.760   9.804   3.456
 4590W        W 8654   3.653   4.722   1.502
 4591W        W 8655   5.962   8.343  11.944
 4592W        W 8656   1.255   8.095   2.540
 4593W        W 8657   7.878   0.415   2.803
 4594W        W 8658   1.895   8.830  11.014
 4595W        W 8659   1.885   9.474  10.048
 4596W        W 8660   4.698   2.863   2.832
 4597W        W 8661   9.915   1.419   1.554
 4598W        W 8662   6.183   0.386   2.393
 4599W        W 8663   6.580   7.052   1.309
 4600W        W 8664   3.826   4.092   0.154
 4601W        W 8665   3.652   0.716   3.309
 4602W        W 8666   7.826   5.299   9.878
 4603W        W 8667   7.104   8.507   9.996
 4604W        W 8668   4.717   9.026  10.224
 4605W        W 8669   0.821   0.961   1.920
 4606W        W 8670   4.254   7.489   0.464
 4607W        W 8671   2.765   1.055   0.669
 4608W        W 8672   2.766   0.431   2.978
 4609W        W 8673   7.654   3.298   0.717
 4610W        W 8674   4.176   5.338  10.059
 4611W        W 8675   0.491   2.769   2.774
 4612W        W 8676   4.264   4.382   9.031
 4613W        W 8677   7.373   3.867   0.096
 4614W        W 8678   1.928   6.459  10.332
 4615W        W 8679   3.706   4.582  11.953
 4616W        W 8680   8.485   8.989   2.853
 4617W        W 8681   6.421   8.104  10.806
 4618W        W 8682  10.431   6.467  11.338
 4619W        W 8683   6.045   5.552   8.995
 4620W        W 8684   0.730   5.919   2.764
 4621W        W 8685   0.051   6.597   1.233
 4622W        W 8686   8.665  10.464  10.869
 4623W        W 8687   0.031   2.679  10.041
 4624W        W 8688   9.830   5.165  11.051
 4625W        W 8689   5.063   2.816  11.417
 4626W        W 8690   0.602   9.007  11.336
 4627W        W 8691   2.722   2.318   8.458
 4628W        W 8692   8.726   1.058   9.391
 4629W        W 8693   3.500   4.168  11.766
 4630W        W 8694   8.808   8.874  10.627
 4631W        W 8695   8.489   5.020   2.269
 4632W        W 8696   1.116   2.951   0.941
 4633W        W 8697   9.382   6.483   9.236
 4634W        W 8698   7.118   8.351   0.814
 4635W        W 8699   9.869   2.340   1.661
 4636W        W 8700   5.621   4.735   2.833
 4637W        W 8701   2.934  10.425  10.158
 4638W        W 8702   4.514   0.565   2.496
 4639W        W 8703   6.766   6.226   9.923
 4640W        W 8704   5.917   8.589   3.407
 4641W        W 8705   3.064   8.051   2.614
 4642W        W 8706   5.091   9.014   8.927
 4643W        W 8707   6.545   3.608   9.999
 4644W        W 8708   2.549   3.304   9.851
 4645W        W 8709   0.956   6.162  10.864
 4646W        W 8710   8.872   7.426   3.215
 4647W        W 8711   6.866   6.558   3.648
 4648W        W 8712  10.343   4.715   9.821
 4649W        W 8713   5.474   0.442   1.846
 4650W        W 8714   5.500   3.608   1.915
 4651W        W 8715   8.517   7.723   1.402
 4652W        W 8716   6.502   4.552   4.132
 4653W        W 8717   1.807   9.797   1.179
 4654W        W 8718   8.630   4.135   9.479
 4655W        W 8719   0.376   2.874  11.954
 4656W        W 8720   4.987   8.577   2.951
 4657W        W 8721   8.402   5.177   3.522
 4658W        W 8722   8.033  10.327   8.828
 4659W        W 8723  10.432   2.487  11.935
 4660W        W 8724   4.297   8.591   2.819
 4661W        W 8725   9.582  10.073  10.908
 4662W        W 8726   3.903   4.641   9.369
 4663W        W 8727   1.149   7.424   9.065
 4664W        W 8728   4.783   2.092  11.765
 4665W        W 8729   8.767   0.137  11.367
 4666W        W 8730   3.869   5.573   8.460
 4667W        W 8731   3.728   2.286   1.503
 4668W        W 8732   2.208   2.362   9.016
 4669W        W 8733   7.391   4.590   0.818
 4670W        W 8734   5.165   0.842   9.438
 4671W        W 8735   7.020   8.477   1.789
 4672W        W 8736   9.374   3.241   3.289
 4673W        W 8737   0.830   1.008   8.901
 4674W        W 8738   1.159   7.967  11.059
 4675W        W 8739  10.493   0.509   2.182
 4676W        W 8740   5.666   7.037  10.964
 4677W        W 8741   6.570  10.107   3.456
 4678W        W 8742   8.516   1.483  10.849
 4679W        W 8743   7.538   4.800  10.736
 4680W        W 8744   4.686   4.688  10.460
 4681W        W 8745   3.766   0.897  11.679
 4682W        W 8746   9.605   3.837  10.322
 4683W        W 8747   8.663   3.203   9.351
 4684W        W 8748   3.327   5.524  11.986
 4685W        W 8749   5.691   4.797   9.867
 4686W        W 8750   0.254   0.827  10.176
 4687W        W 8751   3.214   5.927   8.516
 4688W        W 8752   1.811   7.911  10.411
 4689W        W 8753   6.584  10.224   1.868
 4690W        W 8754   8.094   9.858   1.916
 4691W        W 8755   4.600   7.871  11.172
 4692W        W 8756   2.611   0.901   1.154
 4693W        W 8757   6.208   7.410   0.017
 4694W        W 8758   9.291   2.462   9.572
 4695W        W 8759   1.808   6.756   2.772
 4696W        W 8760   1.671   6.847   9.794
 4697W        W 8761   0.217   2.030   9.519
 4698W        W 8762   8.534   6.050  11.821
 4699W        W 8763   3.203   2.844   8.873
 4700W        W 8764   9.962   0.929   1.762
 4701W        W 8765   5.474   8.993   0.803
 4702W        W 8766   6.116   3.260  11.657
 4703W        W 8767   9.990   1.723  11.918
 4704W        W 8768   3.011   4.099  11.820
 4705W        W 8769   1.758   1.296  10.242
 4706W        W 8770   3.576   0.066  11.245
 4707W        W 8771   0.391   6.916   8.964
 4708W        W 8772   7.138   5.757   1.373
 4709W        W 8773   5.493   2.852   9.714
 4710W        W 8774   8.411   2.073   1.662
 4711W        W 8775   8.450   9.749   0.258
 4712W        W 8776   6.443   9.348   0.360
 4713W        W 8777   6.981   4.672   4.341
 4714W        W 8778   8.548   3.805   9.852
 4715W        W 8779   3.216   2.311   1.424
 4716W        W 8780   1.389   5.208   1.373
 4717W        W 8781   0.200   0.686   3.184
 4718W        W 8782   7.896   4.998  11.050
 4719W        W 8783   0.713   4.981   9.751
 4720W        W 8784  10.281   5.665   9.627
 4721W        W 8785  10.139   3.608   8.497
 4722W        W 8786   9.117   4.739  10.645
 4723W        W 8787   7.616   0.419   0.362
 4724W        W 8788   5.262   4.055   2.291
 4725W        W 8789   9.803   9.833   3.261
 4726W        W 8790   1.941   8.317  11.025
 4727W        W 8791   9.253   4.051  11.800
 4728W        W 8792   1.400   5.554  10.044
 4729W        W 8793   2.167   8.457   9.664
 4730W        W 8794   8.441   6.430  11.281
 4731W        W 8795   8.345   8.377   3.048
 4732W        W 8796   7.694   9.971   1.298
 4733W        W 8797   7.078   3.584  10.176
 4734W        W 8798   9.393   6.010  10.896
 4735W        W 8799   7.794  10.227   1.735
 4736W        W 8800   4.749   5.810   9.562
 4737W        W 8801   6.163   6.246   2.291
 4738W        W 8802   7.528   2.181  10.247
 4739W        W 8803   6.610   0.221   0.696
 4740W        W 8804   6.157   0.926   8.423
 4741W        W 8805   7.378   0.881   0.403
 4742W        W 8806   9.585   3.858   9.810
 4743W        W 8807  10.384   9.219   2.050
 4744W        W 8808   6.122   8.048   1.898
 4745W        W 8809  10.212   1.560   0.333
 4746W        W 8810   7.104   5.089   0.182
 4747W        W 8811   8.594   3.054   2.327
 4748W        W 8812   2.804   5.197   9.047
 4749W        W 8813   8.248   6.200   9.938
 4750W        W 8814   4.216   6.722  10.556
 4751W        W 8815   3.636   3.662   8.926
 4752W        W 8816   0.855   3.526   8.704
 4753W        W 8817   4.317   3.307  10.459
 4754W        W 8818   3.680   6.721  10.051
 4755W        W 8819   0.787   0.722   3.185
 4756W        W 8820   2.776   8.348  10.871
 4757W        W 8821   4.665   4.936   9.345
 4758W        W 8822   5.517   5.861  10.766
 4759W        W 8823   5.310   5.059   1.941
 4760W        W 8824   7.532   0.775   9.597
 4761W        W 8825   5.137   6.203  11.046
 4762W        W 8826   6.509   6.083   3.025
 4763W        W 8827   5.491   1.338   9.465
 4764W        W 8828  10.425   3.515   0.466
 4765W        W 8829   2.483   5.240  11.502
 4766W        W 8830  10.030   3.962   3.608
 4767W        W 8831   9.396   6.588   2.246
 4768W        W 8832   2.662   1.219   9.441
 4769W        W 8833  10.413   9.119  10.891
 4770W        W 8834   0.872   3.106   0.069
 4771W        W 8835   4.611   6.433   3.728
 4772W        W 8836   2.445   5.157   0.002
 4773W        W 8837   7.763   0.651  10.079
 4774W        W 8838   0.851   0.277   3.603
 4775W        W 8839   3.111  10.431   1.430
 4776W        W 8840   8.410   7.315   2.511
 4777W        W 8841   8.407   7.520   2.973
 4778W        W 8842   0.849   7.661   0.353
 4779W        W 8843   0.931   9.514   0.917
 4780W        W 8844   0.931   9.865  11.268
 4781W        W 8845   8.735   9.782  11.807
 4782W        W 8846   1.048   6.328   2.797
 4783W        W 8847  10.445   9.972   0.913
 4784W        W 8848   4.579   2.985  11.427
 4785W        W 8849   1.828   0.919   2.915
 4786W        W 8850   1.701   2.459   2.496
 4787W        W 8851   5.991   0.523   0.134
 4788W        W 8852   8.066   4.876   1.152
 4789W        W 8853   2.750   2.465   2.410
 4790W        W 8854   0.281   3.644  10.519
 4791W        W 8855   3.627   6.213  10.049
 4792W        W 8856   6.571   5.228   0.886
 4793W        W 8857   6.590   5.940   9.539
 4794W        W 8858   6.699   8.688   0.849
 4795W        W 8859   2.323   0.749   2.857
 4796W        W 8860   6.760   9.115   0.027
 4797W        W 8861   1.780   3.055   8.874
 4798W        W 8862   4.968   7.326   9.936
 4799W        W 8863   1.915  10.022   0.275
 4800W        W 8864   8.988   1.631   8.353
 4801W        W 8865   6.557   0.678   2.205
 4802W        W 8866   9.563   6.611   3.177
 4803W        W 8867   2.254   3.385   8.864
 4804W        W 8868   1.768   7.450   0.168
 4805W        W 8869   1.306   6.120  10.456
 4806W        W 8870   3.860   4.624   8.835
 4807W        W 8871   3.708   8.589   9.072
 4808W        W 8872   4.077   2.379   8.930
 4809W        W 8873   1.195   7.979   9.673
 4810W        W 8874   4.172   4.825   8.113
 4811W        W 8875   3.946   2.745  10.865
 4812W        W 8876   4.029   0.002   1.825
 4813W        W 8877   6.574   9.978   1.278
 4814W        W 8878   7.003   6.188   2.195
 4815W        W 8879   4.297  10.040   9.452
 4816W        W 8880   3.665   0.813   0.684
 4817W        W 8881  10.407   3.565   0.986
 4818W        W 8882   1.237   1.067  11.559
 4819W        W 8883   9.591   7.860   0.800
 4820W        W 8884   5.542   3.455   8.968
 4821W        W 8885   7.007   2.424  11.554
 4822W        W 8886   0.988   4.206  11.324
 4823W        W 8887   9.464   0.021  10.713
 4824W        W 8888   1.241  10.220   9.901
 4825W        W 8889   4.337   0.498  11.338
 4826W        W 8890   2.713   9.976   9.931
 4827W        W 8891   4.151   2.915   3.162
 4828W        W 8892  10.452   9.432  10.512
 4829W        W 8893   3.280   8.420   1.580
 4830W        W 8894   3.350   3.194   2.633
 4831W        W 8895   3.248   5.132  10.250
 4832W        W 8896   5.234   0.012   2.287
 4833W        W 8897   9.496   1.873   1.491
 4834W        W 8898   4.154   8.947   3.307
 4835W        W 8899   2.331   5.278   8.807
 4836W        W 8900   7.930   8.455   0.121
 4837W        W 8901   0.470   4.326   9.328
 4838W        W 8902   4.566   6.973   3.937
 4839W        W 8903   9.869   4.666   0.755
 4840W        W 8904   8.137   9.044   1.796
 4841W        W 8905   0.680   9.881  10.823
 4842W        W 8906   5.184   0.422  11.665
 4843W        W 8907   4.935   7.081   9.493
 4844W        W 8908   9.751   4.159  11.801
 4845W        W 8909   1.340   5.792   8.528
 4846W        W 8910   5.733   9.886  10.345
 4847W        W 8911   2.367   4.553   2.302
 4848W        W 8912   4.133   6.909  10.064
 4849W        W 8913   6.940   4.419   1.055
 4850W        W 8914   5.739  10.067   0.023
 4851W        W 8915   9.402   2.972   8.667
 4852W        W 8916   8.114   4.339  11.311
 4853W        W 8917   6.625   9.943  10.371
 4854W        W 8918   5.472   3.584   3.944
 4855W        W 8919   2.950   6.430  11.871
 4856W        W 8920   6.832   7.207   3.531
 4857W        W 8921   2.355  10.439   2.297
 4858W        W 8922   9.737   2.168  10.251
 4859W        W 8923   6.976   4.612   0.550
 4860W        W 8924   3.683   9.496   2.175
 4861W        W 8925   0.290   4.161   3.059
 4862W        W 8926   3.077   0.450   8.926
 4863W        W 8927   0.702   6.673   1.900
 4864W        W 8928   6.643   2.587  11.907
 4865W        W 8929   6.354   9.172   3.694
 4866W        W 8930   4.700   1.831  10.063
 4867W        W 8931   0.665   3.611   2.497
 4868W        W 8932   4.485   0.325   8.926
 4869W        W 8933   0.878   6.350   0.888
 4870W        W 8934   0.339   2.333  11.006
 4871W        W 8935  10.389   0.856   0.972
 4872W        W 8936   3.607   3.674  11.936
 4873W        W 8937   7.565   8.771  11.947
 4874W        W 8938   8.526   1.367  10.059
 4875W        W 8939   7.100   7.617  10.658
 4876W        W 8940   0.354  10.024   1.217
 4877W        W 8941   5.130   6.904   0.280
 4878W        W 8942   4.920   0.038   1.406
 4879W        W 8943   4.337   7.013   1.832
 4880W        W 8944   6.459   0.287   9.850
 4881W        W 8945   0.771  10.387   0.361
 4882W        W 8946   8.389   3.152  10.336
 4883W        W 8947   2.988   5.316   0.887
 4884W        W 8948   5.972   3.215   2.694
 4885W        W 8949   2.432   6.474   9.440
 4886W        W 8950   4.956   3.219   3.492
 4887W        W 8951   6.938   0.789  10.388
 4888W        W 8952   6.351   4.599   2.084
 4889W        W 8953   1.892   8.433  10.520
 4890W        W 8954   2.631   0.726  11.395
 4891W        W 8955   7.973   1.573   8.427
 4892W        W 8956   9.462   6.706   1.344
 4893W        W 8957   1.000   0.247   1.386
 4894W        W 8958   7.194   7.682   2.232
 4895W        W 8959   5.136   7.594  10.376
 4896W        W 8960   9.416   9.531   1.519
 4897W        W 8961   0.003   8.495   1.288
 4898W        W 8962   7.387   6.683   2.929
 4899W        W 8963   8.662   2.216   8.800
 4900W        W 8964   8.207   9.975  11.885
 4901W        W 8965   2.338   2.642   8.587
 4902W        W 8966   6.642   4.938   1.786
 4903W        W 8967   0.174   8.488   0.805
 4904W        W 8968   9.249   2.739   2.721
 4905W        W 8969   4.414   6.189  11.438
 4906W        W 8970   3.127  10.315   0.477
 4907W        W 8971   8.948   1.180  10.778
 4908W        W 8972   2.790   1.251   8.625
 4909W        W 8973   8.851   2.617  10.440
 4910W        W 8974   7.805   4.980   9.173
 4911W        W 8975   0.841   4.474   9.642
 4912W        W 8976   6.413   2.855  10.437
 4913W        W 8977   0.231   8.985   0.660
 4914W        W 8978   6.464   1.147   2.404
 4915W        W 8979   5.908   3.633   4.231
 4916W        W 8980   6.478   7.363   2.622
 4917W        W 8981   7.547   3.770   2.966
 4918W        W 8982   9.634   3.252   1.783
 4919W        W 8983   9.378   1.809  11.247
 4920W        W 8984   9.451   7.784   0.293
 4921W        W 8985   1.465   8.785   0.129
 4922W        W 8986   7.028   5.491   9.139
 4923W        W 8987   0.036   4.157  10.514
 4924W        W 8988   7.706   8.085  10.387
 4925W        W 8989   0.747   7.071   3.372
 4926W        W 8990   0.637   9.833   2.139
 4927W        W 8991   2.205   1.291  11.004
 4928W        W 8992   3.292   6.013  11.872
 4929W        W 8993   0.029   3.317  11.107
 4930W        W 8994   8.551   3.316   1.190
 4931W        W 8995   4.484   6.473   1.723
 4932W        W 8996   5.985   2.611  10.444
 4933W        W 8997   1.718   8.002   2.777
 4934W        W 8998   6.960   9.499  10.000
 4935W        W 8999   7.207   6.573  11.213
 4936W        W 9000   2.484   7.544   2.752
 4937W        W 9001   7.277   1.686   0.963
 4938W        W 9002   6.245   4.512   3.414
 4939W        W 9003   6.027   0.426  10.109
 4940W        W 9004   0.152   4.735   1.972
 4941W        W 9005   0.531   4.051   3.499
 4942W        W 9006   9.947   3.516   0.265
 4943W        W 9007   7.912   7.189   1.908
 4944W        W 9008   4.696   4.050   3.797
 4945W        W 9009  10.029   9.056   2.374
 4946W        W 9010   8.543   4.943   8.410
 4947W        W 9011   7.477   4.142  10.439
 4948W        W 9012   2.233   1.145  11.865
 4949W        W 9013   0.775   3.682   2.004
 4950W        W 9014   9.093   1.669   1.193
 4951W        W 9015   4.428   4.204  11.892
 4952W        W 9016   5.574   1.397   1.549
 4953W        W 9017   7.473   0.753   2.618
 4954W        W 9018   6.671   4.700   3.656
 4955W        W 9019   1.002   9.006   1.656
 4956W        W 9020   1.990   6.218   9.464
 4957W        W 9021   3.676   2.695   3.252
 4958W        W 9022   2.331   4.263  10.037
 4959W        W 9023   7.600   7.962   3.249
 4960W        W 9024   8.879   8.930   3.199
 4961W        W 9025   0.173   4.762   0.294
 4962W        W 9026   2.769   4.816  11.650
 4963W        W 9027   6.254   8.366   9.772
 4964W        W 9028   1.032   3.521   2.850
 4965W        W 9029   6.856   8.967   2.205
 4966W        W 9030   2.664   8.507   1.667
 4967W        W 9031   6.955   3.823  11.319
 4968W        W 9032  10.316   8.841   3.355
 4969W        W 9033   1.958   2.546  11.819
 4970W        W 9034   5.613   0.891   9.193
 4971W        W 9035   7.511   8.732   2.815
 4972W        W 9036   0.831   4.314   3.159
 4973W        W 9037   5.424   3.300   9.931
 4974W        W 9038   3.065   4.080   2.850
 4975W        W 9039   7.836   4.524  11.695
 4976W        W 9040   1.400   2.984   2.105
 4977W        W 9041   7.600   9.778   1.966
 4978W        W 9042   0.793   3.184   0.569
 4979W        W 9043   3.598   6.439   2.704
 4980W        W 9044   2.764   9.073   0.689
 4981W        W 9045   9.122   6.537   3.421
 4982W        W 9046   5.473   0.608  10.695
 4983W        W 9047   0.890   9.848   2.574
 4984W        W 9048   7.545  10.049   8.709
 4985W        W 9049   4.216   7.773  11.619
 4986W        W 9050   1.975   1.035   2.435
 4987W        W 9051   2.158  10.091   1.428
 4988W        W 9052   3.605   1.960   2.625
 4989W        W 9053   7.438   4.272  10.923
 4990W        W 9054   7.193   1.793   8.956
 4991W        W 9055   8.567   6.838   1.198
 4992W        W 9056   7.927   2.705   2.233
 4993W        W 9057   9.443   5.576   9.775
 4994W        W 9058   4.614   7.870   1.913
 4995W        W 9059   4.821   0.333  11.302
 4996W        W 9060   6.402   0.854  10.470
 4997W        W 9061   1.633   2.827  10.449
 4998W        W 9062   0.735   1.695   3.348
 4999W        W 9063   4.528   7.107   9.799
 5000W        W 9064   1.828   2.587   8.612
 5001W        W 9065   9.799   5.922  10.580
 5002W        W 9066   4.837   7.591   9.474
 5003W        W 9067   3.387   6.542   9.280
 5004W        W 9068   0.481   2.550   0.320
 5005W        W 9069   1.870   4.209   8.800
 5006W        W 9070   2.183   1.693   8.778
 5007W        W 9071   2.713   3.796   9.787
 5008W        W 9072   4.824   1.174  11.377
 5009W        W 9073   1.650   5.190   0.695
 5010W        W 9074   9.925   6.105   9.126
 5011W        W 9075   9.033   4.213   2.032
 5012W        W 9076   9.198  10.084   9.403
 5013W        W 9077   6.514   9.478  10.244
 5014W        W 9078   8.275   4.510   8.557
 5015W        W 9079   8.822   2.083  11.633
 5016W        W 9080   8.116   9.261  10.129
 5017W        W 9081   9.954   2.101   3.196
 5018W        W 9082  10.210   5.647   9.094
 5019W        W 9083   7.102   6.773  10.338
 5020W        W 9084   9.964  10.280  10.515
 5021W        W 9085   2.255   0.733   8.534
 5022W        W 9086   4.740   5.995   0.529
 5023W        W 9087   8.100   6.733  10.535
 5024W        W 9088   1.150   1.948   3.142
 5025W        W 9089   8.472   5.495   1.673
 5026W        W 9090   5.546   3.353   2.943
 5027W        W 9091  10.288   7.510   2.779
 5028W        W 9092   8.814   4.230   2.903
 5029W        W 9093   0.186   5.648   9.274
 5030W        W 9094   7.594   4.628  10.266
 5031W        W 9095   6.241   0.200   1.516
 5032W        W 9096   4.301  10.038   1.760
 5033W        W 9097   7.964   9.576   0.117
 5034W        W 9098   6.478   4.558   9.958
 5035W        W 9099   9.301   8.362   9.681
 5036W        W 9100   4.164   2.230  10.881
 5037W        W 9101   0.356   4.957   1.191
 5038W        W 9102   3.871   7.208   1.912
 5039W        W 9103   1.633  10.367   1.835
 5040W        W 9104   4.686   7.469   2.794
 5041W        W 9105   8.859   9.816   8.852
 5042W        W 9106   2.084   7.179   2.926
 5043W        W 9107   1.760   1.314   3.267
 5044W        W 9108   8.066   2.137   0.417
 5045W        W 9109   7.031   6.258  10.334
 5046W        W 9110   0.712   4.342  11.749
 5047W        W 9111   5.927   7.848   0.001
 5048W        W 9112  10.343   0.930  10.509
 5049W        W 9113   9.955   6.018   1.418
 5050W        W 9114   7.521   3.623  10.478
 5051W        W 9115   1.439   0.065   0.987
 5052W        W 9116   5.944   6.597   0.286
 5053W        W 9117   2.674   7.454   0.171
 5054W        W 9118   0.225   4.110  10.053
 5055W        W 9119   5.941  10.041  11.553
 5056W        W 9120   9.337   7.879   9.433
 5057W        W 9121   4.424   0.394   8.400
 5058W        W 9122   7.929   7.680  11.351
 5059W        W 9123   6.144   5.932  11.808
 5060W        W 9124   1.841   8.969  11.709
 5061W        W 9125   6.431   6.907  11.519
 5062W        W 9126   4.737   3.383  11.699
 5063W        W 9127   8.479   2.204   2.251
 5064W        W 9128   6.903   5.143  11.236
 5065W        W 9129   5.579   7.890  11.312
 5066W        W 9130   9.331   3.752   1.945
 5067W        W 9131   2.935   0.632   2.073
 5068W        W 9132   5.290   0.457  11.156
 5069W        W 9133   2.880   8.571   0.725
 5070W        W 9134   4.065   1.545  10.583
 5071W        W 9135   1.827   4.921  11.601
 5072W        W 9136   2.815   0.116   2.227
 5073W        W 9137   4.152   0.788   0.897
 5074W        W 9138   6.142   6.748   2.348
 5075W        W 9139   3.690   6.123   0.235
 5076W        W 9140   8.805   5.977  10.858
 5077W        W 9141   7.892   9.885   3.322
 5078W        W 9142   4.162   7.490   3.539
 5079W        W 9143   2.563   7.099   3.052
 5080W        W 9144   2.786   1.255   1.481
 5081W        W 9145   1.968   7.517   0.817
 5082W        W 9146   1.218   5.744   2.834
 5083W        W 9147   8.503   7.430  11.103
 5084W        W 9148   3.938   6.780   2.883
 5085W        W 9149   6.990   7.627   0.073
 5086W        W 9150   7.954   0.080   2.085
 5087W        W 9151   0.291   2.314   2.418
 5088W        W 9152   7.964   0.931   2.816
 5089W        W 9153   5.788   3.435   8.490
 5090W        W 9154   5.273   4.627   3.184
 5091W        W 9155   6.508   1.976   2.795
 5092W        W 9156   6.644   0.674  11.776
 5093W        W 9157   1.907   9.914  11.324
 5094W        W 9158   4.712   0.905   1.674
 5095W        W 9159   9.871   8.367   1.884
 5096W        W 9160   7.558   5.718   2.585
 5097W        W 9161   0.334  10.401   3.466
 5098W        W 9162   8.160   1.820   2.168
 5099W        W 9163   9.007   1.166   1.240
 5100W        W 9164   3.861   6.442   4.089
 5101W        W 9165   6.864   3.175   8.801
 5102W        W 9166   8.700   0.420   2.543
 5103W        W 9167   1.143   6.882   1.804
 5104W        W 9168   7.939   0.940  10.465
 5105W        W 9169   9.053   9.486  11.467
 5106W        W 9170   5.061   1.265   0.903
 5107W        W 9171   9.930   0.450  11.285
 5108W        W 9172   5.945   1.062  10.494
 5109W        W 9173   9.981   6.529   1.337
 5110W        W 9174   5.578  10.201   1.430
 5111W        W 9175   7.453   2.897   0.445
 5112W        W 9176   8.631   1.643   8.745
 5113W        W 9177   6.104   9.917   2.191
 5114W        W 9178   2.292   4.666   0.253
 5115W        W 9179   1.691   8.764   0.601
 5116W        W 9180   0.318   1.176   9.049
 5117W        W 9181  10.294   5.278  11.878
 5118W        W 9182   4.046   6.663  11.929
 5119W        W 9183   8.239   0.989   9.504
 5120W        W 9184   4.321   1.763  10.955
 5121W        W 9185   5.728   5.276   1.128
 5122W        W 9186   1.685   3.157  10.067
 5123W        W 9187  10.126   7.903   3.093
 5124W        W 9188   5.614   8.890  11.166
 5125W        W 9189   4.724   0.272  10.115
 5126W        W 9190   3.632   2.459   9.587
 5127W        W 9191   3.633   2.231  11.576
 5128W        W 9192   0.498   6.348  10.773
 5129W        W 9193   8.994   0.367   1.700
 5130W        W 9194   7.136   6.683   0.223
 5131W        W 9195   7.548   9.485   1.284
 5132W        W 9196   1.628   2.514   9.599
 5133W        W 9197   1.389   6.094   8.940
 5134W        W 9198   2.475   4.148   0.368
 5135W        W 9199   0.899   8.990   2.185
 5136W        W 9200   2.308   0.546   1.428
 5137W        W 9201   6.430   9.351  11.258
 5138W        W 9202   1.595   8.563   3.626
 5139W        W 9203  10.182   6.998   1.883
 5140W        W 9204  10.362   9.316   9.504
 5141W        W 9205   0.731   9.427  11.057
 5142W        W 9206   2.498   5.124   0.924
 5143W        W 9207   0.811   2.390  11.256
 5144W        W 9208   4.177   1.228   1.179
 5145W        W 9209   6.010   5.724   0.400
 5146W        W 9210   2.245   4.246  11.853
 5147W        W 9211   9.078   8.793   0.061
 5148W        W 9212   9.465  10.022   0.223
 5149W        W 9213   4.775   6.539  11.214
 5150W        W 9214   9.377   2.225   1.870
 5151W        W 9215   1.740   7.132   9.363
 5152W        W 9216   3.891   5.484  10.808
 5153W        W 9217   4.626   3.761   0.044
 5154W        W 9218   4.355   4.282  10.428
 5155W        W 9219   2.831   0.908   9.038
 5156W        W 9220   5.322   6.233  11.895
 5157W        W 9221   4.201   0.307   1.227
 5158W        W 9222   3.197   2.377   0.559
 5159W        W 9223   8.923   1.647  10.581
 5160W        W 9224  10.361   3.733  10.224
 5161W        W 9225   6.295   9.027  10.374
 5162W        W 9226   9.573   3.281   9.070
 5163W        W 9227   1.734   9.041  10.287
 5164W        W 9228   6.111   3.636  11.291
 5165W        W 9229   0.856   1.193   3.381
 5166W        W 9230   3.538  10.484   1.718
 5167W        W 9231   4.982   9.494   8.737
 5168W        W 9232   0.350   9.101  11.772
 5169W        W 9233   2.232   8.692   8.815
 5170W        W 9234   0.347   1.280   1.256
 5171W        W 9235   6.456   3.829   1.502
 5172W        W 9236   2.810   5.938   2.586
 5173W        W 9237   0.239   5.502   2.841
 5174W        W 9238   0.888   4.418   2.658
 5175W        W 9239   3.527   2.160  10.002
 5176W        W 9240   4.698   6.074   9.078
 5177W        W 9241   7.013   6.380   0.882
 5178W        W 9242   8.104   8.703   2.161
 5179W        W 9243   5.181   7.195  10.935
 5180W        W 9244   8.959   1.573  11.093
 5181W        W 9245   9.772   4.380   8.809
 5182W        W 9246   0.270   1.429   2.216
 5183W        W 9247   1.316   7.650   2.810
 5184W        W 9248   0.476   6.000   0.158
 5185W        W 9249   6.242   6.499  10.603
 5186W        W 9250   8.286   3.645   1.846
 5187W        W 9251   9.010   6.074   9.452
 5188W        W 9252   0.642   5.367  10.524
 5189W        W 9253   2.203   0.213   8.544
 5190W        W 9254   1.633   8.681   2.312
 5191W        W 9255   5.628   8.504   0.706
 5192W        W 9256   5.210   6.013   0.327
 5193W        W 9257   4.573   1.936   3.204
 5194W        W 9258   4.088   3.763   9.857
 5195W        W 9259   2.911   6.050  11.518
 5196W        W 9260   0.879   1.379  11.744
 5197W        W 9261   6.280   1.682   0.961
 5198W        W 9262   8.210   0.400   2.433
 5199W        W 9263   9.521   7.099   3.018
 5200W        W 9264   3.146   8.070  10.583
 5201W        W 9265  10.155   2.155   9.911
 5202W        W 9266   7.718   8.996   0.377
 5203W        W 9267   5.830   6.517   1.368
 5204W        W 9268   4.571  10.054   1.303
 5205W        W 9269   7.127   8.562  11.035
 5206W        W 9270   1.455   6.118  11.795
 5207W        W 9271   8.676   5.573  11.192
 5208W        W 9272   2.282   7.817   9.217
 5209W        W 9273   4.211   4.048   3.616
 5210W        W 9274   1.686   9.965   3.194
 5211W        W 9275   7.141   4.088   8.451
 5212W        W 9276   8.047   9.445   9.135
 5213W        W 9277   1.939   5.034   0.120
 5214W        W 9278   4.282   8.359   2.244
 5215W        W 9279   0.386   4.189   2.540
 5216W        W 9280   5.389   6.370   1.701
 5217W        W 9281   7.341   9.015   1.316
 5218W        W 9282   7.709   3.748   1.023
 5219W        W 9283   1.336   4.747   2.758
 5220W        W 9284   4.258   6.192   9.377
 5221W        W 9285   6.095   3.040   1.198
 5222W        W 9286   6.172   9.985  10.585
 5223W        W 9287   7.656   1.837   9.327
 5224W        W 9288   8.101   7.579  11.869
 5225W        W 9289  10.250   1.856   9.496
 5226W        W 9290   5.071   5.048   2.379
 5227W        W 9291   5.797   8.182  10.474
 5228W        W 9292   9.204   5.521   8.790
 5229W        W 9293   1.699  10.265   1.307
 5230W        W 9294   2.661   2.224   9.314
 5231W        W 9295   7.730   6.037   0.475
 5232W        W 9296   4.350   8.582   1.297
 5233W        W 9297   6.886   3.951   1.234
 5234W        W 9298   9.435   5.616   3.168
 5235W        W 9299   5.082   8.596   0.123
 5236W        W 9300   4.824   2.285  10.249
 5237W        W 9301   9.391   1.954   2.912
 5238W        W 9302   2.421   2.782   2.150
 5239W        W 9303   8.752   1.187   2.524
 5240W        W 9304   1.494   9.494   3.061
 5241W        W 9305   7.212   0.571  10.850
 5242W        W 9306   0.797   4.181   2.212
 5243W        W 9307  10.245   4.504   2.134
 5244W        W 9308   5.415   6.159   3.387
 5245W        W 9309   8.632   0.481   0.668
 5246W        W 9310   4.522   4.038   9.322
 5247W        W 9311   6.592   7.428   0.356
 5248W        W 9312   1.482  10.216   0.077
 5249W        W 9313   0.935   2.093   8.510
 5250W        W 9314   2.936   8.110   1.867
 5251W        W 9315   8.472   6.478  10.317
 5252W        W 9316   2.120   4.217   1.885
 5253W        W 9317   4.868  10.073   8.417
 5254W        W 9318   2.041   1.862   1.085
 5255W        W 9319   0.367   3.423   9.482
 5256W        W 9320   9.467   3.292   0.883
 5257W        W 9321   4.957   7.800   1.113
 5258W        W 9322   6.487   3.768   3.487
 5259W        W 9323   9.909   3.053   9.849
 5260W        W 9324   0.486   5.066   1.690
 5261W        W 9325   2.207   2.164   8.516
 5262W        W 9326   9.093   8.674   2.306
 5263W        W 9327   9.490   0.011   9.474
 5264W        W 9328   6.434   8.208  11.849
 5265W        W 9329  10.435   9.757   9.831
 5266W        W 9330   9.667   2.156   9.744
 5267W        W 9331   8.919   0.666   1.268
 5268W        W 9332   9.420   7.410   9.602
 5269W        W 9333   4.864   1.350   0.449
 5270W        W 9334   1.992   6.178   2.730
 5271W        W 9335   6.101   2.226   2.620
 5272W        W 9336   9.756   9.493   0.418
 5273W        W 9337   9.838   1.144   3.039
 5274W        W 9338   3.394   2.801   1.422
 5275W        W 9339   1.772   5.155   2.200
 5276W        W 9340   4.562   3.649   3.494
 5277W        W 9341   4.615   0.943   0.668
 5278W        W 9342   7.557   8.952   3.263
 5279W        W 9343   1.677   5.730  11.516
 5280W        W 9344   4.857   4.381   9.591
 5281W        W 9345   5.541   7.443   0.759
 5282W        W 9346   7.810   8.018  10.939
 5283W        W 9347   3.198   5.556   8.918
 5284W        W 9348   3.922   6.153  11.353
 5285W        W 9349   9.269  10.441   1.773
 5286W        W 9350   6.992   0.804   2.436
 5287W        W 9351   5.231   7.014   2.675
 5288W        W 9352   0.455   6.860   1.474
 5289W        W 9353   2.927   3.267   3.470
 5290W        W 9354   0.883   2.336   2.663
 5291W        W 9355  10.005   4.114  11.355
 5292W        W 9356   0.093   6.056   8.403
 5293W        W 9357   5.076   7.068   3.521
 5294W        W 9358   9.698   2.881   2.997
 5295W        W 9359   7.402  10.012  11.483
 5296W        W 9360  10.432   3.093   0.752
 5297W        W 9361   9.426   9.506   0.994
 5298W        W 9362   4.626   8.118   0.899
 5299W        W 9363   8.865   9.954   0.490
 5300W        W 9364   4.284   0.413   9.893
 5301W        W 9365   8.458   5.403   9.509
 5302W        W 9366  10.423   2.139   9.092
 5303W        W 9367   2.566   9.663   2.263
 5304W        W 9368   5.273   7.406   1.197
 5305W        W 9369   1.735   6.168   0.761
 5306W        W 9370   9.512   0.498  10.982
 5307W        W 9371  10.029   8.860   1.873
 5308W        W 9372   9.715   0.830   9.438
 5309W        W 9373   9.296   5.948   2.799
 5310W        W 9374   5.214   8.298   1.944
 5311W        W 9375   2.155   0.424   9.362
 5312W        W 9376   4.010  10.239   1.375
 5313W        W 9377   0.324   0.295  10.255
 5314W        W 9378   4.060   4.988   1.309
 5315W        W 9379   3.194   0.868   0.440
 5316W        W 9380  10.055   2.423   8.828
 5317W        W 9381  10.315   5.225   3.365
 5318W        W 9382   9.066   3.226   0.407
 5319W        W 9383   6.973  10.447  10.959
 5320W        W 9384   4.056   4.459   1.347
 5321W        W 9385   6.060   9.018  11.362
 5322W        W 9386   1.967   4.239  10.406
 5323W        W 9387   7.576   1.450  11.635
 5324W        W 9388   2.901   9.837   0.463
 5325W        W 9389   7.654   5.239   2.686
 5326W        W 9390   0.924   8.427   8.877
 5327W        W 9391  10.302   4.530  11.358
 5328W        W 9392   0.760   4.522   1.354
 5329W        W 9393   3.045   0.988   9.701
 5330W        W 9394   1.183   8.885   8.953
 5331W        W 9395   7.481   3.803   2.432
 5332W        W 9396   5.221   5.849  11.376
 5333W        W 9397   4.353   7.085   2.851
 5334W        W 9398   7.471   3.741   3.472
 5335W        W 9399   0.195   3.166   3.252
 5336W        W 9400   7.429   6.995   1.978
 5337W        W 9401   2.693   6.516   3.217
 5338W        W 9402   5.151   2.606   2.853
 5339W        W 9403   2.370   6.871   0.614
 5340W        W 9404   9.043   6.931   3.050
 5341W        W 9405   8.359   0.883   0.490
 5342W        W 9406   5.357   6.517   1.199
 5343W        W 9407   2.263   7.546   2.221
 5344W        W 9408   5.028   9.463  11.239
 5345W        W 9409   9.805   0.717   3.318
 5346W        W 9410   9.360   2.866   1.181
 5347W        W 9411   0.801   7.425   9.964
 5348W        W 9412   5.184   4.725   8.736
 5349W        W 9413   6.439   1.368   8.999
 5350W        W 9414   1.506   2.763   1.237
 5351W        W 9415   9.405   8.540  10.335
 5352W        W 9416   0.653   6.466   0.032
 5353W        W 9417   1.360   8.444   9.179
 5354W        W 9418   7.574   7.066   1.180
 5355W        W 9419   4.218   6.787   4.265
 5356W        W 9420   0.496   0.347   1.440
 5357W        W 9421   8.174   8.012  10.567
 5358W        W 9422   4.140   6.151  11.897
 5359W        W 9423   7.980   5.867   9.073
 5360W        W 9424   9.968   7.856   1.786
 5361W        W 9425   5.617   8.956  10.644
 5362W        W 9426   7.837   1.400   1.991
 5363W        W 9427   0.083   0.225   2.946
 5364W        W 9428   1.282   3.663   1.545
 5365W        W 9429   8.406   7.004   0.725
 5366W        W 9430   1.273   7.064   9.506
 5367W        W 9431   4.104   5.360   8.880
 5368W        W 9432   6.137   3.534   2.252
 5369W        W 9433   9.808   2.752   1.977
 5370W        W 9434   6.547   6.163   0.827
 5371W        W 9435   9.409   4.727   9.292
 5372W        W 9436   1.568   1.322   0.541
 5373W        W 9437   9.470   5.634  11.276
 5374W        W 9438   0.769   2.990  10.539
 5375W        W 9439   2.425   5.611   3.247
 5376W        W 9440   0.647   9.388   2.396
 5377W        W 9441   2.421   0.371   9.798
 5378W        W 9442   9.971   1.892   1.279
 5379W        W 9443   2.244   7.292  11.895
 5380W        W 9444   6.943   3.780  11.842
 5381W        W 9445   4.598   8.332   3.194
 5382W        W 9446   5.608   9.845  10.880
 5383W        W 9447   8.352   6.593   8.999
 5384W        W 9448   8.813   9.857  10.257
 5385W        W 9449   4.540   9.067   1.152
 5386W        W 9450   3.195   9.181   1.017
 5387W        W 9451   3.721   8.088   8.998
 5388W        W 9452   5.953   3.570   3.550
 5389W        W 9453   8.353   0.050   0.848
 5390W        W 9454   2.010   9.401   0.355
 5391W        W 9455   4.730   1.497  11.006
 5392W        W 9456   2.337   9.172   2.290
 5393W        W 9457   6.592   4.814  10.914
 5394W        W 9458   0.313   7.483  11.003
 5395W        W 9459   9.249   1.890   0.502
 5396W        W 9460   4.174   0.461   1.752
 5397W        W 9461   2.296   4.392   8.568
 5398W        W 9462   4.119   3.549   2.297
 5399W        W 9463   7.428   6.529   8.429
 5400W        W 9464   2.922   0.369   9.840
 5401W        W 9465   4.732   7.211   9.033
 5402W        W 9466   0.794   3.118   9.491
 5403W        W 9467   0.040   1.167   0.339
 5404W        W 9468   7.507   5.675   9.143
 5405W        W 9469   1.272   1.971   0.762
 5406W        W 9470   5.156   8.961  10.460
 5407W        W 9471  10.406   0.055  10.919
 5408W        W 9472   3.153   7.709   2.243
 5409W        W 9473   2.865   6.171   9.342
 5410W        W 9474   7.076   6.949  10.860
 5411W        W 9475   0.347   5.026  10.772
 5412W        W 9476   3.758   1.273   0.867
 5413W        W 9477   9.089   0.259   0.811
 5414W        W 9478   7.934   3.354  10.210
 5415W        W 9479   8.110   2.743   9.056
 5416W        W 9480   9.888   9.779  10.621
 5417W        W 9481   4.285   8.819   8.322
 5418W        W 9482   6.269  10.301   9.815
 5419W        W 9483  10.329   4.736   9.297
 5420W        W 9484   3.195   6.262   0.289
 5421W        W 9485   5.037   3.836   1.883
 5422W        W 9486  10.210   5.746  11.726
 5423W        W 9487   3.327   5.265   2.252
 5424W        W 9488   1.240   6.570   9.685
 5425W        W 9489   1.692   7.863  10.905
 5426W        W 9490   7.270   7.185   9.985
 5427W        W 9491   5.754   1.779  10.754
 5428W        W 9492   3.049   3.263   9.978
 5429W        W 9493   7.299   6.099   9.911
 5430W        W 9494   6.424   1.207   0.851
 5431W        W 9495   7.550   0.220  11.870
 5432W        W 9496   1.962   9.381   2.820
 5433W        W 9497   8.849   6.982   3.513
 5434W        W 9498   0.467   6.897   2.965
 5435W        W 9499   6.187   0.143   9.413
 5436W        W 9500   1.916   7.576   9.511
 5437W        W 9501   7.153   4.543  10.519
 5438W        W 9502   5.231   2.657   2.351
 5439W        W 9503   5.683   3.908   9.146
 5440W        W 9504   4.280   9.965   8.903
 5441W        W 9505   3.396   7.428   1.847
 5442W        W 9506   5.664   0.283  11.449
 5443W        W 9507   1.261   7.083  10.042
 5444W        W 9508   7.461   8.269  11.909
 5445W        W 9509   2.895   1.033   2.460
 5446W        W 9510   0.071   7.533   0.197
 5447W        W 9511   5.030   7.560   3.475
 5448W        W 9512   1.251   3.719   9.572
 5449W        W 9513   4.686   4.728   2.445
 5450W        W 9514   4.218   9.368   0.871
 5451W        W 9515   3.227   1.439   9.586
 5452W        W 9516   3.202   7.070   3.600
 5453W        W 9517   1.156   5.394   1.832
 5454W        W 9518  10.026   7.041   9.576
 5455W        W 9519   9.847   7.776   8.439
 5456W        W 9520   7.541   8.173   9.901
 5457W        W 9521  10.036   6.405   3.211
 5458W        W 9522   6.531   0.245  11.436
 5459W        W 9523   1.996   4.774   9.010
 5460W        W 9524   5.643   0.906   1.683
 5461W        W 9525   2.426  10.477  10.546
 5462W        W 9526   0.156   9.809   2.334
 5463W        W 9527   2.614   4.319   2.786
 5464W        W 9528   6.109   8.807  11.840
 5465W        W 9529   4.696   6.032   1.530
 5466W        W 9530   7.527   4.274   2.828
 5467W        W 9531   5.275   3.596   0.947
 5468W        W 9532   4.599   5.936   3.787
 5469W        W 9533   9.936   9.565   3.712
 5470W        W 9534   3.440   1.822   1.351
 5471W        W 9535   4.422   5.682   1.273
 5472W        W 9536   7.692   9.968   9.586
 5473W        W 9537   6.042   9.479  10.478
 5474W        W 9538   8.337   7.032   8.655
 5475W        W 9539   8.484   8.027   2.697
 5476W        W 9540   2.869   7.580   1.825
 5477W        W 9541   2.009   1.310   3.730
 5478W        W 9542   3.613   9.185   0.278
 5479W        W 9543   1.411   7.097   1.010
 5480W        W 9544   1.691   0.209   9.369
 5481W        W 9545   6.733   6.560  10.785
 5482W        W 9546   5.627   9.822   9.377
 5483W        W 9547   0.338   0.966   9.521
 5484W        W 9548  10.460   6.166   0.976
 5485W        W 9549   5.065   6.162  10.565
 5486W        W 9550   0.105   9.186  11.339
 5487W        W 9551   7.088   7.143   1.367
 5488W        W 9552   4.981  10.444   8.795
 5489W        W 9553   3.756   6.204   9.175
 5490W        W 9554   3.338   0.470   1.162
 5491W        W 9555   4.810   2.911  10.989
 5492W        W 9556   2.739   3.238  11.271
 5493W        W 9557   6.499   9.926   2.990
 5494W        W 9558   4.248   9.548  11.380
 5495W        W 9559   0.719   9.133   0.644
 5496W        W 9560   8.991   2.186   8.378
 5497W        W 9561   9.958   6.643   9.908
 5498W        W 9562   5.160  10.005  11.109
 5499W        W 9563   7.038   2.655   2.780
 5500W        W 9564   3.804   2.950   9.677
 5501W        W 9565   3.218   2.371  11.280
 5502W        W 9566   6.560   3.777   8.907
 5503W        W 9567   1.031   7.900  11.911
 5504W        W 9568  10.332   3.155  10.124
 5505W        W 9569   3.107   2.813   2.234
 5506W        W 9570   0.486   5.640   2.369
 5507W        W 9571   7.745   1.553   1.062
 5508W        W 9572   1.141   9.728   9.739
 5509W        W 9573   2.165   6.107   9.941
 5510W        W 9574   9.292   6.506   8.739
 5511W        W 9575   0.085   6.009   3.419
 5512W        W 9576   8.083   6.455   0.442
 5513W        W 9577   7.543   1.924   1.349
 5514W        W 9578   9.850   3.353   3.042
 5515W        W 9579   5.429   2.969   8.876
 5516W        W 9580   6.010   6.612   1.843
 5517W        W 9581   6.166   0.858   3.034
 5518W        W 9582   7.584   1.579   9.755
 5519W        W 9583   0.432   6.491  11.260
 5520W        W 9584   6.289   6.153   0.345
 5521W        W 9585   3.791   3.168   2.358
 5522W        W 9586   2.842   0.458   1.302
 5523W        W 9587   3.733   9.521  11.305
 5524W        W 9588   0.773   3.626   3.678
 5525W        W 9589   7.953   6.678   1.812
 5526W        W 9590   9.211   2.782   9.143
 5527W        W 9591   1.293   0.985   9.520
 5528W        W 9592   1.373   1.483   9.531
 5529W        W 9593   1.846   3.794  11.260
 5530W        W 9594   9.067   5.286  11.421
 5531W        W 9595   4.227   8.023   0.154
 5532W        W 9596   5.072   4.094   2.801
 5533W        W 9597   3.741   3.303   9.290
 5534W        W 9598   6.076   3.260   0.187
 5535W        W 9599   3.532   8.009   2.415
 5536W        W 9600   3.329   0.688  10.630
 5537W        W 9601   0.128   7.063   0.885
 5538W        W 9602   4.496   7.604   0.041
 5539W        W 9603   1.882   0.815  10.424
 5540W        W 9604   7.476   5.383   4.036
 5541W        W 9605   1.787   6.659   0.597
 5542W        W 9606   3.944   5.532   1.136
 5543W        W 9607   8.611   8.812   2.250
 5544W        W 9608   5.057   4.894  11.484
 5545W        W 9609   9.076   5.760  11.583
 5546W        W 9610   5.243   6.425   9.989
 5547W        W 9611   5.689   6.475   0.831
 5548W        W 9612   2.394  10.402   3.483
 5549W        W 9613   2.485   0.862  10.932
 5550W        W 9614   1.038   5.681  10.454
 5551W        W 9615   7.134   2.239   2.008
 5552W        W 9616   3.988   0.311  10.935
 5553W        W 9617   7.457   6.285   2.450
 5554W        W 9618   2.257   1.908   9.252
 5555W        W 9619   5.935   7.608   3.547
 5556W        W 9620   4.413  10.341   0.504
 5557W        W 9621   4.116   6.634   8.608
 5558W        W 9622   5.743   2.528  11.827
 5559W        W 9623   6.965   7.144   9.540
 5560W        W 9624   7.420   2.238  10.734
 5561W        W 9625   6.439   5.688   0.132
 5562W        W 9626   3.323   9.636   8.510
 5563W        W 9627   2.172   5.920   0.873
 5564W        W 9628   5.989   2.817   0.432
 5565W        W 9629   6.493   2.458   8.556
 5566W        W 9630   0.825   2.768   2.381
 5567W        W 9631   2.074   8.457   0.717
 5568W        W 9632   4.213   6.108   0.427
 5569W        W 9633   5.726   1.275  10.925
 5570W        W 9634   6.403   9.124   0.914
 5571W        W 9635   0.041   6.468   3.121
 5572W        W 9636   5.165   1.824   8.834
 5573W        W 9637   5.902   0.957   0.438
 5574W        W 9638   2.070   9.977   3.510
 5575W        W 9639   4.671   9.427  10.573
 5576W        W 9640   7.049   8.583   1.272
 5577W        W 9641   1.695   8.531   9.534
 5578W        W 9642   8.038   7.892   2.964
 5579W        W 9643   6.106   0.491  11.125
 5580W        W 9644   1.170   0.428   0.185
 5581W        W 9645   1.510   4.262   0.250
 5582W        W 9646   9.351   4.521   3.637
 5583W        W 9647   3.145   3.623   9.565
 5584W        W 9648   8.893   8.803  11.551
 5585W        W 9649   9.795   7.427   0.719
 5586W        W 9650   3.284   1.569  10.874
 5587W        W 9651   7.397   1.631   0.466
 5588W        W 9652   5.915   8.020   2.351
 5589W        W 9653   6.983   2.770   9.753
 5590W        W 9654   2.698   2.839   0.929
 5591W        W 9655   3.037   9.785   3.179
 5592W        W 9656   9.584   7.197   2.500
 5593W        W 9657   8.174   6.259   3.550
 5594W        W 9658   4.711   0.334  11.953
 5595W        W 9659   0.252   5.425   1.369
 5596W        W 9660   5.983   7.986   1.405
 5597W        W 9661   6.566   3.642  11.030
 5598W        W 9662   7.099   1.369   3.176
 5599W        W 9663   9.989   7.076   2.794
 5600W        W 9664   9.822   0.977  11.221
 5601W        W 9665   5.231   3.155   9.387
 5602W        W 9666   9.300   6.036   8.977
 5603W        W 9667   1.327   9.971   1.897
 5604W        W 9668   6.965   8.099  11.831
 5605W        W 9669   3.134   6.667   0.550
 5606W        W 9670   7.279  10.399  10.041
 5607W        W 9671   7.516   2.376   1.137
 5608W        W 9672   6.594   2.108  10.003
 5609W        W 9673   9.463   1.049   0.940
 5610W        W 9674   2.249   9.137  10.099
 5611W        W 9675   8.082   1.409  11.852
 5612W        W 9676   5.641   3.404   2.365
 5613W        W 9677   3.811   5.953   9.613
 5614W        W 9678  10.450   1.951   0.043
 5615W        W 9679   4.147   1.312   2.232
 5616W        W 9680   4.688   9.289   1.976
 5617W        W 9681   7.841   5.606   0.199
 5618W        W 9682   5.552   8.915   2.503
 5619W        W 9683   0.790   5.185  10.990
 5620W        W 9684   8.984   4.580   0.776
 5621W        W 9685   5.250   9.986   9.087
 5622W        W 9686   0.213   6.949   0.375
 5623W        W 9687   8.023   4.516   9.052
 5624W        W 9688   0.212   2.798   2.338
 5625W        W 9689   7.458   3.142  10.251
 5626W        W 9690   1.429   9.229   3.864
 5627W        W 9691   2.263  10.042  10.922
 5628W        W 9692   8.889   8.822   1.355
 5629W        W 9693   6.567   7.849   2.837
 5630W        W 9694   0.931   8.629   0.129
 5631W        W 9695   4.180   6.112   1.472
 5632W        W 9696   6.563   8.659   0.008
 5633W        W 9697   2.425   1.736   0.191
 5634W        W 9698   0.175   9.925   8.864
 5635W        W 9699   7.542   8.050   2.254
 5636W        W 9700   2.278   5.111   1.997
 5637W        W 9701   2.726   3.569  10.279
 5638W        W 9702   5.285   2.642   1.182
 5639W        W 9703   5.936   9.008   1.187
 5640W        W 9704   7.906   3.186   3.520
 5641W        W 9705   4.692   7.929  11.688
 5642W        W 9706   1.959   8.914   0.204
 5643W        W 9707  10.486   0.245   9.387
 5644W        W 9708   4.993   4.458  10.099
 5645W        W 9709   0.444  10.351   2.922
 5646W        W 9710   4.579   2.855   3.494
 5647W        W 9711   7.262   3.180   1.546
 5648W        W 9712   8.434   8.099   9.798
 5649W        W 9713   1.566   8.558  11.303
 5650W        W 9714   0.866   7.984   1.229
 5651W        W 9715   8.153   3.651   1.227
 5652W        W 9716   1.913   7.863   1.969
 5653W        W 9717   2.868   9.422   1.381
 5654W        W 9718   8.502   2.433   1.260
 5655W        W 9719   1.832   1.172   9.750
 5656W        W 9720   3.324   5.042   1.778
 5657W        W 9721   7.095   5.984   9.071
 5658W        W 9722   0.117   5.399  10.509
 5659W        W 9723   6.078  10.274   1.707
 5660W        W 9724   4.083   2.908  11.377
 5661W        W 9725   6.406   9.298   9.360
 5662W        W 9726   6.926   8.942  11.294
 5663W        W 9727   3.490   2.212   1.016
 5664W        W 9728   3.340   6.738  11.746
 5665W        W 9729   0.596   4.981  11.419
 5666W        W 9730  10.369   5.428  11.361
 5667W        W 9731   5.536   4.121   1.846
 5668W        W 9732   0.873   2.390   3.183
 5669W        W 9733   5.217   7.008   9.084
 5670W        W 9734   3.256   5.153   9.281
 5671W        W 9735   0.476   8.251   9.094
 5672W        W 9736   0.995   7.374   0.781
 5673W        W 9737   0.997   2.121   0.244
 5674W        W 9738   7.859   6.645   0.008
 5675W        W 9739   9.339   0.546   3.117
 5676W        W 9740   4.577   4.531   3.937
 5677W        W 9741   6.423   0.155  11.960
 5678W        W 9742  10.488   3.928   0.153
 5679W        W 9743   6.105   9.323   9.987
 5680W        W 9744   4.565   5.310   9.690
 5681W        W 9745   8.534   5.891   9.540
 5682W        W 9746   9.903   8.284  11.984
 5683W        W 9747   5.655   1.814   8.980
 5684W        W 9748   1.244   0.315  11.036
 5685W        W 9749   3.237   8.369   8.868
 5686W        W 9750   9.468   7.835  10.971
 5687W        W 9751   9.926   9.795   1.685
 5688W        W 9752   5.702   3.475  10.347
 5689W        W 9753   7.354   3.120   8.878
 5690W        W 9754   1.840   7.899   0.465
 5691W        W 9755   1.376   3.840   1.054
 5692W        W 9756   5.139   8.645   0.637
 5693W        W 9757   0.748   0.882  11.548
 5694W        W 9758   1.406   0.236   9.884
 5695W        W 9759   8.149   5.968   1.344
 5696W        W 9760   9.488   5.706   1.230
 5697W        W 9761   0.878   5.432  10.020
 5698W        W 9762   3.678   5.905   3.640
 5699W        W 9763   3.486  10.303   9.386
 5700W        W 9764   7.686   1.778   8.826
 5701W        W 9765   1.301   4.960  10.957
 5702W        W 9766   7.734   6.356   9.793
 5703W        W 9767   5.083   3.640   1.407
 5704W        W 9768   1.206  10.265   1.402
 5705W        W 9769   6.603   3.252   3.294
 5706W        W 9770   0.843   3.997   9.469
 5707W        W 9771   1.313   7.841  10.559
 5708W        W 9772   3.395   7.538   2.689
 5709W        W 9773   2.809   4.074  10.205
 5710W        W 9774   1.665   2.810  11.498
 5711W        W 9775   0.850   6.473  11.568
 5712W        W 9776   5.447   8.430   3.179
 5713W        W 9777   2.116   3.132   1.872
 5714W        W 9778   5.993   5.455  11.981
 5715W        W 9779   7.652   0.105   0.765
 5716W        W 9780   2.131   9.316   9.617
 5717W        W 9781   7.665   1.218   0.664
 5718W        W 9782   3.711   3.628   1.655
 5719W        W 9783   7.127  10.458   3.144
 5720W        W 9784   5.683   0.787  11.134
 5721W        W 9785   7.991   2.622   0.247
 5722W        W 9786   3.330   0.728  11.460
 5723W        W 9787   8.794   2.321   9.790
 5724W        W 9788   2.769   1.457   9.890
 5725W        W 9789   6.932   4.925  10.252
 5726W        W 9790   4.421   5.164   3.629
 5727W        W 9791   1.243   9.293   1.260
 5728W        W 9792   2.409   5.664   9.961
 5729W        W 9793   3.222   3.313   9.119
 5730W        W 9794   9.116   3.296   1.882
 5731W        W 9795   5.498   3.722   0.513
 5732W        W 9796   0.192   9.567  11.952
 5733W        W 9797   5.100   3.151   1.171
 5734W        W 9798   5.667   6.500   3.124
 5735W        W 9799  10.350   7.194  10.861
 5736W        W 9800   9.878   9.045   1.430
 5737W        W 9801   6.887   9.929   2.616
 5738W        W 9802   4.606   2.384   0.698
 5739W        W 9803   1.348   0.881   0.363
 5740W        W 9804   6.148   0.064  10.765
 5741W        W 9805   3.762   5.011   2.139
 5742W        W 9806   1.255   1.008   3.103
 5743W        W 9807   3.881   0.896  11.185
 5744W        W 9808   7.427   9.560   9.756
 5745W        W 9809   7.033   8.140  11.312
 5746W        W 9810  10.091  10.443   2.886
 5747W        W 9811   1.843   1.671   9.601
 5748W        W 9812   4.739  10.455   9.667
 5749W        W 9813   6.283   9.943   8.699
 5750W        W 9814   2.827   7.591   9.304
 5751W        W 9815   2.416   6.114  11.466
 5752W        W 9816   7.607   5.378   2.163
 5753W        W 9817   4.552   3.105   1.825
 5754W        W 9818   8.965   0.418   9.133
 5755W        W 9819   8.305   2.222  10.261
 5756W        W 9820   9.151  10.313   1.265
 5757W        W 9821   6.978   6.079  10.802
 5758W        W 9822   4.441   7.740   1.234
 5759W        W 9823   9.463   2.103   3.380
 5760W        W 9824   4.146   7.017   3.312
 5761W        W 9825   4.588   8.810   2.143
 5762W        W 9826   2.169   2.367   9.547
 5763W        W 9827   4.676   8.386  11.446
 5764W        W 9828   4.533   5.485   9.221
 5765W        W 9829   5.178   0.952  10.932
 5766W        W 9830   9.446   4.908   2.932
 5767W        W 9831  10.319   2.918   3.600
 5768W        W 9832   4.626   0.437   1.526
 5769W        W 9833   3.426   5.602   8.161
 5770W        W 9834   8.611   0.974   0.917
 5771W        W 9835   1.468   9.284   8.767
 5772W        W 9836   2.215   6.413   0.783
 5773W        W 9837   2.909   4.807   0.865
 5774W        W 9838   8.094   8.533   1.121
 5775W        W 9839   8.863   7.409  10.240
 5776W        W 9840   0.975  10.202  10.558
 5777W        W 9841   7.351   4.111   1.031
 5778W        W 9842   1.162   6.521  11.996
 5779W        W 9843   2.487   9.601  10.763
 5780W        W 9844   7.098   9.936  10.222
 5781W        W 9845   3.109   7.930   9.563
 5782W        W 9846   0.426   5.214   9.377
 5783W        W 9847   9.060   7.936   3.347
 5784W        W 9848   0.306   8.604  11.917
 5785W        W 9849   7.443   5.611   3.587
 5786W        W 9850   0.532   8.626  10.612
 5787W        W 9851   8.380   9.453   1.955
 5788W        W 9852   8.944   6.622  11.492
 5789W        W 9853   0.865   2.141   9.030
 5790W        W 9854   7.498   6.489   1.982
 5791W        W 9855   4.539   4.146   1.311
 5792W        W 9856   0.461   4.559  10.532
 5793W        W 9857   3.701   0.799   2.742
 5794W        W 9858   5.518   3.318  10.839
 5795W        W 9859   2.499   1.736  11.341
 5796W        W 9860   2.383   0.353   1.953
 5797W        W 9861   3.175   5.277   3.246
 5798W        W 9862   4.234  10.208  11.725
 5799W        W 9863   0.510   4.603   3.453
 5800W        W 9864   9.144   6.632  10.567
 5801W        W 9865  10.267   7.209   0.478
 5802W        W 9866   0.726   6.066   9.840
 5803W        W 9867   0.183   8.130   0.085
 5804W        W 9868   2.128   2.108   0.022
 5805W        W 9869   3.656   5.025   4.215
 5806W        W 9870   4.635   5.731   2.430
 5807W        W 9871   7.531   2.636  12.000
 5808W        W 9872   9.013   9.452  10.493
 5809W        W 9873  10.007  10.253  11.063
 5810W        W 9874   3.351   8.382   0.610
 5811W        W 9875   0.957  10.403   0.974
 5812W        W 9876   8.454   1.749  10.403
 5813W        W 9877   3.155   4.800   0.379
 5814W        W 9878   5.656   2.313   2.887
 5815W        W 9879   0.502   1.127  10.504
 5816W        W 9880   3.679   8.161   3.359
 5817W        W 9881   9.357   9.425   0.055
 5818W        W 9882   1.712   3.768  10.273
 5819W        W 9883   6.216   7.685  11.126
 5820W        W 9884   2.593  10.390   1.347
 5821W        W 9885   9.090   9.890   0.943
 5822W        W 9886   0.666   8.233  11.964
 5823W        W 9887   9.978   4.621  11.789
 5824W        W 9888   1.480   3.479   2.551
 5825W        W 9889   3.799   9.323   2.673
 5826W        W 9890   3.069   9.597   9.885
 5827W        W 9891   0.359   3.910   9.621
 5828W        W 9892   1.327   3.712   9.069
 5829W        W 9893   0.875   8.583   1.399
 5830W        W 9894   4.064   7.498   8.958
 5831W        W 9895   3.336   0.465   0.156
 5832W        W 9896   9.463   9.988   1.748
 5833W        W 9897   2.319   5.975   0.367
 5834W        W 9898   3.817   0.422  11.951
 5835W        W 9899   1.086   9.924   3.508
 5836W        W 9900   9.508   3.448  11.019
 5837W        W 9901   2.108   4.354   2.764
 5838W        W 9902   5.025   7.112   8.619
 5839W        W 9903   4.231   1.796   9.807
 5840W        W 9904   0.494  10.297   0.792
 5841W        W 9905   2.674   5.950  10.791
 5842W        W 9906   0.786   0.318   9.982
 5843W        W 9907   6.565   1.648  11.830
 5844W        W 9908   4.552   5.067   3.077
 5845W        W 9909   3.932   5.040   3.758
 5846W        W 9910   1.946   4.699   1.997
 5847W        W 9911   1.855   7.042   8.866
 5848W        W 9912   8.289   2.353   9.764
 5849W        W 9913   4.651   5.013  11.759
 5850W        W 9914   5.085   4.977  10.109
 5851W        W 9915   0.211   7.044   1.901
 5852W        W 9916  10.274   0.062   2.097
 5853W        W 9917   6.781   6.995   9.988
 5854W        W 9918   1.049   3.973  10.420
 5855W        W 9919   6.938   4.529   1.954
 5856W        W 9920   5.963   6.448   2.719
 5857W        W 9921   1.960   9.764   9.441
 5858W        W 9922   3.061  10.008  11.974
 5859W        W 9923   2.578   6.604  11.569
 5860W        W 9924   4.722   0.732  11.626
 5861W        W 9925   7.135   1.712   9.984
 5862W        W 9926   2.624  10.276   1.855
 5863W        W 9927  10.070   9.575   2.873
 5864W        W 9928   2.111   2.234   2.296
 5865W        W 9929   1.291   3.117  11.357
 5866W        W 9930   3.754   9.334   9.475
 5867W        W 9931   0.511  10.482  11.870
 5868W        W 9932   0.962   3.367  11.639
 5869W        W 9933  10.316   7.946   9.731
 5870W        W 9934   6.114   6.649   9.466
 5871W        W 9935   0.486   5.726  10.181
 5872W        W 9936   6.718   5.036   4.070
 5873W        W 9937   7.846   3.106   0.196
 5874W        W 9938   3.774   7.140   0.360
 5875W        W 9939   6.485   4.086  10.212
 5876W        W 9940   7.786   8.575   3.519
 5877W        W 9941   6.616   2.607  10.051
 5878W        W 9942   5.983   5.699   1.239
 5879W        W 9943   4.137   4.267   1.806
 5880W        W 9944  10.470  10.411  10.386
 5881W        W 9945   5.543   9.590  11.944
 5882W        W 9946   5.525   0.222   3.188
 5883W        W 9947   6.442   4.036  11.368
 5884W        W 9948   9.431   1.299   2.221
 5885W        W 9949   8.328   5.755  10.873
 5886W        W 9950   5.730   2.147   3.397
 5887W        W 9951   3.093   9.368   1.844
 5888W        W 9952   5.029   5.032   2.883
 5889W        W 9953   2.525   2.755   9.425
 5890W        W 9954   0.344   3.037   9.822
 5891W        W 9955   4.112   3.881  11.293
 5892W        W 9956   1.296   9.010   2.512
 5893W        W 9957   1.987   0.438   3.553
 5894W        W 9958   7.851   8.424   3.034
 5895W        W 9959   6.490   7.294   1.754
 5896W        W 9960   7.241   0.859   9.997
 5897W        W 9961   1.262   8.160   3.534
 5898W        W 9962   6.610   5.681   3.873
 5899W        W 9963   2.318   5.191  10.209
 5900W        W 9964   4.995   3.409   8.071
 5901W        W 9965   1.136   4.316   1.013
 5902W        W 9966   1.595   4.959   9.921
 5903W        W 9967   8.688   1.561   3.490
 5904W        W 9968   3.508   3.113   1.909
 5905W        W 9969   2.181   5.250   3.562
 5906W        W 9970   5.551   2.640   3.308
 5907W        W 9971   7.241   6.217   0.458
 5908W        W 9972   5.228   1.347  11.675
 5909W        W 9973   9.110   7.050   0.675
 5910W        W 9974   2.293   2.803   9.906
 5911W        W 9975  10.031   4.031  10.516
 5912W        W 9976  10.079   1.325  10.213
 5913W        W 9977   7.746   9.490   2.639
 5914W        W 9978   0.852   1.620  10.302
 5915W        W 9979   3.770   8.464  11.024
 5916W        W 9980   3.084   0.026  11.995
 5917W        W 9981   2.000   9.351   1.020
 5918W        W 9982   5.405   6.962   3.149
 5919W        W 9983   9.720  10.414   0.441
 5920W        W 9984   4.306   2.436  10.311
 5921W        W 9985   7.703   8.019   0.287
 5922W        W 9986   4.706   1.388   1.509
 5923W        W 9987   6.582   9.698  11.986
 5924W        W 9988   3.271   5.764   2.307
 5925W        W 9989   6.025   4.308   9.974
 5926W        W 9990   5.017   1.326   9.210
 5927W        W 9991   6.971   9.495  10.533
 5928W        W 9992   0.604   6.617   0.511
 5929W        W 9993   8.905  10.363   9.055
 5930W        W 9994   9.133   7.020   9.844
 5931W        W 9995   9.358   5.155   0.756
 5932W        W 9996   9.895   7.547   9.846
 5933W        W 9997   9.668   0.423   2.416
 5934W        W 9998   2.326   9.778   1.045
 5935W        W 9999   8.179   3.140   2.012
 5936W        W10000   3.323   1.269   2.249
 5937W        W10001   6.044   1.800   2.960
 5938W        W10002   6.064   7.382  10.331
 5939W        W10003   2.429   9.485   2.704
 5940W        W10004   7.245   1.212   9.621
 5941W        W10005   2.710   1.969  10.008
 5942W        W10006   8.632   9.509  10.818
 5943W        W10007   9.363   7.069   2.043
 5944W        W10008   5.711   6.080   2.470
 5945W        W10009   3.925   1.363  11.391
 5946W        W10010   3.248   4.319   1.293
 5947W        W10011   4.535   4.061   9.843
 5948W        W10012   5.200   5.603   3.130
 5949W        W10013   7.967   3.612   2.675
 5950W        W10014   2.784   3.364  10.748
 5951W        W10015   4.787   9.956   8.885
 5952W        W10016   1.879  10.300   8.728
 5953W        W10017   7.402   5.006   9.967
 5954W        W10018   1.906   2.345   0.476
 5955W        W10019   1.086   5.550   1.098
 5956W        W10020  10.268   8.043   1.383
 5957W        W10021   0.833   8.099  11.470
 5958W        W10022   0.937   0.152   8.611
 5959W        W10023   5.453   7.546   4.192
 5960W        W10024   0.028   5.840   2.473
 5961W        W10025   5.433   0.348   9.391
 5962W        W10026  10.453   6.999   9.266
 5963W        W10027   4.605   7.400  11.609
 5964W        W10028   1.293   2.357   9.221
 5965W        W10029   6.972   7.677  11.544
 5966W        W10030   5.288   2.160  10.087
 5967W        W10031   5.478   3.998  11.680
 5968W        W10032   3.308   5.548   3.663
 5969W        W10033   1.781   7.584   3.133
 5970W        W10034   9.009   1.543   2.269
 5971W        W10035   4.381   4.525   9.501
 5972W        W10036   6.591   2.112   0.042
 5973W        W10037   4.642  10.471  11.584
 5974W        W10038   3.183   7.058   9.977
 5975W        W10039   4.640   4.413   8.423
 5976W        W10040   3.239   9.920   2.722
 5977W        W10041   3.386   3.477   3.397
 5978W        W10042   5.761   5.584   8.578
 5979W        W10043   6.057  10.071  11.059
 5980W        W10044   2.549   9.433   1.807
 5981W        W10045   2.941   6.078   3.127
 5982W        W10046  10.011   9.732   0.810
 5983W        W10047   9.804   1.652   2.966
 5984W        W10048   5.566   4.384   8.467
 5985W        W10049   2.543   9.159  10.504
 5986W        W10050   1.261  10.335   0.539
 5987W        W10051   9.178   0.903   2.386
 5988W        W10052   5.089   8.174   0.440
 5989W        W10053  10.204   8.879   9.104
 5990W        W10054   9.294   1.306   2.714
 5991W        W10055  10.026   1.822   8.997
 5992W        W10056   2.515   8.235   0.835
 5993W        W10057   8.468   1.079  10.509
 5994W        W10058   3.727   7.095   1.015
 5995W        W10059   6.622   6.593  10.268
 5996W        W10060   3.047   2.687   9.349
 5997W        W10061   8.906   6.072   3.250
 5998W        W10062   8.710   3.883   3.667
 5999W        W10063   9.125  10.256  11.036
 6000W        W10064   9.803   8.901   3.264
 6001W        W10065   5.710   4.760   9.008
 6002W        W10066   0.322   2.211   1.275
 6003W        W10067   2.657   3.852  10.741
 6004W        W10068  10.255   2.661   1.502
 6005W        W10069   3.366   8.456   2.627
 6006W        W10070   5.481   2.271   8.812
 6007W        W10071   3.702   4.132   3.517
 6008W        W10072   5.611   4.904   8.517
 6009W        W10073   3.379   7.505   9.727
 6010W        W10074   4.668   8.132   1.439
 6011W        W10075   8.985   1.712   2.749
 6012W        W10076   9.503   9.944   1.241
 6013W        W10077   8.673   2.719   9.068
 6014W        W10078   2.624   3.065  10.337
 6015W        W10079   2.280   3.837  10.319
 6016W        W10080   0.628   7.588  10.567
 6017W        W10081   6.700   1.670  11.298
 6018W        W10082   8.561   8.844   0.017
 6019W        W10083   2.271   9.881   1.906
 6020W        W10084   6.357   0.475   9.017
 6021W        W10085   7.339   5.742   0.224
 6022W        W10086   9.840   9.229   8.930
 6023W        W10087   6.689   7.869   3.359
 6024W        W10088   1.843   6.533   1.123
 6025W        W10089   8.072   9.451   1.092
 6026W        W10090   7.406   5.609   0.702
 6027W        W10091   0.283   4.747   9.554
 6028W        W10092   1.651   1.990   0.181
 6029W        W10093   2.224  10.296  11.950
 6030W        W10094   5.702   1.591   0.274
 6031W        W10095   0.749   1.287   9.333
 6032W        W10096   2.643   5.492   9.524
 6033W        W10097   2.845   4.292   3.278
 6034W        W10098   8.880  10.455   2.700
 6035W        W10099   1.834   3.708   8.922
 6036W        W10100   7.914  10.368   9.350
 6037W        W10101   5.219   1.890   1.691
 6038W        W10102   6.602   3.068  11.729
 6039W        W10103   6.387   3.288  10.709
 6040W        W10104   8.124   5.715  11.774
 6041W        W10105   8.948   5.303  11.965
 6042W        W10106   1.863   1.259   8.780
 6043W        W10107   8.791   0.173   1.230
 6044W        W10108   3.317   8.153   1.118
 6045W        W10109   0.688   9.817   8.902
 6046W        W10110   4.222   7.556   3.047
 6047W        W10111   5.516   4.995   9.423
 6048W        W10112   2.408   9.974   0.588
 6049W        W10113   1.789   5.688   2.840
 6050W        W10114   6.515  10.466   1.125
 6051W        W10115   5.070   0.795  10.459
 6052W        W10116   6.045   2.248  10.770
 6053W        W10117   8.185   9.678   2.414
 6054W        W10118   7.288   7.953   1.803
 6055W        W10119   4.192   1.427   3.224
 6056W        W10120   4.110   2.625   2.187
 6057W        W10121   0.261   9.617  11.007
 6058W        W10122   6.920   1.335   1.670
 6059W        W10123   5.166   9.285   1.834
 6060W        W10124   8.192   2.444   0.848
 6061W        W10125   3.794   0.883  10.689
 6062W        W10126   6.014   7.216   2.495
 6063W        W10127   3.326   5.795   0.445
 6064W        W10128   6.925   8.851   9.425
 6065W        W10129   7.644   7.628  10.558
 6066W        W10130   3.483   5.504   0.854
 6067W        W10131   2.028   5.354  11.730
 6068W        W10132   8.562   0.714   0.059
 6069W        W10133   0.342   2.376   0.784
 6070W        W10134   9.741   7.872   9.047
 6071W        W10135   1.850   2.706   0.879
 6072W        W10136   7.880  10.341  10.978
 6073W        W10137   9.149   0.325  10.459
 6074W        W10138   5.822   8.420   8.430
 6075W        W10139   5.109   5.167  11.975
 6076W        W10140   4.685   7.379   1.795
 6077W        W10141   4.310   4.687   2.776
 6078W        W10142   1.011   5.607   2.376
 6079W        W10143   6.129   0.474  11.643
 6080W        W10144   7.926   5.219  11.849
 6081W        W10145   7.155   1.694   9.458
 6082W        W10146   5.699   7.545   9.565
 6083W        W10147   9.269   8.769   9.371
 6084W        W10148   7.571   4.980   1.102
 6085W        W10149   8.820   0.710  10.317
 6086W        W10150   1.740   1.802   0.651
 6087W        W10151   1.680   0.848   1.591
 6088W        W10152   1.202   5.166   3.510
 6089W        W10153  10.203   2.751   2.336
 6090W        W10154  10.500   8.918   1.648
 6091W        W10155   5.685   1.692  11.250
 6092W        W10156   8.078   1.290   0.354
 6093W        W10157   2.185  10.461   9.580
 6094W        W10158   2.649   6.363  11.097
 6095W        W10159   4.193   9.446   3.220
 6096W        W10160   8.848   5.085   0.831
 6097W        W10161   9.543   9.083   0.755
 6098W        W10162   9.296   9.826  10.076
 6099W        W10163   2.869   3.150   9.484
 6100W        W10164   3.120   6.215  10.045
 6101W        W10165   6.671   3.205   2.235
 6102W        W10166   6.984   6.943   3.129
 6103W        W10167   8.681   2.394  11.121
 6104W        W10168   3.145   4.394  11.428
 6105W        W10169   4.187   0.031   9.543
 6106W        W10170   6.655   7.585   9.566
 6107W        W10171   2.461   1.646  10.284
 6108W        W10172   0.241   5.719  11.547
 6109W        W10173   8.411   7.762  11.465
 6110W        W10174   0.213   1.788  11.163
 6111W        W10175   4.552   9.511   9.027
 6112W        W10176   3.562   2.820   9.231
 6113W        W10177   0.073   1.357  10.340
 6114W        W10178   7.619   0.639   0.818
 6115W        W10179   2.185   8.153  10.170
 6116W        W10180   8.981   1.223  10.266
 6117W        W10181   3.836   8.031  11.353
 6118W        W10182   8.996   5.519   0.488
 6119W        W10183   6.489   4.403   8.446
 6120W        W10184   7.941   2.823  11.760
 6121W        W10185   6.393   0.975   0.395
 6122W        W10186   7.054   5.514   3.279
 6123W        W10187   3.462   5.028   0.018
 6124W        W10188   4.643   0.242   3.426
 6125W        W10189   1.581  10.117   3.683
 6126W        W10190   3.633   3.147   8.803
 6127W        W10191   2.872   4.654   2.533
 6128W        W10192   7.105   4.057   2.084
 6129W        W10193   9.849   7.481   3.076
 6130W        W10194   2.674   5.011   0.444
 6131W        W10195   8.881   7.701   9.218
 6132W        W10196   6.860   1.233   9.980
 6133W        W10197   5.887   8.138   0.441
 6134W        W10198   7.157   4.836   3.877
 6135W        W10199   4.565  10.499   1.008
 6136W        W10200   8.541   4.050  11.359
 6137W        W10201   3.171   5.691  11.237
 6138W        W10202   5.625   2.654   1.895
 6139W        W10203   6.405   8.824   9.547
 6140W        W10204   2.598   2.015   2.203
 6141W        W10205   3.374   9.792   1.835
 6142W        W10206   0.658   7.603   8.419
 6143W        W10207   5.625   8.313   1.175
 6144W        W10208   2.477   4.813   9.879
 6145W        W10209   0.243   4.355  11.966
 6146W        W10210   3.708   0.868   1.202
 6147W        W10211   0.408   3.825   9.132
 6148W        W10212   5.930   9.528   2.480
 6149W        W10213   1.719   3.817   1.795
 6150W        W10214   4.783   6.263   2.428
 6151W        W10215   1.762   8.098   3.319
 6152W        W10216   1.732   3.889   9.397
 6153W        W10217   4.721   0.766  11.097
 6154W        W10218   9.900   8.492  11.506
 6155W        W10219   0.390   6.183   2.487
 6156W        W10220   2.350   1.739   9.727
 6157W        W10221   8.014   5.073   2.100
 6158W        W10222   5.491  10.322  10.202
 6159W        W10223   3.213   2.276   2.627
 6160W        W10224   1.811   3.597   3.443
 6161W        W10225   5.133   9.551   0.270
 6162W        W10226   6.010   1.294   2.770
 6163W        W10227   8.962   2.044   2.352
 6164W        W10228   9.150   5.065   1.823
 6165W        W10229   0.711   7.191   1.796
 6166W        W10230   2.275   4.155   0.888
 6167W        W10231   7.132   1.246   0.712
 6168W        W10232   7.596   2.848   0.957
 6169W        W10233   6.783   6.925   2.659
 6170W        W10234   9.481   8.398   2.466
 6171W        W10235   1.226   2.809   9.483
 6172W        W10236   2.213   9.323  11.882
 6173W        W10237   7.493   5.637  10.868
 6174W        W10238   0.408   0.869   0.919
 6175W        W10239   5.604   4.288   2.598
 6176W        W10240   1.422   3.407   0.315
 6177W        W10241   8.921   9.467   1.768
 6178W        W10242   4.704   5.762  11.361
 6179W        W10243   7.237   2.543   0.737
 6180W        W10244   3.695   7.980   1.427
 6181W        W10245   7.731  10.229  11.999
 6182W        W10246   0.386   5.978  11.144
 6183W        W10247   0.794   0.425  11.818
 6184W        W10248   3.113   3.571   0.013
 6185W        W10249   0.390   8.585   3.077
 6186W        W10250   4.246   9.184   9.480
 6187W        W10251   2.377   3.081   0.340
 6188W        W10252   3.181   2.820   3.605
 6189W        W10253   5.206   3.844   8.958
 6190W        W10254   2.829   8.862   1.166
 6191W        W10255  10.334   5.643   1.682
 6192W        W10256   0.948   2.116  10.433
 6193W        W10257   5.542   2.635   0.294
 6194W        W10258   6.462   4.289   8.943
 6195W        W10259   3.262   9.282  11.476
 6196W        W10260   3.757   4.694   1.000
 6197W        W10261   0.733   1.457   2.024
 6198W        W10262   9.533   1.598  11.730
 6199W        W10263   8.085   8.276   0.605
 6200W        W10264   1.832   5.091  10.334
 6201W        W10265   9.981   6.405   1.849
 6202W        W10266   4.935   6.437   0.344
 6203W        W10267   3.384   9.905  10.683
 6204W        W10268   6.566   2.463   2.870
 6205W        W10269   5.283   3.296   8.509
 6206W        W10270   8.945   3.143   8.907
 6207W        W10271   3.205   1.370  10.124
 6208W        W10272   9.782   6.548   8.882
 6209W        W10273   9.956   7.012   8.517
 6210W        W10274   4.612   1.539   2.875
 6211W        W10275   4.619   2.652   2.361
 6212W        W10276   3.982   4.244  11.644
 6213W        W10277   4.412   8.708   9.549
 6214W        W10278   6.246   6.915   0.009
 6215W        W10279   6.113   4.939   0.926
 6216W        W10280   2.787  10.108   2.333
 6217W        W10281   2.127  10.017   9.864
 6218W        W10282   4.692   0.996  10.199
 6219W        W10283   6.566   1.919   1.374
 6220W        W10284   6.070  10.399  10.278
 6221W        W10285   9.368   9.579   2.039
 6222W        W10286   8.641   5.800   8.503
 6223W        W10287   5.483   1.231   0.599
 6224W        W10288   0.637   9.865   9.815
 6225W        W10289   6.844   0.897   1.392
 6226W        W10290   5.220   3.201  11.734
 6227W        W10291   6.056   2.666   9.036
 6228W        W10292   0.461   9.075   3.627
 6229W        W10293   8.132   3.587   8.932
 6230W        W10294   0.696   1.796  11.994
 6231W        W10295   0.975   6.042   9.292
 6232W        W10296   8.078   7.587  10.865
 6233W        W10297   7.941   9.479   1.613
 6234W        W10298   6.949   3.770   9.697
 6235W        W10299   6.066   2.078   1.166
 6236W        W10300   9.291   7.510  10.602
 6237W        W10301   6.637   2.973   2.859
 6238W        W10302   5.637   9.362   1.708
 6239W        W10303   7.078   8.606  11.968
 6240W        W10304   2.842   2.372  10.901
 6241W        W10305   8.530   9.363   8.944
 6242W        W10306   1.289   6.042   0.999
 6243W        W10307   5.258   1.844  10.936
 6244W        W10308   9.088   7.000  11.179
 6245W        W10309   0.034   1.699   1.094
 6246W        W10310   6.581   0.767  10.009
 6247W        W10311   5.994   3.816   8.200
 6248W        W10312   9.227   2.190  10.013
 6249W        W10313   4.077   6.633   1.476
 6250W        W10314   5.189   8.990   9.943
 6251W        W10315   6.107   2.786   1.693
 6252W        W10316   5.227   4.692   9.723
 6253W        W10317   1.684   4.007   3.752
 6254W        W10318   7.359   5.176  11.017
 6255W        W10319   4.522   3.605   9.610
 6256W        W10320   1.980   1.425   2.797
 6257W        W10321   3.077   2.259   8.993
 6258W        W10322   9.470   8.289   0.272
 6259W        W10323   0.864   1.597   8.905
 6260W        W10324   3.837   7.700   1.836
 6261W        W10325   5.599   9.351  10.944
 6262W        W10326   0.702   2.964   1.496
 6263W        W10327   6.871   5.926   1.770
 6264W        W10328   3.066   4.042  11.073
 6265W        W10329   3.064   8.916   9.102
 6266W        W10330   9.869   2.226   0.681
 6267W        W10331   7.943   6.168   1.772
 6268W        W10332  10.235   0.757   0.308
 6269W        W10333   7.500   3.593   8.985
 6270W        W10334   5.922   0.535   9.622
 6271W        W10335   7.898   4.516   2.050
 6272W        W10336   6.908   0.290  10.547
 6273W        W10337   2.166   0.489  11.242
 6274W        W10338   3.311   0.744   2.405
 6275W        W10339   5.814   0.047   9.833
 6276W        W10340  10.151   1.344   3.390
 6277W        W10341   1.232   4.273  11.792
 6278W        W10342   6.671   6.115   8.786
 6279W        W10343   7.985   0.405   3.323
 6280W        W10344   1.448   0.319   2.040
 6281W        W10345   0.331   3.807   1.727
 6282W        W10346   7.927   9.967  10.641
 6283W        W10347   4.145   2.692   0.192
 6284W        W10348   9.531   5.193   9.066
 6285W        W10349   4.178   3.760   1.848
 6286W        W10350   6.625   3.814   2.479
 6287W        W10351   7.716   3.163   1.770
 6288W        W10352   5.379   0.433   2.736
 6289W        W10353   4.926   9.803   3.559
 6290W        W10354   3.794   2.128   8.551
 6291W        W10355   5.467   5.263   9.903
 6292W        W10356   3.110   4.771  10.590
 6293W        W10357   6.969   4.080  10.365
 6294W        W10358   0.295   1.762   3.064
 6295W        W10359   5.581   0.276  11.964
 6296W        W10360   3.299  10.295   3.444
 6297W        W10361   3.383   7.554   3.654
 6298W        W10362   1.263   1.688   0.339
 6299W        W10363   1.758   8.628   4.104
 6300W        W10364   3.718   1.172   3.072
 6301W        W10365   6.030   8.052  11.521
 6302W        W10366   2.871   3.138   0.186
 6303W        W10367   4.253   5.708   9.640
 6304W        W10368   3.664   8.692   1.833
 6305W        W10369   5.558   9.826   0.441
 6306W        W10370   2.276   4.746  11.752
 6307W        W10371   4.167   0.901   2.552
 6308W        W10372   6.780   3.241   1.734
 6309W        W10373   2.489   7.334  10.191
 6310W        W10374   7.921   0.337  11.048
 6311W        W10375   7.362   3.698   1.393
 6312W        W10376   9.850   5.983  11.439
 6313W        W10377   6.170   7.053   9.153
 6314W        W10378   9.139   0.873   9.922
 6315W        W10379   2.767   5.127  10.488
 6316W        W10380   7.476   2.872   2.949
 6317W        W10381   2.263   5.762   1.354
 6318W        W10382   1.225   0.486  11.551
 6319W        W10383   9.464   1.087  11.855
 6320W        W10384   6.093   8.809   9.949
 6321W        W10385   1.328   3.732   3.544
 6322W        W10386   4.844   8.897  11.808
 6323W        W10387   3.298   5.988   2.783
 6324W        W10388   9.087   2.728   9.995
 6325W        W10389   5.266   3.108   2.568
 6326W        W10390   8.949   4.941   1.331
 6327W        W10391   3.757   3.153   1.450
 6328W        W10392   3.202   7.762   1.467
 6329W        W10393  10.116   3.932   9.761
 6330W        W10394   0.029   0.355   1.680
 6331W        W10395   7.112   3.783  10.768
 6332W        W10396   7.871   3.151   8.789
 6333W        W10397   0.151   7.799   3.040
 6334W        W10398   8.436   5.141  11.860
 6335W        W10399   9.067   5.523   1.012
 6336W        W10400   5.768   1.591   3.427
 6337W        W10401   4.058   1.399  10.113
 6338W        W10402   3.179   8.860   1.951
 6339W        W10403   3.346   0.048   9.871
 6340W        W10404   2.446   6.452  10.243
 6341W        W10405   9.364   5.859   0.275
 6342W        W10406   3.126   6.552   3.474
 6343W        W10407   3.808  10.051   1.867
 6344W        W10408   3.337  10.033   9.806
 6345W        W10409   5.018   0.235   1.872
 6346W        W10410   5.282   8.089  10.326
 6347W        W10411   1.382   9.037   2.018
 6348W        W10412   1.400   2.251  10.138
 6349W        W10413   1.873   2.598   3.452
 6350W        W10414   0.204   3.744   2.740
 6351W        W10415   5.762   6.575  11.163
 6352W        W10416   8.027   9.379  11.393
 6353W        W10417   6.172   1.853  11.046
 6354W        W10418   5.085   8.071  11.354
 6355W        W10419   4.525   1.369   9.907
 6356W        W10420   6.148   7.089   0.478
 6357W        W10421   3.065   1.886   0.973
 6358W        W10422   6.976   4.691   1.484
 6359W        W10423   1.021  10.159   8.667
 6360W        W10424   6.346   8.275   3.231
 6361W        W10425   2.464   4.268  10.524
 6362W        W10426   2.128   0.776   9.941
 6363W        W10427   7.196   9.807   0.705
 6364W        W10428   9.526   1.743   1.987
 6365W        W10429   1.798   9.312   9.182
 6366W        W10430   5.584   8.683  11.818
 6367W        W10431   9.771   4.595  11.308
 6368W        W10432   7.111   5.939   2.615
 6369W        W10433   1.828   5.671  11.001
 6370W        W10434   9.348   4.946  11.952
 6371W        W10435   3.091   1.331   9.098
 6372W        W10436   7.870  10.258  11.501
 6373W        W10437   1.559   0.218  11.881
 6374W        W10438   6.358   5.589   2.504
 6375W        W10439   8.548   0.993  11.047
 6376W        W10440   0.633   4.587   1.867
 6377W        W10441   7.513   7.121   0.673
 6378W        W10442   6.623   4.740   3.123
 6379W        W10443   8.512  10.364   3.091
 6380W        W10444   8.076   1.797   2.767
 6381W        W10445   7.059   0.481   0.625
 6382W        W10446   2.231   3.222   2.361
 6383W        W10447   3.208   4.704   9.552
 6384W        W10448   9.277   9.883  10.571
 6385W        W10449   5.339   3.088   2.070
 6386W        W10450   4.161   7.962   3.373
 6387W        W10451   2.349   4.029   2.374
 6388W        W10452   0.728   4.225   0.698
 6389W        W10453   9.428   9.652   9.152
 6390W        W10454   5.749   1.152  11.979
 6391W        W10455   8.858   2.335   1.948
 6392W        W10456   6.939   0.433   8.960
 6393W        W10457   8.957   5.685   1.942
 6394W        W10458   1.714   3.778  10.771
 6395W        W10459   9.726   3.563   3.497
 6396W        W10460   8.460   8.495  10.872
 6397W        W10461   8.089   0.442   0.612
 6398W        W10462   0.793   3.133  10.047
 6399W        W10463   6.220   9.598   0.977
 6400W        W10464   5.316   9.942   0.951
 6401W        W10465  10.079   3.196   2.045
 6402W        W10466  10.384   9.292  10.024
 6403W        W10467   6.031   7.159  11.302
 6404W        W10468   2.361   1.476   1.229
 6405W        W10469   6.709   3.222  10.268
 6406W        W10470   3.678   9.102   3.170
 6407W        W10471   2.860   6.153   8.818
 6408W        W10472   3.294   4.763   2.235
 6409W        W10473   3.581  10.467   0.698
 6410W        W10474   8.947   7.564   8.695
 6411W        W10475   9.698   8.763   9.086
 6412W        W10476  10.426   2.160   2.990
 6413W        W10477   2.376   2.114  10.518
 6414W        W10478   2.054   3.243   9.742
 6415W        W10479   6.895   1.793   1.906
 6416W        W10480   9.904   1.360   2.059
 6417W        W10481   9.823   9.134   2.830
 6418W        W10482   2.960   4.296  10.643
 6419W        W10483   5.594   4.482   9.424
 6420W        W10484   5.502   3.286   3.483
 6421W        W10485   0.384   7.245  11.555
 6422W        W10486   2.168   3.769  11.641
 6423W        W10487  10.044   3.491   8.982
 6424W        W10488   2.734   3.108   8.982
 6425W        W10489   8.615   3.852  10.616
 6426W        W10490   3.762   3.132   3.478
 6427W        W10491   7.284   7.170   2.778
 6428W        W10492   1.854   5.018   1.151
 6429W        W10493   6.861   9.850   9.391
 6430W        W10494   3.603   5.031   2.626
 6431W        W10495   0.385   7.856   0.457
 6432W        W10496   8.970   9.355   1.285
 6433W        W10497   5.795   1.763   9.472
 6434W        W10498   2.179   6.508   0.294
 6435W        W10499   5.326   2.874  10.955
 6436W        W10500   8.952   9.477   9.234
 6437W        W10501   7.193   5.247   8.458
 6438W        W10502   5.154   6.641  10.464
 6439W        W10503   9.485   4.059   0.267
 6440W        W10504   8.336   1.838   0.781
 6441W        W10505   9.134   6.105   3.704
 6442W        W10506   8.843   8.386   3.150
 6443W        W10507   1.724   0.560   0.251
 6444W        W10508   1.305  10.482  11.468
 6445W        W10509   9.976   8.554   2.411
 6446W        W10510   8.449   6.007   1.749
 6447W        W10511   1.216   7.199   3.066
 6448W        W10512   5.627   8.277   9.528
 6449W        W10513   4.290   4.771   8.605
 6450W        W10514   9.969   7.917  11.100
 6451W        W10515   7.353   5.138   3.084
 6452W        W10516   8.048   2.279   1.964
 6453W        W10517   6.455   9.837   0.466
 6454W        W10518   4.976   3.670   9.380
 6455W        W10519   6.182   6.332  11.362
 6456W        W10520   1.876   0.393   3.006
 6457W        W10521   2.205   4.667   9.467
 6458W        W10522   6.528   9.615   9.731
 6459W        W10523   4.936   8.038   2.283
 6460W        W10524   4.429   2.602   1.796
 6461W        W10525  10.255   9.647  10.968
 6462W        W10526   6.221   5.172   2.257
 6463W        W10527   5.467   3.331   1.495
 6464W        W10528   0.730   7.793   9.112
 6465W        W10529   6.261  10.420   3.171
 6466W        W10530   6.331   2.839   0.794
 6467W        W10531   5.451   1.141  10.505
 6468W        W10532   4.681   2.743  10.108
 6469W        W10533   1.809   6.142   2.243
 6470W        W10534   6.222   5.040   3.299
 6471W        W10535   1.623   6.561   8.840
 6472W        W10536   6.069   6.102   1.808
 6473W        W10537   5.700   4.315   1.389
 6474W        W10538   3.828   7.747   0.354
 6475W        W10539   0.429   6.417   3.462
 6476W        W10540   0.864   4.970  10.255
 6477W        W10541   0.152  10.219   2.058
 6478W        W10542   5.273   2.700  11.858
 6479W        W10543   9.571   3.120   0.262
 6480W        W10544  10.192   6.499   8.566
 6481W        W10545   5.247  10.439   2.816
 6482W        W10546   7.432   9.116   9.511
 6483W        W10547   4.475   6.469   0.142
 6484W        W10548   8.629   9.595   2.712
 6485W        W10549   2.384   4.261   1.391
 6486W        W10550  10.369   2.185   0.947
 6487W        W10551   8.001   7.927  10.015
 6488W        W10552   1.451   9.596  11.490
 6489W        W10553   5.617   7.205   3.563
 6490W        W10554   2.866   6.921   8.639
 6491W        W10555   3.022   3.512   0.535
 6492W        W10556   0.350   9.931   3.227
 6493W        W10557   5.496   9.380   2.253
 6494W        W10558   7.702   3.276   1.255
 6495W        W10559   6.244   4.015   4.127
 6496W        W10560   8.095   0.720   1.447
 6497W        W10561   0.423   4.116   1.321
 6498W        W10562   3.545   0.532  11.048
 6499W        W10563   4.793   9.852   1.747
 6500W        W10564   5.036   6.558   3.363
 6501W        W10565   1.860   1.400   0.978
 6502W        W10566   6.198   5.210   1.761
 6503W        W10567  10.051   5.789   2.343
 6504W        W10568   8.617   1.654  11.847
 6505W        W10569   6.042   8.546   1.890
 6506W        W10570   7.364   9.236   2.873
 6507W        W10571   8.856   8.379   1.959
 6508W        W10572   7.379   1.230   2.441
 6509W        W10573   9.573   9.493  11.556
 6510W        W10574   0.961   6.866   0.826
 6511W        W10575   6.998   0.799  11.394
 6512W        W10576   1.176   1.338   2.348
 6513W        W10577   1.605   9.080   3.398
 6514W        W10578   4.043   5.884  10.064
 6515W        W10579   2.647   2.488  11.790
 6516W        W10580   1.588   7.429  10.395
 6517W        W10581   1.157   0.999   1.345
 6518W        W10582   6.128   4.465   1.121
 6519W        W10583   3.346   2.546   1.859
 6520W        W10584   5.823   2.700  10.948
 6521W        W10585   8.323   7.305   1.154
 6522W        W10586   6.241   7.786   0.407
 6523W        W10587   0.546   4.066  10.447
 6524W        W10588   6.536   2.727   2.437
 6525W        W10589   2.261   2.874   1.160
 6526W        W10590   0.641  10.294   1.911
 6527W        W10591   6.301   1.339  10.234
 6528W        W10592   8.930   4.008   9.086
 6529W        W10593   8.813   2.803   0.525
 6530W        W10594   3.197   6.722   1.543
 6531W        W10595   5.192   0.885   1.893
 6532W        W10596   8.066   7.739   1.161
 6533W        W10597   8.259  10.461   9.733
 6534W        W10598   1.742   3.034   2.496
 6535W        W10599   1.786   6.112  10.702
 6536W        W10600   9.453   2.396   1.387
 6537W        W10601   4.936   6.392   1.946
 6538W        W10602   9.414   5.421   2.697
 6539W        W10603   4.807   8.637   9.885
 6540W        W10604   2.157   6.526  11.264
 6541W        W10605   4.606   3.348   2.632
 6542W        W10606   5.704   0.232  10.943
 6543W        W10607   1.403   8.540   2.759
 6544W        W10608   2.727   6.024  10.287
 6545W        W10609   2.803   2.206   0.243
 6546W        W10610   3.766   5.427   3.453
 6547W        W10611   4.567   6.053   2.022
 6548W        W10612   6.434   2.312   9.088
 6549W        W10613   1.907   2.286   2.959
 6550W        W10614   8.890   1.319   3.072
 6551W        W10615   7.179   1.066  10.804
 6552W        W10616   2.347   2.335   1.872
 6553W        W10617   0.930   1.124  10.229
 6554W        W10618   6.584   0.780   2.735
 6555W        W10619   0.419   9.834   2.747
 6556W        W10620   4.501   2.608   9.110
 6557W        W10621   2.184   1.412   9.330
 6558W        W10622   3.689   5.358   0.378
 6559W        W10623   8.551   6.358   0.246
 6560W        W10624   7.232  10.313  11.866
 6561W        W10625   3.601   8.465  10.537
 6562W        W10626   4.692   8.915   2.625
 6563W        W10627   7.896   2.680   2.746
 6564W        W10628   3.211   0.915   0.943
 6565W        W10629   1.576   3.106   0.738
 6566W        W10630   5.430   8.029   2.326
 6567W        W10631   9.351   3.646   2.461
 6568W        W10632   4.253   5.676  11.742
 6569W        W10633   1.139   2.880   8.513
 6570W        W10634   9.063   6.419  11.021
 6571W        W10635   3.774   6.958  10.482
 6572W        W10636   8.801   3.754   1.928
 6573W        W10637   9.903   7.778   3.525
 6574W        W10638   6.599   0.521   0.267
 6575W        W10639   3.298   6.594   9.775
 6576W        W10640  10.074   9.307  11.277
 6577W        W10641   5.762   4.299   3.106
 6578W        W10642   5.612   3.209   0.457
 6579W        W10643   0.746   8.988   3.197
 6580W        W10644   7.795   7.163  10.139
 6581W        W10645   8.485   6.030   9.037
 6582W        W10646   1.478   0.050   2.862
 6583W        W10647   0.432   0.332   0.771
 6584W        W10648   3.631   5.486  10.350
 6585W        W10649   8.826  10.318   0.858
 6586W        W10650   8.583   8.537   8.941
 6587W        W10651   5.859   4.388   2.154
 6588W        W10652   0.189   6.499   8.734
 6589W        W10653   6.522   6.772   8.880
 6590W        W10654   0.113   8.616  10.913
 6591W        W10655   7.845   3.658   9.351
 6592W        W10656   3.005   7.085   1.871
 6593W        W10657   7.837   7.655   2.147
 6594W        W10658   5.172  10.230   1.851
 6595W        W10659   5.718   4.061   3.990
 6596W        W10660   5.491   7.617  11.820
 6597W        W10661   6.166   2.803  11.947
 6598W        W10662   4.939   8.793   8.478
 6599W        W10663   5.519   0.749   0.202
 6600W        W10664   8.353   6.001   0.885
 6601W        W10665   5.154   5.991   2.754
 6602W        W10666   8.581   4.191   1.741
 6603W        W10667   6.205   3.718  10.415
 6604W        W10668   2.199   2.312   0.954
 6605W        W10669   9.430   5.361   0.268
 6606W        W10670   7.464   3.078   9.748
 6607W        W10671   5.792   4.766   3.323
 6608W        W10672   1.978   6.131  11.720
 6609W        W10673   4.142   4.892   9.782
 6610W        W10674   5.906   1.383   9.819
 6611W        W10675   1.855   6.945   1.455
 6612W        W10676   4.996   1.658   2.508
 6613W        W10677   3.770   2.247   2.057
 6614W        W10678   6.967   6.290   9.470
 6615W        W10679   3.403   1.903  11.248
 6616W        W10680   1.791   0.866   0.662
 6617W        W10681   3.331   4.497   0.803
 6618W        W10682   9.741   4.190   2.927
 6619W        W10683   4.483  10.381   8.635
 6620W        W10684   0.258   6.196  10.273
 6621W        W10685   3.293   1.137   2.757
 6622W        W10686   1.811   5.673   8.701
 6623W        W10687   8.572   8.371   8.436
 6624W        W10688   5.092   1.414  10.690
 6625W        W10689   0.754   5.483   1.486
 6626W        W10690   9.258   8.213   2.888
 6627W        W10691   6.520   5.612  11.173
 6628W        W10692  10.363   5.963  11.305
 6629W        W10693   9.470   6.885   0.080
 6630W        W10694   9.671   2.499  11.513
 6631W        W10695   7.607   8.358   8.451
 6632W        W10696   7.962   1.403   9.349
 6633W        W10697   0.808   7.510   1.396
 6634W        W10698   0.899   3.603   0.273
 6635W        W10699   1.611   0.809  11.323
 6636W        W10700  10.276   7.460  11.300
 6637W        W10701   8.423   8.055  11.865
 6638W        W10702   7.044   2.302   3.576
 6639W        W10703   3.114   3.543  11.089
 6640W        W10704   0.331   5.785   1.005
 6641W        W10705   4.263   0.741  10.875
 6642W        W10706   7.975   6.953   0.431
 6643W        W10707   1.400   7.561  11.845
 6644W        W10708   4.962   3.514   9.872
 6645W        W10709   1.893   7.193   2.301
 6646W        W10710   1.274   6.300  11.308
 6647W        W10711   4.198   8.561   1.788
 6648W        W10712   4.959  10.300  10.141
 6649W        W10713   7.978   4.097  10.523
 6650W        W10714   8.894   2.788   9.538
 6651W        W10715   2.407   6.174   9.028
 6652W        W10716   1.018   8.523  10.712
 6653W        W10717   8.998   9.943   1.966
 6654W        W10718   1.249   9.024   3.025
 6655W        W10719   7.244   3.953   9.252
 6656W        W10720   7.168   0.495   0.127
 6657W        W10721   8.728  10.425   9.976
 6658W        W10722   2.762   6.892   2.266
 6659W        W10723   4.742   7.360  11.138
 6660W        W10724   2.209   3.705   0.651
 6661W        W10725   4.765   3.600   1.003
 6662W        W10726   9.292   1.725   3.664
 6663W        W10727   9.881   3.797  10.960
 6664W        W10728   6.413   9.563   3.353
 6665W        W10729   3.324   4.597   2.736
 6666W        W10730   3.291   7.041   0.173
 6667W        W10731   6.718   9.570   0.852
 6668W        W10732   5.649   9.236   3.345
 6669W        W10733   4.251   1.302   0.697
 6670W        W10734   8.816   3.793  11.717
 6671W        W10735  10.030   2.216   0.206
 6672W        W10736   6.098   0.915   8.961
 6673W        W10737   6.345   0.824   3.521
 6674W        W10738   9.153   1.483   1.761
 6675W        W10739   2.295  10.224  11.443
 6676W        W10740   0.689   7.855   9.623
 6677W        W10741   4.328   3.083   2.286
 6678W        W10742   2.458   9.707   9.574
 6679W        W10743   0.761   1.911   1.790
 6680W        W10744   5.568   9.818   2.705
 6681W        W10745   0.004   0.692   2.671
 6682W        W10746   0.360   5.013  10.253
 6683W        W10747   2.891   7.490   9.881
 6684W        W10748   8.690   1.245   1.975
 6685W        W10749   9.830   4.852   3.314
 6686W        W10750  10.119   8.656   2.909
 6687W        W10751   2.660   6.239   9.822
 6688W        W10752   6.638   5.702  10.693
 6689W        W10753   2.162   8.235  11.871
 6690W        W10754   5.275   6.934  10.059
 6691W        W10755   0.223   6.003   2.935
 6692W        W10756   1.031   7.626  11.470
 6693W        W10757   8.121   3.508   0.739
 6694W        W10758  10.450  10.215  11.324
 6695W        W10759   0.551   9.355   2.880
 6696W        W10760   6.472   2.341  10.487
 6697W        W10761   4.213   7.080  11.666
 6698W        W10762   6.394   5.124   2.733
 6699W        W10763   2.221   1.633   0.650
 6700W        W10764   9.048   1.893   8.955
 6701W        W10765   2.200   2.719   3.088
 6702W        W10766   0.381   3.606   1.257
 6703W        W10767   8.853   8.610   9.627
 6704W        W10768   5.990   2.334   0.249
 6705W        W10769   6.326   9.801   1.722
 6706W        W10770   2.564   7.332  10.733
 6707W        W10771   3.235   8.894   0.534
 6708W        W10772   3.311   4.204  10.270
 6709W        W10773   0.017   8.472   9.037
 6710W        W10774   7.407  10.194   0.958
 6711W        W10775   3.168   1.835   9.884
 6712W        W10776   8.092   3.113   2.517
 6713W        W10777   6.021   4.578   8.636
 6714W        W10778   4.603   4.088   1.840
 6715W        W10779   0.175   9.010   8.888
 6716W        W10780   4.119   3.244   2.737
 6717W        W10781   2.664   5.676  11.261
 6718W        W10782   7.067  10.477   0.722
 6719W        W10783   2.293   1.164   0.827
 6720W        W10784   3.827   5.471   2.446
 6721W        W10785   4.033   4.142   9.478
 6722W        W10786   9.788   5.944   1.926
 6723W        W10787   3.234  10.223  11.067
 6724W        W10788   0.036   7.579   0.720
 6725W        W10789   4.114   5.952  10.919
 6726W        W10790   6.998   3.359  11.080
 6727W        W10791   1.275   9.965   2.902
 6728W        W10792   7.406  10.432   9.516
 6729W        W10793   2.320   7.512   3.265
 6730W        W10794  10.313   1.170   8.843
 6731W        W10795   5.178   6.039   1.325
 6732W        W10796   8.385   3.105   3.337
 6733W        W10797   9.854   7.181   3.468
 6734W        W10798   6.987   9.985   3.133
 6735W        W10799   4.284   1.670   1.404
 6736W        W10800   6.564   3.556  11.551
 6737W        W10801   1.335  10.013   0.944
 6738W        W10802   3.671   5.775   8.871
 6739W        W10803   9.975   3.364   0.774
 6740W        W10804   4.471   7.920   2.416
 6741W        W10805   6.510   5.707   1.122
 6742W        W10806   0.901   6.197   0.394
 6743W        W10807   0.869   5.977   1.292
 6744W        W10808  10.324   3.990   0.646
 6745W        W10809   6.549   7.051   2.211
 6746W        W10810   9.518  10.244  10.289
 6747W        W10811   9.546   2.413   2.983
 6748W        W10812   6.391   1.794   1.907
 6749W        W10813   2.175   8.966   0.714
 6750W        W10814   5.076   7.207   0.767
 6751W        W10815   3.276   6.087   1.891
 6752W        W10816   7.559  10.070   0.482
 6753W        W10817   0.388   9.425   0.402
 6754W        W10818   6.975   4.240   8.917
 6755W        W10819   5.684   6.032   1.474
 6756W        W10820   9.192   3.290  11.930
 6757W        W10821   6.586   8.644  10.070
 6758W        W10822   4.657   8.480  10.945
 6759W        W10823   9.981   3.819   3.139
 6760W        W10824   5.113   0.862  11.927
 6761W        W10825   0.246   5.843   9.747
 6762W        W10826   5.543   1.163   1.090
 6763W        W10827   4.159   3.510   3.157
 6764W        W10828   2.254   6.689   3.033
 6765W        W10829   7.665   0.857  10.931
 6766W        W10830   6.875   9.437   2.459
 6767W        W10831  10.237   7.904   9.216
 6768W        W10832   2.639   8.790   2.114
 6769W        W10833   8.977   6.676   0.061
 6770W        W10834   1.617   9.008   1.033
 6771W        W10835   8.000   0.438   0.037
 6772W        W10836   2.310   4.741   1.227
 6773W        W10837   2.594   9.862   1.461
 6774W        W10838   6.696   5.390  10.305
 6775W        W10839   7.534   2.830   8.508
 6776W        W10840   8.846   1.773   0.771
 6777W        W10841   1.228   5.449  10.899
 6778W        W10842   5.315   6.455  11.438
 6779W        W10843   2.357   8.667   1.124
 6780W        W10844   5.484   0.430   9.897
 6781W        W10845   8.857   2.582   2.407
 6782W        W10846   6.661   8.984   9.010
 6783W        W10847   5.421   7.121   9.606
 6784W        W10848   0.278   8.288   8.626
 6785W        W10849   8.564   4.264   0.729
 6786W        W10850   8.925   3.119  10.430
 6787W        W10851   5.059   0.882   3.193
 6788W        W10852   7.632   1.254   0.113
 6789W        W10853   7.645   9.153   0.888
 6790W        W10854   5.559   4.341  10.741
 6791W        W10855   9.807   2.889   0.924
 6792W        W10856   1.758  10.225   0.753
 6793W        W10857   2.392   4.669   1.744
 6794W        W10858   6.343   8.347   0.358
 6795W        W10859   0.255   4.558   1.501
 6796W        W10860   5.224   2.911   1.618
 6797W        W10861   6.747   9.493   9.037
 6798W        W10862   3.505   8.545   3.090
 6799W        W10863   1.438   8.610  10.400
 6800W        W10864   8.932   6.679   1.994
 6801W        W10865   1.776   8.587   3.148
 6802W        W10866   5.145   4.135   3.318
 6803W        W10867   8.208   9.507   3.463
 6804W        W10868   6.186   9.851  10.075
 6805W        W10869   7.787   5.924  10.068
 6806W        W10870   4.167   0.878   0.387
 6807W        W10871   9.851   7.457   9.324
 6808W        W10872   4.289   0.414   0.225
 6809W        W10873   7.145   6.124   8.577
 6810W        W10874   1.251   9.852  10.786
 6811W        W10875   9.377   0.558  11.947
 6812W        W10876  10.254   5.776   0.223
 6813W        W10877   1.648   0.793   3.371
 6814W        W10878   2.452   4.612   0.729
 6815W        W10879   5.546   7.938   9.893
 6816W        W10880   5.187   5.654  10.411
 6817W        W10881   4.707   9.116   9.715
 6818W        W10882   8.337   3.267  11.273
 6819W        W10883  10.053  10.447   9.454
 6820W        W10884   6.883   8.965   1.667
 6821W        W10885   3.248   0.195  10.809
 6822W        W10886   4.474   8.086  10.685
 6823W        W10887   6.813   4.279  11.708
 6824W        W10888   9.875   4.781   2.367
 6825W        W10889   5.794   6.140   0.105
 6826W        W10890   5.115   1.393   1.817
 6827W        W10891   3.563   4.655  10.395
 6828W        W10892   5.687   8.418  11.356
 6829W        W10893   4.588   1.008   2.924
 6830W        W10894   0.524   3.283   2.851
 6831W        W10895   0.132   8.897   9.379
 6832W        W10896   4.968   1.693   0.046
 6833W        W10897  10.393   3.305   1.633
 6834W        W10898   8.994   0.945   8.960
 6835W        W10899   6.427   0.329  10.400
 6836W        W10900   3.329   9.594   0.105
 6837W        W10901   9.960   4.256   2.476
 6838W        W10902  10.271   2.242   2.469
 6839W        W10903   1.206   3.061   1.590
 6840W        W10904   2.980   1.741  11.499
 6841W        W10905   5.421   5.684   2.363
 6842W        W10906   8.869   3.669   9.471
 6843W        W10907   0.857   3.300   3.287
 6844W        W10908   3.957   8.923  11.965
 6845W        W10909   9.378   6.985   3.497
 6846W        W10910   6.581   5.427   1.980
 6847W        W10911   7.590   0.580   1.349
 6848W        W10912   5.601   7.011   2.311
 6849W        W10913   7.130   1.308   0.200
 6850W        W10914   5.437  10.394   0.289
 6851W        W10915   8.539  10.208   8.669
 6852W        W10916   8.893   7.165   0.219
 6853W        W10917   4.066   7.136  10.880
 6854W        W10918   8.852   5.089   9.838
 6855W        W10919   3.741   5.078   9.094
 6856W        W10920   0.379   2.241  11.926
 6857W        W10921   7.254   8.778   8.730
 6858W        W10922   0.071   9.438   3.518
 6859W        W10923   0.293   1.725  11.711
 6860W        W10924   1.765   2.092  11.622
 6861W        W10925   7.597   1.944   8.357
 6862W        W10926   4.056   3.992   3.131
 6863W        W10927   3.278  10.280  11.582
 6864W        W10928   7.579   1.670  10.268
 6865W        W10929   9.329   5.125   3.396
 6866W        W10930   9.583  10.001   0.741
 6867W        W10931   0.583   3.309  11.298
 6868W        W10932   1.752   2.581   9.104
 6869W        W10933   4.926   6.048   3.259
 6870W        W10934   9.891   6.797   2.263
 6871W        W10935   2.473   5.542   2.225
 6872W        W10936   5.031   1.753   3.072
 6873W        W10937   6.755   2.590   0.832
 6874W        W10938   5.462   2.231   9.598
 6875W        W10939   6.411   1.184   9.768
 6876W        W10940   7.954   2.286  11.875
 6877W        W10941   1.321   2.815   8.977
 6878W        W10942   1.265   7.356   0.332
 6879W        W10943   4.936   1.871   0.887
 6880W        W10944   0.838   4.276  10.820
 6881W        W10945   7.373   9.119  11.177
 6882W        W10946  10.041   5.204   9.314
 6883W        W10947   4.324   3.120  11.864
 6884W        W10948   3.401   1.298   0.249
 6885W        W10949   9.935   5.375   9.909
 6886W        W10950   7.431   4.129   3.853
 6887W        W10951   6.258   4.044   2.172
 6888W        W10952   2.054   1.823   1.957
 6889W        W10953   0.621   7.560   2.342
 6890W        W10954   6.420   3.305   8.990
 6891W        W10955   9.713   6.827   1.769
 6892W        W10956   5.660   8.856   3.006
 6893W        W10957  10.315   1.417   2.438
 6894W        W10958   0.314   4.235   2.039
 6895W        W10959   3.962   1.772  11.731
 6896W        W10960   0.363   1.773  10.304
 6897W        W10961   6.631   3.734   3.000
 6898W        W10962   8.602   5.536   0.807
 6899W        W10963   7.990   4.869   3.543
 6900W        W10964   7.151   9.425  11.995
 6901W        W10965   1.776   6.155  11.224
 6902W        W10966   2.614   7.940  11.982
 6903W        W10967   8.502   0.906  11.565
 6904W        W10968  10.096   5.499  10.483
 6905W        W10969   8.479   5.693   3.157
 6906W        W10970   3.701   0.238   9.556
 6907W        W10971   6.043   9.444   1.990
 6908W        W10972   0.864   0.666   8.468
 6909W        W10973   0.507  10.316   8.754
 6910W        W10974   8.958   9.268   8.685
 6911W        W10975   6.154   1.371  11.738
 6912W        W10976   0.055   8.503  10.414
 6913W        W10977   6.512   9.808  10.956
 6914W        W10978   2.681   2.583   8.968
 6915W        W10979   7.906   2.956  11.268
 6916W        W10980   0.848   3.540   9.232
 6917W        W10981   6.642   4.485  10.490
 6918W        W10982   2.590   5.139  11.006
 6919W        W10983   8.617   5.571  11.677
 6920W        W10984   4.422   1.324   0.232
 6921W        W10985   5.207   6.225   0.801
 6922W        W10986   6.435  10.074   8.198
 6923W        W10987   4.234   5.692   2.760
 6924W        W10988   9.964   7.996  10.107
 6925W        W10989   2.412   7.744   0.722
 6926W        W10990   8.986   3.629   1.187
 6927W        W10991   7.347   5.405  11.811
 6928W        W10992   8.326   3.683  11.850
 6929W        W10993   6.450   7.118   9.580
 6930W        W10994   9.963   7.079   0.084
 6931W        W10995   3.794   5.517   2.960
 6932W        W10996  10.480   0.905  11.892
 6933W        W10997   7.615  10.283   2.965
 6934W        W10998   5.109  10.421   3.339
 6935W        W10999   9.533   4.233   1.239
 6936W        W11000   7.551   4.700   3.205
 6937W        W11001   3.228  10.348   2.439
 6938W        W11002   6.938   3.130   3.675
 6939W        W11003   9.366   8.338  10.940
 6940W        W11004   7.945   7.087   3.293
 6941W        W11005   7.534   7.843   9.411
 6942W        W11006   8.437   3.353   2.834
 6943W        W11007   4.608   3.556   2.084
 6944W        W11008   6.462   4.955  10.450
 6945W        W11009   7.554   1.434   1.519
 6946W        W11010   6.035   4.588   0.561
 6947W        W11011   3.846   7.281   2.845
 6948W        W11012   8.563   0.656   1.679
 6949W        W11013   8.520   1.410  11.387
 6950W        W11014   1.252   4.700   1.371
 6951W        W11015   7.460   7.754  11.904
 6952W        W11016  10.353   2.763   9.116
 6953W        W11017   7.952   9.922   2.814
 6954W        W11018   4.492   6.621   2.198
 6955W        W11019   0.825   4.718   0.860
 6956W        W11020   7.067   4.732  11.545
 6957W        W11021   5.203   2.226  10.590
 6958W        W11022   1.691   4.713   0.456
 6959W        W11023   8.526  10.224   1.256
 6960W        W11024   0.116   8.023   0.997
 6961W        W11025   4.627   7.428  10.292
 6962W        W11026   8.415   9.014  11.517
 6963W        W11027   7.168   9.182   9.064
 6964W        W11028   6.290   6.083   9.995
 6965W        W11029   9.876  10.424   8.932
 6966W        W11030   5.942   1.909   0.604
 6967W        W11031   2.753   2.711   0.443
 6968W        W11032   0.304   5.159   2.185
 6969W        W11033   4.055   9.052   1.906
 6970W        W11034   1.889   5.091   1.671
 6971W        W11035   9.025   4.081   0.939
 6972W        W11036   0.404   5.605   0.519
 6973W        W11037   6.694   4.261   3.290
 6974W        W11038  10.428   7.935   3.507
 6975W        W11039   2.002   1.712  10.102
 6976W        W11040   7.580   0.698   3.096
 6977W        W11041   7.612   1.988   3.706
 6978W        W11042   1.214   8.635  11.689
 6979W        W11043   2.787   5.298  10.006
 6980W        W11044   2.415   2.628   3.560
 6981W        W11045  10.351   2.171   1.487
 6982W        W11046   6.028   1.703   8.631
 6983W        W11047   9.368   8.594   1.108
 6984W        W11048   0.753   3.719   0.792
 6985W        W11049   4.184   7.446   1.557
 6986W        W11050   6.324   4.669   0.142
 6987W        W11051   3.591   1.954   9.542
 6988W        W11052   3.067   6.380   3.964
 6989W        W11053   8.558   4.857   2.754
 6990W        W11054   9.380   0.121   8.994
 6991W        W11055   3.640   4.163   1.613
 6992W        W11056   1.596   4.222   0.773
 6993W        W11057   3.390   7.432   9.226
 6994W        W11058   9.893   9.072   9.458
 6995W        W11059   5.647   4.535   0.895
 6996W        W11060   2.227   4.694  10.344
 6997W        W11061  10.020   2.121  10.672
 6998W        W11062   9.247   9.848  11.800
 6999W        W11063   5.114  10.041   0.500
 7000W        W11064   1.192   0.317   2.521
 7001W        W11065   7.474   0.981  11.477
 7002W        W11066   9.980   2.291  11.174
 7003W        W11067   3.383   1.811  10.368
 7004W        W11068   7.993   4.800   9.981
 7005W        W11069   9.357   7.536   2.820
 7006W        W11070   6.397   0.335   2.892
 7007W        W11071   1.722   4.869   9.430
 7008W        W11072   3.688   1.484   9.384
 7009W        W11073   9.910   8.045   0.441
 7010W        W11074   8.847   1.011   0.370
 7011W        W11075   5.503   7.203  10.497
 7012W        W11076   2.399   9.439   0.681
 7013W        W11077   3.837   4.233  10.415
 7014W        W11078   4.794   4.260   2.295
 7015W        W11079   4.605   2.417   0.153
 7016W        W11080   8.433   5.561   0.148
 7017W        W11081   3.674  10.065  11.317
 7018W        W11082   9.065   4.784  11.342
 7019W        W11083   9.637   7.082   9.926
 7020W        W11084   4.565   8.673   8.835
 7021W        W11085   4.794   4.043  10.336
 7022W        W11086   1.958   0.785   9.011
 7023W        W11087   8.439  10.058   2.673
 7024W        W11088  10.202   5.686   3.598
 7025W        W11089   5.223   2.230   3.183
 7026W        W11090   6.901   5.544   0.026
 7027W        W11091   2.244   0.028   9.040
 7028W        W11092   8.139   5.164   2.589
 7029W        W11093   8.308   0.598  10.369
 7030W        W11094  10.009   5.255   8.798
 7031W        W11095   9.248   9.035  10.342
 7032W        W11096  10.009   4.627   2.848
 7033W        W11097   9.010   4.662  10.153
 7034W        W11098   5.773   4.806   1.303
 7035W        W11099   7.221   6.382   3.313
 7036W        W11100   1.683   3.585   9.798
 7037W        W11101   7.568   4.860   2.225
 7038W        W11102   3.748   1.817   9.001
 7039W        W11103   8.602   5.388   2.648
 7040W        W11104   4.069   9.949   3.152
 7041W        W11105   4.214   2.934   1.497
 7042W        W11106   7.130   4.512   3.452
 7043W        W11107   6.930   6.944  11.485
 7044W        W11108   9.782   4.501   0.247
 7045W        W11109   6.649   4.140   1.837
 7046W        W11110   2.645   6.820  10.868
 7047W        W11111   6.896   9.584   0.379
 7048W        W11112   1.862   3.409   8.505
 7049W        W11113  10.378   4.085   8.352
 7050W        W11114   5.453   9.519   8.964
 7051W        W11115   8.939   7.573   9.746
 7052W        W11116   1.311   3.837   0.071
 7053W        W11117   1.110   4.694   8.478
 7054W        W11118   4.552   3.588   9.076
 7055W        W11119   5.543   1.610   8.509
 7056W        W11120   0.871   7.916  10.097
 7057W        W11121  10.442  10.487  11.824
 7058W        W11122   1.395   2.233   1.359
 7059W        W11123   7.377   9.438   2.296
 7060W        W11124   5.538   6.711  11.937
 7061W        W11125   8.848   2.408   0.070
 7062W        W11126   6.413   3.022   8.508
 7063W        W11127   8.949   0.695  11.733
 7064W        W11128   0.298   4.491  11.480
 7065W        W11129   4.735   6.680   8.592
 7066W        W11130   6.712   6.742   9.351
 7067W        W11131   0.568   1.167   0.328
 7068W        W11132   9.258   2.411  11.790
 7069W        W11133   5.295   1.855  11.671
 7070W        W11134   1.176   1.800  11.842
 7071W        W11135  10.487   4.278   9.594
 7072W        W11136   1.045   3.237   2.426
 7073W        W11137   2.709   7.914   1.468
 7074W        W11138   3.287   6.055   9.061
 7075W        W11139   9.810   2.261   2.183
 7076W        W11140   4.275   2.196   1.461
 7077W        W11141   6.517   6.295   1.714
 7078W        W11142   3.076   6.559   1.998
 7079W        W11143   5.437   6.487   2.667
 7080W        W11144   0.821   9.816   3.078
 7081W        W11145   2.757   0.278   3.540
 7082W        W11146   7.880   2.045   0.949
 7083W        W11147   0.506   6.710   0.996
 7084W        W11148   2.204   1.263  10.495
 7085W        W11149   8.445   0.539   1.134
 7086W        W11150   7.897   1.857   1.712
 7087W        W11151   6.476   5.910   2.082
 7088W        W11152   6.695  10.387   2.872
 7089W        W11153   6.995   6.425   2.703
 7090W        W11154   4.290   2.148  11.868
 7091W        W11155   6.507   9.325   1.795
 7092W        W11156   6.107   2.723   2.727
 7093W        W11157   0.703   8.572  11.589
 7094W        W11158   2.284   7.214   1.443
 7095W        W11159   4.183  10.022  11.256
 7096W        W11160  10.297   6.452   2.269
 7097W        W11161  10.330   1.802  11.550
 7098W        W11162   9.288   4.211  10.065
 7099W        W11163   1.305   6.943  11.051
 7100W        W11164   3.736   7.485  10.518
 7101W        W11165   1.322   1.562  11.420
 7102W        W11166   9.580   0.025  11.220
 7103W        W11167   1.146   1.703  10.961
 7104W        W11168   0.392   3.280   1.778
 7105W        W11169   6.527   4.656   0.821
 7106W        W11170   0.031   9.102   0.176
 7107W        W11171   1.836   3.140   1.206
 7108W        W11172   9.882   7.492  10.841
 7109W        W11173   1.439   9.815   0.447
 7110W        W11174   1.606   4.318   1.902
 7111W        W11175   4.669   1.014   1.168
 7112W        W11176   6.891   6.651   1.311
 7113W        W11177   2.822   6.990  10.409
 7114W        W11178   3.532   7.008   9.579
 7115W        W11179   5.108   0.566   1.485
 7116W        W11180   1.993   4.282   0.445
 7117W        W11181   2.764   9.351   9.352
 7118W        W11182   9.193   8.952   3.644
 7119W        W11183   8.380   7.634   8.960
 7120W        W11184   4.050   6.998   9.570
 7121W        W11185   4.333   6.250   4.134
 7122W        W11186   0.823   0.392   1.858
 7123W        W11187   9.474   2.451   0.886
 7124W        W11188   9.854   5.039   1.539
 7125W        W11189   2.546   7.834   9.999
 7126W        W11190  10.202   0.518   3.077
 7127W        W11191   2.825   0.231   1.742
 7128W        W11192   3.336   4.766  11.045
 7129W        W11193   3.610   6.233   8.642
 7130W        W11194   9.553   2.501  11.011
 7131W        W11195   9.617   8.656   2.864
 7132W        W11196   5.506   9.344   9.468
 7133W        W11197   8.456   8.580   9.958
 7134W        W11198   7.873   5.411   8.860
 7135W        W11199   6.996   2.672   2.240
 7136W        W11200   2.709   1.894   2.692
 7137W        W11201   9.779   7.547  11.412
 7138W        W11202   6.933   3.507   9.214
 7139W        W11203   2.278   3.479  10.683
 7140W        W11204   9.166   9.128   0.432
 7141W        W11205   6.557   0.009   8.937
 7142W        W11206   9.008   2.067  10.860
 7143W        W11207   0.917   7.124  11.393
 7144W        W11208   1.408   5.603   3.296
 7145W        W11209   0.335   2.912   9.325
 7146W        W11210  10.305   5.997  10.472
 7147W        W11211   9.146   5.164   9.425
 7148W        W11212   0.528   3.179   2.314
 7149W        W11213   7.470   2.195  11.720
 7150W        W11214   0.159   1.379   3.411
 7151W        W11215  10.263   4.234  10.932
 7152W        W11216  10.375   2.934   9.621
 7153W        W11217   5.465   7.857   0.274
 7154W        W11218   4.766   7.348   1.292
 7155W        W11219   4.621   2.846   0.439
 7156W        W11220   2.376   7.416  11.221
 7157W        W11221   9.331  10.007   2.792
 7158W        W11222   6.559   5.227   3.629
 7159W        W11223   3.599   0.250   3.526
 7160W        W11224   6.232   5.687  10.361
 7161W        W11225   2.587   0.187   0.003
 7162W        W11226   1.452   4.922   1.825
 7163W        W11227   1.867   8.924   9.807
 7164W        W11228  10.257   1.094  10.985
 7165W        W11229   4.292   4.721   0.962
 7166W        W11230   1.814  10.384  11.156
 7167W        W11231   0.381   6.148   0.637
 7168W        W11232   6.780   1.690   0.884
 7169W        W11233   0.911   3.864  11.748
 7170W        W11234   6.103   3.317   8.095
 7171W        W11235   3.594   6.631   0.195
 7172W        W11236   6.989   5.042   9.352
 7173W        W11237   7.355   9.504  11.536
 7174W        W11238   4.628   9.610   1.040
 7175W        W11239   2.604   4.714  10.727
 7176W        W11240   5.455   7.005   4.004
 7177W        W11241   9.661   7.600   2.159
 7178W        W11242   9.731   2.986  11.341
 7179W        W11243   6.233   5.274   1.279
 7180W        W11244   0.323   3.159  10.318
 7181W        W11245   0.491   8.568   9.494
 7182W        W11246   3.788   8.468   2.329
 7183W        W11247   9.600   8.774   2.135
 7184W        W11248   8.348   2.286  11.491
 7185W        W11249   0.169   2.153  10.003
 7186W        W11250   4.979   0.392   9.151
 7187W        W11251   5.103   7.704   0.635
 7188W        W11252  10.035  10.277   0.809
 7189W        W11253   2.307   6.465  10.727
 7190W        W11254   4.988   5.336   1.644
 7191W        W11255   9.469   1.376   1.323
 7192W        W11256   1.877   4.437  11.484
 7193W        W11257   7.703   6.655  11.356
 7194W        W11258   6.651   5.251   3.137
 7195W        W11259   1.266   5.916   1.961
 7196W        W11260   7.112   4.021   3.071
 7197W        W11261   1.822   6.167   0.244
 7198W        W11262   7.561   7.299   2.366
 7199W        W11263   5.529   9.427  10.438
 7200W        W11264   2.688   6.391   2.313
 7201W        W11265   4.065   9.046   0.479
 7202W        W11266   6.092   2.382   0.743
 7203W        W11267   0.814   8.093   2.256
 7204W        W11268   3.193   6.528   8.795
 7205W        W11269   1.701   8.838   8.916
 7206W        W11270   1.299   5.207  10.438
 7207W        W11271   5.605   2.830   2.827
 7208W        W11272   3.225   1.853   0.497
 7209W        W11273   1.622   6.969   1.909
 7210W        W11274   6.208   3.046   9.364
 7211W        W11275   4.834   7.994   3.611
 7212W        W11276   7.522   9.553   9.255
 7213W        W11277   6.668   1.721   2.372
 7214W        W11278   2.798   2.843   9.889
 7215W        W11279  10.267   2.805  10.528
 7216W        W11280   1.782   6.920  11.262
 7217W        W11281   5.938   8.103  11.006
 7218W        W11282   4.152   5.745   2.131
 7219W        W11283   9.968   7.581   1.335
 7220W        W11284   0.818   9.425  10.038
 7221W        W11285   4.192   5.593  11.254
 7222W        W11286   1.341   8.155  11.559
 7223W        W11287   8.584   3.769   1.455
 7224W        W11288   6.886   0.910   0.403
 7225W        W11289   4.738   5.382  10.416
 7226W        W11290   9.832   8.064   2.276
 7227W        W11291   7.103  10.306   8.690
 7228W        W11292   8.116   8.179  11.325
 7229W        W11293   3.044   2.355  10.028
 7230W        W11294   7.580   6.867  10.892
 7231W        W11295   4.091   4.272   9.972
 7232W        W11296  10.297   6.219   0.477
 7233W        W11297   6.415   9.674   2.578
 7234W        W11298   5.053   9.576  11.742
 7235W        W11299   8.611   4.429   2.443
 7236W        W11300   1.606   7.236   2.731
 7237W        W11301   7.442   7.070   3.296
 7238W        W11302   9.398   5.181   1.270
 7239W        W11303   8.312   9.191   2.406
 7240W        W11304   0.323   8.166  11.592
 7241W        W11305   9.804   1.718   3.502
 7242W        W11306   8.440   8.321   2.273
 7243W        W11307   6.929   4.643   8.588
 7244W        W11308   0.592   7.197   1.049
 7245W        W11309   0.776  10.441  10.969
 7246W        W11310   4.171   9.336   2.319
 7247W        W11311   6.513   2.146   0.900
 7248W        W11312   0.794   6.991  10.271
 7249W        W11313   2.819   5.881   3.927
 7250W        W11314   4.075   6.631  11.426
 7251W        W11315   5.931   6.896  10.535
 7252W        W11316   8.388   8.534   9.452
 7253W        W11317   9.421   0.641   9.048
 7254W        W11318   8.101   5.180   0.328
 7255W        W11319   4.784   4.188   0.280
 7256W        W11320   9.878   0.859  10.303
 7257W        W11321   2.899   6.677   9.489
 7258W        W11322   6.849   5.919   0.368
 7259W        W11323  10.444   6.597   1.743
 7260W        W11324   7.376   4.474   9.829
 7261W        W11325   7.957   3.190   3.003
 7262W        W11326   1.388   4.697   0.026
 7263W        W11327   6.279   0.419   1.076
 7264W        W11328   3.122   0.852  10.177
 7265W        W11329   9.483   8.008   1.634
 7266W        W11330   2.114   4.989   0.617
 7267W        W11331   4.209   9.378  11.882
 7268W        W11332   2.806   6.971   0.938
 7269W        W11333   2.766   3.805  11.438
 7270W        W11334   1.704  10.333   9.719
 7271W        W11335   0.906   5.490   8.623
 7272W        W11336   5.939   6.874   3.322
 7273W        W11337   7.407   7.565   0.396
 7274W        W11338   5.202   0.537   2.273
 7275W        W11339   3.284   9.688  11.133
 7276W        W11340   9.256   7.071  10.328
 7277W        W11341   4.974   5.573   0.287
 7278W        W11342   1.782   1.388  11.258
 7279W        W11343   0.546   5.182   8.884
 7280W        W11344   5.737   9.415   0.916
 7281W        W11345   4.964   6.981  11.418
 7282W        W11346   0.881   9.891   1.684
 7283W        W11347   1.683   9.788   8.995
 7284W        W11348   8.982   6.606   9.551
 7285W        W11349   9.909   2.660  11.969
 7286W        W11350   8.119   8.527   8.578
 7287W        W11351   1.986   5.659   2.311
 7288W        W11352   7.888   7.465   9.246
 7289W        W11353   5.541   5.726   9.031
 7290W        W11354   0.309   3.558   9.995
 7291W        W11355  10.361   6.596  11.827
 7292W        W11356   3.341   3.064  11.991
 7293W        W11357   4.556   7.702   9.874
 7294W        W11358   8.416   2.111  11.973
 7295W        W11359   6.529   7.520  10.640
 7296W        W11360   2.810   2.311   2.947
 7297W        W11361   7.414   2.082   9.747
 7298W        W11362   3.643   5.018   9.598
 7299W        W11363   9.380   7.907   2.480
 7300W        W11364   5.947   8.657   0.329
 7301W        W11365   3.603   3.817   9.418
 7302W        W11366   0.278   6.564   2.141
 7303W        W11367   2.361   5.119   9.308
 7304W        W11368   9.787   8.079   1.230
 7305W        W11369   9.328  10.102   8.897
 7306W        W11370   7.372   1.755  11.976
 7307W        W11371   1.422   3.174   2.951
 7308W        W11372   0.782  10.307  10.091
 7309W        W11373   0.857   7.641   3.611
 7310W        W11374   1.241   1.295   9.080
 7311W        W11375   8.092   0.325   9.075
 7312W        W11376   5.083   0.759   0.993
 7313ION    NA+11377   6.459   4.858   8.693
 7314ION    NA+11378   1.864  10.077   2.203
 7315ION    NA+11379   7.759   7.051  11.707
 7316ION    NA+11380   9.062   5.976   1.345
 7317ION    NA+11381   5.482   3.585   9.495
 7318ION    NA+11382   7.900   4.755   0.136
 7319ION    NA+11383   5.517   4.058   0.960
 7320ION    NA+11384   6.216   1.441  10.730
 7321ION    NA+11385   2.611   8.361   9.927
 7322ION    NA+11386   2.741   4.596  10.253
 7323ION    NA+11387   1.513   2.368  10.626
 7324ION    NA+11388  10.105   4.992  11.454
 7325ION    NA+11389   2.676   0.357  10.294
 7326ION    NA+11390   0.604   9.100   9.408
 7327ION    NA+11391   5.157   4.580   2.631
 7328ION    NA+11392   4.198   8.546   0.225
 7329ION    NA+11393   7.465   4.358   2.325
 7330ION    NA+11394   1.134   7.657   2.312
 7331ION    NA+11395   8.837   0.614   9.589
 7332ION    NA+11396   3.717   2.626  10.084
 7333ION    NA+11397   7.335   1.292   1.951
 7334ION    NA+11398   4.996   3.255   0.663
 7335ION    NA+11399   4.217   5.411   0.514
 7336ION    NA+11400   0.617   8.409  11.106
 7337ION    NA+11401   0.665   2.640   1.089
 7338ION    NA+11402   8.287   1.534   1.761
 7339ION    NA+11403   0.790   2.711   9.776
 7340ION    NA+11404   1.509   2.730   0.006
 7341ION    NA+11405   7.094   9.011   9.885
 7342ION    NA+11406   8.454   6.209   3.092
 7343ION    NA+11407   2.927   9.517   2.711
 7344ION    NA+11408   8.932   9.169   2.650
 7345ION    NA+11409   2.398   2.136  11.031
 7346ION    NA+11410   0.916   5.161  11.973
 7347ION    NA+11411   9.658   2.095  11.834
 7348ION    NA+11412   7.055   7.182   0.364
 7349ION    NA+11413   2.296   1.262   9.966
 7350ION    NA+11414   4.986   4.087  11.779
 7351ION    NA+11415   6.517   7.802   8.998
 7352ION    NA+11416   8.629   8.241  11.403
 7353ION    NA+11417   2.701   6.485   0.330
 7354ION    NA+11418   1.673   5.178   2.728
 7355ION    NA+11419   5.144   8.236   0.938
 7356ION    NA+11420   5.627   6.083  11.216
 7357ION    NA+11421   3.045   7.170   9.506
 7358ION    NA+11422   6.702   9.141   3.243
 7359ION    NA+11423   1.709   7.088  10.776
 7360ION    NA+11424  10.481   1.602   9.108
 7361ION    NA+11425   1.425   8.287   0.565
 7362ION    NA+11426   7.906   8.734   9.371
 7363ION    NA+11427   8.378   9.060  10.887
 7364ION    NA+11428   4.404   1.500  11.417
 7365ION    NA+11429   3.116   2.883  11.289
 7366ION    NA+11430   3.803   3.884   0.659
 7367ION    NA+11431   7.675   7.855   1.464
 7368ION    NA+11432   9.007   5.113   2.765
 7369ION    NA+11433   6.646   1.691   3.195
 7370ION    NA+11434   3.452   8.389  11.449
 7371ION    NA+11435   9.871   9.525   1.256
 7372ION    NA+11436   7.073   3.113   2.554
 7373ION    NA+11437   6.198   2.554   1.229
 7374ION    NA+11438   4.009   2.279   0.934
 7375ION    NA+11439   6.040   9.654   9.607
 7376ION    NA+11440   9.953   9.823  11.386
 7377ION    NA+11441   9.019  10.323  10.427
 7378ION    NA+11442   1.197   9.100   0.758
 7379ION    NA+11443   8.515   7.008   2.991
 7380ION    NA+11444   3.773   1.669   3.036
 7381ION    NA+11445   6.078   6.963   8.670
 7382ION    NA+11446   6.572   0.719   0.783
 7383ION    NA+11447   8.456   6.859   0.226
 7384ION    NA+11448   7.072   6.442  11.691
 7385ION    NA+11449   1.503   4.557   8.915
 7386ION    NA+11450   1.659   0.350  10.351
 7387ION    NA+11451   2.980   3.965   0.303
 7388ION    NA+11452   2.089   0.189  11.639
 7389ION    NA+11453   3.864  10.113   0.461
 7390ION    CL-11454   5.829   5.576   2.662
 7391ION    CL-11455   8.177   9.870   1.374
 7392ION    CL-11456   6.201   0.546   0.596
 7393ION    CL-11457   6.577   1.706  10.772
 7394ION    CL-11458   7.464   7.254   9.459
 7395ION    CL-11459  10.163   8.335   0.946
 7396ION    CL-11460   4.087   5.273   9.426
 7397ION    CL-11461   1.578   7.684   2.358
 7398ION    CL-11462   1.920   5.494  10.024
 7399ION    CL-11463   9.386   7.535   3.330
 7400ION    CL-11464   5.541   2.625  11.363
 7401ION    CL-11465   2.854   9.902   8.383
 7402ION    CL-11466   4.099   6.401  10.112
 7403ION    CL-11467   2.331   3.927   2.913
 7404ION    CL-11468   1.198   8.683   0.578
 7405ION    CL-11469  10.463   5.172   9.580
 7406ION    CL-11470   9.195   9.508   2.517
 7407ION    CL-11471   2.168   8.435   3.458
 7408ION    CL-11472  10.239   7.899   0.050
 7409ION    CL-11473   0.284   1.592   0.223
 7410ION    CL-11474   7.818   7.421   1.459
 7411ION    CL-11475   7.710   8.332   9.341
 7412ION    CL-11476   2.910   2.915  11.685
 7413ION    CL-11477   4.245   5.261   0.091
 7414ION    CL-11478   0.623   8.815   9.064
 7415ION    CL-11479   2.014   6.472   1.604
 7416ION    CL-11480   7.891   6.400   9.101
 7417ION    CL-11481   7.359   6.790  11.771
 7418ION    CL-11482   5.519   7.389  11.347
 7419ION    CL-11483   2.847   2.265   3.452
 7420ION    CL-11484   0.978   4.781  11.746
 7421ION    CL-11485   0.282   3.936   0.866
 7422ION    CL-11486   8.672   6.581   2.944
 7423ION    CL-11487   1.056   8.484  11.208
 7424ION    CL-11488  10.198  10.003  11.727
 7425ION    CL-11489   7.250   6.271   1.332
 7426ION    CL-11490   9.636   6.221   3.660
 7427ION    CL-11491   3.909   1.921   1.181
 7428ION    CL-11492   2.876   3.150   2.957
 7429ION    CL-11493   6.242   4.742   9.066
 7430ION    CL-11494   4.483   1.669  11.822
 7431ION    CL-11495   1.910   0.590  11.733
 7432ION    CL-11496   7.868   2.152  10.987
 7433ION    CL-11497   9.837   8.032   9.549
 7434ION    CL-11498   9.702   9.605  11.071
 7435ION    CL-11499   6.494   9.254   2.855
 7436ION    CL-11500  10.068   2.213  11.704
 7437ION    CL-11501   3.409   3.873   0.430
 7438ION    CL-11502   2.278   3.607   1.968
 7439ION    CL-11503   8.860   7.928  11.624
 7440ION    CL-11504   3.669   1.467   2.647
 7441ION    CL-11505  10.376   3.749  10.818
 7442ION    CL-11506   7.357   8.154   1.331
 7443ION    CL-11507   6.769   1.280   9.427
 7444ION    CL-11508   4.139   4.794   1.789
 7445ION    CL-11509   9.341   5.931   1.688
 7446ION    CL-11510   0.235   8.158  11.092
 7447ION    CL-11511   6.314   6.622   1.294
 7448ION    CL-11512   8.635   0.900   9.867
 7449ION    CL-11513   8.818   3.110  11.507
 7450ION    CL-11514   9.371   0.792  11.410
 7451ION    CL-11515   4.778   8.497   9.289
 7452ION    CL-11516   0.048   0.343   0.183
 7453ION    CL-11517   5.090   4.487  11.978
 7454ION    CL-11518   3.816  10.020   9.114
 7455ION    CL-11519   1.283   4.274   2.366
 7456ION    CL-11520   8.148   7.070  11.966
 7457ION    CL-11521   8.999   1.906   3.223
 7458ION    CL-11522   3.263   7.592  10.740
 7459ION    CL-11523   9.569   6.678  10.251
 7460ION    CL-11524   4.457   8.901   0.150
 7461ION    CL-11525   7.709   5.941   2.157
 7462ION    CL-11526   1.481   4.206  10.523
 7463ION    CL-11527   0.725   6.562   2.433
 7464ION    CL-11528   8.373   5.554   8.875
 7465ION    CL-11529  10.152   4.011   8.806
 7466ION    CL-11530   5.077   3.721  11.522
  10.50000  10.50000  12.00000
