Protein in INSANE! Membrane UpperLeaflet>POPC=1.0 LowerLeaflet>POPC=1.0
11530
    1AU     AUC    1   5.266   5.279   5.999
    1AU     AUC    2   5.556   5.318   5.836
    1AU     AUC    3   5.536   5.309   6.166
    1AU     AUC    4   4.971   5.270   5.838
    1AU     AUC    5   5.012   5.271   6.189
    1AU     AUC    6   5.076   5.515   6.029
    1AU     AUC    7   5.406   5.555   5.999
    1AU     AUC    8   5.099   5.000   5.987
    1AU     AUC    9   5.467   5.045   6.006
    1AU     AUC   10   5.318   5.111   6.265
    1AU     AUC   11   5.255   5.443   6.275
    1AU     AUC   12   5.287   5.130   5.728
    1AU     AUC   13   5.261   5.456   5.734
    1AU     AUC   14   5.878   5.329   5.686
    1AU     AUC   15   5.915   5.342   5.991
    1AU     AUC   16   5.856   5.326   6.362
    1AU     AUC   17   4.669   5.254   5.687
    1AU     AUC   18   4.641   5.236   6.035
    1AU     AUC   19   4.710   5.232   6.389
    1AU     AUC   20   4.888   5.821   6.029
    1AU     AUC   21   5.224   5.897   5.990
    1AU     AUC   22   5.544   5.882   5.996
    1AU     AUC   23   4.927   4.698   5.951
    1AU     AUC   24   5.276   4.699   5.973
    1AU     AUC   25   5.643   4.741   5.977
    1AU     AUC   26   5.345   4.901   6.553
    1AU     AUC   27   5.295   5.231   6.610
    1AU     AUC   28   5.278   5.607   6.567
    1AU     AUC   29   5.304   4.941   5.424
    1AU     AUC   30   5.278   5.288   5.428
    1AU     AUC   31   5.266   5.642   5.445
    1AU     AUC   32   5.617   5.074   6.474
    1AU     AUC   33   5.579   5.444   6.509
    1AU     AUC   34   5.593   5.091   5.540
    1AU     AUC   35   5.606   5.473   5.526
    1AU     AUC   36   5.006   5.059   6.506
    1AU     AUC   37   4.994   5.413   6.505
    1AU     AUC   38   4.962   5.128   5.518
    1AU     AUC   39   4.945   5.463   5.526
    1AU     AUC   40   5.752   5.621   5.834
    1AU     AUC   41   5.709   5.599   6.196
    1AU     AUC   42   4.761   5.527   5.844
    1AU     AUC   43   4.769   5.537   6.230
    1AU     AUC   44   5.779   5.019   5.840
    1AU     AUC   45   5.791   5.030   6.138
    1AU     AUC   46   4.754   4.964   5.813
    1AU     AUC   47   4.803   4.951   6.158
    1AU     AUC   48   5.069   5.763   6.299
    1AU     AUC   49   5.401   5.777   6.296
    1AU     AUC   50   5.126   4.798   6.254
    1AU     AUC   51   5.501   4.783   6.274
    1AU     AUC   52   5.049   5.725   5.698
    1AU     AUC   53   5.443   5.763   5.684
    1AU     AUC   54   5.048   4.819   5.664
    1AU     AUC   55   5.443   4.808   5.686
    1AU    AUSL   56   5.883   5.237   6.745
    1AU    AUSL   57   5.760   4.742   6.648
    1AU     AUL   58   6.041   4.847   6.813
    1AU       S   59   6.097   4.489   6.505
    1AU     LIG   60   6.027   4.260   6.886
    1AU     LIG   61   6.105   3.811   7.023
    1AU       S   62   6.135   5.295   6.868
    1AU     LIG   63   6.085   5.395   7.299
    1AU     LIG   64   6.150   5.179   7.699
    1AU    AUSL   65   5.478   5.042   6.782
    1AU    AUSL   66   5.164   5.360   6.916
    1AU     AUL   67   5.362   5.228   7.141
    1AU       S   68   5.771   5.020   7.138
    1AU     LIG   69   5.654   5.108   7.556
    1AU     LIG   70   5.742   5.007   8.002
    1AU       S   71   4.671   5.160   7.211
    1AU     LIG   72   4.716   5.339   7.639
    1AU     LIG   73   4.666   5.377   8.111
    1AU    AUSL   74   5.489   5.470   6.665
    1AU    AUSL   75   5.902   5.659   6.619
    1AU     AUL   76   5.722   5.491   6.957
    1AU       S   77   5.333   5.738   7.120
    1AU     LIG   78   5.634   5.613   7.432
    1AU     LIG   79   5.793   5.517   7.854
    1AU       S   80   6.030   5.821   6.812
    1AU     LIG   81   6.431   5.734   6.916
    1AU     LIG   82   6.840   5.955   6.935
    1AU    AUSL   83   5.878   5.311   5.273
    1AU    AUSL   84   5.692   5.839   5.303
    1AU     AUL   85   5.832   5.605   5.036
    1AU       S   86   5.845   5.174   4.832
    1AU     LIG   87   6.052   5.172   4.409
    1AU     LIG   88   6.173   5.074   3.960
    1AU       S   89   6.037   5.963   5.257
    1AU     LIG   90   5.985   6.274   4.955
    1AU     LIG   91   6.167   6.605   4.695
    1AU    AUSL   92   5.522   5.044   5.242
    1AU    AUSL   93   5.818   5.022   5.605
    1AU     AUL   94   5.962   5.013   5.243
    1AU       S   95   6.148   4.357   5.378
    1AU     LIG   96   6.419   4.138   5.040
    1AU     LIG   97   6.570   4.147   4.570
    1AU       S   98   5.565   4.885   4.965
    1AU     LIG   99   5.404   4.765   4.506
    1AU     LIG  100   5.690   4.869   4.128
    1AU    AUSL  101   5.463   5.471   5.313
    1AU    AUSL  102   5.130   5.115   5.085
    1AU     AUL  103   5.417   5.336   4.976
    1AU       S  104   4.974   5.194   4.797
    1AU     LIG  105   5.021   5.099   4.327
    1AU     LIG  106   4.601   4.988   4.139
    1AU       S  107   5.756   4.951   4.784
    1AU     LIG  108   5.538   5.251   4.453
    1AU     LIG  109   5.737   5.397   4.045
    1AU    AUSL  110   4.818   5.214   6.691
    1AU    AUSL  111   5.028   5.673   6.652
    1AU     AUL  112   4.907   5.533   6.966
    1AU       S  113   4.558   5.219   6.952
    1AU     LIG  114   4.259   5.369   7.350
    1AU     LIG  115   4.245   5.244   7.823
    1AU       S  116   4.618   5.894   6.845
    1AU     LIG  117   4.438   6.243   7.046
    1AU     LIG  118   4.239   6.450   7.416
    1AU    AUSL  119   5.084   4.913   6.910
    1AU    AUSL  120   4.592   4.855   6.605
    1AU     AUL  121   4.764   4.804   6.869
    1AU       S  122   4.378   4.565   6.714
    1AU     LIG  123   3.977   4.342   6.900
    1AU     LIG  124   3.675   4.357   7.271
    1AU       S  125   4.894   5.093   7.204
    1AU     LIG  126   4.910   4.863   7.580
    1AU     LIG  127   4.654   4.882   7.952
    1AU    AUSL  128   4.720   5.209   5.234
    1AU    AUSL  129   5.007   4.911   5.448
    1AU     AUL  130   4.879   4.857   5.124
    1AU       S  131   4.558   5.135   4.914
    1AU     LIG  132   4.241   5.094   4.554
    1AU     LIG  133   4.161   5.295   4.143
    1AU       S  134   4.385   4.706   5.127
    1AU     LIG  135   4.468   4.235   5.027
    1AU     LIG  136   4.290   3.805   4.904
    1AU    AUSL  137   5.046   5.517   5.252
    1AU    AUSL  138   4.659   5.540   5.512
    1AU     AUL  139   4.747   5.525   5.084
    1AU       S  140   4.393   5.721   5.317
    1AU     LIG  141   4.103   6.076   5.147
    1AU     LIG  142   4.050   6.247   4.700
    1AU       S  143   4.719   5.066   4.712
    1AU     LIG  144   4.626   5.418   4.445
    1AU     LIG  145   4.625   5.475   3.989
    1AU    AUSL  146   5.944   5.921   6.020
    1AU    AUSL  147   5.918   5.601   5.596
    1AU     AUL  148   6.073   6.004   5.726
    1AU       S  149   6.172   5.662   5.404
    1AU     LIG  150   6.310   5.663   4.931
    1AU     LIG  151   6.439   6.097   4.795
    1AU       S  152   6.486   5.918   6.372
    1AU     LIG  153   6.692   6.260   6.076
    1AU     LIG  154   7.023   6.364   5.734
    1AU    AUSL  155   6.223   5.581   5.897
    1AU    AUSL  156   6.245   5.202   6.184
    1AU     AUL  157   6.531   5.402   6.019
    1AU       S  158   6.401   5.836   6.108
    1AU     LIG  159   6.728   5.830   5.796
    1AU     LIG  160   7.148   5.740   5.610
    1AU       S  161   6.543   4.933   6.048
    1AU     LIG  162   6.706   4.743   6.428
    1AU     LIG  163   7.132   4.541   6.481
    1AU    AUSL  164   5.950   5.512   6.225
    1AU    AUSL  165   5.628   5.821   6.297
    1AU     AUL  166   5.990   5.924   6.353
    1AU       S  167   5.998   6.119   6.824
    1AU     LIG  168   6.426   6.231   6.772
    1AU     LIG  169   6.726   6.469   7.028
    1AU       S  170   6.339   5.617   6.404
    1AU     LIG  171   6.858   5.588   6.372
    1AU     LIG  172   7.353   5.692   6.437
    1AU    AUSL  173   4.625   5.697   6.079
    1AU    AUSL  174   4.623   5.556   6.515
    1AU     AUL  175   4.338   5.825   6.301
    1AU       S  176   4.517   5.642   6.706
    1AU     LIG  177   4.120   5.868   6.804
    1AU     LIG  178   3.970   6.055   7.194
    1AU       S  179   4.521   6.204   6.087
    1AU     LIG  180   4.099   6.127   5.940
    1AU     LIG  181   3.849   6.352   5.634
    1AU    AUSL  182   4.400   5.414   5.819
    1AU    AUSL  183   4.621   5.940   5.726
    1AU     AUL  184   4.355   5.740   5.793
    1AU       S  185   4.189   5.342   5.537
    1AU     LIG  186   3.914   5.779   5.560
    1AU     LIG  187   3.485   6.017   5.464
    1AU       S  188   4.435   6.155   5.548
    1AU     LIG  189   4.395   6.502   5.268
    1AU     LIG  190   4.012   6.624   5.050
    1AU    AUSL  191   4.337   5.365   6.259
    1AU    AUSL  192   4.314   5.008   5.934
    1AU     AUL  193   4.098   5.341   6.001
    1AU       S  194   4.083   4.906   6.182
    1AU     LIG  195   3.734   4.864   5.893
    1AU     LIG  196   3.447   4.649   5.575
    1AU       S  197   4.129   5.427   6.490
    1AU     LIG  198   3.805   5.770   6.393
    1AU     LIG  199   3.354   5.982   6.404
    1AU    AUSL  200   6.046   4.865   5.988
    1AU    AUSL  201   5.862   5.065   6.357
    1AU     AUL  202   6.193   4.933   6.370
    1AU       S  203   6.404   4.769   5.976
    1AU     LIG  204   6.443   4.374   5.813
    1AU     LIG  205   6.802   4.130   5.660
    1AU       S  206   6.304   4.439   6.316
    1AU     LIG  207   6.518   4.377   6.750
    1AU     LIG  208   6.469   4.204   7.184
    1AU    AUSL  209   6.191   5.187   5.713
    1AU    AUSL  210   5.843   4.552   5.771
    1AU     AUL  211   6.114   4.788   5.623
    1AU       S  212   6.499   5.014   5.752
    1AU     LIG  213   6.799   4.686   5.598
    1AU     LIG  214   7.224   4.439   5.664
    1AU       S  215   5.980   4.333   5.656
    1AU     LIG  216   5.930   3.925   5.492
    1AU     LIG  217   6.128   3.707   5.153
    1AU    AUSL  218   4.674   4.724   5.946
    1AU    AUSL  219   4.593   5.037   5.604
    1AU     AUL  220   4.323   4.731   5.789
    1AU       S  221   4.370   4.920   5.357
    1AU     LIG  222   3.963   4.695   5.434
    1AU     LIG  223   3.804   4.347   5.159
    1AU       S  224   3.991   4.717   6.362
    1AU     LIG  225   3.979   4.412   6.008
    1AU     LIG  226   3.733   4.229   5.650
    1AU    AUSL  227   4.628   5.054   6.237
    1AU    AUSL  228   4.748   4.547   6.333
    1AU     AUL  229   4.471   4.657   6.252
    1AU       S  230   4.575   4.329   6.565
    1AU     LIG  231   4.185   4.168   6.469
    1AU     LIG  232   3.930   3.822   6.714
    1AU       S  233   4.155   4.955   6.405
    1AU     LIG  234   3.700   5.149   6.365
    1AU     LIG  235   3.320   4.889   6.340
    1AU    AUSL  236   5.234   6.000   6.447
    1AU    AUSL  237   4.792   5.947   6.394
    1AU     AUL  238   5.054   6.019   6.737
    1AU       S  239   4.630   6.111   6.558
    1AU     LIG  240   4.225   6.314   6.566
    1AU     LIG  241   4.010   6.504   6.928
    1AU       S  242   5.206   6.405   6.489
    1AU     LIG  243   5.366   6.829   6.732
    1AU     LIG  244   5.385   7.301   6.819
    1AU    AUSL  245   5.015   6.188   6.108
    1AU    AUSL  246   5.342   6.216   5.736
    1AU     AUL  247   5.069   6.458   5.882
    1AU       S  248   5.257   6.612   6.305
    1AU     LIG  249   4.891   6.791   6.513
    1AU     LIG  250   4.876   7.215   6.604
    1AU       S  251   5.272   6.426   5.440
    1AU     LIG  252   5.674   6.706   5.551
    1AU     LIG  253   5.839   7.187   5.516
    1AU    AUSL  254   5.492   6.189   6.138
    1AU    AUSL  255   5.532   5.887   6.734
    1AU     AUL  256   5.598   6.148   6.508
    1AU       S  257   5.738   5.983   6.949
    1AU     LIG  258   6.043   5.918   7.296
    1AU     LIG  259   6.457   6.109   7.287
    1AU       S  260   5.454   6.445   6.174
    1AU     LIG  261   5.766   6.675   6.406
    1AU     LIG  262   5.798   7.112   6.555
    1AU    AUSL  263   5.380   4.569   6.513
    1AU    AUSL  264   5.734   4.669   6.218
    1AU     AUL  265   5.644   4.398   6.546
    1AU       S  266   4.965   4.008   6.557
    1AU     LIG  267   4.954   3.639   6.822
    1AU     LIG  268   5.075   3.225   7.023
    1AU       S  269   6.010   4.446   6.235
    1AU     LIG  270   6.232   3.999   6.501
    1AU     LIG  271   6.564   3.861   6.820
    1AU    AUSL  272   5.130   4.527   6.156
    1AU    AUSL  273   5.049   4.841   6.492
    1AU     AUL  274   5.034   4.488   6.580
    1AU       S  275   4.952   4.113   6.279
    1AU     LIG  276   4.999   3.591   6.305
    1AU     LIG  277   4.842   3.221   6.543
    1AU       S  278   4.592   4.339   6.806
    1AU     LIG  279   4.361   3.990   6.958
    1AU     LIG  280   4.084   4.028   7.333
    1AU    AUSL  281   5.516   4.333   6.078
    1AU    AUSL  282   5.033   4.451   5.749
    1AU     AUL  283   5.238   4.210   5.927
    1AU       S  284   4.772   4.222   5.810
    1AU     LIG  285   4.721   3.729   5.912
    1AU     LIG  286   4.854   3.446   5.546
    1AU       S  287   5.229   4.070   6.411
    1AU     LIG  288   5.497   3.717   6.388
    1AU     LIG  289   5.384   3.353   6.633
    1AU    AUSL  290   5.285   5.900   5.433
    1AU    AUSL  291   5.613   5.878   5.753
    1AU     AUL  292   5.643   6.145   5.509
    1AU       S  293   5.275   6.122   5.208
    1AU     LIG  294   5.556   6.523   5.061
    1AU     LIG  295   5.445   6.972   5.179
    1AU       S  296   6.356   5.916   5.345
    1AU     LIG  297   6.358   6.387   5.290
    1AU     LIG  298   6.577   6.682   5.000
    1AU    AUSL  299   5.039   5.892   5.805
    1AU    AUSL  300   4.867   5.895   5.358
    1AU     AUL  301   4.910   6.140   5.561
    1AU       S  302   5.084   6.364   5.168
    1AU     LIG  303   4.882   6.754   5.343
    1AU     LIG  304   5.023   7.194   5.461
    1AU       S  305   4.588   5.971   5.243
    1AU     LIG  306   4.547   6.218   4.871
    1AU     LIG  307   4.410   6.640   4.724
    1AU    AUSL  308   5.255   4.575   5.378
    1AU    AUSL  309   4.698   4.612   5.528
    1AU     AUL  310   4.966   4.457   5.375
    1AU       S  311   4.502   4.621   5.358
    1AU     LIG  312   4.218   4.262   5.463
    1AU     LIG  313   3.971   3.873   5.321
    1AU       S  314   4.682   4.093   5.546
    1AU     LIG  315   4.732   3.793   5.168
    1AU     LIG  316   4.912   3.430   4.936
    1AU    AUSL  317   5.431   4.656   5.797
    1AU    AUSL  318   5.671   4.669   5.387
    1AU     AUL  319   5.520   4.366   5.561
    1AU       S  320   4.954   3.996   5.576
    1AU     LIG  321   5.302   3.669   5.575
    1AU     LIG  322   5.315   3.247   5.331
    1AU       S  323   5.891   4.504   5.283
    1AU     LIG  324   5.911   4.157   4.962
    1AU     LIG  325   6.146   3.868   4.656
    2POPC   NC3  326   3.322   8.722   8.018
    2POPC   PO4  327   3.895   8.406   8.194
    2POPC   GL1  328   3.792   8.705   7.759
    2POPC   GL2  329   3.450   8.799   7.554
    2POPC   C1A  330   3.837   8.727   7.274
    2POPC   D2A  331   3.731   8.474   6.938
    2POPC   C3A  332   3.493   8.442   6.572
    2POPC   C4A  333   3.562   8.603   6.210
    2POPC   C1B  334   3.243   8.653   7.229
    2POPC   C2B  335   3.277   8.784   6.878
    2POPC   C3B  336   3.144   8.790   6.507
    2POPC   C4B  337   3.176   8.922   6.107
    3POPC   NC3  338   1.132   5.073   8.148
    3POPC   PO4  339   0.606   4.665   8.162
    3POPC   GL1  340   0.913   4.804   7.750
    3POPC   GL2  341   1.101   5.103   7.661
    3POPC   C1A  342   1.125   4.712   7.338
    3POPC   D2A  343   0.951   4.822   6.931
    3POPC   C3A  344   1.062   4.612   6.544
    3POPC   C4A  345   1.122   4.788   6.126
    3POPC   C1B  346   1.367   5.175   7.336
    3POPC   C2B  347   1.462   5.036   6.945
    3POPC   C3B  348   1.278   5.056   6.577
    3POPC   C4B  349   1.388   5.206   6.215
    4POPC   NC3  350   9.332   1.853   8.094
    4POPC   PO4  351   8.997   2.419   7.842
    4POPC   GL1  352   9.100   2.049   7.641
    4POPC   GL2  353   9.225   1.714   7.628
    4POPC   C1A  354   9.287   2.021   7.236
    4POPC   D2A  355   9.210   1.964   6.816
    4POPC   C3A  356   9.503   2.084   6.518
    4POPC   C4A  357   9.667   2.272   6.155
    4POPC   C1B  358   9.247   1.505   7.228
    4POPC   C2B  359   9.585   1.662   6.964
    4POPC   C3B  360   9.726   1.621   6.535
    4POPC   C4B  361   9.955   1.400   6.223
    5POPC   NC3  362   0.481   7.979   8.232
    5POPC   PO4  363   0.072   7.414   8.073
    5POPC   GL1  364   0.188   7.604   7.636
    5POPC   GL2  365   0.420   7.856   7.631
    5POPC   C1A  366   0.376   7.628   7.180
    5POPC   D2A  367   0.593   7.799   6.823
    5POPC   C3A  368   0.562   7.670   6.359
    5POPC   C4A  369   0.244   7.729   5.998
    5POPC   C1B  370   0.301   8.156   7.294
    5POPC   C2B  371   0.416   8.286   6.896
    5POPC   C3B  372   0.293   8.085   6.525
    5POPC   C4B  373   0.397   8.164   6.152
    6POPC   NC3  374   2.949   1.556   8.154
    6POPC   PO4  375   3.615   1.668   8.232
    6POPC   GL1  376   3.601   1.442   7.855
    6POPC   GL2  377   3.613   1.077   7.854
    6POPC   C1A  378   3.514   1.526   7.445
    6POPC   D2A  379   3.506   1.686   7.034
    6POPC   C3A  380   3.680   1.533   6.643
    6POPC   C4A  381   3.496   1.489   6.232
    6POPC   C1B  382   3.397   1.035   7.440
    6POPC   C2B  383   3.528   1.180   7.015
    6POPC   C3B  384   3.385   1.094   6.583
    6POPC   C4B  385   3.550   0.999   6.170
    7POPC   NC3  386   8.620   9.128   8.136
    7POPC   PO4  387   9.037   9.561   8.375
    7POPC   GL1  388   8.844   9.478   7.842
    7POPC   GL2  389   8.748   9.190   7.644
    7POPC   C1A  390   8.769   9.622   7.403
    7POPC   D2A  391   8.649   9.664   6.966
    7POPC   C3A  392   8.733   9.383   6.644
    7POPC   C4A  393   8.689   9.538   6.245
    7POPC   C1B  394   8.469   9.195   7.291
    7POPC   C2B  395   8.396   9.059   6.883
    7POPC   C3B  396   8.218   9.190   6.520
    7POPC   C4B  397   8.283   9.312   6.089
    8POPC   NC3  398   6.199   0.446   8.167
    8POPC   PO4  399   6.720   0.036   7.964
    8POPC   GL1  400   6.588   0.341   7.632
    8POPC   GL2  401   6.307   0.515   7.686
    8POPC   C1A  402   6.523   0.490   7.197
    8POPC   D2A  403   6.318   0.721   6.869
    8POPC   C3A  404   6.500   0.693   6.471
    8POPC   C4A  405   6.737   0.549   6.102
    8POPC   C1B  406   6.224   0.105   7.396
    8POPC   C2B  407   6.349  10.457   6.985
    8POPC   C3B  408   6.409   0.193   6.608
    8POPC   C4B  409   6.288   0.289   6.189
    9POPC   NC3  410   8.928   4.770   8.179
    9POPC   PO4  411   8.574   5.242   7.977
    9POPC   GL1  412   8.868   5.125   7.721
    9POPC   GL2  413   8.700   4.809   7.674
    9POPC   C1A  414   8.894   5.183   7.289
    9POPC   D2A  415   8.705   5.070   6.909
    9POPC   C3A  416   8.740   4.897   6.527
    9POPC   C4A  417   8.836   4.967   6.103
    9POPC   C1B  418   8.551   4.762   7.274
    9POPC   C2B  419   8.336   4.730   6.871
    9POPC   C3B  420   8.370   4.543   6.444
    9POPC   C4B  421   8.416   4.659   5.989
   10POPC   NC3  422   4.382   9.392   7.969
   10POPC   PO4  423   3.765   9.402   8.259
   10POPC   GL1  424   3.939   9.536   7.721
   10POPC   GL2  425   4.260   9.522   7.508
   10POPC   C1A  426   3.895   9.665   7.226
   10POPC   D2A  427   4.085   9.472   6.861
   10POPC   C3A  428   3.799   9.496   6.504
   10POPC   C4A  429   3.950   9.479   6.039
   10POPC   C1B  430   4.494   9.253   7.208
   10POPC   C2B  431   4.640   9.025   6.850
   10POPC   C3B  432   4.471   8.851   6.499
   10POPC   C4B  433   4.210   9.220   6.410
   11POPC   NC3  434   9.898   5.543   8.330
   11POPC   PO4  435   9.762   5.227   7.805
   11POPC   GL1  436   9.917   5.386   7.491
   11POPC   GL2  437  10.173   5.573   7.697
   11POPC   C1A  438   9.764   5.217   7.104
   11POPC   D2A  439   9.682   5.512   6.813
   11POPC   C3A  440   9.634   5.424   6.393
   11POPC   C4A  441   9.823   5.656   6.080
   11POPC   C1B  442  10.320   5.720   7.318
   11POPC   C2B  443  10.103   5.883   6.943
   11POPC   C3B  444  10.071   5.745   6.532
   11POPC   C4B  445  10.299   5.819   6.144
   12POPC   NC3  446   6.305   1.552   8.267
   12POPC   PO4  447   5.980   2.125   8.283
   12POPC   GL1  448   6.311   1.877   7.882
   12POPC   GL2  449   6.521   2.115   7.693
   12POPC   C1A  450   6.226   1.685   7.411
   12POPC   D2A  451   6.459   1.670   6.973
   12POPC   C3A  452   6.240   1.587   6.564
   12POPC   C4A  453   6.268   1.673   6.125
   12POPC   C1B  454   6.383   2.133   7.248
   12POPC   C2B  455   6.630   2.154   6.877
   12POPC   C3B  456   6.581   1.950   6.499
   12POPC   C4B  457   6.624   2.014   6.070
   13POPC   NC3  458   1.419   0.894   8.057
   13POPC   PO4  459   2.072   0.863   8.050
   13POPC   GL1  460   1.952   1.074   7.664
   13POPC   GL2  461   2.268   1.228   7.660
   13POPC   C1A  462   1.730   1.064   7.280
   13POPC   D2A  463   1.645   0.851   6.860
   13POPC   C3A  464   1.898   0.879   6.460
   13POPC   C4A  465   1.712   0.855   6.021
   13POPC   C1B  466   2.134   1.407   7.278
   13POPC   C2B  467   1.966   1.265   6.872
   13POPC   C3B  468   1.755   1.360   6.493
   13POPC   C4B  469   2.000   1.262   6.124
   14POPC   NC3  470   7.165   2.039   8.112
   14POPC   PO4  471   6.727   1.477   8.133
   14POPC   GL1  472   6.853   1.706   7.740
   14POPC   GL2  473   7.213   1.807   7.669
   14POPC   C1A  474   6.842   1.875   7.299
   14POPC   D2A  475   6.991   1.777   6.877
   14POPC   C3A  476   7.057   2.101   6.559
   14POPC   C4A  477   7.052   1.831   6.257
   14POPC   C1B  478   7.360   1.704   7.260
   14POPC   C2B  479   7.585   1.562   6.889
   14POPC   C3B  480   7.493   1.791   6.525
   14POPC   C4B  481   7.509   2.083   6.179
   15POPC   NC3  482   6.387   9.220   8.030
   15POPC   PO4  483   6.955   9.646   8.074
   15POPC   GL1  484   6.643   9.630   7.712
   15POPC   GL2  485   6.487   9.319   7.555
   15POPC   C1A  486   6.486   9.737   7.286
   15POPC   D2A  487   6.518   9.549   6.878
   15POPC   C3A  488   6.533   9.810   6.522
   15POPC   C4A  489   6.493   9.770   6.079
   15POPC   C1B  490   6.198   9.199   7.223
   15POPC   C2B  491   6.048   9.343   6.812
   15POPC   C3B  492   6.258   9.324   6.411
   15POPC   C4B  493   6.187   9.373   5.958
   16POPC   NC3  494   9.466   3.271   8.183
   16POPC   PO4  495   9.721   3.959   8.060
   16POPC   GL1  496   9.716   3.572   7.794
   16POPC   GL2  497   9.400   3.427   7.711
   16POPC   C1A  498   9.704   3.352   7.340
   16POPC   D2A  499   9.559   3.530   6.952
   16POPC   C3A  500   9.769   3.533   6.545
   16POPC   C4A  501   9.580   3.558   6.122
   16POPC   C1B  502   9.199   3.281   7.318
   16POPC   C2B  503   9.053   3.452   6.924
   16POPC   C3B  504   9.253   3.475   6.523
   16POPC   C4B  505   9.175   3.230   6.138
   17POPC   NC3  506   0.467   5.789   8.334
   17POPC   PO4  507  10.352   5.570   8.214
   17POPC   GL1  508   0.175   5.503   7.829
   17POPC   GL2  509   0.479   5.752   7.813
   17POPC   C1A  510   0.306   5.458   7.348
   17POPC   D2A  511   0.151   5.664   6.932
   17POPC   C3A  512   0.172   5.812   6.497
   17POPC   C4A  513   0.218   5.483   6.186
   17POPC   C1B  514   0.623   5.899   7.395
   17POPC   C2B  515   0.666   5.676   6.991
   17POPC   C3B  516   0.602   5.560   6.550
   17POPC   C4B  517   0.607   5.799   6.154
   18POPC   NC3  518  10.167   0.460   8.242
   18POPC   PO4  519   9.589   0.211   8.009
   18POPC   GL1  520   9.967   0.152   7.758
   18POPC   GL2  521  10.180   0.417   7.696
   18POPC   C1A  522   9.918   0.202   7.286
   18POPC   D2A  523  10.041   0.522   7.010
   18POPC   C3A  524  10.106   0.507   6.608
   18POPC   C4A  525  10.230   0.379   6.222
   18POPC   C1B  526  10.447   0.467   7.316
   18POPC   C2B  527   0.066   0.609   6.885
   18POPC   C3B  528   0.027   0.758   6.454
   18POPC   C4B  529  10.485   0.720   5.955
   19POPC   NC3  530   1.483  10.412   8.104
   19POPC   PO4  531   2.201  10.321   8.039
   19POPC   GL1  532   1.837  10.277   7.715
   19POPC   GL2  533   1.753   9.938   7.579
   19POPC   C1A  534   1.635  10.375   7.291
   19POPC   D2A  535   1.524  10.240   6.883
   19POPC   C3A  536   1.761  10.465   6.562
   19POPC   C4A  537   1.629  10.466   6.138
   19POPC   C1B  538   2.005  10.029   7.269
   19POPC   C2B  539   1.885   9.913   6.871
   19POPC   C3B  540   1.675   9.998   6.439
   19POPC   C4B  541   2.010   9.923   6.131
   20POPC   NC3  542   0.502   6.737   8.182
   20POPC   PO4  543   0.780   6.086   8.143
   20POPC   GL1  544   0.630   6.375   7.802
   20POPC   GL2  545   0.272   6.395   7.729
   20POPC   C1A  546   0.618   6.435   7.343
   20POPC   D2A  547   0.462   6.593   6.957
   20POPC   C3A  548   0.652   6.513   6.570
   20POPC   C4A  549   0.474   6.279   6.229
   20POPC   C1B  550   0.080   6.603   7.324
   20POPC   C2B  551   0.024   6.864   6.968
   20POPC   C3B  552   0.112   6.711   6.584
   20POPC   C4B  553   0.324   6.772   6.210
   21POPC   NC3  554   2.390   2.073   8.033
   21POPC   PO4  555   2.488   1.429   8.070
   21POPC   GL1  556   2.669   1.667   7.737
   21POPC   GL2  557   2.748   2.014   7.651
   21POPC   C1A  558   2.611   1.624   7.322
   21POPC   D2A  559   2.789   1.803   6.982
   21POPC   C3A  560   2.609   1.708   6.607
   21POPC   C4A  561   2.521   1.526   6.241
   21POPC   C1B  562   2.474   2.104   7.316
   21POPC   C2B  563   2.355   2.099   6.884
   21POPC   C3B  564   2.458   2.176   6.463
   21POPC   C4B  565   2.869   2.064   6.319
   22POPC   NC3  566   9.093   0.085   8.146
   22POPC   PO4  567   9.353   9.958   8.000
   22POPC   GL1  568   9.351  10.328   7.712
   22POPC   GL2  569   9.675  10.321   7.516
   22POPC   C1A  570   9.276  10.444   7.256
   22POPC   D2A  571   9.496  10.361   6.876
   22POPC   C3A  572   9.165  10.370   6.554
   22POPC   C4A  573   9.043   0.071   6.161
   22POPC   C1B  574   9.572   9.974   7.304
   22POPC   C2B  575   9.661   9.830   6.896
   22POPC   C3B  576   9.515   9.981   6.545
   22POPC   C4B  577   9.692  10.334   6.289
   23POPC   NC3  578   9.695   8.575   8.015
   23POPC   PO4  579   9.182   8.304   7.785
   23POPC   GL1  580   9.483   8.565   7.571
   23POPC   GL2  581   9.489   8.933   7.697
   23POPC   C1A  582   9.793   8.465   7.288
   23POPC   D2A  583   9.588   8.457   6.917
   23POPC   C3A  584   9.806   8.453   6.573
   23POPC   C4A  585   9.673   8.364   6.193
   23POPC   C1B  586   9.665   8.966   7.306
   23POPC   C2B  587   9.478   8.964   6.922
   23POPC   C3B  588   9.643   8.942   6.522
   23POPC   C4B  589   9.370   8.808   6.212
   24POPC   NC3  590   5.493   2.078   8.271
   24POPC   PO4  591   6.041   2.292   7.782
   24POPC   GL1  592   5.689   2.368   7.557
   24POPC   GL2  593   5.614   2.721   7.582
   24POPC   C1A  594   5.727   2.474   7.121
   24POPC   D2A  595   5.719   2.328   6.729
   24POPC   C3A  596   5.757   2.550   6.383
   24POPC   C4A  597   5.562   2.742   6.004
   24POPC   C1B  598   5.600   2.973   7.177
   24POPC   C2B  599   5.512   2.851   6.747
   24POPC   C3B  600   5.743   3.064   6.397
   24POPC   C4B  601   6.010   3.097   6.038
   25POPC   NC3  602   7.402   4.189   8.098
   25POPC   PO4  603   6.986   3.804   7.876
   25POPC   GL1  604   7.297   3.903   7.572
   25POPC   GL2  605   7.196   4.232   7.626
   25POPC   C1A  606   7.474   4.228   7.225
   25POPC   D2A  607   7.513   4.404   6.804
   25POPC   C3A  608   7.426   4.101   6.473
   25POPC   C4A  609   7.200   4.062   6.064
   25POPC   C1B  610   6.981   4.054   7.208
   25POPC   C2B  611   6.989   4.132   6.757
   25POPC   C3B  612   6.767   4.176   6.350
   25POPC   C4B  613   6.877   4.472   6.043
   26POPC   NC3  614   2.644  10.002   7.997
   26POPC   PO4  615   3.156   0.066   8.208
   26POPC   GL1  616   3.000  10.412   7.826
   26POPC   GL2  617   2.645  10.477   7.801
   26POPC   C1A  618   2.977  10.334   7.377
   26POPC   D2A  619   3.118  10.215   6.973
   26POPC   C3A  620   2.812  10.207   6.685
   26POPC   C4A  621   2.628  10.377   6.348
   26POPC   C1B  622   2.451  10.278   7.409
   26POPC   C2B  623   2.425  10.081   6.992
   26POPC   C3B  624   2.249  10.103   6.579
   26POPC   C4B  625   2.465   9.851   6.324
   27POPC   NC3  626   0.998   0.203   8.087
   27POPC   PO4  627   0.943   0.919   8.018
   27POPC   GL1  628   1.148   0.599   7.714
   27POPC   GL2  629   1.239   0.275   7.664
   27POPC   C1A  630   0.956   0.455   7.304
   27POPC   D2A  631   1.050   0.505   6.848
   27POPC   C3A  632   0.885   0.282   6.470
   27POPC   C4A  633   0.859   0.502   6.050
   27POPC   C1B  634   1.473   0.372   7.307
   27POPC   C2B  635   1.470   0.231   6.916
   27POPC   C3B  636   1.402   0.333   6.499
   27POPC   C4B  637   1.410   0.429   6.084
   28POPC   NC3  638   4.424  10.303   8.073
   28POPC   PO4  639   3.866   9.996   7.892
   28POPC   GL1  640   4.081  10.063   7.537
   28POPC   GL2  641   4.209  10.382   7.617
   28POPC   C1A  642   4.013  10.200   7.107
   28POPC   D2A  643   3.908   9.946   6.733
   28POPC   C3A  644   4.201   9.836   6.379
   28POPC   C4A  645   4.185   9.915   5.905
   28POPC   C1B  646   4.503  10.273   7.297
   28POPC   C2B  647   4.496  10.232   6.855
   28POPC   C3B  648   4.203  10.353   6.552
   28POPC   C4B  649   4.249  10.368   6.134
   29POPC   NC3  650   8.332   1.848   8.087
   29POPC   PO4  651   8.585   2.215   8.403
   29POPC   GL1  652   8.561   2.188   7.835
   29POPC   GL2  653   8.639   1.870   7.702
   29POPC   C1A  654   8.387   2.131   7.345
   29POPC   D2A  655   8.294   2.264   6.882
   29POPC   C3A  656   8.420   2.040   6.486
   29POPC   C4A  657   8.536   1.971   6.044
   29POPC   C1B  658   8.806   1.824   7.298
   29POPC   C2B  659   8.705   1.952   6.905
   29POPC   C3B  660   8.866   1.819   6.490
   29POPC   C4B  661   9.046   2.161   6.310
   30POPC   NC3  662   3.358   4.196   7.962
   30POPC   PO4  663   3.755   3.686   8.108
   30POPC   GL1  664   3.640   3.845   7.632
   30POPC   GL2  665   3.326   4.035   7.479
   30POPC   C1A  666   3.650   3.861   7.144
   30POPC   D2A  667   3.460   4.161   6.842
   30POPC   C3A  668   3.679   4.186   6.438
   30POPC   C4A  669   3.734   3.948   6.064
   30POPC   C1B  670   3.143   4.411   7.265
   30POPC   C2B  671   3.142   4.606   6.824
   30POPC   C3B  672   3.211   4.381   6.435
   30POPC   C4B  673   3.449   4.462   6.056
   31POPC   NC3  674   3.599   1.212   8.359
   31POPC   PO4  675   4.245   1.412   8.121
   31POPC   GL1  676   4.128   1.312   7.733
   31POPC   GL2  677   4.299   0.982   7.733
   31POPC   C1A  678   3.896   1.125   7.400
   31POPC   D2A  679   3.909   0.818   7.051
   31POPC   C3A  680   3.887   1.001   6.628
   31POPC   C4A  681   3.954   1.272   6.267
   31POPC   C1B  682   4.415   1.129   7.324
   31POPC   C2B  683   4.492   0.990   6.914
   31POPC   C3B  684   4.388   1.100   6.525
   31POPC   C4B  685   4.256   0.865   6.233
   32POPC   NC3  686   2.028   9.188   8.161
   32POPC   PO4  687   2.221   8.554   8.163
   32POPC   GL1  688   1.921   8.690   7.806
   32POPC   GL2  689   1.641   8.946   7.874
   32POPC   C1A  690   1.825   8.544   7.369
   32POPC   D2A  691   2.013   8.330   7.017
   32POPC   C3A  692   1.992   8.566   6.648
   32POPC   C4A  693   2.288   8.825   6.409
   32POPC   C1B  694   1.597   9.005   7.428
   32POPC   C2B  695   1.648   8.873   6.994
   32POPC   C3B  696   1.503   8.764   6.587
   32POPC   C4B  697   1.739   8.677   6.216
   33POPC   NC3  698   0.210   5.018   8.072
   33POPC   PO4  699   0.725   5.423   8.162
   33POPC   GL1  700   0.611   5.235   7.737
   33POPC   GL2  701   0.428   4.914   7.647
   33POPC   C1A  702   0.743   5.127   7.301
   33POPC   D2A  703   0.566   5.176   6.890
   33POPC   C3A  704   0.767   5.058   6.499
   33POPC   C4A  705   0.647   5.002   6.066
   33POPC   C1B  706   0.265   4.915   7.243
   33POPC   C2B  707   0.104   4.977   6.841
   33POPC   C3B  708   0.233   4.990   6.396
   33POPC   C4B  709   0.277   4.642   6.077
   34POPC   NC3  710   9.913   4.856   8.042
   34POPC   PO4  711   0.011   4.596   8.047
   34POPC   GL1  712  10.307   4.734   7.719
   34POPC   GL2  713  10.292   5.081   7.761
   34POPC   C1A  714  10.297   4.668   7.299
   34POPC   D2A  715  10.115   4.871   6.961
   34POPC   C3A  716  10.229   4.786   6.539
   34POPC   C4A  717  10.313   4.874   6.113
   34POPC   C1B  718  10.347   5.189   7.333
   34POPC   C2B  719  10.233   5.373   6.951
   34POPC   C3B  720  10.402   5.361   6.571
   34POPC   C4B  721  10.097   5.266   6.331
   35POPC   NC3  722   7.844   0.807   8.149
   35POPC   PO4  723   8.214   0.308   8.007
   35POPC   GL1  724   8.135   0.501   7.596
   35POPC   GL2  725   7.781   0.664   7.610
   35POPC   C1A  726   8.054   0.503   7.129
   35POPC   D2A  727   8.233   0.733   6.791
   35POPC   C3A  728   8.087   0.660   6.361
   35POPC   C4A  729   8.307   0.570   5.963
   35POPC   C1B  730   7.738   0.227   7.416
   35POPC   C2B  731   7.770  10.470   7.037
   35POPC   C3B  732   7.716  10.476   6.594
   35POPC   C4B  733   7.741   0.257   6.198
   36POPC   NC3  734   8.119   5.807   8.601
   36POPC   PO4  735   7.995   5.428   8.079
   36POPC   GL1  736   8.127   5.457   7.665
   36POPC   GL2  737   8.145   5.810   7.659
   36POPC   C1A  738   7.915   5.508   7.253
   36POPC   D2A  739   7.657   5.273   6.934
   36POPC   C3A  740   7.781   5.322   6.504
   36POPC   C4A  741   8.086   5.588   6.368
   36POPC   C1B  742   8.061   5.998   7.297
   36POPC   C2B  743   7.769   5.971   6.972
   36POPC   C3B  744   7.894   6.012   6.561
   36POPC   C4B  745   7.738   5.967   6.149
   37POPC   NC3  746   8.605   0.422   8.224
   37POPC   PO4  747   9.065   0.827   7.935
   37POPC   GL1  748   8.672   0.648   7.712
   37POPC   GL2  749   8.640   0.276   7.728
   37POPC   C1A  750   8.555   0.522   7.269
   37POPC   D2A  751   8.749   0.418   6.865
   37POPC   C3A  752   8.591   0.516   6.461
   37POPC   C4A  753   8.815   0.574   6.093
   37POPC   C1B  754   8.401   0.041   7.430
   37POPC   C2B  755   8.309   0.009   6.995
   37POPC   C3B  756   8.159   0.236   6.667
   37POPC   C4B  757   8.235   0.184   6.258
   38POPC   NC3  758   3.253   7.096   8.079
   38POPC   PO4  759   2.596   6.983   8.148
   38POPC   GL1  760   2.849   7.016   7.737
   38POPC   GL2  761   2.961   7.378   7.748
   38POPC   C1A  762   2.790   6.899   7.273
   38POPC   D2A  763   2.626   6.849   6.844
   38POPC   C3A  764   2.851   6.886   6.454
   38POPC   C4A  765   2.878   7.200   6.124
   38POPC   C1B  766   2.695   7.394   7.351
   38POPC   C2B  767   2.591   7.461   6.915
   38POPC   C3B  768   2.490   7.258   6.533
   38POPC   C4B  769   2.488   7.525   6.201
   39POPC   NC3  770   4.703   8.616   7.991
   39POPC   PO4  771   5.369   8.669   8.110
   39POPC   GL1  772   5.145   8.827   7.769
   39POPC   GL2  773   5.113   8.515   7.623
   39POPC   C1A  774   5.017   8.976   7.345
   39POPC   D2A  775   5.039   8.729   6.958
   39POPC   C3A  776   5.046   8.948   6.567
   39POPC   C4A  777   5.219   9.099   6.187
   39POPC   C1B  778   4.746   8.538   7.326
   39POPC   C2B  779   4.613   8.466   6.891
   39POPC   C3B  780   4.850   8.467   6.540
   39POPC   C4B  781   4.847   8.410   6.142
   40POPC   NC3  782   5.821   1.919   7.893
   40POPC   PO4  783   5.204   1.719   8.147
   40POPC   GL1  784   5.340   2.023   7.780
   40POPC   GL2  785   5.469   1.776   7.566
   40POPC   C1A  786   5.333   2.132   7.274
   40POPC   D2A  787   5.462   1.887   6.900
   40POPC   C3A  788   5.418   2.021   6.470
   40POPC   C4A  789   5.509   1.734   6.159
   40POPC   C1B  790   5.833   1.974   7.240
   40POPC   C2B  791   6.103   2.024   6.822
   40POPC   C3B  792   5.936   1.980   6.379
   40POPC   C4B  793   5.698   2.182   6.035
   41POPC   NC3  794   0.410   2.110   8.052
   41POPC   PO4  795   0.538   1.506   8.084
   41POPC   GL1  796   0.478   1.744   7.669
   41POPC   GL2  797   0.641   2.078   7.597
   41POPC   C1A  798   0.515   1.796   7.203
   41POPC   D2A  799   0.731   2.022   6.938
   41POPC   C3A  800   0.577   2.061   6.565
   41POPC   C4A  801   0.692   1.821   6.230
   41POPC   C1B  802   0.237   2.239   7.381
   41POPC   C2B  803   0.165   2.452   6.969
   41POPC   C3B  804   0.028   2.314   6.558
   41POPC   C4B  805   0.193   2.066   6.233
   42POPC   NC3  806   6.004   1.028   7.919
   42POPC   PO4  807   6.580   0.736   8.116
   42POPC   GL1  808   6.491   0.990   7.762
   42POPC   GL2  809   6.379   1.350   7.772
   42POPC   C1A  810   6.339   0.961   7.346
   42POPC   D2A  811   6.215   1.224   7.029
   42POPC   C3A  812   6.113   1.107   6.601
   42POPC   C4A  813   6.326   1.120   6.206
   42POPC   C1B  814   6.626   1.391   7.386
   42POPC   C2B  815   6.823   1.268   7.032
   42POPC   C3B  816   6.614   1.227   6.668
   42POPC   C4B  817   6.687   1.479   6.312
   43POPC   NC3  818   1.398   1.971   8.113
   43POPC   PO4  819   1.415   2.637   8.202
   43POPC   GL1  820   1.430   2.388   7.753
   43POPC   GL2  821   1.219   2.061   7.650
   43POPC   C1A  822   1.477   2.215   7.267
   43POPC   D2A  823   1.538   1.978   6.849
   43POPC   C3A  824   1.467   2.218   6.457
   43POPC   C4A  825   1.473   2.177   5.996
   43POPC   C1B  826   1.020   1.801   7.350
   43POPC   C2B  827   1.126   1.674   6.956
   43POPC   C3B  828   1.076   1.880   6.577
   43POPC   C4B  829   1.288   1.758   6.239
   44POPC   NC3  830   2.603   4.040   8.050
   44POPC   PO4  831   3.176   3.782   7.886
   44POPC   GL1  832   2.856   3.841   7.604
   44POPC   GL2  833   2.788   4.185   7.582
   44POPC   C1A  834   2.946   3.887   7.178
   44POPC   D2A  835   2.861   4.193   6.902
   44POPC   C3A  836   2.824   4.061   6.530
   44POPC   C4A  837   2.846   4.169   6.111
   44POPC   C1B  838   2.467   4.057   7.226
   44POPC   C2B  839   2.352   4.255   6.801
   44POPC   C3B  840   2.381   4.280   6.334
   44POPC   C4B  841   2.490   4.491   5.943
   45POPC   NC3  842   8.462   7.858   8.116
   45POPC   PO4  843   8.985   8.136   8.311
   45POPC   GL1  844   8.807   8.004   7.794
   45POPC   GL2  845   8.486   8.064   7.654
   45POPC   C1A  846   8.973   7.778   7.399
   45POPC   D2A  847   9.062   7.902   6.973
   45POPC   C3A  848   8.972   7.816   6.543
   45POPC   C4A  849   9.007   7.548   6.173
   45POPC   C1B  850   8.623   8.123   7.235
   45POPC   C2B  851   8.588   7.999   6.842
   45POPC   C3B  852   8.595   8.183   6.469
   45POPC   C4B  853   8.671   7.955   6.133
   46POPC   NC3  854   9.784  10.218   7.988
   46POPC   PO4  855  10.408   0.069   8.105
   46POPC   GL1  856   0.038  10.438   7.738
   46POPC   GL2  857  10.341  10.123   7.766
   46POPC   C1A  858  10.344  10.464   7.367
   46POPC   D2A  859  10.348   0.130   6.952
   46POPC   C3A  860  10.277   0.001   6.550
   46POPC   C4A  861  10.315  10.360   6.119
   46POPC   C1B  862  10.098  10.018   7.386
   46POPC   C2B  863   9.977  10.230   7.018
   46POPC   C3B  864  10.024  10.071   6.603
   46POPC   C4B  865  10.072   9.936   6.207
   47POPC   NC3  866   1.016   4.427   8.047
   47POPC   PO4  867   1.536   4.464   8.471
   47POPC   GL1  868   1.458   4.201   7.942
   47POPC   GL2  869   1.166   4.018   7.757
   47POPC   C1A  870   1.434   4.288   7.411
   47POPC   D2A  871   1.409   4.504   6.958
   47POPC   C3A  872   1.403   4.229   6.558
   47POPC   C4A  873   1.509   4.244   6.090
   47POPC   C1B  874   0.941   4.143   7.367
   47POPC   C2B  875   0.928   4.308   6.963
   47POPC   C3B  876   0.873   4.142   6.561
   47POPC   C4B  877   1.050   4.041   6.174
   48POPC   NC3  878   2.152   0.371   8.056
   48POPC   PO4  879   1.443   0.381   8.109
   48POPC   GL1  880   1.736   0.296   7.758
   48POPC   GL2  881   1.679   0.645   7.674
   48POPC   C1A  882   2.050   0.145   7.414
   48POPC   D2A  883   2.058  10.455   6.989
   48POPC   C3A  884   2.266   0.108   6.626
   48POPC   C4A  885   2.167   0.014   6.192
   48POPC   C1B  886   2.065   0.658   7.405
   48POPC   C2B  887   2.219   0.469   7.027
   48POPC   C3B  888   1.900   0.430   6.725
   48POPC   C4B  889   1.875   0.409   6.295
   49POPC   NC3  890   6.925   0.451   7.979
   49POPC   PO4  891   7.411   0.904   8.016
   49POPC   GL1  892   7.257   0.752   7.654
   49POPC   GL2  893   7.315   0.383   7.653
   49POPC   C1A  894   7.365   0.660   7.229
   49POPC   D2A  895   7.342   0.312   6.943
   49POPC   C3A  896   7.524   0.465   6.594
   49POPC   C4A  897   7.584   0.767   6.244
   49POPC   C1B  898   6.992   0.310   7.331
   49POPC   C2B  899   6.826   0.180   6.940
   49POPC   C3B  900   6.907   0.366   6.564
   49POPC   C4B  901   7.199   0.368   6.212
   50POPC   NC3  902   6.913   2.987   8.251
   50POPC   PO4  903   7.615   3.145   8.068
   50POPC   GL1  904   7.502   2.853   7.724
   50POPC   GL2  905   7.309   2.531   7.792
   50POPC   C1A  906   7.508   2.663   7.301
   50POPC   D2A  907   7.118   2.615   7.044
   50POPC   C3A  908   7.095   2.711   6.636
   50POPC   C4A  909   6.915   2.959   6.288
   50POPC   C1B  910   7.219   2.246   7.411
   50POPC   C2B  911   7.328   2.160   6.982
   50POPC   C3B  912   7.479   2.377   6.604
   50POPC   C4B  913   7.301   2.564   6.220
   51POPC   NC3  914   7.257   9.758   8.412
   51POPC   PO4  915   7.727  10.058   8.125
   51POPC   GL1  916   7.321  10.034   7.816
   51POPC   GL2  917   7.167  10.370   7.744
   51POPC   C1A  918   7.081   9.949   7.383
   51POPC   D2A  919   7.116   9.712   6.987
   51POPC   C3A  920   7.120   9.940   6.609
   51POPC   C4A  921   6.947  10.042   6.224
   51POPC   C1B  922   7.327  10.419   7.340
   51POPC   C2B  923   7.178  10.315   6.955
   51POPC   C3B  924   7.203  10.454   6.539
   51POPC   C4B  925   7.413  10.254   6.230
   52POPC   NC3  926  10.235   1.315   8.142
   52POPC   PO4  927   9.828   0.797   8.221
   52POPC   GL1  928  10.074   0.908   7.828
   52POPC   GL2  929  10.146   1.262   7.663
   52POPC   C1A  930  10.056   0.865   7.371
   52POPC   D2A  931  10.215   0.986   6.939
   52POPC   C3A  932   9.965   1.011   6.597
   52POPC   C4A  933  10.104   0.904   6.233
   52POPC   C1B  934  10.250   1.379   7.267
   52POPC   C2B  935  10.101   1.478   6.862
   52POPC   C3B  936  10.374   1.295   6.541
   52POPC   C4B  937   0.009   1.222   6.143
   53POPC   NC3  938   8.469   7.105   7.911
   53POPC   PO4  939   8.925   7.592   8.068
   53POPC   GL1  940   8.620   7.542   7.698
   53POPC   GL2  941   8.742   7.240   7.517
   53POPC   C1A  942   8.513   7.596   7.245
   53POPC   D2A  943   8.758   7.490   6.889
   53POPC   C3A  944   8.529   7.595   6.504
   53POPC   C4A  945   8.514   7.435   6.091
   53POPC   C1B  946   8.413   7.072   7.239
   53POPC   C2B  947   8.321   7.233   6.838
   53POPC   C3B  948   8.474   7.081   6.494
   53POPC   C4B  949   8.720   6.984   6.195
   54POPC   NC3  950   8.899   4.084   8.059
   54POPC   PO4  951   8.484   4.579   8.073
   54POPC   GL1  952   8.541   4.294   7.664
   54POPC   GL2  953   8.789   4.078   7.579
   54POPC   C1A  954   8.401   3.971   7.311
   54POPC   D2A  955   8.423   3.781   6.929
   54POPC   C3A  956   8.493   4.078   6.648
   54POPC   C4A  957   8.514   3.778   6.347
   54POPC   C1B  958   8.920   4.411   7.322
   54POPC   C2B  959   8.783   4.494   6.904
   54POPC   C3B  960   8.900   4.424   6.507
   54POPC   C4B  961   8.713   4.209   6.199
   55POPC   NC3  962   9.271   7.273   8.162
   55POPC   PO4  963   9.076   6.655   8.316
   55POPC   GL1  964   9.305   6.858   7.824
   55POPC   GL2  965   9.485   7.190   7.714
   55POPC   C1A  966   9.167   7.060   7.349
   55POPC   D2A  967   8.939   6.976   6.938
   55POPC   C3A  968   9.030   7.203   6.548
   55POPC   C4A  969   9.215   7.086   6.127
   55POPC   C1B  970   9.671   7.041   7.339
   55POPC   C2B  971   9.492   6.970   6.947
   55POPC   C3B  972   9.532   7.091   6.556
   55POPC   C4B  973   9.807   7.004   6.264
   56POPC   NC3  974  10.106   7.666   8.084
   56POPC   PO4  975   0.025   8.130   8.157
   56POPC   GL1  976  10.423   8.019   7.737
   56POPC   GL2  977  10.124   7.929   7.670
   56POPC   C1A  978  10.409   7.809   7.297
   56POPC   D2A  979   0.036   7.908   6.927
   56POPC   C3A  980  10.292   7.748   6.672
   56POPC   C4A  981  10.348   7.787   6.285
   56POPC   C1B  982   9.921   7.954   7.295
   56POPC   C2B  983  10.008   8.109   6.911
   56POPC   C3B  984   9.868   7.957   6.501
   56POPC   C4B  985   9.798   7.871   6.098
   57POPC   NC3  986   1.567   3.047   8.375
   57POPC   PO4  987   0.910   3.121   8.102
   57POPC   GL1  988   0.937   3.377   7.741
   57POPC   GL2  989   1.292   3.490   7.715
   57POPC   C1A  990   1.034   3.286   7.320
   57POPC   D2A  991   1.264   3.239   6.962
   57POPC   C3A  992   1.033   3.281   6.603
   57POPC   C4A  993   1.177   3.364   6.203
   57POPC   C1B  994   1.274   3.745   7.331
   57POPC   C2B  995   1.071   3.802   6.941
   57POPC   C3B  996   1.226   3.747   6.538
   57POPC   C4B  997   1.535   3.747   6.192
   58POPC   NC3  998  10.153   3.768   8.102
   58POPC   PO4  999   9.905   3.140   8.227
   58POPC   GL1 1000   9.959   3.130   7.738
   58POPC   GL2 1001  10.156   3.402   7.585
   58POPC   C1A 1002  10.050   2.981   7.303
   58POPC   D2A 1003   9.881   3.119   6.903
   58POPC   C3A 1004  10.101   3.126   6.540
   58POPC   C4A 1005   9.985   3.234   6.130
   58POPC   C1B 1006  10.095   3.635   7.194
   58POPC   C2B 1007  10.241   3.545   6.804
   58POPC   C3B 1008  10.238   3.617   6.367
   58POPC   C4B 1009  10.044   3.714   5.994
   59POPC   NC3 1010   7.129   7.841   8.394
   59POPC   PO4 1011   7.208   7.869   7.866
   59POPC   GL1 1012   7.117   7.986   7.528
   59POPC   GL2 1013   6.984   8.318   7.491
   59POPC   C1A 1014   7.142   7.763   7.185
   59POPC   D2A 1015   7.353   7.594   6.860
   59POPC   C3A 1016   7.186   7.680   6.444
   59POPC   C4A 1017   7.306   7.668   5.980
   59POPC   C1B 1018   7.268   8.265   7.153
   59POPC   C2B 1019   7.165   8.087   6.806
   59POPC   C3B 1020   7.173   8.186   6.463
   59POPC   C4B 1021   7.015   8.042   6.119
   60POPC   NC3 1022   2.644   6.520   8.132
   60POPC   PO4 1023   3.010   5.936   7.998
   60POPC   GL1 1024   2.798   6.232   7.679
   60POPC   GL2 1025   2.475   6.406   7.674
   60POPC   C1A 1026   2.872   6.367   7.221
   60POPC   D2A 1027   3.154   6.252   6.834
   60POPC   C3A 1028   3.039   6.391   6.399
   60POPC   C4A 1029   3.053   6.138   5.984
   60POPC   C1B 1030   2.299   6.246   7.314
   60POPC   C2B 1031   2.235   6.214   6.887
   60POPC   C3B 1032   2.445   6.421   6.521
   60POPC   C4B 1033   2.593   6.361   6.101
   61POPC   NC3 1034   8.139   4.261   7.969
   61POPC   PO4 1035   7.723   3.837   8.210
   61POPC   GL1 1036   7.757   3.863   7.780
   61POPC   GL2 1037   7.783   4.130   7.611
   61POPC   C1A 1038   7.728   3.722   7.331
   61POPC   D2A 1039   7.686   3.913   6.903
   61POPC   C3A 1040   8.004   3.893   6.584
   61POPC   C4A 1041   8.156   4.097   6.231
   61POPC   C1B 1042   7.991   4.250   7.236
   61POPC   C2B 1043   8.026   4.341   6.798
   61POPC   C3B 1044   7.832   4.441   6.394
   61POPC   C4B 1045   7.493   4.491   6.100
   62POPC   NC3 1046   0.136   0.428   7.927
   62POPC   PO4 1047   0.585  10.492   8.028
   62POPC   GL1 1048   0.549   0.182   7.639
   62POPC   GL2 1049   0.649   0.518   7.786
   62POPC   C1A 1050   0.327   0.105   7.218
   62POPC   D2A 1051   0.301   0.169   6.731
   62POPC   C3A 1052   0.274  10.449   6.328
   62POPC   C4A 1053   0.595   0.052   6.012
   62POPC   C1B 1054   0.467   0.641   7.395
   62POPC   C2B 1055   0.559   0.527   6.999
   62POPC   C3B 1056   0.566   0.653   6.606
   62POPC   C4B 1057   0.398   0.429   6.291
   63POPC   NC3 1058   0.261   4.480   8.418
   63POPC   PO4 1059   0.463   3.951   8.125
   63POPC   GL1 1060   0.629   4.080   7.755
   63POPC   GL2 1061   0.574   4.407   7.731
   63POPC   C1A 1062   0.422   4.098   7.321
   63POPC   D2A 1063   0.534   3.978   6.923
   63POPC   C3A 1064   0.364   4.098   6.526
   63POPC   C4A 1065   0.540   4.010   6.140
   63POPC   C1B 1066   0.639   4.570   7.328
   63POPC   C2B 1067   0.444   4.512   6.937
   63POPC   C3B 1068   0.544   4.590   6.527
   63POPC   C4B 1069   0.745   4.461   6.161
   64POPC   NC3 1070   4.002   0.710   8.068
   64POPC   PO4 1071   4.011   0.023   8.118
   64POPC   GL1 1072   3.932   0.281   7.775
   64POPC   GL2 1073   4.259   0.435   7.730
   64POPC   C1A 1074   3.897   0.190   7.338
   64POPC   D2A 1075   3.704   0.329   6.970
   64POPC   C3A 1076   3.819   0.242   6.539
   64POPC   C4A 1077   3.821   0.605   6.296
   64POPC   C1B 1078   4.376   0.284   7.339
   64POPC   C2B 1079   4.215   0.207   6.939
   64POPC   C3B 1080   4.186   0.562   6.671
   64POPC   C4B 1081   4.309   0.360   6.304
   65POPC   NC3 1082   5.019   9.530   8.244
   65POPC   PO4 1083   4.689   9.060   8.088
   65POPC   GL1 1084   5.032   9.325   7.778
   65POPC   GL2 1085   5.103   9.705   7.757
   65POPC   C1A 1086   5.222   9.453   7.346
   65POPC   D2A 1087   4.962   9.411   6.986
   65POPC   C3A 1088   5.184   9.439   6.609
   65POPC   C4A 1089   5.068   9.605   6.251
   65POPC   C1B 1090   4.754   9.620   7.445
   65POPC   C2B 1091   4.525   9.750   7.061
   65POPC   C3B 1092   4.630   9.639   6.623
   65POPC   C4B 1093   4.713   9.280   6.362
   66POPC   NC3 1094   2.736   5.031   8.088
   66POPC   PO4 1095   2.995   4.463   8.043
   66POPC   GL1 1096   2.814   4.703   7.703
   66POPC   GL2 1097   2.451   4.736   7.767
   66POPC   C1A 1098   2.716   5.008   7.365
   66POPC   D2A 1099   2.790   5.345   7.086
   66POPC   C3A 1100   2.876   5.109   6.715
   66POPC   C4A 1101   2.892   5.177   6.291
   66POPC   C1B 1102   2.498   4.541   7.351
   66POPC   C2B 1103   2.636   4.674   6.956
   66POPC   C3B 1104   2.599   4.719   6.516
   66POPC   C4B 1105   2.883   4.673   6.190
   67POPC   NC3 1106   8.809   8.467   8.020
   67POPC   PO4 1107   9.098   9.086   8.019
   67POPC   GL1 1108   9.008   8.773   7.665
   67POPC   GL2 1109   8.769   8.500   7.533
   67POPC   C1A 1110   9.132   8.751   7.254
   67POPC   D2A 1111   9.075   8.407   7.004
   67POPC   C3A 1112   9.120   8.565   6.602
   67POPC   C4A 1113   8.997   8.387   6.224
   67POPC   C1B 1114   8.602   8.691   7.203
   67POPC   C2B 1115   8.622   8.578   6.797
   67POPC   C3B 1116   8.633   8.705   6.379
   67POPC   C4B 1117   8.502   8.436   6.015
   68POPC   NC3 1118   5.280   0.374   7.780
   68POPC   PO4 1119   4.898  10.474   8.130
   68POPC   GL1 1120   4.701   0.149   7.754
   68POPC   GL2 1121   4.778   0.519   7.724
   68POPC   C1A 1122   4.848   0.170   7.317
   68POPC   D2A 1123   5.110   0.418   7.066
   68POPC   C3A 1124   5.102   0.402   6.636
   68POPC   C4A 1125   5.047   0.369   6.222
   68POPC   C1B 1126   4.716   0.676   7.300
   68POPC   C2B 1127   4.643   0.483   6.900
   68POPC   C3B 1128   4.667   0.658   6.511
   68POPC   C4B 1129   4.699   0.693   6.093
   69POPC   NC3 1130   9.357   5.442   7.932
   69POPC   PO4 1131   9.755   5.956   8.180
   69POPC   GL1 1132   9.720   5.786   7.790
   69POPC   GL2 1133   9.396   5.857   7.616
   69POPC   C1A 1134   9.836   5.890   7.382
   69POPC   D2A 1135   9.536   6.017   7.097
   69POPC   C3A 1136   9.615   5.992   6.665
   69POPC   C4A 1137   9.433   5.915   6.286
   69POPC   C1B 1138   9.399   5.538   7.279
   69POPC   C2B 1139   9.204   5.344   6.915
   69POPC   C3B 1140   9.158   5.494   6.517
   69POPC   C4B 1141   9.194   5.341   6.131
   70POPC   NC3 1142   4.301   2.766   8.049
   70POPC   PO4 1143   3.843   2.343   7.939
   70POPC   GL1 1144   4.122   2.539   7.619
   70POPC   GL2 1145   4.069   2.867   7.542
   70POPC   C1A 1146   4.351   2.538   7.213
   70POPC   D2A 1147   4.474   2.767   6.823
   70POPC   C3A 1148   4.255   2.786   6.453
   70POPC   C4A 1149   4.104   2.551   6.114
   70POPC   C1B 1150   3.851   2.678   7.185
   70POPC   C2B 1151   3.837   2.684   6.731
   70POPC   C3B 1152   3.749   2.872   6.356
   70POPC   C4B 1153   3.699   2.750   5.914
   71POPC   NC3 1154   6.955   6.962   8.433
   71POPC   PO4 1155   7.484   6.819   8.080
   71POPC   GL1 1156   7.562   6.698   7.676
   71POPC   GL2 1157   7.402   6.394   7.650
   71POPC   C1A 1158   7.411   6.818   7.265
   71POPC   D2A 1159   7.137   6.810   6.941
   71POPC   C3A 1160   7.271   6.804   6.533
   71POPC   C4A 1161   7.111   6.533   6.222
   71POPC   C1B 1162   7.219   6.347   7.198
   71POPC   C2B 1163   7.117   6.344   6.742
   71POPC   C3B 1164   6.997   6.080   6.437
   71POPC   C4B 1165   7.211   6.011   6.050
   72POPC   NC3 1166   1.065   5.716   8.084
   72POPC   PO4 1167   1.514   6.156   8.031
   72POPC   GL1 1168   1.568   5.840   7.700
   72POPC   GL2 1169   1.348   5.550   7.702
   72POPC   C1A 1170   1.521   5.686   7.260
   72POPC   D2A 1171   1.311   5.866   6.929
   72POPC   C3A 1172   1.514   5.948   6.540
   72POPC   C4A 1173   1.332   5.779   6.190
   72POPC   C1B 1174   1.028   5.563   7.374
   72POPC   C2B 1175   1.068   5.371   6.960
   72POPC   C3B 1176   1.109   5.535   6.567
   72POPC   C4B 1177   0.936   5.420   6.173
   73POPC   NC3 1178   3.592  10.298   8.114
   73POPC   PO4 1179   3.097   9.889   7.937
   73POPC   GL1 1180   3.389  10.083   7.644
   73POPC   GL2 1181   3.643  10.361   7.622
   73POPC   C1A 1182   3.471   9.933   7.238
   73POPC   D2A 1183   3.457   9.695   6.861
   73POPC   C3A 1184   3.300   9.974   6.547
   73POPC   C4A 1185   2.956   9.988   6.255
   73POPC   C1B 1186   3.484  10.436   7.238
   73POPC   C2B 1187   3.600  10.350   6.821
   73POPC   C3B 1188   3.699  10.274   6.390
   73POPC   C4B 1189   3.736   9.900   6.204
   74POPC   NC3 1190   0.176   8.456   7.858
   74POPC   PO4 1191   0.856   8.684   8.125
   74POPC   GL1 1192   0.709   8.701   7.684
   74POPC   GL2 1193   0.405   8.826   7.607
   74POPC   C1A 1194   0.703   8.519   7.279
   74POPC   D2A 1195   0.637   8.764   6.924
   74POPC   C3A 1196   0.757   8.576   6.581
   74POPC   C4A 1197   0.631   8.594   6.201
   74POPC   C1B 1198   0.211   8.697   7.244
   74POPC   C2B 1199   0.146   8.843   6.852
   74POPC   C3B 1200   0.226   8.598   6.523
   74POPC   C4B 1201   0.062   8.539   6.149
   75POPC   NC3 1202   1.105   6.408   8.018
   75POPC   PO4 1203   0.964   6.977   8.186
   75POPC   GL1 1204   1.216   6.865   7.761
   75POPC   GL2 1205   1.042   6.615   7.566
   75POPC   C1A 1206   1.447   6.722   7.314
   75POPC   D2A 1207   1.220   6.541   6.928
   75POPC   C3A 1208   1.404   6.542   6.485
   75POPC   C4A 1209   1.308   6.515   6.012
   75POPC   C1B 1210   1.102   6.209   7.352
   75POPC   C2B 1211   0.877   6.145   6.970
   75POPC   C3B 1212   1.036   6.139   6.555
   75POPC   C4B 1213   0.991   6.148   6.127
   76POPC   NC3 1214   0.128   4.174   7.891
   76POPC   PO4 1215  10.064   4.389   8.139
   76POPC   GL1 1216  10.116   4.242   7.736
   76POPC   GL2 1217  10.078   3.913   7.629
   76POPC   C1A 1218   9.939   4.292   7.320
   76POPC   D2A 1219  10.130   4.346   6.925
   76POPC   C3A 1220   9.898   4.386   6.572
   76POPC   C4A 1221  10.064   4.432   6.174
   76POPC   C1B 1222  10.387   4.049   7.300
   76POPC   C2B 1223   0.005   3.987   6.878
   76POPC   C3B 1224  10.346   4.107   6.465
   76POPC   C4B 1225  10.452   4.020   6.026
   77POPC   NC3 1226   1.885   5.868   8.137
   77POPC   PO4 1227   1.483   5.381   8.158
   77POPC   GL1 1228   1.837   5.427   7.808
   77POPC   GL2 1229   2.107   5.657   7.742
   77POPC   C1A 1230   1.849   5.314   7.401
   77POPC   D2A 1231   1.912   5.331   6.967
   77POPC   C3A 1232   1.632   5.447   6.640
   77POPC   C4A 1233   1.846   5.402   6.234
   77POPC   C1B 1234   2.007   5.828   7.345
   77POPC   C2B 1235   1.848   5.873   6.923
   77POPC   C3B 1236   2.023   5.786   6.528
   77POPC   C4B 1237   2.251   6.006   6.247
   78POPC   NC3 1238   8.488   3.368   7.941
   78POPC   PO4 1239   9.066   3.041   8.110
   78POPC   GL1 1240   8.917   3.257   7.720
   78POPC   GL2 1241   8.929   3.621   7.755
   78POPC   C1A 1242   8.701   3.456   7.325
   78POPC   D2A 1243   8.552   3.269   6.946
   78POPC   C3A 1244   8.743   3.363   6.527
   78POPC   C4A 1245   8.494   3.302   6.154
   78POPC   C1B 1246   9.102   3.783   7.332
   78POPC   C2B 1247   8.901   3.966   6.981
   78POPC   C3B 1248   8.981   3.915   6.541
   78POPC   C4B 1249   8.964   3.680   6.152
   79POPC   NC3 1250   9.808   4.180   8.465
   79POPC   PO4 1251   9.229   4.414   8.113
   79POPC   GL1 1252   9.250   4.227   7.698
   79POPC   GL2 1253   9.340   3.938   7.737
   79POPC   C1A 1254   9.421   4.327   7.307
   79POPC   D2A 1255   9.261   4.314   6.899
   79POPC   C3A 1256   9.408   4.484   6.521
   79POPC   C4A 1257   9.250   4.236   6.170
   79POPC   C1B 1258   9.625   3.863   7.375
   79POPC   C2B 1259   9.697   4.027   6.956
   79POPC   C3B 1260   9.500   3.973   6.569
   79POPC   C4B 1261   9.736   4.045   6.219
   80POPC   NC3 1262   6.265   6.712   7.753
   80POPC   PO4 1263   6.596   7.142   8.178
   80POPC   GL1 1264   6.665   7.161   7.716
   80POPC   GL2 1265   6.360   7.306   7.643
   80POPC   C1A 1266   6.732   6.914   7.297
   80POPC   D2A 1267   6.661   6.932   6.825
   80POPC   C3A 1268   6.673   6.593   6.503
   80POPC   C4A 1269   6.341   6.643   6.166
   80POPC   C1B 1270   6.572   7.400   7.246
   80POPC   C2B 1271   6.377   7.349   6.861
   80POPC   C3B 1272   6.318   7.141   6.472
   80POPC   C4B 1273   6.066   7.362   6.193
   81POPC   NC3 1274   0.612   1.102   8.293
   81POPC   PO4 1275  10.478   0.807   8.140
   81POPC   GL1 1276   0.085   0.969   7.744
   81POPC   GL2 1277   0.147   1.326   7.791
   81POPC   C1A 1278   0.066   0.951   7.296
   81POPC   D2A 1279   0.406   1.017   6.989
   81POPC   C3A 1280   0.382   1.117   6.556
   81POPC   C4A 1281   0.410   0.897   6.158
   81POPC   C1B 1282   0.294   1.377   7.365
   81POPC   C2B 1283   0.179   1.488   6.916
   81POPC   C3B 1284   0.299   1.591   6.446
   81POPC   C4B 1285   0.548   1.357   6.118
   82POPC   NC3 1286   9.247   6.274   8.129
   82POPC   PO4 1287   8.817   6.806   7.857
   82POPC   GL1 1288   9.022   6.397   7.685
   82POPC   GL2 1289   9.394   6.368   7.653
   82POPC   C1A 1290   9.060   6.181   7.282
   82POPC   D2A 1291   8.866   6.291   6.873
   82POPC   C3A 1292   9.132   6.290   6.502
   82POPC   C4A 1293   9.195   6.708   6.440
   82POPC   C1B 1294   9.343   6.595   7.280
   82POPC   C2B 1295   9.429   6.471   6.864
   82POPC   C3B 1296   9.643   6.457   6.456
   82POPC   C4B 1297   9.977   6.187   6.313
   83POPC   NC3 1298   9.511   0.674   7.886
   83POPC   PO4 1299   9.061   0.494   8.355
   83POPC   GL1 1300   9.137   0.370   7.760
   83POPC   GL2 1301   9.469   0.307   7.540
   83POPC   C1A 1302   9.068   0.490   7.303
   83POPC   D2A 1303   9.266   0.318   6.907
   83POPC   C3A 1304   9.165   0.451   6.506
   83POPC   C4A 1305   9.040   0.843   6.454
   83POPC   C1B 1306   9.585   0.594   7.215
   83POPC   C2B 1307   9.615   0.682   6.776
   83POPC   C3B 1308   9.661   0.642   6.364
   83POPC   C4B 1309   9.515   0.308   6.126
   84POPC   NC3 1310   7.158   7.022   7.826
   84POPC   PO4 1311   7.448   7.454   8.302
   84POPC   GL1 1312   7.404   7.428   7.741
   84POPC   GL2 1313   7.094   7.443   7.561
   84POPC   C1A 1314   7.523   7.344   7.301
   84POPC   D2A 1315   7.582   7.125   6.896
   84POPC   C3A 1316   7.561   7.319   6.495
   84POPC   C4A 1317   7.272   7.217   6.231
   84POPC   C1B 1318   7.052   7.270   7.126
   84POPC   C2B 1319   7.015   7.256   6.674
   84POPC   C3B 1320   6.813   7.038   6.316
   84POPC   C4B 1321   6.780   6.769   5.924
   85POPC   NC3 1322   7.815   1.768   8.133
   85POPC   PO4 1323   8.112   2.277   8.064
   85POPC   GL1 1324   8.043   1.951   7.685
   85POPC   GL2 1325   7.735   1.726   7.627
   85POPC   C1A 1326   8.088   1.724   7.257
   85POPC   D2A 1327   8.222   1.736   6.831
   85POPC   C3A 1328   7.979   1.631   6.454
   85POPC   C4A 1329   8.112   1.579   5.975
   85POPC   C1B 1330   7.721   2.077   7.305
   85POPC   C2B 1331   7.811   2.040   6.899
   85POPC   C3B 1332   7.919   2.137   6.532
   85POPC   C4B 1333   8.034   2.042   6.160
   86POPC   NC3 1334   7.114   9.126   7.985
   86POPC   PO4 1335   7.527   9.404   8.348
   86POPC   GL1 1336   7.540   9.348   7.845
   86POPC   GL2 1337   7.269   9.537   7.671
   86POPC   C1A 1338   7.423   9.125   7.386
   86POPC   D2A 1339   7.352   8.876   6.991
   86POPC   C3A 1340   7.333   9.143   6.618
   86POPC   C4A 1341   7.467   9.057   6.180
   86POPC   C1B 1342   6.961   9.379   7.366
   86POPC   C2B 1343   6.913   9.226   6.943
   86POPC   C3B 1344   6.926   9.444   6.524
   86POPC   C4B 1345   7.316   9.580   6.301
   87POPC   NC3 1346   6.970   1.083   8.163
   87POPC   PO4 1347   7.422   1.554   8.116
   87POPC   GL1 1348   7.223   1.313   7.751
   87POPC   GL2 1349   6.945   1.183   7.684
   87POPC   C1A 1350   7.290   1.189   7.318
   87POPC   D2A 1351   7.307   1.108   6.901
   87POPC   C3A 1352   7.126   1.373   6.578
   87POPC   C4A 1353   7.163   1.353   6.123
   87POPC   C1B 1354   6.854   0.863   7.367
   87POPC   C2B 1355   6.943   0.714   6.941
   87POPC   C3B 1356   7.133   0.815   6.528
   87POPC   C4B 1357   6.854   1.003   6.288
   88POPC   NC3 1358   2.518   0.955   8.123
   88POPC   PO4 1359   3.169   1.065   8.195
   88POPC   GL1 1360   3.109   1.279   7.768
   88POPC   GL2 1361   2.786   1.161   7.709
   88POPC   C1A 1362   3.052   1.385   7.305
   88POPC   D2A 1363   3.017   1.120   6.959
   88POPC   C3A 1364   2.864   1.246   6.569
   88POPC   C4A 1365   3.016   1.086   6.219
   88POPC   C1B 1366   2.594   1.116   7.299
   88POPC   C2B 1367   2.497   1.304   6.918
   88POPC   C3B 1368   2.340   1.152   6.533
   88POPC   C4B 1369   2.456   1.039   6.125
   89POPC   NC3 1370   0.552   9.036   8.050
   89POPC   PO4 1371   0.418   9.717   7.993
   89POPC   GL1 1372   0.630   9.394   7.692
   89POPC   GL2 1373   0.337   9.321   7.618
   89POPC   C1A 1374   0.645   9.159   7.257
   89POPC   D2A 1375   0.419   9.274   6.846
   89POPC   C3A 1376   0.497   9.030   6.474
   89POPC   C4A 1377   0.518   9.038   5.996
   89POPC   C1B 1378   0.451   9.649   7.317
   89POPC   C2B 1379   0.331   9.774   6.943
   89POPC   C3B 1380   0.477   9.773   6.558
   89POPC   C4B 1381   0.336   9.472   6.259
   90POPC   NC3 1382   5.619   9.037   8.039
   90POPC   PO4 1383   5.454   9.694   8.140
   90POPC   GL1 1384   5.596   9.459   7.737
   90POPC   GL2 1385   5.966   9.329   7.728
   90POPC   C1A 1386   5.646   9.163   7.358
   90POPC   D2A 1387   5.386   9.104   6.967
   90POPC   C3A 1388   5.590   9.106   6.567
   90POPC   C4A 1389   5.740   9.342   6.222
   90POPC   C1B 1390   5.922   9.610   7.363
   90POPC   C2B 1391   5.627   9.566   7.027
   90POPC   C3B 1392   5.672   9.637   6.637
   90POPC   C4B 1393   6.025   9.761   6.362
   91POPC   NC3 1394   3.701   2.792   7.865
   91POPC   PO4 1395   3.036   2.994   8.172
   91POPC   GL1 1396   3.201   2.851   7.779
   91POPC   GL2 1397   3.326   2.452   7.831
   91POPC   C1A 1398   3.204   2.985   7.346
   91POPC   D2A 1399   3.045   2.801   6.989
   91POPC   C3A 1400   3.178   2.911   6.562
   91POPC   C4A 1401   3.329   3.075   6.190
   91POPC   C1B 1402   3.291   2.473   7.377
   91POPC   C2B 1403   3.429   2.489   6.954
   91POPC   C3B 1404   3.440   2.462   6.518
   91POPC   C4B 1405   3.279   2.559   6.134
   92POPC   NC3 1406   1.916   8.196   8.102
   92POPC   PO4 1407   1.778   7.554   8.236
   92POPC   GL1 1408   1.708   7.794   7.818
   92POPC   GL2 1409   1.745   8.110   7.630
   92POPC   C1A 1410   1.701   7.640   7.369
   92POPC   D2A 1411   1.692   7.895   6.987
   92POPC   C3A 1412   1.678   7.763   6.540
   92POPC   C4A 1413   1.684   8.175   6.296
   92POPC   C1B 1414   2.082   7.959   7.367
   92POPC   C2B 1415   2.173   7.770   6.955
   92POPC   C3B 1416   2.103   8.033   6.607
   92POPC   C4B 1417   2.091   7.843   6.231
   93POPC   NC3 1418   7.691   7.728   7.983
   93POPC   PO4 1419   8.118   8.178   8.141
   93POPC   GL1 1420   7.972   8.048   7.711
   93POPC   GL2 1421   7.608   8.152   7.667
   93POPC   C1A 1422   8.112   7.905   7.296
   93POPC   D2A 1423   8.118   8.136   6.912
   93POPC   C3A 1424   8.141   7.973   6.529
   93POPC   C4A 1425   8.081   8.190   6.166
   93POPC   C1B 1426   7.613   7.859   7.333
   93POPC   C2B 1427   7.648   7.988   6.943
   93POPC   C3B 1428   7.635   7.896   6.521
   93POPC   C4B 1429   7.560   8.110   6.172
   94POPC   NC3 1430   0.533   7.473   7.950
   94POPC   PO4 1431   0.313   6.907   7.814
   94POPC   GL1 1432   0.702   6.985   7.667
   94POPC   GL2 1433   0.549   7.261   7.493
   94POPC   C1A 1434   0.791   6.920   7.223
   94POPC   D2A 1435   0.482   7.140   6.990
   94POPC   C3A 1436   0.507   7.030   6.604
   94POPC   C4A 1437   0.720   7.160   6.252
   94POPC   C1B 1438   0.098   7.226   7.328
   94POPC   C2B 1439  10.420   7.387   7.007
   94POPC   C3B 1440   0.207   7.467   6.674
   94POPC   C4B 1441   0.219   7.300   6.267
   95POPC   NC3 1442   2.214   7.423   8.123
   95POPC   PO4 1443   1.649   6.959   8.021
   95POPC   GL1 1444   1.678   7.096   7.617
   95POPC   GL2 1445   1.883   7.337   7.732
   95POPC   C1A 1446   1.698   7.170   7.169
   95POPC   D2A 1447   1.652   6.887   6.841
   95POPC   C3A 1448   1.605   7.053   6.468
   95POPC   C4A 1449   1.683   6.828   6.124
   95POPC   C1B 1450   2.184   7.443   7.418
   95POPC   C2B 1451   2.218   7.174   7.074
   95POPC   C3B 1452   1.999   7.277   6.719
   95POPC   C4B 1453   2.018   7.323   6.280
   96POPC   NC3 1454   4.257   3.504   8.059
   96POPC   PO4 1455   4.642   3.984   7.810
   96POPC   GL1 1456   4.337   3.655   7.580
   96POPC   GL2 1457   4.377   3.274   7.624
   96POPC   C1A 1458   4.155   3.544   7.166
   96POPC   D2A 1459   4.468   3.430   6.838
   96POPC   C3A 1460   4.516   3.737   6.520
   96POPC   C4A 1461   4.158   3.720   6.274
   96POPC   C1B 1462   4.356   3.084   7.218
   96POPC   C2B 1463   4.068   3.094   6.892
   96POPC   C3B 1464   4.087   3.267   6.506
   96POPC   C4B 1465   4.451   3.312   6.233
   97POPC   NC3 1466   5.124   2.872   8.109
   97POPC   PO4 1467   4.569   3.123   8.099
   97POPC   GL1 1468   4.716   2.863   7.696
   97POPC   GL2 1469   5.091   2.774   7.614
   97POPC   C1A 1470   4.790   2.835   7.215
   97POPC   D2A 1471   4.989   2.786   6.778
   97POPC   C3A 1472   4.764   2.729   6.386
   97POPC   C4A 1473   4.528   2.815   6.016
   97POPC   C1B 1474   5.247   2.619   7.203
   97POPC   C2B 1475   5.218   2.347   6.820
   97POPC   C3B 1476   5.260   2.536   6.393
   97POPC   C4B 1477   5.232   2.985   6.318
   98POPC   NC3 1478   1.770   6.531   8.078
   98POPC   PO4 1479   2.267   6.139   8.070
   98POPC   GL1 1480   1.964   6.183   7.723
   98POPC   GL2 1481   1.956   6.532   7.617
   98POPC   C1A 1482   1.675   6.211   7.335
   98POPC   D2A 1483   1.707   6.388   6.923
   98POPC   C3A 1484   1.902   6.322   6.528
   98POPC   C4A 1485   1.706   6.250   6.161
   98POPC   C1B 1486   1.969   6.722   7.235
   98POPC   C2B 1487   2.130   6.720   6.833
   98POPC   C3B 1488   2.097   6.825   6.428
   98POPC   C4B 1489   2.112   6.539   6.078
   99POPC   NC3 1490   1.290   2.937   7.882
   99POPC   PO4 1491   0.921   2.234   8.007
   99POPC   GL1 1492   0.952   2.506   7.658
   99POPC   GL2 1493   0.859   2.854   7.644
   99POPC   C1A 1494   0.963   2.314   7.267
   99POPC   D2A 1495   1.159   2.310   6.873
   99POPC   C3A 1496   0.989   2.402   6.474
   99POPC   C4A 1497   1.107   2.507   6.028
   99POPC   C1B 1498   1.116   2.787   7.245
   99POPC   C2B 1499   1.067   2.805   6.796
   99POPC   C3B 1500   1.262   2.854   6.427
   99POPC   C4B 1501   0.880   2.918   6.228
  100POPC   NC3 1502   8.124  10.350   8.072
  100POPC   PO4 1503   8.374   9.757   8.028
  100POPC   GL1 1504   8.038   9.955   7.725
  100POPC   GL2 1505   7.770  10.270   7.676
  100POPC   C1A 1506   8.082  10.153   7.313
  100POPC   D2A 1507   8.120  10.014   6.910
  100POPC   C3A 1508   8.187  10.226   6.534
  100POPC   C4A 1509   7.926  10.289   6.174
  100POPC   C1B 1510   7.602   9.984   7.346
  100POPC   C2B 1511   7.581  10.000   6.883
  100POPC   C3B 1512   7.755   9.920   6.482
  100POPC   C4B 1513   7.673   9.868   6.040
  101POPC   NC3 1514   1.973   1.355   8.067
  101POPC   PO4 1515   1.894   2.027   8.108
  101POPC   GL1 1516   1.730   1.953   7.704
  101POPC   GL2 1517   1.914   2.267   7.663
  101POPC   C1A 1518   1.686   1.715   7.285
  101POPC   D2A 1519   2.000   1.764   6.924
  101POPC   C3A 1520   2.081   1.749   6.472
  101POPC   C4A 1521   1.782   1.720   6.096
  101POPC   C1B 1522   1.975   2.133   7.284
  101POPC   C2B 1523   1.889   2.335   6.948
  101POPC   C3B 1524   1.964   2.289   6.574
  101POPC   C4B 1525   1.925   2.185   6.221
  102POPC   NC3 1526   0.620   3.515   8.149
  102POPC   PO4 1527  10.472   3.444   7.976
  102POPC   GL1 1528   0.084   3.715   7.653
  102POPC   GL2 1529   0.423   3.623   7.683
  102POPC   C1A 1530   0.186   3.622   7.213
  102POPC   D2A 1531   0.212   3.238   6.977
  102POPC   C3A 1532   0.122   3.314   6.542
  102POPC   C4A 1533   0.231   3.641   6.277
  102POPC   C1B 1534   0.699   3.663   7.340
  102POPC   C2B 1535   0.668   3.497   6.928
  102POPC   C3B 1536   0.693   3.660   6.526
  102POPC   C4B 1537   0.670   3.390   6.207
  103POPC   NC3 1538   0.276  10.155   8.104
  103POPC   PO4 1539   1.059  10.193   8.139
  103POPC   GL1 1540   0.835  10.229   7.682
  103POPC   GL2 1541   0.515  10.116   7.664
  103POPC   C1A 1542   0.779  10.050   7.235
  103POPC   D2A 1543   0.524  10.235   6.909
  103POPC   C3A 1544   0.706  10.291   6.514
  103POPC   C4A 1545   0.622  10.072   6.172
  103POPC   C1B 1546   0.196  10.091   7.379
  103POPC   C2B 1547  10.480  10.133   7.012
  103POPC   C3B 1548   0.074  10.102   6.625
  103POPC   C4B 1549   0.114   9.953   6.226
  104POPC   NC3 1550   7.698   1.261   7.867
  104POPC   PO4 1551   8.246   1.022   8.196
  104POPC   GL1 1552   8.159   1.000   7.723
  104POPC   GL2 1553   7.980   1.272   7.465
  104POPC   C1A 1554   8.287   0.950   7.275
  104POPC   D2A 1555   8.130   1.237   6.923
  104POPC   C3A 1556   8.117   1.151   6.497
  104POPC   C4A 1557   7.994   1.096   6.093
  104POPC   C1B 1558   7.773   0.969   7.187
  104POPC   C2B 1559   7.741   0.909   6.737
  104POPC   C3B 1560   7.604   1.242   6.437
  104POPC   C4B 1561   7.627   1.537   6.094
  105POPC   NC3 1562   6.785  10.070   7.953
  105POPC   PO4 1563   6.210   9.678   8.026
  105POPC   GL1 1564   6.213   9.945   7.691
  105POPC   GL2 1565   6.331  10.266   7.745
  105POPC   C1A 1566   6.089  10.089   7.289
  105POPC   D2A 1567   6.098   9.880   6.892
  105POPC   C3A 1568   6.119  10.213   6.596
  105POPC   C4A 1569   6.356  10.226   6.261
  105POPC   C1B 1570   6.613  10.240   7.363
  105POPC   C2B 1571   6.715  10.066   6.964
  105POPC   C3B 1572   6.724  10.293   6.608
  105POPC   C4B 1573   6.745   0.038   6.228
  106POPC   NC3 1574   4.825   1.917   7.989
  106POPC   PO4 1575   5.149   2.414   8.099
  106POPC   GL1 1576   4.924   2.291   7.657
  106POPC   GL2 1577   4.943   1.922   7.499
  106POPC   C1A 1578   4.835   2.327   7.219
  106POPC   D2A 1579   4.677   2.285   6.834
  106POPC   C3A 1580   4.873   2.235   6.446
  106POPC   C4A 1581   4.702   2.325   6.010
  106POPC   C1B 1582   4.778   1.827   7.109
  106POPC   C2B 1583   4.973   1.835   6.747
  106POPC   C3B 1584   5.027   1.722   6.361
  106POPC   C4B 1585   5.081   2.000   6.061
  107POPC   NC3 1586  10.235   8.484   8.213
  107POPC   PO4 1587   9.824   9.019   8.079
  107POPC   GL1 1588  10.003   8.806   7.690
  107POPC   GL2 1589  10.118   8.463   7.706
  107POPC   C1A 1590  10.197   8.790   7.290
  107POPC   D2A 1591   9.992   8.820   6.918
  107POPC   C3A 1592  10.229   8.729   6.588
  107POPC   C4A 1593  10.057   8.744   6.221
  107POPC   C1B 1594  10.300   8.303   7.328
  107POPC   C2B 1595  10.417   8.402   6.930
  107POPC   C3B 1596  10.318   8.245   6.526
  107POPC   C4B 1597  10.158   8.232   6.135
  108POPC   NC3 1598   1.989   9.884   8.025
  108POPC   PO4 1599   1.591   9.352   8.240
  108POPC   GL1 1600   1.798   9.454   7.788
  108POPC   GL2 1601   2.037   9.195   7.669
  108POPC   C1A 1602   1.974   9.526   7.316
  108POPC   D2A 1603   1.771   9.407   6.938
  108POPC   C3A 1604   1.882   9.559   6.512
  108POPC   C4A 1605   1.634   9.570   6.158
  108POPC   C1B 1606   2.118   9.002   7.292
  108POPC   C2B 1607   2.137   9.048   6.868
  108POPC   C3B 1608   1.874   9.074   6.549
  108POPC   C4B 1609   1.926   9.140   6.152
  109POPC   NC3 1610   0.865   9.794   7.938
  109POPC   PO4 1611   1.536   9.964   8.042
  109POPC   GL1 1612   1.276   9.966   7.712
  109POPC   GL2 1613   1.325  10.281   7.657
  109POPC   C1A 1614   1.295   9.967   7.270
  109POPC   D2A 1615   1.331   9.750   6.918
  109POPC   C3A 1616   1.032   9.906   6.645
  109POPC   C4A 1617   1.150   9.794   6.266
  109POPC   C1B 1618   1.116  10.455   7.297
  109POPC   C2B 1619   1.044  10.396   6.874
  109POPC   C3B 1620   1.229  10.341   6.451
  109POPC   C4B 1621   1.093   0.032   6.062
  110POPC   NC3 1622   7.889   9.612   8.143
  110POPC   PO4 1623   8.209   9.003   8.331
  110POPC   GL1 1624   8.036   9.122   7.880
  110POPC   GL2 1625   8.278   9.354   7.749
  110POPC   C1A 1626   7.864   9.370   7.463
  110POPC   D2A 1627   7.604   9.520   7.096
  110POPC   C3A 1628   7.744   9.446   6.667
  110POPC   C4A 1629   7.820   9.421   6.249
  110POPC   C1B 1630   8.264   9.659   7.371
  110POPC   C2B 1631   8.155   9.510   6.966
  110POPC   C3B 1632   8.285   9.684   6.560
  110POPC   C4B 1633   8.180   9.825   6.169
  111POPC   NC3 1634   9.266   7.918   8.022
  111POPC   PO4 1635   9.920   8.171   8.077
  111POPC   GL1 1636   9.649   8.093   7.712
  111POPC   GL2 1637   9.661   7.711   7.716
  111POPC   C1A 1638   9.441   8.080   7.275
  111POPC   D2A 1639   9.548   7.930   6.901
  111POPC   C3A 1640   9.379   8.129   6.559
  111POPC   C4A 1641   9.282   7.978   6.157
  111POPC   C1B 1642   9.476   7.554   7.327
  111POPC   C2B 1643   9.316   7.452   6.922
  111POPC   C3B 1644   9.425   7.603   6.522
  111POPC   C4B 1645   9.550   7.450   6.160
  112POPC   NC3 1646   8.678   1.102   8.003
  112POPC   PO4 1647   8.109   1.482   7.917
  112POPC   GL1 1648   8.455   1.403   7.621
  112POPC   GL2 1649   8.829   1.395   7.609
  112POPC   C1A 1650   8.508   1.422   7.195
  112POPC   D2A 1651   8.657   1.464   6.802
  112POPC   C3A 1652   8.469   1.513   6.389
  112POPC   C4A 1653   8.584   1.442   5.967
  112POPC   C1B 1654   8.810   1.023   7.346
  112POPC   C2B 1655   8.678   0.939   6.948
  112POPC   C3B 1656   8.596   1.031   6.565
  112POPC   C4B 1657   8.502   0.984   6.176
  113POPC   NC3 1658   5.215   0.308   8.277
  113POPC   PO4 1659   5.763   0.706   8.140
  113POPC   GL1 1660   5.694   0.663   7.682
  113POPC   GL2 1661   5.815   0.334   7.659
  113POPC   C1A 1662   5.564   0.494   7.225
  113POPC   D2A 1663   5.528   0.639   6.781
  113POPC   C3A 1664   5.522   0.538   6.312
  113POPC   C4A 1665   5.447   0.760   5.903
  113POPC   C1B 1666   6.032   0.555   7.291
  113POPC   C2B 1667   5.999   0.326   6.942
  113POPC   C3B 1668   5.927   0.365   6.557
  113POPC   C4B 1669   6.010   0.715   6.301
  114POPC   NC3 1670   1.999   3.626   8.031
  114POPC   PO4 1671   2.031   3.000   8.296
  114POPC   GL1 1672   2.156   3.192   7.820
  114POPC   GL2 1673   1.941   3.440   7.589
  114POPC   C1A 1674   2.184   3.091   7.357
  114POPC   D2A 1675   1.987   2.941   7.000
  114POPC   C3A 1676   2.168   3.092   6.641
  114POPC   C4A 1677   2.147   3.441   6.381
  114POPC   C1B 1678   1.653   3.390   7.277
  114POPC   C2B 1679   1.581   3.634   6.904
  114POPC   C3B 1680   1.596   3.381   6.554
  114POPC   C4B 1681   1.659   3.158   6.208
  115POPC   NC3 1682   7.855   2.693   8.088
  115POPC   PO4 1683   7.580   2.105   7.933
  115POPC   GL1 1684   7.839   2.436   7.652
  115POPC   GL2 1685   8.008   2.816   7.641
  115POPC   C1A 1686   8.037   2.504   7.259
  115POPC   D2A 1687   7.838   2.568   6.909
  115POPC   C3A 1688   8.068   2.621   6.571
  115POPC   C4A 1689   7.817   2.542   6.222
  115POPC   C1B 1690   8.244   2.990   7.330
  115POPC   C2B 1691   8.095   3.013   6.939
  115POPC   C3B 1692   7.815   3.076   6.618
  115POPC   C4B 1693   8.050   3.033   6.249
  116POPC   NC3 1694   2.969   9.523   8.220
  116POPC   PO4 1695   2.314   9.538   8.012
  116POPC   GL1 1696   2.516   9.402   7.648
  116POPC   GL2 1697   2.838   9.524   7.690
  116POPC   C1A 1698   2.488   9.462   7.208
  116POPC   D2A 1699   2.296   9.598   6.827
  116POPC   C3A 1700   2.332   9.348   6.462
  116POPC   C4A 1701   2.403   9.241   6.048
  116POPC   C1B 1702   2.818   9.837   7.345
  116POPC   C2B 1703   2.928   9.754   6.943
  116POPC   C3B 1704   2.786   9.570   6.616
  116POPC   C4B 1705   2.811   9.503   6.209
  117POPC   NC3 1706   9.353   2.716   7.919
  117POPC   PO4 1707   9.577   2.197   8.274
  117POPC   GL1 1708   9.561   2.229   7.758
  117POPC   GL2 1709   9.339   2.473   7.485
  117POPC   C1A 1710   9.741   2.283   7.311
  117POPC   D2A 1711   9.452   2.407   6.954
  117POPC   C3A 1712   9.540   2.596   6.569
  117POPC   C4A 1713   9.283   2.636   6.196
  117POPC   C1B 1714   9.553   2.818   7.260
  117POPC   C2B 1715   9.373   3.019   6.926
  117POPC   C3B 1716   9.167   2.970   6.577
  117POPC   C4B 1717   9.575   3.080   6.396
  118POPC   NC3 1718   5.597   8.261   8.022
  118POPC   PO4 1719   6.051   8.819   8.087
  118POPC   GL1 1720   5.965   8.547   7.759
  118POPC   GL2 1721   5.636   8.661   7.681
  118POPC   C1A 1722   5.988   8.723   7.337
  118POPC   D2A 1723   5.857   8.887   6.957
  118POPC   C3A 1724   5.919   8.700   6.544
  118POPC   C4A 1725   6.006   8.906   6.159
  118POPC   C1B 1726   5.465   8.693   7.274
  118POPC   C2B 1727   5.486   8.550   6.833
  118POPC   C3B 1728   5.399   8.636   6.405
  118POPC   C4B 1729   5.661   8.520   6.093
  119POPC   NC3 1730   1.218   8.973   8.159
  119POPC   PO4 1731   1.547   8.460   8.061
  119POPC   GL1 1732   1.417   8.502   7.681
  119POPC   GL2 1733   1.203   8.695   7.732
  119POPC   C1A 1734   1.297   8.347   7.291
  119POPC   D2A 1735   1.511   8.354   6.897
  119POPC   C3A 1736   1.262   8.323   6.548
  119POPC   C4A 1737   1.205   8.556   6.230
  119POPC   C1B 1738   1.099   8.833   7.340
  119POPC   C2B 1739   1.140   8.710   6.947
  119POPC   C3B 1740   1.045   8.977   6.649
  119POPC   C4B 1741   0.945   8.981   6.252
  120POPC   NC3 1742   2.780  10.386   8.377
  120POPC   PO4 1743   2.604   0.492   8.203
  120POPC   GL1 1744   2.841   0.458   7.801
  120POPC   GL2 1745   3.093   0.735   7.751
  120POPC   C1A 1746   2.650   0.297   7.397
  120POPC   D2A 1747   2.618   0.065   7.017
  120POPC   C3A 1748   2.753   0.274   6.664
  120POPC   C4A 1749   2.890   0.292   6.257
  120POPC   C1B 1750   2.932   0.743   7.328
  120POPC   C2B 1751   2.679   0.743   6.934
  120POPC   C3B 1752   2.712   0.754   6.487
  120POPC   C4B 1753   2.412   0.485   6.307
  121POPC   NC3 1754   4.109   8.001   8.286
  121POPC   PO4 1755   4.364   7.365   8.096
  121POPC   GL1 1756   4.264   7.383   7.662
  121POPC   GL2 1757   4.011   7.154   7.630
  121POPC   C1A 1758   4.205   7.343   7.191
  121POPC   D2A 1759   4.471   7.434   6.829
  121POPC   C3A 1760   4.383   7.232   6.430
  121POPC   C4A 1761   4.603   6.956   6.130
  121POPC   C1B 1762   4.010   6.882   7.262
  121POPC   C2B 1763   4.120   6.980   6.808
  121POPC   C3B 1764   4.033   6.867   6.348
  121POPC   C4B 1765   4.162   7.109   5.945
  122POPC   NC3 1766   7.951   3.411   8.247
  122POPC   PO4 1767   8.492   3.830   7.970
  122POPC   GL1 1768   8.197   3.666   7.662
  122POPC   GL2 1769   7.950   3.363   7.718
  122POPC   C1A 1770   8.189   3.486   7.278
  122POPC   D2A 1771   7.990   3.500   6.923
  122POPC   C3A 1772   8.211   3.414   6.579
  122POPC   C4A 1773   8.084   3.572   6.200
  122POPC   C1B 1774   7.752   3.186   7.326
  122POPC   C2B 1775   7.503   3.396   6.982
  122POPC   C3B 1776   7.621   3.559   6.545
  122POPC   C4B 1777   7.661   3.328   6.156
  123POPC   NC3 1778   2.506   8.369   8.477
  123POPC   PO4 1779   2.308   7.929   8.001
  123POPC   GL1 1780   2.545   7.793   7.674
  123POPC   GL2 1781   2.858   7.883   7.796
  123POPC   C1A 1782   2.564   7.890   7.246
  123POPC   D2A 1783   2.546   8.150   6.914
  123POPC   C3A 1784   2.588   7.903   6.579
  123POPC   C4A 1785   2.594   8.033   6.182
  123POPC   C1B 1786   3.012   7.787   7.404
  123POPC   C2B 1787   2.991   7.776   6.943
  123POPC   C3B 1788   2.938   7.547   6.534
  123POPC   C4B 1789   2.985   7.693   6.122
  124POPC   NC3 1790   2.422   8.339   7.811
  124POPC   PO4 1791   2.911   8.260   8.298
  124POPC   GL1 1792   2.943   8.378   7.800
  124POPC   GL2 1793   2.943   8.729   7.652
  124POPC   C1A 1794   2.874   8.313   7.318
  124POPC   D2A 1795   2.732   8.637   6.970
  124POPC   C3A 1796   2.689   8.491   6.508
  124POPC   C4A 1797   2.995   8.443   6.167
  124POPC   C1B 1798   2.829   9.047   7.304
  124POPC   C2B 1799   2.638   9.128   6.860
  124POPC   C3B 1800   2.746   9.064   6.442
  124POPC   C4B 1801   2.680   8.834   6.082
  125POPC   NC3 1802   7.756   6.426   8.087
  125POPC   PO4 1803   8.225   6.842   8.207
  125POPC   GL1 1804   8.085   6.695   7.765
  125POPC   GL2 1805   8.011   6.331   7.675
  125POPC   C1A 1806   8.227   6.575   7.306
  125POPC   D2A 1807   8.108   6.347   6.926
  125POPC   C3A 1808   8.028   6.508   6.510
  125POPC   C4A 1809   8.257   6.710   6.182
  125POPC   C1B 1810   7.747   6.419   7.284
  125POPC   C2B 1811   7.602   6.522   6.858
  125POPC   C3B 1812   7.530   6.348   6.439
  125POPC   C4B 1813   7.563   6.426   5.991
  126POPC   NC3 1814   2.567   5.816   7.924
  126POPC   PO4 1815   2.299   5.182   8.052
  126POPC   GL1 1816   2.429   5.266   7.679
  126POPC   GL2 1817   2.737   5.470   7.600
  126POPC   C1A 1818   2.331   5.444   7.300
  126POPC   D2A 1819   2.319   5.676   6.946
  126POPC   C3A 1820   2.577   5.536   6.647
  126POPC   C4A 1821   2.504   5.513   6.250
  126POPC   C1B 1822   2.670   5.847   7.284
  126POPC   C2B 1823   2.696   6.024   6.852
  126POPC   C3B 1824   2.747   5.970   6.412
  126POPC   C4B 1825   2.992   5.669   6.206
  127POPC   NC3 1826   9.385   9.455   8.093
  127POPC   PO4 1827   9.974   9.793   7.990
  127POPC   GL1 1828   9.680   9.607   7.674
  127POPC   GL2 1829   9.292   9.606   7.612
  127POPC   C1A 1830   9.644   9.469   7.241
  127POPC   D2A 1831   9.820   9.325   6.838
  127POPC   C3A 1832   9.833   9.575   6.472
  127POPC   C4A 1833   9.612   9.748   6.123
  127POPC   C1B 1834   9.165   9.315   7.266
  127POPC   C2B 1835   9.295   9.456   6.836
  127POPC   C3B 1836   9.338   9.406   6.394
  127POPC   C4B 1837   9.066   9.232   6.088
  128POPC   NC3 1838   4.670   1.299   7.956
  128POPC   PO4 1839   5.144   0.752   8.051
  128POPC   GL1 1840   5.175   0.857   7.623
  128POPC   GL2 1841   4.897   1.073   7.560
  128POPC   C1A 1842   5.271   0.918   7.182
  128POPC   D2A 1843   5.012   0.876   6.825
  128POPC   C3A 1844   5.118   0.853   6.363
  128POPC   C4A 1845   5.024   1.032   5.921
  128POPC   C1B 1846   5.127   1.406   7.304
  128POPC   C2B 1847   5.229   1.381   6.840
  128POPC   C3B 1848   4.867   1.280   6.547
  128POPC   C4B 1849   4.663   1.357   6.144
  129POPC   NC3 1850   8.853   9.875   8.110
  129POPC   PO4 1851   8.639  10.461   8.195
  129POPC   GL1 1852   8.819  10.285   7.783
  129POPC   GL2 1853   8.563  10.050   7.659
  129POPC   C1A 1854   9.037  10.038   7.425
  129POPC   D2A 1855   9.170   9.965   6.977
  129POPC   C3A 1856   9.016   9.823   6.574
  129POPC   C4A 1857   8.787  10.025   6.267
  129POPC   C1B 1858   8.573  10.095   7.213
  129POPC   C2B 1859   8.700  10.189   6.792
  129POPC   C3B 1860   8.634  10.465   6.444
  129POPC   C4B 1861   8.411  10.260   6.043
  130POPC   NC3 1862   3.383   3.415   8.086
  130POPC   PO4 1863   4.000   3.112   7.982
  130POPC   GL1 1864   3.772   3.338   7.681
  130POPC   GL2 1865   3.382   3.397   7.583
  130POPC   C1A 1866   3.746   3.194   7.274
  130POPC   D2A 1867   3.520   3.023   6.932
  130POPC   C3A 1868   3.479   3.329   6.618
  130POPC   C4A 1869   3.696   3.486   6.271
  130POPC   C1B 1870   3.339   3.477   7.124
  130POPC   C2B 1871   3.188   3.741   6.757
  130POPC   C3B 1872   3.272   3.848   6.332
  130POPC   C4B 1873   3.283   3.555   5.989
  131POPC   NC3 1874   5.213  10.114   8.060
  131POPC   PO4 1875   4.671   9.774   8.058
  131POPC   GL1 1876   4.791  10.113   7.703
  131POPC   GL2 1877   5.109  10.347   7.637
  131POPC   C1A 1878   4.953  10.029   7.244
  131POPC   D2A 1879   5.204   9.872   6.887
  131POPC   C3A 1880   5.094  10.059   6.493
  131POPC   C4A 1881   4.645  10.092   6.354
  131POPC   C1B 1882   5.262  10.418   7.222
  131POPC   C2B 1883   4.982  10.445   6.858
  131POPC   C3B 1884   4.738   0.066   6.486
  131POPC   C4B 1885   4.981  10.384   6.109
  132POPC   NC3 1886   6.417   7.655   8.050
  132POPC   PO4 1887   6.733   8.124   8.312
  132POPC   GL1 1888   6.663   8.024   7.788
  132POPC   GL2 1889   6.684   7.711   7.641
  132POPC   C1A 1890   6.685   8.007   7.248
  132POPC   D2A 1891   6.762   7.714   6.866
  132POPC   C3A 1892   6.717   7.977   6.532
  132POPC   C4A 1893   6.518   8.035   6.141
  132POPC   C1B 1894   6.268   7.767   7.402
  132POPC   C2B 1895   6.271   7.867   6.953
  132POPC   C3B 1896   6.287   7.710   6.515
  132POPC   C4B 1897   6.048   7.866   6.190
  133POPC   NC3 1898   5.426   1.076   8.236
  133POPC   PO4 1899   5.906   1.470   8.038
  133POPC   GL1 1900   5.834   1.416   7.628
  133POPC   GL2 1901   5.566   1.185   7.670
  133POPC   C1A 1902   5.648   1.477   7.225
  133POPC   D2A 1903   5.884   1.583   6.923
  133POPC   C3A 1904   5.704   1.533   6.575
  133POPC   C4A 1905   5.873   1.376   6.209
  133POPC   C1B 1906   5.778   0.996   7.297
  133POPC   C2B 1907   5.698   1.096   6.884
  133POPC   C3B 1908   5.601   1.030   6.458
  133POPC   C4B 1909   5.309   1.304   6.300
  134POPC   NC3 1910   4.682   7.673   7.946
  134POPC   PO4 1911   5.317   7.883   7.973
  134POPC   GL1 1912   5.084   7.962   7.617
  134POPC   GL2 1913   4.770   8.130   7.618
  134POPC   C1A 1914   5.191   7.755   7.242
  134POPC   D2A 1915   4.956   7.611   6.916
  134POPC   C3A 1916   5.153   7.651   6.530
  134POPC   C4A 1917   5.221   7.700   6.104
  134POPC   C1B 1918   4.756   8.044   7.188
  134POPC   C2B 1919   4.621   7.964   6.784
  134POPC   C3B 1920   4.785   7.956   6.386
  134POPC   C4B 1921   4.654   7.962   5.992
  135POPC   NC3 1922   1.132   8.263   8.078
  135POPC   PO4 1923   0.575   8.259   7.888
  135POPC   GL1 1924   0.886   8.096   7.641
  135POPC   GL2 1925   1.240   7.999   7.676
  135POPC   C1A 1926   0.785   7.996   7.251
  135POPC   D2A 1927   0.932   8.215   6.912
  135POPC   C3A 1928   0.812   8.096   6.472
  135POPC   C4A 1929   0.888   8.180   6.049
  135POPC   C1B 1930   1.250   7.819   7.289
  135POPC   C2B 1931   1.333   7.548   6.966
  135POPC   C3B 1932   1.192   7.829   6.681
  135POPC   C4B 1933   1.256   7.887   6.241
  136POPC   NC3 1934   8.637   6.563   8.203
  136POPC   PO4 1935   8.137   6.081   8.195
  136POPC   GL1 1936   8.489   6.134   7.856
  136POPC   GL2 1937   8.518   6.449   7.704
  136POPC   C1A 1938   8.557   6.100   7.369
  136POPC   D2A 1939   8.478   5.966   6.969
  136POPC   C3A 1940   8.422   6.167   6.580
  136POPC   C4A 1941   8.259   6.121   6.183
  136POPC   C1B 1942   8.721   6.599   7.269
  136POPC   C2B 1943   8.508   6.688   6.863
  136POPC   C3B 1944   8.686   6.580   6.475
  136POPC   C4B 1945   8.750   6.266   6.157
  137POPC   NC3 1946   5.615   7.547   7.972
  137POPC   PO4 1947   6.108   8.001   8.022
  137POPC   GL1 1948   5.844   8.000   7.634
  137POPC   GL2 1949   5.541   8.185   7.526
  137POPC   C1A 1950   5.785   7.879   7.179
  137POPC   D2A 1951   5.867   7.568   6.814
  137POPC   C3A 1952   5.651   7.596   6.400
  137POPC   C4A 1953   5.636   7.436   5.952
  137POPC   C1B 1954   5.223   8.259   7.199
  137POPC   C2B 1955   5.117   8.114   6.797
  137POPC   C3B 1956   5.271   8.143   6.370
  137POPC   C4B 1957   5.601   8.012   6.067
  138POPC   NC3 1958   8.395   5.657   8.069
  138POPC   PO4 1959   9.077   5.856   8.034
  138POPC   GL1 1960   8.883   5.839   7.647
  138POPC   GL2 1961   8.626   5.617   7.621
  138POPC   C1A 1962   8.913   5.705   7.204
  138POPC   D2A 1963   9.111   5.859   6.853
  138POPC   C3A 1964   8.836   5.884   6.497
  138POPC   C4A 1965   8.970   5.800   6.090
  138POPC   C1B 1966   8.445   5.510   7.234
  138POPC   C2B 1967   8.608   5.526   6.784
  138POPC   C3B 1968   8.691   5.394   6.374
  138POPC   C4B 1969   8.504   5.655   6.127
  139POPC   NC3 1970   3.866   8.219   7.757
  139POPC   PO4 1971   4.454   8.092   7.994
  139POPC   GL1 1972   4.272   7.910   7.610
  139POPC   GL2 1973   3.917   7.742   7.537
  139POPC   C1A 1974   4.297   7.823   7.164
  139POPC   D2A 1975   4.050   7.702   6.800
  139POPC   C3A 1976   4.307   7.751   6.444
  139POPC   C4A 1977   4.327   7.580   6.065
  139POPC   C1B 1978   3.825   8.014   7.157
  139POPC   C2B 1979   3.656   8.007   6.736
  139POPC   C3B 1980   3.858   8.135   6.368
  139POPC   C4B 1981   3.870   7.754   6.198
  140POPC   NC3 1982   3.185   7.902   8.178
  140POPC   PO4 1983   3.444   8.352   7.790
  140POPC   GL1 1984   3.377   8.126   7.512
  140POPC   GL2 1985   3.414   7.840   7.707
  140POPC   C1A 1986   3.324   8.158   7.094
  140POPC   D2A 1987   3.057   8.292   6.812
  140POPC   C3A 1988   3.081   8.050   6.484
  140POPC   C4A 1989   3.371   8.083   6.169
  140POPC   C1B 1990   3.467   7.691   7.265
  140POPC   C2B 1991   3.448   7.545   6.845
  140POPC   C3B 1992   3.427   7.640   6.403
  140POPC   C4B 1993   3.452   7.608   5.928
  141POPC   NC3 1994   3.532   9.709   8.003
  141POPC   PO4 1995   3.222   9.145   8.153
  141POPC   GL1 1996   3.309   9.300   7.759
  141POPC   GL2 1997   3.622   9.177   7.828
  141POPC   C1A 1998   3.216   9.471   7.321
  141POPC   D2A 1999   3.114   9.265   6.930
  141POPC   C3A 2000   3.237   9.327   6.522
  141POPC   C4A 2001   3.315   9.610   6.192
  141POPC   C1B 2002   3.668   9.229   7.379
  141POPC   C2B 2003   3.630   9.198   6.944
  141POPC   C3B 2004   3.635   8.987   6.566
  141POPC   C4B 2005   3.594   9.161   6.197
  142POPC   NC3 2006   3.444   6.116   8.035
  142POPC   PO4 2007   3.569   6.758   8.096
  142POPC   GL1 2008   3.222   6.626   7.763
  142POPC   GL2 2009   3.294   6.322   7.564
  142POPC   C1A 2010   3.267   6.745   7.276
  142POPC   D2A 2011   3.179   6.750   6.820
  142POPC   C3A 2012   3.477   6.676   6.456
  142POPC   C4A 2013   3.412   6.480   6.022
  142POPC   C1B 2014   3.554   6.351   7.157
  142POPC   C2B 2015   3.681   6.196   6.734
  142POPC   C3B 2016   3.777   6.276   6.302
  142POPC   C4B 2017   3.601   6.000   5.956
  143POPC   NC3 2018   1.916   2.575   8.125
  143POPC   PO4 2019   1.657   3.220   7.957
  143POPC   GL1 2020   1.777   2.848   7.719
  143POPC   GL2 2021   2.126   2.718   7.668
  143POPC   C1A 2022   1.726   2.648   7.337
  143POPC   D2A 2023   1.531   2.688   6.927
  143POPC   C3A 2024   1.772   2.766   6.554
  143POPC   C4A 2025   1.656   2.622   6.161
  143POPC   C1B 2026   2.245   2.561   7.258
  143POPC   C2B 2027   2.312   2.586   6.790
  143POPC   C3B 2028   2.294   2.664   6.356
  143POPC   C4B 2029   2.122   3.000   6.119
  144POPC   NC3 2030   2.477   3.056   8.194
  144POPC   PO4 2031   2.364   3.733   8.306
  144POPC   GL1 2032   2.501   3.566   7.873
  144POPC   GL2 2033   2.825   3.358   7.807
  144POPC   C1A 2034   2.413   3.568   7.419
  144POPC   D2A 2035   2.444   3.371   7.000
  144POPC   C3A 2036   2.583   3.598   6.648
  144POPC   C4A 2037   2.509   3.786   6.260
  144POPC   C1B 2038   2.886   3.402   7.323
  144POPC   C2B 2039   2.952   3.295   6.860
  144POPC   C3B 2040   2.990   3.398   6.390
  144POPC   C4B 2041   2.908   3.203   5.935
  145POPC   NC3 2042   0.800   2.652   8.160
  145POPC   PO4 2043   0.147   2.476   8.152
  145POPC   GL1 2044   0.345   2.829   7.872
  145POPC   GL2 2045   0.459   2.540   7.738
  145POPC   C1A 2046   0.462   3.117   7.474
  145POPC   D2A 2047   0.689   3.021   7.061
  145POPC   C3A 2048   0.562   3.057   6.622
  145POPC   C4A 2049   0.352   2.997   6.201
  145POPC   C1B 2050   0.555   2.615   7.316
  145POPC   C2B 2051   0.658   2.529   6.886
  145POPC   C3B 2052   0.491   2.566   6.481
  145POPC   C4B 2053   0.635   2.385   6.125
  146POPC   NC3 2054   7.908   8.690   8.150
  146POPC   PO4 2055   8.489   8.776   7.870
  146POPC   GL1 2056   8.228   8.501   7.746
  146POPC   GL2 2057   7.886   8.592   7.669
  146POPC   C1A 2058   8.200   8.400   7.330
  146POPC   D2A 2059   8.129   8.639   6.945
  146POPC   C3A 2060   8.162   8.517   6.544
  146POPC   C4A 2061   8.173   8.796   6.207
  146POPC   C1B 2062   8.033   8.898   7.380
  146POPC   C2B 2063   7.856   9.065   6.993
  146POPC   C3B 2064   7.793   8.913   6.555
  146POPC   C4B 2065   7.723   8.594   6.206
  147POPC   NC3 2066   1.238   9.760   8.319
  147POPC   PO4 2067   0.909   9.315   8.088
  147POPC   GL1 2068   1.271   9.469   7.846
  147POPC   GL2 2069   1.177   9.208   7.658
  147POPC   C1A 2070   1.476   9.507   7.397
  147POPC   D2A 2071   1.282   9.246   7.038
  147POPC   C3A 2072   1.394   9.345   6.584
  147POPC   C4A 2073   1.420   9.104   6.202
  147POPC   C1B 2074   0.982   9.538   7.360
  147POPC   C2B 2075   0.824   9.569   6.958
  147POPC   C3B 2076   0.849   9.426   6.533
  147POPC   C4B 2077   0.817   9.447   6.098
  148POPC   NC3 2078   9.654   4.398   7.926
  148POPC   PO4 2079   9.508   4.988   8.230
  148POPC   GL1 2080   9.469   4.836   7.771
  148POPC   GL2 2081   9.189   4.719   7.705
  148POPC   C1A 2082   9.756   4.760   7.377
  148POPC   D2A 2083   9.665   4.630   6.967
  148POPC   C3A 2084   9.717   4.939   6.648
  148POPC   C4A 2085   9.792   4.863   6.234
  148POPC   C1B 2086   9.260   4.826   7.284
  148POPC   C2B 2087   9.170   4.827   6.868
  148POPC   C3B 2088   9.239   4.984   6.485
  148POPC   C4B 2089   9.306   4.777   6.116
  149POPC   NC3 2090   0.873   1.340   7.819
  149POPC   PO4 2091   1.491   1.374   8.010
  149POPC   GL1 2092   1.283   1.086   7.609
  149POPC   GL2 2093   0.881   0.969   7.487
  149POPC   C1A 2094   1.265   0.856   7.201
  149POPC   D2A 2095   1.094   1.017   6.796
  149POPC   C3A 2096   1.380   0.984   6.425
  149POPC   C4A 2097   1.443   1.294   6.085
  149POPC   C1B 2098   0.778   1.328   7.175
  149POPC   C2B 2099   0.683   1.522   6.772
  149POPC   C3B 2100   0.939   1.394   6.438
  149POPC   C4B 2101   0.881   0.970   6.311
  150POPC   NC3 2102   7.810   7.114   8.301
  150POPC   PO4 2103   8.153   7.549   7.938
  150POPC   GL1 2104   7.928   7.442   7.614
  150POPC   GL2 2105   7.817   7.139   7.773
  150POPC   C1A 2106   8.011   7.410   7.191
  150POPC   D2A 2107   7.899   7.566   6.819
  150POPC   C3A 2108   8.037   7.498   6.409
  150POPC   C4A 2109   7.812   7.673   6.068
  150POPC   C1B 2110   7.888   6.951   7.364
  150POPC   C2B 2111   8.006   6.851   6.941
  150POPC   C3B 2112   7.965   7.007   6.529
  150POPC   C4B 2113   7.689   6.886   6.211
  151POPC   NC3 2114   5.856   9.960   8.128
  151POPC   PO4 2115   5.475   0.005   8.007
  151POPC   GL1 2116   5.655  10.328   7.643
  151POPC   GL2 2117   5.677   9.967   7.669
  151POPC   C1A 2118   5.756  10.487   7.228
  151POPC   D2A 2119   5.504   0.138   6.842
  151POPC   C3A 2120   5.412   0.048   6.415
  151POPC   C4A 2121   5.798   0.060   6.178
  151POPC   C1B 2122   5.504   9.974   7.294
  151POPC   C2B 2123   5.645  10.127   6.891
  151POPC   C3B 2124   5.636  10.111   6.464
  151POPC   C4B 2125   5.513   9.809   6.200
  152POPC   NC3 2126   6.296   2.534   8.081
  152POPC   PO4 2127   6.947   2.447   8.231
  152POPC   GL1 2128   6.761   2.587   7.793
  152POPC   GL2 2129   6.392   2.637   7.609
  152POPC   C1A 2130   6.758   2.455   7.349
  152POPC   D2A 2131   6.452   2.604   7.041
  152POPC   C3A 2132   6.607   2.633   6.644
  152POPC   C4A 2133   6.796   2.457   6.280
  152POPC   C1B 2134   6.082   2.815   7.319
  152POPC   C2B 2135   6.016   2.847   6.850
  152POPC   C3B 2136   6.191   2.790   6.425
  152POPC   C4B 2137   6.297   2.344   6.326
  153POPC   NC3 2138  10.197   5.975   8.037
  153POPC   PO4 2139   0.061   6.548   8.215
  153POPC   GL1 2140  10.263   6.462   7.806
  153POPC   GL2 2141   9.900   6.296   7.758
  153POPC   C1A 2142  10.261   6.219   7.392
  153POPC   D2A 2143   0.047   6.165   7.035
  153POPC   C3A 2144  10.377   6.212   6.627
  153POPC   C4A 2145  10.470   6.385   6.230
  153POPC   C1B 2146   9.851   6.513   7.335
  153POPC   C2B 2147  10.119   6.535   6.955
  153POPC   C3B 2148  10.109   6.656   6.506
  153POPC   C4B 2149   9.997   6.617   6.029
  154POPC   NC3 2150   8.177   5.000   8.011
  154POPC   PO4 2151   7.726   4.472   7.963
  154POPC   GL1 2152   7.862   4.644   7.591
  154POPC   GL2 2153   8.192   4.664   7.612
  154POPC   C1A 2154   7.771   4.703   7.153
  154POPC   D2A 2155   7.860   4.837   6.749
  154POPC   C3A 2156   7.539   4.871   6.450
  154POPC   C4A 2157   7.468   5.023   6.022
  154POPC   C1B 2158   8.132   5.041   7.322
  154POPC   C2B 2159   8.181   5.230   6.907
  154POPC   C3B 2160   8.282   5.128   6.524
  154POPC   C4B 2161   8.042   4.899   6.284
  155POPC   NC3 2162   6.317   8.388   8.190
  155POPC   PO4 2163   6.749   8.838   7.960
  155POPC   GL1 2164   6.449   8.804   7.629
  155POPC   GL2 2165   6.479   8.471   7.659
  155POPC   C1A 2166   6.461   8.734   7.154
  155POPC   D2A 2167   6.341   8.924   6.750
  155POPC   C3A 2168   6.482   8.878   6.306
  155POPC   C4A 2169   6.412   8.952   5.837
  155POPC   C1B 2170   6.220   8.273   7.356
  155POPC   C2B 2171   6.126   8.393   6.923
  155POPC   C3B 2172   6.388   8.415   6.536
  155POPC   C4B 2173   6.780   8.459   6.297
  156POPC   NC3 2174   9.351   0.880   8.326
  156POPC   PO4 2175   9.098   1.447   8.056
  156POPC   GL1 2176   9.313   1.218   7.726
  156POPC   GL2 2177   9.648   1.187   7.780
  156POPC   C1A 2178   9.320   0.998   7.338
  156POPC   D2A 2179   9.174   0.862   6.953
  156POPC   C3A 2180   9.102   1.255   6.732
  156POPC   C4A 2181   8.962   1.326   6.298
  156POPC   C1B 2182   9.739   1.292   7.317
  156POPC   C2B 2183   9.587   1.173   6.888
  156POPC   C3B 2184   9.495   1.135   6.408
  156POPC   C4B 2185   9.695   1.045   5.990
  157POPC   NC3 2186   1.814   4.517   8.107
  157POPC   PO4 2187   2.181   4.031   7.856
  157POPC   GL1 2188   1.850   4.053   7.632
  157POPC   GL2 2189   1.863   4.423   7.625
  157POPC   C1A 2190   1.878   3.866   7.252
  157POPC   D2A 2191   2.140   3.780   6.911
  157POPC   C3A 2192   1.903   3.845   6.557
  157POPC   C4A 2193   2.024   3.914   6.175
  157POPC   C1B 2194   2.028   4.365   7.231
  157POPC   C2B 2195   1.841   4.243   6.864
  157POPC   C3B 2196   1.885   4.355   6.432
  157POPC   C4B 2197   1.983   4.368   5.961
  158POPC   NC3 2198   3.988   1.776   7.968
  158POPC   PO4 2199   4.562   1.675   7.715
  158POPC   GL1 2200   4.430   2.029   7.485
  158POPC   GL2 2201   4.076   2.042   7.544
  158POPC   C1A 2202   4.263   2.032   7.064
  158POPC   D2A 2203   4.169   2.329   6.766
  158POPC   C3A 2204   4.375   2.263   6.419
  158POPC   C4A 2205   4.546   1.860   6.312
  158POPC   C1B 2206   3.988   1.646   7.315
  158POPC   C2B 2207   4.073   1.364   6.964
  158POPC   C3B 2208   4.208   1.577   6.592
  158POPC   C4B 2209   4.004   1.901   6.373
  159POPC   NC3 2210   2.907   2.553   8.262
  159POPC   PO4 2211   2.381   2.537   8.055
  159POPC   GL1 2212   2.660   2.761   7.835
  159POPC   GL2 2213   2.830   2.498   7.771
  159POPC   C1A 2214   2.678   2.985   7.486
  159POPC   D2A 2215   2.566   2.897   7.081
  159POPC   C3A 2216   2.667   2.929   6.667
  159POPC   C4A 2217   2.570   3.132   6.318
  159POPC   C1B 2218   2.776   2.508   7.361
  159POPC   C2B 2219   2.791   2.346   6.975
  159POPC   C3B 2220   2.931   2.466   6.606
  159POPC   C4B 2221   2.810   2.680   6.245
  160POPC   NC3 2222   7.404   3.581   7.999
  160POPC   PO4 2223   6.841   3.435   8.342
  160POPC   GL1 2224   6.995   3.316   7.797
  160POPC   GL2 2225   7.343   3.342   7.586
  160POPC   C1A 2226   6.968   3.507   7.278
  160POPC   D2A 2227   7.065   3.624   6.794
  160POPC   C3A 2228   6.756   3.666   6.406
  160POPC   C4A 2229   6.859   3.708   5.941
  160POPC   C1B 2230   7.156   3.037   7.358
  160POPC   C2B 2231   7.076   3.115   6.931
  160POPC   C3B 2232   7.294   3.175   6.550
  160POPC   C4B 2233   7.189   3.477   6.265
  161POPC   NC3 2234   6.591   3.611   8.012
  161POPC   PO4 2235   6.488   2.956   8.058
  161POPC   GL1 2236   6.553   3.114   7.650
  161POPC   GL2 2237   6.523   3.452   7.530
  161POPC   C1A 2238   6.653   3.044   7.219
  161POPC   D2A 2239   6.621   3.348   6.871
  161POPC   C3A 2240   6.497   3.207   6.461
  161POPC   C4A 2241   6.463   3.402   6.064
  161POPC   C1B 2242   6.213   3.310   7.194
  161POPC   C2B 2243   6.084   3.346   6.742
  161POPC   C3B 2244   6.027   3.555   6.338
  161POPC   C4B 2245   5.887   3.969   6.104
  162POPC   NC3 2246   3.560   2.113   8.209
  162POPC   PO4 2247   2.901   2.042   8.144
  162POPC   GL1 2248   3.213   1.855   7.794
  162POPC   GL2 2249   3.561   1.977   7.693
  162POPC   C1A 2250   3.172   1.960   7.322
  162POPC   D2A 2251   3.204   2.054   6.847
  162POPC   C3A 2252   3.157   1.669   6.618
  162POPC   C4A 2253   3.016   1.589   6.203
  162POPC   C1B 2254   3.676   2.132   7.250
  162POPC   C2B 2255   3.720   2.073   6.788
  162POPC   C3B 2256   3.502   1.979   6.396
  162POPC   C4B 2257   3.682   2.252   6.101
  163POPC   NC3 2258   3.956   7.028   8.117
  163POPC   PO4 2259   3.443   7.515   8.138
  163POPC   GL1 2260   3.546   7.357   7.700
  163POPC   GL2 2261   3.500   7.026   7.636
  163POPC   C1A 2262   3.697   7.265   7.246
  163POPC   D2A 2263   3.608   7.043   6.886
  163POPC   C3A 2264   3.802   7.297   6.560
  163POPC   C4A 2265   3.742   7.268   6.154
  163POPC   C1B 2266   3.195   7.247   7.330
  163POPC   C2B 2267   3.049   7.225   6.911
  163POPC   C3B 2268   3.280   7.162   6.493
  163POPC   C4B 2269   3.328   7.008   6.059
  164POPC   NC3 2270   1.861   5.120   8.189
  164POPC   PO4 2271   1.397   4.700   8.003
  164POPC   GL1 2272   1.616   4.934   7.718
  164POPC   GL2 2273   1.977   4.925   7.725
  164POPC   C1A 2274   1.718   4.784   7.295
  164POPC   D2A 2275   1.968   4.770   6.897
  164POPC   C3A 2276   1.776   4.946   6.541
  164POPC   C4A 2277   1.628   4.733   6.189
  164POPC   C1B 2278   2.205   4.951   7.319
  164POPC   C2B 2279   2.372   5.114   6.908
  164POPC   C3B 2280   2.258   5.124   6.479
  164POPC   C4B 2281   2.149   4.750   6.249
  165POPC   NC3 2282   6.951   8.401   7.984
  165POPC   PO4 2283   7.488   8.823   7.974
  165POPC   GL1 2284   7.197   8.746   7.674
  165POPC   GL2 2285   7.412   8.614   7.480
  165POPC   C1A 2286   6.951   8.802   7.312
  165POPC   D2A 2287   6.892   8.532   6.948
  165POPC   C3A 2288   6.851   8.815   6.654
  165POPC   C4A 2289   6.983   8.951   6.280
  165POPC   C1B 2290   7.712   8.501   7.184
  165POPC   C2B 2291   7.646   8.459   6.748
  165POPC   C3B 2292   7.327   8.649   6.510
  165POPC   C4B 2293   7.234   8.536   6.078
  166POPC   NC3 2294   3.092   0.571   8.247
  166POPC   PO4 2295   3.709   0.772   8.403
  166POPC   GL1 2296   3.531   0.582   7.961
  166POPC   GL2 2297   3.397   0.277   7.825
  166POPC   C1A 2298   3.604   0.583   7.465
  166POPC   D2A 2299   3.362   0.699   7.054
  166POPC   C3A 2300   3.401   0.551   6.619
  166POPC   C4A 2301   3.237   0.626   6.226
  166POPC   C1B 2302   3.177   0.302   7.425
  166POPC   C2B 2303   3.160   0.224   6.964
  166POPC   C3B 2304   3.223   0.025   6.532
  166POPC   C4B 2305   3.430   0.126   6.124
  167POPC   NC3 2306   3.800   8.945   8.267
  167POPC   PO4 2307   4.145   9.042   7.780
  167POPC   GL1 2308   4.366   8.775   7.579
  167POPC   GL2 2309   4.297   8.474   7.703
  167POPC   C1A 2310   4.323   8.783   7.151
  167POPC   D2A 2311   4.071   8.924   6.839
  167POPC   C3A 2312   4.000   8.639   6.500
  167POPC   C4A 2313   3.996   8.883   6.115
  167POPC   C1B 2314   4.271   8.309   7.271
  167POPC   C2B 2315   4.164   8.217   6.829
  167POPC   C3B 2316   4.368   8.261   6.450
  167POPC   C4B 2317   4.351   8.502   6.132
  168POPC   NC3 2318   9.988   2.332   8.115
  168POPC   PO4 2319  10.062   1.705   7.996
  168POPC   GL1 2320  10.424   1.804   7.753
  168POPC   GL2 2321  10.225   2.081   7.616
  168POPC   C1A 2322   0.018   1.797   7.321
  168POPC   D2A 2323  10.387   2.028   6.989
  168POPC   C3A 2324  10.404   1.824   6.644
  168POPC   C4A 2325  10.332   1.719   6.256
  168POPC   C1B 2326   9.994   1.846   7.272
  168POPC   C2B 2327   9.882   2.058   6.871
  168POPC   C3B 2328  10.021   2.093   6.466
  168POPC   C4B 2329  10.210   2.331   6.142
  169POPC   NC3 2330   1.369   7.296   8.173
  169POPC   PO4 2331   0.869   7.737   8.111
  169POPC   GL1 2332   0.951   7.565   7.654
  169POPC   GL2 2333   1.317   7.476   7.686
  169POPC   C1A 2334   0.867   7.488   7.173
  169POPC   D2A 2335   0.860   7.385   6.727
  169POPC   C3A 2336   1.205   7.380   6.466
  169POPC   C4A 2337   1.145   7.417   6.038
  169POPC   C1B 2338   1.221   7.191   7.374
  169POPC   C2B 2339   1.194   7.062   6.953
  169POPC   C3B 2340   1.022   6.895   6.590
  169POPC   C4B 2341   1.190   6.952   6.193
  170POPC   NC3 2342  10.327   2.988   8.052
  170POPC   PO4 2343   9.804   2.661   7.853
  170POPC   GL1 2344  10.123   2.586   7.617
  170POPC   GL2 2345  10.438   2.552   7.701
  170POPC   C1A 2346  10.211   2.452   7.223
  170POPC   D2A 2347   9.928   2.594   6.932
  170POPC   C3A 2348  10.062   2.611   6.540
  170POPC   C4A 2349   9.860   2.734   6.169
  170POPC   C1B 2350   0.053   2.813   7.351
  170POPC   C2B 2351  10.371   2.867   6.928
  170POPC   C3B 2352   0.038   2.815   6.554
  170POPC   C4B 2353  10.347   2.887   6.175
  171POPC   NC3 2354  10.126   9.373   8.018
  171POPC   PO4 2355  10.449   8.835   7.974
  171POPC   GL1 2356  10.357   9.174   7.624
  171POPC   GL2 2357  10.412   9.592   7.676
  171POPC   C1A 2358  10.108   9.278   7.269
  171POPC   D2A 2359  10.324   9.236   6.877
  171POPC   C3A 2360  10.160   9.191   6.459
  171POPC   C4A 2361   0.030   9.038   6.233
  171POPC   C1B 2362  10.440   9.654   7.259
  171POPC   C2B 2363  10.172   9.719   6.936
  171POPC   C3B 2364  10.360   9.649   6.551
  171POPC   C4B 2365  10.339   9.524   6.128
  172POPC   NC3 2366  10.399   6.955   8.030
  172POPC   PO4 2367   9.758   7.357   8.113
  172POPC   GL1 2368   9.997   7.147   7.767
  172POPC   GL2 2369  10.245   7.367   7.683
  172POPC   C1A 2370  10.168   6.952   7.350
  172POPC   D2A 2371  10.015   7.051   6.914
  172POPC   C3A 2372  10.308   7.139   6.578
  172POPC   C4A 2373  10.339   6.985   6.194
  172POPC   C1B 2374  10.002   7.452   7.342
  172POPC   C2B 2375   9.878   7.555   6.940
  172POPC   C3B 2376   9.910   7.444   6.528
  172POPC   C4B 2377  10.067   7.413   6.128
  173POPC   NC3 2378   8.694   2.579   8.149
  173POPC   PO4 2379   8.183   3.049   8.069
  173POPC   GL1 2380   8.539   2.891   7.753
  173POPC   GL2 2381   8.483   2.586   7.546
  173POPC   C1A 2382   8.758   2.932   7.316
  173POPC   D2A 2383   8.522   2.727   6.950
  173POPC   C3A 2384   8.471   2.937   6.541
  173POPC   C4A 2385   8.796   2.907   6.202
  173POPC   C1B 2386   8.817   2.383   7.230
  173POPC   C2B 2387   8.948   2.415   6.796
  173POPC   C3B 2388   8.675   2.480   6.464
  173POPC   C4B 2389   8.341   2.444   6.174
  174POPC   NC3 2390   6.372   0.674   3.986
  174POPC   PO4 2391   6.816   0.181   3.926
  174POPC   GL1 2392   6.611   0.357   4.279
  174POPC   GL2 2393   6.269   0.232   4.240
  174POPC   C1A 2394   6.732   0.560   4.662
  174POPC   D2A 2395   6.719   0.291   5.024
  174POPC   C3A 2396   6.589   0.465   5.389
  174POPC   C4A 2397   6.619   0.205   5.752
  174POPC   C1B 2398   6.243   0.413   4.654
  174POPC   C2B 2399   6.165   0.263   5.072
  174POPC   C3B 2400   6.131   0.309   5.512
  174POPC   C4B 2401   6.321   0.645   5.824
  175POPC   NC3 2402   5.625   2.171   3.936
  175POPC   PO4 2403   6.083   1.591   3.857
  175POPC   GL1 2404   6.106   1.714   4.293
  175POPC   GL2 2405   5.742   1.812   4.298
  175POPC   C1A 2406   5.964   1.718   4.747
  175POPC   D2A 2407   5.652   1.779   5.074
  175POPC   C3A 2408   5.816   1.950   5.460
  175POPC   C4A 2409   5.871   1.688   5.805
  175POPC   C1B 2410   5.625   2.093   4.653
  175POPC   C2B 2411   5.309   2.146   4.977
  175POPC   C3B 2412   5.344   2.247   5.385
  175POPC   C4B 2413   5.302   2.349   5.792
  176POPC   NC3 2414   0.012   9.546   4.027
  176POPC   PO4 2415   0.568   9.835   3.727
  176POPC   GL1 2416   0.605   9.610   4.126
  176POPC   GL2 2417   0.441   9.278   4.127
  176POPC   C1A 2418   0.750   9.592   4.551
  176POPC   D2A 2419   0.898   9.588   4.973
  176POPC   C3A 2420   0.642   9.374   5.218
  176POPC   C4A 2421   0.630   9.373   5.634
  176POPC   C1B 2422   0.258   9.222   4.562
  176POPC   C2B 2423   0.169   9.361   4.978
  176POPC   C3B 2424   0.189   9.218   5.383
  176POPC   C4B 2425   0.141   9.338   5.789
  177POPC   NC3 2426   3.512   0.994   3.748
  177POPC   PO4 2427   3.380   0.354   3.973
  177POPC   GL1 2428   3.450   0.422   4.359
  177POPC   GL2 2429   3.634   0.146   4.391
  177POPC   C1A 2430   3.476   0.503   4.782
  177POPC   D2A 2431   3.703   0.581   5.123
  177POPC   C3A 2432   3.612   0.803   5.469
  177POPC   C4A 2433   3.559   0.557   5.845
  177POPC   C1B 2434   3.283   0.041   4.657
  177POPC   C2B 2435   3.153   0.204   5.046
  177POPC   C3B 2436   3.262   0.429   5.396
  177POPC   C4B 2437   3.100   0.361   5.793
  178POPC   NC3 2438   2.979   4.363   4.016
  178POPC   PO4 2439   2.393   4.482   3.747
  178POPC   GL1 2440   2.453   4.388   4.193
  178POPC   GL2 2441   2.600   4.073   4.219
  178POPC   C1A 2442   2.624   4.381   4.626
  178POPC   D2A 2443   2.514   4.200   5.037
  178POPC   C3A 2444   2.612   4.406   5.439
  178POPC   C4A 2445   2.973   4.489   5.719
  178POPC   C1B 2446   2.948   3.994   4.587
  178POPC   C2B 2447   3.001   3.982   5.041
  178POPC   C3B 2448   3.227   4.112   5.421
  178POPC   C4B 2449   3.261   4.045   5.850
  179POPC   NC3 2450   9.505   8.153   3.615
  179POPC   PO4 2451   8.927   8.057   3.927
  179POPC   GL1 2452   9.105   8.137   4.319
  179POPC   GL2 2453   9.406   7.949   4.369
  179POPC   C1A 2454   9.094   7.950   4.740
  179POPC   D2A 2455   9.441   7.978   5.035
  179POPC   C3A 2456   9.224   7.879   5.396
  179POPC   C4A 2457   9.477   7.926   5.710
  179POPC   C1B 2458   9.612   7.637   4.620
  179POPC   C2B 2459   9.863   7.611   4.968
  179POPC   C3B 2460   9.833   7.702   5.373
  179POPC   C4B 2461   9.800   7.509   5.716
  180POPC   NC3 2462   9.407   6.526   3.884
  180POPC   PO4 2463   9.913   6.990   3.941
  180POPC   GL1 2464   9.774   6.746   4.347
  180POPC   GL2 2465   9.410   6.625   4.382
  180POPC   C1A 2466   9.698   6.626   4.779
  180POPC   D2A 2467   9.674   6.356   5.150
  180POPC   C3A 2468   9.688   6.587   5.568
  180POPC   C4A 2469   9.480   6.625   6.000
  180POPC   C1B 2470   9.337   6.282   4.756
  180POPC   C2B 2471   9.159   6.234   5.155
  180POPC   C3B 2472   9.209   6.390   5.539
  180POPC   C4B 2473   9.209   6.202   5.925
  181POPC   NC3 2474   3.205   7.236   4.054
  181POPC   PO4 2475   3.814   7.412   3.962
  181POPC   GL1 2476   3.613   7.394   4.413
  181POPC   GL2 2477   3.226   7.443   4.514
  181POPC   C1A 2478   3.585   7.424   4.890
  181POPC   D2A 2479   3.385   7.273   5.279
  181POPC   C3A 2480   3.607   7.160   5.653
  181POPC   C4A 2481   3.766   6.804   5.910
  181POPC   C1B 2482   3.113   7.028   4.749
  181POPC   C2B 2483   3.142   6.821   5.172
  181POPC   C3B 2484   3.044   7.012   5.579
  181POPC   C4B 2485   3.059   7.449   5.673
  182POPC   NC3 2486   9.656   9.993   3.899
  182POPC   PO4 2487   9.061   9.776   4.120
  182POPC   GL1 2488   9.112  10.008   4.441
  182POPC   GL2 2489   9.315  10.230   4.247
  182POPC   C1A 2490   9.195   9.956   4.887
  182POPC   D2A 2491   9.478   9.913   5.229
  182POPC   C3A 2492   9.440   9.957   5.688
  182POPC   C4A 2493   9.269  10.110   6.118
  182POPC   C1B 2494   9.551  10.329   4.585
  182POPC   C2B 2495   9.511  10.400   4.998
  182POPC   C3B 2496   9.647  10.373   5.401
  182POPC   C4B 2497   9.440  10.451   5.792
  183POPC   NC3 2498   9.591   2.645   3.657
  183POPC   PO4 2499   9.684   2.519   4.223
  183POPC   GL1 2500   9.336   2.586   4.381
  183POPC   GL2 2501   9.178   2.814   4.124
  183POPC   C1A 2502   9.463   2.696   4.782
  183POPC   D2A 2503   9.590   2.495   5.086
  183POPC   C3A 2504   9.421   2.718   5.398
  183POPC   C4A 2505   9.575   2.594   5.771
  183POPC   C1B 2506   9.127   3.001   4.548
  183POPC   C2B 2507   9.166   3.036   4.990
  183POPC   C3B 2508   9.005   3.051   5.371
  183POPC   C4B 2509   9.108   2.862   5.776
  184POPC   NC3 2510   8.833   7.627   4.084
  184POPC   PO4 2511   8.363   8.112   4.149
  184POPC   GL1 2512   8.628   8.029   4.417
  184POPC   GL2 2513   8.598   7.735   4.506
  184POPC   C1A 2514   8.640   8.147   4.827
  184POPC   D2A 2515   8.568   7.936   5.212
  184POPC   C3A 2516   8.558   8.133   5.589
  184POPC   C4A 2517   8.951   8.163   5.766
  184POPC   C1B 2518   8.722   7.586   4.864
  184POPC   C2B 2519   8.468   7.434   5.162
  184POPC   C3B 2520   8.463   7.445   5.577
  184POPC   C4B 2521   8.797   7.691   5.725
  185POPC   NC3 2522   4.663   0.573   3.810
  185POPC   PO4 2523   5.300   0.189   3.924
  185POPC   GL1 2524   5.102   0.363   4.297
  185POPC   GL2 2525   4.764   0.376   4.257
  185POPC   C1A 2526   5.267   0.639   4.661
  185POPC   D2A 2527   5.142   0.809   5.046
  185POPC   C3A 2528   5.069   0.476   5.311
  185POPC   C4A 2529   5.000   0.503   5.735
  185POPC   C1B 2530   4.765   0.426   4.685
  185POPC   C2B 2531   4.617   0.339   5.084
  185POPC   C3B 2532   4.676   0.159   5.498
  185POPC   C4B 2533   4.626   0.181   5.949
  186POPC   NC3 2534   5.710  10.460   3.907
  186POPC   PO4 2535   5.368  10.058   3.593
  186POPC   GL1 2536   5.415  10.222   4.193
  186POPC   GL2 2537   5.753  10.195   4.357
  186POPC   C1A 2538   5.354  10.135   4.669
  186POPC   D2A 2539   5.415  10.132   5.128
  186POPC   C3A 2540   5.295  10.323   5.534
  186POPC   C4A 2541   5.428  10.237   5.978
  186POPC   C1B 2542   5.810  10.328   4.809
  186POPC   C2B 2543   5.847  10.407   5.256
  186POPC   C3B 2544   5.781  10.392   5.668
  186POPC   C4B 2545   5.912  10.111   6.029
  187POPC   NC3 2546  10.379   7.955   4.030
  187POPC   PO4 2547   9.890   8.302   3.806
  187POPC   GL1 2548   9.881   8.114   4.208
  187POPC   GL2 2549   9.950   7.743   4.246
  187POPC   C1A 2550   9.810   8.107   4.649
  187POPC   D2A 2551  10.035   8.092   4.990
  187POPC   C3A 2552   9.854   8.190   5.311
  187POPC   C4A 2553   9.863   8.238   5.727
  187POPC   C1B 2554  10.240   7.747   4.628
  187POPC   C2B 2555  10.475   7.823   5.010
  187POPC   C3B 2556  10.309   7.925   5.399
  187POPC   C4B 2557  10.198   7.814   5.797
  188POPC   NC3 2558   2.861   1.614   3.980
  188POPC   PO4 2559   2.748   0.966   3.829
  188POPC   GL1 2560   2.597   1.219   4.145
  188POPC   GL2 2561   2.955   1.199   4.285
  188POPC   C1A 2562   2.533   1.225   4.567
  188POPC   D2A 2563   2.736   1.004   4.892
  188POPC   C3A 2564   2.412   0.860   5.191
  188POPC   C4A 2565   2.377   0.975   5.612
  188POPC   C1B 2566   3.064   1.439   4.649
  188POPC   C2B 2567   2.942   1.455   5.076
  188POPC   C3B 2568   2.731   1.224   5.363
  188POPC   C4B 2569   2.805   1.255   5.799
  189POPC   NC3 2570   5.632   8.842   3.861
  189POPC   PO4 2571   6.146   8.330   3.848
  189POPC   GL1 2572   5.831   8.406   4.204
  189POPC   GL2 2573   5.761   8.734   4.330
  189POPC   C1A 2574   5.852   8.380   4.670
  189POPC   D2A 2575   6.035   8.498   5.059
  189POPC   C3A 2576   5.872   8.209   5.331
  189POPC   C4A 2577   5.596   8.272   5.642
  189POPC   C1B 2578   5.613   8.993   4.669
  189POPC   C2B 2579   5.759   9.006   5.071
  189POPC   C3B 2580   5.595   8.862   5.450
  189POPC   C4B 2581   5.606   8.997   5.862
  190POPC   NC3 2582   7.363   1.219   3.896
  190POPC   PO4 2583   6.775   0.871   3.909
  190POPC   GL1 2584   7.050   0.952   4.241
  190POPC   GL2 2585   7.080   1.290   4.305
  190POPC   C1A 2586   7.027   0.981   4.706
  190POPC   D2A 2587   7.068   1.139   5.124
  190POPC   C3A 2588   6.899   0.866   5.457
  190POPC   C4A 2589   7.116   0.832   5.900
  190POPC   C1B 2590   7.276   1.431   4.694
  190POPC   C2B 2591   7.107   1.654   4.986
  190POPC   C3B 2592   7.066   1.634   5.380
  190POPC   C4B 2593   7.108   1.277   5.634
  191POPC   NC3 2594   5.855   7.962   3.942
  191POPC   PO4 2595   5.222   8.088   3.952
  191POPC   GL1 2596   5.460   8.080   4.334
  191POPC   GL2 2597   5.793   7.910   4.435
  191POPC   C1A 2598   5.388   8.046   4.755
  191POPC   D2A 2599   5.117   8.219   5.026
  191POPC   C3A 2600   5.138   7.996   5.374
  191POPC   C4A 2601   5.414   7.771   5.634
  191POPC   C1B 2602   5.856   7.906   4.887
  191POPC   C2B 2603   5.761   7.682   5.263
  191POPC   C3B 2604   5.922   7.760   5.662
  191POPC   C4B 2605   6.155   8.119   5.753
  192POPC   NC3 2606   7.890   4.182   3.627
  192POPC   PO4 2607   7.882   4.805   4.014
  192POPC   GL1 2608   7.873   4.484   4.465
  192POPC   GL2 2609   8.068   4.068   4.559
  192POPC   C1A 2610   7.903   4.367   4.906
  192POPC   D2A 2611   8.135   4.039   5.067
  192POPC   C3A 2612   8.044   4.155   5.441
  192POPC   C4A 2613   7.896   4.290   5.847
  192POPC   C1B 2614   7.725   3.883   4.799
  192POPC   C2B 2615   7.650   3.914   5.225
  192POPC   C3B 2616   7.549   3.964   5.667
  192POPC   C4B 2617   7.674   3.860   6.106
  193POPC   NC3 2618   0.330   0.461   3.645
  193POPC   PO4 2619  10.089   0.427   3.813
  193POPC   GL1 2620   9.983   0.248   4.233
  193POPC   GL2 2621  10.159   0.522   4.334
  193POPC   C1A 2622  10.159  10.493   4.612
  193POPC   D2A 2623  10.281   0.024   5.022
  193POPC   C3A 2624  10.223   0.287   5.357
  193POPC   C4A 2625  10.159   0.173   5.758
  193POPC   C1B 2626   9.916   0.402   4.710
  193POPC   C2B 2627   9.754   0.331   5.127
  193POPC   C3B 2628   9.725   0.333   5.584
  193POPC   C4B 2629   9.887   0.586   5.906
  194POPC   NC3 2630   7.225   8.558   4.001
  194POPC   PO4 2631   6.830   8.991   3.682
  194POPC   GL1 2632   6.876   8.867   4.246
  194POPC   GL2 2633   7.166   8.651   4.473
  194POPC   C1A 2634   6.831   8.845   4.742
  194POPC   D2A 2635   7.185   8.765   5.046
  194POPC   C3A 2636   7.088   8.564   5.477
  194POPC   C4A 2637   6.835   8.704   5.829
  194POPC   C1B 2638   7.496   8.427   4.667
  194POPC   C2B 2639   7.733   8.473   5.040
  194POPC   C3B 2640   7.604   8.473   5.457
  194POPC   C4B 2641   7.478   8.812   5.723
  195POPC   NC3 2642   3.813   9.572   3.878
  195POPC   PO4 2643   4.468   9.716   3.862
  195POPC   GL1 2644   4.407   9.372   4.230
  195POPC   GL2 2645   4.167   9.122   4.227
  195POPC   C1A 2646   4.447   9.108   4.653
  195POPC   D2A 2647   4.219   9.188   5.070
  195POPC   C3A 2648   4.479   9.172   5.462
  195POPC   C4A 2649   4.397   9.257   5.918
  195POPC   C1B 2650   4.046   9.422   4.616
  195POPC   C2B 2651   4.060   9.667   5.060
  195POPC   C3B 2652   4.134   9.555   5.500
  195POPC   C4B 2653   3.972   9.160   5.639
  196POPC   NC3 2654   8.794   0.362   3.884
  196POPC   PO4 2655   9.234   0.907   4.013
  196POPC   GL1 2656   9.093   0.640   4.317
  196POPC   GL2 2657   8.979   0.305   4.335
  196POPC   C1A 2658   9.122   0.787   4.706
  196POPC   D2A 2659   8.913   0.868   5.050
  196POPC   C3A 2660   8.995   0.688   5.404
  196POPC   C4A 2661   8.657   0.599   5.608
  196POPC   C1B 2662   8.741   0.437   4.680
  196POPC   C2B 2663   8.686   0.376   5.115
  196POPC   C3B 2664   8.790   0.134   5.467
  196POPC   C4B 2665   8.622   0.166   5.874
  197POPC   NC3 2666  10.076   2.746   4.093
  197POPC   PO4 2667   9.811   2.242   3.733
  197POPC   GL1 2668  10.080   2.256   4.195
  197POPC   GL2 2669  10.320   2.477   4.451
  197POPC   C1A 2670   9.965   2.272   4.714
  197POPC   D2A 2671  10.090   2.641   4.969
  197POPC   C3A 2672   9.943   2.676   5.397
  197POPC   C4A 2673  10.073   2.893   5.742
  197POPC   C1B 2674  10.488   2.904   4.579
  197POPC   C2B 2675  10.452   3.086   4.975
  197POPC   C3B 2676  10.462   2.828   5.340
  197POPC   C4B 2677   0.088   2.919   5.738
  198POPC   NC3 2678   8.387   3.507   3.715
  198POPC   PO4 2679   8.949   3.233   3.850
  198POPC   GL1 2680   8.895   3.319   4.246
  198POPC   GL2 2681   8.698   3.596   4.233
  198POPC   C1A 2682   8.728   3.286   4.687
  198POPC   D2A 2683   8.442   3.180   5.030
  198POPC   C3A 2684   8.526   3.340   5.444
  198POPC   C4A 2685   8.817   3.280   5.784
  198POPC   C1B 2686   8.497   3.758   4.630
  198POPC   C2B 2687   8.539   3.716   5.054
  198POPC   C3B 2688   8.489   3.877   5.433
  198POPC   C4B 2689   8.546   3.706   5.839
  199POPC   NC3 2690   7.980   7.140   3.808
  199POPC   PO4 2691   8.626   7.221   3.922
  199POPC   GL1 2692   8.289   7.359   4.264
  199POPC   GL2 2693   7.951   7.262   4.322
  199POPC   C1A 2694   8.260   7.242   4.737
  199POPC   D2A 2695   7.977   7.079   5.107
  199POPC   C3A 2696   7.972   7.297   5.514
  199POPC   C4A 2697   8.066   7.230   5.984
  199POPC   C1B 2698   7.720   7.294   4.718
  199POPC   C2B 2699   7.542   7.440   5.127
  199POPC   C3B 2700   7.323   7.403   5.514
  199POPC   C4B 2701   7.585   7.268   5.850
  200POPC   NC3 2702   0.392   7.811   3.778
  200POPC   PO4 2703   0.077   8.377   3.985
  200POPC   GL1 2704   0.333   8.078   4.227
  200POPC   GL2 2705   0.251   7.727   4.270
  200POPC   C1A 2706   0.339   8.096   4.685
  200POPC   D2A 2707   0.486   7.988   5.106
  200POPC   C3A 2708   0.249   8.193   5.393
  200POPC   C4A 2709   0.048   8.179   5.787
  200POPC   C1B 2710   0.305   7.597   4.660
  200POPC   C2B 2711   0.351   7.482   5.078
  200POPC   C3B 2712   0.271   7.680   5.486
  200POPC   C4B 2713   0.571   7.978   5.705
  201POPC   NC3 2714   7.341   7.133   3.824
  201POPC   PO4 2715   7.761   6.720   3.959
  201POPC   GL1 2716   7.540   6.978   4.283
  201POPC   GL2 2717   7.432   7.345   4.286
  201POPC   C1A 2718   7.356   6.890   4.676
  201POPC   D2A 2719   7.424   6.735   5.090
  201POPC   C3A 2720   7.540   6.940   5.459
  201POPC   C4A 2721   7.304   6.848   5.863
  201POPC   C1B 2722   7.202   7.362   4.669
  201POPC   C2B 2723   7.121   7.167   5.070
  201POPC   C3B 2724   7.001   7.004   5.476
  201POPC   C4B 2725   6.960   7.240   5.850
  202POPC   NC3 2726   8.875  10.181   3.959
  202POPC   PO4 2727   8.402   9.690   3.917
  202POPC   GL1 2728   8.589   9.965   4.321
  202POPC   GL2 2729   8.664  10.358   4.386
  202POPC   C1A 2730   8.692  10.058   4.782
  202POPC   D2A 2731   8.507  10.392   5.067
  202POPC   C3A 2732   8.454  10.238   5.503
  202POPC   C4A 2733   8.494   9.838   5.761
  202POPC   C1B 2734   9.018  10.447   4.667
  202POPC   C2B 2735   9.012  10.401   5.069
  202POPC   C3B 2736   9.138  10.269   5.427
  202POPC   C4B 2737   8.890  10.228   5.799
  203POPC   NC3 2738   9.538   5.735   3.656
  203POPC   PO4 2739   9.643   6.229   4.181
  203POPC   GL1 2740   9.708   5.913   4.435
  203POPC   GL2 2741   9.564   5.635   4.293
  203POPC   C1A 2742   9.716   5.906   4.836
  203POPC   D2A 2743   9.512   5.842   5.179
  203POPC   C3A 2744   9.586   6.043   5.527
  203POPC   C4A 2745   9.718   6.172   5.897
  203POPC   C1B 2746   9.305   5.595   4.682
  203POPC   C2B 2747   9.416   5.362   5.057
  203POPC   C3B 2748   9.312   5.459   5.468
  203POPC   C4B 2749   9.390   5.692   5.822
  204POPC   NC3 2750   6.422   1.948   3.929
  204POPC   PO4 2751   6.053   2.458   3.887
  204POPC   GL1 2752   6.099   2.223   4.277
  204POPC   GL2 2753   6.446   2.110   4.388
  204POPC   C1A 2754   6.127   2.261   4.738
  204POPC   D2A 2755   6.168   2.035   5.105
  204POPC   C3A 2756   6.226   2.256   5.467
  204POPC   C4A 2757   6.162   2.100   5.872
  204POPC   C1B 2758   6.442   1.845   4.716
  204POPC   C2B 2759   6.619   1.792   5.136
  204POPC   C3B 2760   6.472   1.796   5.569
  204POPC   C4B 2761   6.776   1.606   5.835
  205POPC   NC3 2762   1.886   3.386   3.877
  205POPC   PO4 2763   1.609   2.879   4.045
  205POPC   GL1 2764   1.802   3.175   4.336
  205POPC   GL2 2765   1.740   3.563   4.328
  205POPC   C1A 2766   1.712   3.172   4.758
  205POPC   D2A 2767   1.886   3.011   5.110
  205POPC   C3A 2768   1.825   3.279   5.422
  205POPC   C4A 2769   2.194   3.128   5.610
  205POPC   C1B 2770   2.006   3.601   4.703
  205POPC   C2B 2771   1.943   3.743   5.143
  205POPC   C3B 2772   2.164   3.643   5.537
  205POPC   C4B 2773   1.951   3.472   5.914
  206POPC   NC3 2774   6.289   3.544   3.922
  206POPC   PO4 2775   6.746   3.857   3.944
  206POPC   GL1 2776   6.679   3.666   4.345
  206POPC   GL2 2777   6.392   3.479   4.407
  206POPC   C1A 2778   6.611   3.686   4.816
  206POPC   D2A 2779   6.559   3.453   5.192
  206POPC   C3A 2780   6.468   3.742   5.578
  206POPC   C4A 2781   6.402   3.915   6.025
  206POPC   C1B 2782   6.207   3.338   4.781
  206POPC   C2B 2783   6.137   3.162   5.197
  206POPC   C3B 2784   6.270   3.272   5.603
  206POPC   C4B 2785   6.040   3.564   5.831
  207POPC   NC3 2786   9.769   7.421   3.779
  207POPC   PO4 2787   0.001   7.544   3.840
  207POPC   GL1 2788  10.372   7.392   4.256
  207POPC   GL2 2789  10.300   7.049   4.268
  207POPC   C1A 2790  10.443   7.264   4.710
  207POPC   D2A 2791  10.303   7.137   5.104
  207POPC   C3A 2792  10.273   7.421   5.428
  207POPC   C4A 2793  10.460   7.372   5.819
  207POPC   C1B 2794   9.953   7.246   4.549
  207POPC   C2B 2795   9.752   7.117   4.946
  207POPC   C3B 2796   9.851   7.103   5.380
  207POPC   C4B 2797  10.085   7.049   5.753
  208POPC   NC3 2798   0.129   9.981   3.670
  208POPC   PO4 2799   0.488   0.073   3.889
  208POPC   GL1 2800   0.282  10.374   4.244
  208POPC   GL2 2801   0.293  10.022   4.161
  208POPC   C1A 2802   0.217  10.478   4.705
  208POPC   D2A 2803   0.512  10.482   5.069
  208POPC   C3A 2804   0.497  10.255   5.476
  208POPC   C4A 2805   0.239  10.251   5.831
  208POPC   C1B 2806   0.462  10.032   4.596
  208POPC   C2B 2807   0.436   9.812   4.994
  208POPC   C3B 2808   0.240   9.734   5.410
  208POPC   C4B 2809   0.379   9.771   5.833
  209POPC   NC3 2810   3.864   0.425   4.001
  209POPC   PO4 2811   4.267   0.783   3.681
  209POPC   GL1 2812   4.301   0.648   4.164
  209POPC   GL2 2813   4.245   0.310   4.334
  209POPC   C1A 2814   4.340   0.723   4.618
  209POPC   D2A 2815   4.173   0.715   5.047
  209POPC   C3A 2816   4.366   0.609   5.421
  209POPC   C4A 2817   4.312   0.537   5.817
  209POPC   C1B 2818   3.995   0.331   4.722
  209POPC   C2B 2819   4.106   0.211   5.150
  209POPC   C3B 2820   3.915   0.355   5.537
  209POPC   C4B 2821   3.934   0.246   5.979
  210POPC   NC3 2822   1.916   8.190   3.810
  210POPC   PO4 2823   2.110   7.486   3.754
  210POPC   GL1 2824   2.121   7.621   4.196
  210POPC   GL2 2825   2.025   7.990   4.284
  210POPC   C1A 2826   2.303   7.633   4.614
  210POPC   D2A 2827   2.447   7.754   5.033
  210POPC   C3A 2828   2.240   7.623   5.416
  210POPC   C4A 2829   2.096   7.535   5.821
  210POPC   C1B 2830   1.946   7.961   4.742
  210POPC   C2B 2831   2.019   8.008   5.172
  210POPC   C3B 2832   1.803   7.890   5.512
  210POPC   C4B 2833   1.668   7.829   5.922
  211POPC   NC3 2834   1.743   9.737   4.002
  211POPC   PO4 2835   2.014  10.367   3.817
  211POPC   GL1 2836   1.924  10.195   4.208
  211POPC   GL2 2837   1.549  10.199   4.213
  211POPC   C1A 2838   2.062  10.154   4.654
  211POPC   D2A 2839   2.186  10.352   5.064
  211POPC   C3A 2840   2.081  10.117   5.438
  211POPC   C4A 2841   1.957  10.281   5.795
  211POPC   C1B 2842   1.492  10.201   4.663
  211POPC   C2B 2843   1.721  10.130   5.044
  211POPC   C3B 2844   1.572  10.191   5.448
  211POPC   C4B 2845   1.695   9.858   5.727
  212POPC   NC3 2846   2.308   5.656   3.797
  212POPC   PO4 2847   1.677   5.369   3.712
  212POPC   GL1 2848   1.833   5.456   4.164
  212POPC   GL2 2849   1.498   5.478   4.317
  212POPC   C1A 2850   1.962   5.562   4.647
  212POPC   D2A 2851   2.176   5.850   4.994
  212POPC   C3A 2852   2.319   5.774   5.445
  212POPC   C4A 2853   2.214   5.610   5.872
  212POPC   C1B 2854   1.501   5.772   4.677
  212POPC   C2B 2855   1.699   5.766   5.088
  212POPC   C3B 2856   1.834   5.619   5.538
  212POPC   C4B 2857   1.774   5.810   5.953
  213POPC   NC3 2858   3.095   9.521   3.926
  213POPC   PO4 2859   3.745   9.116   3.801
  213POPC   GL1 2860   3.688   9.259   4.272
  213POPC   GL2 2861   3.598   9.615   4.341
  213POPC   C1A 2862   3.608   9.186   4.713
  213POPC   D2A 2863   3.710   9.096   5.129
  213POPC   C3A 2864   3.646   9.449   5.355
  213POPC   C4A 2865   3.501   9.411   5.778
  213POPC   C1B 2866   3.297   9.585   4.657
  213POPC   C2B 2867   3.206   9.334   5.037
  213POPC   C3B 2868   3.146   9.499   5.439
  213POPC   C4B 2869   2.990   9.757   5.796
  214POPC   NC3 2870   1.743   7.205   3.823
  214POPC   PO4 2871   2.207   6.787   3.909
  214POPC   GL1 2872   2.087   7.085   4.208
  214POPC   GL2 2873   1.771   7.044   4.334
  214POPC   C1A 2874   2.163   7.144   4.650
  214POPC   D2A 2875   2.321   7.264   5.031
  214POPC   C3A 2876   2.171   7.110   5.424
  214POPC   C4A 2877   2.054   7.016   5.850
  214POPC   C1B 2878   1.771   7.463   4.594
  214POPC   C2B 2879   1.859   7.534   5.058
  214POPC   C3B 2880   1.730   7.376   5.495
  214POPC   C4B 2881   1.628   7.316   5.952
  215POPC   NC3 2882   1.763   6.481   3.987
  215POPC   PO4 2883   2.333   6.092   3.929
  215POPC   GL1 2884   2.056   6.136   4.239
  215POPC   GL2 2885   2.173   6.465   4.309
  215POPC   C1A 2886   1.903   6.113   4.656
  215POPC   D2A 2887   1.831   6.316   5.059
  215POPC   C3A 2888   1.872   6.106   5.437
  215POPC   C4A 2889   2.114   6.131   5.781
  215POPC   C1B 2890   2.013   6.646   4.667
  215POPC   C2B 2891   2.169   6.729   5.081
  215POPC   C3B 2892   2.102   6.604   5.529
  215POPC   C4B 2893   1.730   6.518   5.726
  216POPC   NC3 2894   4.641   2.097   4.096
  216POPC   PO4 2895   5.269   1.850   4.014
  216POPC   GL1 2896   5.208   1.994   4.393
  216POPC   GL2 2897   4.888   2.089   4.530
  216POPC   C1A 2898   5.178   1.718   4.744
  216POPC   D2A 2899   4.973   1.780   5.116
  216POPC   C3A 2900   5.254   1.638   5.395
  216POPC   C4A 2901   5.400   1.857   5.699
  216POPC   C1B 2902   4.808   2.387   4.852
  216POPC   C2B 2903   4.847   2.418   5.304
  216POPC   C3B 2904   4.917   2.053   5.578
  216POPC   C4B 2905   4.654   1.800   5.823
  217POPC   NC3 2906   7.908   9.965   3.831
  217POPC   PO4 2907   7.651   0.163   3.900
  217POPC   GL1 2908   7.865   0.167   4.301
  217POPC   GL2 2909   8.123  10.412   4.250
  217POPC   C1A 2910   7.783   0.051   4.732
  217POPC   D2A 2911   7.999  10.429   5.103
  217POPC   C3A 2912   7.713  10.359   5.410
  217POPC   C4A 2913   7.596  10.460   5.805
  217POPC   C1B 2914   8.207  10.206   4.644
  217POPC   C2B 2915   8.242   9.947   5.000
  217POPC   C3B 2916   8.116   9.852   5.381
  217POPC   C4B 2917   8.016  10.084   5.730
  218POPC   NC3 2918   4.994   7.687   3.962
  218POPC   PO4 2919   4.602   7.953   4.255
  218POPC   GL1 2920   4.968   7.905   4.458
  218POPC   GL2 2921   4.966   8.245   4.520
  218POPC   C1A 2922   4.958   7.748   4.905
  218POPC   D2A 2923   4.725   7.584   5.278
  218POPC   C3A 2924   4.908   7.657   5.701
  218POPC   C4A 2925   4.796   7.468   6.164
  218POPC   C1B 2926   4.643   8.161   4.857
  218POPC   C2B 2927   4.618   8.090   5.295
  218POPC   C3B 2928   4.798   8.283   5.634
  218POPC   C4B 2929   5.152   8.145   5.864
  219POPC   NC3 2930   2.689   8.666   3.975
  219POPC   PO4 2931   3.226   9.139   4.148
  219POPC   GL1 2932   3.034   8.743   4.334
  219POPC   GL2 2933   2.680   8.816   4.442
  219POPC   C1A 2934   2.926   8.450   4.706
  219POPC   D2A 2935   2.832   8.580   5.080
  219POPC   C3A 2936   2.954   8.393   5.416
  219POPC   C4A 2937   2.967   8.714   5.692
  219POPC   C1B 2938   2.431   8.679   4.782
  219POPC   C2B 2939   2.344   8.820   5.174
  219POPC   C3B 2940   2.487   8.633   5.514
  219POPC   C4B 2941   2.564   8.405   5.857
  220POPC   NC3 2942   6.374   7.203   4.100
  220POPC   PO4 2943   6.979   7.342   4.002
  220POPC   GL1 2944   6.775   7.409   4.390
  220POPC   GL2 2945   6.725   7.073   4.515
  220POPC   C1A 2946   6.726   7.459   4.849
  220POPC   D2A 2947   6.623   7.161   5.169
  220POPC   C3A 2948   6.539   7.274   5.561
  220POPC   C4A 2949   6.447   7.137   5.969
  220POPC   C1B 2950   6.327   7.099   4.766
  220POPC   C2B 2951   6.139   6.922   5.156
  220POPC   C3B 2952   6.215   6.838   5.602
  220POPC   C4B 2953   5.940   6.921   5.973
  221POPC   NC3 2954   1.030   4.650   3.810
  221POPC   PO4 2955   1.122   5.272   4.017
  221POPC   GL1 2956   1.177   5.035   4.351
  221POPC   GL2 2957   1.107   4.714   4.307
  221POPC   C1A 2958   1.355   4.988   4.716
  221POPC   D2A 2959   1.524   5.304   4.939
  221POPC   C3A 2960   1.495   5.223   5.368
  221POPC   C4A 2961   1.538   4.976   5.762
  221POPC   C1B 2962   0.897   4.753   4.714
  221POPC   C2B 2963   1.020   5.001   5.083
  221POPC   C3B 2964   1.146   4.830   5.467
  221POPC   C4B 2965   1.047   5.144   5.768
  222POPC   NC3 2966   2.999   0.644   4.034
  222POPC   PO4 2967   2.387   0.276   4.063
  222POPC   GL1 2968   2.578   0.337   4.416
  222POPC   GL2 2969   2.949   0.250   4.332
  222POPC   C1A 2970   2.371   0.255   4.805
  222POPC   D2A 2971   2.363   0.315   5.229
  222POPC   C3A 2972   2.358   0.048   5.551
  222POPC   C4A 2973   2.553   0.212   5.894
  222POPC   C1B 2974   2.956   0.528   4.701
  222POPC   C2B 2975   2.801   0.544   5.116
  222POPC   C3B 2976   2.842   0.741   5.508
  222POPC   C4B 2977   2.772   0.703   5.955
  223POPC   NC3 2978   8.483   5.722   3.948
  223POPC   PO4 2979   9.204   5.627   3.950
  223POPC   GL1 2980   8.886   5.614   4.276
  223POPC   GL2 2981   8.743   5.923   4.351
  223POPC   C1A 2982   8.742   5.492   4.685
  223POPC   D2A 2983   8.912   5.258   5.013
  223POPC   C3A 2984   8.822   5.306   5.423
  223POPC   C4A 2985   8.810   5.407   5.814
  223POPC   C1B 2986   8.907   5.973   4.767
  223POPC   C2B 2987   9.025   5.737   5.125
  223POPC   C3B 2988   8.967   5.860   5.551
  223POPC   C4B 2989   8.575   5.964   5.757
  224POPC   NC3 2990   3.367  10.373   3.951
  224POPC   PO4 2991   2.811   9.920   3.863
  224POPC   GL1 2992   3.164   9.922   4.253
  224POPC   GL2 2993   3.490  10.130   4.411
  224POPC   C1A 2994   3.087  10.045   4.707
  224POPC   D2A 2995   3.248  10.219   5.090
  224POPC   C3A 2996   3.281  10.023   5.486
  224POPC   C4A 2997   3.352  10.087   5.945
  224POPC   C1B 2998   3.720  10.352   4.798
  224POPC   C2B 2999   3.617   0.074   5.180
  224POPC   C3B 3000   3.512   0.004   5.612
  224POPC   C4B 3001   3.804  10.288   5.881
  225POPC   NC3 3002   6.679  10.224   3.939
  225POPC   PO4 3003   6.033  10.045   3.946
  225POPC   GL1 3004   6.277  10.218   4.305
  225POPC   GL2 3005   6.623  10.367   4.409
  225POPC   C1A 3006   6.300  10.168   4.749
  225POPC   D2A 3007   6.175  10.021   5.157
  225POPC   C3A 3008   6.354  10.351   5.425
  225POPC   C4A 3009   6.228  10.440   5.840
  225POPC   C1B 3010   6.822  10.150   4.742
  225POPC   C2B 3011   6.696  10.096   5.129
  225POPC   C3B 3012   6.711   9.899   5.510
  225POPC   C4B 3013   6.669  10.186   5.838
  226POPC   NC3 3014   6.539   8.691   3.915
  226POPC   PO4 3015   6.881   8.126   3.957
  226POPC   GL1 3016   6.683   8.389   4.340
  226POPC   GL2 3017   6.317   8.518   4.336
  226POPC   C1A 3018   6.538   8.455   4.807
  226POPC   D2A 3019   6.673   8.666   5.198
  226POPC   C3A 3020   6.418   8.532   5.531
  226POPC   C4A 3021   6.358   8.490   6.009
  226POPC   C1B 3022   6.167   8.816   4.658
  226POPC   C2B 3023   6.277   8.958   5.072
  226POPC   C3B 3024   6.081   9.017   5.471
  226POPC   C4B 3025   5.964   8.640   5.712
  227POPC   NC3 3026   7.130   1.872   3.881
  227POPC   PO4 3027   6.703   2.371   3.989
  227POPC   GL1 3028   6.949   2.154   4.317
  227POPC   GL2 3029   7.042   1.809   4.384
  227POPC   C1A 3030   6.885   2.057   4.767
  227POPC   D2A 3031   7.080   2.144   5.118
  227POPC   C3A 3032   6.876   2.097   5.529
  227POPC   C4A 3033   7.058   2.220   5.916
  227POPC   C1B 3034   7.377   1.987   4.677
  227POPC   C2B 3035   7.560   1.904   5.083
  227POPC   C3B 3036   7.405   2.036   5.476
  227POPC   C4B 3037   7.265   1.779   5.819
  228POPC   NC3 3038   9.456   1.301   3.988
  228POPC   PO4 3039  10.066   1.467   3.932
  228POPC   GL1 3040   9.804   1.460   4.319
  228POPC   GL2 3041   9.749   1.090   4.339
  228POPC   C1A 3042   9.880   1.334   4.754
  228POPC   D2A 3043   9.829   1.090   5.095
  228POPC   C3A 3044   9.720   1.176   5.492
  228POPC   C4A 3045   9.765   1.502   5.750
  228POPC   C1B 3046   9.392   1.223   4.606
  228POPC   C2B 3047   9.318   1.212   5.013
  228POPC   C3B 3048   9.233   1.145   5.431
  228POPC   C4B 3049   9.297   1.318   5.883
  229POPC   NC3 3050   9.366   5.109   3.953
  229POPC   PO4 3051   9.841   5.458   3.893
  229POPC   GL1 3052   9.782   5.113   4.268
  229POPC   GL2 3053   9.630   4.818   4.263
  229POPC   C1A 3054   9.791   4.881   4.726
  229POPC   D2A 3055   9.678   4.741   5.157
  229POPC   C3A 3056   9.682   5.081   5.448
  229POPC   C4A 3057   9.628   5.216   5.893
  229POPC   C1B 3058   9.353   5.078   4.577
  229POPC   C2B 3059   9.251   4.909   4.921
  229POPC   C3B 3060   9.202   4.943   5.326
  229POPC   C4B 3061   9.188   5.049   5.722
  230POPC   NC3 3062   7.089   0.548   3.797
  230POPC   PO4 3063   7.687   0.827   3.935
  230POPC   GL1 3064   7.467   0.544   4.243
  230POPC   GL2 3065   7.098   0.459   4.295
  230POPC   C1A 3066   7.341   0.567   4.699
  230POPC   D2A 3067   7.141   0.607   5.092
  230POPC   C3A 3068   7.407   0.747   5.449
  230POPC   C4A 3069   7.496   0.491   5.827
  230POPC   C1B 3070   7.038   0.144   4.648
  230POPC   C2B 3071   7.291   0.107   5.021
  230POPC   C3B 3072   7.343   0.220   5.417
  230POPC   C4B 3073   7.043   0.416   5.632
  231POPC   NC3 3074   1.980   4.378   3.961
  231POPC   PO4 3075   2.146   3.728   4.008
  231POPC   GL1 3076   2.085   4.003   4.344
  231POPC   GL2 3077   1.743   4.095   4.322
  231POPC   C1A 3078   2.124   4.314   4.682
  231POPC   D2A 3079   2.102   4.496   5.114
  231POPC   C3A 3080   2.155   4.162   5.434
  231POPC   C4A 3081   2.372   4.016   5.819
  231POPC   C1B 3082   1.709   4.020   4.747
  231POPC   C2B 3083   1.656   4.290   5.087
  231POPC   C3B 3084   1.676   4.337   5.534
  231POPC   C4B 3085   1.790   3.937   5.737
  232POPC   NC3 3086   2.463   7.185   3.866
  232POPC   PO4 3087   2.988   7.610   3.879
  232POPC   GL1 3088   2.741   7.427   4.260
  232POPC   GL2 3089   2.582   7.075   4.342
  232POPC   C1A 3090   2.722   7.360   4.720
  232POPC   D2A 3091   2.916   7.375   5.100
  232POPC   C3A 3092   2.649   7.325   5.414
  232POPC   C4A 3093   2.511   7.243   5.780
  232POPC   C1B 3094   2.555   6.840   4.735
  232POPC   C2B 3095   2.643   6.884   5.176
  232POPC   C3B 3096   2.580   6.764   5.624
  232POPC   C4B 3097   2.487   6.865   6.099
  233POPC   NC3 3098   3.956   1.359   3.977
  233POPC   PO4 3099   3.271   1.346   3.915
  233POPC   GL1 3100   3.516   1.227   4.224
  233POPC   GL2 3101   3.422   0.911   4.250
  233POPC   C1A 3102   3.623   1.334   4.618
  233POPC   D2A 3103   3.432   1.371   5.008
  233POPC   C3A 3104   3.648   1.462   5.389
  233POPC   C4A 3105   3.683   1.295   5.778
  233POPC   C1B 3106   3.260   0.958   4.652
  233POPC   C2B 3107   3.219   0.876   5.082
  233POPC   C3B 3108   3.225   1.136   5.431
  233POPC   C4B 3109   3.225   0.936   5.793
  234POPC   NC3 3110   2.023   8.798   3.718
  234POPC   PO4 3111   2.196   8.948   4.279
  234POPC   GL1 3112   1.925   8.775   4.573
  234POPC   GL2 3113   1.744   8.420   4.573
  234POPC   C1A 3114   1.905   8.977   4.942
  234POPC   D2A 3115   1.773   8.982   5.321
  234POPC   C3A 3116   2.098   9.040   5.593
  234POPC   C4A 3117   2.195   8.775   5.910
  234POPC   C1B 3118   1.986   8.457   4.949
  234POPC   C2B 3119   1.987   8.494   5.393
  234POPC   C3B 3120   1.858   8.388   5.813
  234POPC   C4B 3121   2.161   8.355   6.197
  235POPC   NC3 3122   6.842   2.791   4.149
  235POPC   PO4 3123   7.409   3.111   3.880
  235POPC   GL1 3124   7.388   2.875   4.262
  235POPC   GL2 3125   7.335   2.506   4.228
  235POPC   C1A 3126   7.280   2.975   4.689
  235POPC   D2A 3127   7.457   2.935   5.087
  235POPC   C3A 3128   7.277   3.015   5.498
  235POPC   C4A 3129   7.360   2.994   5.947
  235POPC   C1B 3130   7.164   2.473   4.658
  235POPC   C2B 3131   7.022   2.649   5.041
  235POPC   C3B 3132   7.134   2.529   5.458
  235POPC   C4B 3133   6.966   2.706   5.835
  236POPC   NC3 3134   7.109   3.596   3.845
  236POPC   PO4 3135   7.746   3.839   3.936
  236POPC   GL1 3136   7.407   3.576   4.235
  236POPC   GL2 3137   7.088   3.303   4.252
  236POPC   C1A 3138   7.362   3.486   4.665
  236POPC   D2A 3139   7.616   3.413   5.014
  236POPC   C3A 3140   7.469   3.478   5.399
  236POPC   C4A 3141   7.352   3.511   5.802
  236POPC   C1B 3142   6.857   3.264   4.648
  236POPC   C2B 3143   7.055   3.285   5.067
  236POPC   C3B 3144   6.959   3.439   5.488
  236POPC   C4B 3145   6.898   3.214   5.853
  237POPC   NC3 3146   2.517   3.558   3.762
  237POPC   PO4 3147   3.090   3.894   3.954
  237POPC   GL1 3148   2.780   3.616   4.288
  237POPC   GL2 3149   2.434   3.424   4.302
  237POPC   C1A 3150   2.483   3.819   4.652
  237POPC   D2A 3151   2.445   3.705   5.100
  237POPC   C3A 3152   2.692   3.875   5.443
  237POPC   C4A 3153   2.828   3.737   5.862
  237POPC   C1B 3154   2.585   3.335   4.738
  237POPC   C2B 3155   2.432   3.202   5.148
  237POPC   C3B 3156   2.626   3.365   5.527
  237POPC   C4B 3157   2.444   3.418   5.931
  238POPC   NC3 3158   9.631   0.489   3.810
  238POPC   PO4 3159   9.164   0.051   3.876
  238POPC   GL1 3160   9.467   0.232   4.225
  238POPC   GL2 3161   9.610   0.600   4.301
  238POPC   C1A 3162   9.409   0.318   4.664
  238POPC   D2A 3163   9.168   0.373   4.985
  238POPC   C3A 3164   9.283   0.258   5.362
  238POPC   C4A 3165   9.140   0.360   5.763
  238POPC   C1B 3166   9.622   0.794   4.742
  238POPC   C2B 3167   9.461   0.745   5.176
  238POPC   C3B 3168   9.464   0.749   5.630
  238POPC   C4B 3169   9.288   0.766   6.033
  239POPC   NC3 3170   8.472   8.535   3.984
  239POPC   PO4 3171   9.042   8.823   3.898
  239POPC   GL1 3172   8.980   8.686   4.350
  239POPC   GL2 3173   8.678   8.530   4.434
  239POPC   C1A 3174   8.938   8.671   4.834
  239POPC   D2A 3175   9.016   8.343   5.148
  239POPC   C3A 3176   8.967   8.598   5.509
  239POPC   C4A 3177   8.860   8.781   5.917
  239POPC   C1B 3178   8.425   8.625   4.791
  239POPC   C2B 3179   8.522   8.480   5.186
  239POPC   C3B 3180   8.465   8.636   5.549
  239POPC   C4B 3181   8.382   8.937   5.783
  240POPC   NC3 3182   1.911   0.255   4.018
  240POPC   PO4 3183   1.820   0.875   3.837
  240POPC   GL1 3184   2.135   0.710   4.227
  240POPC   GL2 3185   1.975   0.476   4.461
  240POPC   C1A 3186   2.311   0.752   4.689
  240POPC   D2A 3187   1.982   0.554   4.999
  240POPC   C3A 3188   2.037   0.606   5.463
  240POPC   C4A 3189   2.162   0.666   5.921
  240POPC   C1B 3190   1.860   0.121   4.697
  240POPC   C2B 3191   1.643   0.122   5.067
  240POPC   C3B 3192   1.866   0.122   5.412
  240POPC   C4B 3193   1.890   0.268   5.819
  241POPC   NC3 3194   4.289   3.636   3.919
  241POPC   PO4 3195   4.683   3.253   3.906
  241POPC   GL1 3196   4.517   3.299   4.317
  241POPC   GL2 3197   4.186   3.217   4.340
  241POPC   C1A 3198   4.424   3.295   4.787
  241POPC   D2A 3199   4.480   3.309   5.235
  241POPC   C3A 3200   4.390   3.682   5.524
  241POPC   C4A 3201   4.289   4.006   5.885
  241POPC   C1B 3202   3.981   3.046   4.670
  241POPC   C2B 3203   3.960   3.155   5.101
  241POPC   C3B 3204   4.055   3.272   5.517
  241POPC   C4B 3205   4.009   3.570   5.833
  242POPC   NC3 3206   0.356   8.768   3.999
  242POPC   PO4 3207   0.705   8.176   3.817
  242POPC   GL1 3208   0.769   8.380   4.281
  242POPC   GL2 3209   0.459   8.521   4.423
  242POPC   C1A 3210   0.844   8.762   4.613
  242POPC   D2A 3211   0.566   8.933   4.983
  242POPC   C3A 3212   0.655   8.863   5.464
  242POPC   C4A 3213   0.478   8.488   5.738
  242POPC   C1B 3214   0.112   8.720   4.622
  242POPC   C2B 3215   0.040   8.865   5.008
  242POPC   C3B 3216   0.191   8.708   5.354
  242POPC   C4B 3217   0.133   8.845   5.751
  243POPC   NC3 3218   1.189   2.718   4.136
  243POPC   PO4 3219   1.416   3.395   3.825
  243POPC   GL1 3220   1.292   3.288   4.251
  243POPC   GL2 3221   1.224   3.632   4.389
  243POPC   C1A 3222   1.189   3.118   4.678
  243POPC   D2A 3223   0.849   3.233   4.958
  243POPC   C3A 3224   0.899   3.136   5.378
  243POPC   C4A 3225   0.926   3.213   5.793
  243POPC   C1B 3226   1.420   3.586   4.756
  243POPC   C2B 3227   1.346   3.374   5.115
  243POPC   C3B 3228   1.217   3.496   5.497
  243POPC   C4B 3229   1.471   3.427   5.802
  244POPC   NC3 3230   6.032   2.845   4.134
  244POPC   PO4 3231   5.472   2.823   3.917
  244POPC   GL1 3232   5.517   2.838   4.344
  244POPC   GL2 3233   5.671   2.509   4.323
  244POPC   C1A 3234   5.477   3.011   4.798
  244POPC   D2A 3235   5.713   2.859   5.205
  244POPC   C3A 3236   5.723   3.044   5.608
  244POPC   C4A 3237   5.372   3.209   5.868
  244POPC   C1B 3238   5.744   2.583   4.761
  244POPC   C2B 3239   5.770   2.356   5.141
  244POPC   C3B 3240   5.772   2.478   5.594
  244POPC   C4B 3241   6.039   2.581   5.968
  245POPC   NC3 3242   0.306   4.478   3.944
  245POPC   PO4 3243   0.751   4.986   3.697
  245POPC   GL1 3244   0.698   5.013   4.164
  245POPC   GL2 3245   0.549   4.742   4.357
  245POPC   C1A 3246   0.650   5.184   4.622
  245POPC   D2A 3247   0.511   5.012   5.039
  245POPC   C3A 3248   0.662   4.989   5.458
  245POPC   C4A 3249   0.672   4.646   5.700
  245POPC   C1B 3250   0.187   4.900   4.675
  245POPC   C2B 3251   0.055   4.747   5.089
  245POPC   C3B 3252   0.181   4.790   5.524
  245POPC   C4B 3253   0.176   5.097   5.858
  246POPC   NC3 3254   4.341  10.143   3.947
  246POPC   PO4 3255   3.655  10.014   3.922
  246POPC   GL1 3256   3.954   9.981   4.224
  246POPC   GL2 3257   4.016  10.336   4.291
  246POPC   C1A 3258   3.936   9.918   4.634
  246POPC   D2A 3259   3.605   9.875   4.939
  246POPC   C3A 3260   3.760  10.068   5.309
  246POPC   C4A 3261   3.738   9.837   5.685
  246POPC   C1B 3262   4.220  10.353   4.684
  246POPC   C2B 3263   4.408  10.054   4.985
  246POPC   C3B 3264   4.295  10.049   5.412
  246POPC   C4B 3265   4.220  10.451   5.629
  247POPC   NC3 3266   6.220   9.604   3.994
  247POPC   PO4 3267   6.817   9.817   4.077
  247POPC   GL1 3268   6.525   9.792   4.428
  247POPC   GL2 3269   6.307   9.486   4.468
  247POPC   C1A 3270   6.471   9.709   4.883
  247POPC   D2A 3271   6.160   9.449   5.051
  247POPC   C3A 3272   6.151   9.547   5.462
  247POPC   C4A 3273   6.231   9.934   5.680
  247POPC   C1B 3274   6.548   9.244   4.725
  247POPC   C2B 3275   6.729   9.214   5.145
  247POPC   C3B 3276   6.659   9.354   5.603
  247POPC   C4B 3277   6.672   9.302   6.092
  248POPC   NC3 3278   0.798   7.036   4.102
  248POPC   PO4 3279   1.445   6.862   3.964
  248POPC   GL1 3280   1.255   7.057   4.335
  248POPC   GL2 3281   1.085   7.396   4.346
  248POPC   C1A 3282   1.163   7.036   4.762
  248POPC   D2A 3283   1.283   6.955   5.171
  248POPC   C3A 3284   0.917   6.941   5.387
  248POPC   C4A 3285   0.876   7.027   5.792
  248POPC   C1B 3286   1.247   7.544   4.753
  248POPC   C2B 3287   1.353   7.615   5.190
  248POPC   C3B 3288   1.211   7.355   5.533
  248POPC   C4B 3289   1.375   6.938   5.700
  249POPC   NC3 3290   4.162   7.137   3.883
  249POPC   PO4 3291   4.630   7.476   3.784
  249POPC   GL1 3292   4.474   7.421   4.229
  249POPC   GL2 3293   4.138   7.287   4.358
  249POPC   C1A 3294   4.491   7.333   4.711
  249POPC   D2A 3295   4.379   7.035   5.063
  249POPC   C3A 3296   4.306   7.266   5.423
  249POPC   C4A 3297   4.584   7.283   5.733
  249POPC   C1B 3298   3.975   7.102   4.742
  249POPC   C2B 3299   3.876   7.094   5.201
  249POPC   C3B 3300   4.085   6.822   5.523
  249POPC   C4B 3301   4.252   6.610   5.908
  250POPC   NC3 3302   4.796   8.299   4.009
  250POPC   PO4 3303   4.716   8.950   3.973
  250POPC   GL1 3304   4.914   8.718   4.309
  250POPC   GL2 3305   5.242   8.554   4.185
  250POPC   C1A 3306   4.925   8.763   4.767
  250POPC   D2A 3307   4.801   8.577   5.164
  250POPC   C3A 3308   4.795   8.788   5.598
  250POPC   C4A 3309   4.740   8.884   6.047
  250POPC   C1B 3310   5.369   8.537   4.616
  250POPC   C2B 3311   5.497   8.544   5.054
  250POPC   C3B 3312   5.218   8.531   5.442
  250POPC   C4B 3313   5.210   8.666   5.883
  251POPC   NC3 3314   7.744   5.143   4.294
  251POPC   PO4 3315   8.308   5.272   3.975
  251POPC   GL1 3316   8.244   5.140   4.358
  251POPC   GL2 3317   8.272   4.805   4.361
  251POPC   C1A 3318   8.167   5.305   4.768
  251POPC   D2A 3319   7.900   5.096   5.113
  251POPC   C3A 3320   7.881   5.237   5.547
  251POPC   C4A 3321   7.909   5.289   5.989
  251POPC   C1B 3322   8.113   4.809   4.747
  251POPC   C2B 3323   8.236   4.698   5.112
  251POPC   C3B 3324   7.977   4.659   5.442
  251POPC   C4B 3325   7.894   4.795   5.832
  252POPC   NC3 3326   7.567   9.029   3.744
  252POPC   PO4 3327   8.096   8.564   3.701
  252POPC   GL1 3328   7.896   8.745   4.116
  252POPC   GL2 3329   8.176   8.701   4.346
  252POPC   C1A 3330   7.786   8.831   4.608
  252POPC   D2A 3331   8.037   9.015   4.959
  252POPC   C3A 3332   7.987   8.887   5.410
  252POPC   C4A 3333   7.893   9.057   5.865
  252POPC   C1B 3334   8.021   8.366   4.622
  252POPC   C2B 3335   8.137   8.141   4.993
  252POPC   C3B 3336   8.092   8.313   5.400
  252POPC   C4B 3337   8.017   8.549   5.789
  253POPC   NC3 3338   8.851   1.219   4.054
  253POPC   PO4 3339   8.415   0.714   3.872
  253POPC   GL1 3340   8.407   1.057   4.234
  253POPC   GL2 3341   8.658   0.917   4.459
  253POPC   C1A 3342   8.399   1.395   4.607
  253POPC   D2A 3343   8.448   1.677   4.994
  253POPC   C3A 3344   8.415   1.465   5.436
  253POPC   C4A 3345   8.415   1.042   5.673
  253POPC   C1B 3346   8.879   1.255   4.710
  253POPC   C2B 3347   8.843   1.378   5.140
  253POPC   C3B 3348   8.891   1.448   5.583
  253POPC   C4B 3349   8.894   1.029   5.838
  254POPC   NC3 3350   1.316   5.649   3.827
  254POPC   PO4 3351   0.718   5.967   3.762
  254POPC   GL1 3352   0.967   6.016   4.135
  254POPC   GL2 3353   0.969   5.682   4.248
  254POPC   C1A 3354   1.066   6.024   4.605
  254POPC   D2A 3355   0.820   6.025   4.997
  254POPC   C3A 3356   0.975   6.012   5.403
  254POPC   C4A 3357   0.984   5.742   5.785
  254POPC   C1B 3358   1.085   5.467   4.653
  254POPC   C2B 3359   1.137   5.621   5.067
  254POPC   C3B 3360   1.354   5.704   5.438
  254POPC   C4B 3361   1.430   5.478   5.805
  255POPC   NC3 3362   7.219   9.557   3.967
  255POPC   PO4 3363   7.357   8.977   4.138
  255POPC   GL1 3364   7.218   9.276   4.391
  255POPC   GL2 3365   6.872   9.376   4.333
  255POPC   C1A 3366   7.150   9.224   4.785
  255POPC   D2A 3367   7.321   9.291   5.116
  255POPC   C3A 3368   7.133   9.088   5.442
  255POPC   C4A 3369   7.084   9.149   5.839
  255POPC   C1B 3370   6.930   9.651   4.682
  255POPC   C2B 3371   6.971   9.667   5.098
  255POPC   C3B 3372   7.138   9.604   5.491
  255POPC   C4B 3373   6.980   9.651   5.906
  256POPC   NC3 3374   0.371   3.714   4.119
  256POPC   PO4 3375   0.658   3.163   3.803
  256POPC   GL1 3376   0.488   3.230   4.215
  256POPC   GL2 3377   0.758   3.408   4.340
  256POPC   C1A 3378   0.323   3.306   4.632
  256POPC   D2A 3379   0.397   3.505   5.021
  256POPC   C3A 3380   0.217   3.335   5.398
  256POPC   C4A 3381   0.434   3.270   5.774
  256POPC   C1B 3382   0.809   3.692   4.699
  256POPC   C2B 3383   0.912   3.693   5.130
  256POPC   C3B 3384   0.701   3.599   5.469
  256POPC   C4B 3385   0.835   3.709   5.855
  257POPC   NC3 3386   7.243   0.053   4.056
  257POPC   PO4 3387   7.444   9.951   3.930
  257POPC   GL1 3388   7.277   9.850   4.362
  257POPC   GL2 3389   7.095  10.154   4.327
  257POPC   C1A 3390   7.416   9.735   4.803
  257POPC   D2A 3391   7.716   9.971   5.061
  257POPC   C3A 3392   7.608   9.849   5.493
  257POPC   C4A 3393   7.283  10.029   5.759
  257POPC   C1B 3394   7.346  10.220   4.710
  257POPC   C2B 3395   7.231  10.113   5.161
  257POPC   C3B 3396   6.993  10.353   5.470
  257POPC   C4B 3397   7.097  10.485   5.886
  258POPC   NC3 3398   0.236   3.645   3.621
  258POPC   PO4 3399   0.677   4.050   3.984
  258POPC   GL1 3400   0.397   4.170   4.345
  258POPC   GL2 3401   0.153   4.429   4.442
  258POPC   C1A 3402   0.344   3.958   4.714
  258POPC   D2A 3403   0.528   4.013   5.084
  258POPC   C3A 3404   0.275   3.869   5.377
  258POPC   C4A 3405   0.308   3.743   5.782
  258POPC   C1B 3406   0.459   4.483   4.806
  258POPC   C2B 3407   0.733   4.489   5.192
  258POPC   C3B 3408   0.715   4.154   5.541
  258POPC   C4B 3409   0.333   4.249   5.743
  259POPC   NC3 3410   9.116   7.327   3.705
  259POPC   PO4 3411   9.536   7.797   3.921
  259POPC   GL1 3412   9.317   7.465   4.172
  259POPC   GL2 3413   9.452   7.145   4.286
  259POPC   C1A 3414   9.158   7.434   4.603
  259POPC   D2A 3415   9.223   7.529   5.002
  259POPC   C3A 3416   9.434   7.380   5.330
  259POPC   C4A 3417   9.284   7.466   5.740
  259POPC   C1B 3418   9.310   6.972   4.725
  259POPC   C2B 3419   9.339   6.746   5.139
  259POPC   C3B 3420   9.298   6.930   5.554
  259POPC   C4B 3421   9.594   7.068   5.811
  260POPC   NC3 3422   2.797   2.488   3.881
  260POPC   PO4 3423   2.370   3.101   3.817
  260POPC   GL1 3424   2.310   2.878   4.252
  260POPC   GL2 3425   2.478   2.529   4.322
  260POPC   C1A 3426   2.453   2.856   4.693
  260POPC   D2A 3427   2.788   2.866   5.009
  260POPC   C3A 3428   2.636   2.829   5.440
  260POPC   C4A 3429   2.521   2.837   5.865
  260POPC   C1B 3430   2.887   2.554   4.582
  260POPC   C2B 3431   3.203   2.521   4.906
  260POPC   C3B 3432   3.116   2.605   5.329
  260POPC   C4B 3433   2.936   2.552   5.759
  261POPC   NC3 3434   8.999   4.290   3.923
  261POPC   PO4 3435   9.614   3.856   3.888
  261POPC   GL1 3436   9.474   4.049   4.221
  261POPC   GL2 3437   9.470   4.355   4.187
  261POPC   C1A 3438   9.380   3.989   4.636
  261POPC   D2A 3439   9.459   3.757   5.011
  261POPC   C3A 3440   9.359   3.971   5.373
  261POPC   C4A 3441   9.498   3.991   5.781
  261POPC   C1B 3442   9.365   4.504   4.639
  261POPC   C2B 3443   9.212   4.456   5.124
  261POPC   C3B 3444   9.327   4.490   5.566
  261POPC   C4B 3445   9.630   4.462   5.908
  262POPC   NC3 3446   5.056   2.993   3.939
  262POPC   PO4 3447   4.523   2.509   3.917
  262POPC   GL1 3448   4.774   2.578   4.304
  262POPC   GL2 3449   5.121   2.483   4.185
  262POPC   C1A 3450   4.903   2.867   4.676
  262POPC   D2A 3451   4.887   2.967   5.144
  262POPC   C3A 3452   4.740   2.950   5.572
  262POPC   C4A 3453   4.869   3.199   5.987
  262POPC   C1B 3454   5.252   2.490   4.614
  262POPC   C2B 3455   5.266   2.638   5.061
  262POPC   C3B 3456   5.257   2.771   5.515
  262POPC   C4B 3457   5.033   2.729   5.934
  263POPC   NC3 3458   0.274   6.125   3.864
  263POPC   PO4 3459   0.595   6.740   3.835
  263POPC   GL1 3460   0.587   6.397   4.168
  263POPC   GL2 3461   0.241   6.317   4.314
  263POPC   C1A 3462   0.609   6.229   4.594
  263POPC   D2A 3463   0.506   6.462   4.965
  263POPC   C3A 3464   0.546   6.275   5.355
  263POPC   C4A 3465   0.654   6.126   5.764
  263POPC   C1B 3466   0.089   6.235   4.718
  263POPC   C2B 3467  10.477   6.470   5.053
  263POPC   C3B 3468   0.197   6.636   5.373
  263POPC   C4B 3469   0.455   6.587   5.749
  264POPC   NC3 3470   0.604   1.416   3.755
  264POPC   PO4 3471   0.899   0.821   3.719
  264POPC   GL1 3472   0.676   1.019   4.098
  264POPC   GL2 3473   0.369   1.184   4.157
  264POPC   C1A 3474   0.647   1.165   4.574
  264POPC   D2A 3475   0.563   1.034   5.001
  264POPC   C3A 3476   0.671   1.122   5.410
  264POPC   C4A 3477   0.761   1.003   5.797
  264POPC   C1B 3478   0.158   1.075   4.576
  264POPC   C2B 3479   0.108   0.849   4.957
  264POPC   C3B 3480   0.042   0.825   5.407
  264POPC   C4B 3481   0.244   1.101   5.713
  265POPC   NC3 3482   6.469   7.992   3.800
  265POPC   PO4 3483   6.066   7.550   4.015
  265POPC   GL1 3484   6.310   7.662   4.331
  265POPC   GL2 3485   6.584   7.885   4.307
  265POPC   C1A 3486   6.253   7.610   4.755
  265POPC   D2A 3487   6.230   7.486   5.170
  265POPC   C3A 3488   6.408   7.761   5.465
  265POPC   C4A 3489   6.368   7.635   5.881
  265POPC   C1B 3490   6.268   8.087   4.589
  265POPC   C2B 3491   6.317   8.059   5.049
  265POPC   C3B 3492   6.701   8.151   5.281
  265POPC   C4B 3493   6.771   8.216   5.719
  266POPC   NC3 3494   8.081   1.053   3.826
  266POPC   PO4 3495   7.672   1.486   3.659
  266POPC   GL1 3496   7.789   1.286   4.163
  266POPC   GL2 3497   7.534   1.063   4.368
  266POPC   C1A 3498   7.998   1.090   4.530
  266POPC   D2A 3499   8.136   0.911   4.907
  266POPC   C3A 3500   7.859   0.945   5.264
  266POPC   C4A 3501   7.968   1.233   5.600
  266POPC   C1B 3502   7.564   1.027   4.834
  266POPC   C2B 3503   7.526   1.378   5.142
  266POPC   C3B 3504   7.546   1.472   5.550
  266POPC   C4B 3505   7.541   1.099   5.847
  267POPC   NC3 3506   0.589   5.431   3.836
  267POPC   PO4 3507   0.187   4.919   4.052
  267POPC   GL1 3508   0.311   5.323   4.261
  267POPC   GL2 3509   0.395   5.724   4.223
  267POPC   C1A 3510   0.190   5.452   4.674
  267POPC   D2A 3511   0.070   5.275   5.054
  267POPC   C3A 3512   0.285   5.310   5.416
  267POPC   C4A 3513   0.563   5.434   5.775
  267POPC   C1B 3514   0.624   5.709   4.624
  267POPC   C2B 3515   0.538   5.593   5.070
  267POPC   C3B 3516   0.364   5.816   5.466
  267POPC   C4B 3517   0.191   6.021   5.883
  268POPC   NC3 3518   9.227   6.035   4.170
  268POPC   PO4 3519   8.622   6.217   3.882
  268POPC   GL1 3520   8.687   6.409   4.258
  268POPC   GL2 3521   8.977   6.486   4.170
  268POPC   C1A 3522   8.542   6.321   4.658
  268POPC   D2A 3523   8.380   6.278   5.041
  268POPC   C3A 3524   8.615   6.290   5.383
  268POPC   C4A 3525   8.477   6.466   5.777
  268POPC   C1B 3526   8.968   6.601   4.635
  268POPC   C2B 3527   8.827   6.614   5.051
  268POPC   C3B 3528   8.842   6.736   5.494
  268POPC   C4B 3529   8.976   6.666   5.914
  269POPC   NC3 3530   5.593   9.840   3.916
  269POPC   PO4 3531   5.898   9.234   3.952
  269POPC   GL1 3532   5.823   9.587   4.300
  269POPC   GL2 3533   5.507   9.738   4.397
  269POPC   C1A 3534   5.940   9.799   4.692
  269POPC   D2A 3535   5.715   9.725   5.073
  269POPC   C3A 3536   5.748   9.912   5.472
  269POPC   C4A 3537   5.823   9.676   5.832
  269POPC   C1B 3538   5.364   9.511   4.722
  269POPC   C2B 3539   5.372   9.339   5.122
  269POPC   C3B 3540   5.617   9.376   5.479
  269POPC   C4B 3541   5.382   9.463   5.863
  270POPC   NC3 3542   4.341   2.945   3.936
  270POPC   PO4 3543   3.914   2.433   4.019
  270POPC   GL1 3544   4.210   2.394   4.290
  270POPC   GL2 3545   4.256   2.705   4.372
  270POPC   C1A 3546   4.269   2.251   4.670
  270POPC   D2A 3547   4.359   2.300   5.077
  270POPC   C3A 3548   4.010   2.270   5.289
  270POPC   C4A 3549   3.918   2.343   5.672
  270POPC   C1B 3550   4.411   2.748   4.780
  270POPC   C2B 3551   4.372   2.797   5.224
  270POPC   C3B 3552   4.175   2.786   5.635
  270POPC   C4B 3553   4.080   3.068   6.007
  271POPC   NC3 3554   3.444   2.197   4.010
  271POPC   PO4 3555   3.910   1.742   3.726
  271POPC   GL1 3556   3.642   1.728   4.198
  271POPC   GL2 3557   3.272   1.713   4.282
  271POPC   C1A 3558   3.515   1.816   4.699
  271POPC   D2A 3559   3.657   1.948   5.119
  271POPC   C3A 3560   3.475   1.912   5.519
  271POPC   C4A 3561   3.233   1.572   5.734
  271POPC   C1B 3562   3.052   1.994   4.658
  271POPC   C2B 3563   3.117   1.998   5.104
  271POPC   C3B 3564   3.020   2.118   5.525
  271POPC   C4B 3565   3.218   2.048   5.955
  272POPC   NC3 3566   7.798   3.372   3.975
  272POPC   PO4 3567   8.230   3.927   3.796
  272POPC   GL1 3568   8.186   3.654   4.182
  272POPC   GL2 3569   7.880   3.619   4.403
  272POPC   C1A 3570   8.261   3.322   4.515
  272POPC   D2A 3571   8.087   3.526   4.883
  272POPC   C3A 3572   8.068   3.591   5.333
  272POPC   C4A 3573   8.044   3.785   5.755
  272POPC   C1B 3574   7.777   3.168   4.584
  272POPC   C2B 3575   7.946   3.006   4.966
  272POPC   C3B 3576   7.848   3.132   5.396
  272POPC   C4B 3577   8.111   3.282   5.769
  273POPC   NC3 3578   2.279   0.976   3.818
  273POPC   PO4 3579   2.336   1.673   3.926
  273POPC   GL1 3580   2.124   1.471   4.266
  273POPC   GL2 3581   1.952   1.186   4.230
  273POPC   C1A 3582   2.063   1.438   4.696
  273POPC   D2A 3583   2.362   1.371   5.027
  273POPC   C3A 3584   2.197   1.422   5.396
  273POPC   C4A 3585   2.332   1.446   5.788
  273POPC   C1B 3586   1.851   0.970   4.648
  273POPC   C2B 3587   1.945   1.053   5.094
  273POPC   C3B 3588   1.857   1.056   5.537
  273POPC   C4B 3589   1.759   1.399   5.702
  274POPC   NC3 3590   7.206   7.746   3.988
  274POPC   PO4 3591   7.587   8.296   4.012
  274POPC   GL1 3592   7.258   8.145   4.314
  274POPC   GL2 3593   7.308   7.826   4.488
  274POPC   C1A 3594   7.018   8.207   4.701
  274POPC   D2A 3595   7.237   8.266   5.082
  274POPC   C3A 3596   7.183   8.017   5.416
  274POPC   C4A 3597   7.314   8.159   5.744
  274POPC   C1B 3598   7.187   7.773   4.955
  274POPC   C2B 3599   6.900   7.609   5.305
  274POPC   C3B 3600   6.851   7.716   5.746
  274POPC   C4B 3601   6.756   7.560   6.203
  275POPC   NC3 3602   4.185   2.113   3.820
  275POPC   PO4 3603   4.531   1.646   4.088
  275POPC   GL1 3604   4.426   1.790   4.445
  275POPC   GL2 3605   4.114   1.895   4.294
  275POPC   C1A 3606   4.517   1.847   4.875
  275POPC   D2A 3607   4.513   1.855   5.321
  275POPC   C3A 3608   4.421   2.206   5.585
  275POPC   C4A 3609   4.234   2.088   5.962
  275POPC   C1B 3610   4.011   1.794   4.732
  275POPC   C2B 3611   4.073   1.652   5.144
  275POPC   C3B 3612   3.999   1.837   5.555
  275POPC   C4B 3613   3.758   1.788   5.926
  276POPC   NC3 3614   2.451   9.312   4.205
  276POPC   PO4 3615   1.928   9.373   3.757
  276POPC   GL1 3616   1.913   9.349   4.252
  276POPC   GL2 3617   1.673   9.094   4.272
  276POPC   C1A 3618   2.104   9.413   4.724
  276POPC   D2A 3619   2.353   9.335   5.100
  276POPC   C3A 3620   2.137   9.552   5.426
  276POPC   C4A 3621   2.024   9.502   5.830
  276POPC   C1B 3622   1.611   9.280   4.655
  276POPC   C2B 3623   1.709   9.514   5.025
  276POPC   C3B 3624   1.622   9.465   5.424
  276POPC   C4B 3625   1.619   9.207   5.751
  277POPC   NC3 3626   4.973   1.483   4.145
  277POPC   PO4 3627   4.926   0.955   3.729
  277POPC   GL1 3628   4.733   0.913   4.184
  277POPC   GL2 3629   4.551   1.193   4.327
  277POPC   C1A 3630   4.819   0.917   4.654
  277POPC   D2A 3631   4.642   0.857   5.038
  277POPC   C3A 3632   4.788   0.896   5.458
  277POPC   C4A 3633   4.492   1.028   5.783
  277POPC   C1B 3634   4.747   1.406   4.741
  277POPC   C2B 3635   4.942   1.277   5.132
  277POPC   C3B 3636   4.839   1.390   5.558
  277POPC   C4B 3637   5.074   1.530   5.893
  278POPC   NC3 3638   0.834   0.516   4.073
  278POPC   PO4 3639   0.191   0.759   3.955
  278POPC   GL1 3640   0.386   0.659   4.345
  278POPC   GL2 3641   0.183   0.379   4.349
  278POPC   C1A 3642   0.550   0.394   4.707
  278POPC   D2A 3643   0.776   0.414   5.100
  278POPC   C3A 3644   0.538   0.639   5.364
  278POPC   C4A 3645   0.443   0.587   5.765
  278POPC   C1B 3646  10.462   0.423   4.726
  278POPC   C2B 3647   0.173   0.368   5.109
  278POPC   C3B 3648   0.228   0.186   5.502
  278POPC   C4B 3649   0.122   0.230   5.926
  279POPC   NC3 3650   0.468   2.308   3.977
  279POPC   PO4 3651   0.565   1.671   4.128
  279POPC   GL1 3652   0.393   1.748   4.475
  279POPC   GL2 3653   0.499   2.117   4.454
  279POPC   C1A 3654   0.378   1.505   4.853
  279POPC   D2A 3655   0.257   1.370   5.264
  279POPC   C3A 3656   0.502   1.541   5.625
  279POPC   C4A 3657   0.210   1.655   5.934
  279POPC   C1B 3658   0.493   2.035   4.863
  279POPC   C2B 3659   0.454   1.859   5.208
  279POPC   C3B 3660   0.255   1.973   5.515
  279POPC   C4B 3661   0.490   2.037   5.822
  280POPC   NC3 3662   9.887   4.275   3.871
  280POPC   PO4 3663   0.065   3.986   3.897
  280POPC   GL1 3664  10.290   4.130   4.216
  280POPC   GL2 3665   9.990   3.938   4.249
  280POPC   C1A 3666  10.318   4.099   4.673
  280POPC   D2A 3667   0.063   4.226   5.038
  280POPC   C3A 3668  10.390   4.200   5.439
  280POPC   C4A 3669  10.386   4.478   5.799
  280POPC   C1B 3670   9.834   4.245   4.572
  280POPC   C2B 3671   9.638   4.250   4.989
  280POPC   C3B 3672   9.773   4.282   5.413
  280POPC   C4B 3673  10.002   4.145   5.756
  281POPC   NC3 3674   2.559   6.485   3.914
  281POPC   PO4 3675   2.898   6.915   3.983
  281POPC   GL1 3676   2.810   6.607   4.350
  281POPC   GL2 3677   2.640   6.252   4.365
  281POPC   C1A 3678   2.926   6.497   4.783
  281POPC   D2A 3679   2.812   6.405   5.201
  281POPC   C3A 3680   3.041   6.479   5.586
  281POPC   C4A 3681   2.952   6.688   5.979
  281POPC   C1B 3682   2.402   6.308   4.782
  281POPC   C2B 3683   2.327   6.266   5.235
  281POPC   C3B 3684   2.565   6.237   5.610
  281POPC   C4B 3685   2.627   5.889   5.895
  282POPC   NC3 3686   2.448  10.312   3.979
  282POPC   PO4 3687   2.253   9.737   4.164
  282POPC   GL1 3688   2.631   9.919   4.362
  282POPC   GL2 3689   2.793  10.262   4.342
  282POPC   C1A 3690   2.561  10.061   4.777
  282POPC   D2A 3691   2.400   9.884   5.126
  282POPC   C3A 3692   2.597  10.080   5.506
  282POPC   C4A 3693   2.460  10.189   5.916
  282POPC   C1B 3694   2.794  10.496   4.735
  282POPC   C2B 3695   2.712  10.435   5.146
  282POPC   C3B 3696   2.972  10.454   5.501
  282POPC   C4B 3697   2.955  10.390   5.943
  283POPC   NC3 3698   5.347   0.685   3.999
  283POPC   PO4 3699   5.987   0.916   3.909
  283POPC   GL1 3700   5.862   0.559   4.286
  283POPC   GL2 3701   5.616   0.247   4.321
  283POPC   C1A 3702   5.749   0.448   4.763
  283POPC   D2A 3703   5.619   0.692   5.125
  283POPC   C3A 3704   5.837   0.713   5.491
  283POPC   C4A 3705   5.854   0.465   5.893
  283POPC   C1B 3706   5.330   0.134   4.679
  283POPC   C2B 3707   5.440   0.168   5.097
  283POPC   C3B 3708   5.533   0.307   5.497
  283POPC   C4B 3709   5.400   0.227   5.901
  284POPC   NC3 3710   4.499   1.163   3.769
  284POPC   PO4 3711   3.874   0.897   4.007
  284POPC   GL1 3712   3.996   1.025   4.374
  284POPC   GL2 3713   4.092   1.381   4.447
  284POPC   C1A 3714   3.828   0.888   4.728
  284POPC   D2A 3715   3.874   1.135   5.088
  284POPC   C3A 3716   4.074   1.032   5.461
  284POPC   C4A 3717   3.949   0.876   5.852
  284POPC   C1B 3718   4.287   1.202   4.796
  284POPC   C2B 3719   4.444   1.305   5.201
  284POPC   C3B 3720   4.326   1.462   5.592
  284POPC   C4B 3721   4.225   1.584   6.000
  285POPC   NC3 3722   3.229   5.250   4.048
  285POPC   PO4 3723   2.662   5.366   3.811
  285POPC   GL1 3724   2.390   5.338   4.190
  285POPC   GL2 3725   2.315   5.686   4.301
  285POPC   C1A 3726   2.402   5.296   4.651
  285POPC   D2A 3727   2.476   5.444   5.058
  285POPC   C3A 3728   2.749   5.425   5.395
  285POPC   C4A 3729   2.758   5.395   5.822
  285POPC   C1B 3730   2.562   5.805   4.665
  285POPC   C2B 3731   2.683   5.919   5.105
  285POPC   C3B 3732   2.946   5.928   5.484
  285POPC   C4B 3733   3.208   5.668   5.750
  286POPC   NC3 3734   4.796   9.389   3.899
  286POPC   PO4 3735   5.125   9.858   4.067
  286POPC   GL1 3736   4.846   9.623   4.352
  286POPC   GL2 3737   4.894   9.250   4.381
  286POPC   C1A 3738   4.515   9.632   4.688
  286POPC   D2A 3739   4.562   9.564   5.145
  286POPC   C3A 3740   4.640   9.689   5.586
  286POPC   C4A 3741   4.610   9.695   6.055
  286POPC   C1B 3742   4.898   9.309   4.819
  286POPC   C2B 3743   4.936   9.078   5.189
  286POPC   C3B 3744   5.163   9.119   5.564
  286POPC   C4B 3745   4.899   9.326   5.848
  287POPC   NC3 3746   7.918   5.192   3.747
  287POPC   PO4 3747   7.894   5.798   3.901
  287POPC   GL1 3748   7.993   5.601   4.285
  287POPC   GL2 3749   8.312   5.647   4.417
  287POPC   C1A 3750   7.867   5.689   4.723
  287POPC   D2A 3751   8.019   5.591   5.185
  287POPC   C3A 3752   7.709   5.722   5.539
  287POPC   C4A 3753   7.496   5.567   5.945
  287POPC   C1B 3754   8.370   5.817   4.827
  287POPC   C2B 3755   8.529   5.719   5.237
  287POPC   C3B 3756   8.348   5.527   5.595
  287POPC   C4B 3757   8.089   5.743   5.866
  288POPC   NC3 3758   9.738   9.169   3.769
  288POPC   PO4 3759  10.473   9.094   3.879
  288POPC   GL1 3760  10.218   9.158   4.233
  288POPC   GL2 3761  10.060   9.505   4.249
  288POPC   C1A 3762  10.196   9.045   4.665
  288POPC   D2A 3763  10.159   9.210   5.067
  288POPC   C3A 3764  10.245   8.983   5.435
  288POPC   C4A 3765  10.185   9.099   5.866
  288POPC   C1B 3766  10.296   9.561   4.658
  288POPC   C2B 3767  10.305   9.710   5.102
  288POPC   C3B 3768  10.249   9.506   5.494
  288POPC   C4B 3769   9.954   9.582   5.809
  289POPC   NC3 3770   9.250   9.143   4.141
  289POPC   PO4 3771   9.472   9.610   3.739
  289POPC   GL1 3772   9.564   9.619   4.253
  289POPC   GL2 3773   9.321   9.523   4.476
  289POPC   C1A 3774   9.788   9.492   4.731
  289POPC   D2A 3775   9.788   9.515   5.226
  289POPC   C3A 3776   9.780   9.179   5.562
  289POPC   C4A 3777   9.732   9.194   6.078
  289POPC   C1B 3778   9.318   9.400   4.883
  289POPC   C2B 3779   9.055   9.153   5.084
  289POPC   C3B 3780   9.160   9.361   5.462
  289POPC   C4B 3781   9.423   9.455   5.772
  290POPC   NC3 3782   8.800   9.477   3.911
  290POPC   PO4 3783   8.574   8.963   4.157
  290POPC   GL1 3784   8.822   9.265   4.377
  290POPC   GL2 3785   8.532   9.458   4.373
  290POPC   C1A 3786   8.859   9.563   4.738
  290POPC   D2A 3787   8.770   9.571   5.181
  290POPC   C3A 3788   8.941   9.815   5.487
  290POPC   C4A 3789   9.024   9.728   5.916
  290POPC   C1B 3790   8.504   9.155   4.752
  290POPC   C2B 3791   8.539   8.987   5.152
  290POPC   C3B 3792   8.762   9.063   5.487
  290POPC   C4B 3793   8.697   9.371   5.756
  291POPC   NC3 3794   2.472   4.930   3.846
  291POPC   PO4 3795   3.145   4.801   4.029
  291POPC   GL1 3796   2.814   5.032   4.221
  291POPC   GL2 3797   2.560   4.864   4.372
  291POPC   C1A 3798   2.890   5.206   4.629
  291POPC   D2A 3799   2.810   5.042   5.036
  291POPC   C3A 3800   3.086   4.998   5.402
  291POPC   C4A 3801   3.106   4.985   5.855
  291POPC   C1B 3802   2.365   4.789   4.768
  291POPC   C2B 3803   2.359   4.921   5.188
  291POPC   C3B 3804   2.616   4.922   5.586
  291POPC   C4B 3805   2.516   4.999   6.018
  292POPC   NC3 3806  10.228   8.644   3.820
  292POPC   PO4 3807   9.613   8.730   3.712
  292POPC   GL1 3808   9.873   8.649   4.170
  292POPC   GL2 3809  10.212   8.629   4.310
  292POPC   C1A 3810   9.872   8.632   4.677
  292POPC   D2A 3811  10.061   8.677   5.045
  292POPC   C3A 3812   9.840   8.682   5.429
  292POPC   C4A 3813   9.738   8.744   5.837
  292POPC   C1B 3814  10.302   8.302   4.603
  292POPC   C2B 3815  10.473   8.348   5.005
  292POPC   C3B 3816  10.289   8.424   5.411
  292POPC   C4B 3817  10.215   8.589   5.775
  293POPC   NC3 3818   8.271   9.241   3.964
  293POPC   PO4 3819   7.701   9.477   3.754
  293POPC   GL1 3820   7.757   9.289   4.208
  293POPC   GL2 3821   8.069   9.201   4.410
  293POPC   C1A 3822   7.660   9.314   4.687
  293POPC   D2A 3823   7.800   9.476   5.106
  293POPC   C3A 3824   7.661   9.294   5.480
  293POPC   C4A 3825   7.484   9.445   5.839
  293POPC   C1B 3826   8.142   9.523   4.709
  293POPC   C2B 3827   8.299   9.445   5.113
  293POPC   C3B 3828   8.227   9.343   5.513
  293POPC   C4B 3829   7.979   9.567   5.777
  294POPC   NC3 3830   0.983   8.546   3.850
  294POPC   PO4 3831   1.466   8.200   3.984
  294POPC   GL1 3832   1.288   8.437   4.288
  294POPC   GL2 3833   1.258   8.796   4.197
  294POPC   C1A 3834   1.156   8.376   4.713
  294POPC   D2A 3835   1.002   8.568   5.089
  294POPC   C3A 3836   0.901   8.339   5.463
  294POPC   C4A 3837   0.959   8.609   5.803
  294POPC   C1B 3838   1.402   8.816   4.623
  294POPC   C2B 3839   1.516   8.642   5.001
  294POPC   C3B 3840   1.456   8.573   5.423
  294POPC   C4B 3841   1.447   8.748   5.815
  295POPC   NC3 3842   1.464   1.034   4.116
  295POPC   PO4 3843   1.086   1.466   3.718
  295POPC   GL1 3844   1.030   1.388   4.203
  295POPC   GL2 3845   1.085   1.057   4.409
  295POPC   C1A 3846   1.018   1.506   4.673
  295POPC   D2A 3847   0.819   1.511   5.093
  295POPC   C3A 3848   1.053   1.443   5.470
  295POPC   C4A 3849   0.988   1.477   5.909
  295POPC   C1B 3850   1.357   1.112   4.792
  295POPC   C2B 3851   1.470   1.264   5.221
  295POPC   C3B 3852   1.351   1.068   5.614
  295POPC   C4B 3853   1.212   0.858   5.945
  296POPC   NC3 3854   7.980   1.695   3.926
  296POPC   PO4 3855   7.416   1.620   4.120
  296POPC   GL1 3856   7.706   1.768   4.357
  296POPC   GL2 3857   7.695   2.105   4.226
  296POPC   C1A 3858   7.928   1.614   4.706
  296POPC   D2A 3859   8.027   1.408   5.087
  296POPC   C3A 3860   7.973   1.704   5.426
  296POPC   C4A 3861   7.768   1.895   5.773
  296POPC   C1B 3862   7.874   2.160   4.652
  296POPC   C2B 3863   8.053   2.011   5.024
  296POPC   C3B 3864   7.923   2.197   5.403
  296POPC   C4B 3865   7.993   2.366   5.788
  297POPC   NC3 3866   2.522   2.005   3.674
  297POPC   PO4 3867   3.009   2.052   4.032
  297POPC   GL1 3868   2.674   2.039   4.287
  297POPC   GL2 3869   2.570   1.707   4.373
  297POPC   C1A 3870   2.564   2.193   4.715
  297POPC   D2A 3871   2.736   2.358   5.097
  297POPC   C3A 3872   2.553   2.327   5.512
  297POPC   C4A 3873   2.549   2.315   5.977
  297POPC   C1B 3874   2.633   1.700   4.756
  297POPC   C2B 3875   2.605   1.855   5.144
  297POPC   C3B 3876   2.758   1.695   5.504
  297POPC   C4B 3877   2.741   1.842   5.876
  298POPC   NC3 3878  10.408   0.144   4.002
  298POPC   PO4 3879  10.248   9.946   3.926
  298POPC   GL1 3880  10.295  10.142   4.283
  298POPC   GL2 3881   9.938  10.230   4.251
  298POPC   C1A 3882  10.428  10.060   4.730
  298POPC   D2A 3883   0.110  10.169   5.137
  298POPC   C3A 3884  10.358  10.264   5.487
  298POPC   C4A 3885  10.355   9.920   5.783
  298POPC   C1B 3886   9.930   9.974   4.617
  298POPC   C2B 3887   9.961  10.096   5.045
  298POPC   C3B 3888   9.944   9.958   5.464
  298POPC   C4B 3889   9.903  10.219   5.825
  299POPC   NC3 3890   0.985   9.520   3.799
  299POPC   PO4 3891   0.792   8.939   3.962
  299POPC   GL1 3892   0.942   9.204   4.282
  299POPC   GL2 3893   1.229   9.414   4.282
  299POPC   C1A 3894   1.087   9.203   4.714
  299POPC   D2A 3895   1.340   9.140   5.069
  299POPC   C3A 3896   1.122   9.304   5.403
  299POPC   C4A 3897   1.047   9.101   5.779
  299POPC   C1B 3898   1.320   9.685   4.646
  299POPC   C2B 3899   1.313   9.848   5.069
  299POPC   C3B 3900   1.248   9.805   5.477
  299POPC   C4B 3901   1.265   9.552   5.831
  300POPC   NC3 3902   8.013   0.457   3.903
  300POPC   PO4 3903   8.519  10.499   3.923
  300POPC   GL1 3904   8.437   0.317   4.265
  300POPC   GL2 3905   8.212   0.599   4.354
  300POPC   C1A 3906   8.279   0.213   4.683
  300POPC   D2A 3907   8.178   0.420   5.055
  300POPC   C3A 3908   8.298   0.236   5.439
  300POPC   C4A 3909   8.090   0.094   5.785
  300POPC   C1B 3910   7.851   0.571   4.636
  300POPC   C2B 3911   7.672   0.457   5.058
  300POPC   C3B 3912   7.822   0.405   5.453
  300POPC   C4B 3913   7.910   0.744   5.736
  301POPC   NC3 3914   4.069   8.778   3.825
  301POPC   PO4 3915   4.408   8.248   3.742
  301POPC   GL1 3916   4.349   8.475   4.164
  301POPC   GL2 3917   4.051   8.628   4.296
  301POPC   C1A 3918   4.467   8.572   4.602
  301POPC   D2A 3919   4.335   8.714   5.011
  301POPC   C3A 3920   4.384   8.544   5.427
  301POPC   C4A 3921   4.310   8.788   5.741
  301POPC   C1B 3922   3.964   8.817   4.668
  301POPC   C2B 3923   3.781   8.600   5.011
  301POPC   C3B 3924   3.901   8.691   5.427
  301POPC   C4B 3925   3.896   8.483   5.837
  302POPC   NC3 3926   9.960   3.535   3.927
  302POPC   PO4 3927   0.074   3.354   3.935
  302POPC   GL1 3928  10.379   3.582   4.294
  302POPC   GL2 3929  10.058   3.395   4.405
  302POPC   C1A 3930  10.406   3.602   4.773
  302POPC   D2A 3931  10.241   3.494   5.197
  302POPC   C3A 3932  10.345   3.680   5.587
  302POPC   C4A 3933  10.446   3.381   5.939
  302POPC   C1B 3934   9.880   3.714   4.687
  302POPC   C2B 3935   9.996   3.916   5.064
  302POPC   C3B 3936   9.836   3.757   5.447
  302POPC   C4B 3937   9.936   3.370   5.635
  303POPC   NC3 3938   0.886   6.394   3.745
  303POPC   PO4 3939   1.457   6.126   3.894
  303POPC   GL1 3940   1.401   6.271   4.285
  303POPC   GL2 3941   1.133   6.517   4.242
  303POPC   C1A 3942   1.453   6.365   4.701
  303POPC   D2A 3943   1.336   6.118   5.039
  303POPC   C3A 3944   1.396   6.300   5.413
  303POPC   C4A 3945   1.382   6.082   5.779
  303POPC   C1B 3946   0.976   6.557   4.688
  303POPC   C2B 3947   0.991   6.492   5.155
  303POPC   C3B 3948   0.964   6.504   5.640
  303POPC   C4B 3949   0.817   6.630   6.096
  304POPC   NC3 3950   9.996   5.883   4.020
  304POPC   PO4 3951   0.138   5.571   3.805
  304POPC   GL1 3952  10.364   5.530   4.286
  304POPC   GL2 3953  10.065   5.509   4.340
  304POPC   C1A 3954  10.256   5.759   4.718
  304POPC   D2A 3955   0.051   5.828   5.033
  304POPC   C3A 3956  10.373   5.627   5.354
  304POPC   C4A 3957   0.007   5.578   5.744
  304POPC   C1B 3958   9.797   5.422   4.688
  304POPC   C2B 3959   9.916   5.494   5.100
  304POPC   C3B 3960   9.821   5.564   5.504
  304POPC   C4B 3961  10.048   5.830   5.677
  305POPC   NC3 3962   8.482   4.799   3.915
  305POPC   PO4 3963   9.135   4.714   4.044
  305POPC   GL1 3964   8.847   4.746   4.355
  305POPC   GL2 3965   8.744   5.090   4.307
  305POPC   C1A 3966   8.870   4.602   4.780
  305POPC   D2A 3967   8.735   4.788   5.172
  305POPC   C3A 3968   8.786   4.793   5.600
  305POPC   C4A 3969   8.926   4.520   5.878
  305POPC   C1B 3970   8.572   5.009   4.738
  305POPC   C2B 3971   8.408   5.178   5.175
  305POPC   C3B 3972   8.333   5.009   5.586
  305POPC   C4B 3973   8.389   5.173   6.007
  306POPC   NC3 3974   1.096   2.815   3.655
  306POPC   PO4 3975   0.891   2.332   4.179
  306POPC   GL1 3976   0.889   2.464   4.496
  306POPC   GL2 3977   1.205   2.435   4.585
  306POPC   C1A 3978   0.731   2.495   4.836
  306POPC   D2A 3979   0.909   2.742   5.078
  306POPC   C3A 3980   1.079   2.601   5.452
  306POPC   C4A 3981   0.792   2.382   5.624
  306POPC   C1B 3982   1.304   2.410   5.001
  306POPC   C2B 3983   1.405   2.839   5.119
  306POPC   C3B 3984   1.380   3.019   5.493
  306POPC   C4B 3985   1.311   2.939   5.919
  307POPC   NC3 3986   7.996   8.137   3.885
  307POPC   PO4 3987   7.644   7.490   3.842
  307POPC   GL1 3988   7.901   7.732   4.183
  307POPC   GL2 3989   7.786   8.004   4.359
  307POPC   C1A 3990   8.107   7.722   4.627
  307POPC   D2A 3991   8.008   7.610   5.051
  307POPC   C3A 3992   8.131   7.806   5.432
  307POPC   C4A 3993   8.258   7.814   5.869
  307POPC   C1B 3994   7.685   7.968   4.791
  307POPC   C2B 3995   7.655   7.969   5.204
  307POPC   C3B 3996   7.641   7.779   5.572
  307POPC   C4B 3997   7.824   8.082   5.755
  308POPC   NC3 3998   4.333   7.831   3.899
  308POPC   PO4 3999   3.827   8.385   3.883
  308POPC   GL1 4000   3.940   8.133   4.245
  308POPC   GL2 4001   4.046   7.784   4.299
  308POPC   C1A 4002   4.028   8.276   4.666
  308POPC   D2A 4003   4.188   8.243   5.062
  308POPC   C3A 4004   4.060   8.165   5.476
  308POPC   C4A 4005   4.173   8.069   5.943
  308POPC   C1B 4006   4.224   7.792   4.744
  308POPC   C2B 4007   4.232   7.745   5.174
  308POPC   C3B 4008   4.329   7.742   5.588
  308POPC   C4B 4009   3.953   7.530   5.749
  309POPC   NC3 4010   0.795  10.197   3.888
  309POPC   PO4 4011   1.276   9.814   3.981
  309POPC   GL1 4012   1.024   9.968   4.295
  309POPC   GL2 4013   1.046  10.358   4.342
  309POPC   C1A 4014   0.965  10.033   4.725
  309POPC   D2A 4015   0.861  10.116   5.123
  309POPC   C3A 4016   0.753   9.826   5.416
  309POPC   C4A 4017   0.874   9.857   5.814
  309POPC   C1B 4018   0.950   0.037   4.783
  309POPC   C2B 4019   1.131   0.047   5.213
  309POPC   C3B 4020   1.054  10.277   5.583
  309POPC   C4B 4021   1.320  10.112   5.919
  310POPC   NC3 4022   3.398   8.808   3.895
  310POPC   PO4 4023   3.169   8.292   3.619
  310POPC   GL1 4024   3.407   8.395   4.171
  310POPC   GL2 4025   3.551   8.741   4.362
  310POPC   C1A 4026   3.504   8.319   4.626
  310POPC   D2A 4027   3.308   8.306   5.037
  310POPC   C3A 4028   3.532   8.355   5.403
  310POPC   C4A 4029   3.363   8.421   5.789
  310POPC   C1B 4030   3.307   8.786   4.762
  310POPC   C2B 4031   3.269   8.804   5.182
  310POPC   C3B 4032   3.322   9.025   5.502
  310POPC   C4B 4033   3.580   8.883   5.785
  311POPC   NC3 4034   8.669   2.880   3.962
  311POPC   PO4 4035   9.033   2.351   3.783
  311POPC   GL1 4036   8.901   2.369   4.213
  311POPC   GL2 4037   8.574   2.516   4.318
  311POPC   C1A 4038   8.901   2.309   4.662
  311POPC   D2A 4039   9.068   2.501   5.056
  311POPC   C3A 4040   8.925   2.464   5.490
  311POPC   C4A 4041   8.833   2.464   5.957
  311POPC   C1B 4042   8.675   2.764   4.718
  311POPC   C2B 4043   8.588   2.701   5.166
  311POPC   C3B 4044   8.607   2.841   5.592
  311POPC   C4B 4045   8.370   2.860   5.909
  312POPC   NC3 4046   8.851   1.979   3.569
  312POPC   PO4 4047   8.403   1.500   3.922
  312POPC   GL1 4048   8.387   1.796   4.274
  312POPC   GL2 4049   8.749   1.880   4.331
  312POPC   C1A 4050   8.395   2.088   4.637
  312POPC   D2A 4051   8.557   2.200   5.029
  312POPC   C3A 4052   8.411   2.011   5.403
  312POPC   C4A 4053   8.460   2.339   5.661
  312POPC   C1B 4054   8.912   1.799   4.771
  312POPC   C2B 4055   8.886   1.868   5.232
  312POPC   C3B 4056   8.868   1.971   5.645
  312POPC   C4B 4057   8.996   1.747   5.999
  313POPC   NC3 4058   8.019   4.201   4.102
  313POPC   PO4 4059   8.576   4.371   3.769
  313POPC   GL1 4060   8.519   4.376   4.203
  313POPC   GL2 4061   8.509   4.068   4.235
  313POPC   C1A 4062   8.416   4.409   4.657
  313POPC   D2A 4063   8.568   4.293   5.060
  313POPC   C3A 4064   8.459   4.437   5.477
  313POPC   C4A 4065   8.406   4.191   5.811
  313POPC   C1B 4066   8.858   4.122   4.564
  313POPC   C2B 4067   8.986   4.014   4.995
  313POPC   C3B 4068   8.903   4.188   5.425
  313POPC   C4B 4069   8.970   4.021   5.793
  314POPC   NC3 4070   3.487   8.038   3.832
  314POPC   PO4 4071   2.926   8.286   4.107
  314POPC   GL1 4072   3.141   7.933   4.285
  314POPC   GL2 4073   3.492   7.873   4.298
  314POPC   C1A 4074   3.247   7.889   4.745
  314POPC   D2A 4075   3.280   7.752   5.156
  314POPC   C3A 4076   3.256   7.959   5.552
  314POPC   C4A 4077   2.962   8.090   5.819
  314POPC   C1B 4078   3.730   7.858   4.661
  314POPC   C2B 4079   3.737   8.009   5.044
  314POPC   C3B 4080   3.718   7.804   5.410
  314POPC   C4B 4081   3.697   8.020   5.798
  315POPC   NC3 4082   2.791   8.026   3.756
  315POPC   PO4 4083   2.273   8.454   3.945
  315POPC   GL1 4084   2.458   8.290   4.305
  315POPC   GL2 4085   2.555   7.931   4.223
  315POPC   C1A 4086   2.400   8.173   4.723
  315POPC   D2A 4087   2.429   8.305   5.127
  315POPC   C3A 4088   2.437   8.113   5.457
  315POPC   C4A 4089   2.208   8.033   5.787
  315POPC   C1B 4090   2.768   7.858   4.615
  315POPC   C2B 4091   2.858   8.043   5.029
  315POPC   C3B 4092   2.818   7.806   5.386
  315POPC   C4B 4093   2.613   7.730   5.760
  316POPC   NC3 4094   0.246   2.920   3.871
  316POPC   PO4 4095   0.730   2.556   3.693
  316POPC   GL1 4096   0.666   2.768   4.132
  316POPC   GL2 4097   0.387   2.635   4.357
  316POPC   C1A 4098   0.707   2.938   4.577
  316POPC   D2A 4099   0.428   2.920   4.954
  316POPC   C3A 4100   0.483   2.875   5.393
  316POPC   C4A 4101   0.621   2.804   5.814
  316POPC   C1B 4102   0.231   2.480   4.764
  316POPC   C2B 4103   0.381   2.403   5.206
  316POPC   C3B 4104   0.287   2.465   5.634
  316POPC   C4B 4105   0.169   2.532   6.058
  317POPC   NC3 4106   2.010   2.704   3.878
  317POPC   PO4 4107   1.341   2.429   3.806
  317POPC   GL1 4108   1.585   2.397   4.243
  317POPC   GL2 4109   1.928   2.470   4.308
  317POPC   C1A 4110   1.648   2.660   4.687
  317POPC   D2A 4111   1.800   2.506   5.115
  317POPC   C3A 4112   1.619   2.552   5.532
  317POPC   C4A 4113   1.781   2.905   5.767
  317POPC   C1B 4114   2.124   2.443   4.716
  317POPC   C2B 4115   2.296   2.631   5.107
  317POPC   C3B 4116   2.141   2.632   5.500
  317POPC   C4B 4117   2.095   2.523   5.902
  318POPC   NC3 4118  10.240   1.908   3.854
  318POPC   PO4 4119   0.034   2.510   4.008
  318POPC   GL1 4120   0.031   2.054   4.257
  318POPC   GL2 4121  10.171   1.825   4.389
  318POPC   C1A 4122  10.496   2.022   4.725
  318POPC   D2A 4123  10.460   1.770   5.123
  318POPC   C3A 4124  10.255   1.955   5.497
  318POPC   C4A 4125  10.284   2.396   5.651
  318POPC   C1B 4126  10.024   1.799   4.855
  318POPC   C2B 4127   9.848   2.064   5.196
  318POPC   C3B 4128   9.804   2.142   5.649
  318POPC   C4B 4129   9.973   1.908   5.974
  319POPC   NC3 4130   7.834   6.265   3.877
  319POPC   PO4 4131   8.200   6.784   3.595
  319POPC   GL1 4132   8.179   6.845   4.163
  319POPC   GL2 4133   8.178   6.488   4.252
  319POPC   C1A 4134   7.974   6.827   4.597
  319POPC   D2A 4135   7.896   6.565   4.967
  319POPC   C3A 4136   8.104   6.595   5.382
  319POPC   C4A 4137   7.936   6.781   5.771
  319POPC   C1B 4138   8.047   6.186   4.601
  319POPC   C2B 4139   7.930   6.066   5.046
  319POPC   C3B 4140   8.146   6.036   5.438
  319POPC   C4B 4141   8.000   6.261   5.784
  320POPC   NC3 4142   5.034  10.249   3.839
  320POPC   PO4 4143   4.461   0.092   3.923
  320POPC   GL1 4144   4.591  10.396   4.328
  320POPC   GL2 4145   4.948  10.327   4.356
  320POPC   C1A 4146   4.707  10.442   4.780
  320POPC   D2A 4147   4.984  10.431   5.113
  320POPC   C3A 4148   4.828  10.140   5.415
  320POPC   C4A 4149   4.617  10.171   5.819
  320POPC   C1B 4150   4.882   9.983   4.706
  320POPC   C2B 4151   5.043   9.759   5.064
  320POPC   C3B 4152   5.229   9.762   5.468
  320POPC   C4B 4153   5.060   9.911   5.856
  321POPC   NC3 4154   7.699   2.781   3.737
  321POPC   PO4 4155   8.249   3.074   3.864
  321POPC   GL1 4156   8.133   2.876   4.263
  321POPC   GL2 4157   7.857   2.629   4.234
  321POPC   C1A 4158   8.185   2.625   4.650
  321POPC   D2A 4159   8.062   2.514   5.047
  321POPC   C3A 4160   8.132   2.720   5.448
  321POPC   C4A 4161   7.844   2.851   5.818
  321POPC   C1B 4162   7.664   2.636   4.653
  321POPC   C2B 4163   7.539   2.424   5.030
  321POPC   C3B 4164   7.630   2.599   5.423
  321POPC   C4B 4165   7.506   2.433   5.795
  322POPC   NC3 4166   3.739   2.867   3.972
  322POPC   PO4 4167   3.220   2.618   4.029
  322POPC   GL1 4168   3.416   2.464   4.430
  322POPC   GL2 4169   3.728   2.679   4.436
  322POPC   C1A 4170   3.722   2.306   4.752
  322POPC   D2A 4171   3.918   2.649   4.983
  322POPC   C3A 4172   3.677   2.721   5.387
  322POPC   C4A 4173   3.428   2.409   5.659
  322POPC   C1B 4174   3.407   2.940   4.626
  322POPC   C2B 4175   3.248   3.094   5.011
  322POPC   C3B 4176   3.060   3.101   5.414
  322POPC   C4B 4177   3.271   2.912   5.718
  323POPC   NC3 4178   1.183   3.777   3.914
  323POPC   PO4 4179   1.430   4.413   3.874
  323POPC   GL1 4180   1.248   4.204   4.220
  323POPC   GL2 4181   0.910   4.256   4.368
  323POPC   C1A 4182   1.349   4.381   4.623
  323POPC   D2A 4183   1.225   4.541   5.019
  323POPC   C3A 4184   1.184   4.307   5.380
  323POPC   C4A 4185   1.112   4.400   5.799
  323POPC   C1B 4186   0.899   4.198   4.787
  323POPC   C2B 4187   1.245   4.015   4.964
  323POPC   C3B 4188   1.471   3.879   5.318
  323POPC   C4B 4189   1.290   3.926   5.741
  324POPC   NC3 4190   9.337   8.485   3.982
  324POPC   PO4 4191   9.702   9.115   4.218
  324POPC   GL1 4192   9.465   8.794   4.415
  324POPC   GL2 4193   9.503   8.443   4.426
  324POPC   C1A 4194   9.399   8.896   4.782
  324POPC   D2A 4195   9.656   9.025   5.075
  324POPC   C3A 4196   9.386   8.891   5.372
  324POPC   C4A 4197   9.293   8.959   5.739
  324POPC   C1B 4198   9.348   8.385   4.738
  324POPC   C2B 4199   9.526   8.494   5.073
  324POPC   C3B 4200   9.420   8.375   5.468
  324POPC   C4B 4201   9.331   8.455   5.852
  325POPC   NC3 4202   5.680   1.312   3.849
  325POPC   PO4 4203   5.198   1.081   4.181
  325POPC   GL1 4204   5.622   1.005   4.309
  325POPC   GL2 4205   5.910   1.248   4.307
  325POPC   C1A 4206   5.810   0.959   4.723
  325POPC   D2A 4207   5.987   1.264   5.027
  325POPC   C3A 4208   5.833   1.234   5.459
  325POPC   C4A 4209   5.926   0.997   5.885
  325POPC   C1B 4210   5.586   1.411   4.626
  325POPC   C2B 4211   5.451   1.251   5.045
  325POPC   C3B 4212   5.318   1.107   5.471
  325POPC   C4B 4213   5.510   1.292   5.844
  326POPC   NC3 4214  10.403   1.137   3.890
  326POPC   PO4 4215   0.173   1.734   3.736
  326POPC   GL1 4216   0.016   1.535   4.189
  326POPC   GL2 4217  10.250   1.231   4.340
  326POPC   C1A 4218  10.423   1.521   4.674
  326POPC   D2A 4219  10.317   1.258   5.014
  326POPC   C3A 4220  10.125   1.455   5.359
  326POPC   C4A 4221  10.262   1.521   5.784
  326POPC   C1B 4222  10.154   0.908   4.658
  326POPC   C2B 4223  10.140   0.691   5.049
  326POPC   C3B 4224   9.997   0.747   5.440
  326POPC   C4B 4225  10.151   1.037   5.739
  327POPC   NC3 4226   0.963   1.895   4.024
  327POPC   PO4 4227   1.547   1.490   4.082
  327POPC   GL1 4228   1.450   1.619   4.429
  327POPC   GL2 4229   1.305   1.952   4.408
  327POPC   C1A 4230   1.524   1.620   4.839
  327POPC   D2A 4231   1.241   1.799   5.139
  327POPC   C3A 4232   1.344   2.092   5.469
  327POPC   C4A 4233   1.401   1.746   5.739
  327POPC   C1B 4234   0.988   2.015   4.749
  327POPC   C2B 4235   0.882   2.155   5.171
  327POPC   C3B 4236   0.867   1.899   5.514
  327POPC   C4B 4237   1.003   2.019   5.908
  328POPC   NC3 4238   9.339   3.473   3.861
  328POPC   PO4 4239   9.862   3.091   3.859
  328POPC   GL1 4240   9.580   3.184   4.229
  328POPC   GL2 4241   9.549   3.552   4.321
  328POPC   C1A 4242   9.588   3.215   4.696
  328POPC   D2A 4243   9.753   3.349   5.095
  328POPC   C3A 4244   9.487   3.229   5.433
  328POPC   C4A 4245   9.571   3.087   5.864
  328POPC   C1B 4246   9.177   3.527   4.624
  328POPC   C2B 4247   9.000   3.504   5.051
  328POPC   C3B 4248   8.951   3.647   5.437
  328POPC   C4B 4249   9.247   3.557   5.740
  329POPC   NC3 4250   9.411   2.212   4.020
  329POPC   PO4 4251   9.116   1.599   4.054
  329POPC   GL1 4252   9.270   1.908   4.382
  329POPC   GL2 4253   9.664   1.958   4.387
  329POPC   C1A 4254   9.381   2.184   4.732
  329POPC   D2A 4255   9.342   2.020   5.109
  329POPC   C3A 4256   9.353   2.221   5.450
  329POPC   C4A 4257   9.264   2.201   5.861
  329POPC   C1B 4258   9.526   1.691   4.762
  329POPC   C2B 4259   9.603   1.593   5.214
  329POPC   C3B 4260   9.352   1.737   5.597
  329POPC   C4B 4261   9.487   1.781   6.078
  330POPC   NC3 4262   0.221   7.130   3.875
  330POPC   PO4 4263   0.043   6.547   3.900
  330POPC   GL1 4264   0.260   6.811   4.266
  330POPC   GL2 4265   0.343   7.172   4.372
  330POPC   C1A 4266   0.214   6.813   4.721
  330POPC   D2A 4267   0.462   6.979   5.080
  330POPC   C3A 4268   0.221   7.136   5.433
  330POPC   C4A 4269   0.376   7.091   5.830
  330POPC   C1B 4270   0.690   7.259   4.695
  330POPC   C2B 4271   0.879   7.369   5.085
  330POPC   C3B 4272   0.679   7.377   5.474
  330POPC   C4B 4273   0.674   7.508   5.878
  331POPC   NC3 4274   1.493   5.013   3.931
  331POPC   PO4 4275   2.128   4.791   4.119
  331POPC   GL1 4276   2.035   5.042   4.422
  331POPC   GL2 4277   1.714   5.002   4.383
  331POPC   C1A 4278   1.977   5.091   4.857
  331POPC   D2A 4279   1.999   5.358   5.153
  331POPC   C3A 4280   2.236   5.266   5.521
  331POPC   C4A 4281   2.034   5.093   5.884
  331POPC   C1B 4282   1.755   4.670   4.700
  331POPC   C2B 4283   1.643   4.799   5.113
  331POPC   C3B 4284   1.893   4.900   5.407
  331POPC   C4B 4285   2.175   4.670   5.606
  332POPC   NC3 4286   1.081   7.945   3.933
  332POPC   PO4 4287   0.583   7.437   3.995
  332POPC   GL1 4288   0.749   7.782   4.294
  332POPC   GL2 4289   1.081   7.954   4.417
  332POPC   C1A 4290   0.773   7.770   4.743
  332POPC   D2A 4291   1.023   7.983   5.014
  332POPC   C3A 4292   0.912   7.813   5.372
  332POPC   C4A 4293   1.075   7.816   5.758
  332POPC   C1B 4294   1.460   7.984   4.632
  332POPC   C2B 4295   1.540   8.125   5.043
  332POPC   C3B 4296   1.348   8.084   5.431
  332POPC   C4B 4297   1.360   8.242   5.855
  333POPC   NC3 4298  10.075   6.539   4.004
  333POPC   PO4 4299  10.428   5.982   4.130
  333POPC   GL1 4300  10.167   6.220   4.388
  333POPC   GL2 4301  10.318   6.560   4.433
  333POPC   C1A 4302  10.068   6.273   4.804
  333POPC   D2A 4303  10.082   6.020   5.176
  333POPC   C3A 4304  10.416   6.137   5.448
  333POPC   C4A 4305  10.244   6.246   5.824
  333POPC   C1B 4306  10.172   6.806   4.731
  333POPC   C2B 4307  10.035   6.706   5.134
  333POPC   C3B 4308  10.193   6.623   5.494
  333POPC   C4B 4309  10.476   6.712   5.816
  334POPC   NC3 4310   3.495   3.755   3.831
  334POPC   PO4 4311   3.932   3.315   3.929
  334POPC   GL1 4312   3.659   3.272   4.302
  334POPC   GL2 4313   3.335   3.505   4.302
  334POPC   C1A 4314   3.615   3.403   4.731
  334POPC   D2A 4315   3.470   3.561   5.108
  334POPC   C3A 4316   3.546   3.248   5.412
  334POPC   C4A 4317   3.638   3.238   5.825
  334POPC   C1B 4318   3.088   3.493   4.701
  334POPC   C2B 4319   2.919   3.487   5.118
  334POPC   C3B 4320   3.143   3.599   5.496
  334POPC   C4B 4321   3.576   3.725   5.607
  335POPC   NC3 4322  10.358   5.216   3.898
  335POPC   PO4 4323   9.892   4.721   3.821
  335POPC   GL1 4324  10.180   4.685   4.189
  335POPC   GL2 4325  10.278   5.002   4.335
  335POPC   C1A 4326  10.235   4.624   4.659
  335POPC   D2A 4327  10.102   4.437   5.027
  335POPC   C3A 4328  10.137   4.644   5.400
  335POPC   C4A 4329   9.966   4.801   5.757
  335POPC   C1B 4330  10.233   5.175   4.697
  335POPC   C2B 4331  10.120   5.033   5.086
  335POPC   C3B 4332  10.280   5.134   5.481
  335POPC   C4B 4333  10.119   5.294   5.839
  336POPC   NC3 4334   6.362   1.230   3.873
  336POPC   PO4 4335   6.735   1.769   3.640
  336POPC   GL1 4336   6.662   1.552   4.149
  336POPC   GL2 4337   6.579   1.165   4.307
  336POPC   C1A 4338   6.759   1.468   4.648
  336POPC   D2A 4339   6.566   1.216   4.985
  336POPC   C3A 4340   6.654   1.328   5.410
  336POPC   C4A 4341   6.666   1.099   5.833
  336POPC   C1B 4342   6.313   0.936   4.610
  336POPC   C2B 4343   6.208   0.786   5.046
  336POPC   C3B 4344   6.287   0.980   5.450
  336POPC   C4B 4345   6.251   1.358   5.732
  337POPC   NC3 4346   2.329   9.637   3.726
  337POPC   PO4 4347   2.749   9.161   3.881
  337POPC   GL1 4348   2.888   9.440   4.361
  337POPC   GL2 4349   3.002   9.192   4.582
  337POPC   C1A 4350   2.785   9.605   4.775
  337POPC   D2A 4351   2.901   9.822   5.143
  337POPC   C3A 4352   2.656   9.580   5.450
  337POPC   C4A 4353   2.484   9.690   5.838
  337POPC   C1B 4354   2.764   9.061   4.883
  337POPC   C2B 4355   2.807   9.050   5.285
  337POPC   C3B 4356   2.613   9.105   5.616
  337POPC   C4B 4357   2.935   9.240   5.819
  338POPC   NC3 4358   6.446   2.565   3.655
  338POPC   PO4 4359   6.422   3.110   4.042
  338POPC   GL1 4360   6.460   2.963   4.447
  338POPC   GL2 4361   6.411   2.620   4.365
  338POPC   C1A 4362   6.494   2.917   4.893
  338POPC   D2A 4363   6.199   2.648   5.121
  338POPC   C3A 4364   6.197   2.782   5.553
  338POPC   C4A 4365   6.475   2.905   5.958
  338POPC   C1B 4366   6.622   2.470   4.699
  338POPC   C2B 4367   6.599   2.325   5.096
  338POPC   C3B 4368   6.638   2.569   5.435
  338POPC   C4B 4369   6.540   2.434   5.830
  339POPC   NC3 4370   1.299   1.040   3.629
  339POPC   PO4 4371   1.291   0.598   4.170
  339POPC   GL1 4372   1.091   0.455   4.508
  339POPC   GL2 4373   1.370   0.220   4.583
  339POPC   C1A 4374   0.924   0.763   4.778
  339POPC   D2A 4375   1.063   0.921   5.181
  339POPC   C3A 4376   1.038   0.613   5.517
  339POPC   C4A 4377   0.797   0.225   5.586
  339POPC   C1B 4378   1.324   0.504   4.953
  339POPC   C2B 4379   1.548   0.746   5.237
  339POPC   C3B 4380   1.546   0.579   5.615
  339POPC   C4B 4381   1.408   0.138   5.667
  340POPC   NC3 4382   1.875   1.783   3.968
  340POPC   PO4 4383   2.278   2.297   3.931
  340POPC   GL1 4384   2.172   2.027   4.337
  340POPC   GL2 4385   1.848   1.942   4.424
  340POPC   C1A 4386   2.152   1.925   4.821
  340POPC   D2A 4387   2.172   2.145   5.212
  340POPC   C3A 4388   2.300   1.900   5.566
  340POPC   C4A 4389   2.263   1.897   6.013
  340POPC   C1B 4390   1.669   2.156   4.707
  340POPC   C2B 4391   1.684   2.028   5.083
  340POPC   C3B 4392   1.804   1.805   5.399
  340POPC   C4B 4393   1.868   2.094   5.714
  341POPC   NC3 4394   8.550   6.717   3.895
  341POPC   PO4 4395   9.138   6.915   3.917
  341POPC   GL1 4396   8.907   6.974   4.301
  341POPC   GL2 4397   8.746   7.250   4.424
  341POPC   C1A 4398   8.507   6.817   4.530
  341POPC   D2A 4399   8.358   6.769   4.937
  341POPC   C3A 4400   8.450   6.970   5.314
  341POPC   C4A 4401   8.426   6.964   5.759
  341POPC   C1B 4402   8.796   7.085   4.818
  341POPC   C2B 4403   8.986   7.100   5.133
  341POPC   C3B 4404   8.928   7.329   5.399
  341POPC   C4B 4405   8.873   7.186   5.774
  342W        W 4406   1.297   4.695  10.444
  343W        W 4407   6.562   2.890   1.426
  344W        W 4408   6.498   8.529   9.171
  345W        W 4409   2.638   8.754  11.384
  346W        W 4410   6.230   6.137   1.323
  347W        W 4411   8.637   1.955   1.205
  348W        W 4412   3.763   7.520  11.545
  349W        W 4413   3.847   1.823   1.717
  350W        W 4414   6.947   3.256   0.073
  351W        W 4415   3.754   7.475   2.328
  352W        W 4416   7.664   7.451   3.072
  353W        W 4417   7.255   2.895  10.922
  354W        W 4418   6.618   6.069   2.509
  355W        W 4419  10.420   4.084   2.358
  356W        W 4420   0.728   2.884  11.585
  357W        W 4421   2.104   0.957  11.404
  358W        W 4422   0.775   2.609   8.763
  359W        W 4423   3.843   2.356  10.513
  360W        W 4424   7.598   0.745  11.928
  361W        W 4425   7.990   6.278  10.355
  362W        W 4426   9.621   5.039   1.984
  363W        W 4427   2.662   7.890   2.245
  364W        W 4428   3.742   6.452  10.494
  365W        W 4429   3.662   8.973   2.270
  366W        W 4430   5.592   9.695   1.312
  367W        W 4431   2.550   8.905   9.203
  368W        W 4432   4.951   4.819   1.663
  369W        W 4433   6.100   8.008   0.890
  370W        W 4434   9.171   3.283   9.388
  371W        W 4435  10.272   4.682   1.613
  372W        W 4436   8.549   9.351   3.233
  373W        W 4437   9.810   1.691  10.511
  374W        W 4438   4.627   4.388  10.880
  375W        W 4439   2.848   9.546   0.895
  376W        W 4440   3.922   8.617  11.477
  377W        W 4441  10.443   0.169   9.902
  378W        W 4442   8.534   8.349  10.397
  379W        W 4443   2.261   4.326   3.278
  380W        W 4444   3.349   9.671   0.982
  381W        W 4445   1.134   4.468   1.805
  382W        W 4446   6.134   8.569  10.939
  383W        W 4447   1.647   6.050   3.411
  384W        W 4448   1.533   9.236   0.403
  385W        W 4449   0.444   1.155   3.099
  386W        W 4450   2.177   7.851  11.041
  387W        W 4451   6.803   9.036  10.329
  388W        W 4452   3.061   7.701  11.930
  389W        W 4453   6.090   7.775  10.632
  390W        W 4454   2.588   5.238   2.840
  391W        W 4455   6.632   8.443  11.097
  392W        W 4456   9.022   9.478   3.041
  393W        W 4457   4.639  10.255   0.042
  394W        W 4458   7.314   6.235   3.909
  395W        W 4459   3.560   4.139   2.678
  396W        W 4460   1.509   9.630   3.548
  397W        W 4461  10.207   9.587   0.145
  398W        W 4462   3.777   7.714  10.041
  399W        W 4463   7.510  10.485   1.384
  400W        W 4464   5.139   4.572   8.239
  401W        W 4465   0.306   9.554  10.119
  402W        W 4466   9.691   9.463   2.444
  403W        W 4467   6.032   3.973   1.266
  404W        W 4468   7.210   1.311  10.337
  405W        W 4469   8.390   7.644   0.766
  406W        W 4470   3.797   0.248  10.069
  407W        W 4471   9.386   4.476   3.148
  408W        W 4472   2.363   3.240   9.354
  409W        W 4473   7.888   4.476  10.873
  410W        W 4474   7.978   7.610   3.457
  411W        W 4475   5.635   6.989   0.420
  412W        W 4476   9.056   9.161   2.153
  413W        W 4477   5.605   7.301   1.869
  414W        W 4478   8.416   6.282   8.589
  415W        W 4479   1.088   9.226   9.641
  416W        W 4480   8.082  10.165  10.158
  417W        W 4481   1.888  10.460   3.304
  418W        W 4482   7.863   0.963   2.260
  419W        W 4483   6.851   4.666   0.041
  420W        W 4484   8.875   3.499   2.380
  421W        W 4485   1.677   2.027   2.307
  422W        W 4486   9.663   8.341   0.801
  423W        W 4487   5.456   7.446  10.003
  424W        W 4488   1.299   7.445  10.951
  425W        W 4489   6.050   4.765  11.448
  426W        W 4490   0.921   9.554   0.418
  427W        W 4491   1.370   9.893   2.412
  428W        W 4492   4.129   4.502   0.208
  429W        W 4493   4.077   9.452   9.889
  430W        W 4494   4.817   3.213  10.300
  431W        W 4495   5.123   7.923   8.981
  432W        W 4496   6.047   9.990   2.715
  433W        W 4497   8.862   4.816  11.822
  434W        W 4498   0.850   7.562   3.104
  435W        W 4499   0.864   4.959   2.657
  436W        W 4500   4.357  10.404  10.006
  437W        W 4501   3.850   0.441  11.452
  438W        W 4502   0.027   7.000  11.324
  439W        W 4503   8.444   3.127   8.854
  440W        W 4504   3.579   6.408   3.659
  441W        W 4505   4.261   8.472   0.747
  442W        W 4506   4.267   8.840  11.111
  443W        W 4507   1.920   5.617   3.335
  444W        W 4508   7.593   8.587   1.245
  445W        W 4509   5.029   7.202   4.067
  446W        W 4510   6.447   9.798  11.491
  447W        W 4511   7.149   0.886   9.191
  448W        W 4512   4.778  10.452  10.596
  449W        W 4513   9.018   5.650   3.471
  450W        W 4514   1.681   6.628   9.339
  451W        W 4515   8.432   4.018   2.206
  452W        W 4516   8.998   6.582   1.467
  453W        W 4517   7.458   7.702   2.684
  454W        W 4518   7.047   5.925   3.101
  455W        W 4519   1.836   6.628  10.839
  456W        W 4520   8.711   3.409   0.067
  457W        W 4521   7.171   0.800   1.008
  458W        W 4522   1.902   5.283   9.119
  459W        W 4523   9.050   5.466  10.119
  460W        W 4524  10.242   5.014   0.721
  461W        W 4525   2.854   4.716   3.584
  462W        W 4526   0.978   7.014   1.320
  463W        W 4527   0.888   4.439  10.289
  464W        W 4528   6.963   4.920   0.929
  465W        W 4529   6.409   2.046   9.528
  466W        W 4530   7.505   0.507  11.290
  467W        W 4531   5.623   8.479  10.853
  468W        W 4532   3.754   7.126   9.122
  469W        W 4533  10.134   7.585  10.410
  470W        W 4534   9.342   1.842  10.367
  471W        W 4535   1.585   1.912   1.753
  472W        W 4536   7.063   3.124   3.063
  473W        W 4537   3.992   0.366   8.683
  474W        W 4538   4.782   4.909   8.446
  475W        W 4539   5.040   2.585   0.349
  476W        W 4540   6.698   6.684  11.895
  477W        W 4541   7.752   0.469   2.304
  478W        W 4542   4.534   9.650   8.532
  479W        W 4543   8.377   0.860   2.312
  480W        W 4544   5.268   9.148  11.967
  481W        W 4545   4.709   6.607  10.720
  482W        W 4546   6.727   3.102   0.985
  483W        W 4547   0.842   2.138   0.689
  484W        W 4548   8.435   7.333   3.430
  485W        W 4549   1.325  10.343   3.303
  486W        W 4550   6.461   6.979   3.270
  487W        W 4551   3.768   8.491   0.896
  488W        W 4552   5.703   8.439   2.696
  489W        W 4553   2.668   6.045   8.367
  490W        W 4554   3.698   8.698   3.501
  491W        W 4555   2.127   8.527   1.621
  492W        W 4556   7.274   6.494  10.722
  493W        W 4557   1.194   5.636   9.020
  494W        W 4558   7.735   6.862   9.288
  495W        W 4559   4.558   7.124  10.724
  496W        W 4560   5.444   3.684   8.212
  497W        W 4561   3.156   4.118   9.761
  498W        W 4562   8.962   1.319   9.731
  499W        W 4563   0.035   3.148   2.669
  500W        W 4564   6.017   4.774   2.479
  501W        W 4565   7.733   8.977  11.497
  502W        W 4566   4.131   2.588   9.461
  503W        W 4567  10.017   0.181  10.195
  504W        W 4568   7.541   0.056   3.401
  505W        W 4569   0.740   2.518  10.748
  506W        W 4570   3.212   6.743   2.482
  507W        W 4571   1.151   2.369   9.693
  508W        W 4572   4.093   6.245   1.979
  509W        W 4573   3.826   5.014  10.628
  510W        W 4574   9.236   2.771  11.360
  511W        W 4575   5.405   4.886   3.641
  512W        W 4576   8.569   9.866   1.685
  513W        W 4577   2.440   9.192   1.204
  514W        W 4578   4.510   4.541   9.993
  515W        W 4579   6.748   7.546   1.336
  516W        W 4580   4.647   9.294  11.559
  517W        W 4581   5.165   3.627   3.255
  518W        W 4582   8.936   5.998   0.835
  519W        W 4583   2.775   3.712   3.204
  520W        W 4584   6.914   4.358   3.934
  521W        W 4585   4.826   9.834  10.310
  522W        W 4586  10.399   6.088   8.893
  523W        W 4587   5.275   4.066   0.194
  524W        W 4588   9.485   4.248   0.740
  525W        W 4589   5.308   4.126  10.328
  526W        W 4590  10.253   4.261  10.101
  527W        W 4591   4.296  10.110   2.713
  528W        W 4592   2.536   1.234   3.104
  529W        W 4593   6.173   3.473   3.106
  530W        W 4594   6.940   0.363   2.011
  531W        W 4595   2.775   1.422   1.003
  532W        W 4596   5.991   3.138   8.874
  533W        W 4597   3.157   2.232   9.535
  534W        W 4598   9.122   4.180   9.567
  535W        W 4599   8.457   2.448   0.391
  536W        W 4600   5.689   5.462   9.496
  537W        W 4601   2.661   1.516   9.083
  538W        W 4602   8.904   4.288  10.517
  539W        W 4603   2.207   9.949   9.003
  540W        W 4604   5.777   7.157  11.902
  541W        W 4605   8.473   3.857   2.727
  542W        W 4606  10.192   9.567   2.390
  543W        W 4607   9.321   5.087  11.014
  544W        W 4608   7.910   6.429   2.267
  545W        W 4609   6.931   4.760   9.800
  546W        W 4610   1.275   5.137   2.361
  547W        W 4611   9.646   0.427  10.432
  548W        W 4612   9.810   0.370   1.235
  549W        W 4613   4.789   1.767   1.944
  550W        W 4614   5.321   7.371   0.301
  551W        W 4615   0.531   4.006  11.395
  552W        W 4616   8.056   5.614   3.442
  553W        W 4617   4.244   8.291  11.185
  554W        W 4618   4.742   9.853   2.690
  555W        W 4619   1.336   9.774   1.390
  556W        W 4620  10.339   1.172   1.389
  557W        W 4621   7.942   5.457   9.375
  558W        W 4622   3.872   0.673   9.793
  559W        W 4623   0.488   0.820   2.733
  560W        W 4624   3.774   9.527   0.647
  561W        W 4625   1.588   1.976  10.982
  562W        W 4626   5.477   2.622   9.239
  563W        W 4627   3.493   3.377   0.366
  564W        W 4628   4.044   8.234  10.312
  565W        W 4629   9.113   1.458   8.734
  566W        W 4630   8.051   6.258  11.709
  567W        W 4631   8.100   4.613  10.439
  568W        W 4632   3.262   0.899   8.689
  569W        W 4633   2.330   8.192   1.317
  570W        W 4634   0.623   6.001   3.263
  571W        W 4635   3.515   6.725   3.225
  572W        W 4636   8.240   3.408   0.262
  573W        W 4637   3.033   0.106   0.948
  574W        W 4638   2.635  10.229   8.840
  575W        W 4639   3.749   1.415   1.391
  576W        W 4640   2.069   5.090   9.759
  577W        W 4641   4.241   0.226  11.756
  578W        W 4642   9.920   4.879  10.053
  579W        W 4643   5.444   1.301  10.016
  580W        W 4644   9.903   8.562   9.511
  581W        W 4645   0.770   4.042   9.973
  582W        W 4646   9.335   0.477   9.527
  583W        W 4647   3.943   5.916   3.213
  584W        W 4648  10.228   7.397   8.493
  585W        W 4649   5.184   8.231   1.441
  586W        W 4650   7.055   1.538  10.825
  587W        W 4651  10.255   1.653   2.891
  588W        W 4652   2.288   2.689   0.659
  589W        W 4653  10.341   9.403   8.991
  590W        W 4654   1.744   3.329  11.489
  591W        W 4655   7.865   9.350   2.122
  592W        W 4656   9.950   3.762   1.150
  593W        W 4657   1.248   0.041  10.316
  594W        W 4658   1.492   8.970   9.417
  595W        W 4659   7.948   8.516  10.721
  596W        W 4660  10.055   4.350   3.356
  597W        W 4661   5.558   4.998  11.360
  598W        W 4662   1.705   2.704   2.900
  599W        W 4663   0.047   4.293   3.513
  600W        W 4664   8.373   0.487  11.258
  601W        W 4665  10.364  10.371   1.248
  602W        W 4666   1.042   4.791   3.142
  603W        W 4667   4.527   6.208   8.543
  604W        W 4668  10.193   3.396   3.464
  605W        W 4669  10.388   5.158  10.083
  606W        W 4670   8.925   5.257   2.251
  607W        W 4671   9.403   6.132   3.256
  608W        W 4672  10.287   0.626  10.080
  609W        W 4673   4.283   3.776   2.713
  610W        W 4674  10.350  10.084  10.759
  611W        W 4675   7.117   3.285  10.591
  612W        W 4676   4.956   2.136   9.686
  613W        W 4677   6.353   3.578   8.483
  614W        W 4678  10.400   3.783   1.442
  615W        W 4679   9.557   5.857   2.404
  616W        W 4680   5.075   2.609   9.556
  617W        W 4681   1.769  10.280  11.659
  618W        W 4682   3.624   1.304  10.410
  619W        W 4683   8.357  10.051  10.918
  620W        W 4684   2.895   1.268   0.229
  621W        W 4685   2.384   8.390   9.209
  622W        W 4686  10.261  10.197   1.744
  623W        W 4687   9.726   2.672   0.456
  624W        W 4688   0.364   1.163   1.752
  625W        W 4689   2.111   5.550   9.531
  626W        W 4690   8.086   6.933   1.436
  627W        W 4691   0.314   9.517   9.600
  628W        W 4692   5.321   5.049   1.404
  629W        W 4693   5.343   0.204   1.178
  630W        W 4694   9.488   7.951   9.923
  631W        W 4695   9.767   7.839  11.849
  632W        W 4696   3.796   2.316   3.555
  633W        W 4697   9.880   3.836   9.324
  634W        W 4698   6.559   7.442  10.122
  635W        W 4699   7.666   3.174   9.261
  636W        W 4700   3.197   0.603   3.558
  637W        W 4701   0.850   3.966   8.936
  638W        W 4702   8.451   0.347  11.726
  639W        W 4703   0.837   0.459   8.970
  640W        W 4704   7.089   4.103   2.580
  641W        W 4705   9.473   0.040   8.498
  642W        W 4706   5.150   7.234   1.655
  643W        W 4707   6.044   2.066   2.148
  644W        W 4708   9.580   7.042  11.524
  645W        W 4709   5.187   7.639   2.584
  646W        W 4710   7.485   7.667   8.892
  647W        W 4711   3.584   5.158   1.220
  648W        W 4712   7.880   3.969  10.999
  649W        W 4713   6.159   5.989   2.757
  650W        W 4714   6.164   1.874   9.103
  651W        W 4715   7.909   4.344   0.462
  652W        W 4716   5.797   8.374  10.012
  653W        W 4717   7.154   5.940  11.825
  654W        W 4718   0.925   1.419   9.805
  655W        W 4719   9.954   6.231   0.897
  656W        W 4720   8.163   5.643   0.585
  657W        W 4721   2.825   5.028   9.561
  658W        W 4722   0.396   1.246  11.851
  659W        W 4723   8.023   5.408   1.310
  660W        W 4724   4.549   9.863   2.203
  661W        W 4725   2.599   1.984  11.798
  662W        W 4726   1.860   4.814   8.583
  663W        W 4727   6.027   3.236   0.737
  664W        W 4728   0.149   9.322   2.487
  665W        W 4729   6.538   1.389   1.340
  666W        W 4730   7.175   0.392   9.419
  667W        W 4731   2.130   6.600   9.016
  668W        W 4732   7.008   3.196   0.570
  669W        W 4733   2.439   9.650   0.206
  670W        W 4734   4.015   3.266  10.031
  671W        W 4735   5.067   3.515   2.782
  672W        W 4736   8.807   8.412  11.873
  673W        W 4737   4.578   0.600  10.496
  674W        W 4738   4.255   0.931   9.982
  675W        W 4739   5.158   0.881   8.918
  676W        W 4740   9.961   0.311   0.213
  677W        W 4741   6.046   9.650   0.024
  678W        W 4742   6.516   4.738  11.666
  679W        W 4743   2.285   1.273   8.493
  680W        W 4744   1.761   4.672  10.616
  681W        W 4745   4.207   8.000   1.637
  682W        W 4746   4.627   0.525   1.017
  683W        W 4747   7.484   0.147  10.867
  684W        W 4748   0.106   4.942  11.265
  685W        W 4749   4.041   2.882  10.390
  686W        W 4750   7.981   6.787   0.943
  687W        W 4751   7.867   9.035   1.342
  688W        W 4752   5.672   4.515  10.297
  689W        W 4753   2.095   8.585  11.432
  690W        W 4754   5.661   7.562   2.320
  691W        W 4755   7.722   1.869  11.394
  692W        W 4756   0.517   6.970  11.127
  693W        W 4757   2.817   4.510   1.508
  694W        W 4758   9.845   1.204  10.661
  695W        W 4759   6.009   0.645   1.468
  696W        W 4760   0.715   0.672  10.352
  697W        W 4761   9.576   2.622   9.993
  698W        W 4762   3.573   9.185   1.798
  699W        W 4763   1.488   5.608   2.390
  700W        W 4764   4.962   6.561   9.048
  701W        W 4765   6.402   0.717   9.521
  702W        W 4766   2.366   3.063  10.969
  703W        W 4767   4.616   6.059   2.849
  704W        W 4768   5.196   2.227   0.022
  705W        W 4769   3.778   9.860   2.734
  706W        W 4770   3.036   8.003  10.045
  707W        W 4771   3.820   8.221   1.878
  708W        W 4772   2.472   0.951   2.176
  709W        W 4773   3.005   1.113  11.361
  710W        W 4774   0.357   2.387   9.157
  711W        W 4775   8.544   7.169   1.588
  712W        W 4776   2.323   1.221   1.717
  713W        W 4777   4.156   1.773   0.206
  714W        W 4778   5.653   7.933   2.852
  715W        W 4779   2.772   7.017  11.326
  716W        W 4780   7.177   1.698   2.335
  717W        W 4781   7.310   8.563  11.512
  718W        W 4782   1.320   3.318   8.741
  719W        W 4783   0.940   3.697  11.254
  720W        W 4784   1.868   4.129   1.247
  721W        W 4785   8.027   8.360   9.725
  722W        W 4786   2.054   7.628  10.063
  723W        W 4787   6.185   3.047   2.235
  724W        W 4788   1.203  10.010  11.688
  725W        W 4789   6.446   6.989  10.533
  726W        W 4790   5.758   6.587   8.496
  727W        W 4791   0.875   2.640   0.603
  728W        W 4792   9.962   6.123  11.980
  729W        W 4793   9.436   8.683  11.313
  730W        W 4794   9.222   5.228  10.529
  731W        W 4795   8.826   2.865   3.142
  732W        W 4796   0.585   9.460   3.395
  733W        W 4797   1.414   6.705   1.397
  734W        W 4798   6.532   8.025  11.391
  735W        W 4799   6.118   8.425   8.855
  736W        W 4800   1.003  10.189   2.246
  737W        W 4801   2.808   2.177   1.255
  738W        W 4802   5.141   3.602   0.035
  739W        W 4803   7.560   4.563   3.694
  740W        W 4804   6.001   0.563  10.630
  741W        W 4805   0.786   0.137   2.296
  742W        W 4806  10.174  10.235   9.979
  743W        W 4807   3.519   8.847  11.691
  744W        W 4808   2.811   5.077   1.861
  745W        W 4809   1.482   0.952   2.537
  746W        W 4810   6.600   6.525   2.179
  747W        W 4811   2.596   7.027   9.745
  748W        W 4812   4.755   7.524   2.293
  749W        W 4813   0.002   3.448  11.956
  750W        W 4814   3.241   8.955   1.471
  751W        W 4815   4.623  10.229   3.504
  752W        W 4816   9.122   8.802   1.814
  753W        W 4817   6.118  10.482   2.686
  754W        W 4818   6.448   3.381   2.666
  755W        W 4819   4.521   3.090   8.905
  756W        W 4820   4.641   0.779   3.351
  757W        W 4821   2.176   8.040   2.422
  758W        W 4822   8.656   1.782   1.997
  759W        W 4823   9.484   6.981   8.826
  760W        W 4824   7.401   2.283   8.787
  761W        W 4825   2.759   1.660   0.550
  762W        W 4826   7.701   8.612   8.908
  763W        W 4827   3.260   4.525   1.766
  764W        W 4828   9.861   8.754   1.015
  765W        W 4829   0.232   9.858  10.543
  766W        W 4830   9.412   5.124  10.033
  767W        W 4831   7.897   4.583   1.537
  768W        W 4832   3.367   9.465   1.435
  769W        W 4833   0.682   5.633   9.569
  770W        W 4834   4.033   6.624   9.214
  771W        W 4835   5.847   1.652   1.930
  772W        W 4836   7.306  10.026   9.231
  773W        W 4837   6.730   4.696   9.099
  774W        W 4838   2.307   8.219  10.689
  775W        W 4839   4.516   8.344   8.435
  776W        W 4840   5.610   8.775   9.697
  777W        W 4841   8.354   9.441  11.798
  778W        W 4842   7.330   7.846  11.034
  779W        W 4843   6.837   9.813   1.674
  780W        W 4844   7.688   2.640  10.950
  781W        W 4845   7.074   6.901   0.815
  782W        W 4846   0.462  10.298  10.477
  783W        W 4847   1.255   7.935   9.104
  784W        W 4848   1.846   8.386   0.258
  785W        W 4849   1.689   3.826   0.433
  786W        W 4850   8.316   9.057   9.260
  787W        W 4851   2.371   5.728  11.886
  788W        W 4852   6.385   4.005   9.725
  789W        W 4853   9.787   2.821   1.455
  790W        W 4854   3.182   7.485   0.384
  791W        W 4855   1.815   5.714   0.527
  792W        W 4856   6.233   5.538   3.033
  793W        W 4857   9.974   9.980   0.368
  794W        W 4858   4.597  10.411   9.166
  795W        W 4859  10.488   7.938   1.839
  796W        W 4860   3.719   7.062  11.841
  797W        W 4861   8.373   1.288   9.080
  798W        W 4862   9.140   8.031   0.620
  799W        W 4863   1.255   5.534   0.608
  800W        W 4864   2.279  10.017   2.528
  801W        W 4865   3.756   8.436  11.943
  802W        W 4866   0.788   0.177  10.480
  803W        W 4867   9.566   8.942   0.191
  804W        W 4868   4.880   1.673   3.673
  805W        W 4869   3.414  10.375  10.375
  806W        W 4870   3.101   8.530  10.352
  807W        W 4871   4.908   4.173  11.271
  808W        W 4872   6.199   1.406   0.245
  809W        W 4873   9.091   5.534  10.941
  810W        W 4874   0.405   6.044   8.817
  811W        W 4875   7.025   2.734   1.714
  812W        W 4876   2.635   3.222   1.990
  813W        W 4877   1.886   7.963   1.448
  814W        W 4878   1.924  10.389   2.657
  815W        W 4879   8.589   4.676  10.566
  816W        W 4880   9.907   8.346   3.299
  817W        W 4881   3.902   3.401   0.698
  818W        W 4882   5.010   4.533   3.608
  819W        W 4883   3.587   7.871   9.382
  820W        W 4884   5.103   8.450   8.864
  821W        W 4885   4.623   6.840   3.454
  822W        W 4886   6.959   8.049   2.523
  823W        W 4887   0.005   3.654   8.865
  824W        W 4888   8.504  10.009   2.176
  825W        W 4889   0.348   9.899   1.713
  826W        W 4890   6.930  10.482   9.687
  827W        W 4891   6.510   6.610   9.765
  828W        W 4892  10.187   6.193   3.650
  829W        W 4893   7.666   8.882   1.973
  830W        W 4894   9.110   7.556  11.963
  831W        W 4895  10.013   3.282  10.978
  832W        W 4896   6.119   0.054   0.715
  833W        W 4897   1.222   3.634  10.079
  834W        W 4898   9.850   1.881   8.574
  835W        W 4899   0.274   2.685   1.506
  836W        W 4900   9.360   8.352   1.986
  837W        W 4901   2.811   7.424   3.421
  838W        W 4902   0.091   6.583   0.702
  839W        W 4903   8.132   9.382   8.665
  840W        W 4904   2.909   1.626  10.512
  841W        W 4905   2.372   7.012   8.770
  842W        W 4906   3.261   8.448  10.938
  843W        W 4907   4.026   6.199   8.337
  844W        W 4908   5.517   3.862   3.545
  845W        W 4909   1.707   8.010   9.355
  846W        W 4910   7.531   8.391   1.827
  847W        W 4911  10.439   4.216   1.177
  848W        W 4912   7.771   6.415  10.777
  849W        W 4913   7.149   7.476   3.193
  850W        W 4914   9.679   6.475  10.740
  851W        W 4915   3.173   2.653   0.983
  852W        W 4916   2.990   1.772   0.059
  853W        W 4917   3.285   4.893  11.540
  854W        W 4918   5.171   5.757  11.851
  855W        W 4919   1.364   3.319   1.178
  856W        W 4920   9.029   3.567  10.829
  857W        W 4921   8.182   8.806   0.411
  858W        W 4922   2.746   6.969   1.446
  859W        W 4923   9.834   7.344   1.759
  860W        W 4924   5.160  10.477  11.357
  861W        W 4925   5.772   8.084   3.398
  862W        W 4926   3.345   9.382   3.485
  863W        W 4927  10.415   0.860   1.817
  864W        W 4928   7.385   6.661   3.633
  865W        W 4929   7.507   4.890  11.794
  866W        W 4930   6.472   8.843   2.529
  867W        W 4931   6.977   7.490   1.802
  868W        W 4932   1.908   4.772   2.564
  869W        W 4933   7.642   9.156  10.003
  870W        W 4934   0.261   4.263   0.467
  871W        W 4935   7.069   2.689   8.804
  872W        W 4936   8.146   3.240   1.508
  873W        W 4937   1.279   6.225   1.513
  874W        W 4938   4.244   4.683  11.729
  875W        W 4939  10.442   7.517  10.015
  876W        W 4940   9.605   0.668   9.926
  877W        W 4941   9.935   0.720  10.775
  878W        W 4942   4.126   4.543   3.693
  879W        W 4943   3.571   9.045   9.097
  880W        W 4944   3.311   9.269   2.474
  881W        W 4945   5.008   7.665   0.046
  882W        W 4946   8.615   5.058  11.377
  883W        W 4947   0.408   0.509   9.257
  884W        W 4948   0.937   8.528  10.212
  885W        W 4949   4.230   2.332   2.971
  886W        W 4950   0.474   8.325   1.226
  887W        W 4951   1.828   8.866   1.874
  888W        W 4952   5.562   3.193   8.065
  889W        W 4953   3.816   0.379   0.447
  890W        W 4954   1.182   5.166   9.692
  891W        W 4955   9.082   9.372   3.519
  892W        W 4956   1.624   0.951   1.094
  893W        W 4957   7.619   1.049   1.146
  894W        W 4958   9.989  10.042   1.236
  895W        W 4959   1.246   5.013   0.388
  896W        W 4960   1.732   0.712   9.476
  897W        W 4961   1.812   6.667   2.273
  898W        W 4962   7.834   8.971  10.447
  899W        W 4963  10.423   3.136   8.755
  900W        W 4964  10.231   7.908   8.713
  901W        W 4965   9.139   9.581  10.961
  902W        W 4966  10.113   9.954   8.983
  903W        W 4967   2.392   7.264   0.943
  904W        W 4968  10.057   9.083   0.354
  905W        W 4969   0.286   0.688  10.675
  906W        W 4970   4.788   0.821   2.174
  907W        W 4971   4.519   8.702   3.572
  908W        W 4972  10.382   8.573   0.234
  909W        W 4973   3.271   2.095  10.806
  910W        W 4974   6.514   0.740  11.272
  911W        W 4975   0.050   3.279   2.165
  912W        W 4976   5.123   7.180   2.184
  913W        W 4977   1.111   3.793   2.399
  914W        W 4978   7.620   9.276  11.928
  915W        W 4979   9.842   1.247   0.504
  916W        W 4980   5.634   7.686  10.420
  917W        W 4981   2.822   7.433   0.730
  918W        W 4982   8.428   3.637   3.210
  919W        W 4983   0.651   5.603  11.861
  920W        W 4984   2.176   9.554   1.466
  921W        W 4985   5.466   7.695   3.730
  922W        W 4986   0.475   8.466   0.385
  923W        W 4987   5.962   7.549  11.589
  924W        W 4988   6.547   7.192   0.808
  925W        W 4989   8.759   7.320   0.907
  926W        W 4990   4.970   0.773   2.677
  927W        W 4991   4.424   6.933  11.198
  928W        W 4992   7.470   5.044   3.565
  929W        W 4993   3.045   3.014   1.757
  930W        W 4994   8.622   3.295   1.744
  931W        W 4995   1.255   2.742   3.166
  932W        W 4996   7.544   8.553  10.289
  933W        W 4997   4.854   3.100   2.260
  934W        W 4998   5.816   2.240   9.209
  935W        W 4999   6.493   9.352  10.735
  936W        W 5000   7.070   7.398   0.933
  937W        W 5001   4.982   5.505   2.142
  938W        W 5002   4.556   7.700   9.047
  939W        W 5003   0.529   9.909   0.270
  940W        W 5004   3.097   2.831  10.310
  941W        W 5005   0.314   5.542   1.852
  942W        W 5006  10.364   9.954   2.754
  943W        W 5007   9.916   9.569   9.279
  944W        W 5008   7.115   9.882   2.132
  945W        W 5009   5.666   6.008   2.940
  946W        W 5010  10.069   2.513   2.819
  947W        W 5011   8.386   2.942   0.303
  948W        W 5012   3.808   7.060  11.325
  949W        W 5013   6.099   6.551  10.088
  950W        W 5014   8.001   5.570   2.392
  951W        W 5015   5.206   7.654   2.059
  952W        W 5016   6.008   9.566   0.522
  953W        W 5017   9.757  10.494   3.845
  954W        W 5018   6.065   0.022  11.274
  955W        W 5019   6.528   4.015   0.016
  956W        W 5020   7.732   2.473   0.652
  957W        W 5021   1.911   4.827   3.650
  958W        W 5022   6.606   9.141   9.868
  959W        W 5023   1.406   0.573   2.923
  960W        W 5024   9.530   6.973  10.746
  961W        W 5025   9.115   3.054   2.329
  962W        W 5026   9.862   0.969   3.847
  963W        W 5027   0.627   4.730   8.684
  964W        W 5028   3.308   6.156  10.503
  965W        W 5029   6.176   7.192   3.627
  966W        W 5030   2.804   3.712   2.119
  967W        W 5031   3.576   6.481   2.203
  968W        W 5032   5.239   2.105   1.230
  969W        W 5033   3.391   5.001   0.785
  970W        W 5034   2.666   0.184   9.286
  971W        W 5035   4.596   4.593   1.947
  972W        W 5036  10.087   7.252   2.394
  973W        W 5037   7.079   8.332   8.603
  974W        W 5038   5.231   2.217   2.107
  975W        W 5039   1.200   5.253   2.949
  976W        W 5040   8.133   1.778   9.026
  977W        W 5041   6.653   5.417   9.506
  978W        W 5042   6.501   4.131   0.935
  979W        W 5043   4.985   1.420  10.202
  980W        W 5044   2.188   6.031   8.574
  981W        W 5045   0.924   6.836   2.815
  982W        W 5046   7.164   3.125   2.049
  983W        W 5047   7.478   6.602   0.947
  984W        W 5048   2.930   9.548  11.776
  985W        W 5049   0.719   2.346   2.133
  986W        W 5050   4.538   8.214   9.960
  987W        W 5051   2.437   9.374   3.192
  988W        W 5052   4.546   1.230   9.439
  989W        W 5053   3.877   3.634   3.508
  990W        W 5054   6.274   1.541   9.455
  991W        W 5055   4.738   6.538   4.226
  992W        W 5056   6.233   1.401   3.261
  993W        W 5057   9.512   4.135  11.345
  994W        W 5058   2.293   7.956   3.578
  995W        W 5059   1.632   5.520   1.888
  996W        W 5060   8.694   1.573   1.523
  997W        W 5061   1.290   9.477   9.246
  998W        W 5062   0.829   6.850   8.690
  999W        W 5063   2.888   1.428   2.795
 1000W        W 5064   5.602   9.498   9.953
 1001W        W 5065   0.558   1.803   1.373
 1002W        W 5066   5.517   6.932   0.926
 1003W        W 5067   5.510   4.863  10.856
 1004W        W 5068   1.750   9.971  10.833
 1005W        W 5069   3.791   4.943  11.615
 1006W        W 5070   0.028   6.224  10.891
 1007W        W 5071   8.363   2.786  11.431
 1008W        W 5072   6.784   8.501  11.568
 1009W        W 5073   1.326   0.541   1.156
 1010W        W 5074   0.926   7.318   2.654
 1011W        W 5075   1.220   0.602   1.674
 1012W        W 5076   5.204   5.620   9.419
 1013W        W 5077   7.655   4.754   8.738
 1014W        W 5078   3.739   4.574   2.444
 1015W        W 5079   9.538   9.752   9.623
 1016W        W 5080   5.829   3.236   3.906
 1017W        W 5081   9.087   3.107  11.003
 1018W        W 5082   8.176   1.742   1.279
 1019W        W 5083   0.708   9.903  11.782
 1020W        W 5084   8.702   8.947   0.487
 1021W        W 5085   6.932   7.958   9.363
 1022W        W 5086   9.073   2.611  10.887
 1023W        W 5087   7.559   0.975   8.906
 1024W        W 5088   4.093   4.707  10.272
 1025W        W 5089   4.508   8.943   1.654
 1026W        W 5090   3.552   0.012   0.192
 1027W        W 5091   6.762   6.165   1.310
 1028W        W 5092   7.675   1.784   2.331
 1029W        W 5093   7.975   1.954  10.036
 1030W        W 5094   6.007   4.497   3.868
 1031W        W 5095   2.825   6.021   0.565
 1032W        W 5096   4.911  10.497   0.413
 1033W        W 5097   1.895   6.131   8.976
 1034W        W 5098   8.946   9.397   0.809
 1035W        W 5099   6.514   8.920  11.555
 1036W        W 5100   8.661   0.213  10.390
 1037W        W 5101  10.047   2.641  10.134
 1038W        W 5102   1.347   2.343   2.818
 1039W        W 5103   1.988   7.600   2.642
 1040W        W 5104   4.230   9.956   0.159
 1041W        W 5105   0.214   8.599   9.889
 1042W        W 5106   9.412   6.579  11.672
 1043W        W 5107   2.069   7.600   8.699
 1044W        W 5108   7.492   3.145  11.816
 1045W        W 5109   4.073   6.616   0.438
 1046W        W 5110   4.106   6.615   0.951
 1047W        W 5111   8.431  10.039   0.748
 1048W        W 5112   5.081   6.705   3.878
 1049W        W 5113   6.506   3.506   0.067
 1050W        W 5114   0.276   3.738   2.228
 1051W        W 5115   0.691   6.442   9.014
 1052W        W 5116   9.073   5.012   0.365
 1053W        W 5117   9.611   3.111   2.253
 1054W        W 5118   3.452   4.656   9.117
 1055W        W 5119   9.724   7.287  10.381
 1056W        W 5120   6.740   3.944   8.422
 1057W        W 5121   1.294   4.158  10.022
 1058W        W 5122   4.247   4.692  10.762
 1059W        W 5123   8.140   9.554  10.905
 1060W        W 5124   4.522   6.857   9.342
 1061W        W 5125   9.771   9.878   2.171
 1062W        W 5126   7.420   4.677   0.280
 1063W        W 5127   8.563   3.780   0.917
 1064W        W 5128   0.075   1.955  10.703
 1065W        W 5129   4.376   5.246   1.010
 1066W        W 5130   9.290   8.826   9.908
 1067W        W 5131   5.855   0.382   9.112
 1068W        W 5132   9.936   2.207   9.298
 1069W        W 5133   4.113   7.873   9.292
 1070W        W 5134   6.567   2.808   1.936
 1071W        W 5135   3.570   1.440   3.515
 1072W        W 5136   1.750   1.670   9.093
 1073W        W 5137   5.990  10.411   1.173
 1074W        W 5138   9.995   6.140   9.634
 1075W        W 5139   2.767   4.733   3.054
 1076W        W 5140   9.001   0.952   1.690
 1077W        W 5141   2.733   5.509   0.259
 1078W        W 5142   5.933   4.853   1.981
 1079W        W 5143   2.661  10.218   0.203
 1080W        W 5144   5.586   9.752   3.228
 1081W        W 5145   0.004   2.312   0.431
 1082W        W 5146   5.695   1.910   2.529
 1083W        W 5147   5.996  10.081   0.459
 1084W        W 5148   2.641   2.691  11.272
 1085W        W 5149   4.832   8.596   1.473
 1086W        W 5150   8.101   8.106   3.402
 1087W        W 5151   0.805  10.315   3.300
 1088W        W 5152   5.623   5.946   9.475
 1089W        W 5153   2.868   7.887   0.980
 1090W        W 5154   0.216   2.641   3.355
 1091W        W 5155   6.579   1.189  11.515
 1092W        W 5156   5.977   0.845   0.945
 1093W        W 5157   7.898   7.785   0.687
 1094W        W 5158   1.831   5.510   1.397
 1095W        W 5159   2.701   3.391  11.751
 1096W        W 5160   1.371   6.474   3.529
 1097W        W 5161   3.319   8.397   2.110
 1098W        W 5162   6.618   6.699   0.859
 1099W        W 5163   3.308   8.671   1.047
 1100W        W 5164   7.422   0.254   2.894
 1101W        W 5165   0.505   3.378  11.833
 1102W        W 5166   3.791   8.810   2.760
 1103W        W 5167   2.758   4.317   1.031
 1104W        W 5168   6.011   3.672   0.470
 1105W        W 5169   2.321   8.110   0.382
 1106W        W 5170   9.950   6.333  10.318
 1107W        W 5171   9.798   8.967   9.945
 1108W        W 5172   1.599   3.895   2.277
 1109W        W 5173   2.791   9.522   3.528
 1110W        W 5174   9.932   5.457   1.927
 1111W        W 5175   2.182   7.335   9.153
 1112W        W 5176  10.493   1.129   9.883
 1113W        W 5177   3.133  10.271   1.946
 1114W        W 5178   7.009  10.351   1.243
 1115W        W 5179   0.414   9.334   1.002
 1116W        W 5180   4.522   0.460   2.987
 1117W        W 5181   3.408   3.555   0.847
 1118W        W 5182   7.220  10.351  10.533
 1119W        W 5183   5.075  10.483  11.911
 1120W        W 5184   4.809  10.006   9.381
 1121W        W 5185   7.233   8.845   0.810
 1122W        W 5186   5.403   5.775   9.897
 1123W        W 5187   9.334   9.090   2.980
 1124W        W 5188   3.523   3.099  10.090
 1125W        W 5189   1.312   8.139  10.182
 1126W        W 5190   4.109   4.180  10.880
 1127W        W 5191   9.449   3.252   2.712
 1128W        W 5192   5.727  10.021   9.845
 1129W        W 5193   4.604   9.446   1.507
 1130W        W 5194   9.217   8.672   8.890
 1131W        W 5195   3.422   1.806  11.757
 1132W        W 5196   3.522   6.218   3.185
 1133W        W 5197   0.032   4.060  11.314
 1134W        W 5198   6.497   6.144  10.998
 1135W        W 5199   5.602   8.758   1.505
 1136W        W 5200   1.317   6.925  10.524
 1137W        W 5201   4.748   1.687   9.571
 1138W        W 5202   4.562   9.583   9.533
 1139W        W 5203   6.026   1.052   9.453
 1140W        W 5204   9.634   6.712   2.690
 1141W        W 5205   6.685   7.930  10.378
 1142W        W 5206   9.935   2.607   9.618
 1143W        W 5207  10.386   4.721   1.130
 1144W        W 5208   4.313   2.233   2.483
 1145W        W 5209   3.847   9.828  10.884
 1146W        W 5210   7.782   7.010   2.829
 1147W        W 5211   9.014   7.912  10.119
 1148W        W 5212   3.239   7.282  11.682
 1149W        W 5213   7.489   7.362  10.942
 1150W        W 5214  10.443   3.278   9.241
 1151W        W 5215   4.036   6.545   2.449
 1152W        W 5216   3.276   6.227   1.374
 1153W        W 5217   5.542   5.337  11.757
 1154W        W 5218   3.706   4.585   9.898
 1155W        W 5219  10.252   9.360   1.576
 1156W        W 5220   1.265   7.585   1.174
 1157W        W 5221   0.670   1.968  10.877
 1158W        W 5222   9.127   0.420   3.520
 1159W        W 5223  10.358   6.162   9.971
 1160W        W 5224   0.811  10.260   9.577
 1161W        W 5225   9.878   8.591   0.422
 1162W        W 5226   6.064   9.444   1.447
 1163W        W 5227   0.875   1.667   0.998
 1164W        W 5228   0.348   3.693  11.036
 1165W        W 5229   8.119   8.706  11.220
 1166W        W 5230   0.349   7.862   1.439
 1167W        W 5231   4.749   8.603   0.970
 1168W        W 5232   4.694   5.152   0.275
 1169W        W 5233   5.653   2.129   1.841
 1170W        W 5234   5.446   6.497   0.429
 1171W        W 5235   9.301   9.634   0.548
 1172W        W 5236   2.719   8.056   9.008
 1173W        W 5237   3.564   9.389  10.812
 1174W        W 5238   7.635   2.685   9.041
 1175W        W 5239   0.390   6.686  10.399
 1176W        W 5240   9.395   3.921  10.879
 1177W        W 5241   9.732   0.872   2.235
 1178W        W 5242   9.085   4.465   1.261
 1179W        W 5243   8.460  10.004   9.856
 1180W        W 5244   3.762   4.560  10.870
 1181W        W 5245   7.245   0.302   2.411
 1182W        W 5246   2.111   0.282   0.128
 1183W        W 5247   7.595   5.178   0.230
 1184W        W 5248   8.075   0.842   0.934
 1185W        W 5249   6.398  10.290  11.579
 1186W        W 5250   5.019   5.699   8.933
 1187W        W 5251   8.168   0.728  10.863
 1188W        W 5252   0.672   2.389   1.630
 1189W        W 5253   6.508   5.086   9.961
 1190W        W 5254   5.628   3.124  11.410
 1191W        W 5255   9.786   2.577  10.571
 1192W        W 5256   8.365   2.629   3.048
 1193W        W 5257   3.147   8.830  11.271
 1194W        W 5258   4.128   7.965   9.795
 1195W        W 5259   6.028   2.784  11.459
 1196W        W 5260   9.814   5.304   2.400
 1197W        W 5261   2.625   2.395   9.757
 1198W        W 5262   3.634   0.362   2.501
 1199W        W 5263   4.628   3.251   3.134
 1200W        W 5264   0.225   7.927   2.323
 1201W        W 5265   4.236   5.447   3.233
 1202W        W 5266   3.356   5.477   2.727
 1203W        W 5267   3.843   7.463   9.506
 1204W        W 5268   3.883   5.806   8.002
 1205W        W 5269   0.793   3.571   9.754
 1206W        W 5270   9.843   6.286   2.348
 1207W        W 5271   1.672   0.312  11.374
 1208W        W 5272   9.568   3.665  11.945
 1209W        W 5273   2.647   8.847   3.196
 1210W        W 5274   5.156   8.585   2.392
 1211W        W 5275   8.805   4.575   8.645
 1212W        W 5276   2.191   4.162   9.559
 1213W        W 5277   9.832   3.062  10.358
 1214W        W 5278   9.720   2.659   9.150
 1215W        W 5279   8.477   8.581   0.772
 1216W        W 5280   2.145   3.896   3.534
 1217W        W 5281   2.431   7.503   9.603
 1218W        W 5282   3.627   9.007  11.207
 1219W        W 5283   4.357   4.011   2.268
 1220W        W 5284   5.229   7.163  11.833
 1221W        W 5285   0.758   3.270   1.077
 1222W        W 5286   1.432   2.595  11.100
 1223W        W 5287   2.259   7.002  11.473
 1224W        W 5288   5.678   6.411   9.344
 1225W        W 5289   4.319   3.139  10.960
 1226W        W 5290   7.639   5.757  11.772
 1227W        W 5291   1.647   5.363   9.600
 1228W        W 5292   4.226   3.149   9.464
 1229W        W 5293   0.414   2.282   2.992
 1230W        W 5294   0.379   6.392   1.626
 1231W        W 5295   1.411  10.235   8.986
 1232W        W 5296   7.093   4.725  11.015
 1233W        W 5297   9.709   3.652  11.447
 1234W        W 5298   4.455   5.735   8.798
 1235W        W 5299   8.825   8.924   9.133
 1236W        W 5300   4.999   1.340   8.680
 1237W        W 5301   5.503  10.357  11.697
 1238W        W 5302   8.047   2.801   1.209
 1239W        W 5303   9.388  10.490   0.018
 1240W        W 5304   4.153   8.927   9.028
 1241W        W 5305   2.157   1.835   2.509
 1242W        W 5306  10.020   0.489   2.026
 1243W        W 5307   3.505   8.086   9.839
 1244W        W 5308   6.505   6.769   1.720
 1245W        W 5309   6.178   3.256  10.210
 1246W        W 5310   3.298   8.572   0.131
 1247W        W 5311   0.658   9.945   8.389
 1248W        W 5312   8.912   2.749   8.585
 1249W        W 5313   5.540   6.470   4.021
 1250W        W 5314   9.539   1.683   8.992
 1251W        W 5315   9.615   4.272   9.484
 1252W        W 5316   4.560   4.219   2.754
 1253W        W 5317   5.610   5.167   0.232
 1254W        W 5318   1.595   9.121  11.283
 1255W        W 5319   9.278   7.683  11.459
 1256W        W 5320   9.922   0.794   0.723
 1257W        W 5321   3.734   5.998   1.696
 1258W        W 5322   0.439   2.141   3.486
 1259W        W 5323   5.606  10.281  11.194
 1260W        W 5324   5.994  10.441   8.745
 1261W        W 5325   7.822   2.299   9.506
 1262W        W 5326   4.627   1.217   2.479
 1263W        W 5327   6.475   4.417   9.442
 1264W        W 5328   9.610   4.749  10.782
 1265W        W 5329   3.360   5.214  10.761
 1266W        W 5330   4.533   6.419   3.205
 1267W        W 5331   2.187  10.410   0.460
 1268W        W 5332   9.819   5.664   9.442
 1269W        W 5333   4.298   2.157   1.984
 1270W        W 5334  10.338   6.888   3.237
 1271W        W 5335   7.045   1.260  11.253
 1272W        W 5336   7.423   8.288  10.742
 1273W        W 5337   9.696  10.086   9.256
 1274W        W 5338   6.565   2.801   8.966
 1275W        W 5339   0.010  10.394   2.555
 1276W        W 5340   4.507   2.312   9.844
 1277W        W 5341   6.596   2.201   3.321
 1278W        W 5342   9.909   1.284   2.581
 1279W        W 5343   2.423   5.945   9.486
 1280W        W 5344   5.769   3.801   3.110
 1281W        W 5345   8.123   1.782   3.439
 1282W        W 5346   2.704   1.520   2.319
 1283W        W 5347   1.853   2.585  10.052
 1284W        W 5348   8.960   3.709   2.919
 1285W        W 5349   1.209   5.600  11.867
 1286W        W 5350   0.920   1.292  11.223
 1287W        W 5351   0.341   4.484   0.951
 1288W        W 5352   1.218   3.129  10.316
 1289W        W 5353  10.467   4.638   3.161
 1290W        W 5354   7.022   3.558   3.319
 1291W        W 5355   3.739   0.923   9.383
 1292W        W 5356   4.857   1.858  10.576
 1293W        W 5357   5.594  10.389   0.795
 1294W        W 5358   3.630   6.197  10.933
 1295W        W 5359  10.304   8.225   2.220
 1296W        W 5360   4.075   4.702  11.249
 1297W        W 5361  10.325   3.494   2.963
 1298W        W 5362   1.563  10.150  10.382
 1299W        W 5363   8.036  10.372   1.313
 1300W        W 5364   4.712   2.046   2.757
 1301W        W 5365   7.440   4.568   1.816
 1302W        W 5366   3.134   3.801  10.602
 1303W        W 5367   5.171   5.162   0.496
 1304W        W 5368   4.741   4.513  11.625
 1305W        W 5369   8.273   1.351   2.241
 1306W        W 5370   4.680   8.488   0.458
 1307W        W 5371   5.178   1.585   1.282
 1308W        W 5372  10.387   4.736   3.681
 1309W        W 5373   1.350   9.400  10.090
 1310W        W 5374   5.491   3.816  10.723
 1311W        W 5375   3.809  10.298   9.826
 1312W        W 5376   9.218   4.478   0.107
 1313W        W 5377   5.044   4.081   1.158
 1314W        W 5378   4.915   5.581   1.209
 1315W        W 5379   7.519   1.775  10.861
 1316W        W 5380   2.304   9.427   9.150
 1317W        W 5381   2.656   7.955   3.229
 1318W        W 5382   7.493   7.162   8.951
 1319W        W 5383   3.792   6.267   0.720
 1320W        W 5384   0.569   0.341   0.267
 1321W        W 5385   3.108   3.307   2.207
 1322W        W 5386   4.908   2.073   0.408
 1323W        W 5387   6.901   2.204   8.905
 1324W        W 5388   6.481  10.195   2.427
 1325W        W 5389  10.344   6.595   9.573
 1326W        W 5390   4.569   5.021  10.102
 1327W        W 5391   9.496   0.555   0.896
 1328W        W 5392   7.495   3.311   3.243
 1329W        W 5393   3.353   5.881   4.044
 1330W        W 5394   0.035   1.829   0.600
 1331W        W 5395   8.098   1.714  11.052
 1332W        W 5396   7.884   3.454  11.137
 1333W        W 5397   4.785   2.012  11.077
 1334W        W 5398   4.483   5.709   0.216
 1335W        W 5399   8.802   6.073   2.747
 1336W        W 5400   4.022   3.628   0.267
 1337W        W 5401   4.171   2.729   0.702
 1338W        W 5402   7.462   9.860  10.607
 1339W        W 5403   9.814   6.635   3.595
 1340W        W 5404   8.562   1.873   9.282
 1341W        W 5405   3.146   7.843   3.376
 1342W        W 5406   7.487   6.088  10.467
 1343W        W 5407   0.242   2.203   1.823
 1344W        W 5408   3.111   8.475   9.820
 1345W        W 5409   9.809   9.846  10.106
 1346W        W 5410   5.885   1.079   3.421
 1347W        W 5411   3.848   2.686   1.210
 1348W        W 5412   7.308   9.003  10.356
 1349W        W 5413   9.797  10.344   1.922
 1350W        W 5414   9.781   0.359   9.227
 1351W        W 5415   5.963   2.190   9.680
 1352W        W 5416   5.646   0.894   8.671
 1353W        W 5417   0.431   6.790   9.905
 1354W        W 5418   2.553   5.602   0.732
 1355W        W 5419   1.220   3.227   9.774
 1356W        W 5420   0.774   5.692  10.914
 1357W        W 5421   0.349   3.409   0.780
 1358W        W 5422   8.037   4.804   2.963
 1359W        W 5423   7.021   6.973   8.972
 1360W        W 5424   5.571   9.325   0.412
 1361W        W 5425   2.709   3.887   0.724
 1362W        W 5426   8.314   8.530  11.703
 1363W        W 5427   2.463   6.874   0.083
 1364W        W 5428   7.745   8.639   0.758
 1365W        W 5429   1.783   9.881   2.702
 1366W        W 5430   5.069   4.180  10.766
 1367W        W 5431   0.380   5.547   3.336
 1368W        W 5432   7.274   0.288   1.054
 1369W        W 5433   7.547   2.166   2.721
 1370W        W 5434   5.685   2.476  10.008
 1371W        W 5435   0.335   4.180  10.917
 1372W        W 5436   6.965   3.737   1.714
 1373W        W 5437   3.838   9.638   0.169
 1374W        W 5438   3.253   9.302   9.484
 1375W        W 5439   8.153  10.472  11.879
 1376W        W 5440   3.871   5.768   0.668
 1377W        W 5441   8.372   0.210   1.518
 1378W        W 5442   8.884   2.299   9.341
 1379W        W 5443   1.901   2.805  10.896
 1380W        W 5444   7.135   6.590   9.869
 1381W        W 5445   2.466   3.779   1.148
 1382W        W 5446   6.079   7.028   1.502
 1383W        W 5447   1.813   7.456   1.291
 1384W        W 5448   5.952   6.142  10.379
 1385W        W 5449   9.317   1.483   9.396
 1386W        W 5450   9.479   4.218   1.752
 1387W        W 5451   8.935   8.580  11.091
 1388W        W 5452   8.981   4.264   3.415
 1389W        W 5453   3.693   7.183   3.380
 1390W        W 5454   3.142   4.030   1.833
 1391W        W 5455   2.811   7.899  11.515
 1392W        W 5456   3.400   8.026   0.196
 1393W        W 5457   3.818   5.049   8.584
 1394W        W 5458   0.477   7.353   0.559
 1395W        W 5459   2.844   7.642  10.403
 1396W        W 5460   5.951   3.562  10.814
 1397W        W 5461   2.189   6.910   9.421
 1398W        W 5462   5.057   5.498   2.652
 1399W        W 5463   9.354   1.013   0.429
 1400W        W 5464   4.975   8.105  10.811
 1401W        W 5465   0.385   8.143   3.357
 1402W        W 5466   4.640   0.829   0.154
 1403W        W 5467   6.631   4.215   2.803
 1404W        W 5468   0.024   7.069   9.763
 1405W        W 5469   1.291   3.552  10.596
 1406W        W 5470   2.621   5.534   1.730
 1407W        W 5471   0.680   9.843  10.317
 1408W        W 5472   3.112   9.695   2.276
 1409W        W 5473   1.706   8.010   8.808
 1410W        W 5474   8.548   9.476  11.327
 1411W        W 5475   5.922   3.080  10.618
 1412W        W 5476   6.994  10.446   9.172
 1413W        W 5477   0.684   2.259  10.008
 1414W        W 5478   6.020   7.320   3.090
 1415W        W 5479   5.463   6.082  10.294
 1416W        W 5480   5.497   9.420  11.430
 1417W        W 5481   4.200   4.432   3.203
 1418W        W 5482   7.210   5.200   2.406
 1419W        W 5483   3.433   7.027   2.832
 1420W        W 5484   1.857   5.846   3.830
 1421W        W 5485   8.793   6.872  10.254
 1422W        W 5486   1.259   7.640  10.023
 1423W        W 5487   3.963   8.754  10.294
 1424W        W 5488   5.081  10.065   1.370
 1425W        W 5489   6.907   5.613   8.706
 1426W        W 5490   2.887  10.381   9.660
 1427W        W 5491   6.771   2.947  10.792
 1428W        W 5492   3.015  10.288   9.181
 1429W        W 5493   8.108   2.911   9.957
 1430W        W 5494   0.921   5.617   3.457
 1431W        W 5495   3.423   9.770   9.365
 1432W        W 5496   1.620   1.722   8.558
 1433W        W 5497   9.878   4.707   9.561
 1434W        W 5498   1.182   3.460   0.737
 1435W        W 5499   9.827   5.366   3.389
 1436W        W 5500   7.861   2.443  11.408
 1437W        W 5501   7.109   5.786   9.564
 1438W        W 5502   4.194   5.272   1.968
 1439W        W 5503   5.976   4.772  10.678
 1440W        W 5504   8.489   2.871   0.922
 1441W        W 5505   0.905   6.573   3.266
 1442W        W 5506   9.517   1.342  10.263
 1443W        W 5507   3.392   4.353   0.305
 1444W        W 5508   9.358   4.990   2.420
 1445W        W 5509   9.304   3.279  11.447
 1446W        W 5510   9.503   4.695  10.279
 1447W        W 5511   2.829   8.372   2.270
 1448W        W 5512   0.412   5.893   1.506
 1449W        W 5513   8.560   8.241   3.589
 1450W        W 5514   5.328   1.854   3.511
 1451W        W 5515   7.646   5.821   9.601
 1452W        W 5516   3.529   8.011  10.949
 1453W        W 5517   3.170   6.250   2.390
 1454W        W 5518   1.393   0.940  10.386
 1455W        W 5519   5.167   5.193  11.065
 1456W        W 5520   5.705   4.387  11.964
 1457W        W 5521   6.951   6.464   8.979
 1458W        W 5522   7.027   2.825  10.295
 1459W        W 5523   7.942   8.604   1.624
 1460W        W 5524   9.774   9.792  11.921
 1461W        W 5525   1.730   1.143  11.689
 1462W        W 5526  10.363   4.500   0.689
 1463W        W 5527   5.650   4.224   0.473
 1464W        W 5528   9.754   3.055   3.383
 1465W        W 5529   6.031   1.282   1.198
 1466W        W 5530   0.247   0.957   2.265
 1467W        W 5531   3.615   0.752  10.224
 1468W        W 5532   4.428  10.482   1.528
 1469W        W 5533   8.827   3.351   3.352
 1470W        W 5534   4.248   0.817   9.475
 1471W        W 5535   6.471   2.476   0.403
 1472W        W 5536   6.573   0.312  10.926
 1473W        W 5537   2.728  10.321  11.145
 1474W        W 5538   5.306   9.763   1.731
 1475W        W 5539   3.263   1.374   1.184
 1476W        W 5540   2.278   0.043  11.041
 1477W        W 5541   1.376   5.732   1.477
 1478W        W 5542   7.945   0.295  11.545
 1479W        W 5543   9.082   3.740   0.164
 1480W        W 5544   1.720   1.181   9.260
 1481W        W 5545   7.143   1.277   1.218
 1482W        W 5546   9.792   3.305   1.280
 1483W        W 5547   3.633   5.067   3.132
 1484W        W 5548   8.513   5.199   1.258
 1485W        W 5549   8.357   3.654   9.414
 1486W        W 5550   2.685   8.158  10.371
 1487W        W 5551   3.617   7.479   0.708
 1488W        W 5552   6.000   5.124   9.304
 1489W        W 5553   8.372   9.256   0.267
 1490W        W 5554   7.059   9.411   1.455
 1491W        W 5555   6.183   7.523   9.323
 1492W        W 5556   8.109   4.028   0.832
 1493W        W 5557   8.178   9.927   9.448
 1494W        W 5558   0.823   0.591   1.020
 1495W        W 5559   7.344   5.098   0.658
 1496W        W 5560  10.463   1.348  11.367
 1497W        W 5561   3.828   9.293  10.355
 1498W        W 5562   2.759   7.400   2.309
 1499W        W 5563   8.975   3.166   0.924
 1500W        W 5564   4.027   7.459  11.982
 1501W        W 5565   6.752   7.756  11.034
 1502W        W 5566   9.596   4.084   3.431
 1503W        W 5567   1.651   5.149   3.244
 1504W        W 5568   4.654   9.978   9.861
 1505W        W 5569   0.943   8.196   0.395
 1506W        W 5570   9.958   3.638   1.667
 1507W        W 5571   8.819   6.107  11.355
 1508W        W 5572   5.158   8.005   3.220
 1509W        W 5573   1.272   2.107  11.394
 1510W        W 5574   6.483   6.517   2.691
 1511W        W 5575   0.662   5.672   9.056
 1512W        W 5576   1.813   4.384   9.288
 1513W        W 5577   8.540   4.708   0.990
 1514W        W 5578   0.911   8.988  10.859
 1515W        W 5579   6.208   7.971   8.540
 1516W        W 5580   6.007   9.012   1.711
 1517W        W 5581   8.151   5.005   9.545
 1518W        W 5582   2.747   4.227   8.866
 1519W        W 5583   9.501   9.404  10.619
 1520W        W 5584   3.729   7.670   3.218
 1521W        W 5585   0.847   6.009  11.347
 1522W        W 5586   9.939   2.409   1.158
 1523W        W 5587   8.595   1.461   1.059
 1524W        W 5588   3.261   2.905   0.496
 1525W        W 5589   4.111   4.935   3.277
 1526W        W 5590   0.257   7.848   8.753
 1527W        W 5591   3.774   0.901   2.233
 1528W        W 5592  10.265   0.822  11.426
 1529W        W 5593  10.231   0.960   2.281
 1530W        W 5594   3.370   4.259   2.223
 1531W        W 5595   0.841   7.389   9.445
 1532W        W 5596   5.737   6.334  11.647
 1533W        W 5597   1.944   1.544   0.220
 1534W        W 5598   2.850   0.903   2.897
 1535W        W 5599   1.945   2.197   1.435
 1536W        W 5600   2.611   8.008   9.506
 1537W        W 5601   4.199   2.762   9.930
 1538W        W 5602   6.966   7.918   1.045
 1539W        W 5603   6.717  10.033   8.970
 1540W        W 5604   3.194   6.666   1.053
 1541W        W 5605   4.269   7.517   2.058
 1542W        W 5606   5.974   5.724   2.191
 1543W        W 5607   8.824   7.423  11.500
 1544W        W 5608   3.335   0.417   0.663
 1545W        W 5609  10.217   0.461  11.801
 1546W        W 5610   2.442  10.408  10.034
 1547W        W 5611   7.726   6.497   3.288
 1548W        W 5612   9.031   9.855   1.475
 1549W        W 5613   5.143   9.572  10.745
 1550W        W 5614   7.874   5.715  11.209
 1551W        W 5615  10.364   1.654   1.576
 1552W        W 5616   1.762   3.559   0.853
 1553W        W 5617   4.965   5.030   3.394
 1554W        W 5618   3.757   3.666   2.636
 1555W        W 5619   4.186   4.207   0.915
 1556W        W 5620   3.672   0.317  10.551
 1557W        W 5621   6.676   0.631   3.219
 1558W        W 5622   0.764   4.768   0.313
 1559W        W 5623   6.831   2.687   3.279
 1560W        W 5624   0.939   1.739   9.397
 1561W        W 5625   7.729   8.978   8.547
 1562W        W 5626   8.168   3.199   9.280
 1563W        W 5627   5.469   7.995  10.814
 1564W        W 5628   3.580   3.656  10.891
 1565W        W 5629   5.060   7.829   9.908
 1566W        W 5630   3.271   6.199   0.822
 1567W        W 5631   1.131   9.456   2.264
 1568W        W 5632   2.589   8.076   2.728
 1569W        W 5633   5.110  10.433   9.311
 1570W        W 5634   8.336   4.365   2.855
 1571W        W 5635   9.972   4.149   1.491
 1572W        W 5636   2.148   2.731   2.592
 1573W        W 5637   9.236   0.300  11.512
 1574W        W 5638   9.849   7.960  10.625
 1575W        W 5639   5.085   7.493   8.247
 1576W        W 5640   1.614   9.874   9.951
 1577W        W 5641   1.229   5.672   9.544
 1578W        W 5642   6.542   5.994  11.501
 1579W        W 5643   4.508   4.488   0.578
 1580W        W 5644   1.206   4.741   9.356
 1581W        W 5645   8.680   6.269   1.220
 1582W        W 5646   3.569   9.991   1.404
 1583W        W 5647  10.488   2.823  11.136
 1584W        W 5648   6.140   4.670   2.945
 1585W        W 5649  10.394   9.471   1.084
 1586W        W 5650   9.838   9.283  11.933
 1587W        W 5651   4.994   3.708   8.511
 1588W        W 5652   2.674   0.666   9.468
 1589W        W 5653   7.929   5.409  10.768
 1590W        W 5654   5.135   2.351   0.789
 1591W        W 5655   8.288   7.841   2.270
 1592W        W 5656   1.889   2.360  11.176
 1593W        W 5657   3.222   3.788   2.456
 1594W        W 5658   7.043   8.522   2.748
 1595W        W 5659   7.484   3.333   2.719
 1596W        W 5660   1.436   4.740   3.475
 1597W        W 5661   3.204   1.950   2.972
 1598W        W 5662   8.295  10.304   1.799
 1599W        W 5663   2.413   2.445   1.378
 1600W        W 5664   3.468   6.907   1.959
 1601W        W 5665   7.670   0.005   2.521
 1602W        W 5666   1.354   6.953   8.998
 1603W        W 5667   7.200  10.326   2.664
 1604W        W 5668   6.533   2.232   2.320
 1605W        W 5669   1.836   9.135   2.321
 1606W        W 5670   3.679   7.225  10.043
 1607W        W 5671   2.804   2.582   1.900
 1608W        W 5672   4.902   0.251   2.594
 1609W        W 5673   7.681   1.888   3.188
 1610W        W 5674   2.950   3.614   1.090
 1611W        W 5675   3.572   2.620   0.196
 1612W        W 5676   6.732   0.144   1.566
 1613W        W 5677   8.408   4.596   1.996
 1614W        W 5678   7.956   6.035   3.135
 1615W        W 5679   1.042   9.975   9.236
 1616W        W 5680   8.581   9.248  10.410
 1617W        W 5681   8.075   0.510   9.688
 1618W        W 5682   0.225  10.403   1.599
 1619W        W 5683   8.426   0.724   9.055
 1620W        W 5684   4.734   6.397   9.475
 1621W        W 5685   3.204   9.115  11.982
 1622W        W 5686  10.058   9.946   9.573
 1623W        W 5687  10.085   4.739  10.946
 1624W        W 5688   2.161   1.674  11.721
 1625W        W 5689   1.071   0.783  11.168
 1626W        W 5690   8.885   7.997   0.152
 1627W        W 5691   3.899   5.142   0.808
 1628W        W 5692   5.560   5.867   1.016
 1629W        W 5693  10.263   8.857   9.742
 1630W        W 5694   0.263   7.990   9.262
 1631W        W 5695   6.219   6.486   3.162
 1632W        W 5696   3.179   6.054   3.574
 1633W        W 5697   9.504   2.936   9.560
 1634W        W 5698   6.448   1.860   0.473
 1635W        W 5699   0.893   1.328   2.851
 1636W        W 5700   1.671   1.508   2.284
 1637W        W 5701   5.283   7.478   9.251
 1638W        W 5702   8.828   9.962  10.733
 1639W        W 5703   8.233   7.857   0.299
 1640W        W 5704   1.396   1.970   9.522
 1641W        W 5705   4.158   9.941  10.001
 1642W        W 5706   4.935   6.491   1.461
 1643W        W 5707   2.021   8.014   0.937
 1644W        W 5708   1.295   0.766   9.052
 1645W        W 5709   6.968   0.412   9.998
 1646W        W 5710   7.182   1.835   3.356
 1647W        W 5711   3.649   1.746   0.208
 1648W        W 5712   3.175   3.546   2.919
 1649W        W 5713   2.116   3.851   0.162
 1650W        W 5714   9.442   3.232  10.005
 1651W        W 5715   8.285   6.280  10.803
 1652W        W 5716   6.645   4.982   0.444
 1653W        W 5717   1.083   5.157  11.413
 1654W        W 5718   0.465   1.313  10.014
 1655W        W 5719   9.832   7.691   2.660
 1656W        W 5720  10.492   6.955   2.293
 1657W        W 5721   4.234   5.135  11.027
 1658W        W 5722   3.101   8.206  11.823
 1659W        W 5723   1.029   9.999   0.175
 1660W        W 5724   9.608   6.222   9.957
 1661W        W 5725   8.691   6.021   2.245
 1662W        W 5726   7.510   2.401   3.202
 1663W        W 5727   4.102   0.323   2.277
 1664W        W 5728   1.935   1.711  10.641
 1665W        W 5729   1.740   4.058  11.819
 1666W        W 5730   0.483   2.692  10.192
 1667W        W 5731   6.912   2.567   9.284
 1668W        W 5732   6.950   5.872   0.852
 1669W        W 5733   6.208   0.918  11.938
 1670W        W 5734   2.915   5.597   2.952
 1671W        W 5735  10.350   3.727   1.962
 1672W        W 5736   9.190   3.762  11.342
 1673W        W 5737   6.230   4.067   3.102
 1674W        W 5738   6.280  10.096   0.872
 1675W        W 5739   0.675   0.884   1.410
 1676W        W 5740   8.763   4.624   0.305
 1677W        W 5741   4.580   4.770  11.226
 1678W        W 5742   1.418   1.880  10.496
 1679W        W 5743   5.808   9.851   1.754
 1680W        W 5744   5.153   8.533  11.602
 1681W        W 5745   4.062   7.517   0.969
 1682W        W 5746   4.686   5.569   2.979
 1683W        W 5747   4.559   0.326   2.052
 1684W        W 5748   9.472   1.171   9.008
 1685W        W 5749  10.221   1.860  11.064
 1686W        W 5750   6.644   7.663   8.537
 1687W        W 5751   7.895   6.027   2.625
 1688W        W 5752   5.021   3.345   8.949
 1689W        W 5753   3.676   6.347  11.769
 1690W        W 5754   7.891   5.927  10.722
 1691W        W 5755   3.794   5.956   2.711
 1692W        W 5756   4.227   5.181  11.557
 1693W        W 5757   6.615   5.722   3.347
 1694W        W 5758   2.994   4.699   8.922
 1695W        W 5759   2.718   3.759   2.659
 1696W        W 5760   0.715   2.788   3.255
 1697W        W 5761   6.000   9.155   0.194
 1698W        W 5762   5.525   8.931   1.981
 1699W        W 5763   7.019   6.078  11.328
 1700W        W 5764   1.352   9.130  11.755
 1701W        W 5765   3.432   8.004   2.938
 1702W        W 5766   2.649   4.072   9.353
 1703W        W 5767   5.026   3.649   3.757
 1704W        W 5768   7.082   2.834  11.842
 1705W        W 5769   8.170   4.168   1.335
 1706W        W 5770   5.172   3.288  11.239
 1707W        W 5771   5.653   1.872   1.391
 1708W        W 5772   4.031   3.238   1.891
 1709W        W 5773   7.378   0.772   2.129
 1710W        W 5774   7.027   1.432  11.722
 1711W        W 5775   7.986   3.986   2.866
 1712W        W 5776   5.245   1.686   0.510
 1713W        W 5777   9.395   0.866   3.563
 1714W        W 5778   8.371   8.840   1.390
 1715W        W 5779  10.120   7.120  10.078
 1716W        W 5780   0.419   2.255  10.464
 1717W        W 5781   4.074   1.965   3.311
 1718W        W 5782   3.050   1.693   1.983
 1719W        W 5783   8.425   5.978  10.407
 1720W        W 5784   2.208   0.928   9.443
 1721W        W 5785   0.427   3.885  11.892
 1722W        W 5786  10.012   1.737   2.347
 1723W        W 5787   4.218   9.611  10.391
 1724W        W 5788   5.226   6.638   9.483
 1725W        W 5789   9.098   1.304   3.604
 1726W        W 5790   5.406   5.576   1.399
 1727W        W 5791   7.445   6.232   9.352
 1728W        W 5792   5.196   4.804   0.859
 1729W        W 5793   1.707   9.438  11.952
 1730W        W 5794   2.840   8.830   0.210
 1731W        W 5795   0.277   5.066   3.125
 1732W        W 5796   8.916   4.590   1.709
 1733W        W 5797   4.755  10.332   2.954
 1734W        W 5798   5.701   4.518  11.188
 1735W        W 5799   7.722  10.425  10.442
 1736W        W 5800   8.143   6.770  11.551
 1737W        W 5801   0.463   7.242   0.041
 1738W        W 5802   7.429   4.819   9.489
 1739W        W 5803   6.002   7.872  10.121
 1740W        W 5804   0.130   7.518  10.503
 1741W        W 5805   7.972   9.257   9.612
 1742W        W 5806   6.283   7.010  10.045
 1743W        W 5807   8.598   5.136   0.367
 1744W        W 5808   9.407   4.687   0.523
 1745W        W 5809   5.536   4.786   2.320
 1746W        W 5810   5.589   3.628  11.250
 1747W        W 5811   8.008   8.821   9.915
 1748W        W 5812   9.465   0.349   0.430
 1749W        W 5813   8.981   7.211   9.404
 1750W        W 5814   8.906   8.062   9.628
 1751W        W 5815   7.647   5.590  10.390
 1752W        W 5816   5.061   1.275   2.845
 1753W        W 5817   2.202   0.771   0.309
 1754W        W 5818   3.605   3.536   9.856
 1755W        W 5819  10.335   6.059   1.998
 1756W        W 5820   4.253   3.691   0.973
 1757W        W 5821   9.342   7.439   9.095
 1758W        W 5822   2.169   3.792   1.556
 1759W        W 5823   9.047   6.222  11.819
 1760W        W 5824   4.702   1.316   3.319
 1761W        W 5825  10.449   1.852   2.105
 1762W        W 5826   9.726   5.130  10.466
 1763W        W 5827   1.492   1.701  10.003
 1764W        W 5828   1.239   3.354   3.342
 1765W        W 5829   4.693   9.826   0.307
 1766W        W 5830  10.018   8.516   1.429
 1767W        W 5831   2.182   5.042  10.725
 1768W        W 5832   9.597   2.194   8.919
 1769W        W 5833   4.775   7.635  10.728
 1770W        W 5834   8.207   5.382  11.421
 1771W        W 5835   6.931   0.378   2.841
 1772W        W 5836   7.073   9.837   1.187
 1773W        W 5837   2.948   8.363  11.354
 1774W        W 5838   3.225   1.035   3.310
 1775W        W 5839   6.547   5.710   9.082
 1776W        W 5840   7.866   4.527   9.570
 1777W        W 5841   4.277   4.056   0.414
 1778W        W 5842   9.629   0.323   1.722
 1779W        W 5843   9.604   7.931   3.166
 1780W        W 5844   2.223   6.421   2.064
 1781W        W 5845   9.988   6.854  10.500
 1782W        W 5846   2.644   0.794   1.687
 1783W        W 5847   8.315   2.319   9.280
 1784W        W 5848  10.122   7.460  11.784
 1785W        W 5849   7.529   4.391   9.205
 1786W        W 5850   0.440   3.672   3.161
 1787W        W 5851   7.933   7.381   8.738
 1788W        W 5852   1.069   8.359   0.948
 1789W        W 5853   0.818   1.640   2.423
 1790W        W 5854   0.339   1.399   0.736
 1791W        W 5855   9.421   0.804   1.406
 1792W        W 5856   0.485   4.798  11.877
 1793W        W 5857   6.143   2.736   9.973
 1794W        W 5858   6.634   0.913   9.085
 1795W        W 5859   7.241   8.310   9.538
 1796W        W 5860   4.574   9.483  10.039
 1797W        W 5861   7.044   3.682   8.759
 1798W        W 5862   0.844   7.061   0.334
 1799W        W 5863   6.428   8.734   3.434
 1800W        W 5864   8.040  10.388   3.306
 1801W        W 5865   8.324   3.726  11.025
 1802W        W 5866  10.152   6.583   2.720
 1803W        W 5867   7.376   5.697  11.355
 1804W        W 5868   6.003   5.633  10.840
 1805W        W 5869   1.650   7.351   9.894
 1806W        W 5870   3.829   2.731   1.767
 1807W        W 5871   2.107   0.084   1.369
 1808W        W 5872   8.383   7.428   2.001
 1809W        W 5873   4.230   4.975   2.360
 1810W        W 5874   8.850   2.107  10.360
 1811W        W 5875   4.696   5.501   0.706
 1812W        W 5876   4.662   7.881   0.432
 1813W        W 5877   7.443   2.724  11.474
 1814W        W 5878   9.122   7.067  11.734
 1815W        W 5879   0.005   7.054   2.785
 1816W        W 5880   6.483   4.920   9.496
 1817W        W 5881   6.025   5.240  10.463
 1818W        W 5882   1.612   9.639  10.462
 1819W        W 5883   0.207   9.004  10.370
 1820W        W 5884   9.947   9.465   9.783
 1821W        W 5885   2.848   4.719  11.167
 1822W        W 5886   5.409   4.091  11.164
 1823W        W 5887  10.401   0.191   3.458
 1824W        W 5888   3.734   2.872   2.783
 1825W        W 5889   2.378   3.649  11.154
 1826W        W 5890   4.180   7.066   1.222
 1827W        W 5891   7.149   5.467   1.695
 1828W        W 5892   5.954   9.445   9.150
 1829W        W 5893   1.183   6.504   9.159
 1830W        W 5894   4.663   4.052   0.789
 1831W        W 5895  10.229   8.811  11.244
 1832W        W 5896   1.210   1.854   2.144
 1833W        W 5897  10.012   0.956   9.812
 1834W        W 5898   7.102   0.854   2.969
 1835W        W 5899   0.186   0.789   1.392
 1836W        W 5900   2.897   5.785   9.860
 1837W        W 5901   8.091   7.737   1.742
 1838W        W 5902   2.201   9.825   2.993
 1839W        W 5903   0.267   2.595  11.539
 1840W        W 5904   2.974   5.226  11.327
 1841W        W 5905   0.262   5.230  11.689
 1842W        W 5906   2.793   3.190   1.339
 1843W        W 5907   6.724   6.560   3.200
 1844W        W 5908   7.857   5.774   0.964
 1845W        W 5909   7.551   4.651  11.276
 1846W        W 5910   0.256   0.932  11.461
 1847W        W 5911   1.492   1.840   3.613
 1848W        W 5912   8.544   6.372   9.432
 1849W        W 5913   5.146   4.271   0.671
 1850W        W 5914   5.712  10.278   2.962
 1851W        W 5915   5.692   2.886   1.429
 1852W        W 5916   0.203  10.059  11.867
 1853W        W 5917   2.709   2.357   0.802
 1854W        W 5918   4.494   0.266  10.910
 1855W        W 5919   3.389   9.474   2.948
 1856W        W 5920   9.982   9.386  10.286
 1857W        W 5921   9.032   9.375   9.992
 1858W        W 5922   3.628   4.527  11.402
 1859W        W 5923   1.832   1.214   1.889
 1860W        W 5924   6.735   5.089   8.328
 1861W        W 5925   8.545   9.521   9.984
 1862W        W 5926   9.416   1.467   0.206
 1863W        W 5927   6.094   5.446   0.811
 1864W        W 5928   9.224   0.432   2.695
 1865W        W 5929   2.918   5.497  10.830
 1866W        W 5930   4.131   3.610  10.858
 1867W        W 5931   1.462  10.395   2.361
 1868W        W 5932   4.995   2.716  10.559
 1869W        W 5933   4.059   1.270   9.638
 1870W        W 5934   1.783   4.787  11.107
 1871W        W 5935   9.365  10.166   2.280
 1872W        W 5936   3.237   7.529   1.027
 1873W        W 5937   5.626   0.750  10.233
 1874W        W 5938   3.292   2.725   9.799
 1875W        W 5939   3.263   9.140   8.670
 1876W        W 5940   9.943   0.214  10.799
 1877W        W 5941   5.604   5.507   0.650
 1878W        W 5942   2.290   6.906  10.435
 1879W        W 5943   5.794   4.000  10.342
 1880W        W 5944   8.589  10.274  11.688
 1881W        W 5945   3.744   5.052  10.107
 1882W        W 5946   1.933   3.371   0.368
 1883W        W 5947   6.479   3.850   0.496
 1884W        W 5948   8.904   0.189  11.907
 1885W        W 5949   6.441   6.327   9.174
 1886W        W 5950   8.299   4.703   0.499
 1887W        W 5951   6.129   2.307   3.120
 1888W        W 5952   4.525   6.660  11.664
 1889W        W 5953   9.168   1.922  11.988
 1890W        W 5954   1.475   0.750  10.837
 1891W        W 5955   1.687   8.854   8.384
 1892W        W 5956   3.792   5.190   1.673
 1893W        W 5957   2.486   6.237   2.839
 1894W        W 5958  10.209   0.319   8.937
 1895W        W 5959  10.005   2.761  11.006
 1896W        W 5960   6.213   7.471   8.795
 1897W        W 5961   5.489   4.295   9.882
 1898W        W 5962   8.803   8.912  10.089
 1899W        W 5963   8.371   2.690  10.548
 1900W        W 5964   5.436   9.189   1.270
 1901W        W 5965   3.293   2.620  10.864
 1902W        W 5966   9.209   0.969   9.416
 1903W        W 5967   7.334   3.367   8.444
 1904W        W 5968   6.064   6.995   0.984
 1905W        W 5969   5.687   0.231  10.421
 1906W        W 5970   9.706   8.445   9.967
 1907W        W 5971   0.435   7.045   9.450
 1908W        W 5972   2.591   3.363   0.816
 1909W        W 5973   0.737   6.500   9.525
 1910W        W 5974   1.702   8.188   2.305
 1911W        W 5975   7.909   2.889  10.423
 1912W        W 5976   4.699   0.817   9.717
 1913W        W 5977   9.856   1.370   8.718
 1914W        W 5978   5.728   2.958  10.169
 1915W        W 5979   4.279   8.989   9.972
 1916W        W 5980   5.511   8.357   0.211
 1917W        W 5981   1.451   0.455   0.657
 1918W        W 5982   4.170   9.740   1.275
 1919W        W 5983   2.034   5.543  10.512
 1920W        W 5984   7.859   7.505   9.737
 1921W        W 5985   2.308   8.778  11.856
 1922W        W 5986   3.031   1.714   8.728
 1923W        W 5987   5.220   8.915   3.314
 1924W        W 5988   6.058   0.920  10.000
 1925W        W 5989   6.177   7.593   2.177
 1926W        W 5990   2.155   7.755   0.068
 1927W        W 5991   7.522   9.937   2.490
 1928W        W 5992   8.563   2.621   3.533
 1929W        W 5993  10.493   5.160   1.708
 1930W        W 5994   9.834   4.574   1.836
 1931W        W 5995   7.894   7.184  10.642
 1932W        W 5996   8.140   8.156   1.476
 1933W        W 5997   4.686   3.433  11.170
 1934W        W 5998   9.175   0.314   2.206
 1935W        W 5999   7.457   0.835  10.449
 1936W        W 6000   0.056   0.345   1.149
 1937W        W 6001   1.376   3.679  11.594
 1938W        W 6002   9.993   5.452   0.520
 1939W        W 6003  10.119   9.300   3.282
 1940W        W 6004   3.633   4.058  11.229
 1941W        W 6005   4.966   9.072   1.424
 1942W        W 6006   4.636   8.414  11.957
 1943W        W 6007   1.568   5.270  11.300
 1944W        W 6008   1.675   0.742   2.088
 1945W        W 6009   3.820   9.599   1.637
 1946W        W 6010   2.729   1.760   3.207
 1947W        W 6011   1.835   4.014   3.137
 1948W        W 6012   9.855   2.046   2.708
 1949W        W 6013   6.433   8.017   2.341
 1950W        W 6014   2.854   6.439  10.592
 1951W        W 6015   3.073   5.056   2.766
 1952W        W 6016   1.244   9.063  10.463
 1953W        W 6017   2.188   7.053   3.436
 1954W        W 6018   5.130   4.708   9.233
 1955W        W 6019   8.744   6.201   9.901
 1956W        W 6020   2.247   7.355   0.425
 1957W        W 6021   6.863   4.247   9.872
 1958W        W 6022   4.651   6.089  10.960
 1959W        W 6023   7.435   4.545   4.186
 1960W        W 6024   2.759   0.994  11.810
 1961W        W 6025   9.001   8.041  11.098
 1962W        W 6026   8.880   6.355   9.043
 1963W        W 6027   7.630   4.126  11.436
 1964W        W 6028   9.727   6.225   2.852
 1965W        W 6029   9.310   2.347  10.506
 1966W        W 6030   8.145   4.651   2.470
 1967W        W 6031   0.465   7.032   2.478
 1968W        W 6032  10.453   2.248  11.351
 1969W        W 6033   2.680   6.892   3.521
 1970W        W 6034   8.029   9.055   3.533
 1971W        W 6035   5.487   8.849   0.313
 1972W        W 6036   2.537   9.886  11.773
 1973W        W 6037   4.504   3.182   9.898
 1974W        W 6038   2.225  10.284   0.963
 1975W        W 6039   0.857   9.005  11.784
 1976W        W 6040   3.585  10.489   1.208
 1977W        W 6041   8.301   5.135   0.792
 1978W        W 6042   7.469   0.700   8.491
 1979W        W 6043   0.723   1.128   2.385
 1980W        W 6044   9.540   0.173   9.948
 1981W        W 6045   9.057   2.818   3.605
 1982W        W 6046   6.610   7.101  11.013
 1983W        W 6047   5.586   7.888   9.214
 1984W        W 6048   1.985   6.973   0.221
 1985W        W 6049   5.996   4.080   3.554
 1986W        W 6050   2.770  10.043   0.984
 1987W        W 6051   9.670   3.423   9.555
 1988W        W 6052   0.679   8.542   2.486
 1989W        W 6053   0.670   8.657   0.827
 1990W        W 6054   5.728   9.973   8.837
 1991W        W 6055   7.636   3.190  10.756
 1992W        W 6056   3.566   0.272   9.056
 1993W        W 6057   2.897   2.133  10.467
 1994W        W 6058   3.910   1.322   0.318
 1995W        W 6059   0.360   5.855  10.649
 1996W        W 6060   8.328   4.735  11.017
 1997W        W 6061   3.326   9.459  10.359
 1998W        W 6062   5.131   6.204   3.768
 1999W        W 6063   7.161   4.289  11.334
 2000W        W 6064   5.475   0.929   2.644
 2001W        W 6065   7.908   2.761   3.267
 2002W        W 6066   0.370   2.514   9.659
 2003W        W 6067  10.315   7.451   3.348
 2004W        W 6068   5.768   2.710   0.940
 2005W        W 6069   7.462   2.672  10.495
 2006W        W 6070   2.238   2.887   8.984
 2007W        W 6071   6.879   8.069   1.514
 2008W        W 6072   6.524   0.618   1.680
 2009W        W 6073  10.048   8.342   9.064
 2010W        W 6074   7.371   8.711   9.258
 2011W        W 6075   3.396   3.252   3.865
 2012W        W 6076   8.347   1.273   2.731
 2013W        W 6077   9.287   1.611   3.247
 2014W        W 6078   7.233   7.635   1.384
 2015W        W 6079   0.725   1.873   2.870
 2016W        W 6080   1.300   8.052   2.026
 2017W        W 6081   5.773   3.901   2.270
 2018W        W 6082   5.003   0.405   9.684
 2019W        W 6083  10.326   7.469   9.512
 2020W        W 6084   9.645  10.288   3.135
 2021W        W 6085   5.139   8.086   9.468
 2022W        W 6086   0.459   4.539  10.006
 2023W        W 6087   5.203   9.023  11.476
 2024W        W 6088   9.138   8.336  11.493
 2025W        W 6089   2.840   9.242   2.261
 2026W        W 6090   7.770   9.402   3.222
 2027W        W 6091  10.224   8.411  10.006
 2028W        W 6092   2.727   0.728   0.248
 2029W        W 6093   1.485   7.605   0.721
 2030W        W 6094   8.078   1.416  10.374
 2031W        W 6095   3.812   7.590  11.021
 2032W        W 6096   4.207   4.492   2.256
 2033W        W 6097   7.410   7.948   0.753
 2034W        W 6098   9.045   1.602  11.582
 2035W        W 6099   1.206   8.562   3.258
 2036W        W 6100   0.466   1.396  11.364
 2037W        W 6101   9.872   8.403  10.996
 2038W        W 6102   3.791   0.386   0.947
 2039W        W 6103   8.544   1.369   0.567
 2040W        W 6104   5.723   2.889   2.341
 2041W        W 6105   3.391   5.729   3.204
 2042W        W 6106   8.406   2.794   9.524
 2043W        W 6107   8.894   6.192   1.765
 2044W        W 6108   2.335   0.362   3.231
 2045W        W 6109   8.652   9.019   1.797
 2046W        W 6110   6.712   1.794   9.195
 2047W        W 6111   1.492   9.948   9.451
 2048W        W 6112   1.879   8.078  11.459
 2049W        W 6113   1.693   6.177   8.504
 2050W        W 6114   1.334   1.060   1.858
 2051W        W 6115  10.086   6.971  11.590
 2052W        W 6116   3.591   2.262   9.123
 2053W        W 6117   2.319   5.689   2.743
 2054W        W 6118   7.407   2.628   9.489
 2055W        W 6119   2.391   9.669  11.314
 2056W        W 6120   1.241   9.396  11.029
 2057W        W 6121  10.424   5.712  10.872
 2058W        W 6122   9.969   1.356  11.531
 2059W        W 6123   0.339   1.469   9.513
 2060W        W 6124  10.393   2.409   9.517
 2061W        W 6125   6.182   6.535   0.689
 2062W        W 6126   2.365   9.637  10.123
 2063W        W 6127   1.082   7.382  10.440
 2064W        W 6128   4.577   5.174   8.826
 2065W        W 6129   5.143   9.532   2.652
 2066W        W 6130   2.363   2.118   0.511
 2067W        W 6131   3.856   4.146   3.999
 2068W        W 6132   4.719   2.421   3.122
 2069W        W 6133   2.748   4.579   8.478
 2070W        W 6134   5.559   4.387   3.576
 2071W        W 6135   5.241   0.887  11.432
 2072W        W 6136   4.520   4.659   1.434
 2073W        W 6137   5.611   0.749   3.116
 2074W        W 6138   1.482   8.908   1.514
 2075W        W 6139   1.111   8.986  11.325
 2076W        W 6140   2.339   6.025   2.356
 2077W        W 6141   0.789   2.637   9.274
 2078W        W 6142   3.897   1.896  10.252
 2079W        W 6143   0.852   7.691   1.881
 2080W        W 6144   5.292   4.445  11.509
 2081W        W 6145   5.254  10.491  10.842
 2082W        W 6146   2.856   3.997   1.415
 2083W        W 6147   7.453   6.115  11.030
 2084W        W 6148   5.925   3.182   9.762
 2085W        W 6149   8.482   9.502   9.487
 2086W        W 6150   9.617  10.177  11.597
 2087W        W 6151   8.296   5.093  10.495
 2088W        W 6152   2.648   7.091   9.200
 2089W        W 6153   6.261   9.398   8.742
 2090W        W 6154   0.823   5.255   0.522
 2091W        W 6155  10.112   1.430   9.706
 2092W        W 6156   6.506   1.129   1.872
 2093W        W 6157   0.062   9.532   2.969
 2094W        W 6158   9.479   2.895  11.791
 2095W        W 6159   3.670   9.339  11.788
 2096W        W 6160   9.868   5.200   2.907
 2097W        W 6161   6.564   4.335   0.431
 2098W        W 6162   8.291  10.464  11.273
 2099W        W 6163   9.191   6.097   2.162
 2100W        W 6164   0.445   2.050   0.386
 2101W        W 6165   3.020   8.709  11.736
 2102W        W 6166   5.474   2.144   0.451
 2103W        W 6167   8.983   7.535  11.023
 2104W        W 6168   8.745   3.558  11.256
 2105W        W 6169   5.036   5.197   9.077
 2106W        W 6170   8.977   8.348  10.629
 2107W        W 6171   2.339   4.883   8.434
 2108W        W 6172   3.692   0.865   0.185
 2109W        W 6173   4.260   9.247   3.731
 2110W        W 6174   9.121   2.367   8.858
 2111W        W 6175   2.678   0.562   2.502
 2112W        W 6176   8.501   7.942  10.976
 2113W        W 6177   7.029   3.583   2.262
 2114W        W 6178   3.669  10.371   8.738
 2115W        W 6179   6.247   6.734  11.072
 2116W        W 6180   3.544   1.724   2.162
 2117W        W 6181   9.830   1.518  11.046
 2118W        W 6182   3.758   0.401   1.465
 2119W        W 6183  10.065  10.224   3.510
 2120W        W 6184   8.376   8.109   1.019
 2121W        W 6185   8.855   9.241  11.866
 2122W        W 6186   2.953   7.695   2.906
 2123W        W 6187   9.975   9.280  10.765
 2124W        W 6188   5.667   6.696   9.757
 2125W        W 6189   7.949   6.223  11.205
 2126W        W 6190   7.468   0.299   1.916
 2127W        W 6191   6.826   9.404  11.583
 2128W        W 6192   8.145   1.336   0.871
 2129W        W 6193   1.178   2.631  11.562
 2130W        W 6194   8.910   9.961   2.503
 2131W        W 6195   4.963   5.994  10.069
 2132W        W 6196   1.007   4.705   2.232
 2133W        W 6197   2.797   8.905  10.895
 2134W        W 6198   4.262   0.316   0.714
 2135W        W 6199  10.378   0.391  10.516
 2136W        W 6200   4.047   9.844   2.293
 2137W        W 6201   9.111   3.845  10.421
 2138W        W 6202   5.734   0.205   1.486
 2139W        W 6203   3.238   3.467   8.627
 2140W        W 6204   3.640   9.043   0.803
 2141W        W 6205   0.837   0.760   9.386
 2142W        W 6206   2.396   1.245   0.338
 2143W        W 6207   0.861   6.958   9.742
 2144W        W 6208   1.661   2.165   8.827
 2145W        W 6209   3.422   1.413  11.368
 2146W        W 6210   5.774   7.394   1.240
 2147W        W 6211   0.805   5.846   0.775
 2148W        W 6212   6.066   7.956   9.059
 2149W        W 6213   1.940  10.412  10.151
 2150W        W 6214   6.150   1.681   2.455
 2151W        W 6215   1.797   6.761   3.586
 2152W        W 6216   1.387   5.931  10.960
 2153W        W 6217   1.482   2.674   1.744
 2154W        W 6218   7.882   1.694   0.580
 2155W        W 6219   9.750   1.816   0.368
 2156W        W 6220   2.078   5.425   0.924
 2157W        W 6221   3.971   6.497   3.319
 2158W        W 6222   4.258   9.547   1.874
 2159W        W 6223   2.860   5.554  11.730
 2160W        W 6224   9.272   9.844   3.313
 2161W        W 6225   7.995   2.258   3.013
 2162W        W 6226   2.378   2.153   3.219
 2163W        W 6227   8.003  10.141   2.346
 2164W        W 6228   6.908  10.346  11.459
 2165W        W 6229   2.738   3.629   8.750
 2166W        W 6230   7.822   8.495  11.615
 2167W        W 6231   9.107  10.295  11.567
 2168W        W 6232   6.964   2.716   0.339
 2169W        W 6233   3.123   0.883   1.455
 2170W        W 6234   1.045   4.983   8.887
 2171W        W 6235   0.695  10.343   1.421
 2172W        W 6236   7.088   2.305   0.058
 2173W        W 6237   6.524   4.663   2.590
 2174W        W 6238   8.587   2.778  10.023
 2175W        W 6239   3.612   7.968  10.442
 2176W        W 6240   9.058   6.989   1.182
 2177W        W 6241   7.955   4.363   3.180
 2178W        W 6242   1.406   4.667  11.466
 2179W        W 6243   4.722   8.920  10.727
 2180W        W 6244   6.711   7.211  11.901
 2181W        W 6245   8.124   9.947   8.464
 2182W        W 6246   9.501   4.136   2.284
 2183W        W 6247   9.373   8.029  10.465
 2184W        W 6248   5.021   3.296  10.756
 2185W        W 6249   5.656   5.826  11.677
 2186W        W 6250   3.660   9.536   8.968
 2187W        W 6251   4.099  10.453   9.024
 2188W        W 6252   5.647   8.479   2.192
 2189W        W 6253   3.315   6.641  10.856
 2190W        W 6254   1.654   6.623   0.065
 2191W        W 6255   8.069   1.228  10.878
 2192W        W 6256   3.259   6.651  10.332
 2193W        W 6257   9.479   1.790   2.432
 2194W        W 6258   8.903   0.883   3.353
 2195W        W 6259   7.347   4.371  11.836
 2196W        W 6260   1.184   2.745  10.673
 2197W        W 6261   1.171   4.510   0.525
 2198W        W 6262   3.379   2.041   1.811
 2199W        W 6263   2.178   7.019  10.942
 2200W        W 6264   4.510   3.181   0.814
 2201W        W 6265   5.641   6.034   0.563
 2202W        W 6266   5.353   6.822   1.895
 2203W        W 6267   1.749   3.618   1.347
 2204W        W 6268   7.619   4.048   9.580
 2205W        W 6269   9.346   7.564   1.790
 2206W        W 6270   6.976   1.941  11.709
 2207W        W 6271   1.706   5.221  10.804
 2208W        W 6272   2.839   0.568   0.805
 2209W        W 6273   9.522   6.994   9.345
 2210W        W 6274   2.620   4.128   1.867
 2211W        W 6275   2.440   6.266  11.940
 2212W        W 6276   6.177   4.776   1.544
 2213W        W 6277   0.614   8.150   0.783
 2214W        W 6278   9.002   8.325   9.206
 2215W        W 6279   9.653   1.478   8.246
 2216W        W 6280   6.455   5.210   9.084
 2217W        W 6281   3.689   5.721  11.203
 2218W        W 6282   2.557   5.585  10.444
 2219W        W 6283   5.354   1.745  10.386
 2220W        W 6284   5.273   1.284   0.161
 2221W        W 6285   8.833   7.837   1.008
 2222W        W 6286   8.776   5.081  10.331
 2223W        W 6287   6.680   5.687   2.845
 2224W        W 6288   3.181   5.302   0.424
 2225W        W 6289   8.665   2.259   0.804
 2226W        W 6290   0.698   7.934  10.953
 2227W        W 6291   8.606   9.020   8.658
 2228W        W 6292   3.331   3.040   3.119
 2229W        W 6293   2.303   0.253   2.721
 2230W        W 6294   5.222   2.127   2.635
 2231W        W 6295   6.961   8.034   9.881
 2232W        W 6296   1.890   0.127   2.202
 2233W        W 6297   2.885   9.891  10.870
 2234W        W 6298   4.028   9.113  11.484
 2235W        W 6299   1.809   2.240   3.743
 2236W        W 6300   7.001   4.006   3.550
 2237W        W 6301   0.332   0.501   9.769
 2238W        W 6302   8.962   2.261   2.772
 2239W        W 6303   2.873   2.680   1.398
 2240W        W 6304   7.091   7.951   3.002
 2241W        W 6305   3.227   1.814   9.205
 2242W        W 6306   4.627   1.285   1.996
 2243W        W 6307   9.415   9.252   9.613
 2244W        W 6308   0.405   0.731   8.767
 2245W        W 6309  10.312   8.311  11.243
 2246W        W 6310   5.409   0.441   8.832
 2247W        W 6311   0.819  10.324  11.485
 2248W        W 6312   8.459   9.511   0.715
 2249W        W 6313   7.968   2.309   3.520
 2250W        W 6314   3.487   8.921  10.336
 2251W        W 6315   4.214   6.052   0.956
 2252W        W 6316   5.272  10.481   9.789
 2253W        W 6317   7.327   8.384   3.155
 2254W        W 6318   6.661   0.218   2.453
 2255W        W 6319   1.608   9.575   2.090
 2256W        W 6320   4.363   1.960  10.469
 2257W        W 6321   1.521   4.695   2.260
 2258W        W 6322   3.148   9.500   9.020
 2259W        W 6323   8.959   1.117  11.362
 2260W        W 6324   3.075   2.201  11.740
 2261W        W 6325   3.383   8.348   9.381
 2262W        W 6326   1.407   7.566   9.500
 2263W        W 6327   0.926   7.393  11.898
 2264W        W 6328   5.155   9.045   2.821
 2265W        W 6329   6.948   6.962   1.860
 2266W        W 6330   1.864   2.148  10.360
 2267W        W 6331   8.990   0.513   0.308
 2268W        W 6332   7.601   6.847   9.784
 2269W        W 6333   6.661   1.164   0.008
 2270W        W 6334   1.417   5.137  11.792
 2271W        W 6335   4.569   9.294  11.053
 2272W        W 6336   4.651   9.367   3.422
 2273W        W 6337   3.369   7.878  11.540
 2274W        W 6338   1.051  10.477  11.928
 2275W        W 6339   8.914   1.535   0.271
 2276W        W 6340   3.645   5.562   1.975
 2277W        W 6341   6.196   1.862  10.457
 2278W        W 6342   3.029   6.915   3.132
 2279W        W 6343   1.098   1.879   1.414
 2280W        W 6344   7.337   9.665  11.067
 2281W        W 6345   8.157   9.428   2.884
 2282W        W 6346   3.291   4.272   8.787
 2283W        W 6347   2.275   9.084  11.443
 2284W        W 6348   1.519   6.176   2.926
 2285W        W 6349   8.191   2.558  11.012
 2286W        W 6350   5.663   2.046  11.990
 2287W        W 6351   1.568   1.781   1.236
 2288W        W 6352   0.428   7.134  10.648
 2289W        W 6353   0.447   2.122  11.450
 2290W        W 6354   1.265   4.113   8.696
 2291W        W 6355   1.952   7.013   0.959
 2292W        W 6356   0.965   0.276   0.635
 2293W        W 6357   3.730   2.212   3.038
 2294W        W 6358   8.986   4.163   0.434
 2295W        W 6359   2.388   8.603   0.329
 2296W        W 6360   1.767   4.248  10.978
 2297W        W 6361   1.927   8.425   8.554
 2298W        W 6362   4.252   7.052   0.184
 2299W        W 6363   9.196   7.444   2.284
 2300W        W 6364   0.684   3.995   2.865
 2301W        W 6365   2.144   7.985   9.696
 2302W        W 6366   7.140   6.721   4.089
 2303W        W 6367   9.434   6.168   0.698
 2304W        W 6368   7.686   9.716   0.841
 2305W        W 6369   1.067   9.428   2.789
 2306W        W 6370   6.884   1.294   2.190
 2307W        W 6371   2.308   4.820   3.295
 2308W        W 6372   3.831   8.467   1.406
 2309W        W 6373   8.899   8.373   0.954
 2310W        W 6374   3.964   6.725   1.980
 2311W        W 6375   9.209   3.581   8.907
 2312W        W 6376   5.551   9.871   2.186
 2313W        W 6377   0.462   6.152  11.659
 2314W        W 6378   8.805   6.675   0.549
 2315W        W 6379   6.130   1.850  11.546
 2316W        W 6380  10.419   1.342   1.964
 2317W        W 6381   9.866   1.753  10.003
 2318W        W 6382   9.991   1.173   0.014
 2319W        W 6383   8.989   1.989   1.594
 2320W        W 6384   7.982   2.731   1.718
 2321W        W 6385   1.561   5.376   0.220
 2322W        W 6386   0.842   8.090  10.499
 2323W        W 6387   6.689   8.006   0.258
 2324W        W 6388   5.482   5.209   2.650
 2325W        W 6389  10.489   8.470   2.638
 2326W        W 6390   9.957   2.602   3.310
 2327W        W 6391   3.158   3.529   1.751
 2328W        W 6392   9.854   3.241  11.835
 2329W        W 6393   7.183   3.046   9.288
 2330W        W 6394   1.414   0.531   8.601
 2331W        W 6395   3.459   4.168  10.759
 2332W        W 6396   7.650   5.996   8.360
 2333W        W 6397   4.834   2.786   0.921
 2334W        W 6398   1.722   5.852   9.719
 2335W        W 6399   7.343   6.049   1.770
 2336W        W 6400   4.149   8.836   2.393
 2337W        W 6401   4.540   3.641  10.126
 2338W        W 6402   0.739   1.655   0.501
 2339W        W 6403   1.577   6.447   1.868
 2340W        W 6404   4.335   0.996  11.403
 2341W        W 6405   7.031   7.612  10.166
 2342W        W 6406   1.693   0.063   0.366
 2343W        W 6407   4.396   2.642  11.062
 2344W        W 6408   4.235   3.399  11.421
 2345W        W 6409   3.548   1.717   0.869
 2346W        W 6410   6.453   0.209   1.990
 2347W        W 6411   5.081   4.056   8.123
 2348W        W 6412   3.198   4.651  10.043
 2349W        W 6413   1.450   0.764  11.881
 2350W        W 6414   8.965   8.419  10.097
 2351W        W 6415   8.976   7.926   1.529
 2352W        W 6416   2.918   0.274   0.401
 2353W        W 6417   9.976   8.781  11.947
 2354W        W 6418   2.217   6.044  10.993
 2355W        W 6419   3.634   2.595   0.737
 2356W        W 6420  10.159   8.730  10.735
 2357W        W 6421   1.869   7.426  11.151
 2358W        W 6422   0.213   0.247   8.862
 2359W        W 6423   7.470   7.532  11.429
 2360W        W 6424   8.533   6.570  11.788
 2361W        W 6425   9.632   6.619   0.889
 2362W        W 6426   7.244   3.194   1.022
 2363W        W 6427   7.732   9.107   9.062
 2364W        W 6428   8.905   7.843  10.618
 2365W        W 6429   3.377   7.005   8.571
 2366W        W 6430   6.694   1.678  10.261
 2367W        W 6431   3.288   7.885   0.672
 2368W        W 6432   4.576   9.833   3.168
 2369W        W 6433   9.699  10.220   9.782
 2370W        W 6434   9.870   5.440  11.521
 2371W        W 6435   7.937  10.181   0.851
 2372W        W 6436   6.635   8.750   2.986
 2373W        W 6437   0.411   1.457   2.711
 2374W        W 6438   0.140   6.748  10.877
 2375W        W 6439   7.620   5.620   1.688
 2376W        W 6440   6.691   1.670   9.736
 2377W        W 6441   6.382   5.718   1.609
 2378W        W 6442   3.387   9.765  11.628
 2379W        W 6443   4.767   1.242  11.873
 2380W        W 6444   1.133   6.079   3.272
 2381W        W 6445   6.279   3.656   0.939
 2382W        W 6446   8.143   3.071  10.838
 2383W        W 6447   7.131   5.478   2.827
 2384W        W 6448   5.670  10.278   2.460
 2385W        W 6449   1.380   6.558  10.187
 2386W        W 6450   8.089   7.558  10.335
 2387W        W 6451   8.021   2.253   2.483
 2388W        W 6452   7.057   3.353  11.588
 2389W        W 6453   2.744   8.820  10.060
 2390W        W 6454  10.086   0.146   1.602
 2391W        W 6455   1.835   6.470   3.184
 2392W        W 6456   1.662   9.224  10.762
 2393W        W 6457   2.706   4.465   0.040
 2394W        W 6458   4.489   6.606   2.715
 2395W        W 6459   1.414   7.219   1.507
 2396W        W 6460   2.239   6.017  10.455
 2397W        W 6461   7.411   4.556   1.311
 2398W        W 6462   4.699   9.355   0.067
 2399W        W 6463   8.834   5.194   3.268
 2400W        W 6464   9.776   6.953   0.529
 2401W        W 6465   4.849   5.036   1.210
 2402W        W 6466   3.097   6.366   8.321
 2403W        W 6467   2.585   3.870  11.928
 2404W        W 6468   7.494   7.490   1.836
 2405W        W 6469   6.942   0.864   1.902
 2406W        W 6470   9.477   1.515   0.727
 2407W        W 6471   7.515   5.472   1.215
 2408W        W 6472   5.034   9.655   2.169
 2409W        W 6473   2.008   2.867   9.442
 2410W        W 6474   6.904   5.603  11.524
 2411W        W 6475   9.820   5.606   0.039
 2412W        W 6476   4.261   8.398   9.166
 2413W        W 6477   2.365   2.274   2.736
 2414W        W 6478   6.991   4.189   0.182
 2415W        W 6479   0.365   7.457   3.400
 2416W        W 6480   7.016   9.859  11.774
 2417W        W 6481   5.105   5.383  11.518
 2418W        W 6482   3.794   6.472   9.630
 2419W        W 6483   2.938   9.866   9.471
 2420W        W 6484   7.939   3.332  11.629
 2421W        W 6485   3.543   4.315   9.504
 2422W        W 6486   0.793   1.166   0.963
 2423W        W 6487   7.037   5.833   4.101
 2424W        W 6488   3.843   9.865   8.607
 2425W        W 6489   4.205   7.945   0.676
 2426W        W 6490   9.092   2.373   0.563
 2427W        W 6491   8.460   2.843   1.552
 2428W        W 6492   9.388   4.598   2.093
 2429W        W 6493   8.195   1.031   1.842
 2430W        W 6494   2.964   9.248   3.146
 2431W        W 6495   5.012   0.363   3.075
 2432W        W 6496   8.540   8.002   1.849
 2433W        W 6497   8.113   6.617   9.520
 2434W        W 6498   5.205   4.639  10.518
 2435W        W 6499   6.051  10.197   9.202
 2436W        W 6500   8.330   1.711   0.265
 2437W        W 6501   1.924   7.369   1.796
 2438W        W 6502   3.250   9.402   0.571
 2439W        W 6503   3.971   1.140   3.522
 2440W        W 6504   9.909   1.288   9.248
 2441W        W 6505   5.901   4.090  11.412
 2442W        W 6506   8.068   5.628   1.885
 2443W        W 6507   7.458   8.210   2.700
 2444W        W 6508  10.314   7.983   2.658
 2445W        W 6509  10.138   6.753   0.869
 2446W        W 6510   5.725  10.285  10.681
 2447W        W 6511   5.661   0.730  11.698
 2448W        W 6512   4.222  10.320  10.843
 2449W        W 6513   3.712   6.948   2.414
 2450W        W 6514   6.957   9.829   3.595
 2451W        W 6515   3.274   3.812  11.501
 2452W        W 6516   1.199   5.653  11.358
 2453W        W 6517   2.116   3.169   0.786
 2454W        W 6518  10.487   7.016  10.411
 2455W        W 6519   4.015   2.264   9.898
 2456W        W 6520   5.918   2.664   9.525
 2457W        W 6521   3.576   6.567  11.321
 2458W        W 6522   4.730   3.190   9.374
 2459W        W 6523   3.845   2.399   2.580
 2460W        W 6524   6.380   6.659   3.654
 2461W        W 6525   0.173   6.596   2.620
 2462W        W 6526   8.627   6.513   3.431
 2463W        W 6527   4.575   8.050   9.457
 2464W        W 6528   3.662   1.362  11.839
 2465W        W 6529   5.692   7.917   8.701
 2466W        W 6530   0.846   5.036   1.266
 2467W        W 6531   0.976   3.295  10.917
 2468W        W 6532   6.517   4.377   1.380
 2469W        W 6533   6.992   2.015  10.965
 2470W        W 6534   7.602   6.652  10.321
 2471W        W 6535   4.109   9.605   9.236
 2472W        W 6536   5.025   7.747   1.604
 2473W        W 6537   1.124   8.963   3.561
 2474W        W 6538   4.083   3.113   1.054
 2475W        W 6539   1.447   1.424   3.315
 2476W        W 6540   3.846   9.834   9.616
 2477W        W 6541   3.287   1.353   1.686
 2478W        W 6542   8.457  10.256   0.239
 2479W        W 6543   3.262   8.940   2.871
 2480W        W 6544   8.011   8.210   1.998
 2481W        W 6545   0.730   9.008  10.377
 2482W        W 6546   7.305   2.843   3.426
 2483W        W 6547   9.238  10.350   0.543
 2484W        W 6548   5.961   0.337   1.919
 2485W        W 6549   7.188   4.181   1.593
 2486W        W 6550   6.148   9.094   3.211
 2487W        W 6551   8.667   3.573   9.000
 2488W        W 6552  10.477   5.309   0.378
 2489W        W 6553   8.950   2.519   1.484
 2490W        W 6554   6.490   1.933   8.705
 2491W        W 6555   6.209   7.789   3.166
 2492W        W 6556   9.996   9.224   0.854
 2493W        W 6557  10.447   7.998  10.254
 2494W        W 6558   7.976   7.299   0.810
 2495W        W 6559   3.338   9.985   8.898
 2496W        W 6560   5.978   9.101   9.543
 2497W        W 6561   8.846   0.432   3.068
 2498W        W 6562   4.435   7.061   8.504
 2499W        W 6563   1.152   8.528   2.303
 2500W        W 6564   8.621   7.068  11.800
 2501W        W 6565   5.237   8.688   1.156
 2502W        W 6566   3.544   3.832   3.094
 2503W        W 6567   6.041   1.223   1.702
 2504W        W 6568  10.276   5.598   3.114
 2505W        W 6569   3.281   0.258   2.136
 2506W        W 6570  10.410   5.753   0.686
 2507W        W 6571   9.349   2.753   3.212
 2508W        W 6572  10.076   3.036   0.364
 2509W        W 6573   1.695   7.064   3.207
 2510W        W 6574   3.625   6.739   0.690
 2511W        W 6575   8.157   7.090   9.702
 2512W        W 6576   4.208   7.040   2.339
 2513W        W 6577   5.634   8.932   9.184
 2514W        W 6578   9.306   3.320   1.397
 2515W        W 6579   8.805   7.132   2.182
 2516W        W 6580   3.528   7.513   0.021
 2517W        W 6581   2.786   6.449   1.363
 2518W        W 6582   3.073   3.155   0.896
 2519W        W 6583   8.592   3.312   0.624
 2520W        W 6584   7.468   1.387   9.183
 2521W        W 6585   0.479   9.419  10.580
 2522W        W 6586   7.345   6.761   1.562
 2523W        W 6587   5.317   3.914   4.320
 2524W        W 6588   1.258   9.445   1.751
 2525W        W 6589   8.027   3.796   9.808
 2526W        W 6590   8.173   7.082   9.144
 2527W        W 6591   1.259   0.477   9.479
 2528W        W 6592   5.587   3.176   1.009
 2529W        W 6593   1.687   2.206   0.937
 2530W        W 6594   8.495   0.172   3.448
 2531W        W 6595   2.856   8.352   1.228
 2532W        W 6596   5.268   9.877   8.588
 2533W        W 6597   0.769   6.117  10.371
 2534W        W 6598   6.685   0.146   3.381
 2535W        W 6599   2.304   6.259   1.262
 2536W        W 6600   8.449   2.165   3.291
 2537W        W 6601   2.254   0.444  10.732
 2538W        W 6602   3.091   2.748   2.756
 2539W        W 6603   0.349   0.188   2.031
 2540W        W 6604   7.515   7.694  10.049
 2541W        W 6605   6.984   8.411   9.103
 2542W        W 6606   7.295   9.485   3.413
 2543W        W 6607   2.381   0.798  10.392
 2544W        W 6608   4.694   8.370   1.921
 2545W        W 6609   5.556   8.114  11.761
 2546W        W 6610   0.189   3.615  11.511
 2547W        W 6611   8.871   9.111  11.097
 2548W        W 6612  10.379   6.511  10.517
 2549W        W 6613   0.309   2.808   8.829
 2550W        W 6614   0.051   1.650   9.894
 2551W        W 6615   1.418  10.042  11.225
 2552W        W 6616   4.481   5.171   1.544
 2553W        W 6617   6.128   2.556   2.162
 2554W        W 6618   3.251   0.905  11.931
 2555W        W 6619   2.150   6.630   9.855
 2556W        W 6620   8.079   4.129   1.830
 2557W        W 6621   7.966   8.129   2.539
 2558W        W 6622   7.056   8.579  10.507
 2559W        W 6623   7.602   2.309   1.693
 2560W        W 6624   9.285   4.126   2.768
 2561W        W 6625   9.979   4.228   0.962
 2562W        W 6626   7.461   9.448   0.436
 2563W        W 6627   9.054   0.777   0.775
 2564W        W 6628   3.079   5.625  10.347
 2565W        W 6629   6.439   5.413   8.623
 2566W        W 6630   5.679   3.024  11.947
 2567W        W 6631   4.268   0.789   1.396
 2568W        W 6632   2.764   9.279  11.277
 2569W        W 6633   3.612   2.733  11.255
 2570W        W 6634   7.182   9.361   0.929
 2571W        W 6635   5.693   1.869   9.972
 2572W        W 6636   3.680   2.127   0.546
 2573W        W 6637   0.007   5.192   9.063
 2574W        W 6638   4.663   9.818  11.268
 2575W        W 6639  10.117   4.993   1.976
 2576W        W 6640   7.460   9.310   1.771
 2577W        W 6641   4.276   7.600  10.782
 2578W        W 6642   3.181   4.585  11.913
 2579W        W 6643  10.205   4.970  10.505
 2580W        W 6644   5.605   5.519  11.235
 2581W        W 6645   0.500   4.660   2.907
 2582W        W 6646   8.119   3.884   0.335
 2583W        W 6647   2.409   8.517   2.505
 2584W        W 6648   1.306   4.204   9.270
 2585W        W 6649   7.966   0.793  11.370
 2586W        W 6650   3.366   0.884   1.916
 2587W        W 6651   5.656   5.006   0.718
 2588W        W 6652   1.970   1.620   1.555
 2589W        W 6653   4.069   5.756   9.186
 2590W        W 6654   6.559   8.449   1.270
 2591W        W 6655   3.670   6.699   8.869
 2592W        W 6656   1.802   1.055   0.170
 2593W        W 6657   5.128   7.369   3.033
 2594W        W 6658   6.143   8.646   2.923
 2595W        W 6659   1.384   5.883   0.255
 2596W        W 6660   3.058   6.522  11.358
 2597W        W 6661   0.860   9.306   8.982
 2598W        W 6662   3.114   9.960  10.266
 2599W        W 6663   2.515   7.202   1.909
 2600W        W 6664   0.394   7.758  10.128
 2601W        W 6665   7.264   3.654   0.780
 2602W        W 6666   2.936   1.715   1.451
 2603W        W 6667   1.948   3.067   3.195
 2604W        W 6668   3.732   1.874  10.756
 2605W        W 6669   9.358   2.850  10.406
 2606W        W 6670   0.844   1.383   1.446
 2607W        W 6671   1.304   3.492   2.020
 2608W        W 6672   3.061   8.812   2.421
 2609W        W 6673  10.280   9.866  10.305
 2610W        W 6674   3.780  10.438  11.707
 2611W        W 6675   1.406   5.198   9.187
 2612W        W 6676   1.323   8.301   0.062
 2613W        W 6677   6.079   4.794  10.169
 2614W        W 6678   1.392   2.273   3.327
 2615W        W 6679   3.433   5.026   3.635
 2616W        W 6680   3.981   5.725   0.171
 2617W        W 6681   6.694   3.656  10.514
 2618W        W 6682   8.485   1.877   9.889
 2619W        W 6683   2.717   6.724   2.748
 2620W        W 6684   4.241   9.869   0.719
 2621W        W 6685   8.213   6.429   1.285
 2622W        W 6686   8.942   0.099   9.516
 2623W        W 6687   5.072   9.405  10.235
 2624W        W 6688   6.510  10.312  11.103
 2625W        W 6689   7.224   7.281  11.798
 2626W        W 6690   6.593   1.237  11.012
 2627W        W 6691   2.022   1.845  11.220
 2628W        W 6692   9.567   5.512  10.776
 2629W        W 6693   0.505   4.675   2.355
 2630W        W 6694   9.423   4.723   1.560
 2631W        W 6695   8.475   4.280   8.993
 2632W        W 6696   8.320   8.814  10.396
 2633W        W 6697   6.741   8.408   9.622
 2634W        W 6698   6.435   8.075   9.406
 2635W        W 6699   2.252   3.403  11.970
 2636W        W 6700   6.462   7.916   9.905
 2637W        W 6701   0.702   5.416   2.804
 2638W        W 6702   2.760   0.748   8.601
 2639W        W 6703   8.612   0.481  10.811
 2640W        W 6704   7.516   6.189  11.529
 2641W        W 6705   1.970   0.831  10.925
 2642W        W 6706   6.066   9.967   3.263
 2643W        W 6707   8.901  10.392   2.212
 2644W        W 6708   6.420   5.506  11.663
 2645W        W 6709   7.049   4.432   9.419
 2646W        W 6710   8.595   5.919   0.470
 2647W        W 6711   5.806   9.919   0.890
 2648W        W 6712   1.943   3.893   2.644
 2649W        W 6713   7.384   2.251  11.236
 2650W        W 6714   5.651   7.822   1.873
 2651W        W 6715  10.303   0.751   8.626
 2652W        W 6716   1.443   8.483   8.663
 2653W        W 6717   9.830   3.852   0.656
 2654W        W 6718   0.871   2.213  11.733
 2655W        W 6719   9.718   0.272  11.734
 2656W        W 6720   2.190   0.885   3.320
 2657W        W 6721   4.837   6.873   1.885
 2658W        W 6722   0.266  10.378   0.311
 2659W        W 6723   1.628   0.741   9.973
 2660W        W 6724   9.241   2.724   0.202
 2661W        W 6725   8.805   0.686   2.095
 2662W        W 6726   4.418   6.623   8.201
 2663W        W 6727   4.027   2.899   9.057
 2664W        W 6728   8.573   3.349  10.773
 2665W        W 6729   9.951   3.523  10.537
 2666W        W 6730   8.905   4.544   9.155
 2667W        W 6731   0.507   9.051   1.640
 2668W        W 6732   5.148   0.409   0.204
 2669W        W 6733   8.326   8.051   8.620
 2670W        W 6734   4.384   1.651   3.615
 2671W        W 6735   7.705   0.321   9.390
 2672W        W 6736   8.944   4.717   3.106
 2673W        W 6737   3.817   5.367  11.865
 2674W        W 6738   2.806   2.099   1.749
 2675W        W 6739   7.547  10.439   9.010
 2676W        W 6740   2.528  10.162   9.350
 2677W        W 6741   7.815   5.310   0.772
 2678W        W 6742   6.559   7.721  11.834
 2679W        W 6743   3.097   4.294   9.262
 2680W        W 6744   4.788   7.345   0.375
 2681W        W 6745   7.921   8.040  11.802
 2682W        W 6746   3.799   3.321  10.540
 2683W        W 6747   2.193   5.711   9.051
 2684W        W 6748   0.014   6.102  11.893
 2685W        W 6749  10.190   0.320   2.556
 2686W        W 6750   3.210   9.106   9.955
 2687W        W 6751   9.442   4.729   1.033
 2688W        W 6752   5.994   1.247   2.228
 2689W        W 6753   8.733   6.704   8.694
 2690W        W 6754   2.849   2.876  10.811
 2691W        W 6755   5.087   8.139  11.918
 2692W        W 6756   9.308   2.864   0.673
 2693W        W 6757   1.380   4.174   1.456
 2694W        W 6758   7.379   9.507  10.254
 2695W        W 6759   4.080   0.591  10.353
 2696W        W 6760   4.248   1.912   8.909
 2697W        W 6761   8.955   5.601   2.961
 2698W        W 6762   4.504   2.841  10.586
 2699W        W 6763   2.824   4.586   2.031
 2700W        W 6764   7.655   8.491  11.145
 2701W        W 6765  10.272   2.374   1.971
 2702W        W 6766  10.259  10.412   0.336
 2703W        W 6767  10.171   2.668  11.504
 2704W        W 6768   7.888   2.239   8.987
 2705W        W 6769   8.096   0.913  11.894
 2706W        W 6770   4.105   5.160   2.812
 2707W        W 6771   3.262   4.672   8.457
 2708W        W 6772   8.492  10.234  10.439
 2709W        W 6773   8.137   5.690   9.798
 2710W        W 6774   3.189   3.962   3.441
 2711W        W 6775   9.513   6.222   1.220
 2712W        W 6776   5.001   1.252   9.717
 2713W        W 6777   3.047   8.282   3.132
 2714W        W 6778   0.416  10.007  11.383
 2715W        W 6779   0.700   4.800   9.242
 2716W        W 6780   1.823   4.680   3.086
 2717W        W 6781   8.384  10.120   3.588
 2718W        W 6782   2.445   8.227  11.281
 2719W        W 6783   7.140  10.443   1.753
 2720W        W 6784   2.869   1.856  10.994
 2721W        W 6785   1.171   5.106   0.887
 2722W        W 6786   6.387   5.283  10.818
 2723W        W 6787   5.659   6.504   2.188
 2724W        W 6788   4.542   1.476  10.440
 2725W        W 6789   2.415   1.221   2.617
 2726W        W 6790   4.149   7.413   9.906
 2727W        W 6791   5.448   1.315   8.944
 2728W        W 6792   3.713   6.002   2.220
 2729W        W 6793   6.125   0.803   1.982
 2730W        W 6794   0.282   6.347   9.750
 2731W        W 6795   6.240   8.498  11.445
 2732W        W 6796  10.317   8.967   1.182
 2733W        W 6797   4.305   2.434   3.452
 2734W        W 6798   7.671   1.174  10.085
 2735W        W 6799  10.186   2.627   0.688
 2736W        W 6800   3.662   6.521   1.178
 2737W        W 6801   6.243   6.929   2.830
 2738W        W 6802   9.021   1.298   0.745
 2739W        W 6803   9.089   7.931   2.038
 2740W        W 6804   2.788   8.999   1.669
 2741W        W 6805   2.641   1.481  11.814
 2742W        W 6806   0.303   9.453   1.986
 2743W        W 6807   1.307   6.847   0.431
 2744W        W 6808   4.781   2.187   3.595
 2745W        W 6809  10.226   3.061   1.208
 2746W        W 6810   5.508   3.795   9.967
 2747W        W 6811   7.811   4.215  10.034
 2748W        W 6812   4.874   1.679  11.469
 2749W        W 6813   6.470  10.332   0.408
 2750W        W 6814   2.536   1.884   0.961
 2751W        W 6815   7.008   7.897   8.873
 2752W        W 6816   0.303  10.206  10.942
 2753W        W 6817  10.449   6.113   9.400
 2754W        W 6818   3.793   7.933  11.868
 2755W        W 6819   1.200   0.896   0.828
 2756W        W 6820   5.207   1.361   3.406
 2757W        W 6821   2.288   5.241   1.402
 2758W        W 6822   2.735   4.994   1.354
 2759W        W 6823   0.784   9.580   9.404
 2760W        W 6824   3.412   4.400   4.288
 2761W        W 6825   4.054   9.306  10.963
 2762W        W 6826   3.038   7.131  10.870
 2763W        W 6827   0.979   2.112   3.583
 2764W        W 6828   9.617   5.141   9.569
 2765W        W 6829   8.611   3.796   0.392
 2766W        W 6830   0.411  10.474   9.260
 2767W        W 6831   4.539   5.688  10.057
 2768W        W 6832   3.152  10.468   8.728
 2769W        W 6833   7.095   8.828   3.214
 2770W        W 6834   7.893   2.800   9.510
 2771W        W 6835   9.330   9.059  11.709
 2772W        W 6836   5.607   0.915   9.728
 2773W        W 6837   8.273   4.198  11.759
 2774W        W 6838   8.818   5.502   9.156
 2775W        W 6839   5.044   3.442   4.236
 2776W        W 6840   4.389   4.300  11.334
 2777W        W 6841   9.508   5.934  11.794
 2778W        W 6842   2.744   4.394   9.773
 2779W        W 6843   2.153   6.055   3.203
 2780W        W 6844   5.148   1.078   1.408
 2781W        W 6845   7.769  10.427   9.859
 2782W        W 6846   4.679   2.209   8.852
 2783W        W 6847   0.414   0.002   9.785
 2784W        W 6848   8.493   0.779   2.816
 2785W        W 6849   6.566   7.433  11.413
 2786W        W 6850   4.379   8.775  11.645
 2787W        W 6851   3.781   9.954   0.948
 2788W        W 6852   8.412   2.653   2.025
 2789W        W 6853   9.572   8.659   1.615
 2790W        W 6854   2.084   9.407  10.511
 2791W        W 6855   0.026   4.561   2.643
 2792W        W 6856   8.463   4.649   3.283
 2793W        W 6857   8.551   9.651   8.513
 2794W        W 6858   2.655   7.847  10.845
 2795W        W 6859   4.424   1.992   1.001
 2796W        W 6860   6.062   7.669   2.689
 2797W        W 6861   1.702   6.349   9.855
 2798W        W 6862   7.978   0.335   1.103
 2799W        W 6863   1.830   0.487   1.215
 2800W        W 6864   8.067   1.465   9.868
 2801W        W 6865   7.420   2.642   9.995
 2802W        W 6866   8.899   3.995   2.466
 2803W        W 6867   3.178   0.225   3.222
 2804W        W 6868   9.966   5.657  11.057
 2805W        W 6869   2.874   5.658   3.451
 2806W        W 6870   8.796   4.226   9.984
 2807W        W 6871   9.892   7.074  11.129
 2808W        W 6872   8.369   5.838   2.666
 2809W        W 6873   8.362   3.522   2.328
 2810W        W 6874   4.594   2.762   9.608
 2811W        W 6875   4.478   6.144   9.858
 2812W        W 6876   0.414   9.786   0.765
 2813W        W 6877   0.503   4.635  11.047
 2814W        W 6878   1.756   4.604   1.483
 2815W        W 6879   5.273   8.393   9.888
 2816W        W 6880   5.518   4.634   1.743
 2817W        W 6881   0.965   4.461   8.962
 2818W        W 6882   2.751   8.575   8.868
 2819W        W 6883   0.984   0.988  10.717
 2820W        W 6884   0.338   7.510   9.675
 2821W        W 6885   4.796   4.595   3.004
 2822W        W 6886   5.094   5.906   1.827
 2823W        W 6887   8.426   4.234  10.325
 2824W        W 6888   6.972   9.404   1.958
 2825W        W 6889   2.247   6.480   3.503
 2826W        W 6890   5.252   1.398  11.180
 2827W        W 6891   7.407   4.204   0.491
 2828W        W 6892   0.306   8.869   2.641
 2829W        W 6893   2.462   0.249   1.020
 2830W        W 6894   7.863   1.363   2.567
 2831W        W 6895   8.188   6.006   2.211
 2832W        W 6896  10.202   8.882  10.260
 2833W        W 6897   1.387   8.816  10.899
 2834W        W 6898   4.259   1.248  10.968
 2835W        W 6899   1.870   8.459   1.182
 2836W        W 6900   3.923   8.796   9.484
 2837W        W 6901   5.249   2.370   3.688
 2838W        W 6902   0.822   9.026   1.148
 2839W        W 6903   7.409   1.812   1.864
 2840W        W 6904   7.674   9.561   8.796
 2841W        W 6905   5.963   0.486   8.626
 2842W        W 6906   8.042   3.825  11.467
 2843W        W 6907   1.314   4.463  10.955
 2844W        W 6908   0.419   4.977   0.675
 2845W        W 6909   8.890   5.806   0.070
 2846W        W 6910   6.989   1.343   8.972
 2847W        W 6911   7.804   9.857  11.150
 2848W        W 6912   6.856   8.531   0.407
 2849W        W 6913   5.162   0.830   9.969
 2850W        W 6914   5.588   5.012  10.343
 2851W        W 6915   3.594   8.557   9.990
 2852W        W 6916   8.795  10.363   1.698
 2853W        W 6917   2.572   3.568   0.326
 2854W        W 6918   8.484   1.456   9.567
 2855W        W 6919   5.022   5.692  10.900
 2856W        W 6920   8.587   9.111   1.019
 2857W        W 6921   3.359   2.649  11.691
 2858W        W 6922   0.114   7.435   2.429
 2859W        W 6923   5.686   2.155  10.416
 2860W        W 6924   5.948   6.058   9.048
 2861W        W 6925   9.474   6.642   9.716
 2862W        W 6926   1.155   4.708   9.942
 2863W        W 6927   9.392   2.282   2.490
 2864W        W 6928   4.700   4.656   8.910
 2865W        W 6929   4.225   2.745   2.674
 2866W        W 6930   3.121   5.319   1.394
 2867W        W 6931   0.908   7.012   2.235
 2868W        W 6932   8.416   0.267   0.244
 2869W        W 6933   1.742   1.239  10.737
 2870W        W 6934  10.417   8.106   0.525
 2871W        W 6935   7.200  10.014   9.742
 2872W        W 6936   3.564   2.863  10.533
 2873W        W 6937   4.123   4.767   4.154
 2874W        W 6938   3.936  10.307  10.341
 2875W        W 6939   0.446   9.969   9.337
 2876W        W 6940   6.084  10.425   2.190
 2877W        W 6941   6.544   8.595  10.596
 2878W        W 6942   2.436   0.590   8.986
 2879W        W 6943   5.594   5.993   1.970
 2880W        W 6944   7.592   4.041   1.932
 2881W        W 6945   9.490   8.561  11.822
 2882W        W 6946   1.901   0.323   9.819
 2883W        W 6947   8.839   7.535   1.842
 2884W        W 6948   7.479   4.186   3.323
 2885W        W 6949   3.207   7.872   9.016
 2886W        W 6950   3.708   8.705   0.402
 2887W        W 6951   1.243   2.405   8.646
 2888W        W 6952   1.215   2.433   0.937
 2889W        W 6953   3.757   9.037   9.905
 2890W        W 6954   0.350   3.242   0.304
 2891W        W 6955   4.368   2.627  11.730
 2892W        W 6956   0.250   7.467   9.164
 2893W        W 6957   8.519   7.513  10.613
 2894W        W 6958   5.253   6.170   2.287
 2895W        W 6959  10.395   0.441   0.667
 2896W        W 6960   1.354   1.200   9.962
 2897W        W 6961   6.997   5.655   8.212
 2898W        W 6962   4.209   8.275  11.713
 2899W        W 6963  10.397   5.456   2.150
 2900W        W 6964   4.461   6.501   8.985
 2901W        W 6965   4.230   4.904   9.096
 2902W        W 6966   1.384   8.429   1.343
 2903W        W 6967   3.460   5.368  11.507
 2904W        W 6968   3.245   3.329  10.454
 2905W        W 6969   3.644   4.038   9.924
 2906W        W 6970   1.784   9.862   1.698
 2907W        W 6971   4.032   2.093   9.395
 2908W        W 6972   9.346   7.507  10.102
 2909W        W 6973   7.555   0.531   3.575
 2910W        W 6974   2.047   9.605   2.356
 2911W        W 6975   0.619   5.376   0.971
 2912W        W 6976   0.412   3.313   8.981
 2913W        W 6977   6.657   6.037   8.277
 2914W        W 6978   2.434   1.684  10.793
 2915W        W 6979   9.222   7.523   0.816
 2916W        W 6980   8.964   1.198  11.884
 2917W        W 6981   6.043   4.653   9.551
 2918W        W 6982   3.115   5.679   9.412
 2919W        W 6983   6.732   6.409   0.423
 2920W        W 6984  10.490   0.747   9.096
 2921W        W 6985   5.520   1.812   3.007
 2922W        W 6986   3.773   5.476   9.806
 2923W        W 6987   6.959   9.355   9.505
 2924W        W 6988   5.787   7.436   8.485
 2925W        W 6989   8.440   9.363   1.454
 2926W        W 6990   2.132   8.889  10.565
 2927W        W 6991   1.697   9.380   1.478
 2928W        W 6992   9.882   5.927   3.285
 2929W        W 6993   1.083   9.421   3.311
 2930W        W 6994   6.461   4.222   3.735
 2931W        W 6995   6.516   8.920  11.000
 2932W        W 6996   6.772   3.632   0.858
 2933W        W 6997   1.750   3.567  11.938
 2934W        W 6998   1.510   8.034   1.026
 2935W        W 6999   0.775   5.700   1.963
 2936W        W 7000   1.681   1.808   2.957
 2937W        W 7001   7.239   6.737   9.389
 2938W        W 7002   2.168   5.693  11.384
 2939W        W 7003   4.776   9.951  10.785
 2940W        W 7004   7.810   5.094  10.360
 2941W        W 7005   9.759   5.023   0.428
 2942W        W 7006   3.419   8.825   9.557
 2943W        W 7007  10.406   8.856  11.720
 2944W        W 7008   6.420   5.595   9.916
 2945W        W 7009   1.179   4.044   2.835
 2946W        W 7010   9.506   9.128   1.855
 2947W        W 7011   1.861  10.241   9.239
 2948W        W 7012   8.371   4.664  11.946
 2949W        W 7013   4.058  10.464   0.152
 2950W        W 7014   2.563   1.642   1.837
 2951W        W 7015   0.329   9.093   9.867
 2952W        W 7016   8.492   1.216   0.071
 2953W        W 7017   5.065  10.384   0.908
 2954W        W 7018   7.457   0.349   9.837
 2955W        W 7019   6.048   9.543   2.983
 2956W        W 7020   8.784   4.524  11.005
 2957W        W 7021   8.505   4.704  10.047
 2958W        W 7022   0.978   2.610   0.061
 2959W        W 7023   6.679   2.413   1.311
 2960W        W 7024   3.842   2.210   0.057
 2961W        W 7025   7.044   4.621   2.469
 2962W        W 7026   5.996   6.151  10.889
 2963W        W 7027   2.476   3.012   3.295
 2964W        W 7028   6.632   7.273   9.112
 2965W        W 7029  10.268   8.780   0.703
 2966W        W 7030   4.128   0.014  11.315
 2967W        W 7031   2.649  10.424   0.672
 2968W        W 7032   7.913   6.370   8.587
 2969W        W 7033   2.717   9.042   2.723
 2970W        W 7034   0.716   2.178   9.504
 2971W        W 7035   5.997   3.785   1.804
 2972W        W 7036   2.145   2.867  10.407
 2973W        W 7037   7.689   5.965   7.846
 2974W        W 7038  10.481   3.870   3.253
 2975W        W 7039   1.362   1.197  11.047
 2976W        W 7040   2.627   8.394  11.760
 2977W        W 7041   2.877   4.169   2.347
 2978W        W 7042   1.374   7.196   2.284
 2979W        W 7043   9.338   4.260   9.061
 2980W        W 7044   8.772   7.086   8.330
 2981W        W 7045   9.933   5.729   0.942
 2982W        W 7046   7.548   6.780   2.434
 2983W        W 7047   7.119   5.216   7.953
 2984W        W 7048   4.101   3.652   9.345
 2985W        W 7049   2.176   7.952   2.998
 2986W        W 7050   8.587   0.236   8.867
 2987W        W 7051   0.286   8.426   2.194
 2988W        W 7052   9.594   8.102  11.412
 2989W        W 7053   2.822   9.549  10.335
 2990W        W 7054   3.857   2.672  11.770
 2991W        W 7055   8.880   7.301   2.700
 2992W        W 7056   2.337   2.552   0.184
 2993W        W 7057   8.397   8.788   3.308
 2994W        W 7058   1.782   3.327  10.525
 2995W        W 7059  10.376   0.590  10.979
 2996W        W 7060   1.136   0.688  10.003
 2997W        W 7061   9.438   1.301  11.326
 2998W        W 7062   9.514   6.067   9.480
 2999W        W 7063   6.103   4.284   1.700
 3000W        W 7064   5.419   7.105   8.233
 3001W        W 7065   5.586   9.338   2.839
 3002W        W 7066   0.932   8.165   1.694
 3003W        W 7067   4.629   7.517   0.822
 3004W        W 7068   4.121   3.799  10.374
 3005W        W 7069   0.269   0.727   0.459
 3006W        W 7070   3.675   7.471   1.374
 3007W        W 7071   3.812   5.186   8.091
 3008W        W 7072   1.242   8.565   1.812
 3009W        W 7073   4.779   2.239   1.733
 3010W        W 7074   6.522   2.213  10.971
 3011W        W 7075   8.942   8.193   2.460
 3012W        W 7076   9.174   3.750   3.440
 3013W        W 7077  10.425   3.793   9.365
 3014W        W 7078   6.603   8.186   0.773
 3015W        W 7079   8.869   9.483   0.305
 3016W        W 7080   5.623   8.367   9.012
 3017W        W 7081   2.225   3.732   9.285
 3018W        W 7082   9.120   6.512  10.059
 3019W        W 7083   3.361   3.169   9.590
 3020W        W 7084   5.245   1.790   9.341
 3021W        W 7085   3.993   8.038  10.798
 3022W        W 7086   6.930   4.268  10.853
 3023W        W 7087   0.873   8.034   3.332
 3024W        W 7088   8.356   9.726  10.427
 3025W        W 7089   4.996   7.104  10.448
 3026W        W 7090   0.961   0.922   0.019
 3027W        W 7091   0.897  10.439   9.072
 3028W        W 7092   7.787   4.012   8.975
 3029W        W 7093   3.713   5.474   3.951
 3030W        W 7094   6.529   2.642  11.398
 3031W        W 7095   8.739   7.697   3.603
 3032W        W 7096   6.925   1.779   0.217
 3033W        W 7097   1.240   3.963  10.919
 3034W        W 7098   4.063   3.005   8.517
 3035W        W 7099  10.368   9.725   1.921
 3036W        W 7100   3.065   2.617   0.090
 3037W        W 7101   0.441   0.964   3.569
 3038W        W 7102   0.047   2.647   2.831
 3039W        W 7103   7.597   2.270   2.203
 3040W        W 7104   1.279   8.099   3.032
 3041W        W 7105   9.442   7.330  11.102
 3042W        W 7106   1.789   4.348   3.501
 3043W        W 7107   3.138   1.770   2.485
 3044W        W 7108   4.401   2.005  11.403
 3045W        W 7109   4.531   1.271   8.932
 3046W        W 7110   2.206   0.666   0.899
 3047W        W 7111   9.960   5.857  10.081
 3048W        W 7112   9.364   3.793   9.341
 3049W        W 7113   3.439   4.321   3.141
 3050W        W 7114   6.655   1.137   3.130
 3051W        W 7115   9.376   2.020   9.361
 3052W        W 7116   5.654   0.325   0.478
 3053W        W 7117   8.388   7.349   0.345
 3054W        W 7118   3.664   4.628   3.916
 3055W        W 7119   0.823   6.172   1.777
 3056W        W 7120   0.182   5.588   8.753
 3057W        W 7121   9.019   6.229   0.368
 3058W        W 7122   8.738   3.531  10.232
 3059W        W 7123   8.564   6.936  11.275
 3060W        W 7124   9.866   6.613  11.929
 3061W        W 7125   3.815   4.636   2.929
 3062W        W 7126   4.959   9.026   0.363
 3063W        W 7127   6.718  10.040   9.891
 3064W        W 7128   6.214   5.889   8.633
 3065W        W 7129   8.978   7.455   1.352
 3066W        W 7130   5.567   7.943   0.804
 3067W        W 7131   5.313   3.103  10.399
 3068W        W 7132   5.958   1.386   0.702
 3069W        W 7133   5.783   3.634   0.946
 3070W        W 7134   1.385   6.352   0.438
 3071W        W 7135   3.642   3.108  11.574
 3072W        W 7136   0.563   6.391   2.921
 3073W        W 7137   4.621   6.985   0.933
 3074W        W 7138   0.827   6.905  11.832
 3075W        W 7139   9.440   3.783   0.972
 3076W        W 7140   7.548   1.153   2.942
 3077W        W 7141   7.025   2.146   1.027
 3078W        W 7142   8.908   4.034  10.982
 3079W        W 7143   3.571   7.550   8.768
 3080W        W 7144   3.271   0.764   9.279
 3081W        W 7145   3.684   4.164   1.080
 3082W        W 7146  10.346   7.465   1.718
 3083W        W 7147   6.055   9.939   1.319
 3084W        W 7148  10.431  10.342   9.083
 3085W        W 7149   8.617   8.073   0.584
 3086W        W 7150   7.574   7.543   1.015
 3087W        W 7151   5.337   7.512   8.735
 3088W        W 7152   2.212   1.432   2.181
 3089W        W 7153   6.465   4.067  10.760
 3090W        W 7154   9.899   8.430  10.433
 3091W        W 7155   1.613   4.303   2.762
 3092W        W 7156   2.368   8.139   1.898
 3093W        W 7157   8.366   3.132  11.815
 3094W        W 7158   6.727  10.233  11.947
 3095W        W 7159   9.910   3.523  10.029
 3096W        W 7160   5.243   4.555   1.287
 3097W        W 7161   3.065   1.836   3.575
 3098W        W 7162   0.790   4.268   8.477
 3099W        W 7163   7.190   8.045   3.532
 3100W        W 7164   6.822   8.343   3.221
 3101W        W 7165   5.541   6.375  10.731
 3102W        W 7166   2.113   8.949   3.218
 3103W        W 7167   6.060   8.522   1.377
 3104W        W 7168   1.860   4.540  11.989
 3105W        W 7169   9.983   0.390   9.709
 3106W        W 7170   6.116   8.152   2.810
 3107W        W 7171   3.900   5.940   4.086
 3108W        W 7172   5.056   5.155   9.590
 3109W        W 7173   7.010   9.015  10.790
 3110W        W 7174   8.927   1.702  10.075
 3111W        W 7175   7.327   0.951   1.568
 3112W        W 7176   9.882   4.830   9.042
 3113W        W 7177   2.907   2.736   3.275
 3114W        W 7178   7.886   2.468  10.049
 3115W        W 7179   4.702   1.073  10.709
 3116W        W 7180   7.114   5.694  10.497
 3117W        W 7181   2.708   3.022   2.465
 3118W        W 7182   5.998   5.242   9.914
 3119W        W 7183   1.332   6.704   2.511
 3120W        W 7184   7.851   5.193   3.232
 3121W        W 7185   9.760   1.721   9.485
 3122W        W 7186   6.529   3.152  11.218
 3123W        W 7187   7.008   0.948   3.467
 3124W        W 7188   5.980   0.024   0.241
 3125W        W 7189   7.417   8.533   0.383
 3126W        W 7190   8.439   4.808   8.935
 3127W        W 7191   8.626   5.746   1.258
 3128W        W 7192   8.889   6.460   2.445
 3129W        W 7193   7.469   2.679   2.487
 3130W        W 7194   3.725   5.098  11.134
 3131W        W 7195   3.007   9.388  10.804
 3132W        W 7196   4.037   0.427   9.223
 3133W        W 7197   4.007   1.844   2.311
 3134W        W 7198   8.157   0.533   1.955
 3135W        W 7199   8.149   5.562  10.313
 3136W        W 7200   3.790  10.369   3.239
 3137W        W 7201   5.129   9.065   9.409
 3138W        W 7202   0.180   3.098  11.537
 3139W        W 7203   8.820   5.069  10.885
 3140W        W 7204   0.890   9.985   0.670
 3141W        W 7205   5.447   5.140   3.168
 3142W        W 7206   7.922   0.756   9.195
 3143W        W 7207   9.568   1.218   9.760
 3144W        W 7208   2.288   4.342   9.088
 3145W        W 7209   9.308   8.037  11.860
 3146W        W 7210   5.126   9.956   3.046
 3147W        W 7211   5.578   5.357  10.746
 3148W        W 7212   2.257   6.596   2.536
 3149W        W 7213   5.690   2.142  11.487
 3150W        W 7214   5.927   1.401   9.091
 3151W        W 7215   7.709   5.185   8.436
 3152W        W 7216   9.873   0.203   3.379
 3153W        W 7217   0.441   4.250   8.827
 3154W        W 7218  10.403   2.339  10.382
 3155W        W 7219   4.839   6.939   3.000
 3156W        W 7220   9.435   1.016  10.895
 3157W        W 7221   9.911   9.403   1.972
 3158W        W 7222   3.680   2.631   8.753
 3159W        W 7223   7.874   6.846   8.775
 3160W        W 7224   4.668   5.262  11.296
 3161W        W 7225   1.880   7.554  11.654
 3162W        W 7226   4.610   7.306   3.292
 3163W        W 7227   6.244   6.410  11.879
 3164W        W 7228   8.485   5.553   2.184
 3165W        W 7229   0.798   0.324  11.316
 3166W        W 7230   5.178   2.310  11.506
 3167W        W 7231   5.000   8.461   3.496
 3168W        W 7232   2.643   0.818   9.961
 3169W        W 7233   8.756   7.685   2.351
 3170W        W 7234   1.050   1.919   9.902
 3171W        W 7235   8.407  10.363   9.193
 3172W        W 7236   6.080   3.770   2.693
 3173W        W 7237   9.818  10.008   2.691
 3174W        W 7238   7.438   9.760   2.980
 3175W        W 7239   6.891   5.197  10.736
 3176W        W 7240   9.481   3.737   3.024
 3177W        W 7241   4.176   7.263  10.399
 3178W        W 7242   8.525   7.862  10.248
 3179W        W 7243   9.317   1.117   3.150
 3180W        W 7244   1.359   2.760   9.964
 3181W        W 7245   2.171   3.982  10.819
 3182W        W 7246   2.212   5.445   0.356
 3183W        W 7247   4.781   2.754   1.451
 3184W        W 7248   6.182   5.611   9.466
 3185W        W 7249   6.923   0.245  11.766
 3186W        W 7250   0.641   6.388   8.515
 3187W        W 7251   1.827   3.368   9.319
 3188W        W 7252   5.148   6.115   9.600
 3189W        W 7253   6.414   5.103  11.313
 3190W        W 7254   2.334   5.555  10.905
 3191W        W 7255   8.688   5.521  10.573
 3192W        W 7256   0.755   7.444  11.033
 3193W        W 7257   4.536   1.747   0.551
 3194W        W 7258   1.960   2.718   1.557
 3195W        W 7259   0.749   5.189   3.244
 3196W        W 7260   8.603   7.583  11.949
 3197W        W 7261   9.628   1.311   3.506
 3198W        W 7262   2.427   9.107   0.285
 3199W        W 7263   6.005   6.564   8.970
 3200W        W 7264   4.699   2.438  11.397
 3201W        W 7265   2.326   9.155  10.957
 3202W        W 7266   9.091   0.240  10.991
 3203W        W 7267   1.041   1.250   0.498
 3204W        W 7268   7.237   6.128   8.069
 3205W        W 7269   0.524   0.282   3.198
 3206W        W 7270   9.132   8.400   1.518
 3207W        W 7271   6.999   5.967   3.604
 3208W        W 7272   8.327   7.105  10.241
 3209W        W 7273   1.425   3.538  11.111
 3210W        W 7274   3.727   3.585  11.433
 3211W        W 7275   8.112   1.876   9.538
 3212W        W 7276   1.219   2.366   2.297
 3213W        W 7277   5.250   2.409   1.636
 3214W        W 7278   1.224   1.883   2.647
 3215W        W 7279   8.923   9.801   9.726
 3216W        W 7280   9.888  10.436   2.408
 3217W        W 7281   3.416   9.893   0.518
 3218W        W 7282   4.525   5.547  10.877
 3219W        W 7283   3.821   4.379   0.600
 3220W        W 7284   5.312   2.850   0.709
 3221W        W 7285   7.920   7.926   8.963
 3222W        W 7286   0.187   6.451   0.216
 3223W        W 7287   5.215   6.712  10.960
 3224W        W 7288   3.495   5.516   4.410
 3225W        W 7289   7.832   4.432   1.016
 3226W        W 7290   4.751   5.533   3.476
 3227W        W 7291   9.810   3.610   2.185
 3228W        W 7292   7.996   1.315  11.372
 3229W        W 7293   2.177   5.220   2.516
 3230W        W 7294   5.790   0.350   0.967
 3231W        W 7295   0.239   9.086   3.117
 3232W        W 7296   0.876   8.268   9.278
 3233W        W 7297   3.849   8.296   2.794
 3234W        W 7298   2.736  10.464   2.705
 3235W        W 7299   8.651   5.025   1.786
 3236W        W 7300   3.576   3.063   0.952
 3237W        W 7301   9.999   0.777   2.692
 3238W        W 7302   6.136   4.343  10.487
 3239W        W 7303   8.430   4.133   3.332
 3240W        W 7304   0.002  10.353   8.568
 3241W        W 7305   7.359   3.525   9.485
 3242W        W 7306   9.280   8.096   1.131
 3243W        W 7307   5.550   5.231   8.957
 3244W        W 7308   4.176   8.528  10.718
 3245W        W 7309   1.946   0.224   0.792
 3246W        W 7310   1.002   0.814   2.687
 3247W        W 7311   2.687   0.233   8.732
 3248W        W 7312   8.439   9.050   9.756
 3249W        W 7313   9.953   7.561   0.253
 3250W        W 7314  10.298   9.337  11.724
 3251W        W 7315   0.242   4.703   9.016
 3252W        W 7316   3.774   9.434   1.139
 3253W        W 7317   4.713  10.334  11.107
 3254W        W 7318   2.689   6.003   1.059
 3255W        W 7319   2.429   0.370   0.522
 3256W        W 7320   9.354   0.855  10.399
 3257W        W 7321   5.990   9.534  11.500
 3258W        W 7322   0.735   1.463  10.778
 3259W        W 7323   6.894   7.206  10.446
 3260W        W 7324   6.155   7.490   9.829
 3261W        W 7325  10.065   1.786   0.780
 3262W        W 7326   6.229   3.947   9.251
 3263W        W 7327   8.525   6.665   9.851
 3264W        W 7328   2.166   0.551   2.330
 3265W        W 7329   4.071   8.429   3.262
 3266W        W 7330   4.162   5.633   3.711
 3267W        W 7331   1.305   3.273   9.257
 3268W        W 7332   8.953   3.204   2.798
 3269W        W 7333   9.176   2.269  11.302
 3270W        W 7334   8.994   5.447   1.492
 3271W        W 7335   6.214   4.465  11.040
 3272W        W 7336   0.422   3.231  10.814
 3273W        W 7337   5.645   5.999   3.814
 3274W        W 7338   1.709   8.945   2.800
 3275W        W 7339   8.006   5.569   2.905
 3276W        W 7340   5.664   1.206  11.444
 3277W        W 7341   2.901   5.455   2.463
 3278W        W 7342   0.507  10.244   2.436
 3279W        W 7343   1.891   8.405   9.073
 3280W        W 7344   3.109   6.151  10.983
 3281W        W 7345   3.250   5.321   9.769
 3282W        W 7346   7.823   3.664   1.613
 3283W        W 7347   6.776  10.076   0.799
 3284W        W 7348   1.173   0.504  10.520
 3285W        W 7349   0.239  10.094  10.063
 3286W        W 7350   0.942  10.375   2.750
 3287W        W 7351   3.311   8.940  10.808
 3288W        W 7352   8.151   8.852   8.831
 3289W        W 7353  10.363   8.355  11.757
 3290W        W 7354   2.154   2.766  11.375
 3291W        W 7355   6.382   0.894   1.252
 3292W        W 7356   0.768   9.467   1.404
 3293W        W 7357   6.597   8.211   8.791
 3294W        W 7358   7.544   8.675   9.761
 3295W        W 7359   6.240  10.113   0.013
 3296W        W 7360   9.546   1.945   0.981
 3297W        W 7361   0.855   6.514   1.382
 3298W        W 7362  10.365   2.415  10.876
 3299W        W 7363   6.943  10.364   2.225
 3300W        W 7364   1.820   2.344   1.910
 3301W        W 7365   1.944   4.608   9.936
 3302W        W 7366   5.166   9.440   3.177
 3303W        W 7367   5.427   0.934   3.572
 3304W        W 7368   8.932   3.224   9.852
 3305W        W 7369  10.191   4.906   0.210
 3306W        W 7370   3.868   7.792   2.738
 3307W        W 7371   3.836   8.231   0.447
 3308W        W 7372   8.679   9.952   9.309
 3309W        W 7373   4.602   6.878   1.430
 3310W        W 7374   3.798   5.946  10.511
 3311W        W 7375   9.283   4.435  11.017
 3312W        W 7376   8.356   7.558   9.884
 3313W        W 7377   9.882   4.614   1.282
 3314W        W 7378   9.455   7.644   1.265
 3315W        W 7379   3.180   4.020   0.866
 3316W        W 7380   2.894   4.392   0.544
 3317W        W 7381   0.483   2.813  11.124
 3318W        W 7382   8.808   2.586  11.584
 3319W        W 7383   8.156   6.023   0.185
 3320W        W 7384   3.404   0.280  11.687
 3321W        W 7385   6.453   7.958   1.262
 3322W        W 7386   0.794   3.501   1.540
 3323W        W 7387   9.487   6.676  11.171
 3324W        W 7388   6.485   5.715   0.635
 3325W        W 7389   7.460   9.806   0.044
 3326W        W 7390   4.293   0.844   2.051
 3327W        W 7391   3.680   2.297  11.031
 3328W        W 7392   7.818   4.826   0.641
 3329W        W 7393  10.323   1.329   0.789
 3330W        W 7394   4.617   3.216   1.316
 3331W        W 7395   7.999   0.842   8.662
 3332W        W 7396   2.057   1.802   3.485
 3333W        W 7397   5.947   4.053  10.898
 3334W        W 7398   4.087   8.511   8.676
 3335W        W 7399   8.783   4.298  11.887
 3336W        W 7400   6.015   5.107   8.759
 3337W        W 7401   1.532   9.441   2.569
 3338W        W 7402   2.215   8.941   2.711
 3339W        W 7403   8.045   8.410  10.227
 3340W        W 7404   1.055   0.246   3.121
 3341W        W 7405   7.309   4.001   9.986
 3342W        W 7406   1.875   2.206   3.235
 3343W        W 7407   0.913   5.280   9.280
 3344W        W 7408   8.159   5.047   1.649
 3345W        W 7409   2.559   9.934   3.345
 3346W        W 7410   5.453   4.823  11.835
 3347W        W 7411  10.297   9.806   3.304
 3348W        W 7412  10.450   6.141   1.489
 3349W        W 7413   4.243   7.499   2.553
 3350W        W 7414   6.614   9.757   2.131
 3351W        W 7415  10.417   1.422  11.883
 3352W        W 7416   9.016   7.060   1.703
 3353W        W 7417   0.247   9.456   1.471
 3354W        W 7418   7.871   3.595   2.124
 3355W        W 7419   2.968   5.118  11.997
 3356W        W 7420   5.462   6.563   8.922
 3357W        W 7421   6.055   2.238   8.761
 3358W        W 7422   3.880   7.129   8.615
 3359W        W 7423   3.822   8.910  10.749
 3360W        W 7424   8.122   8.980   0.884
 3361W        W 7425   5.208   2.663  10.099
 3362W        W 7426   0.979   9.479  10.566
 3363W        W 7427   3.145   1.367  11.794
 3364W        W 7428   7.491   5.562   8.128
 3365W        W 7429   6.752  10.469  10.159
 3366W        W 7430   6.748   5.003   2.277
 3367W        W 7431   0.313   0.302   2.521
 3368W        W 7432   6.892   9.425  11.057
 3369W        W 7433   5.989   8.952   2.220
 3370W        W 7434  10.109   4.283   9.377
 3371W        W 7435   9.171   6.449   2.884
 3372W        W 7436   7.141   1.891  10.462
 3373W        W 7437   5.946   5.130  11.033
 3374W        W 7438   2.686   5.520   1.227
 3375W        W 7439   6.934   2.513  11.051
 3376W        W 7440   9.494   1.158   1.812
 3377W        W 7441   1.769   0.339  10.878
 3378W        W 7442   4.949  10.071  11.599
 3379W        W 7443   6.469   3.097   9.820
 3380W        W 7444   1.189   3.963   0.578
 3381W        W 7445   0.443   6.254   1.146
 3382W        W 7446   5.146   5.730   0.746
 3383W        W 7447   2.587   8.644  10.503
 3384W        W 7448   9.520   9.584   2.898
 3385W        W 7449   1.323   7.038  11.946
 3386W        W 7450   2.231   8.097   8.792
 3387W        W 7451   6.443   8.844   1.966
 3388W        W 7452   9.351   8.659   0.570
 3389W        W 7453  10.348   5.035   2.881
 3390W        W 7454   4.658   7.793   3.197
 3391W        W 7455   7.552   8.068  11.440
 3392W        W 7456   4.717   7.063  11.954
 3393W        W 7457   3.351   2.168   0.136
 3394W        W 7458   4.654   9.410   2.448
 3395W        W 7459   4.977   9.064   0.903
 3396W        W 7460   1.111  10.470   1.835
 3397W        W 7461   6.324   9.296  11.806
 3398W        W 7462   4.597   0.791   8.126
 3399W        W 7463   8.094   6.716  11.045
 3400W        W 7464  10.330   2.321   3.544
 3401W        W 7465   8.790   8.037   8.817
 3402W        W 7466   4.675   3.632  10.623
 3403W        W 7467   7.220   4.737   9.013
 3404W        W 7468   4.140   8.146   1.145
 3405W        W 7469   3.531   5.604   1.465
 3406W        W 7470   8.451   2.158   2.779
 3407W        W 7471  10.323   1.815   3.367
 3408W        W 7472   6.536   6.123  10.432
 3409W        W 7473   8.953   2.390   3.269
 3410W        W 7474   4.246   4.913   0.481
 3411W        W 7475   5.066   7.591  11.543
 3412W        W 7476   8.869   0.624  11.254
 3413W        W 7477   5.112   0.499   3.551
 3414W        W 7478   2.040   8.861   9.317
 3415W        W 7479   5.559   1.421   2.535
 3416W        W 7480   5.060   4.305   1.686
 3417W        W 7481   7.063  10.343   3.627
 3418W        W 7482   9.401   4.538  11.644
 3419W        W 7483   4.605   1.502   1.014
 3420W        W 7484   6.588  10.367  10.616
 3421W        W 7485   6.488   3.532   9.498
 3422W        W 7486   6.098   5.100   0.421
 3423W        W 7487   2.877   1.354   3.521
 3424W        W 7488   4.452   8.596  10.297
 3425W        W 7489   3.518   1.933   3.410
 3426W        W 7490   5.746   5.573   3.208
 3427W        W 7491   7.033   7.363  11.169
 3428W        W 7492   7.398   3.392   0.279
 3429W        W 7493   3.685   5.985   1.144
 3430W        W 7494   6.301   6.406   8.576
 3431W        W 7495   5.372   1.725   2.153
 3432W        W 7496   4.761   2.160   2.260
 3433W        W 7497   1.065   7.879   0.768
 3434W        W 7498   7.201   8.429   2.262
 3435W        W 7499   5.882   5.630   1.706
 3436W        W 7500   7.984   0.923   3.328
 3437W        W 7501   5.442   4.310   8.966
 3438W        W 7502   7.738   6.512   1.381
 3439W        W 7503   6.091   5.986   3.277
 3440W        W 7504  10.182   3.175  11.452
 3441W        W 7505   9.904   7.038   1.327
 3442W        W 7506   8.043   6.695  10.032
 3443W        W 7507   9.845   1.854  11.419
 3444W        W 7508   6.415   5.149   0.017
 3445W        W 7509   9.420   5.428  11.767
 3446W        W 7510   4.065   0.440   2.784
 3447W        W 7511  10.301   4.419   0.200
 3448W        W 7512   1.817   2.129   9.305
 3449W        W 7513   0.264   0.422  11.700
 3450W        W 7514   1.304   1.384   0.997
 3451W        W 7515  10.343   5.204  10.915
 3452W        W 7516   4.373   2.606   1.146
 3453W        W 7517   1.756   8.413  10.019
 3454W        W 7518   4.790   4.519   1.010
 3455W        W 7519   1.258   6.762  11.533
 3456W        W 7520   3.271   7.386   3.164
 3457W        W 7521   1.262   1.398  10.552
 3458W        W 7522   1.407  10.381  10.816
 3459W        W 7523   0.417   3.761   0.396
 3460W        W 7524   3.621   7.974   8.435
 3461W        W 7525   2.519   1.231  11.397
 3462W        W 7526   5.115   4.604   2.104
 3463W        W 7527   2.858   9.361   0.258
 3464W        W 7528   3.916   1.879  11.242
 3465W        W 7529   9.353   4.688   8.753
 3466W        W 7530   2.878   8.442   9.353
 3467W        W 7531  10.282   5.199   1.245
 3468W        W 7532   6.083   0.933  11.448
 3469W        W 7533  10.375   7.740  10.870
 3470W        W 7534   3.220   0.352  10.273
 3471W        W 7535   4.723   0.463   0.507
 3472W        W 7536   6.899   5.754  10.037
 3473W        W 7537   7.211   9.033  11.697
 3474W        W 7538   6.517   7.780   1.747
 3475W        W 7539   1.594   9.437   9.642
 3476W        W 7540   4.283   6.112   2.450
 3477W        W 7541   8.517   6.813   2.475
 3478W        W 7542   5.191   0.344   0.708
 3479W        W 7543   8.514   0.407   9.940
 3480W        W 7544   1.429   7.243  11.440
 3481W        W 7545   9.969   6.998   9.059
 3482W        W 7546   7.079   7.404   8.680
 3483W        W 7547   4.114   9.399   8.741
 3484W        W 7548   2.607   6.665   1.830
 3485W        W 7549   6.198   2.318  11.772
 3486W        W 7550   4.999   3.334   1.793
 3487W        W 7551   9.326   6.634   0.484
 3488W        W 7552   8.868   2.852   1.909
 3489W        W 7553  10.253   7.442   9.003
 3490W        W 7554   4.907   6.396   8.194
 3491W        W 7555   9.831   5.710   2.818
 3492W        W 7556   7.968   1.414   3.092
 3493W        W 7557   5.577   6.117   8.684
 3494W        W 7558   0.278   8.094   9.763
 3495W        W 7559   1.010   2.707   1.910
 3496W        W 7560   8.407   8.536   1.804
 3497W        W 7561   6.837   6.474   8.481
 3498W        W 7562   1.058   2.608   1.404
 3499W        W 7563   7.416   0.017  11.398
 3500W        W 7564   9.562   2.025  10.823
 3501W        W 7565   8.343   5.204   9.994
 3502W        W 7566   2.069   7.359  10.541
 3503W        W 7567   0.259   2.732  10.660
 3504W        W 7568   5.739   3.875   0.092
 3505W        W 7569   2.827   7.865   0.447
 3506W        W 7570   7.449   0.477   8.981
 3507W        W 7571   3.229   1.505   3.163
 3508W        W 7572   2.399   0.627  11.838
 3509W        W 7573   4.695   6.386  10.257
 3510W        W 7574   2.123  10.366   1.840
 3511W        W 7575   3.332   5.067   8.781
 3512W        W 7576   9.139   8.655   2.816
 3513W        W 7577   8.479   7.415   9.414
 3514W        W 7578   4.260   0.803   8.970
 3515W        W 7579  10.467   9.784   9.316
 3516W        W 7580   1.363   8.918   9.947
 3517W        W 7581   7.403   3.563   1.911
 3518W        W 7582   1.669   5.731   9.218
 3519W        W 7583   5.633   2.200   0.927
 3520W        W 7584   6.833   9.117   0.607
 3521W        W 7585   6.059   7.485   0.784
 3522W        W 7586   4.189   2.228   0.449
 3523W        W 7587   5.154   5.154  10.570
 3524W        W 7588   9.657  10.398   1.431
 3525W        W 7589   4.051   1.238   9.127
 3526W        W 7590   0.487   1.844   9.134
 3527W        W 7591   3.060   7.384   8.813
 3528W        W 7592   1.431   7.561   1.883
 3529W        W 7593   6.486   4.114   8.006
 3530W        W 7594   7.652   6.000   1.362
 3531W        W 7595   6.895   2.187   0.527
 3532W        W 7596   8.437   4.638   1.484
 3533W        W 7597   9.010   3.647   0.676
 3534W        W 7598   3.285   6.974  11.286
 3535W        W 7599   7.396   7.042  11.325
 3536W        W 7600   5.538   1.249   2.039
 3537W        W 7601  10.396   8.744   2.219
 3538W        W 7602  10.254   1.520  10.698
 3539W        W 7603   0.338   8.853   1.187
 3540W        W 7604   2.881   1.186   1.953
 3541W        W 7605   2.634   3.589   1.630
 3542W        W 7606   3.152   5.777   1.133
 3543W        W 7607   8.438   8.408   0.242
 3544W        W 7608   0.346   0.523  11.179
 3545W        W 7609   9.862   3.777   2.673
 3546W        W 7610   2.358   8.639  10.973
 3547W        W 7611   0.342   6.758  11.707
 3548W        W 7612  10.412   7.060   1.398
 3549W        W 7613   4.125   6.148   3.653
 3550W        W 7614   3.883  10.432   2.713
 3551W        W 7615  10.037  10.469  11.513
 3552W        W 7616   6.038   9.097   2.702
 3553W        W 7617   0.020   9.918   0.391
 3554W        W 7618   8.573   1.890  11.206
 3555W        W 7619   9.107   6.501   0.959
 3556W        W 7620  10.451   5.666  10.115
 3557W        W 7621   4.535   6.435   0.699
 3558W        W 7622   8.137   4.877  11.492
 3559W        W 7623   9.545   5.025  11.471
 3560W        W 7624   9.464   3.576   0.456
 3561W        W 7625   7.551   6.039   3.475
 3562W        W 7626  10.399   1.172   9.381
 3563W        W 7627  10.474   4.780  11.786
 3564W        W 7628   5.319   9.493   3.669
 3565W        W 7629   8.357   9.834   3.149
 3566W        W 7630   5.063   9.517   9.745
 3567W        W 7631   4.690   8.408   2.544
 3568W        W 7632   5.835   4.027   9.599
 3569W        W 7633   6.520   6.190   3.515
 3570W        W 7634   8.663   8.552   2.704
 3571W        W 7635   1.691   6.523  11.556
 3572W        W 7636   5.481   7.833   1.340
 3573W        W 7637   8.886  10.314   3.449
 3574W        W 7638   0.877   3.193   1.951
 3575W        W 7639   2.844  10.334   3.185
 3576W        W 7640  10.323   9.101   2.804
 3577W        W 7641   4.244   3.178   0.374
 3578W        W 7642   5.436   9.897  11.531
 3579W        W 7643   9.785   0.442   8.652
 3580W        W 7644   6.879   0.098   0.259
 3581W        W 7645   3.715   4.648   3.419
 3582W        W 7646   8.576   6.885   9.382
 3583W        W 7647   7.537   6.111   8.850
 3584W        W 7648   8.802   0.049   0.450
 3585W        W 7649   4.434   5.916   3.303
 3586W        W 7650   2.066   5.218  11.201
 3587W        W 7651   7.675   4.123   1.427
 3588W        W 7652   1.574   1.311   1.449
 3589W        W 7653   7.698   8.525   2.353
 3590W        W 7654   6.888   5.111   8.840
 3591W        W 7655   1.799   6.029   1.248
 3592W        W 7656   0.974   2.835  11.113
 3593W        W 7657   5.917   5.145   2.923
 3594W        W 7658   5.509  10.449   8.949
 3595W        W 7659   2.195   3.345  10.215
 3596W        W 7660   9.745   0.364   2.902
 3597W        W 7661   6.153   8.478   2.394
 3598W        W 7662   2.255   1.693   3.005
 3599W        W 7663   5.998   7.940   9.603
 3600W        W 7664   7.640   3.141   2.279
 3601W        W 7665   7.398  10.035   3.416
 3602W        W 7666   4.493   3.610   0.532
 3603W        W 7667   3.845   6.693  10.929
 3604W        W 7668   6.918   1.248   2.693
 3605W        W 7669   1.478   8.309  10.801
 3606W        W 7670   8.264   9.903  11.393
 3607W        W 7671  10.412   0.274  11.371
 3608W        W 7672   9.378   9.161   9.111
 3609W        W 7673   6.453   2.606   9.547
 3610W        W 7674   3.600   1.265   8.887
 3611W        W 7675   5.962   9.026   0.676
 3612W        W 7676   9.321   9.878  11.319
 3613W        W 7677   4.218   6.650   3.742
 3614W        W 7678   4.581   9.135   8.619
 3615W        W 7679   0.136   1.871   2.621
 3616W        W 7680   7.170   9.668   8.911
 3617W        W 7681   6.687   4.476  11.260
 3618W        W 7682   0.927   6.576  10.550
 3619W        W 7683   9.001   4.273  11.421
 3620W        W 7684   6.536   7.687   0.843
 3621W        W 7685   9.729   2.659   2.466
 3622W        W 7686   8.081  10.397   2.795
 3623W        W 7687   9.979   0.005   8.395
 3624W        W 7688   6.400   9.269   2.291
 3625W        W 7689   4.141   4.277   8.541
 3626W        W 7690   1.126   6.460   2.096
 3627W        W 7691   1.992   8.961   1.366
 3628W        W 7692   4.235   7.020   8.971
 3629W        W 7693   2.126   0.781   1.849
 3630W        W 7694   9.950   0.825   8.989
 3631W        W 7695   7.000   4.977   3.380
 3632W        W 7696   5.256   5.295   0.973
 3633W        W 7697   8.787   9.942  11.276
 3634W        W 7698   8.598   5.678  10.026
 3635W        W 7699   4.717   0.829   9.185
 3636W        W 7700   4.290   9.487   0.372
 3637W        W 7701   0.358   9.470   9.099
 3638W        W 7702   5.662   8.285   1.684
 3639W        W 7703   7.074   4.516   2.966
 3640W        W 7704   4.667   8.172   8.911
 3641W        W 7705   2.126   5.563   1.821
 3642W        W 7706  10.288   3.596   2.457
 3643W        W 7707   5.561   2.260  10.979
 3644W        W 7708   7.439   5.636   8.644
 3645W        W 7709   5.145   3.532   2.277
 3646W        W 7710   0.691   9.436  11.985
 3647W        W 7711   0.916   6.010   8.747
 3648W        W 7712   7.346   8.925   2.384
 3649W        W 7713   3.740   7.949   0.895
 3650W        W 7714   1.810   3.428   2.134
 3651W        W 7715   0.814   0.751   0.503
 3652W        W 7716   6.932   3.467   1.294
 3653W        W 7717   3.847   3.204   0.022
 3654W        W 7718   8.064   7.911   9.466
 3655W        W 7719   4.307   0.149  10.448
 3656W        W 7720   0.959   4.694  11.232
 3657W        W 7721   5.369   6.633   8.005
 3658W        W 7722   3.717   4.836   0.420
 3659W        W 7723   2.868   5.947   1.551
 3660W        W 7724   7.190   8.088   0.302
 3661W        W 7725   3.174   1.369   0.689
 3662W        W 7726   5.010   6.661  11.832
 3663W        W 7727   8.024   1.249   1.392
 3664W        W 7728   7.046   3.588   2.776
 3665W        W 7729   1.175   9.846  10.248
 3666W        W 7730   5.088   0.872   0.467
 3667W        W 7731  10.464   6.655  10.055
 3668W        W 7732   6.069   6.008   0.830
 3669W        W 7733   7.132   0.465   1.542
 3670W        W 7734   4.288  10.451   3.127
 3671W        W 7735   4.034   1.772   0.706
 3672W        W 7736   0.472   9.517  11.498
 3673W        W 7737   6.045   3.640   8.886
 3674W        W 7738   0.513   2.799   1.946
 3675W        W 7739   8.892   7.129  10.703
 3676W        W 7740   9.089   2.168   1.096
 3677W        W 7741   6.853   8.038   2.030
 3678W        W 7742   5.716   7.554  10.918
 3679W        W 7743   0.763   0.529  10.849
 3680W        W 7744   5.539   6.919  11.484
 3681W        W 7745   1.953   9.523   3.297
 3682W        W 7746   5.032   8.793   1.895
 3683W        W 7747   2.299   3.324   1.285
 3684W        W 7748   0.744   0.375   2.754
 3685W        W 7749   1.258   6.969   3.500
 3686W        W 7750   5.204   4.121   3.854
 3687W        W 7751   6.279   3.295   1.793
 3688W        W 7752   8.839   7.603   0.471
 3689W        W 7753   5.881   3.046   3.192
 3690W        W 7754   3.081   9.899   1.388
 3691W        W 7755  10.396   8.378   9.525
 3692W        W 7756   7.431   8.178   8.956
 3693W        W 7757   5.945   4.931  11.920
 3694W        W 7758   1.917   3.430   2.836
 3695W        W 7759   0.848   8.385   2.938
 3696W        W 7760   0.086   7.644  11.680
 3697W        W 7761   4.089   3.383   8.900
 3698W        W 7762   8.378   4.572   9.416
 3699W        W 7763   4.545   2.142   9.352
 3700W        W 7764   2.611   4.284  11.021
 3701W        W 7765   2.849   6.670  10.015
 3702W        W 7766   5.000   2.818   9.078
 3703W        W 7767   8.897   4.762   3.602
 3704W        W 7768   3.274  10.160   0.970
 3705W        W 7769   1.878   2.851   0.371
 3706W        W 7770   7.399  10.168  11.008
 3707W        W 7771  10.109   7.817   0.885
 3708W        W 7772   1.479   4.125  11.366
 3709W        W 7773   6.816   5.522   2.401
 3710W        W 7774   9.468   6.328   0.111
 3711W        W 7775   2.361   1.386   3.529
 3712W        W 7776   2.241   2.210  10.025
 3713W        W 7777   8.560   4.556  11.474
 3714W        W 7778   8.521   8.087   9.263
 3715W        W 7779   5.038   6.216   8.671
 3716W        W 7780   5.173  10.042   2.488
 3717W        W 7781   1.033   4.173   3.627
 3718W        W 7782   7.473   1.637   2.787
 3719W        W 7783   7.471   4.758   2.704
 3720W        W 7784   0.687   0.869   9.866
 3721W        W 7785   5.062   2.449  11.026
 3722W        W 7786   7.573   2.188   0.237
 3723W        W 7787   1.387   2.423   0.435
 3724W        W 7788   1.259   8.461   9.793
 3725W        W 7789   8.176   0.981  10.041
 3726W        W 7790   5.969   8.647  10.448
 3727W        W 7791   8.910   8.462   0.426
 3728W        W 7792   3.277   2.352   3.583
 3729W        W 7793   0.940   6.049  11.879
 3730W        W 7794  10.171   7.926  11.550
 3731W        W 7795   5.628   3.892   8.639
 3732W        W 7796   6.955   7.540   2.688
 3733W        W 7797   6.833   5.133  11.741
 3734W        W 7798   9.829   6.453   0.440
 3735W        W 7799   0.979   2.600  10.250
 3736W        W 7800   3.641   0.307   3.013
 3737W        W 7801   8.629   9.735   1.150
 3738W        W 7802   6.167   5.993   3.818
 3739W        W 7803   6.693   7.577   2.213
 3740W        W 7804   5.301   4.067   9.440
 3741W        W 7805   9.495   2.273   0.265
 3742W        W 7806   0.503   7.685   0.969
 3743W        W 7807   6.973   1.751   2.809
 3744W        W 7808   8.215   0.120  10.668
 3745W        W 7809   3.747   1.370  10.928
 3746W        W 7810   7.815   3.598   0.037
 3747W        W 7811   4.127   0.868   3.097
 3748W        W 7812   3.609   5.538   9.328
 3749W        W 7813   2.720   6.604   9.019
 3750W        W 7814   8.908   3.020   1.406
 3751W        W 7815   5.501   2.636  10.532
 3752W        W 7816   5.190   3.058   0.223
 3753W        W 7817   4.273   1.647   9.340
 3754W        W 7818   4.302   5.142  10.521
 3755W        W 7819   1.307   7.662   3.330
 3756W        W 7820  10.219   2.993   3.079
 3757W        W 7821   5.760   7.401   9.038
 3758W        W 7822   4.815   7.962   2.766
 3759W        W 7823   3.734   4.177   9.055
 3760W        W 7824   4.793   2.870  11.910
 3761W        W 7825   4.679   5.095   2.040
 3762W        W 7826   1.418   5.288   8.668
 3763W        W 7827   3.823   3.223  11.070
 3764W        W 7828   5.591   4.135   8.013
 3765W        W 7829   1.471   3.101  10.866
 3766W        W 7830   0.009   4.205   9.078
 3767W        W 7831   2.409   8.900   9.686
 3768W        W 7832   9.874   1.406   1.034
 3769W        W 7833   3.149   1.163  10.597
 3770W        W 7834   6.792   0.429   1.145
 3771W        W 7835   7.887   7.435   0.309
 3772W        W 7836   7.941   1.878  10.558
 3773W        W 7837   1.512   7.733  11.358
 3774W        W 7838  10.460  10.259   3.151
 3775W        W 7839   4.165   1.350   2.726
 3776W        W 7840   0.966   4.942   1.738
 3777W        W 7841   5.550   5.671   0.169
 3778W        W 7842   2.768   7.443   1.261
 3779W        W 7843  10.289   1.832  10.290
 3780W        W 7844   1.512   4.464   9.681
 3781W        W 7845   8.637   8.322   1.405
 3782W        W 7846   7.819   0.451  10.569
 3783W        W 7847   5.162   3.621  10.353
 3784W        W 7848   4.988   5.483   9.961
 3785W        W 7849   1.590   5.630   0.979
 3786W        W 7850   1.896   2.890   2.036
 3787W        W 7851  10.216  10.077   2.271
 3788W        W 7852   1.820   4.100   9.901
 3789W        W 7853   6.173   5.535   3.550
 3790W        W 7854   5.552   6.972   1.443
 3791W        W 7855   7.627   5.066   1.692
 3792W        W 7856   5.692   5.604  10.310
 3793W        W 7857   1.897   4.313   2.331
 3794W        W 7858   7.675   3.772   0.511
 3795W        W 7859   3.010   9.045  10.421
 3796W        W 7860   0.047   4.628  10.817
 3797W        W 7861   3.533   9.979   2.298
 3798W        W 7862   3.284   0.439   1.664
 3799W        W 7863   9.780   7.406   8.794
 3800W        W 7864   2.495   4.783   8.898
 3801W        W 7865   0.217   1.356  10.878
 3802W        W 7866   6.932   5.428   0.540
 3803W        W 7867   0.858   9.930   1.177
 3804W        W 7868   6.407   8.852   0.456
 3805W        W 7869   7.155   7.607   9.678
 3806W        W 7870   7.454   3.212  11.289
 3807W        W 7871   9.988   1.859   1.840
 3808W        W 7872   3.073   7.956  11.094
 3809W        W 7873   0.430   7.391   2.855
 3810W        W 7874   4.496   6.424   1.211
 3811W        W 7875   4.994   3.028   9.825
 3812W        W 7876   0.903   3.925   1.250
 3813W        W 7877   1.996   9.548  10.986
 3814W        W 7878   1.169   2.241   1.798
 3815W        W 7879   7.930   2.395  10.554
 3816W        W 7880   5.716   1.609  11.756
 3817W        W 7881   5.556   1.271   3.046
 3818W        W 7882  10.221   7.708   2.220
 3819W        W 7883   9.379   5.457   2.164
 3820W        W 7884   0.892   4.152   0.198
 3821W        W 7885   0.358   7.236  10.136
 3822W        W 7886   4.719   5.047  10.823
 3823W        W 7887  10.355   3.442   9.737
 3824W        W 7888   9.332   2.636   2.133
 3825W        W 7889   4.966   6.461   2.873
 3826W        W 7890   7.436   6.619   8.936
 3827W        W 7891   8.946   5.596   9.645
 3828W        W 7892   7.330   5.211  10.485
 3829W        W 7893   8.370   4.236  10.852
 3830W        W 7894   8.199   1.810  11.574
 3831W        W 7895  10.476   7.096  11.916
 3832W        W 7896   3.271   7.217   2.312
 3833W        W 7897   6.166   0.437   3.342
 3834W        W 7898   9.401   3.379  10.509
 3835W        W 7899   0.798   0.255   9.471
 3836W        W 7900   8.313   9.881   8.946
 3837W        W 7901   5.897   0.419   2.843
 3838W        W 7902   0.372   0.199  10.781
 3839W        W 7903   9.384   9.186  11.197
 3840W        W 7904   2.021   9.375   1.899
 3841W        W 7905   0.865   6.522  10.042
 3842W        W 7906   7.008   5.616  11.018
 3843W        W 7907   2.108   5.228   3.025
 3844W        W 7908   8.686   7.206   8.982
 3845W        W 7909   4.743  10.295   2.428
 3846W        W 7910   7.602   9.976  10.114
 3847W        W 7911   2.367   8.450   3.011
 3848W        W 7912   8.744   2.009   0.347
 3849W        W 7913   0.175   5.613   0.026
 3850W        W 7914   6.418   8.937   1.419
 3851W        W 7915   9.153   5.771  10.504
 3852W        W 7916   7.813   4.115  11.990
 3853W        W 7917   2.378   6.025   1.783
 3854W        W 7918   4.170   1.851   2.811
 3855W        W 7919   5.938   6.809   3.874
 3856W        W 7920   2.109   7.150   9.869
 3857W        W 7921   4.001   7.928   2.255
 3858W        W 7922   4.706   0.877   8.654
 3859W        W 7923   7.312   9.988   1.623
 3860W        W 7924   7.027   2.217   3.046
 3861W        W 7925   1.923   3.332  11.020
 3862W        W 7926   1.190   9.716   8.821
 3863W        W 7927   7.447   3.717  11.127
 3864W        W 7928   5.950   3.476   1.410
 3865W        W 7929   2.344   3.163   2.825
 3866W        W 7930   7.375  10.498   0.314
 3867W        W 7931   7.835   6.500   2.771
 3868W        W 7932   2.885   6.956  11.839
 3869W        W 7933   4.970   4.684   0.427
 3870W        W 7934   2.372   4.791   2.756
 3871W        W 7935   0.657   0.625   2.291
 3872W        W 7936   9.964   4.525  10.464
 3873W        W 7937   7.147   0.448   3.299
 3874W        W 7938   1.658   1.629  11.801
 3875W        W 7939  10.205   0.624   1.412
 3876W        W 7940   9.383   4.661   9.773
 3877W        W 7941   2.824   7.031   0.410
 3878W        W 7942   8.415   6.488   0.811
 3879W        W 7943   1.357   4.307   3.224
 3880W        W 7944   3.618   6.480   1.694
 3881W        W 7945   1.314   0.244   9.022
 3882W        W 7946  10.247   6.717   0.316
 3883W        W 7947   6.946   3.680   0.357
 3884W        W 7948   4.402   0.095   2.644
 3885W        W 7949   7.489   8.797  10.776
 3886W        W 7950   3.392   1.027  11.028
 3887W        W 7951   4.649   2.350  10.719
 3888W        W 7952   4.935   8.477  10.438
 3889W        W 7953   9.403   8.481   3.248
 3890W        W 7954   4.715   9.381   2.931
 3891W        W 7955   6.127   4.067   8.633
 3892W        W 7956   9.278   7.936   8.921
 3893W        W 7957   8.136   8.371   9.059
 3894W        W 7958   7.133   2.268   1.504
 3895W        W 7959   3.377   0.583   9.788
 3896W        W 7960   2.314   7.805  11.570
 3897W        W 7961   0.444   5.204   0.185
 3898W        W 7962   1.961   4.573   0.890
 3899W        W 7963   2.821   5.963   0.055
 3900W        W 7964   6.207   1.894   3.451
 3901W        W 7965   2.600   2.536  10.274
 3902W        W 7966   6.668   0.297   9.391
 3903W        W 7967   2.920  10.348  10.653
 3904W        W 7968   8.647   4.232   1.226
 3905W        W 7969  10.282   4.507   8.727
 3906W        W 7970   6.735   1.242  10.525
 3907W        W 7971   7.542   5.640   3.104
 3908W        W 7972   5.268   6.136   9.120
 3909W        W 7973   2.360   6.764   1.158
 3910W        W 7974   4.732   3.291   0.210
 3911W        W 7975   6.040   7.536   1.686
 3912W        W 7976   6.978   6.451   1.751
 3913W        W 7977   9.666   3.425   8.623
 3914W        W 7978   4.158   1.248  11.825
 3915W        W 7979   7.964   7.478   2.650
 3916W        W 7980   7.805   9.952   9.096
 3917W        W 7981  10.216   3.659  11.315
 3918W        W 7982   2.634   5.042   2.351
 3919W        W 7983   1.278   1.847   9.017
 3920W        W 7984   5.079   4.629  11.037
 3921W        W 7985   9.386   6.438   1.781
 3922W        W 7986   5.158   8.549  11.081
 3923W        W 7987   3.707  10.449   2.216
 3924W        W 7988   9.440   7.188   1.479
 3925W        W 7989   7.426   2.077   0.707
 3926W        W 7990   5.160   7.686  11.057
 3927W        W 7991  10.390   0.699   9.589
 3928W        W 7992   4.057  10.385   0.888
 3929W        W 7993   7.554   3.568   9.949
 3930W        W 7994   4.723   1.733   9.067
 3931W        W 7995   0.225   8.643  11.394
 3932W        W 7996   0.894   5.697   0.284
 3933W        W 7997   7.060   6.679   2.340
 3934W        W 7998  10.084   3.727  11.805
 3935W        W 7999   5.660   0.775   2.188
 3936W        W 8000   4.277   9.083  10.532
 3937W        W 8001   1.266  10.440   9.442
 3938W        W 8002   6.979   9.954  10.769
 3939W        W 8003   7.929   4.103   2.351
 3940W        W 8004   2.704   0.781   3.360
 3941W        W 8005   1.692   8.321   1.791
 3942W        W 8006   8.996   0.876   2.837
 3943W        W 8007   6.967   9.028   2.733
 3944W        W 8008   2.588   2.721   2.869
 3945W        W 8009   4.611   3.667   1.567
 3946W        W 8010   0.468   0.773  11.998
 3947W        W 8011   0.341   5.355   9.873
 3948W        W 8012   2.305   8.981   1.762
 3949W        W 8013   3.716   8.958   1.331
 3950W        W 8014   8.481   0.335   9.397
 3951W        W 8015   7.013   0.324  11.252
 3952W        W 8016  10.385   4.980   2.387
 3953W        W 8017   4.585   6.892  10.260
 3954W        W 8018   7.212   9.002   0.278
 3955W        W 8019   6.205   4.330  11.754
 3956W        W 8020   4.221   0.859   8.484
 3957W        W 8021   1.929  10.417  10.654
 3958W        W 8022   7.964  10.498   0.365
 3959W        W 8023   4.309   5.757   8.310
 3960W        W 8024   9.899  10.334  11.982
 3961W        W 8025   6.112   2.326  11.265
 3962W        W 8026   8.916   4.757   2.179
 3963W        W 8027   5.238   6.671   8.491
 3964W        W 8028   6.957   2.387  10.558
 3965W        W 8029   1.067   9.106   0.238
 3966W        W 8030   5.472   4.682   0.352
 3967W        W 8031   6.964   7.730   0.577
 3968W        W 8032  10.014   3.176   2.577
 3969W        W 8033   2.404   2.932  11.826
 3970W        W 8034   2.588   6.080   3.497
 3971W        W 8035   9.430   9.032   2.497
 3972W        W 8036   6.851   9.052   1.155
 3973W        W 8037   2.348   7.659   1.727
 3974W        W 8038   9.530   8.306   9.213
 3975W        W 8039   3.696  10.336  10.811
 3976W        W 8040   9.768   4.286  10.906
 3977W        W 8041   6.471   1.471   2.788
 3978W        W 8042   5.668   2.381   2.350
 3979W        W 8043   1.206   9.563  11.985
 3980W        W 8044   6.269   7.464   1.240
 3981W        W 8045   5.597   7.385   2.790
 3982W        W 8046   8.243   0.144   8.498
 3983W        W 8047   1.691   0.461   2.521
 3984W        W 8048   7.397   5.208   8.944
 3985W        W 8049   2.732   3.581   9.261
 3986W        W 8050   2.721   0.287  10.885
 3987W        W 8051   5.085   2.256   9.178
 3988W        W 8052   2.323  10.317   2.991
 3989W        W 8053   4.291   1.665   1.909
 3990W        W 8054   4.312   6.594   9.702
 3991W        W 8055   0.788   8.883   9.879
 3992W        W 8056   6.922   9.882  11.275
 3993W        W 8057   7.235   1.730  11.319
 3994W        W 8058   9.319   5.622   9.289
 3995W        W 8059   6.209   3.123   3.580
 3996W        W 8060   0.752   8.551   1.972
 3997W        W 8061   9.314   1.910   8.600
 3998W        W 8062   4.767   8.867  11.272
 3999W        W 8063   5.276   9.865  10.092
 4000W        W 8064   1.368   7.946   1.527
 4001W        W 8065   1.238   2.933   0.399
 4002W        W 8066   1.756   5.970  10.211
 4003W        W 8067   9.364   0.686   1.919
 4004W        W 8068   2.260   2.244  11.518
 4005W        W 8069   4.544   3.907  11.019
 4006W        W 8070   0.903   7.038  10.785
 4007W        W 8071   1.504   0.332   3.370
 4008W        W 8072   0.563   1.792   9.836
 4009W        W 8073   9.524   7.113   0.985
 4010W        W 8074   0.333   7.348   1.454
 4011W        W 8075   3.210   4.820   1.278
 4012W        W 8076   2.809   5.921   2.078
 4013W        W 8077   4.192   8.013   8.798
 4014W        W 8078   6.036   4.333   8.189
 4015W        W 8079   6.488   3.343   0.566
 4016W        W 8080   2.892   7.825   8.590
 4017W        W 8081   7.112   0.931  11.879
 4018W        W 8082   3.179   0.252   9.405
 4019W        W 8083   2.691   9.957   2.827
 4020W        W 8084   8.569   7.929   3.194
 4021W        W 8085   6.967   9.508   2.960
 4022W        W 8086   6.068   7.111   2.002
 4023W        W 8087   6.621   7.420   3.085
 4024W        W 8088   1.164   0.713   2.205
 4025W        W 8089   4.544   9.776  11.781
 4026W        W 8090   0.017   4.638  10.293
 4027W        W 8091  10.464   7.585   1.220
 4028W        W 8092   2.640   4.335  11.534
 4029W        W 8093   5.204   1.718   9.847
 4030W        W 8094   4.543   0.390   9.431
 4031W        W 8095   5.124   1.183   2.328
 4032W        W 8096   6.129   7.260  10.833
 4033W        W 8097   0.392   0.670   1.852
 4034W        W 8098   5.739   5.162   1.644
 4035W        W 8099   4.888   0.403   8.642
 4036W        W 8100   7.983   9.386   0.583
 4037W        W 8101   4.225   5.652  10.475
 4038W        W 8102   9.720   8.939  10.471
 4039W        W 8103   4.289   6.202  10.530
 4040W        W 8104   8.657   9.061   3.648
 4041W        W 8105   0.744   3.585  10.288
 4042W        W 8106   2.292   7.684   1.221
 4043W        W 8107   1.014   8.742   9.444
 4044W        W 8108   4.620   4.037   8.784
 4045W        W 8109   3.353   3.823   1.338
 4046W        W 8110   7.543   2.779   1.462
 4047W        W 8111   9.567   5.577  10.268
 4048W        W 8112   3.140   6.471   2.916
 4049W        W 8113   9.523   9.374  10.097
 4050W        W 8114   2.558   7.542   8.875
 4051W        W 8115   7.501   3.643  11.628
 4052W        W 8116  10.368   5.713   1.193
 4053W        W 8117   4.556   4.702   3.443
 4054W        W 8118   2.774   1.316  10.931
 4055W        W 8119   7.879   0.261   1.617
 4056W        W 8120   1.545   5.655  10.546
 4057W        W 8121   7.540   7.070   0.171
 4058W        W 8122   0.412   9.008  10.864
 4059W        W 8123   2.866   7.502  11.168
 4060W        W 8124   6.568   9.456   1.325
 4061W        W 8125   5.637  10.417   1.936
 4062W        W 8126   7.419   5.330   9.510
 4063W        W 8127   8.013   2.290   1.387
 4064W        W 8128   6.020   3.676   9.931
 4065W        W 8129   5.819   7.474   0.328
 4066W        W 8130   3.406   7.947   1.887
 4067W        W 8131   5.695   6.910   9.209
 4068W        W 8132   6.057   9.080  10.843
 4069W        W 8133   8.446   6.440   2.114
 4070W        W 8134   0.363   8.550   1.665
 4071W        W 8135   6.939   4.995   2.788
 4072W        W 8136   4.141   3.899   8.908
 4073W        W 8137   9.047   4.024   1.529
 4074W        W 8138   4.896   6.923   8.160
 4075W        W 8139   6.135   1.392  11.239
 4076W        W 8140   7.978   8.958   3.007
 4077W        W 8141   3.262   7.113   0.735
 4078W        W 8142   4.965   0.411  10.776
 4079W        W 8143   4.062   3.951   1.384
 4080W        W 8144   6.534   2.970   0.246
 4081W        W 8145   2.284   3.470   3.264
 4082W        W 8146   1.678   7.165   0.569
 4083W        W 8147   6.036   3.153  11.107
 4084W        W 8148   4.698   3.772   3.013
 4085W        W 8149  10.280   4.152   2.873
 4086W        W 8150   7.948   3.748   3.350
 4087W        W 8151   8.438   0.659   3.334
 4088W        W 8152   8.419   1.687   3.021
 4089W        W 8153   1.361   6.464  10.814
 4090W        W 8154   4.063   5.621   1.629
 4091W        W 8155   3.283   2.437   3.101
 4092W        W 8156   2.675   9.300   9.874
 4093W        W 8157   6.213   1.764   9.936
 4094W        W 8158   0.760   4.110   1.709
 4095W        W 8159   5.539   7.034   8.719
 4096W        W 8160   6.169   8.545   0.831
 4097W        W 8161   9.171   5.956  10.003
 4098W        W 8162   3.784   3.588   1.158
 4099W        W 8163   9.057   4.594   2.636
 4100W        W 8164   9.876   0.944   1.220
 4101W        W 8165   5.024   9.555   9.244
 4102W        W 8166   2.391   2.590  10.772
 4103W        W 8167   1.371   6.564   0.904
 4104W        W 8168   2.909   8.907   9.589
 4105W        W 8169   0.935   3.822   3.266
 4106W        W 8170   4.218   1.217   1.688
 4107W        W 8171   0.694   7.321   8.936
 4108W        W 8172   5.557   3.822   1.415
 4109W        W 8173   9.049   0.332   9.986
 4110W        W 8174   0.954   3.039   2.884
 4111W        W 8175   2.959   7.202   2.722
 4112W        W 8176   3.152   3.824   9.063
 4113W        W 8177   8.372   0.296   2.942
 4114W        W 8178   9.793   8.988  11.519
 4115W        W 8179   5.034   6.691   0.771
 4116W        W 8180  10.486   2.851   1.907
 4117W        W 8181   8.659   6.643  10.803
 4118W        W 8182   4.253   9.110   2.821
 4119W        W 8183   9.976   3.067   9.327
 4120W        W 8184   7.454   9.320  10.718
 4121W        W 8185   5.982   5.288  11.511
 4122W        W 8186   9.423   4.285  10.541
 4123W        W 8187   6.691   4.276   2.310
 4124W        W 8188   3.726   9.824  10.294
 4125W        W 8189   7.293   2.191   9.273
 4126W        W 8190   9.741   0.774   0.222
 4127W        W 8191   5.064   3.737  11.005
 4128W        W 8192   0.474   8.273  10.192
 4129W        W 8193   0.830   7.886   2.721
 4130W        W 8194   5.146   3.081   3.053
 4131W        W 8195   9.918   0.281   0.733
 4132W        W 8196   7.595   6.197   0.046
 4133W        W 8197   3.547   1.098   9.840
 4134W        W 8198   8.278   4.282   9.836
 4135W        W 8199   2.253   3.268  11.464
 4136W        W 8200   4.119   6.142   8.845
 4137W        W 8201   4.596   4.655   0.104
 4138W        W 8202   7.899   1.347   8.860
 4139W        W 8203   9.518   0.895   2.728
 4140W        W 8204   6.656   2.291   1.811
 4141W        W 8205   4.763   1.870   1.391
 4142W        W 8206   5.783  10.340   3.442
 4143W        W 8207   4.358   7.390   9.400
 4144W        W 8208   5.797   3.175   1.878
 4145W        W 8209  10.412   3.293  10.603
 4146W        W 8210   5.164   9.066  10.953
 4147W        W 8211   8.618   2.882  10.990
 4148W        W 8212   5.538   0.679   1.247
 4149W        W 8213   4.247   7.772  10.290
 4150W        W 8214   2.333   5.605   8.344
 4151W        W 8215   1.360   6.119   2.437
 4152W        W 8216   4.702   4.967   0.739
 4153W        W 8217   0.313   8.012  10.603
 4154W        W 8218   7.425   6.075   0.914
 4155W        W 8219   4.616   5.230   2.582
 4156W        W 8220   5.239  10.054  10.573
 4157W        W 8221   5.742   6.221   9.892
 4158W        W 8222  10.402   1.139   2.962
 4159W        W 8223   7.505   1.044   3.446
 4160W        W 8224   5.665   9.008  10.157
 4161W        W 8225   2.718   5.730   9.069
 4162W        W 8226   3.618   1.601   9.932
 4163W        W 8227   5.713   2.388   1.397
 4164W        W 8228   3.399   5.775   9.966
 4165W        W 8229   8.024   2.935   0.676
 4166W        W 8230   3.408   6.105  11.396
 4167W        W 8231   2.454   6.483   8.604
 4168W        W 8232   2.389   1.937   1.466
 4169W        W 8233   4.568   5.599   1.809
 4170W        W 8234   6.905   2.143   9.597
 4171W        W 8235   0.366   0.032  11.344
 4172W        W 8236   8.353   6.923   1.994
 4173W        W 8237   6.450   3.378   1.322
 4174W        W 8238   9.403   6.206  10.412
 4175W        W 8239   9.049   6.842   9.074
 4176W        W 8240   2.464   2.891   1.624
 4177W        W 8241   0.753   8.371   9.765
 4178W        W 8242   1.933   8.465   2.697
 4179W        W 8243   2.734   9.240   8.848
 4180W        W 8244   8.921   9.106   9.590
 4181W        W 8245   5.990   6.752  11.608
 4182W        W 8246   8.671   4.985   9.345
 4183W        W 8247   5.051   2.712   3.385
 4184W        W 8248   1.654   3.219   1.689
 4185W        W 8249   4.289   6.447  11.001
 4186W        W 8250   2.691   9.105  11.788
 4187W        W 8251   0.784   9.405   1.901
 4188W        W 8252   7.455  10.291   2.121
 4189W        W 8253   9.778   4.362   9.972
 4190W        W 8254   4.095   0.398   3.322
 4191W        W 8255   4.524   8.944   0.660
 4192W        W 8256   7.208   5.711   2.142
 4193W        W 8257   0.772   3.743  10.776
 4194W        W 8258   3.064   2.205   2.162
 4195W        W 8259  10.411   9.844   1.423
 4196W        W 8260   5.924   9.597   3.582
 4197W        W 8261   6.936   8.151  10.779
 4198W        W 8262   0.797   5.179   2.162
 4199W        W 8263   0.452   1.930   2.222
 4200W        W 8264   1.164   6.448   8.607
 4201W        W 8265   4.489   1.715   2.389
 4202W        W 8266   0.886   3.075   8.982
 4203W        W 8267   2.731   6.472   0.846
 4204W        W 8268   0.490   7.736  11.377
 4205W        W 8269   3.712   0.444   1.976
 4206W        W 8270   0.837   1.792  11.396
 4207W        W 8271   4.947   4.249   9.108
 4208W        W 8272   7.740   0.768   1.793
 4209W        W 8273   5.503   6.701   3.577
 4210W        W 8274   1.259   6.073   9.922
 4211W        W 8275   9.996   4.024   0.218
 4212W        W 8276   8.427   1.152   3.214
 4213W        W 8277  10.243   5.449   2.631
 4214W        W 8278   5.780   7.065  10.072
 4215W        W 8279   7.482   2.727   1.971
 4216W        W 8280   9.190  10.279   9.849
 4217W        W 8281   0.313   5.445  11.056
 4218W        W 8282   4.776   7.941  10.314
 4219W        W 8283   8.859   1.453   9.196
 4220W        W 8284   1.209   3.986   1.934
 4221W        W 8285   3.741   5.836  11.714
 4222W        W 8286   6.565   8.348   2.716
 4223W        W 8287   3.202   6.964   9.070
 4224W        W 8288   1.365   2.273  11.879
 4225W        W 8289   7.855   9.510  10.458
 4226W        W 8290   6.733   4.006   9.322
 4227W        W 8291   8.391   2.612  11.907
 4228W        W 8292   8.042   9.986   0.388
 4229W        W 8293   7.575   6.612   0.446
 4230W        W 8294   8.737   9.546   2.264
 4231W        W 8295   4.645   4.192   3.312
 4232W        W 8296   5.999   8.574   9.360
 4233W        W 8297   3.746   1.326   1.911
 4234W        W 8298   0.866   6.908   9.210
 4235W        W 8299   7.866   1.810   0.057
 4236W        W 8300   6.667   6.497  11.365
 4237W        W 8301  10.443   8.286   3.119
 4238W        W 8302   9.639   3.866   8.877
 4239W        W 8303   4.225   7.415  11.264
 4240W        W 8304  10.403   9.418   0.583
 4241W        W 8305   4.647   8.919   3.139
 4242W        W 8306   3.180   3.734  10.088
 4243W        W 8307   6.063   9.575  10.987
 4244W        W 8308  10.486   9.704  11.432
 4245W        W 8309   1.496   3.681   2.980
 4246W        W 8310   7.627   1.318  10.623
 4247W        W 8311   8.371   7.065  10.791
 4248W        W 8312   4.266   5.238   8.395
 4249W        W 8313   2.302   3.915   8.802
 4250W        W 8314   4.753   6.027   1.018
 4251W        W 8315   1.897   3.058  11.901
 4252W        W 8316   3.315   7.158  10.450
 4253W        W 8317   9.328   2.857   1.683
 4254W        W 8318   3.610   2.720   2.269
 4255W        W 8319   4.719   7.025   2.479
 4256W        W 8320   6.115   2.236  10.139
 4257W        W 8321   1.814   5.981   1.749
 4258W        W 8322   7.810   9.754  11.665
 4259W        W 8323   6.689   6.163  11.952
 4260W        W 8324   9.364   9.057   1.340
 4261W        W 8325   9.464  10.489   2.675
 4262W        W 8326   1.940   9.756   0.698
 4263W        W 8327   2.056   9.948  10.407
 4264W        W 8328   0.392   2.894   0.708
 4265W        W 8329   2.168   4.509  10.856
 4266W        W 8330   3.290   4.440   3.626
 4267W        W 8331   0.037   2.815   0.340
 4268W        W 8332  10.293   8.217  10.728
 4269W        W 8333   5.237   9.477   0.777
 4270W        W 8334   4.793   2.327   1.183
 4271W        W 8335   1.714   8.477  11.775
 4272W        W 8336   3.220   7.204   1.408
 4273W        W 8337   0.266   5.111   3.606
 4274W        W 8338   8.919   6.213   8.531
 4275W        W 8339   6.948   4.078   0.683
 4276W        W 8340   1.346   7.851   0.298
 4277W        W 8341   2.860   9.836   1.873
 4278W        W 8342   2.112   6.638  11.799
 4279W        W 8343   1.932   9.440  11.483
 4280W        W 8344   5.950   4.327   9.090
 4281W        W 8345   8.018   9.699   9.918
 4282W        W 8346   8.142   8.605   2.659
 4283W        W 8347   9.385   1.712   9.852
 4284W        W 8348   3.583   3.593   2.148
 4285W        W 8349   3.564   9.516   9.906
 4286W        W 8350   1.388   3.194  11.849
 4287W        W 8351   2.198   3.726   9.823
 4288W        W 8352   3.195   8.839   3.399
 4289W        W 8353   8.356   5.241  10.967
 4290W        W 8354   3.279   0.659   2.978
 4291W        W 8355   3.762   4.592   8.335
 4292W        W 8356  10.226   6.064   2.878
 4293W        W 8357   6.576   4.884   1.257
 4294W        W 8358   3.732   4.530   1.959
 4295W        W 8359   2.616   1.984   8.895
 4296W        W 8360   4.414  10.101  10.427
 4297W        W 8361   7.066   2.283  10.068
 4298W        W 8362   9.579   2.987  10.834
 4299W        W 8363   1.702   7.558   9.068
 4300W        W 8364   6.649   6.193   4.012
 4301W        W 8365   1.796   7.051  11.754
 4302W        W 8366   0.022  10.230   9.584
 4303W        W 8367   0.263   3.106   1.201
 4304W        W 8368   9.488   5.641   0.709
 4305W        W 8369   8.990   5.028   8.933
 4306W        W 8370   8.525   6.595   1.643
 4307W        W 8371   0.880   4.769  10.723
 4308W        W 8372   2.331   4.764  11.254
 4309W        W 8373   3.871   8.285   9.486
 4310W        W 8374   2.088   1.007   1.310
 4311W        W 8375   6.345   9.787   9.271
 4312W        W 8376   5.089   4.213   8.613
 4313W        W 8377   6.149   2.250   1.667
 4314W        W 8378   4.677   5.875  10.499
 4315W        W 8379  10.319   2.980  11.903
 4316W        W 8380   8.418   4.260   0.243
 4317W        W 8381   7.845   9.003   2.506
 4318W        W 8382   2.835   8.544   2.777
 4319W        W 8383   3.379  10.364   2.927
 4320W        W 8384   0.023  10.465   0.770
 4321W        W 8385   2.759  10.324  11.672
 4322W        W 8386   8.180   6.648   3.106
 4323W        W 8387   0.258   6.555   9.276
 4324W        W 8388   4.140   9.234   1.431
 4325W        W 8389   3.463   0.347   8.548
 4326W        W 8390   6.557   3.684   1.987
 4327W        W 8391   8.956  10.198   0.067
 4328W        W 8392   0.371   8.951   2.131
 4329W        W 8393   1.337   1.289   0.031
 4330W        W 8394   8.846   9.957   3.015
 4331W        W 8395   0.561   0.981  11.029
 4332W        W 8396   5.918   6.386   3.574
 4333W        W 8397   6.162   0.961  10.941
 4334W        W 8398   7.878   0.838   0.368
 4335W        W 8399   9.584   7.379  11.897
 4336W        W 8400   2.356   1.107   8.964
 4337W        W 8401   2.031   9.823  11.817
 4338W        W 8402   3.362   7.482  11.227
 4339W        W 8403   0.043   2.664   1.051
 4340W        W 8404   2.753   2.194  11.367
 4341W        W 8405   5.228   9.995   0.012
 4342W        W 8406   6.510   8.346   1.768
 4343W        W 8407   4.723   5.506  11.825
 4344W        W 8408   1.663   7.913   9.864
 4345W        W 8409   1.293   2.807   2.592
 4346W        W 8410  10.163   7.270   0.964
 4347W        W 8411   6.555  10.251   9.423
 4348W        W 8412   4.103   8.496   9.883
 4349W        W 8413   5.974   0.004  11.758
 4350W        W 8414   0.114   5.332   0.878
 4351W        W 8415  10.274   6.555   9.070
 4352W        W 8416   8.110   4.109   9.373
 4353W        W 8417   3.355   2.397  10.414
 4354W        W 8418   7.679   5.269  11.417
 4355W        W 8419   6.632   6.909   0.370
 4356W        W 8420   6.129   1.866   0.057
 4357W        W 8421   9.304   0.303   1.312
 4358W        W 8422   5.920   5.749   9.880
 4359W        W 8423   9.021   5.700   2.461
 4360W        W 8424   9.528   0.007   0.940
 4361W        W 8425   0.469   6.081   9.338
 4362W        W 8426   7.490   6.134   2.943
 4363W        W 8427   6.102   6.131   9.524
 4364W        W 8428   6.705   3.055   9.377
 4365W        W 8429   0.809   8.984   2.700
 4366W        W 8430   4.928   2.686   1.950
 4367W        W 8431   3.066   0.205  11.306
 4368W        W 8432   4.239   1.063  10.476
 4369W        W 8433  10.395   6.951   8.737
 4370W        W 8434   3.726   3.351   3.038
 4371W        W 8435   7.571   4.067   4.353
 4372W        W 8436   9.348   6.170  11.375
 4373W        W 8437   2.690   7.416  11.654
 4374W        W 8438   0.526   7.745  11.922
 4375W        W 8439   7.138   5.015   1.918
 4376W        W 8440   0.340   5.062   2.635
 4377W        W 8441   4.136   6.278   2.901
 4378W        W 8442   3.602   3.765  10.373
 4379W        W 8443   5.565   1.665   0.920
 4380W        W 8444   3.727   0.751   8.910
 4381W        W 8445   7.542   1.343  11.123
 4382W        W 8446   2.699   9.756   9.031
 4383W        W 8447   4.712  10.041   0.799
 4384W        W 8448   6.687   8.474   2.239
 4385W        W 8449   5.048   4.006   9.882
 4386W        W 8450   6.900   0.792   9.621
 4387W        W 8451   2.125   6.892   1.901
 4388W        W 8452   8.816   2.918  11.995
 4389W        W 8453   5.093   6.676   2.333
 4390W        W 8454   0.800   2.209   1.174
 4391W        W 8455   9.019   8.883   0.878
 4392W        W 8456   9.843   8.198   2.802
 4393W        W 8457   3.314   7.606  10.220
 4394W        W 8458   4.915   6.192  11.549
 4395W        W 8459   7.041   5.407   1.039
 4396W        W 8460   7.896   6.282   0.917
 4397W        W 8461   8.338   5.921  11.348
 4398W        W 8462   6.327   2.707  10.923
 4399W        W 8463   8.313   6.347   2.599
 4400W        W 8464  10.023   6.169  10.973
 4401W        W 8465   2.079   8.500   2.132
 4402W        W 8466   8.945   2.649   0.993
 4403W        W 8467   9.489   5.453   1.679
 4404W        W 8468   4.088   8.893   0.985
 4405W        W 8469   2.587  10.005  10.437
 4406W        W 8470   5.081   9.560   1.294
 4407W        W 8471   7.096   7.492   9.182
 4408W        W 8472  10.134   6.669  10.954
 4409W        W 8473   4.127   3.761  11.794
 4410W        W 8474   9.926   2.986   8.784
 4411W        W 8475   2.909   9.908  11.405
 4412W        W 8476   5.524   0.744   0.732
 4413W        W 8477   0.307   6.913   3.439
 4414W        W 8478   5.616  10.351   9.433
 4415W        W 8479   7.911   3.300   9.700
 4416W        W 8480   7.403   1.395   8.638
 4417W        W 8481   5.428   5.526   1.891
 4418W        W 8482   9.549   4.539   2.633
 4419W        W 8483   9.954   4.077   1.999
 4420W        W 8484   9.293   8.843  10.819
 4421W        W 8485   5.985   3.524   9.384
 4422W        W 8486   2.842   8.329   0.260
 4423W        W 8487   1.476   4.710   0.913
 4424W        W 8488   9.771   8.905  11.012
 4425W        W 8489   9.828   5.197   0.977
 4426W        W 8490   1.456   6.163   9.430
 4427W        W 8491   8.070   6.105   9.481
 4428W        W 8492   5.197   0.289  10.310
 4429W        W 8493   4.985   3.757   0.515
 4430W        W 8494   2.708   1.186  10.331
 4431W        W 8495   8.533   1.718   2.504
 4432W        W 8496   4.574   3.847  11.530
 4433W        W 8497   5.257   9.995   9.605
 4434W        W 8498   1.369   6.680   3.046
 4435W        W 8499   0.392   8.176   2.756
 4436W        W 8500   6.135   4.279   2.609
 4437W        W 8501   8.074   0.205  10.162
 4438W        W 8502   3.541   9.909   3.187
 4439W        W 8503   5.459   8.557  10.351
 4440W        W 8504   9.396   7.291   0.368
 4441W        W 8505   2.371   7.104   2.504
 4442W        W 8506   2.792   1.823   9.503
 4443W        W 8507   2.341   7.765  10.464
 4444W        W 8508   6.112   4.175   0.255
 4445W        W 8509   4.304   8.055   2.867
 4446W        W 8510   2.687   4.600   9.321
 4447W        W 8511  10.380   8.441   1.782
 4448W        W 8512   1.825   0.303   8.894
 4449W        W 8513   2.226   4.141  11.302
 4450W        W 8514   4.782   6.059   0.011
 4451W        W 8515   6.032   0.844   2.541
 4452W        W 8516   4.650   9.017   9.205
 4453W        W 8517   8.516   1.096   1.421
 4454W        W 8518   8.378   2.635   2.535
 4455W        W 8519   4.682  10.333   1.931
 4456W        W 8520   9.061   0.703  10.795
 4457W        W 8521   0.715   8.546   3.431
 4458W        W 8522   6.118   1.688   1.486
 4459W        W 8523   5.243   8.210   2.746
 4460W        W 8524   0.320   1.677   1.785
 4461W        W 8525   7.407   7.139  10.481
 4462W        W 8526   8.358   5.224   3.053
 4463W        W 8527   7.081   5.358   3.839
 4464W        W 8528  10.302   4.197  11.753
 4465W        W 8529   0.328   7.556   1.926
 4466W        W 8530   9.929   5.520   1.413
 4467W        W 8531   5.651   3.508  11.754
 4468W        W 8532   4.068   2.392  11.372
 4469W        W 8533   6.026   4.086   0.767
 4470W        W 8534   8.009   3.559  10.662
 4471W        W 8535   3.132   0.305   2.647
 4472W        W 8536   5.749   9.155  11.760
 4473W        W 8537   2.834   0.737  10.591
 4474W        W 8538   6.687   1.401   0.461
 4475W        W 8539   7.382   5.571   9.971
 4476W        W 8540   4.179   3.447   1.440
 4477W        W 8541   3.587  10.049   0.004
 4478W        W 8542   4.264   9.615   2.748
 4479W        W 8543   5.630   6.587  10.270
 4480W        W 8544   9.383   1.516  10.778
 4481W        W 8545   8.262   3.732  10.261
 4482W        W 8546   0.697   5.500  11.382
 4483W        W 8547   0.440   1.890   0.888
 4484W        W 8548   4.151   7.056   0.704
 4485W        W 8549   4.232   0.735  11.835
 4486W        W 8550   5.279   8.583   9.346
 4487W        W 8551   1.778   2.118   9.837
 4488W        W 8552   3.333   6.122   9.577
 4489W        W 8553   7.044  10.089   0.314
 4490W        W 8554   1.658   7.754   3.704
 4491W        W 8555   8.418   3.304   9.817
 4492W        W 8556   6.567   2.131  11.480
 4493W        W 8557   1.785   6.983  10.280
 4494W        W 8558   0.360   6.029   2.001
 4495W        W 8559   5.947   7.101   9.599
 4496W        W 8560   2.686   5.163   3.344
 4497W        W 8561   1.880   0.354   1.748
 4498W        W 8562   1.702   7.969  11.936
 4499W        W 8563   6.285   8.262  10.290
 4500W        W 8564   7.024   2.195   2.522
 4501W        W 8565   6.177   8.958   9.070
 4502W        W 8566   8.890   6.207  10.407
 4503W        W 8567   6.321   2.777   3.210
 4504W        W 8568   7.093   2.726   1.203
 4505W        W 8569   9.908   6.503  11.420
 4506W        W 8570   9.515   3.776   1.474
 4507W        W 8571   0.866   6.073   2.297
 4508W        W 8572   7.789   8.144   1.038
 4509W        W 8573   4.263   3.253   3.548
 4510W        W 8574   0.543   8.960   0.210
 4511W        W 8575   5.683   0.279   2.347
 4512W        W 8576   2.165   0.354  10.249
 4513W        W 8577   9.863   6.580   9.388
 4514W        W 8578   3.787   2.978   0.469
 4515W        W 8579   8.854   4.614   9.655
 4516W        W 8580   0.970   9.435  11.533
 4517W        W 8581   1.404   1.407   2.774
 4518W        W 8582   1.839   5.732   0.002
 4519W        W 8583   7.894   7.171  11.186
 4520W        W 8584   9.236   0.097   3.129
 4521W        W 8585   1.496   9.508   0.871
 4522W        W 8586   8.562   0.227   2.017
 4523W        W 8587  10.419   4.203   1.736
 4524W        W 8588   7.181   5.058   1.392
 4525W        W 8589   8.461  10.448   2.454
 4526W        W 8590   3.184   3.322  11.552
 4527W        W 8591   4.641   6.860   0.441
 4528W        W 8592   3.399   5.730  10.771
 4529W        W 8593   9.705   5.679   8.933
 4530W        W 8594   7.862   9.097  10.973
 4531W        W 8595   2.935   0.498  11.774
 4532W        W 8596   9.100   3.752   9.917
 4533W        W 8597   5.741   5.267   2.208
 4534W        W 8598   4.249  10.313   2.237
 4535W        W 8599   0.472   8.074   1.881
 4536W        W 8600   0.904   6.616  11.080
 4537W        W 8601   0.984   3.882   8.211
 4538W        W 8602   5.735   6.893   2.798
 4539W        W 8603   8.360   2.122  10.780
 4540W        W 8604   6.765   0.784  10.844
 4541W        W 8605   5.822   1.518  10.320
 4542W        W 8606   8.255   7.275  11.517
 4543W        W 8607   5.059   9.104   2.312
 4544W        W 8608   6.988   5.277   9.848
 4545W        W 8609   9.836   5.943   0.461
 4546W        W 8610   6.958   3.283   9.765
 4547W        W 8611   4.774   3.815   2.495
 4548W        W 8612   8.654   7.150   9.829
 4549W        W 8613   5.524   7.624   3.232
 4550W        W 8614   3.554   7.147  10.892
 4551W        W 8615   3.019   0.670  11.059
 4552W        W 8616   8.058   8.978  11.920
 4553W        W 8617   9.820   5.101  11.912
 4554W        W 8618   8.953   1.834   9.587
 4555W        W 8619   6.136   3.779  11.784
 4556W        W 8620   7.379   0.333  10.346
 4557W        W 8621   1.127   2.215  10.906
 4558W        W 8622   3.305   3.312   1.322
 4559W        W 8623   8.909   7.797   2.834
 4560W        W 8624   4.740   9.413   0.599
 4561W        W 8625   7.055   1.759   1.417
 4562W        W 8626   2.231   8.643  10.129
 4563W        W 8627   4.341   9.723  10.870
 4564W        W 8628   3.133   5.560   1.849
 4565W        W 8629   5.713   3.090   9.302
 4566W        W 8630   7.201   8.090  10.323
 4567W        W 8631   6.723   5.344   1.432
 4568W        W 8632   9.827   0.776  11.694
 4569W        W 8633   3.932   9.801  11.696
 4570W        W 8634   3.688   6.960   1.505
 4571W        W 8635   1.482   0.197   1.490
 4572W        W 8636   6.059   5.789  11.331
 4573W        W 8637   3.849   4.057   2.213
 4574W        W 8638   4.059   4.241   2.672
 4575W        W 8639   3.234   4.769   3.228
 4576W        W 8640   9.153   6.902   2.552
 4577W        W 8641   2.642   8.423   3.487
 4578W        W 8642   3.845   0.863   1.704
 4579W        W 8643   4.846   6.713   9.858
 4580W        W 8644   2.565   0.229  11.448
 4581W        W 8645   3.345   3.133  10.915
 4582W        W 8646   9.589   9.346   3.326
 4583W        W 8647   6.970   2.918  11.350
 4584W        W 8648   1.232   1.537   1.758
 4585W        W 8649   5.070   6.935   1.228
 4586W        W 8650   7.054   7.195   2.308
 4587W        W 8651   8.016   6.978   2.374
 4588W        W 8652   5.484   3.790   2.676
 4589W        W 8653   8.756   9.777   3.494
 4590W        W 8654   3.654   4.719   1.502
 4591W        W 8655   5.966   8.342  11.942
 4592W        W 8656   1.259   8.089   2.533
 4593W        W 8657   7.892   0.390   2.810
 4594W        W 8658   1.895   8.829  11.006
 4595W        W 8659   1.881   9.471  10.052
 4596W        W 8660   4.711   2.865   2.815
 4597W        W 8661   9.911   1.408   1.563
 4598W        W 8662   6.183   0.394   2.392
 4599W        W 8663   6.572   7.061   1.295
 4600W        W 8664   3.827   4.092   0.155
 4601W        W 8665   3.672   0.725   3.329
 4602W        W 8666   7.824   5.295   9.873
 4603W        W 8667   7.100   8.536   9.993
 4604W        W 8668   4.719   9.028  10.224
 4605W        W 8669   0.833   0.924   1.889
 4606W        W 8670   4.257   7.488   0.466
 4607W        W 8671   2.755   1.046   0.666
 4608W        W 8672   2.765   0.404   2.988
 4609W        W 8673   7.652   3.302   0.720
 4610W        W 8674   4.174   5.340  10.062
 4611W        W 8675   0.533   2.752   2.783
 4612W        W 8676   4.271   4.382   9.029
 4613W        W 8677   7.377   3.870   0.088
 4614W        W 8678   1.927   6.469  10.324
 4615W        W 8679   3.706   4.582  11.954
 4616W        W 8680   8.455   9.006   2.830
 4617W        W 8681   6.418   8.105  10.801
 4618W        W 8682  10.424   6.484  11.330
 4619W        W 8683   6.051   5.550   8.993
 4620W        W 8684   0.738   5.916   2.770
 4621W        W 8685   0.052   6.605   1.223
 4622W        W 8686   8.676  10.461  10.869
 4623W        W 8687   0.022   2.638   9.996
 4624W        W 8688   9.829   5.164  11.049
 4625W        W 8689   5.062   2.816  11.418
 4626W        W 8690   0.604   9.006  11.330
 4627W        W 8691   2.582   2.245   8.479
 4628W        W 8692   8.704   1.017   9.372
 4629W        W 8693   3.498   4.168  11.769
 4630W        W 8694   8.797   8.831  10.629
 4631W        W 8695   8.491   5.011   2.283
 4632W        W 8696   1.122   2.942   0.931
 4633W        W 8697   9.379   6.491   9.237
 4634W        W 8698   7.113   8.349   0.807
 4635W        W 8699   9.859   2.315   1.664
 4636W        W 8700   5.626   4.745   2.828
 4637W        W 8701   2.935  10.428  10.158
 4638W        W 8702   4.521   0.563   2.498
 4639W        W 8703   6.772   6.220   9.927
 4640W        W 8704   5.916   8.614   3.410
 4641W        W 8705   3.067   8.075   2.593
 4642W        W 8706   5.056   8.966   8.902
 4643W        W 8707   6.548   3.609  10.006
 4644W        W 8708   2.550   3.302   9.850
 4645W        W 8709   0.953   6.156  10.857
 4646W        W 8710   8.928   7.420   3.207
 4647W        W 8711   6.899   6.499   3.684
 4648W        W 8712  10.336   4.700   9.816
 4649W        W 8713   5.473   0.442   1.845
 4650W        W 8714   5.503   3.610   1.912
 4651W        W 8715   8.515   7.715   1.416
 4652W        W 8716   6.469   4.562   4.121
 4653W        W 8717   1.802   9.797   1.179
 4654W        W 8718   8.623   4.138   9.478
 4655W        W 8719   0.368   2.879  11.951
 4656W        W 8720   4.978   8.578   2.957
 4657W        W 8721   8.382   5.099   3.520
 4658W        W 8722   8.042  10.313   8.831
 4659W        W 8723  10.430   2.485  11.942
 4660W        W 8724   4.300   8.594   2.833
 4661W        W 8725   9.594  10.068  10.947
 4662W        W 8726   3.902   4.639   9.372
 4663W        W 8727   1.182   7.425   9.061
 4664W        W 8728   4.782   2.092  11.766
 4665W        W 8729   8.765   0.133  11.367
 4666W        W 8730   3.849   5.557   8.452
 4667W        W 8731   3.740   2.286   1.511
 4668W        W 8732   2.235   2.369   9.016
 4669W        W 8733   7.389   4.602   0.811
 4670W        W 8734   5.168   0.840   9.442
 4671W        W 8735   7.018   8.480   1.787
 4672W        W 8736   9.315   3.275   3.213
 4673W        W 8737   0.834   0.991   8.906
 4674W        W 8738   1.182   7.997  11.078
 4675W        W 8739  10.501   0.524   2.190
 4676W        W 8740   5.653   7.026  10.951
 4677W        W 8741   6.572  10.137   3.440
 4678W        W 8742   8.509   1.488  10.844
 4679W        W 8743   7.516   4.788  10.734
 4680W        W 8744   4.688   4.684  10.463
 4681W        W 8745   3.766   0.896  11.680
 4682W        W 8746   9.602   3.841  10.316
 4683W        W 8747   8.666   3.209   9.358
 4684W        W 8748   3.327   5.524  11.986
 4685W        W 8749   5.682   4.802   9.869
 4686W        W 8750   0.256   0.815  10.173
 4687W        W 8751   3.246   5.900   8.520
 4688W        W 8752   1.773   7.945  10.393
 4689W        W 8753   6.583  10.225   1.877
 4690W        W 8754   8.087   9.863   1.915
 4691W        W 8755   4.608   7.868  11.177
 4692W        W 8756   2.608   0.894   1.151
 4693W        W 8757   6.219   7.409   0.028
 4694W        W 8758   9.314   2.474   9.566
 4695W        W 8759   1.812   6.765   2.771
 4696W        W 8760   1.669   6.852   9.799
 4697W        W 8761   0.225   2.015   9.519
 4698W        W 8762   8.535   6.066  11.810
 4699W        W 8763   3.174   2.845   8.846
 4700W        W 8764   9.908   0.893   1.734
 4701W        W 8765   5.474   8.990   0.805
 4702W        W 8766   6.117   3.258  11.656
 4703W        W 8767   9.989   1.722  11.915
 4704W        W 8768   3.007   4.103  11.819
 4705W        W 8769   1.759   1.296  10.241
 4706W        W 8770   3.577   0.066  11.246
 4707W        W 8771   0.379   6.927   8.949
 4708W        W 8772   7.151   5.820   1.326
 4709W        W 8773   5.493   2.851   9.713
 4710W        W 8774   8.416   2.070   1.656
 4711W        W 8775   8.465   9.754   0.260
 4712W        W 8776   6.441   9.345   0.349
 4713W        W 8777   6.946   4.670   4.342
 4714W        W 8778   8.549   3.810   9.856
 4715W        W 8779   3.237   2.329   1.431
 4716W        W 8780   1.388   5.210   1.377
 4717W        W 8781   0.205   0.695   3.175
 4718W        W 8782   7.883   4.984  11.039
 4719W        W 8783   0.704   4.977   9.766
 4720W        W 8784  10.287   5.657   9.629
 4721W        W 8785  10.162   3.494   8.511
 4722W        W 8786   9.116   4.738  10.639
 4723W        W 8787   7.619   0.418   0.359
 4724W        W 8788   5.267   4.059   2.286
 4725W        W 8789   9.791   9.819   3.267
 4726W        W 8790   1.940   8.315  11.018
 4727W        W 8791   9.254   4.054  11.799
 4728W        W 8792   1.393   5.557  10.039
 4729W        W 8793   2.163   8.473   9.657
 4730W        W 8794   8.439   6.430  11.290
 4731W        W 8795   8.350   8.363   3.055
 4732W        W 8796   7.694   9.974   1.294
 4733W        W 8797   7.079   3.582  10.173
 4734W        W 8798   9.392   6.001  10.897
 4735W        W 8799   7.780  10.228   1.737
 4736W        W 8800   4.747   5.804   9.573
 4737W        W 8801   6.182   6.240   2.287
 4738W        W 8802   7.537   2.173  10.265
 4739W        W 8803   6.610   0.220   0.696
 4740W        W 8804   6.147   0.941   8.413
 4741W        W 8805   7.379   0.880   0.402
 4742W        W 8806   9.594   3.874   9.801
 4743W        W 8807  10.376   9.215   2.057
 4744W        W 8808   6.113   8.042   1.889
 4745W        W 8809  10.211   1.560   0.332
 4746W        W 8810   7.099   5.081   0.189
 4747W        W 8811   8.600   3.057   2.317
 4748W        W 8812   2.799   5.195   9.050
 4749W        W 8813   8.246   6.206   9.932
 4750W        W 8814   4.215   6.720  10.558
 4751W        W 8815   3.641   3.663   8.933
 4752W        W 8816   0.831   3.514   8.679
 4753W        W 8817   4.318   3.308  10.453
 4754W        W 8818   3.672   6.721  10.052
 4755W        W 8819   0.776   0.729   3.182
 4756W        W 8820   2.773   8.346  10.871
 4757W        W 8821   4.664   4.937   9.350
 4758W        W 8822   5.512   5.864  10.770
 4759W        W 8823   5.317   5.051   1.936
 4760W        W 8824   7.533   0.783   9.539
 4761W        W 8825   5.145   6.211  11.053
 4762W        W 8826   6.565   6.128   3.021
 4763W        W 8827   5.485   1.336   9.465
 4764W        W 8828  10.428   3.514   0.465
 4765W        W 8829   2.482   5.242  11.502
 4766W        W 8830  10.141   3.906   3.643
 4767W        W 8831   9.392   6.541   2.282
 4768W        W 8832   2.640   1.206   9.490
 4769W        W 8833  10.430   9.121  10.882
 4770W        W 8834   0.873   3.109   0.068
 4771W        W 8835   4.667   6.416   3.714
 4772W        W 8836   2.446   5.155   0.002
 4773W        W 8837   7.776   0.649  10.087
 4774W        W 8838   0.850   0.305   3.593
 4775W        W 8839   3.115  10.428   1.429
 4776W        W 8840   8.411   7.307   2.482
 4777W        W 8841   8.449   7.520   2.934
 4778W        W 8842   0.848   7.663   0.339
 4779W        W 8843   0.932   9.510   0.917
 4780W        W 8844   0.925   9.865  11.267
 4781W        W 8845   8.733   9.783  11.793
 4782W        W 8846   1.050   6.331   2.787
 4783W        W 8847  10.441   9.966   0.907
 4784W        W 8848   4.578   2.984  11.429
 4785W        W 8849   1.860   0.904   2.876
 4786W        W 8850   1.685   2.559   2.369
 4787W        W 8851   5.992   0.519   0.134
 4788W        W 8852   8.084   4.878   1.163
 4789W        W 8853   2.724   2.483   2.432
 4790W        W 8854   0.284   3.648  10.521
 4791W        W 8855   3.627   6.212  10.053
 4792W        W 8856   6.565   5.251   0.886
 4793W        W 8857   6.588   5.936   9.546
 4794W        W 8858   6.694   8.686   0.854
 4795W        W 8859   2.351   0.753   2.849
 4796W        W 8860   6.762   9.107   0.021
 4797W        W 8861   1.781   3.099   8.871
 4798W        W 8862   4.969   7.322   9.938
 4799W        W 8863   1.912  10.023   0.273
 4800W        W 8864   8.873   1.799   8.355
 4801W        W 8865   6.565   0.681   2.207
 4802W        W 8866   9.563   6.614   3.171
 4803W        W 8867   2.260   3.395   8.869
 4804W        W 8868   1.767   7.452   0.167
 4805W        W 8869   1.303   6.114  10.448
 4806W        W 8870   3.864   4.620   8.841
 4807W        W 8871   3.743   8.564   9.063
 4808W        W 8872   4.092   2.394   8.979
 4809W        W 8873   1.187   8.001   9.620
 4810W        W 8874   4.183   4.800   8.119
 4811W        W 8875   3.941   2.739  10.871
 4812W        W 8876   4.028   0.002   1.827
 4813W        W 8877   6.572   9.969   1.271
 4814W        W 8878   7.005   6.185   2.175
 4815W        W 8879   4.296  10.043   9.456
 4816W        W 8880   3.661   0.812   0.687
 4817W        W 8881  10.406   3.565   0.985
 4818W        W 8882   1.235   1.073  11.557
 4819W        W 8883   9.590   7.862   0.805
 4820W        W 8884   5.553   3.449   8.962
 4821W        W 8885   7.003   2.425  11.550
 4822W        W 8886   0.989   4.204  11.325
 4823W        W 8887   9.474   0.005  10.710
 4824W        W 8888   1.242  10.222   9.903
 4825W        W 8889   4.337   0.497  11.337
 4826W        W 8890   2.715   9.977   9.934
 4827W        W 8891   4.154   2.912   3.165
 4828W        W 8892  10.450   9.436  10.502
 4829W        W 8893   3.295   8.417   1.575
 4830W        W 8894   3.358   3.176   2.621
 4831W        W 8895   3.248   5.132  10.251
 4832W        W 8896   5.238   0.013   2.286
 4833W        W 8897   9.490   1.872   1.492
 4834W        W 8898   4.139   8.927   3.303
 4835W        W 8899   2.318   5.271   8.795
 4836W        W 8900   7.935   8.458   0.122
 4837W        W 8901   0.470   4.322   9.319
 4838W        W 8902   4.622   6.948   3.939
 4839W        W 8903   9.870   4.668   0.761
 4840W        W 8904   8.133   9.047   1.788
 4841W        W 8905   0.682   9.879  10.821
 4842W        W 8906   5.181   0.421  11.665
 4843W        W 8907   4.935   7.086   9.495
 4844W        W 8908   9.752   4.159  11.801
 4845W        W 8909   1.340   5.790   8.506
 4846W        W 8910   5.718   9.875  10.356
 4847W        W 8911   2.362   4.582   2.281
 4848W        W 8912   4.123   6.915  10.053
 4849W        W 8913   6.934   4.434   1.040
 4850W        W 8914   5.737  10.066   0.023
 4851W        W 8915   9.390   2.973   8.633
 4852W        W 8916   8.111   4.340  11.298
 4853W        W 8917   6.625   9.922  10.389
 4854W        W 8918   5.476   3.583   3.962
 4855W        W 8919   2.948   6.431  11.872
 4856W        W 8920   6.794   7.270   3.541
 4857W        W 8921   2.353  10.453   2.300
 4858W        W 8922   9.735   2.180  10.252
 4859W        W 8923   6.980   4.595   0.531
 4860W        W 8924   3.679   9.502   2.176
 4861W        W 8925   0.274   4.230   3.049
 4862W        W 8926   3.091   0.461   8.917
 4863W        W 8927   0.701   6.678   1.887
 4864W        W 8928   6.643   2.587  11.907
 4865W        W 8929   6.343   9.178   3.690
 4866W        W 8930   4.701   1.838  10.064
 4867W        W 8931   0.656   3.648   2.524
 4868W        W 8932   4.467   0.342   8.917
 4869W        W 8933   0.879   6.353   0.882
 4870W        W 8934   0.337   2.329  11.002
 4871W        W 8935  10.373   0.851   0.976
 4872W        W 8936   3.608   3.672  11.936
 4873W        W 8937   7.567   8.773  11.950
 4874W        W 8938   8.527   1.374  10.083
 4875W        W 8939   7.091   7.617  10.665
 4876W        W 8940   0.342  10.033   1.218
 4877W        W 8941   5.130   6.910   0.287
 4878W        W 8942   4.919   0.037   1.410
 4879W        W 8943   4.342   7.012   1.835
 4880W        W 8944   6.463   0.297   9.860
 4881W        W 8945   0.771  10.387   0.360
 4882W        W 8946   8.381   3.161  10.334
 4883W        W 8947   2.987   5.311   0.887
 4884W        W 8948   5.974   3.213   2.691
 4885W        W 8949   2.430   6.471   9.434
 4886W        W 8950   4.974   3.219   3.497
 4887W        W 8951   6.952   0.792  10.375
 4888W        W 8952   6.361   4.591   2.080
 4889W        W 8953   1.891   8.449  10.514
 4890W        W 8954   2.632   0.726  11.393
 4891W        W 8955   7.827   1.289   8.357
 4892W        W 8956   9.468   6.710   1.343
 4893W        W 8957   0.989   0.242   1.375
 4894W        W 8958   7.202   7.680   2.237
 4895W        W 8959   5.139   7.583  10.383
 4896W        W 8960   9.431   9.527   1.558
 4897W        W 8961   0.002   8.491   1.292
 4898W        W 8962   7.375   6.673   2.912
 4899W        W 8963   8.633   2.213   8.900
 4900W        W 8964   8.211   9.969  11.886
 4901W        W 8965   2.314   2.664   8.540
 4902W        W 8966   6.629   4.921   1.774
 4903W        W 8967   0.177   8.487   0.805
 4904W        W 8968   9.252   2.742   2.708
 4905W        W 8969   4.417   6.191  11.443
 4906W        W 8970   3.126  10.313   0.477
 4907W        W 8971   8.945   1.179  10.770
 4908W        W 8972   2.806   1.255   8.624
 4909W        W 8973   8.858   2.601  10.430
 4910W        W 8974   7.798   4.983   9.179
 4911W        W 8975   0.831   4.476   9.642
 4912W        W 8976   6.412   2.860  10.435
 4913W        W 8977   0.231   8.981   0.651
 4914W        W 8978   6.452   1.149   2.402
 4915W        W 8979   5.902   3.637   4.251
 4916W        W 8980   6.467   7.370   2.611
 4917W        W 8981   7.525   3.769   2.991
 4918W        W 8982   9.637   3.262   1.774
 4919W        W 8983   9.378   1.803  11.240
 4920W        W 8984   9.473   7.776   0.292
 4921W        W 8985   1.466   8.786   0.128
 4922W        W 8986   7.025   5.480   9.171
 4923W        W 8987   0.038   4.158  10.515
 4924W        W 8988   7.709   8.075  10.393
 4925W        W 8989   0.778   7.092   3.306
 4926W        W 8990   0.628   9.835   2.140
 4927W        W 8991   2.201   1.296  11.008
 4928W        W 8992   3.291   6.013  11.873
 4929W        W 8993   0.021   3.323  11.101
 4930W        W 8994   8.546   3.318   1.181
 4931W        W 8995   4.487   6.471   1.725
 4932W        W 8996   5.986   2.609  10.444
 4933W        W 8997   1.709   8.002   2.783
 4934W        W 8998   6.941   9.547   9.987
 4935W        W 8999   7.192   6.566  11.215
 4936W        W 9000   2.486   7.554   2.747
 4937W        W 9001   7.274   1.684   0.962
 4938W        W 9002   6.229   4.520   3.405
 4939W        W 9003   6.027   0.430  10.107
 4940W        W 9004   0.151   4.723   1.962
 4941W        W 9005   0.510   4.075   3.495
 4942W        W 9006   9.949   3.519   0.267
 4943W        W 9007   7.925   7.215   1.919
 4944W        W 9008   4.686   4.033   3.809
 4945W        W 9009   9.996   9.054   2.370
 4946W        W 9010   8.505   4.972   8.429
 4947W        W 9011   7.476   4.146  10.439
 4948W        W 9012   2.232   1.144  11.865
 4949W        W 9013   0.766   3.690   2.021
 4950W        W 9014   9.100   1.666   1.193
 4951W        W 9015   4.428   4.204  11.894
 4952W        W 9016   5.576   1.399   1.548
 4953W        W 9017   7.482   0.735   2.629
 4954W        W 9018   6.647   4.711   3.644
 4955W        W 9019   1.004   9.004   1.660
 4956W        W 9020   1.988   6.217   9.456
 4957W        W 9021   3.687   2.691   3.252
 4958W        W 9022   2.329   4.276  10.034
 4959W        W 9023   7.590   7.940   3.186
 4960W        W 9024   8.858   8.952   3.139
 4961W        W 9025   0.174   4.762   0.293
 4962W        W 9026   2.771   4.820  11.650
 4963W        W 9027   6.244   8.361   9.773
 4964W        W 9028   1.022   3.537   2.863
 4965W        W 9029   6.867   8.967   2.215
 4966W        W 9030   2.644   8.510   1.666
 4967W        W 9031   6.966   3.820  11.326
 4968W        W 9032  10.363   8.857   3.375
 4969W        W 9033   1.966   2.548  11.827
 4970W        W 9034   5.619   0.858   9.195
 4971W        W 9035   7.528   8.718   2.807
 4972W        W 9036   0.823   4.345   3.191
 4973W        W 9037   5.427   3.300   9.931
 4974W        W 9038   3.080   4.065   2.886
 4975W        W 9039   7.845   4.517  11.691
 4976W        W 9040   1.389   3.006   2.128
 4977W        W 9041   7.599   9.778   1.987
 4978W        W 9042   0.795   3.172   0.572
 4979W        W 9043   3.601   6.441   2.713
 4980W        W 9044   2.764   9.070   0.694
 4981W        W 9045   9.131   6.563   3.439
 4982W        W 9046   5.477   0.610  10.697
 4983W        W 9047   0.875   9.843   2.583
 4984W        W 9048   7.637  10.049   8.630
 4985W        W 9049   4.215   7.774  11.618
 4986W        W 9050   1.982   1.022   2.379
 4987W        W 9051   2.158  10.080   1.429
 4988W        W 9052   3.608   1.956   2.618
 4989W        W 9053   7.442   4.237  10.930
 4990W        W 9054   7.234   1.799   8.947
 4991W        W 9055   8.569   6.820   1.183
 4992W        W 9056   7.931   2.704   2.231
 4993W        W 9057   9.449   5.587   9.780
 4994W        W 9058   4.622   7.867   1.906
 4995W        W 9059   4.819   0.331  11.299
 4996W        W 9060   6.405   0.854  10.485
 4997W        W 9061   1.629   2.830  10.444
 4998W        W 9062   0.728   1.709   3.362
 4999W        W 9063   4.526   7.107   9.798
 5000W        W 9064   1.783   2.635   8.604
 5001W        W 9065   9.803   5.921  10.584
 5002W        W 9066   4.847   7.597   9.468
 5003W        W 9067   3.383   6.538   9.276
 5004W        W 9068   0.481   2.553   0.313
 5005W        W 9069   1.848   4.198   8.809
 5006W        W 9070   2.204   1.664   8.841
 5007W        W 9071   2.714   3.795   9.786
 5008W        W 9072   4.823   1.174  11.377
 5009W        W 9073   1.649   5.189   0.699
 5010W        W 9074   9.928   6.115   9.131
 5011W        W 9075   9.029   4.221   2.036
 5012W        W 9076   9.188  10.056   9.364
 5013W        W 9077   6.506   9.466  10.243
 5014W        W 9078   8.268   4.505   8.547
 5015W        W 9079   8.820   2.080  11.631
 5016W        W 9080   8.146   9.250  10.138
 5017W        W 9081   9.928   2.115   3.212
 5018W        W 9082  10.215   5.660   9.101
 5019W        W 9083   7.090   6.762  10.343
 5020W        W 9084   9.955  10.276  10.510
 5021W        W 9085   2.240   0.763   8.537
 5022W        W 9086   4.746   6.003   0.522
 5023W        W 9087   8.085   6.736  10.537
 5024W        W 9088   1.181   1.838   3.158
 5025W        W 9089   8.507   5.499   1.677
 5026W        W 9090   5.554   3.360   2.943
 5027W        W 9091  10.274   7.496   2.822
 5028W        W 9092   8.813   4.229   2.933
 5029W        W 9093   0.192   5.647   9.279
 5030W        W 9094   7.615   4.621  10.270
 5031W        W 9095   6.246   0.203   1.518
 5032W        W 9096   4.301  10.036   1.759
 5033W        W 9097   7.975   9.567   0.116
 5034W        W 9098   6.472   4.563   9.948
 5035W        W 9099   9.310   8.349   9.676
 5036W        W 9100   4.165   2.230  10.883
 5037W        W 9101   0.343   4.956   1.181
 5038W        W 9102   3.875   7.209   1.914
 5039W        W 9103   1.622  10.359   1.831
 5040W        W 9104   4.696   7.459   2.795
 5041W        W 9105   8.907   9.839   8.860
 5042W        W 9106   2.094   7.191   2.923
 5043W        W 9107   1.942   1.325   3.211
 5044W        W 9108   8.064   2.137   0.417
 5045W        W 9109   7.027   6.251  10.345
 5046W        W 9110   0.715   4.341  11.748
 5047W        W 9111   5.942   7.847   0.004
 5048W        W 9112  10.344   0.926  10.503
 5049W        W 9113   9.951   6.023   1.413
 5050W        W 9114   7.516   3.625  10.479
 5051W        W 9115   1.437   0.063   0.983
 5052W        W 9116   5.934   6.603   0.250
 5053W        W 9117   2.675   7.452   0.170
 5054W        W 9118   0.227   4.069  10.060
 5055W        W 9119   5.941  10.040  11.555
 5056W        W 9120   9.345   7.876   9.426
 5057W        W 9121   4.427   0.338   8.358
 5058W        W 9122   7.934   7.692  11.355
 5059W        W 9123   6.141   5.922  11.819
 5060W        W 9124   1.841   8.971  11.709
 5061W        W 9125   6.436   6.951  11.512
 5062W        W 9126   4.738   3.382  11.700
 5063W        W 9127   8.490   2.199   2.270
 5064W        W 9128   6.908   5.157  11.244
 5065W        W 9129   5.580   7.881  11.315
 5066W        W 9130   9.347   3.759   1.963
 5067W        W 9131   2.935   0.643   2.071
 5068W        W 9132   5.287   0.457  11.155
 5069W        W 9133   2.882   8.569   0.733
 5070W        W 9134   4.065   1.540  10.587
 5071W        W 9135   1.831   4.921  11.601
 5072W        W 9136   2.812   0.135   2.239
 5073W        W 9137   4.152   0.789   0.897
 5074W        W 9138   6.139   6.747   2.351
 5075W        W 9139   3.689   6.122   0.235
 5076W        W 9140   8.797   5.970  10.855
 5077W        W 9141   7.869   9.903   3.316
 5078W        W 9142   4.126   7.491   3.537
 5079W        W 9143   2.576   7.128   3.059
 5080W        W 9144   2.771   1.250   1.474
 5081W        W 9145   1.968   7.520   0.815
 5082W        W 9146   1.231   5.766   2.828
 5083W        W 9147   8.494   7.434  11.107
 5084W        W 9148   3.935   6.787   2.893
 5085W        W 9149   7.001   7.637   0.077
 5086W        W 9150   7.963   0.070   2.087
 5087W        W 9151   0.319   2.336   2.493
 5088W        W 9152   7.980   0.900   2.787
 5089W        W 9153   5.802   3.416   8.488
 5090W        W 9154   5.284   4.637   3.181
 5091W        W 9155   6.507   1.978   2.792
 5092W        W 9156   6.629   0.676  11.770
 5093W        W 9157   1.907   9.914  11.324
 5094W        W 9158   4.713   0.905   1.672
 5095W        W 9159   9.883   8.356   1.903
 5096W        W 9160   7.527   5.695   2.578
 5097W        W 9161   0.330  10.393   3.455
 5098W        W 9162   8.148   1.833   2.170
 5099W        W 9163   9.003   1.167   1.232
 5100W        W 9164   3.860   6.465   4.081
 5101W        W 9165   6.897   3.180   8.793
 5102W        W 9166   8.741   0.396   2.527
 5103W        W 9167   1.145   6.883   1.794
 5104W        W 9168   7.942   0.943  10.478
 5105W        W 9169   9.046   9.477  11.466
 5106W        W 9170   5.063   1.267   0.905
 5107W        W 9171   9.927   0.449  11.278
 5108W        W 9172   5.942   1.057  10.492
 5109W        W 9173   9.988   6.533   1.330
 5110W        W 9174   5.580  10.205   1.425
 5111W        W 9175   7.456   2.899   0.451
 5112W        W 9176   8.605   1.688   8.794
 5113W        W 9177   6.103   9.921   2.187
 5114W        W 9178   2.289   4.666   0.253
 5115W        W 9179   1.694   8.760   0.601
 5116W        W 9180   0.334   1.185   9.052
 5117W        W 9181  10.292   5.278  11.875
 5118W        W 9182   4.044   6.664  11.930
 5119W        W 9183   8.228   0.996   9.534
 5120W        W 9184   4.320   1.763  10.956
 5121W        W 9185   5.735   5.289   1.137
 5122W        W 9186   1.672   3.152  10.058
 5123W        W 9187  10.122   7.895   3.111
 5124W        W 9188   5.596   8.882  11.183
 5125W        W 9189   4.725   0.265  10.120
 5126W        W 9190   3.653   2.444   9.588
 5127W        W 9191   3.634   2.231  11.577
 5128W        W 9192   0.500   6.358  10.768
 5129W        W 9193   8.984   0.374   1.711
 5130W        W 9194   7.115   6.686   0.221
 5131W        W 9195   7.542   9.489   1.282
 5132W        W 9196   1.634   2.531   9.584
 5133W        W 9197   1.393   6.093   8.926
 5134W        W 9198   2.474   4.151   0.366
 5135W        W 9199   0.891   8.984   2.186
 5136W        W 9200   2.303   0.545   1.419
 5137W        W 9201   6.428   9.347  11.262
 5138W        W 9202   1.536   8.611   3.655
 5139W        W 9203  10.185   7.006   1.894
 5140W        W 9204  10.347   9.310   9.494
 5141W        W 9205   0.730   9.421  11.053
 5142W        W 9206   2.496   5.121   0.924
 5143W        W 9207   0.812   2.390  11.256
 5144W        W 9208   4.176   1.230   1.180
 5145W        W 9209   6.008   5.728   0.400
 5146W        W 9210   2.247   4.244  11.858
 5147W        W 9211   9.079   8.794   0.074
 5148W        W 9212   9.457  10.011   0.243
 5149W        W 9213   4.778   6.551  11.222
 5150W        W 9214   9.366   2.160   1.927
 5151W        W 9215   1.743   7.142   9.373
 5152W        W 9216   3.890   5.482  10.809
 5153W        W 9217   4.626   3.760   0.046
 5154W        W 9218   4.355   4.279  10.432
 5155W        W 9219   2.826   0.928   9.064
 5156W        W 9220   5.303   6.247  11.889
 5157W        W 9221   4.201   0.308   1.227
 5158W        W 9222   3.183   2.372   0.565
 5159W        W 9223   8.916   1.642  10.576
 5160W        W 9224  10.356   3.718  10.233
 5161W        W 9225   6.300   9.017  10.383
 5162W        W 9226   9.555   3.208   9.075
 5163W        W 9227   1.736   9.032  10.287
 5164W        W 9228   6.116   3.632  11.290
 5165W        W 9229   0.868   1.204   3.359
 5166W        W 9230   3.537  10.485   1.721
 5167W        W 9231   4.985   9.458   8.744
 5168W        W 9232   0.351   9.100  11.766
 5169W        W 9233   2.240   8.718   8.826
 5170W        W 9234   0.352   1.306   1.252
 5171W        W 9235   6.456   3.845   1.501
 5172W        W 9236   2.809   5.941   2.591
 5173W        W 9237   0.201   5.501   2.839
 5174W        W 9238   0.894   4.442   2.672
 5175W        W 9239   3.528   2.158  10.003
 5176W        W 9240   4.715   6.073   9.088
 5177W        W 9241   7.015   6.382   0.872
 5178W        W 9242   8.122   8.727   2.170
 5179W        W 9243   5.184   7.215  10.906
 5180W        W 9244   8.956   1.567  11.089
 5181W        W 9245   9.824   4.341   8.961
 5182W        W 9246   0.346   1.443   2.221
 5183W        W 9247   1.309   7.645   2.807
 5184W        W 9248   0.478   6.000   0.157
 5185W        W 9249   6.247   6.503  10.612
 5186W        W 9250   8.286   3.661   1.837
 5187W        W 9251   9.009   6.082   9.460
 5188W        W 9252   0.637   5.369  10.521
 5189W        W 9253   2.214   0.241   8.553
 5190W        W 9254   1.634   8.681   2.323
 5191W        W 9255   5.629   8.502   0.705
 5192W        W 9256   5.213   6.020   0.320
 5193W        W 9257   4.561   1.920   3.223
 5194W        W 9258   4.088   3.756   9.852
 5195W        W 9259   2.910   6.049  11.520
 5196W        W 9260   0.877   1.384  11.740
 5197W        W 9261   6.279   1.682   0.963
 5198W        W 9262   8.234   0.391   2.441
 5199W        W 9263   9.498   7.102   3.025
 5200W        W 9264   3.133   8.065  10.587
 5201W        W 9265  10.169   2.190   9.930
 5202W        W 9266   7.714   8.996   0.383
 5203W        W 9267   5.833   6.532   1.399
 5204W        W 9268   4.573  10.054   1.304
 5205W        W 9269   7.121   8.570  11.036
 5206W        W 9270   1.458   6.122  11.798
 5207W        W 9271   8.674   5.566  11.193
 5208W        W 9272   2.226   7.836   9.211
 5209W        W 9273   4.217   4.038   3.582
 5210W        W 9274   1.680   9.981   3.189
 5211W        W 9275   7.241   4.107   8.564
 5212W        W 9276   8.052   9.500   9.168
 5213W        W 9277   1.939   5.034   0.117
 5214W        W 9278   4.280   8.364   2.244
 5215W        W 9279   0.390   4.215   2.535
 5216W        W 9280   5.384   6.364   1.699
 5217W        W 9281   7.341   9.015   1.318
 5218W        W 9282   7.711   3.753   1.023
 5219W        W 9283   1.359   4.758   2.739
 5220W        W 9284   4.261   6.184   9.378
 5221W        W 9285   6.099   3.049   1.198
 5222W        W 9286   6.164   9.980  10.588
 5223W        W 9287   7.668   1.849   9.266
 5224W        W 9288   8.093   7.581  11.874
 5225W        W 9289  10.245   1.880   9.528
 5226W        W 9290   5.077   5.052   2.377
 5227W        W 9291   5.802   8.172  10.482
 5228W        W 9292   9.200   5.534   8.794
 5229W        W 9293   1.707  10.272   1.302
 5230W        W 9294   2.684   2.282   9.285
 5231W        W 9295   7.740   6.000   0.507
 5232W        W 9296   4.348   8.584   1.295
 5233W        W 9297   6.888   3.971   1.240
 5234W        W 9298   9.440   5.608   3.168
 5235W        W 9299   5.086   8.602   0.121
 5236W        W 9300   4.826   2.289  10.250
 5237W        W 9301   9.375   1.964   2.910
 5238W        W 9302   2.386   2.760   2.131
 5239W        W 9303   8.775   1.170   2.462
 5240W        W 9304   1.508   9.506   3.056
 5241W        W 9305   7.229   0.569  10.836
 5242W        W 9306   0.800   4.194   2.218
 5243W        W 9307  10.243   4.507   2.139
 5244W        W 9308   5.424   6.101   3.366
 5245W        W 9309   8.627   0.489   0.670
 5246W        W 9310   4.524   4.034   9.317
 5247W        W 9311   6.605   7.435   0.360
 5248W        W 9312   1.479  10.210   0.071
 5249W        W 9313   0.779   2.174   8.491
 5250W        W 9314   2.936   8.115   1.852
 5251W        W 9315   8.469   6.483  10.325
 5252W        W 9316   2.113   4.203   1.875
 5253W        W 9317   4.831  10.075   8.418
 5254W        W 9318   2.043   1.845   1.080
 5255W        W 9319   0.363   3.423   9.485
 5256W        W 9320   9.469   3.291   0.881
 5257W        W 9321   4.958   7.800   1.117
 5258W        W 9322   6.475   3.764   3.491
 5259W        W 9323   9.914   3.055   9.845
 5260W        W 9324   0.485   5.057   1.672
 5261W        W 9325   2.088   2.190   8.549
 5262W        W 9326   9.108   8.677   2.314
 5263W        W 9327   9.461  10.498   9.443
 5264W        W 9328   6.436   8.203  11.850
 5265W        W 9329  10.430   9.757   9.833
 5266W        W 9330   9.689   2.163   9.744
 5267W        W 9331   8.930   0.666   1.262
 5268W        W 9332   9.411   7.415   9.614
 5269W        W 9333   4.863   1.351   0.453
 5270W        W 9334   1.988   6.187   2.724
 5271W        W 9335   6.099   2.226   2.619
 5272W        W 9336   9.764   9.496   0.410
 5273W        W 9337   9.838   1.124   3.058
 5274W        W 9338   3.392   2.814   1.421
 5275W        W 9339   1.780   5.149   2.198
 5276W        W 9340   4.594   3.636   3.492
 5277W        W 9341   4.616   0.942   0.668
 5278W        W 9342   7.610   8.797   3.303
 5279W        W 9343   1.676   5.735  11.511
 5280W        W 9344   4.857   4.381   9.587
 5281W        W 9345   5.548   7.426   0.761
 5282W        W 9346   7.807   8.026  10.947
 5283W        W 9347   3.205   5.547   8.927
 5284W        W 9348   3.924   6.152  11.355
 5285W        W 9349   9.278  10.465   1.830
 5286W        W 9350   6.998   0.792   2.450
 5287W        W 9351   5.227   7.032   2.666
 5288W        W 9352   0.471   6.861   1.447
 5289W        W 9353   2.921   3.237   3.464
 5290W        W 9354   0.831   2.333   2.636
 5291W        W 9355  10.006   4.115  11.354
 5292W        W 9356   0.049   6.070   8.410
 5293W        W 9357   5.071   7.075   3.534
 5294W        W 9358   9.738   2.892   2.910
 5295W        W 9359   7.406  10.013  11.490
 5296W        W 9360  10.427   3.094   0.752
 5297W        W 9361   9.422   9.494   1.037
 5298W        W 9362   4.628   8.117   0.899
 5299W        W 9363   8.885   9.959   0.507
 5300W        W 9364   4.293   0.412   9.893
 5301W        W 9365   8.468   5.400   9.534
 5302W        W 9366  10.414   2.126   9.089
 5303W        W 9367   2.571   9.670   2.266
 5304W        W 9368   5.268   7.399   1.188
 5305W        W 9369   1.737   6.169   0.759
 5306W        W 9370   9.518   0.500  10.959
 5307W        W 9371  10.037   8.859   1.868
 5308W        W 9372   9.704   0.832   9.433
 5309W        W 9373   9.292   5.951   2.810
 5310W        W 9374   5.217   8.308   1.941
 5311W        W 9375   2.154   0.424   9.363
 5312W        W 9376   4.010  10.237   1.376
 5313W        W 9377   0.329   0.288  10.255
 5314W        W 9378   4.061   4.991   1.310
 5315W        W 9379   3.191   0.869   0.444
 5316W        W 9380  10.056   2.418   8.823
 5317W        W 9381  10.296   5.147   3.380
 5318W        W 9382   9.067   3.224   0.406
 5319W        W 9383   6.972  10.440  10.952
 5320W        W 9384   4.058   4.459   1.346
 5321W        W 9385   6.054   9.011  11.358
 5322W        W 9386   1.966   4.244  10.405
 5323W        W 9387   7.568   1.446  11.639
 5324W        W 9388   2.901   9.833   0.466
 5325W        W 9389   7.664   5.225   2.660
 5326W        W 9390   0.960   8.477   8.815
 5327W        W 9391  10.303   4.530  11.356
 5328W        W 9392   0.761   4.518   1.352
 5329W        W 9393   3.049   0.971   9.691
 5330W        W 9394   1.195   8.910   8.989
 5331W        W 9395   7.490   3.812   2.431
 5332W        W 9396   5.221   5.833  11.360
 5333W        W 9397   4.352   7.087   2.860
 5334W        W 9398   7.470   3.730   3.525
 5335W        W 9399   0.186   3.192   3.246
 5336W        W 9400   7.446   7.004   1.987
 5337W        W 9401   2.694   6.502   3.214
 5338W        W 9402   5.150   2.601   2.862
 5339W        W 9403   2.368   6.872   0.612
 5340W        W 9404   9.026   6.918   3.060
 5341W        W 9405   8.360   0.884   0.486
 5342W        W 9406   5.361   6.517   1.203
 5343W        W 9407   2.267   7.551   2.220
 5344W        W 9408   5.031   9.473  11.236
 5345W        W 9409   9.836   0.722   3.379
 5346W        W 9410   9.359   2.870   1.179
 5347W        W 9411   0.796   7.431   9.968
 5348W        W 9412   5.194   4.714   8.736
 5349W        W 9413   6.437   1.408   8.973
 5350W        W 9414   1.501   2.774   1.244
 5351W        W 9415   9.386   8.551  10.376
 5352W        W 9416   0.649   6.466   0.021
 5353W        W 9417   1.352   8.443   9.171
 5354W        W 9418   7.582   7.042   1.190
 5355W        W 9419   4.252   6.773   4.253
 5356W        W 9420   0.490   0.357   1.433
 5357W        W 9421   8.176   8.029  10.583
 5358W        W 9422   4.139   6.152  11.900
 5359W        W 9423   7.952   5.880   9.063
 5360W        W 9424   9.962   7.854   1.786
 5361W        W 9425   5.611   8.941  10.662
 5362W        W 9426   7.823   1.414   1.987
 5363W        W 9427   0.069   0.222   2.956
 5364W        W 9428   1.274   3.665   1.540
 5365W        W 9429   8.406   7.001   0.723
 5366W        W 9430   1.274   7.064   9.497
 5367W        W 9431   4.100   5.363   8.878
 5368W        W 9432   6.147   3.543   2.248
 5369W        W 9433   9.845   2.733   1.966
 5370W        W 9434   6.537   6.186   0.850
 5371W        W 9435   9.415   4.729   9.270
 5372W        W 9436   1.563   1.307   0.552
 5373W        W 9437   9.470   5.633  11.277
 5374W        W 9438   0.762   2.989  10.537
 5375W        W 9439   2.424   5.603   3.242
 5376W        W 9440   0.642   9.388   2.397
 5377W        W 9441   2.421   0.364   9.801
 5378W        W 9442   9.966   1.867   1.286
 5379W        W 9443   2.246   7.292  11.896
 5380W        W 9444   6.941   3.772  11.846
 5381W        W 9445   4.593   8.318   3.205
 5382W        W 9446   5.606   9.841  10.888
 5383W        W 9447   8.337   6.599   9.005
 5384W        W 9448   8.815   9.906  10.218
 5385W        W 9449   4.537   9.068   1.153
 5386W        W 9450   3.196   9.181   1.020
 5387W        W 9451   3.698   8.071   8.936
 5388W        W 9452   5.943   3.575   3.546
 5389W        W 9453   8.381   0.060   0.878
 5390W        W 9454   2.011   9.396   0.361
 5391W        W 9455   4.730   1.498  11.005
 5392W        W 9456   2.337   9.188   2.265
 5393W        W 9457   6.588   4.814  10.910
 5394W        W 9458   0.238   7.415  11.048
 5395W        W 9459   9.251   1.894   0.493
 5396W        W 9460   4.174   0.461   1.753
 5397W        W 9461   2.263   4.396   8.572
 5398W        W 9462   4.124   3.553   2.296
 5399W        W 9463   7.392   6.468   8.453
 5400W        W 9464   2.922   0.376   9.842
 5401W        W 9465   4.722   7.209   9.027
 5402W        W 9466   0.783   3.120   9.492
 5403W        W 9467   0.037   1.165   0.340
 5404W        W 9468   7.493   5.682   9.145
 5405W        W 9469   1.277   1.921   0.831
 5406W        W 9470   5.162   8.958  10.449
 5407W        W 9471  10.414   0.061  10.914
 5408W        W 9472   3.158   7.708   2.250
 5409W        W 9473   2.866   6.173   9.334
 5410W        W 9474   7.092   6.959  10.864
 5411W        W 9475   0.349   5.024  10.768
 5412W        W 9476   3.763   1.270   0.863
 5413W        W 9477   9.082   0.267   0.825
 5414W        W 9478   7.926   3.351  10.207
 5415W        W 9479   8.152   2.738   9.050
 5416W        W 9480   9.876   9.779  10.623
 5417W        W 9481   4.294   8.785   8.272
 5418W        W 9482   6.282  10.309   9.845
 5419W        W 9483  10.325   4.742   9.296
 5420W        W 9484   3.194   6.262   0.290
 5421W        W 9485   5.037   3.836   1.882
 5422W        W 9486  10.211   5.747  11.722
 5423W        W 9487   3.323   5.263   2.252
 5424W        W 9488   1.241   6.572   9.679
 5425W        W 9489   1.688   7.846  10.896
 5426W        W 9490   7.271   7.188   9.981
 5427W        W 9491   5.748   1.778  10.753
 5428W        W 9492   3.045   3.264   9.981
 5429W        W 9493   7.302   6.093   9.930
 5430W        W 9494   6.431   1.209   0.856
 5431W        W 9495   7.554   0.219  11.872
 5432W        W 9496   1.960   9.381   2.820
 5433W        W 9497   8.794   6.980   3.506
 5434W        W 9498   0.443   6.876   2.966
 5435W        W 9499   6.181   0.135   9.438
 5436W        W 9500   1.927   7.572   9.541
 5437W        W 9501   7.148   4.548  10.465
 5438W        W 9502   5.229   2.656   2.360
 5439W        W 9503   5.694   3.899   9.143
 5440W        W 9504   4.297   9.964   8.915
 5441W        W 9505   3.398   7.426   1.847
 5442W        W 9506   5.661   0.284  11.450
 5443W        W 9507   1.256   7.077  10.040
 5444W        W 9508   7.466   8.272  11.912
 5445W        W 9509   2.897   1.051   2.432
 5446W        W 9510   0.067   7.533   0.194
 5447W        W 9511   5.043   7.570   3.475
 5448W        W 9512   1.256   3.711   9.557
 5449W        W 9513   4.689   4.730   2.450
 5450W        W 9514   4.218   9.370   0.872
 5451W        W 9515   3.167   1.450   9.593
 5452W        W 9516   3.198   7.078   3.574
 5453W        W 9517   1.157   5.394   1.841
 5454W        W 9518  10.027   7.039   9.573
 5455W        W 9519   9.778   7.797   8.456
 5456W        W 9520   7.559   8.184   9.908
 5457W        W 9521  10.053   6.432   3.204
 5458W        W 9522   6.531   0.249  11.430
 5459W        W 9523   2.015   4.785   9.046
 5460W        W 9524   5.643   0.907   1.681
 5461W        W 9525   2.423  10.478  10.546
 5462W        W 9526   0.150   9.800   2.335
 5463W        W 9527   2.616   4.279   2.803
 5464W        W 9528   6.106   8.809  11.840
 5465W        W 9529   4.697   6.034   1.530
 5466W        W 9530   7.534   4.259   2.817
 5467W        W 9531   5.273   3.590   0.945
 5468W        W 9532   4.595   5.927   3.788
 5469W        W 9533   9.994   9.596   3.685
 5470W        W 9534   3.430   1.828   1.363
 5471W        W 9535   4.424   5.681   1.276
 5472W        W 9536   7.689   9.971   9.599
 5473W        W 9537   6.039   9.476  10.486
 5474W        W 9538   8.335   7.037   8.656
 5475W        W 9539   8.482   8.031   2.695
 5476W        W 9540   2.871   7.584   1.829
 5477W        W 9541   1.881   1.352   3.714
 5478W        W 9542   3.612   9.186   0.279
 5479W        W 9543   1.411   7.093   1.002
 5480W        W 9544   1.692   0.206   9.373
 5481W        W 9545   6.739   6.579  10.789
 5482W        W 9546   5.671   9.850   9.333
 5483W        W 9547   0.343   0.954   9.512
 5484W        W 9548  10.457   6.170   0.973
 5485W        W 9549   5.065   6.155  10.575
 5486W        W 9550   0.108   9.187  11.335
 5487W        W 9551   7.080   7.149   1.384
 5488W        W 9552   4.997  10.412   8.801
 5489W        W 9553   3.751   6.196   9.181
 5490W        W 9554   3.336   0.471   1.165
 5491W        W 9555   4.811   2.915  10.991
 5492W        W 9556   2.742   3.233  11.266
 5493W        W 9557   6.490   9.930   2.984
 5494W        W 9558   4.248   9.546  11.380
 5495W        W 9559   0.717   9.130   0.643
 5496W        W 9560   9.086   2.295   8.336
 5497W        W 9561   9.959   6.637   9.908
 5498W        W 9562   5.157  10.006  11.111
 5499W        W 9563   7.051   2.659   2.791
 5500W        W 9564   3.799   2.937   9.671
 5501W        W 9565   3.219   2.368  11.283
 5502W        W 9566   6.564   3.811   8.886
 5503W        W 9567   1.035   7.899  11.898
 5504W        W 9568  10.338   3.111  10.127
 5505W        W 9569   3.111   2.793   2.251
 5506W        W 9570   0.459   5.626   2.376
 5507W        W 9571   7.742   1.551   1.066
 5508W        W 9572   1.137   9.733   9.742
 5509W        W 9573   2.166   6.116   9.935
 5510W        W 9574   9.287   6.500   8.741
 5511W        W 9575   0.084   5.971   3.409
 5512W        W 9576   8.063   6.448   0.445
 5513W        W 9577   7.536   1.924   1.348
 5514W        W 9578   9.840   3.377   3.015
 5515W        W 9579   5.469   2.958   8.860
 5516W        W 9580   6.049   6.599   1.862
 5517W        W 9581   6.168   0.860   3.036
 5518W        W 9582   7.592   1.581   9.715
 5519W        W 9583   0.428   6.483  11.262
 5520W        W 9584   6.292   6.147   0.337
 5521W        W 9585   3.801   3.173   2.358
 5522W        W 9586   2.840   0.453   1.307
 5523W        W 9587   3.732   9.521  11.306
 5524W        W 9588   0.740   3.644   3.694
 5525W        W 9589   7.885   6.708   1.846
 5526W        W 9590   9.231   2.784   9.133
 5527W        W 9591   1.280   0.983   9.519
 5528W        W 9592   1.378   1.476   9.534
 5529W        W 9593   1.851   3.791  11.259
 5530W        W 9594   9.068   5.285  11.421
 5531W        W 9595   4.230   8.018   0.155
 5532W        W 9596   5.077   4.100   2.797
 5533W        W 9597   3.744   3.298   9.293
 5534W        W 9598   6.078   3.258   0.186
 5535W        W 9599   3.535   8.017   2.410
 5536W        W 9600   3.326   0.691  10.634
 5537W        W 9601   0.123   7.071   0.888
 5538W        W 9602   4.501   7.598   0.042
 5539W        W 9603   1.883   0.816  10.421
 5540W        W 9604   7.486   5.562   4.116
 5541W        W 9605   1.788   6.661   0.595
 5542W        W 9606   3.945   5.533   1.135
 5543W        W 9607   8.630   8.815   2.263
 5544W        W 9608   5.057   4.890  11.481
 5545W        W 9609   9.078   5.758  11.590
 5546W        W 9610   5.253   6.423   9.973
 5547W        W 9611   5.729   6.422   0.881
 5548W        W 9612   2.403  10.415   3.481
 5549W        W 9613   2.483   0.869  10.933
 5550W        W 9614   1.037   5.676  10.451
 5551W        W 9615   7.133   2.238   2.010
 5552W        W 9616   3.987   0.312  10.939
 5553W        W 9617   7.441   6.276   2.464
 5554W        W 9618   2.290   1.932   9.291
 5555W        W 9619   5.932   7.620   3.538
 5556W        W 9620   4.411  10.342   0.505
 5557W        W 9621   4.120   6.637   8.624
 5558W        W 9622   5.744   2.527  11.828
 5559W        W 9623   6.963   7.147   9.529
 5560W        W 9624   7.409   2.248  10.743
 5561W        W 9625   6.440   5.673   0.140
 5562W        W 9626   3.373   9.630   8.517
 5563W        W 9627   2.173   5.919   0.874
 5564W        W 9628   5.991   2.815   0.432
 5565W        W 9629   6.520   2.461   8.573
 5566W        W 9630   0.824   2.798   2.373
 5567W        W 9631   2.083   8.457   0.711
 5568W        W 9632   4.215   6.108   0.431
 5569W        W 9633   5.719   1.272  10.924
 5570W        W 9634   6.401   9.122   0.917
 5571W        W 9635   0.065   6.446   3.102
 5572W        W 9636   5.162   1.832   8.816
 5573W        W 9637   5.903   0.957   0.436
 5574W        W 9638   2.072   9.995   3.488
 5575W        W 9639   4.672   9.424  10.571
 5576W        W 9640   7.056   8.578   1.269
 5577W        W 9641   1.687   8.512   9.528
 5578W        W 9642   8.059   7.865   2.968
 5579W        W 9643   6.108   0.490  11.126
 5580W        W 9644   1.166   0.426   0.181
 5581W        W 9645   1.511   4.259   0.251
 5582W        W 9646   9.424   4.536   3.660
 5583W        W 9647   3.149   3.627   9.567
 5584W        W 9648   8.904   8.812  11.556
 5585W        W 9649   9.777   7.429   0.693
 5586W        W 9650   3.283   1.570  10.872
 5587W        W 9651   7.398   1.633   0.465
 5588W        W 9652   5.920   8.027   2.353
 5589W        W 9653   6.986   2.780   9.744
 5590W        W 9654   2.678   2.855   0.954
 5591W        W 9655   3.037   9.796   3.179
 5592W        W 9656   9.590   7.210   2.531
 5593W        W 9657   8.201   6.253   3.535
 5594W        W 9658   4.710   0.336  11.955
 5595W        W 9659   0.257   5.425   1.360
 5596W        W 9660   5.967   7.970   1.399
 5597W        W 9661   6.572   3.649  11.032
 5598W        W 9662   7.127   1.364   3.158
 5599W        W 9663   9.988   7.052   2.871
 5600W        W 9664   9.825   0.973  11.211
 5601W        W 9665   5.229   3.157   9.389
 5602W        W 9666   9.303   6.037   8.988
 5603W        W 9667   1.321   9.961   1.902
 5604W        W 9668   6.970   8.109  11.834
 5605W        W 9669   3.133   6.666   0.554
 5606W        W 9670   7.288  10.413  10.044
 5607W        W 9671   7.516   2.378   1.142
 5608W        W 9672   6.589   2.107  10.013
 5609W        W 9673   9.465   1.055   0.930
 5610W        W 9674   2.247   9.136  10.103
 5611W        W 9675   8.081   1.412  11.857
 5612W        W 9676   5.647   3.405   2.360
 5613W        W 9677   3.810   5.952   9.619
 5614W        W 9678  10.450   1.952   0.047
 5615W        W 9679   4.145   1.305   2.229
 5616W        W 9680   4.685   9.288   1.976
 5617W        W 9681   7.858   5.608   0.194
 5618W        W 9682   5.553   8.918   2.503
 5619W        W 9683   0.792   5.182  10.988
 5620W        W 9684   8.987   4.579   0.772
 5621W        W 9685   5.260  10.005   9.085
 5622W        W 9686   0.218   6.949   0.369
 5623W        W 9687   8.011   4.516   9.050
 5624W        W 9688   0.235   2.807   2.360
 5625W        W 9689   7.459   3.133  10.246
 5626W        W 9690   1.432   9.236   3.856
 5627W        W 9691   2.261  10.044  10.922
 5628W        W 9692   8.884   8.825   1.361
 5629W        W 9693   6.574   7.857   2.822
 5630W        W 9694   0.933   8.632   0.127
 5631W        W 9695   4.181   6.109   1.475
 5632W        W 9696   6.558   8.655   0.006
 5633W        W 9697   2.423   1.730   0.188
 5634W        W 9698   0.176   9.932   8.870
 5635W        W 9699   7.548   8.053   2.225
 5636W        W 9700   2.283   5.106   1.994
 5637W        W 9701   2.719   3.570  10.278
 5638W        W 9702   5.287   2.642   1.181
 5639W        W 9703   5.939   9.007   1.187
 5640W        W 9704   7.918   3.238   3.506
 5641W        W 9705   4.686   7.936  11.695
 5642W        W 9706   1.960   8.912   0.203
 5643W        W 9707  10.485   0.243   9.392
 5644W        W 9708   4.994   4.460  10.099
 5645W        W 9709   0.433  10.349   2.931
 5646W        W 9710   4.584   2.860   3.489
 5647W        W 9711   7.263   3.192   1.548
 5648W        W 9712   8.441   8.079   9.791
 5649W        W 9713   1.565   8.551  11.296
 5650W        W 9714   0.867   7.984   1.228
 5651W        W 9715   8.157   3.663   1.228
 5652W        W 9716   1.905   7.860   1.969
 5653W        W 9717   2.866   9.413   1.386
 5654W        W 9718   8.497   2.442   1.256
 5655W        W 9719   1.833   1.176   9.748
 5656W        W 9720   3.323   5.037   1.780
 5657W        W 9721   7.073   5.974   9.073
 5658W        W 9722   0.117   5.396  10.507
 5659W        W 9723   6.081  10.276   1.703
 5660W        W 9724   4.083   2.909  11.378
 5661W        W 9725   6.433   9.284   9.378
 5662W        W 9726   6.924   8.953  11.295
 5663W        W 9727   3.481   2.205   1.014
 5664W        W 9728   3.340   6.737  11.746
 5665W        W 9729   0.596   4.982  11.418
 5666W        W 9730  10.368   5.429  11.357
 5667W        W 9731   5.544   4.120   1.842
 5668W        W 9732   0.912   2.322   3.135
 5669W        W 9733   5.206   7.003   9.085
 5670W        W 9734   3.254   5.151   9.282
 5671W        W 9735   0.494   8.298   8.920
 5672W        W 9736   0.995   7.374   0.767
 5673W        W 9737   1.012   2.126   0.226
 5674W        W 9738   7.846   6.647  11.997
 5675W        W 9739   9.370   0.613   3.133
 5676W        W 9740   4.583   4.525   3.928
 5677W        W 9741   6.423   0.156  11.959
 5678W        W 9742  10.489   3.927   0.152
 5679W        W 9743   6.090   9.306  10.006
 5680W        W 9744   4.562   5.307   9.698
 5681W        W 9745   8.535   5.890   9.544
 5682W        W 9746   9.909   8.292  11.996
 5683W        W 9747   5.641   1.811   8.985
 5684W        W 9748   1.244   0.316  11.034
 5685W        W 9749   3.227   8.377   8.896
 5686W        W 9750   9.467   7.831  10.977
 5687W        W 9751   9.915   9.823   1.684
 5688W        W 9752   5.703   3.477  10.348
 5689W        W 9753   7.401   3.079   8.835
 5690W        W 9754   1.839   7.901   0.462
 5691W        W 9755   1.375   3.838   1.051
 5692W        W 9756   5.140   8.640   0.635
 5693W        W 9757   0.747   0.886  11.548
 5694W        W 9758   1.408   0.234   9.886
 5695W        W 9759   8.147   5.910   1.376
 5696W        W 9760   9.500   5.705   1.224
 5697W        W 9761   0.873   5.433  10.014
 5698W        W 9762   3.668   5.902   3.631
 5699W        W 9763   3.490  10.313   9.379
 5700W        W 9764   7.703   1.820   8.713
 5701W        W 9765   1.302   4.959  10.959
 5702W        W 9766   7.729   6.354   9.782
 5703W        W 9767   5.081   3.640   1.405
 5704W        W 9768   1.209  10.260   1.393
 5705W        W 9769   6.603   3.262   3.281
 5706W        W 9770   0.860   4.006   9.447
 5707W        W 9771   1.280   7.835  10.587
 5708W        W 9772   3.403   7.547   2.693
 5709W        W 9773   2.806   4.076  10.202
 5710W        W 9774   1.665   2.804  11.506
 5711W        W 9775   0.851   6.470  11.562
 5712W        W 9776   5.448   8.435   3.176
 5713W        W 9777   2.156   3.265   1.776
 5714W        W 9778   5.990   5.447  11.988
 5715W        W 9779   7.655   0.106   0.764
 5716W        W 9780   2.120   9.313   9.620
 5717W        W 9781   7.664   1.218   0.663
 5718W        W 9782   3.710   3.626   1.661
 5719W        W 9783   7.106  10.466   3.145
 5720W        W 9784   5.683   0.784  11.140
 5721W        W 9785   7.988   2.622   0.250
 5722W        W 9786   3.328   0.729  11.465
 5723W        W 9787   8.783   2.314   9.856
 5724W        W 9788   2.761   1.480   9.906
 5725W        W 9789   6.935   4.966  10.265
 5726W        W 9790   4.424   5.160   3.631
 5727W        W 9791   1.241   9.284   1.260
 5728W        W 9792   2.402   5.666   9.959
 5729W        W 9793   3.217   3.306   9.122
 5730W        W 9794   9.118   3.308   1.882
 5731W        W 9795   5.498   3.720   0.512
 5732W        W 9796   0.194   9.565  11.949
 5733W        W 9797   5.100   3.149   1.170
 5734W        W 9798   5.659   6.486   3.132
 5735W        W 9799  10.310   7.190  10.846
 5736W        W 9800   9.865   9.052   1.435
 5737W        W 9801   6.880   9.926   2.606
 5738W        W 9802   4.606   2.383   0.699
 5739W        W 9803   1.348   0.875   0.357
 5740W        W 9804   6.148   0.066  10.773
 5741W        W 9805   3.762   5.012   2.143
 5742W        W 9806   1.249   1.014   3.090
 5743W        W 9807   3.882   0.895  11.186
 5744W        W 9808   7.416   9.558   9.765
 5745W        W 9809   7.034   8.145  11.308
 5746W        W 9810  10.070  10.453   2.896
 5747W        W 9811   1.844   1.678   9.601
 5748W        W 9812   4.739  10.456   9.670
 5749W        W 9813   6.244   9.944   8.776
 5750W        W 9814   2.849   7.585   9.290
 5751W        W 9815   2.415   6.118  11.462
 5752W        W 9816   7.600   5.388   2.137
 5753W        W 9817   4.554   3.107   1.828
 5754W        W 9818   8.951   0.484   9.140
 5755W        W 9819   8.354   2.260  10.264
 5756W        W 9820   9.159  10.316   1.315
 5757W        W 9821   6.974   6.090  10.819
 5758W        W 9822   4.438   7.741   1.233
 5759W        W 9823   9.424   2.225   3.386
 5760W        W 9824   4.161   7.004   3.333
 5761W        W 9825   4.588   8.811   2.149
 5762W        W 9826   2.163   2.395   9.550
 5763W        W 9827   4.677   8.389  11.448
 5764W        W 9828   4.533   5.479   9.228
 5765W        W 9829   5.183   0.956  10.933
 5766W        W 9830   9.435   4.938   2.937
 5767W        W 9831  10.287   2.881   3.610
 5768W        W 9832   4.626   0.437   1.527
 5769W        W 9833   3.424   5.591   8.132
 5770W        W 9834   8.609   0.975   0.918
 5771W        W 9835   1.474   9.294   8.760
 5772W        W 9836   2.219   6.412   0.781
 5773W        W 9837   2.909   4.800   0.870
 5774W        W 9838   8.096   8.529   1.120
 5775W        W 9839   8.854   7.409  10.242
 5776W        W 9840   0.973  10.202  10.556
 5777W        W 9841   7.349   4.119   1.023
 5778W        W 9842   1.157   6.523  11.998
 5779W        W 9843   2.485   9.604  10.768
 5780W        W 9844   7.104   9.953  10.244
 5781W        W 9845   3.107   7.948   9.538
 5782W        W 9846   0.425   5.209   9.384
 5783W        W 9847   9.103   7.933   3.326
 5784W        W 9848   0.306   8.608  11.916
 5785W        W 9849   7.548   5.542   3.606
 5786W        W 9850   0.531   8.573  10.601
 5787W        W 9851   8.370   9.458   1.945
 5788W        W 9852   8.937   6.610  11.484
 5789W        W 9853   0.871   2.169   9.014
 5790W        W 9854   7.444   6.486   2.001
 5791W        W 9855   4.540   4.140   1.305
 5792W        W 9856   0.458   4.559  10.533
 5793W        W 9857   3.709   0.806   2.753
 5794W        W 9858   5.522   3.314  10.844
 5795W        W 9859   2.500   1.735  11.336
 5796W        W 9860   2.373   0.322   1.918
 5797W        W 9861   3.177   5.271   3.239
 5798W        W 9862   4.235  10.207  11.724
 5799W        W 9863   0.438   4.636   3.435
 5800W        W 9864   9.149   6.639  10.574
 5801W        W 9865  10.271   7.200   0.473
 5802W        W 9866   0.726   6.068   9.834
 5803W        W 9867   0.193   8.138   0.089
 5804W        W 9868   2.128   2.104   0.022
 5805W        W 9869   3.664   5.035   4.217
 5806W        W 9870   4.634   5.734   2.438
 5807W        W 9871   7.524   2.641   0.004
 5808W        W 9872   9.011   9.512  10.475
 5809W        W 9873  10.014  10.277  11.062
 5810W        W 9874   3.350   8.382   0.610
 5811W        W 9875   0.955  10.399   0.971
 5812W        W 9876   8.445   1.772  10.401
 5813W        W 9877   3.153   4.797   0.381
 5814W        W 9878   5.649   2.311   2.886
 5815W        W 9879   0.500   1.118  10.506
 5816W        W 9880   3.651   8.157   3.378
 5817W        W 9881   9.357   9.429   0.068
 5818W        W 9882   1.687   3.784  10.275
 5819W        W 9883   6.214   7.680  11.131
 5820W        W 9884   2.600  10.380   1.346
 5821W        W 9885   9.095   9.873   0.967
 5822W        W 9886   0.672   8.234  11.962
 5823W        W 9887   9.982   4.618  11.786
 5824W        W 9888   1.480   3.466   2.524
 5825W        W 9889   3.798   9.326   2.677
 5826W        W 9890   3.073   9.603   9.884
 5827W        W 9891   0.397   3.904   9.626
 5828W        W 9892   1.313   3.738   9.046
 5829W        W 9893   0.875   8.580   1.403
 5830W        W 9894   4.068   7.507   8.945
 5831W        W 9895   3.335   0.466   0.158
 5832W        W 9896   9.444   9.997   1.770
 5833W        W 9897   2.320   5.979   0.368
 5834W        W 9898   3.817   0.422  11.953
 5835W        W 9899   1.088   9.933   3.510
 5836W        W 9900   9.509   3.447  11.017
 5837W        W 9901   2.118   4.350   2.792
 5838W        W 9902   5.020   7.120   8.614
 5839W        W 9903   4.226   1.799   9.828
 5840W        W 9904   0.493  10.294   0.789
 5841W        W 9905   2.676   5.952  10.791
 5842W        W 9906   0.792   0.313   9.979
 5843W        W 9907   6.564   1.647  11.831
 5844W        W 9908   4.559   5.071   3.076
 5845W        W 9909   3.934   5.041   3.750
 5846W        W 9910   1.946   4.699   1.988
 5847W        W 9911   1.858   7.038   8.883
 5848W        W 9912   8.281   2.353   9.772
 5849W        W 9913   4.656   5.013  11.761
 5850W        W 9914   5.079   4.982  10.109
 5851W        W 9915   0.216   7.033   1.851
 5852W        W 9916  10.295   0.067   2.096
 5853W        W 9917   6.792   6.990   9.982
 5854W        W 9918   1.051   3.975  10.428
 5855W        W 9919   6.959   4.550   1.989
 5856W        W 9920   5.962   6.450   2.719
 5857W        W 9921   1.966   9.766   9.438
 5858W        W 9922   3.062  10.008  11.976
 5859W        W 9923   2.577   6.604  11.567
 5860W        W 9924   4.723   0.730  11.625
 5861W        W 9925   7.140   1.707   9.977
 5862W        W 9926   2.617  10.281   1.856
 5863W        W 9927  10.045   9.586   2.874
 5864W        W 9928   2.138   2.311   2.298
 5865W        W 9929   1.299   3.114  11.351
 5866W        W 9930   3.759   9.325   9.474
 5867W        W 9931   0.508  10.482  11.868
 5868W        W 9932   0.964   3.361  11.632
 5869W        W 9933  10.297   7.929   9.757
 5870W        W 9934   6.114   6.643   9.468
 5871W        W 9935   0.487   5.731  10.179
 5872W        W 9936   6.698   5.040   4.069
 5873W        W 9937   7.845   3.107   0.195
 5874W        W 9938   3.768   7.143   0.355
 5875W        W 9939   6.481   4.087  10.209
 5876W        W 9940   7.663   8.335   3.522
 5877W        W 9941   6.628   2.609  10.052
 5878W        W 9942   5.997   5.709   1.231
 5879W        W 9943   4.137   4.266   1.805
 5880W        W 9944  10.463  10.405  10.379
 5881W        W 9945   5.545   9.588  11.946
 5882W        W 9946   5.513   0.228   3.201
 5883W        W 9947   6.441   4.037  11.379
 5884W        W 9948   9.463   1.283   2.307
 5885W        W 9949   8.327   5.744  10.866
 5886W        W 9950   5.726   2.145   3.399
 5887W        W 9951   3.093   9.370   1.852
 5888W        W 9952   5.036   5.033   2.881
 5889W        W 9953   2.524   2.758   9.398
 5890W        W 9954   0.331   3.031   9.822
 5891W        W 9955   4.110   3.880  11.294
 5892W        W 9956   1.282   9.000   2.522
 5893W        W 9957   1.970   0.461   3.557
 5894W        W 9958   7.841   8.375   3.025
 5895W        W 9959   6.499   7.279   1.757
 5896W        W 9960   7.271   0.844   9.979
 5897W        W 9961   1.323   8.148   3.523
 5898W        W 9962   6.603   5.701   3.852
 5899W        W 9963   2.317   5.199  10.214
 5900W        W 9964   5.028   3.400   8.064
 5901W        W 9965   1.140   4.317   1.010
 5902W        W 9966   1.582   4.977   9.933
 5903W        W 9967   8.638   1.534   3.468
 5904W        W 9968   3.515   3.124   1.914
 5905W        W 9969   2.186   5.241   3.549
 5906W        W 9970   5.550   2.634   3.304
 5907W        W 9971   7.255   6.207   0.440
 5908W        W 9972   5.230   1.347  11.677
 5909W        W 9973   9.115   7.037   0.689
 5910W        W 9974   2.296   2.800   9.893
 5911W        W 9975  10.031   4.026  10.516
 5912W        W 9976  10.081   1.331  10.213
 5913W        W 9977   7.710   9.466   2.654
 5914W        W 9978   0.867   1.631  10.289
 5915W        W 9979   3.767   8.469  11.027
 5916W        W 9980   3.084   0.026  11.996
 5917W        W 9981   1.991   9.352   1.012
 5918W        W 9982   5.371   6.928   3.145
 5919W        W 9983   9.720  10.414   0.441
 5920W        W 9984   4.310   2.439  10.316
 5921W        W 9985   7.708   8.019   0.289
 5922W        W 9986   4.705   1.388   1.507
 5923W        W 9987   6.583   9.701  11.984
 5924W        W 9988   3.272   5.765   2.306
 5925W        W 9989   6.025   4.305   9.977
 5926W        W 9990   5.005   1.315   9.208
 5927W        W 9991   6.957   9.495  10.534
 5928W        W 9992   0.609   6.618   0.497
 5929W        W 9993   8.910  10.364   9.046
 5930W        W 9994   9.138   7.016   9.847
 5931W        W 9995   9.361   5.155   0.755
 5932W        W 9996   9.895   7.546   9.851
 5933W        W 9997   9.657   0.403   2.399
 5934W        W 9998   2.323   9.775   1.044
 5935W        W 9999   8.184   3.138   2.005
 5936W        W10000   3.324   1.276   2.257
 5937W        W10001   6.040   1.802   2.959
 5938W        W10002   6.078   7.377  10.335
 5939W        W10003   2.428   9.471   2.695
 5940W        W10004   7.239   1.210   9.613
 5941W        W10005   2.696   1.983  10.029
 5942W        W10006   8.640   9.512  10.836
 5943W        W10007   9.367   7.015   2.076
 5944W        W10008   5.731   6.079   2.457
 5945W        W10009   3.924   1.361  11.395
 5946W        W10010   3.245   4.318   1.291
 5947W        W10011   4.534   4.059   9.835
 5948W        W10012   5.207   5.621   3.138
 5949W        W10013   7.937   3.559   2.625
 5950W        W10014   2.785   3.365  10.746
 5951W        W10015   4.803   9.924   8.889
 5952W        W10016   1.880  10.304   8.725
 5953W        W10017   7.405   5.005   9.988
 5954W        W10018   1.908   2.341   0.470
 5955W        W10019   1.086   5.554   1.100
 5956W        W10020  10.273   8.037   1.390
 5957W        W10021   0.832   8.100  11.465
 5958W        W10022   1.030   0.161   8.594
 5959W        W10023   5.433   7.568   4.220
 5960W        W10024   0.011   5.865   2.474
 5961W        W10025   5.431   0.352   9.384
 5962W        W10026  10.453   7.015   9.255
 5963W        W10027   4.600   7.410  11.602
 5964W        W10028   1.316   2.362   9.190
 5965W        W10029   6.996   7.691  11.551
 5966W        W10030   5.286   2.161  10.084
 5967W        W10031   5.476   3.995  11.680
 5968W        W10032   3.305   5.543   3.659
 5969W        W10033   1.786   7.580   3.125
 5970W        W10034   9.043   1.527   2.194
 5971W        W10035   4.381   4.525   9.501
 5972W        W10036   6.589   2.112   0.040
 5973W        W10037   4.643  10.473  11.586
 5974W        W10038   3.187   7.062   9.982
 5975W        W10039   4.645   4.414   8.426
 5976W        W10040   3.235   9.922   2.722
 5977W        W10041   3.372   3.474   3.406
 5978W        W10042   5.762   5.571   8.578
 5979W        W10043   6.057  10.072  11.063
 5980W        W10044   2.550   9.430   1.814
 5981W        W10045   2.933   6.064   3.125
 5982W        W10046  10.001   9.732   0.811
 5983W        W10047   9.784   1.642   3.075
 5984W        W10048   5.572   4.378   8.472
 5985W        W10049   2.545   9.167  10.504
 5986W        W10050   1.261  10.332   0.535
 5987W        W10051   9.192   0.848   2.361
 5988W        W10052   5.085   8.169   0.428
 5989W        W10053  10.215   8.887   9.138
 5990W        W10054   9.438   1.423   2.784
 5991W        W10055  10.037   1.761   9.047
 5992W        W10056   2.518   8.233   0.842
 5993W        W10057   8.470   1.073  10.519
 5994W        W10058   3.712   7.096   1.021
 5995W        W10059   6.614   6.592  10.260
 5996W        W10060   3.034   2.688   9.327
 5997W        W10061   8.902   6.103   3.235
 5998W        W10062   8.752   3.871   3.731
 5999W        W10063   9.128  10.248  11.028
 6000W        W10064   9.806   8.880   3.282
 6001W        W10065   5.699   4.757   9.002
 6002W        W10066   0.286   2.228   1.271
 6003W        W10067   2.656   3.854  10.739
 6004W        W10068  10.258   2.646   1.505
 6005W        W10069   3.376   8.474   2.616
 6006W        W10070   5.487   2.272   8.803
 6007W        W10071   3.706   4.129   3.517
 6008W        W10072   5.613   4.901   8.506
 6009W        W10073   3.381   7.530   9.727
 6010W        W10074   4.670   8.129   1.439
 6011W        W10075   9.011   1.682   2.681
 6012W        W10076   9.505   9.937   1.266
 6013W        W10077   8.692   2.713   9.076
 6014W        W10078   2.629   3.061  10.336
 6015W        W10079   2.277   3.843  10.318
 6016W        W10080   0.639   7.600  10.547
 6017W        W10081   6.696   1.665  11.296
 6018W        W10082   8.560   8.854   0.002
 6019W        W10083   2.267   9.867   1.906
 6020W        W10084   6.351   0.484   9.034
 6021W        W10085   7.352   5.698   0.227
 6022W        W10086   9.855   9.223   8.915
 6023W        W10087   6.709   7.853   3.354
 6024W        W10088   1.847   6.535   1.120
 6025W        W10089   8.068   9.452   1.095
 6026W        W10090   7.402   5.610   0.721
 6027W        W10091   0.285   4.741   9.556
 6028W        W10092   1.648   1.987   0.182
 6029W        W10093   2.224  10.296  11.949
 6030W        W10094   5.702   1.590   0.274
 6031W        W10095   0.776   1.256   9.348
 6032W        W10096   2.638   5.489   9.521
 6033W        W10097   2.796   4.270   3.297
 6034W        W10098   8.922  10.440   2.741
 6035W        W10099   1.826   3.696   8.931
 6036W        W10100   7.923  10.371   9.359
 6037W        W10101   5.214   1.892   1.692
 6038W        W10102   6.604   3.068  11.729
 6039W        W10103   6.386   3.290  10.713
 6040W        W10104   8.132   5.732  11.770
 6041W        W10105   8.951   5.310  11.966
 6042W        W10106   1.858   1.267   8.773
 6043W        W10107   8.798   0.174   1.250
 6044W        W10108   3.317   8.153   1.114
 6045W        W10109   0.689   9.825   8.901
 6046W        W10110   4.230   7.565   3.050
 6047W        W10111   5.514   4.998   9.422
 6048W        W10112   2.408   9.971   0.589
 6049W        W10113   1.780   5.706   2.837
 6050W        W10114   6.517  10.464   1.127
 6051W        W10115   5.072   0.793  10.461
 6052W        W10116   6.036   2.247  10.772
 6053W        W10117   8.160   9.664   2.404
 6054W        W10118   7.286   7.947   1.797
 6055W        W10119   4.191   1.463   3.201
 6056W        W10120   4.113   2.625   2.189
 6057W        W10121   0.264   9.627  11.011
 6058W        W10122   6.929   1.332   1.671
 6059W        W10123   5.161   9.287   1.831
 6060W        W10124   8.192   2.443   0.845
 6061W        W10125   3.796   0.887  10.690
 6062W        W10126   6.002   7.217   2.497
 6063W        W10127   3.324   5.795   0.446
 6064W        W10128   6.932   8.846   9.473
 6065W        W10129   7.618   7.612  10.539
 6066W        W10130   3.482   5.503   0.854
 6067W        W10131   2.028   5.357  11.729
 6068W        W10132   8.560   0.711   0.055
 6069W        W10133   0.383   2.382   0.787
 6070W        W10134   9.783   7.875   9.033
 6071W        W10135   1.819   2.688   0.861
 6072W        W10136   7.888  10.336  10.974
 6073W        W10137   9.153   0.329  10.479
 6074W        W10138   5.852   8.435   8.421
 6075W        W10139   5.111   5.168  11.982
 6076W        W10140   4.693   7.373   1.805
 6077W        W10141   4.315   4.693   2.787
 6078W        W10142   0.986   5.582   2.414
 6079W        W10143   6.128   0.472  11.644
 6080W        W10144   7.935   5.226  11.847
 6081W        W10145   7.152   1.703   9.454
 6082W        W10146   5.701   7.540   9.561
 6083W        W10147   9.297   8.762   9.395
 6084W        W10148   7.595   4.980   1.103
 6085W        W10149   8.826   0.712  10.322
 6086W        W10150   1.738   1.784   0.650
 6087W        W10151   1.681   0.809   1.578
 6088W        W10152   1.202   5.188   3.514
 6089W        W10153  10.225   2.753   2.360
 6090W        W10154   0.011   8.921   1.654
 6091W        W10155   5.684   1.692  11.249
 6092W        W10156   8.078   1.289   0.355
 6093W        W10157   2.186  10.459   9.579
 6094W        W10158   2.648   6.367  11.093
 6095W        W10159   4.168   9.434   3.226
 6096W        W10160   8.850   5.085   0.832
 6097W        W10161   9.514   9.060   0.818
 6098W        W10162   9.297   9.828  10.074
 6099W        W10163   2.870   3.149   9.485
 6100W        W10164   3.120   6.219  10.040
 6101W        W10165   6.656   3.232   2.224
 6102W        W10166   7.012   6.968   3.180
 6103W        W10167   8.683   2.383  11.120
 6104W        W10168   3.145   4.398  11.430
 6105W        W10169   4.186   0.035   9.537
 6106W        W10170   6.645   7.585   9.555
 6107W        W10171   2.447   1.643  10.288
 6108W        W10172   0.242   5.714  11.541
 6109W        W10173   8.412   7.767  11.475
 6110W        W10174   0.214   1.790  11.166
 6111W        W10175   4.552   9.487   9.025
 6112W        W10176   3.535   2.813   9.233
 6113W        W10177   0.074   1.353  10.343
 6114W        W10178   7.620   0.637   0.814
 6115W        W10179   2.185   8.152  10.173
 6116W        W10180   8.987   1.219  10.260
 6117W        W10181   3.838   8.036  11.359
 6118W        W10182   8.996   5.518   0.484
 6119W        W10183   6.489   4.405   8.443
 6120W        W10184   7.939   2.821  11.766
 6121W        W10185   6.394   0.978   0.400
 6122W        W10186   7.098   5.486   3.350
 6123W        W10187   3.464   5.029   0.020
 6124W        W10188   4.644   0.234   3.427
 6125W        W10189   1.585  10.123   3.687
 6126W        W10190   3.620   3.146   8.814
 6127W        W10191   2.854   4.641   2.542
 6128W        W10192   7.107   4.057   2.083
 6129W        W10193   9.838   7.482   3.116
 6130W        W10194   2.677   5.013   0.446
 6131W        W10195   8.886   7.700   9.222
 6132W        W10196   6.868   1.223   9.978
 6133W        W10197   5.888   8.136   0.442
 6134W        W10198   7.125   4.828   3.870
 6135W        W10199   4.565  10.499   1.009
 6136W        W10200   8.540   4.053  11.344
 6137W        W10201   3.171   5.691  11.237
 6138W        W10202   5.632   2.652   1.892
 6139W        W10203   6.409   8.808   9.564
 6140W        W10204   2.569   2.018   2.213
 6141W        W10205   3.371   9.797   1.837
 6142W        W10206   0.509   7.491   8.463
 6143W        W10207   5.626   8.315   1.174
 6144W        W10208   2.482   4.827   9.893
 6145W        W10209   0.247   4.354  11.967
 6146W        W10210   3.712   0.868   1.204
 6147W        W10211   0.404   3.823   9.132
 6148W        W10212   5.913   9.541   2.480
 6149W        W10213   1.710   3.822   1.798
 6150W        W10214   4.782   6.269   2.431
 6151W        W10215   1.778   8.077   3.304
 6152W        W10216   1.731   3.897   9.399
 6153W        W10217   4.726   0.766  11.096
 6154W        W10218   9.913   8.489  11.514
 6155W        W10219   0.406   6.172   2.479
 6156W        W10220   2.342   1.734   9.751
 6157W        W10221   8.009   5.082   2.129
 6158W        W10222   5.492  10.320  10.213
 6159W        W10223   3.244   2.303   2.608
 6160W        W10224   1.783   3.523   3.384
 6161W        W10225   5.131   9.551   0.272
 6162W        W10226   5.998   1.294   2.784
 6163W        W10227   8.991   2.030   2.306
 6164W        W10228   9.151   5.076   1.821
 6165W        W10229   0.714   7.191   1.782
 6166W        W10230   2.269   4.166   0.882
 6167W        W10231   7.132   1.247   0.711
 6168W        W10232   7.598   2.849   0.960
 6169W        W10233   6.782   6.961   2.712
 6170W        W10234   9.474   8.375   2.478
 6171W        W10235   1.225   2.817   9.458
 6172W        W10236   2.213   9.320  11.886
 6173W        W10237   7.484   5.644  10.856
 6174W        W10238   0.390   0.863   0.929
 6175W        W10239   5.604   4.290   2.603
 6176W        W10240   1.425   3.398   0.309
 6177W        W10241   8.895   9.473   1.787
 6178W        W10242   4.700   5.759  11.361
 6179W        W10243   7.238   2.543   0.738
 6180W        W10244   3.693   7.980   1.425
 6181W        W10245   7.727  10.225  11.994
 6182W        W10246   0.389   5.975  11.141
 6183W        W10247   0.791   0.425  11.814
 6184W        W10248   3.113   3.568   0.008
 6185W        W10249   0.362   8.591   3.069
 6186W        W10250   4.253   9.182   9.484
 6187W        W10251   2.375   3.076   0.341
 6188W        W10252   3.306   2.852   3.582
 6189W        W10253   5.213   3.837   8.959
 6190W        W10254   2.831   8.861   1.173
 6191W        W10255  10.343   5.661   1.685
 6192W        W10256   0.950   2.121  10.434
 6193W        W10257   5.543   2.636   0.294
 6194W        W10258   6.447   4.307   8.939
 6195W        W10259   3.261   9.281  11.477
 6196W        W10260   3.760   4.694   1.000
 6197W        W10261   0.777   1.423   1.957
 6198W        W10262   9.532   1.596  11.730
 6199W        W10263   8.085   8.271   0.605
 6200W        W10264   1.838   5.090  10.337
 6201W        W10265   9.963   6.404   1.838
 6202W        W10266   4.943   6.443   0.326
 6203W        W10267   3.384   9.905  10.684
 6204W        W10268   6.571   2.463   2.865
 6205W        W10269   5.293   3.284   8.506
 6206W        W10270   8.957   3.145   8.920
 6207W        W10271   3.196   1.368  10.128
 6208W        W10272   9.781   6.551   8.878
 6209W        W10273   9.921   6.970   8.522
 6210W        W10274   4.607   1.548   2.869
 6211W        W10275   4.618   2.644   2.351
 6212W        W10276   3.981   4.244  11.646
 6213W        W10277   4.425   8.703   9.559
 6214W        W10278   6.259   6.914   0.004
 6215W        W10279   6.117   4.947   0.934
 6216W        W10280   2.784  10.118   2.326
 6217W        W10281   2.126  10.016   9.866
 6218W        W10282   4.702   1.000  10.199
 6219W        W10283   6.563   1.918   1.369
 6220W        W10284   6.070  10.399  10.296
 6221W        W10285   9.344   9.585   2.073
 6222W        W10286   8.631   5.793   8.513
 6223W        W10287   5.484   1.231   0.600
 6224W        W10288   0.633   9.855   9.817
 6225W        W10289   6.854   0.893   1.397
 6226W        W10290   5.221   3.200  11.734
 6227W        W10291   6.062   2.667   9.039
 6228W        W10292   0.420   9.023   3.584
 6229W        W10293   8.143   3.599   8.935
 6230W        W10294   0.698   1.795   0.001
 6231W        W10295   0.971   6.044   9.287
 6232W        W10296   8.070   7.597  10.866
 6233W        W10297   7.932   9.483   1.614
 6234W        W10298   6.951   3.776   9.700
 6235W        W10299   6.069   2.081   1.169
 6236W        W10300   9.304   7.497  10.617
 6237W        W10301   6.635   2.967   2.865
 6238W        W10302   5.633   9.361   1.708
 6239W        W10303   7.079   8.610  11.968
 6240W        W10304   2.845   2.376  10.905
 6241W        W10305   8.549   9.429   8.988
 6242W        W10306   1.290   6.047   1.001
 6243W        W10307   5.255   1.848  10.939
 6244W        W10308   9.070   6.999  11.180
 6245W        W10309   0.011   1.706   1.101
 6246W        W10310   6.576   0.774  10.018
 6247W        W10311   5.972   3.817   8.211
 6248W        W10312   9.250   2.197  10.009
 6249W        W10313   4.080   6.629   1.478
 6250W        W10314   5.193   9.004   9.926
 6251W        W10315   6.114   2.795   1.697
 6252W        W10316   5.221   4.697   9.722
 6253W        W10317   1.703   3.926   3.843
 6254W        W10318   7.366   5.181  11.020
 6255W        W10319   4.526   3.598   9.606
 6256W        W10320   1.932   1.407   2.712
 6257W        W10321   3.093   2.270   8.976
 6258W        W10322   9.468   8.282   0.275
 6259W        W10323   0.829   1.541   8.913
 6260W        W10324   3.838   7.699   1.832
 6261W        W10325   5.607   9.345  10.952
 6262W        W10326   0.699   2.980   1.507
 6263W        W10327   6.860   5.887   1.757
 6264W        W10328   3.068   4.046  11.075
 6265W        W10329   3.072   8.923   9.113
 6266W        W10330   9.860   2.228   0.679
 6267W        W10331   7.925   6.186   1.772
 6268W        W10332  10.237   0.753   0.302
 6269W        W10333   7.498   3.569   8.968
 6270W        W10334   5.922   0.541   9.607
 6271W        W10335   7.893   4.548   2.048
 6272W        W10336   6.916   0.285  10.543
 6273W        W10337   2.166   0.490  11.242
 6274W        W10338   3.305   0.744   2.422
 6275W        W10339   5.818   0.039   9.857
 6276W        W10340  10.126   1.340   3.421
 6277W        W10341   1.235   4.270  11.793
 6278W        W10342   6.665   6.091   8.780
 6279W        W10343   7.992   0.397   3.336
 6280W        W10344   1.431   0.302   2.042
 6281W        W10345   0.331   3.806   1.728
 6282W        W10346   7.951   9.983  10.620
 6283W        W10347   4.142   2.692   0.192
 6284W        W10348   9.523   5.200   9.055
 6285W        W10349   4.180   3.761   1.846
 6286W        W10350   6.616   3.811   2.482
 6287W        W10351   7.715   3.172   1.779
 6288W        W10352   5.387   0.432   2.740
 6289W        W10353   4.916   9.800   3.566
 6290W        W10354   3.801   2.101   8.665
 6291W        W10355   5.465   5.269   9.911
 6292W        W10356   3.111   4.772  10.592
 6293W        W10357   6.965   4.071  10.364
 6294W        W10358   0.269   1.764   3.121
 6295W        W10359   5.580   0.277  11.965
 6296W        W10360   3.300  10.280   3.447
 6297W        W10361   3.441   7.542   3.648
 6298W        W10362   1.263   1.694   0.363
 6299W        W10363   1.771   8.609   4.111
 6300W        W10364   3.702   1.176   3.092
 6301W        W10365   6.034   8.040  11.523
 6302W        W10366   2.867   3.139   0.179
 6303W        W10367   4.251   5.705   9.646
 6304W        W10368   3.668   8.696   1.832
 6305W        W10369   5.556   9.826   0.441
 6306W        W10370   2.279   4.742  11.752
 6307W        W10371   4.169   0.891   2.555
 6308W        W10372   6.782   3.249   1.729
 6309W        W10373   2.482   7.336  10.180
 6310W        W10374   7.926   0.333  11.050
 6311W        W10375   7.362   3.708   1.389
 6312W        W10376   9.853   5.985  11.434
 6313W        W10377   6.190   7.036   9.154
 6314W        W10378   9.158   0.878   9.922
 6315W        W10379   2.766   5.128  10.488
 6316W        W10380   7.500   2.879   2.956
 6317W        W10381   2.265   5.763   1.356
 6318W        W10382   1.222   0.481  11.548
 6319W        W10383   9.461   1.082  11.850
 6320W        W10384   6.086   8.800   9.959
 6321W        W10385   1.402   3.847   3.452
 6322W        W10386   4.839   8.901  11.811
 6323W        W10387   3.295   5.980   2.782
 6324W        W10388   9.092   2.728   9.993
 6325W        W10389   5.273   3.111   2.568
 6326W        W10390   8.950   4.947   1.333
 6327W        W10391   3.763   3.153   1.453
 6328W        W10392   3.201   7.762   1.467
 6329W        W10393  10.118   3.920   9.765
 6330W        W10394   0.026   0.363   1.690
 6331W        W10395   7.099   3.790  10.778
 6332W        W10396   7.912   3.148   8.803
 6333W        W10397   0.144   7.796   3.037
 6334W        W10398   8.442   5.147  11.860
 6335W        W10399   9.074   5.524   1.002
 6336W        W10400   5.771   1.597   3.412
 6337W        W10401   4.049   1.392  10.119
 6338W        W10402   3.192   8.867   1.955
 6339W        W10403   3.345   0.053   9.867
 6340W        W10404   2.447   6.453  10.239
 6341W        W10405   9.358   5.856   0.269
 6342W        W10406   3.107   6.560   3.498
 6343W        W10407   3.807  10.053   1.873
 6344W        W10408   3.334  10.041   9.802
 6345W        W10409   5.016   0.239   1.875
 6346W        W10410   5.285   8.077  10.328
 6347W        W10411   1.380   9.037   2.027
 6348W        W10412   1.385   2.263  10.138
 6349W        W10413   1.709   2.669   3.447
 6350W        W10414   0.181   3.794   2.740
 6351W        W10415   5.756   6.573  11.163
 6352W        W10416   8.035   9.384  11.390
 6353W        W10417   6.166   1.852  11.045
 6354W        W10418   5.092   8.086  11.364
 6355W        W10419   4.522   1.378   9.920
 6356W        W10420   6.149   7.077   0.474
 6357W        W10421   3.066   1.852   0.969
 6358W        W10422   6.947   4.627   1.503
 6359W        W10423   1.026  10.160   8.656
 6360W        W10424   6.310   8.270   3.277
 6361W        W10425   2.464   4.271  10.524
 6362W        W10426   2.129   0.773   9.931
 6363W        W10427   7.200   9.808   0.705
 6364W        W10428   9.536   1.657   1.952
 6365W        W10429   1.798   9.315   9.184
 6366W        W10430   5.587   8.679  11.821
 6367W        W10431   9.771   4.595  11.308
 6368W        W10432   7.090   5.925   2.600
 6369W        W10433   1.831   5.675  10.996
 6370W        W10434   9.345   4.948  11.948
 6371W        W10435   3.142   1.313   9.098
 6372W        W10436   7.870  10.258  11.495
 6373W        W10437   1.554   0.214  11.876
 6374W        W10438   6.326   5.581   2.515
 6375W        W10439   8.553   0.994  11.050
 6376W        W10440   0.635   4.588   1.864
 6377W        W10441   7.513   7.123   0.678
 6378W        W10442   6.621   4.750   3.106
 6379W        W10443   8.513  10.327   3.074
 6380W        W10444   8.006   1.816   2.743
 6381W        W10445   7.056   0.478   0.621
 6382W        W10446   2.231   3.215   2.323
 6383W        W10447   3.206   4.703   9.551
 6384W        W10448   9.315   9.906  10.574
 6385W        W10449   5.339   3.084   2.070
 6386W        W10450   4.205   7.960   3.378
 6387W        W10451   2.367   4.070   2.378
 6388W        W10452   0.728   4.225   0.699
 6389W        W10453   9.432   9.672   9.094
 6390W        W10454   5.744   1.154  11.979
 6391W        W10455   8.833   2.333   1.930
 6392W        W10456   6.910   0.454   8.971
 6393W        W10457   8.948   5.685   1.938
 6394W        W10458   1.715   3.780  10.771
 6395W        W10459   9.681   3.554   3.481
 6396W        W10460   8.462   8.481  10.893
 6397W        W10461   8.093   0.435   0.611
 6398W        W10462   0.778   3.142  10.045
 6399W        W10463   6.218   9.598   0.978
 6400W        W10464   5.314   9.941   0.950
 6401W        W10465  10.077   3.192   2.037
 6402W        W10466  10.385   9.284  10.008
 6403W        W10467   5.997   7.148  11.302
 6404W        W10468   2.342   1.461   1.250
 6405W        W10469   6.718   3.214  10.260
 6406W        W10470   3.666   9.099   3.175
 6407W        W10471   2.870   6.152   8.802
 6408W        W10472   3.287   4.761   2.239
 6409W        W10473   3.579  10.467   0.699
 6410W        W10474   8.967   7.551   8.706
 6411W        W10475   9.710   8.756   9.068
 6412W        W10476  10.407   2.163   2.996
 6413W        W10477   2.375   2.114  10.509
 6414W        W10478   2.056   3.244   9.752
 6415W        W10479   6.896   1.792   1.907
 6416W        W10480   9.922   1.322   2.062
 6417W        W10481   9.817   9.145   2.846
 6418W        W10482   2.959   4.296  10.644
 6419W        W10483   5.584   4.485   9.423
 6420W        W10484   5.500   3.289   3.481
 6421W        W10485   0.442   7.257  11.539
 6422W        W10486   2.170   3.768  11.643
 6423W        W10487  10.023   3.472   9.001
 6424W        W10488   2.725   3.117   8.988
 6425W        W10489   8.617   3.846  10.615
 6426W        W10490   3.752   3.124   3.495
 6427W        W10491   7.290   7.167   2.789
 6428W        W10492   1.856   5.017   1.153
 6429W        W10493   6.853   9.834   9.415
 6430W        W10494   3.601   5.031   2.631
 6431W        W10495   0.385   7.853   0.454
 6432W        W10496   8.961   9.359   1.306
 6433W        W10497   5.791   1.760   9.471
 6434W        W10498   2.178   6.508   0.292
 6435W        W10499   5.326   2.871  10.956
 6436W        W10500   8.983   9.520   9.292
 6437W        W10501   7.203   5.231   8.460
 6438W        W10502   5.148   6.626  10.440
 6439W        W10503   9.486   4.062   0.267
 6440W        W10504   8.340   1.842   0.775
 6441W        W10505   9.117   6.115   3.695
 6442W        W10506   8.862   8.401   3.180
 6443W        W10507   1.720   0.553   0.239
 6444W        W10508   1.305  10.477  11.463
 6445W        W10509   9.981   8.543   2.455
 6446W        W10510   8.434   6.013   1.773
 6447W        W10511   1.224   7.198   3.051
 6448W        W10512   5.632   8.281   9.532
 6449W        W10513   4.296   4.769   8.613
 6450W        W10514   9.967   7.918  11.105
 6451W        W10515   7.372   5.125   3.068
 6452W        W10516   8.056   2.286   1.956
 6453W        W10517   6.450   9.833   0.466
 6454W        W10518   4.980   3.661   9.379
 6455W        W10519   6.159   6.306  11.366
 6456W        W10520   1.880   0.388   3.001
 6457W        W10521   2.208   4.660   9.498
 6458W        W10522   6.495   9.621   9.744
 6459W        W10523   4.939   8.046   2.275
 6460W        W10524   4.434   2.604   1.801
 6461W        W10525  10.258   9.648  10.961
 6462W        W10526   6.261   5.153   2.263
 6463W        W10527   5.468   3.331   1.491
 6464W        W10528   0.719   7.828   9.033
 6465W        W10529   6.238  10.439   3.176
 6466W        W10530   6.330   2.837   0.797
 6467W        W10531   5.449   1.142  10.498
 6468W        W10532   4.683   2.748  10.117
 6469W        W10533   1.827   6.141   2.234
 6470W        W10534   6.252   5.058   3.303
 6471W        W10535   1.630   6.556   8.836
 6472W        W10536   6.058   6.088   1.817
 6473W        W10537   5.680   4.314   1.376
 6474W        W10538   3.830   7.746   0.355
 6475W        W10539   0.428   6.416   3.469
 6476W        W10540   0.872   4.977  10.263
 6477W        W10541   0.159  10.214   2.067
 6478W        W10542   5.273   2.699  11.858
 6479W        W10543   9.571   3.123   0.263
 6480W        W10544  10.191   6.473   8.565
 6481W        W10545   5.248  10.435   2.820
 6482W        W10546   7.474   9.118   9.522
 6483W        W10547   4.474   6.467   0.145
 6484W        W10548   8.625   9.539   2.748
 6485W        W10549   2.378   4.239   1.403
 6486W        W10550  10.365   2.189   0.942
 6487W        W10551   8.004   7.930  10.005
 6488W        W10552   1.452   9.595  11.494
 6489W        W10553   5.605   7.213   3.532
 6490W        W10554   2.863   6.906   8.620
 6491W        W10555   3.022   3.506   0.534
 6492W        W10556   0.338   9.898   3.238
 6493W        W10557   5.492   9.372   2.246
 6494W        W10558   7.699   3.280   1.257
 6495W        W10559   6.242   4.020   4.140
 6496W        W10560   8.091   0.722   1.439
 6497W        W10561   0.425   4.112   1.323
 6498W        W10562   3.544   0.533  11.051
 6499W        W10563   4.794   9.851   1.747
 6500W        W10564   5.053   6.559   3.369
 6501W        W10565   1.848   1.391   0.995
 6502W        W10566   6.225   5.253   1.785
 6503W        W10567  10.039   5.790   2.328
 6504W        W10568   8.618   1.652  11.846
 6505W        W10569   6.046   8.545   1.891
 6506W        W10570   7.391   9.190   2.968
 6507W        W10571   8.854   8.390   1.970
 6508W        W10572   7.375   1.214   2.463
 6509W        W10573   9.566   9.496  11.563
 6510W        W10574   0.960   6.866   0.816
 6511W        W10575   6.997   0.791  11.407
 6512W        W10576   1.191   1.310   2.283
 6513W        W10577   1.636   9.088   3.391
 6514W        W10578   4.045   5.890  10.069
 6515W        W10579   2.648   2.487  11.783
 6516W        W10580   1.585   7.455  10.395
 6517W        W10581   1.172   1.000   1.346
 6518W        W10582   6.102   4.466   1.104
 6519W        W10583   3.344   2.559   1.866
 6520W        W10584   5.822   2.701  10.949
 6521W        W10585   8.325   7.294   1.162
 6522W        W10586   6.253   7.793   0.415
 6523W        W10587   0.551   4.070  10.445
 6524W        W10588   6.544   2.740   2.434
 6525W        W10589   2.221   2.832   1.146
 6526W        W10590   0.638  10.297   1.916
 6527W        W10591   6.303   1.337  10.240
 6528W        W10592   8.916   4.006   9.084
 6529W        W10593   8.816   2.798   0.519
 6530W        W10594   3.198   6.719   1.549
 6531W        W10595   5.193   0.885   1.892
 6532W        W10596   8.071   7.732   1.159
 6533W        W10597   8.274  10.479   9.723
 6534W        W10598   1.762   3.050   2.510
 6535W        W10599   1.787   6.124  10.699
 6536W        W10600   9.436   2.398   1.414
 6537W        W10601   4.939   6.382   1.951
 6538W        W10602   9.402   5.429   2.693
 6539W        W10603   4.817   8.638   9.899
 6540W        W10604   2.156   6.531  11.251
 6541W        W10605   4.604   3.359   2.629
 6542W        W10606   5.702   0.232  10.945
 6543W        W10607   1.391   8.534   2.766
 6544W        W10608   2.731   6.029  10.287
 6545W        W10609   2.789   2.212   0.241
 6546W        W10610   3.764   5.429   3.451
 6547W        W10611   4.566   6.051   2.025
 6548W        W10612   6.444   2.315   9.099
 6549W        W10613   1.863   2.245   2.733
 6550W        W10614   8.870   1.348   3.040
 6551W        W10615   7.193   1.067  10.807
 6552W        W10616   2.346   2.322   1.847
 6553W        W10617   0.930   1.128  10.232
 6554W        W10618   6.584   0.793   2.737
 6555W        W10619   0.400   9.861   2.752
 6556W        W10620   4.525   2.626   9.127
 6557W        W10621   2.188   1.428   9.328
 6558W        W10622   3.691   5.359   0.379
 6559W        W10623   8.541   6.360   0.244
 6560W        W10624   7.228  10.320  11.866
 6561W        W10625   3.605   8.464  10.541
 6562W        W10626   4.692   8.917   2.633
 6563W        W10627   7.918   2.689   2.753
 6564W        W10628   3.207   0.917   0.949
 6565W        W10629   1.580   3.112   0.731
 6566W        W10630   5.433   8.031   2.323
 6567W        W10631   9.352   3.691   2.489
 6568W        W10632   4.254   5.678  11.743
 6569W        W10633   1.098   2.904   8.514
 6570W        W10634   9.067   6.408  11.015
 6571W        W10635   3.776   6.958  10.480
 6572W        W10636   8.810   3.754   1.935
 6573W        W10637   9.934   7.846   3.572
 6574W        W10638   6.600   0.524   0.265
 6575W        W10639   3.294   6.600   9.769
 6576W        W10640  10.083   9.305  11.271
 6577W        W10641   5.771   4.318   3.105
 6578W        W10642   5.613   3.208   0.455
 6579W        W10643   0.759   9.005   3.199
 6580W        W10644   7.802   7.167  10.134
 6581W        W10645   8.457   6.041   9.044
 6582W        W10646   1.480   0.049   2.866
 6583W        W10647   0.431   0.329   0.770
 6584W        W10648   3.631   5.488  10.348
 6585W        W10649   8.853  10.309   0.895
 6586W        W10650   8.593   8.523   8.896
 6587W        W10651   5.852   4.392   2.158
 6588W        W10652   0.186   6.503   8.736
 6589W        W10653   6.535   6.789   8.834
 6590W        W10654   0.114   8.596  10.905
 6591W        W10655   7.843   3.653   9.345
 6592W        W10656   3.007   7.087   1.872
 6593W        W10657   7.842   7.654   2.178
 6594W        W10658   5.172  10.237   1.847
 6595W        W10659   5.717   4.061   3.988
 6596W        W10660   5.504   7.602  11.830
 6597W        W10661   6.166   2.801  11.947
 6598W        W10662   4.910   8.741   8.446
 6599W        W10663   5.519   0.749   0.202
 6600W        W10664   8.341   5.998   0.910
 6601W        W10665   5.155   5.994   2.766
 6602W        W10666   8.585   4.190   1.739
 6603W        W10667   6.206   3.722  10.419
 6604W        W10668   2.188   2.306   0.957
 6605W        W10669   9.433   5.358   0.267
 6606W        W10670   7.447   3.084   9.735
 6607W        W10671   5.797   4.789   3.321
 6608W        W10672   1.980   6.131  11.719
 6609W        W10673   4.144   4.893   9.784
 6610W        W10674   5.904   1.383   9.817
 6611W        W10675   1.861   6.947   1.453
 6612W        W10676   4.989   1.666   2.502
 6613W        W10677   3.775   2.252   2.059
 6614W        W10678   6.943   6.304   9.463
 6615W        W10679   3.404   1.901  11.249
 6616W        W10680   1.804   0.854   0.643
 6617W        W10681   3.335   4.496   0.803
 6618W        W10682   9.760   4.202   2.950
 6619W        W10683   4.486  10.388   8.645
 6620W        W10684   0.262   6.204  10.275
 6621W        W10685   3.301   1.135   2.772
 6622W        W10686   1.810   5.673   8.694
 6623W        W10687   8.454   8.553   8.374
 6624W        W10688   5.096   1.418  10.692
 6625W        W10689   0.756   5.489   1.497
 6626W        W10690   9.254   8.163   2.883
 6627W        W10691   6.517   5.602  11.180
 6628W        W10692  10.368   5.972  11.306
 6629W        W10693   9.470   6.892   0.071
 6630W        W10694   9.675   2.508  11.514
 6631W        W10695   7.516   8.502   8.414
 6632W        W10696   7.956   1.407   9.369
 6633W        W10697   0.809   7.511   1.390
 6634W        W10698   0.899   3.600   0.279
 6635W        W10699   1.608   0.807  11.324
 6636W        W10700  10.261   7.456  11.288
 6637W        W10701   8.426   8.063  11.876
 6638W        W10702   7.037   2.295   3.580
 6639W        W10703   3.110   3.548  11.090
 6640W        W10704   0.333   5.791   0.998
 6641W        W10705   4.264   0.740  10.877
 6642W        W10706   7.969   6.947   0.441
 6643W        W10707   1.400   7.558  11.840
 6644W        W10708   4.966   3.517   9.875
 6645W        W10709   1.898   7.195   2.295
 6646W        W10710   1.277   6.297  11.308
 6647W        W10711   4.195   8.557   1.784
 6648W        W10712   4.960  10.298  10.144
 6649W        W10713   7.978   4.086  10.517
 6650W        W10714   8.919   2.803   9.533
 6651W        W10715   2.416   6.170   9.023
 6652W        W10716   1.022   8.512  10.707
 6653W        W10717   8.982   9.944   1.986
 6654W        W10718   1.259   9.017   3.036
 6655W        W10719   7.241   3.951   9.231
 6656W        W10720   7.172   0.493   0.126
 6657W        W10721   8.723  10.418   9.984
 6658W        W10722   2.771   6.895   2.272
 6659W        W10723   4.749   7.351  11.139
 6660W        W10724   2.212   3.709   0.658
 6661W        W10725   4.763   3.599   1.002
 6662W        W10726   9.358   1.827   3.690
 6663W        W10727   9.882   3.798  10.964
 6664W        W10728   6.419   9.581   3.364
 6665W        W10729   3.316   4.597   2.737
 6666W        W10730   3.288   7.039   0.171
 6667W        W10731   6.714   9.568   0.857
 6668W        W10732   5.651   9.234   3.351
 6669W        W10733   4.255   1.303   0.697
 6670W        W10734   8.810   3.803  11.716
 6671W        W10735  10.035   2.221   0.209
 6672W        W10736   6.092   0.920   8.953
 6673W        W10737   6.366   0.896   3.508
 6674W        W10738   9.136   1.483   1.694
 6675W        W10739   2.295  10.224  11.443
 6676W        W10740   0.687   7.870   9.547
 6677W        W10741   4.330   3.082   2.290
 6678W        W10742   2.458   9.701   9.585
 6679W        W10743   0.784   1.913   1.830
 6680W        W10744   5.562   9.835   2.725
 6681W        W10745   0.004   0.704   2.680
 6682W        W10746   0.366   5.006  10.245
 6683W        W10747   2.894   7.492   9.882
 6684W        W10748   8.671   1.240   1.939
 6685W        W10749   9.812   4.825   3.305
 6686W        W10750  10.129   8.655   2.948
 6687W        W10751   2.663   6.243   9.817
 6688W        W10752   6.623   5.721  10.708
 6689W        W10753   2.163   8.237  11.870
 6690W        W10754   5.285   6.933  10.050
 6691W        W10755   0.237   5.993   2.926
 6692W        W10756   1.020   7.622  11.442
 6693W        W10757   8.120   3.512   0.742
 6694W        W10758  10.449  10.220  11.325
 6695W        W10759   0.563   9.400   2.892
 6696W        W10760   6.457   2.348  10.485
 6697W        W10761   4.211   7.083  11.666
 6698W        W10762   6.398   5.119   2.751
 6699W        W10763   2.227   1.626   0.653
 6700W        W10764   9.027   1.892   9.023
 6701W        W10765   2.157   2.608   3.101
 6702W        W10766   0.374   3.603   1.258
 6703W        W10767   8.865   8.604   9.631
 6704W        W10768   5.991   2.333   0.249
 6705W        W10769   6.324   9.802   1.719
 6706W        W10770   2.562   7.334  10.727
 6707W        W10771   3.234   8.894   0.534
 6708W        W10772   3.309   4.205  10.271
 6709W        W10773   0.049   8.506   9.070
 6710W        W10774   7.409  10.199   0.956
 6711W        W10775   3.155   1.846   9.897
 6712W        W10776   8.110   3.094   2.506
 6713W        W10777   6.020   4.579   8.637
 6714W        W10778   4.608   4.096   1.831
 6715W        W10779   0.191   9.001   8.921
 6716W        W10780   4.125   3.245   2.743
 6717W        W10781   2.664   5.677  11.261
 6718W        W10782   7.062  10.473   0.718
 6719W        W10783   2.281   1.158   0.835
 6720W        W10784   3.827   5.471   2.446
 6721W        W10785   4.036   4.140   9.481
 6722W        W10786   9.783   5.941   1.919
 6723W        W10787   3.234  10.225  11.067
 6724W        W10788   0.032   7.578   0.712
 6725W        W10789   4.116   5.949  10.922
 6726W        W10790   6.999   3.359  11.076
 6727W        W10791   1.263   9.982   2.908
 6728W        W10792   7.406  10.430   9.513
 6729W        W10793   2.314   7.532   3.263
 6730W        W10794  10.316   1.207   8.881
 6731W        W10795   5.177   6.040   1.322
 6732W        W10796   8.375   3.090   3.325
 6733W        W10797   9.910   7.090   3.406
 6734W        W10798   6.980   9.992   3.111
 6735W        W10799   4.283   1.672   1.405
 6736W        W10800   6.566   3.557  11.553
 6737W        W10801   1.335  10.011   0.942
 6738W        W10802   3.675   5.772   8.869
 6739W        W10803   9.974   3.365   0.773
 6740W        W10804   4.471   7.925   2.401
 6741W        W10805   6.527   5.723   1.131
 6742W        W10806   0.903   6.199   0.387
 6743W        W10807   0.866   5.981   1.289
 6744W        W10808  10.324   3.989   0.646
 6745W        W10809   6.555   7.044   2.220
 6746W        W10810   9.515  10.264  10.260
 6747W        W10811   9.591   2.413   2.941
 6748W        W10812   6.393   1.805   1.897
 6749W        W10813   2.179   8.965   0.720
 6750W        W10814   5.079   7.195   0.759
 6751W        W10815   3.275   6.091   1.894
 6752W        W10816   7.562  10.071   0.479
 6753W        W10817   0.384   9.425   0.404
 6754W        W10818   6.951   4.260   8.939
 6755W        W10819   5.689   6.044   1.463
 6756W        W10820   9.194   3.294  11.930
 6757W        W10821   6.580   8.647  10.065
 6758W        W10822   4.654   8.478  10.944
 6759W        W10823   9.986   3.828   3.177
 6760W        W10824   5.113   0.861  11.928
 6761W        W10825   0.247   5.850   9.747
 6762W        W10826   5.547   1.161   1.091
 6763W        W10827   4.215   3.535   3.145
 6764W        W10828   2.265   6.711   3.036
 6765W        W10829   7.669   0.861  10.932
 6766W        W10830   6.859   9.438   2.458
 6767W        W10831  10.260   7.909   9.243
 6768W        W10832   2.622   8.796   2.116
 6769W        W10833   8.982   6.670   0.053
 6770W        W10834   1.615   9.006   1.031
 6771W        W10835   8.003   0.439   0.036
 6772W        W10836   2.316   4.725   1.224
 6773W        W10837   2.593   9.851   1.460
 6774W        W10838   6.667   5.406  10.324
 6775W        W10839   7.425   2.766   8.409
 6776W        W10840   8.854   1.778   0.770
 6777W        W10841   1.230   5.449  10.894
 6778W        W10842   5.299   6.494  11.431
 6779W        W10843   2.360   8.666   1.128
 6780W        W10844   5.490   0.427   9.887
 6781W        W10845   8.868   2.585   2.375
 6782W        W10846   6.709   8.988   9.036
 6783W        W10847   5.425   7.117   9.596
 6784W        W10848   0.076   8.325   8.608
 6785W        W10849   8.566   4.265   0.721
 6786W        W10850   8.917   3.105  10.420
 6787W        W10851   5.104   0.883   3.173
 6788W        W10852   7.631   1.252   0.115
 6789W        W10853   7.641   9.156   0.887
 6790W        W10854   5.560   4.338  10.741
 6791W        W10855   9.808   2.887   0.925
 6792W        W10856   1.757  10.227   0.749
 6793W        W10857   2.391   4.663   1.740
 6794W        W10858   6.342   8.347   0.360
 6795W        W10859   0.254   4.556   1.492
 6796W        W10860   5.229   2.912   1.615
 6797W        W10861   6.697   9.512   9.010
 6798W        W10862   3.495   8.538   3.088
 6799W        W10863   1.425   8.603  10.373
 6800W        W10864   8.934   6.656   1.990
 6801W        W10865   1.723   8.587   3.168
 6802W        W10866   5.160   4.143   3.308
 6803W        W10867   8.165   9.540   3.513
 6804W        W10868   6.174   9.849  10.086
 6805W        W10869   7.789   5.932  10.065
 6806W        W10870   4.167   0.879   0.387
 6807W        W10871   9.834   7.456   9.325
 6808W        W10872   4.288   0.414   0.226
 6809W        W10873   7.126   6.046   8.558
 6810W        W10874   1.250   9.853  10.783
 6811W        W10875   9.372   0.553  11.959
 6812W        W10876  10.256   5.778   0.220
 6813W        W10877   1.673   0.842   3.341
 6814W        W10878   2.455   4.614   0.726
 6815W        W10879   5.553   7.934   9.893
 6816W        W10880   5.184   5.656  10.407
 6817W        W10881   4.719   9.114   9.712
 6818W        W10882   8.337   3.266  11.284
 6819W        W10883  10.042  10.447   9.433
 6820W        W10884   6.880   8.967   1.672
 6821W        W10885   3.247   0.196  10.811
 6822W        W10886   4.471   8.085  10.681
 6823W        W10887   6.817   4.275  11.703
 6824W        W10888   9.879   4.791   2.368
 6825W        W10889   5.780   6.136   0.102
 6826W        W10890   5.112   1.394   1.816
 6827W        W10891   3.563   4.653  10.396
 6828W        W10892   5.696   8.411  11.367
 6829W        W10893   4.577   1.008   2.916
 6830W        W10894   0.506   3.277   2.832
 6831W        W10895   0.149   8.892   9.419
 6832W        W10896   4.968   1.693   0.047
 6833W        W10897  10.393   3.301   1.635
 6834W        W10898   8.986   0.979   8.942
 6835W        W10899   6.427   0.328  10.402
 6836W        W10900   3.328   9.594   0.108
 6837W        W10901   9.957   4.265   2.483
 6838W        W10902  10.293   2.221   2.464
 6839W        W10903   1.190   3.076   1.579
 6840W        W10904   2.980   1.740  11.496
 6841W        W10905   5.433   5.679   2.370
 6842W        W10906   8.869   3.678   9.475
 6843W        W10907   0.736   3.295   3.302
 6844W        W10908   3.956   8.923  11.966
 6845W        W10909   9.430   6.978   3.514
 6846W        W10910   6.693   5.408   1.934
 6847W        W10911   7.588   0.572   1.334
 6848W        W10912   5.595   7.006   2.306
 6849W        W10913   7.129   1.311   0.201
 6850W        W10914   5.436  10.393   0.289
 6851W        W10915   8.553  10.232   8.663
 6852W        W10916   8.889   7.147   0.235
 6853W        W10917   4.064   7.139  10.874
 6854W        W10918   8.828   5.102   9.826
 6855W        W10919   3.739   5.079   9.099
 6856W        W10920   0.379   2.239  11.926
 6857W        W10921   7.244   8.795   8.759
 6858W        W10922   0.085   9.441   3.508
 6859W        W10923   0.297   1.728  11.714
 6860W        W10924   1.772   2.092  11.619
 6861W        W10925   7.715   2.253   8.396
 6862W        W10926   4.010   3.987   3.108
 6863W        W10927   3.278  10.280  11.582
 6864W        W10928   7.591   1.662  10.239
 6865W        W10929   9.337   5.073   3.427
 6866W        W10930   9.575  10.016   0.760
 6867W        W10931   0.583   3.305  11.295
 6868W        W10932   1.776   2.598   9.097
 6869W        W10933   4.923   6.059   3.269
 6870W        W10934   9.859   6.808   2.248
 6871W        W10935   2.468   5.542   2.224
 6872W        W10936   5.022   1.743   3.090
 6873W        W10937   6.757   2.594   0.830
 6874W        W10938   5.456   2.230   9.592
 6875W        W10939   6.411   1.191   9.771
 6876W        W10940   7.956   2.286  11.876
 6877W        W10941   1.340   2.826   8.950
 6878W        W10942   1.265   7.358   0.324
 6879W        W10943   4.936   1.872   0.888
 6880W        W10944   0.838   4.273  10.824
 6881W        W10945   7.373   9.130  11.178
 6882W        W10946  10.044   5.223   9.319
 6883W        W10947   4.324   3.121  11.865
 6884W        W10948   3.400   1.301   0.255
 6885W        W10949   9.933   5.375   9.910
 6886W        W10950   7.361   4.134   3.866
 6887W        W10951   6.256   4.061   2.158
 6888W        W10952   2.090   1.891   1.976
 6889W        W10953   0.614   7.575   2.349
 6890W        W10954   6.454   3.333   9.005
 6891W        W10955   9.719   6.838   1.757
 6892W        W10956   5.673   8.861   3.004
 6893W        W10957  10.411   1.403   2.479
 6894W        W10958   0.320   4.228   2.033
 6895W        W10959   3.960   1.770  11.735
 6896W        W10960   0.371   1.762  10.320
 6897W        W10961   6.619   3.736   3.007
 6898W        W10962   8.603   5.535   0.803
 6899W        W10963   8.001   4.747   3.507
 6900W        W10964   7.143   9.426  11.998
 6901W        W10965   1.778   6.157  11.219
 6902W        W10966   2.615   7.941  11.983
 6903W        W10967   8.502   0.905  11.566
 6904W        W10968  10.096   5.498  10.483
 6905W        W10969   8.495   5.710   3.167
 6906W        W10970   3.702   0.248   9.557
 6907W        W10971   6.033   9.449   1.994
 6908W        W10972   0.906   0.662   8.478
 6909W        W10973   0.513  10.317   8.747
 6910W        W10974   9.006   9.313   8.812
 6911W        W10975   6.152   1.371  11.739
 6912W        W10976   0.051   8.506  10.394
 6913W        W10977   6.517   9.817  10.949
 6914W        W10978   2.696   2.601   8.885
 6915W        W10979   7.902   2.955  11.276
 6916W        W10980   0.845   3.541   9.223
 6917W        W10981   6.640   4.488  10.477
 6918W        W10982   2.594   5.140  11.007
 6919W        W10983   8.616   5.581  11.681
 6920W        W10984   4.423   1.325   0.232
 6921W        W10985   5.209   6.221   0.809
 6922W        W10986   6.345  10.137   8.251
 6923W        W10987   4.233   5.698   2.772
 6924W        W10988   9.947   7.993  10.125
 6925W        W10989   2.416   7.742   0.725
 6926W        W10990   8.986   3.627   1.182
 6927W        W10991   7.314   5.367  11.785
 6928W        W10992   8.324   3.698  11.866
 6929W        W10993   6.453   7.116   9.586
 6930W        W10994   9.964   7.081   0.077
 6931W        W10995   3.790   5.514   2.958
 6932W        W10996  10.479   0.907  11.888
 6933W        W10997   7.606  10.261   2.985
 6934W        W10998   5.098  10.426   3.345
 6935W        W10999   9.529   4.233   1.241
 6936W        W11000   7.556   4.677   3.199
 6937W        W11001   3.223  10.355   2.443
 6938W        W11002   6.924   3.119   3.665
 6939W        W11003   9.385   8.339  10.922
 6940W        W11004   8.017   7.122   3.260
 6941W        W11005   7.527   7.846   9.413
 6942W        W11006   8.452   3.319   2.811
 6943W        W11007   4.611   3.556   2.087
 6944W        W11008   6.457   4.954  10.447
 6945W        W11009   7.543   1.433   1.527
 6946W        W11010   6.032   4.588   0.569
 6947W        W11011   3.857   7.291   2.843
 6948W        W11012   8.559   0.658   1.657
 6949W        W11013   8.516   1.408  11.387
 6950W        W11014   1.248   4.705   1.365
 6951W        W11015   7.472   7.754  11.897
 6952W        W11016  10.344   2.753   9.119
 6953W        W11017   7.936   9.899   2.813
 6954W        W11018   4.491   6.625   2.200
 6955W        W11019   0.826   4.716   0.859
 6956W        W11020   7.068   4.734  11.548
 6957W        W11021   5.203   2.228  10.590
 6958W        W11022   1.693   4.714   0.452
 6959W        W11023   8.530  10.230   1.283
 6960W        W11024   0.110   8.022   0.995
 6961W        W11025   4.631   7.426  10.291
 6962W        W11026   8.420   9.010  11.507
 6963W        W11027   7.202   9.184   9.089
 6964W        W11028   6.288   6.088   9.988
 6965W        W11029   9.839  10.446   8.910
 6966W        W11030   5.941   1.907   0.604
 6967W        W11031   2.757   2.728   0.463
 6968W        W11032   0.304   5.153   2.152
 6969W        W11033   4.061   9.048   1.912
 6970W        W11034   1.889   5.093   1.671
 6971W        W11035   9.029   4.082   0.939
 6972W        W11036   0.406   5.607   0.515
 6973W        W11037   6.675   4.279   3.290
 6974W        W11038  10.443   7.943   3.516
 6975W        W11039   1.989   1.724  10.109
 6976W        W11040   7.594   0.675   3.108
 6977W        W11041   7.592   1.998   3.698
 6978W        W11042   1.215   8.637  11.687
 6979W        W11043   2.784   5.299  10.006
 6980W        W11044   2.409   2.584   3.543
 6981W        W11045  10.331   2.151   1.491
 6982W        W11046   6.008   1.724   8.639
 6983W        W11047   9.370   8.605   1.116
 6984W        W11048   0.754   3.720   0.797
 6985W        W11049   4.191   7.444   1.559
 6986W        W11050   6.320   4.663   0.144
 6987W        W11051   3.580   1.927   9.548
 6988W        W11052   3.086   6.368   3.978
 6989W        W11053   8.554   4.832   2.773
 6990W        W11054   9.346   0.166   8.982
 6991W        W11055   3.640   4.165   1.615
 6992W        W11056   1.601   4.219   0.776
 6993W        W11057   3.366   7.434   9.230
 6994W        W11058   9.865   9.080   9.444
 6995W        W11059   5.625   4.528   0.879
 6996W        W11060   2.232   4.700  10.350
 6997W        W11061  10.037   2.114  10.659
 6998W        W11062   9.246   9.850  11.811
 6999W        W11063   5.112  10.041   0.499
 7000W        W11064   1.196   0.315   2.528
 7001W        W11065   7.472   0.978  11.475
 7002W        W11066   9.969   2.280  11.171
 7003W        W11067   3.378   1.812  10.374
 7004W        W11068   7.997   4.797   9.978
 7005W        W11069   9.357   7.565   2.882
 7006W        W11070   6.408   0.343   2.893
 7007W        W11071   1.716   4.873   9.445
 7008W        W11072   3.631   1.424   9.407
 7009W        W11073   9.912   8.046   0.446
 7010W        W11074   8.849   1.004   0.363
 7011W        W11075   5.502   7.190  10.482
 7012W        W11076   2.401   9.437   0.682
 7013W        W11077   3.838   4.233  10.419
 7014W        W11078   4.800   4.265   2.290
 7015W        W11079   4.604   2.417   0.155
 7016W        W11080   8.422   5.565   0.153
 7017W        W11081   3.672  10.064  11.317
 7018W        W11082   9.062   4.783  11.342
 7019W        W11083   9.639   7.079   9.921
 7020W        W11084   4.573   8.669   8.835
 7021W        W11085   4.796   4.045  10.335
 7022W        W11086   1.946   0.790   9.001
 7023W        W11087   8.423  10.004   2.681
 7024W        W11088  10.195   5.669   3.604
 7025W        W11089   5.212   2.223   3.186
 7026W        W11090   6.901   5.533   0.031
 7027W        W11091   2.250   0.022   9.037
 7028W        W11092   8.151   5.148   2.614
 7029W        W11093   8.310   0.596  10.383
 7030W        W11094  10.022   5.279   8.799
 7031W        W11095   9.211   9.050  10.363
 7032W        W11096  10.025   4.636   2.858
 7033W        W11097   9.012   4.669  10.143
 7034W        W11098   5.744   4.805   1.278
 7035W        W11099   7.190   6.370   3.281
 7036W        W11100   1.683   3.591   9.802
 7037W        W11101   7.544   4.877   2.213
 7038W        W11102   3.768   1.769   9.066
 7039W        W11103   8.601   5.395   2.645
 7040W        W11104   4.073   9.944   3.153
 7041W        W11105   4.218   2.933   1.499
 7042W        W11106   7.106   4.496   3.474
 7043W        W11107   6.935   6.943  11.491
 7044W        W11108   9.787   4.504   0.247
 7045W        W11109   6.669   4.172   1.816
 7046W        W11110   2.637   6.824  10.865
 7047W        W11111   6.893   9.585   0.385
 7048W        W11112   1.890   3.445   8.495
 7049W        W11113  10.443   4.094   8.361
 7050W        W11114   5.462   9.525   8.966
 7051W        W11115   8.928   7.572   9.750
 7052W        W11116   1.310   3.834   0.073
 7053W        W11117   1.092   4.685   8.481
 7054W        W11118   4.555   3.585   9.070
 7055W        W11119   5.535   1.580   8.508
 7056W        W11120   0.855   7.948  10.021
 7057W        W11121  10.445  10.489  11.822
 7058W        W11122   1.444   2.270   1.379
 7059W        W11123   7.358   9.437   2.292
 7060W        W11124   5.518   6.713  11.957
 7061W        W11125   8.850   2.409   0.073
 7062W        W11126   6.427   3.071   8.549
 7063W        W11127   8.954   0.704  11.739
 7064W        W11128   0.298   4.489  11.480
 7065W        W11129   4.744   6.674   8.602
 7066W        W11130   6.698   6.757   9.319
 7067W        W11131   0.564   1.165   0.331
 7068W        W11132   9.259   2.414  11.788
 7069W        W11133   5.294   1.855  11.670
 7070W        W11134   1.181   1.798  11.852
 7071W        W11135   0.045   4.273   9.621
 7072W        W11136   1.027   3.269   2.426
 7073W        W11137   2.707   7.907   1.462
 7074W        W11138   3.286   6.049   9.059
 7075W        W11139   9.822   2.219   2.196
 7076W        W11140   4.279   2.198   1.461
 7077W        W11141   6.510   6.261   1.748
 7078W        W11142   3.081   6.565   2.009
 7079W        W11143   5.440   6.474   2.668
 7080W        W11144   0.815   9.818   3.091
 7081W        W11145   2.764   0.291   3.539
 7082W        W11146   7.880   2.045   0.952
 7083W        W11147   0.501   6.711   0.973
 7084W        W11148   2.202   1.258  10.501
 7085W        W11149   8.450   0.540   1.138
 7086W        W11150   7.894   1.868   1.707
 7087W        W11151   6.467   5.849   2.089
 7088W        W11152   6.680  10.394   2.871
 7089W        W11153   6.978   6.382   2.780
 7090W        W11154   4.288   2.148  11.869
 7091W        W11155   6.492   9.321   1.795
 7092W        W11156   6.113   2.723   2.727
 7093W        W11157   0.701   8.574  11.589
 7094W        W11158   2.290   7.216   1.444
 7095W        W11159   4.180  10.020  11.255
 7096W        W11160  10.287   6.505   2.232
 7097W        W11161  10.332   1.801  11.551
 7098W        W11162   9.295   4.221  10.060
 7099W        W11163   1.318   6.918  11.053
 7100W        W11164   3.736   7.479  10.522
 7101W        W11165   1.317   1.566  11.422
 7102W        W11166   9.577   0.037  11.220
 7103W        W11167   1.146   1.704  10.960
 7104W        W11168   0.389   3.290   1.782
 7105W        W11169   6.514   4.647   0.817
 7106W        W11170   0.032   9.101   0.169
 7107W        W11171   1.833   3.140   1.207
 7108W        W11172   9.864   7.490  10.844
 7109W        W11173   1.438   9.812   0.445
 7110W        W11174   1.606   4.317   1.911
 7111W        W11175   4.668   1.014   1.168
 7112W        W11176   6.890   6.671   1.296
 7113W        W11177   2.822   6.995  10.407
 7114W        W11178   3.533   7.015   9.576
 7115W        W11179   5.107   0.566   1.483
 7116W        W11180   1.991   4.280   0.440
 7117W        W11181   2.767   9.353   9.363
 7118W        W11182   9.255   8.920   3.443
 7119W        W11183   8.388   7.655   8.967
 7120W        W11184   4.050   7.004   9.553
 7121W        W11185   4.329   6.259   4.106
 7122W        W11186   0.805   0.378   1.850
 7123W        W11187   9.474   2.454   0.905
 7124W        W11188   9.853   5.044   1.534
 7125W        W11189   2.542   7.833   9.992
 7126W        W11190  10.204   0.531   3.092
 7127W        W11191   2.840   0.226   1.750
 7128W        W11192   3.335   4.764  11.047
 7129W        W11193   3.613   6.238   8.656
 7130W        W11194   9.544   2.507  11.017
 7131W        W11195   9.639   8.675   2.839
 7132W        W11196   5.530   9.371   9.466
 7133W        W11197   8.456   8.567   9.946
 7134W        W11198   7.863   5.412   8.864
 7135W        W11199   7.009   2.673   2.246
 7136W        W11200   2.665   1.870   2.702
 7137W        W11201   9.774   7.550  11.415
 7138W        W11202   6.918   3.511   9.222
 7139W        W11203   2.278   3.485  10.685
 7140W        W11204   9.180   9.126   0.448
 7141W        W11205   6.459  10.487   8.987
 7142W        W11206   9.026   2.056  10.860
 7143W        W11207   0.934   7.113  11.374
 7144W        W11208   1.410   5.610   3.290
 7145W        W11209   0.324   2.911   9.325
 7146W        W11210  10.309   5.999  10.473
 7147W        W11211   9.139   5.155   9.422
 7148W        W11212   0.523   3.218   2.307
 7149W        W11213   7.470   2.200  11.724
 7150W        W11214   0.126   1.344   3.432
 7151W        W11215  10.260   4.237  10.929
 7152W        W11216  10.371   2.927   9.615
 7153W        W11217   5.471   7.858   0.275
 7154W        W11218   4.762   7.349   1.298
 7155W        W11219   4.620   2.845   0.440
 7156W        W11220   2.378   7.419  11.218
 7157W        W11221   9.308  10.031   2.813
 7158W        W11222   6.620   5.249   3.614
 7159W        W11223   3.607   0.248   3.532
 7160W        W11224   6.218   5.704  10.368
 7161W        W11225   2.589   0.186   0.004
 7162W        W11226   1.451   4.926   1.827
 7163W        W11227   1.874   8.904   9.810
 7164W        W11228  10.261   1.095  10.978
 7165W        W11229   4.294   4.723   0.963
 7166W        W11230   1.812  10.382  11.155
 7167W        W11231   0.380   6.156   0.634
 7168W        W11232   6.779   1.694   0.880
 7169W        W11233   0.912   3.860  11.747
 7170W        W11234   6.134   3.332   8.083
 7171W        W11235   3.593   6.631   0.195
 7172W        W11236   6.982   5.031   9.375
 7173W        W11237   7.360   9.506  11.545
 7174W        W11238   4.632   9.609   1.042
 7175W        W11239   2.605   4.715  10.728
 7176W        W11240   5.493   7.022   3.996
 7177W        W11241   9.695   7.577   2.179
 7178W        W11242   9.715   3.003  11.341
 7179W        W11243   6.236   5.275   1.293
 7180W        W11244   0.321   3.159  10.321
 7181W        W11245   0.415   8.462   9.416
 7182W        W11246   3.788   8.476   2.315
 7183W        W11247   9.628   8.740   2.146
 7184W        W11248   8.347   2.285  11.490
 7185W        W11249   0.183   2.141  10.006
 7186W        W11250   4.975   0.393   9.145
 7187W        W11251   5.110   7.702   0.640
 7188W        W11252  10.041  10.281   0.802
 7189W        W11253   2.301   6.466  10.724
 7190W        W11254   4.985   5.343   1.654
 7191W        W11255   9.471   1.352   1.335
 7192W        W11256   1.874   4.435  11.483
 7193W        W11257   7.689   6.638  11.369
 7194W        W11258   6.690   5.275   3.121
 7195W        W11259   1.273   5.920   1.963
 7196W        W11260   7.069   4.013   3.064
 7197W        W11261   1.821   6.168   0.241
 7198W        W11262   7.565   7.293   2.380
 7199W        W11263   5.528   9.408  10.453
 7200W        W11264   2.688   6.393   2.322
 7201W        W11265   4.064   9.048   0.479
 7202W        W11266   6.091   2.380   0.743
 7203W        W11267   0.822   8.091   2.245
 7204W        W11268   3.196   6.533   8.794
 7205W        W11269   1.710   8.857   8.919
 7206W        W11270   1.312   5.207  10.432
 7207W        W11271   5.605   2.827   2.825
 7208W        W11272   3.233   1.846   0.496
 7209W        W11273   1.623   6.966   1.905
 7210W        W11274   6.212   3.051   9.356
 7211W        W11275   4.813   7.995   3.614
 7212W        W11276   7.532   9.558   9.279
 7213W        W11277   6.659   1.723   2.369
 7214W        W11278   2.803   2.838   9.883
 7215W        W11279  10.260   2.814  10.562
 7216W        W11280   1.789   6.922  11.260
 7217W        W11281   5.939   8.097  11.010
 7218W        W11282   4.151   5.744   2.130
 7219W        W11283   9.960   7.584   1.327
 7220W        W11284   0.815   9.413  10.047
 7221W        W11285   4.187   5.590  11.258
 7222W        W11286   1.343   8.158  11.561
 7223W        W11287   8.592   3.768   1.454
 7224W        W11288   6.887   0.911   0.404
 7225W        W11289   4.736   5.383  10.416
 7226W        W11290   9.832   8.053   2.301
 7227W        W11291   7.157  10.173   8.748
 7228W        W11292   8.122   8.185  11.324
 7229W        W11293   3.043   2.358  10.029
 7230W        W11294   7.595   6.860  10.892
 7231W        W11295   4.093   4.265   9.977
 7232W        W11296  10.293   6.221   0.474
 7233W        W11297   6.404   9.677   2.573
 7234W        W11298   5.056   9.572  11.743
 7235W        W11299   8.621   4.430   2.438
 7236W        W11300   1.618   7.245   2.726
 7237W        W11301   7.511   7.017   3.293
 7238W        W11302   9.401   5.183   1.270
 7239W        W11303   8.314   9.190   2.380
 7240W        W11304   0.321   8.172  11.592
 7241W        W11305   9.843   1.761   3.568
 7242W        W11306   8.437   8.332   2.285
 7243W        W11307   6.926   4.649   8.595
 7244W        W11308   0.598   7.195   1.039
 7245W        W11309   0.781  10.434  10.971
 7246W        W11310   4.166   9.336   2.325
 7247W        W11311   6.514   2.148   0.896
 7248W        W11312   0.793   6.991  10.269
 7249W        W11313   2.813   5.878   3.928
 7250W        W11314   4.071   6.630  11.426
 7251W        W11315   5.938   6.897  10.528
 7252W        W11316   8.406   8.579   9.431
 7253W        W11317   9.426   0.669   9.017
 7254W        W11318   8.099   5.180   0.332
 7255W        W11319   4.784   4.188   0.281
 7256W        W11320   9.873   0.867  10.293
 7257W        W11321   2.892   6.677   9.486
 7258W        W11322   6.857   5.914   0.355
 7259W        W11323  10.428   6.601   1.726
 7260W        W11324   7.377   4.473   9.843
 7261W        W11325   7.951   3.196   2.990
 7262W        W11326   1.386   4.695   0.028
 7263W        W11327   6.279   0.416   1.074
 7264W        W11328   3.114   0.851  10.177
 7265W        W11329   9.489   8.029   1.627
 7266W        W11330   2.115   4.993   0.613
 7267W        W11331   4.209   9.376  11.881
 7268W        W11332   2.804   6.969   0.936
 7269W        W11333   2.764   3.813  11.440
 7270W        W11334   1.706  10.330   9.719
 7271W        W11335   0.908   5.496   8.625
 7272W        W11336   5.928   6.871   3.315
 7273W        W11337   7.414   7.574   0.397
 7274W        W11338   5.206   0.538   2.276
 7275W        W11339   3.284   9.688  11.134
 7276W        W11340   9.254   7.071  10.331
 7277W        W11341   4.978   5.580   0.279
 7278W        W11342   1.778   1.397  11.260
 7279W        W11343   0.546   5.194   8.890
 7280W        W11344   5.735   9.415   0.919
 7281W        W11345   5.025   6.987  11.390
 7282W        W11346   0.875   9.894   1.685
 7283W        W11347   1.683   9.788   8.994
 7284W        W11348   8.980   6.610   9.555
 7285W        W11349   9.908   2.662  11.967
 7286W        W11350   8.004   8.432   8.569
 7287W        W11351   1.979   5.651   2.317
 7288W        W11352   7.869   7.481   9.231
 7289W        W11353   5.550   5.723   9.030
 7290W        W11354   0.310   3.549   9.993
 7291W        W11355  10.362   6.592  11.825
 7292W        W11356   3.339   3.064  11.992
 7293W        W11357   4.564   7.698   9.869
 7294W        W11358   8.419   2.111  11.971
 7295W        W11359   6.534   7.509  10.644
 7296W        W11360   2.824   2.287   2.951
 7297W        W11361   7.439   2.077   9.762
 7298W        W11362   3.641   5.017   9.601
 7299W        W11363   9.371   7.878   2.473
 7300W        W11364   5.948   8.656   0.329
 7301W        W11365   3.610   3.813   9.426
 7302W        W11366   0.281   6.544   2.120
 7303W        W11367   2.355   5.111   9.308
 7304W        W11368   9.795   8.080   1.228
 7305W        W11369   9.359  10.155   8.869
 7306W        W11370   7.368   1.759  11.975
 7307W        W11371   1.473   3.162   2.936
 7308W        W11372   0.780  10.302  10.089
 7309W        W11373   0.858   7.600   3.608
 7310W        W11374   1.247   1.294   9.078
 7311W        W11375   8.093   0.282   9.046
 7312W        W11376   5.084   0.761   0.992
 7313ION    NA+11377   6.455   4.855   8.700
 7314ION    NA+11378   1.851  10.068   2.202
 7315ION    NA+11379   7.751   7.062  11.702
 7316ION    NA+11380   9.074   5.967   1.327
 7317ION    NA+11381   5.490   3.581   9.494
 7318ION    NA+11382   7.905   4.757   0.131
 7319ION    NA+11383   5.517   4.050   0.951
 7320ION    NA+11384   6.206   1.438  10.732
 7321ION    NA+11385   2.609   8.350   9.891
 7322ION    NA+11386   2.746   4.596  10.257
 7323ION    NA+11387   1.509   2.373  10.629
 7324ION    NA+11388  10.106   4.991  11.452
 7325ION    NA+11389   2.675   0.356  10.294
 7326ION    NA+11390   0.616   9.099   9.422
 7327ION    NA+11391   5.162   4.585   2.629
 7328ION    NA+11392   4.197   8.544   0.226
 7329ION    NA+11393   7.464   4.368   2.311
 7330ION    NA+11394   1.129   7.648   2.313
 7331ION    NA+11395   8.849   0.613   9.619
 7332ION    NA+11396   3.712   2.628  10.089
 7333ION    NA+11397   7.330   1.271   1.968
 7334ION    NA+11398   4.990   3.251   0.662
 7335ION    NA+11399   4.217   5.412   0.515
 7336ION    NA+11400   0.612   8.410  11.106
 7337ION    NA+11401   0.659   2.699   1.090
 7338ION    NA+11402   8.271   1.535   1.757
 7339ION    NA+11403   0.811   2.717   9.785
 7340ION    NA+11404   1.509   2.731   0.012
 7341ION    NA+11405   7.120   9.063   9.900
 7342ION    NA+11406   8.435   6.214   3.079
 7343ION    NA+11407   2.926   9.514   2.714
 7344ION    NA+11408   8.925   9.114   2.642
 7345ION    NA+11409   2.398   2.142  11.025
 7346ION    NA+11410   0.919   5.163  11.975
 7347ION    NA+11411   9.656   2.094  11.828
 7348ION    NA+11412   7.063   7.189   0.354
 7349ION    NA+11413   2.298   1.255   9.971
 7350ION    NA+11414   4.985   4.086  11.780
 7351ION    NA+11415   6.543   7.773   9.035
 7352ION    NA+11416   8.634   8.243  11.404
 7353ION    NA+11417   2.699   6.484   0.332
 7354ION    NA+11418   1.669   5.206   2.714
 7355ION    NA+11419   5.152   8.228   0.931
 7356ION    NA+11420   5.630   6.081  11.222
 7357ION    NA+11421   3.042   7.166   9.514
 7358ION    NA+11422   6.710   9.159   3.244
 7359ION    NA+11423   1.695   7.126  10.784
 7360ION    NA+11424   0.015   1.619   9.153
 7361ION    NA+11425   1.429   8.281   0.566
 7362ION    NA+11426   7.907   8.735   9.378
 7363ION    NA+11427   8.377   9.055  10.879
 7364ION    NA+11428   4.403   1.499  11.418
 7365ION    NA+11429   3.116   2.877  11.292
 7366ION    NA+11430   3.806   3.884   0.663
 7367ION    NA+11431   7.674   7.839   1.454
 7368ION    NA+11432   8.992   5.110   2.763
 7369ION    NA+11433   6.646   1.700   3.194
 7370ION    NA+11434   3.450   8.391  11.448
 7371ION    NA+11435   9.881   9.534   1.267
 7372ION    NA+11436   7.042   3.112   2.547
 7373ION    NA+11437   6.192   2.560   1.232
 7374ION    NA+11438   4.004   2.278   0.938
 7375ION    NA+11439   6.001   9.625   9.631
 7376ION    NA+11440   9.948   9.820  11.378
 7377ION    NA+11441   9.026  10.334  10.431
 7378ION    NA+11442   1.193   9.093   0.758
 7379ION    NA+11443   8.514   7.007   2.973
 7380ION    NA+11444   3.735   1.671   3.046
 7381ION    NA+11445   6.034   6.986   8.687
 7382ION    NA+11446   6.575   0.717   0.783
 7383ION    NA+11447   8.440   6.856   0.228
 7384ION    NA+11448   7.091   6.433  11.700
 7385ION    NA+11449   1.488   4.549   8.920
 7386ION    NA+11450   1.659   0.352  10.351
 7387ION    NA+11451   2.986   3.962   0.301
 7388ION    NA+11452   2.089   0.189  11.638
 7389ION    NA+11453   3.863  10.114   0.463
 7390ION    CL-11454   5.834   5.590   2.678
 7391ION    CL-11455   8.175   9.871   1.379
 7392ION    CL-11456   6.203   0.546   0.595
 7393ION    CL-11457   6.570   1.699  10.771
 7394ION    CL-11458   7.469   7.258   9.477
 7395ION    CL-11459  10.165   8.330   0.946
 7396ION    CL-11460   4.084   5.273   9.430
 7397ION    CL-11461   1.573   7.685   2.359
 7398ION    CL-11462   1.912   5.497  10.026
 7399ION    CL-11463   9.436   7.500   3.420
 7400ION    CL-11464   5.541   2.626  11.366
 7401ION    CL-11465   2.853   9.935   8.415
 7402ION    CL-11466   4.096   6.409  10.116
 7403ION    CL-11467   2.317   3.899   3.013
 7404ION    CL-11468   1.201   8.677   0.575
 7405ION    CL-11469  10.462   5.161   9.585
 7406ION    CL-11470   9.158   9.485   2.551
 7407ION    CL-11471   2.122   8.439   3.451
 7408ION    CL-11472  10.251   7.909   0.044
 7409ION    CL-11473   0.282   1.591   0.224
 7410ION    CL-11474   7.831   7.407   1.453
 7411ION    CL-11475   7.714   8.331   9.347
 7412ION    CL-11476   2.908   2.916  11.686
 7413ION    CL-11477   4.245   5.263   0.092
 7414ION    CL-11478   0.642   8.796   9.095
 7415ION    CL-11479   2.009   6.469   1.606
 7416ION    CL-11480   7.874   6.401   9.105
 7417ION    CL-11481   7.354   6.800  11.779
 7418ION    CL-11482   5.490   7.384  11.341
 7419ION    CL-11483   2.808   2.275   3.462
 7420ION    CL-11484   0.978   4.783  11.748
 7421ION    CL-11485   0.282   3.936   0.868
 7422ION    CL-11486   8.656   6.575   2.906
 7423ION    CL-11487   1.049   8.498  11.207
 7424ION    CL-11488  10.191  10.004  11.720
 7425ION    CL-11489   7.261   6.319   1.330
 7426ION    CL-11490   9.642   6.172   3.682
 7427ION    CL-11491   3.905   1.920   1.186
 7428ION    CL-11492   2.867   3.148   2.950
 7429ION    CL-11493   6.229   4.747   9.070
 7430ION    CL-11494   4.482   1.668  11.823
 7431ION    CL-11495   1.909   0.589  11.734
 7432ION    CL-11496   7.858   2.154  10.991
 7433ION    CL-11497   9.839   8.034   9.547
 7434ION    CL-11498   9.696   9.588  11.075
 7435ION    CL-11499   6.509   9.264   2.851
 7436ION    CL-11500  10.068   2.211  11.704
 7437ION    CL-11501   3.414   3.872   0.432
 7438ION    CL-11502   2.285   3.686   2.036
 7439ION    CL-11503   8.861   7.931  11.630
 7440ION    CL-11504   3.677   1.464   2.650
 7441ION    CL-11505  10.376   3.753  10.821
 7442ION    CL-11506   7.360   8.146   1.329
 7443ION    CL-11507   6.763   1.279   9.420
 7444ION    CL-11508   4.140   4.794   1.787
 7445ION    CL-11509   9.341   5.937   1.680
 7446ION    CL-11510   0.249   8.133  11.088
 7447ION    CL-11511   6.312   6.624   1.256
 7448ION    CL-11512   8.649   0.918   9.875
 7449ION    CL-11513   8.808   3.096  11.492
 7450ION    CL-11514   9.374   0.783  11.398
 7451ION    CL-11515   4.789   8.498   9.285
 7452ION    CL-11516   0.051   0.343   0.182
 7453ION    CL-11517   5.090   4.485  11.981
 7454ION    CL-11518   3.822  10.018   9.120
 7455ION    CL-11519   1.280   4.278   2.367
 7456ION    CL-11520   8.134   7.072  11.970
 7457ION    CL-11521   8.872   1.886   3.127
 7458ION    CL-11522   3.264   7.592  10.742
 7459ION    CL-11523   9.569   6.679  10.252
 7460ION    CL-11524   4.454   8.902   0.152
 7461ION    CL-11525   7.684   5.926   2.147
 7462ION    CL-11526   1.482   4.212  10.531
 7463ION    CL-11527   0.723   6.567   2.424
 7464ION    CL-11528   8.359   5.557   8.901
 7465ION    CL-11529  10.126   3.988   8.741
 7466ION    CL-11530   5.075   3.720  11.521
  10.50000  10.50000  12.00000
